<event>
 7    1  0.2243370E-008  0.4614232E+02  0.7816164E-02  0.1320468E+00
        -11   -1    0    0    0    0  0.00000000000E+00  0.00000000000E+00  0.45593999997E+02  0.45594000000E+02  0.51100000000E-03 0. -1.
         11   -1    0    0    0    0 -0.00000000000E+00 -0.00000000000E+00 -0.45593999997E+02  0.45594000000E+02  0.51100000000E-03 0.  1.
    9900012    2    1    2    0    0 -0.29149696645E+00 -0.41753704355E+02 -0.16901381491E+02  0.46142317697E+02  0.99999994139E+01 0.  0.
         12    1    1    2    0    0  0.29149696645E+00  0.41753704355E+02  0.16901381491E+02  0.45045682303E+02  0.00000000000E+00 0. -1.
         11    1    3    3    0    0  0.29990455658E+01 -0.17027542445E+02 -0.54738339422E+01  0.18135444145E+02  0.51100000000E-03 0. -1.
        -11    1    3    3    0    0  0.89242045700E+00 -0.12707627588E+02 -0.44498387337E+01  0.13493749598E+02  0.51100000000E-03 0.  1.
         12    1    3    3    0    0 -0.41829629893E+01 -0.12018534322E+02 -0.69777088152E+01  0.14513123955E+02  0.00000000000E+00 0. -1.
</event>
<event>
 7    1  0.2243370E-008  0.4614232E+02  0.7816164E-02  0.1320468E+00
        -11   -1    0    0    0    0  0.00000000000E+00  0.00000000000E+00  0.45593999997E+02  0.45594000000E+02  0.51100000000E-03 0.  1.
         11   -1    0    0    0    0 -0.00000000000E+00 -0.00000000000E+00 -0.45593999997E+02  0.45594000000E+02  0.51100000000E-03 0. -1.
    9900012    2    1    2    0    0 -0.42455118038E+02  0.67548576086E+01  0.13455419874E+02  0.46142317933E+02  0.10000001567E+02 0.  0.
         12    1    1    2    0    0  0.42455118038E+02 -0.67548576086E+01 -0.13455419874E+02  0.45045682067E+02  0.00000000000E+00 0. -1.
         11    1    3    3    0    0 -0.22829573063E+02  0.55274536601E+01  0.83195938781E+01  0.24919024716E+02  0.51100000000E-03 0. -1.
        -11    1    3    3    0    0 -0.18885214097E+02  0.20068662747E+01  0.59197949831E+01  0.19892782526E+02  0.51100000000E-03 0.  1.
         12    1    3    3    0    0 -0.74033087723E+00 -0.77946232619E+00 -0.78396898746E+00  0.13305106911E+01  0.00000000000E+00 0. -1.
</event>
<event>
 7    1  0.2243370E-008  0.4614232E+02  0.7816164E-02  0.1320468E+00
        -11   -1    0    0    0    0  0.00000000000E+00  0.00000000000E+00  0.45593999997E+02  0.45594000000E+02  0.51100000000E-03 0.  1.
         11   -1    0    0    0    0 -0.00000000000E+00 -0.00000000000E+00 -0.45593999997E+02  0.45594000000E+02  0.51100000000E-03 0. -1.
    9900012    2    1    2    0    0 -0.25862375542E+02 -0.33816601140E+02  0.14720346650E+02  0.46142316668E+02  0.99999900362E+01 0.  0.
         12    1    1    2    0    0  0.25862375542E+02  0.33816601140E+02 -0.14720346650E+02  0.45045683332E+02  0.00000000000E+00 0. -1.
         11    1    3    3    0    0 -0.14002495851E+02 -0.11634221139E+02  0.64235282377E+01  0.19305095360E+02  0.51100000000E-03 0. -1.
        -11    1    3    3    0    0 -0.62994865093E+01 -0.13124664339E+02  0.26342035509E+01  0.14794572414E+02  0.51100000000E-03 0.  1.
         12    1    3    3    0    0 -0.55603931817E+01 -0.90577156618E+01  0.56626148612E+01  0.12042648895E+02  0.00000000000E+00 0. -1.
</event>
<event>
 7    1  0.2243370E-008  0.4614231E+02  0.7816164E-02  0.1320468E+00
        -11   -1    0    0    0    0  0.00000000000E+00  0.00000000000E+00  0.45593999997E+02  0.45594000000E+02  0.51100000000E-03 0.  1.
         11   -1    0    0    0    0 -0.00000000000E+00 -0.00000000000E+00 -0.45593999997E+02  0.45594000000E+02  0.51100000000E-03 0. -1.
    9900012    2    1    2    0    0 -0.43296839939E+01  0.17468621844E+02  0.41294248010E+02  0.46142313955E+02  0.99999652911E+01 0.  0.
         12    1    1    2    0    0  0.43296839939E+01 -0.17468621844E+02 -0.41294248010E+02  0.45045686045E+02  0.00000000000E+00 0. -1.
         11    1    3    3    0    0 -0.21462313528E+01  0.42450180436E+01  0.56041252217E+01  0.73506943190E+01  0.51100000000E-03 0. -1.
        -11    1    3    3    0    0 -0.47340692645E+01  0.80771722929E+01  0.19989504860E+02  0.22073342041E+02  0.51100000000E-03 0.  1.
        -12    1    3    3    0    0  0.25506166234E+01  0.51464315071E+01  0.15700617928E+02  0.16718277595E+02  0.00000000000E+00 0.  1.
</event>
<event>
 7    1  0.2243370E-008  0.4614232E+02  0.7816164E-02  0.1320468E+00
        -11   -1    0    0    0    0  0.00000000000E+00  0.00000000000E+00  0.45593999997E+02  0.45594000000E+02  0.51100000000E-03 0.  1.
         11   -1    0    0    0    0 -0.00000000000E+00 -0.00000000000E+00 -0.45593999997E+02  0.45594000000E+02  0.51100000000E-03 0. -1.
    9900012    2    1    2    0    0 -0.40035992048E+02 -0.14906291618E+02  0.14284095634E+02  0.46142316775E+02  0.99999910096E+01 0.  0.
         12    1    1    2    0    0  0.40035992048E+02  0.14906291618E+02 -0.14284095634E+02  0.45045683225E+02  0.00000000000E+00 0. -1.
         11    1    3    3    0    0 -0.83858828939E+01 -0.50867727207E+01  0.17796616698E+01  0.99682237406E+01  0.51100000000E-03 0. -1.
        -11    1    3    3    0    0 -0.65152302769E+00  0.34986233868E+00 -0.66279460378E+00  0.99306739931E+00  0.51100000000E-03 0.  1.
        -12    1    3    3    0    0 -0.30998586127E+02 -0.10169381236E+02  0.13167228568E+02  0.35181025635E+02  0.00000000000E+00 0.  1.
</event>
<event>
 7    1  0.2243370E-008  0.4614231E+02  0.7816164E-02  0.1320468E+00
        -11   -1    0    0    0    0  0.00000000000E+00  0.00000000000E+00  0.45593999997E+02  0.45594000000E+02  0.51100000000E-03 0.  1.
         11   -1    0    0    0    0 -0.00000000000E+00 -0.00000000000E+00 -0.45593999997E+02  0.45594000000E+02  0.51100000000E-03 0. -1.
    9900012    2    1    2    0    0  0.94642316520E+00 -0.24544325403E+02  0.37759690905E+02  0.46142313375E+02  0.99999599999E+01 0.  0.
         12    1    1    2    0    0 -0.94642316520E+00  0.24544325403E+02 -0.37759690905E+02  0.45045686625E+02  0.00000000000E+00 0. -1.
         11    1    3    3    0    0 -0.13366588496E+01 -0.45782900638E+01  0.50598318852E+01  0.69533657862E+01  0.51100000000E-03 0. -1.
        -11    1    3    3    0    0  0.27374790521E+01 -0.16557516424E+02  0.20392383714E+02  0.26410120324E+02  0.51100000000E-03 0.  1.
        -12    1    3    3    0    0 -0.45439703729E+00 -0.34085189150E+01  0.12307475306E+02  0.12778827265E+02  0.00000000000E+00 0.  1.
</event>
<event>
 7    1  0.2243370E-008  0.4614232E+02  0.7816164E-02  0.1320468E+00
        -11   -1    0    0    0    0  0.00000000000E+00  0.00000000000E+00  0.45593999997E+02  0.45594000000E+02  0.51100000000E-03 0. -1.
         11   -1    0    0    0    0 -0.00000000000E+00 -0.00000000000E+00 -0.45593999997E+02  0.45594000000E+02  0.51100000000E-03 0.  1.
    9900012    2    1    2    0    0  0.19145788095E+02 -0.40199772967E+02 -0.68213289051E+01  0.46142317894E+02  0.10000001210E+02 0.  0.
         12    1    1    2    0    0 -0.19145788095E+02  0.40199772967E+02  0.68213289051E+01  0.45045682106E+02  0.00000000000E+00 0. -1.
         11    1    3    3    0    0  0.13971642534E+01 -0.32276180317E+01 -0.32129321176E+01  0.47636665672E+01  0.51100000000E-03 0. -1.
        -11    1    3    3    0    0  0.11354908845E+02 -0.22761570156E+02 -0.42182030624E+01  0.25784031264E+02  0.51100000000E-03 0.  1.
        -12    1    3    3    0    0  0.63937149967E+01 -0.14210584779E+02  0.60980627495E+00  0.15594620063E+02  0.00000000000E+00 0.  1.
</event>
<event>
 7    1  0.2243370E-008  0.4614231E+02  0.7816164E-02  0.1320468E+00
        -11   -1    0    0    0    0  0.00000000000E+00  0.00000000000E+00  0.45593999997E+02  0.45594000000E+02  0.51100000000E-03 0.  1.
         11   -1    0    0    0    0 -0.00000000000E+00 -0.00000000000E+00 -0.45593999997E+02  0.45594000000E+02  0.51100000000E-03 0. -1.
    9900012    2    1    2    0    0  0.88565151668E+01 -0.31275923106E+02  0.31184815784E+02  0.46142312498E+02  0.99999520087E+01 0.  0.
         12    1    1    2    0    0 -0.88565151668E+01  0.31275923106E+02 -0.31184815784E+02  0.45045687502E+02  0.00000000000E+00 0. -1.
         11    1    3    3    0    0  0.79680560493E+01 -0.12961874924E+02  0.13011665279E+02  0.20020078729E+02  0.51100000000E-03 0. -1.
        -11    1    3    3    0    0  0.15458902241E+01 -0.68429663180E+01  0.48486910771E+01  0.85279405507E+01  0.51100000000E-03 0.  1.
         12    1    3    3    0    0 -0.65743110659E+00 -0.11471081865E+02  0.13324459428E+02  0.17594293218E+02  0.00000000000E+00 0. -1.
</event>
<event>
 7    1  0.2243370E-008  0.4614231E+02  0.7816164E-02  0.1320468E+00
        -11   -1    0    0    0    0  0.00000000000E+00  0.00000000000E+00  0.45593999997E+02  0.45594000000E+02  0.51100000000E-03 0.  1.
         11   -1    0    0    0    0 -0.00000000000E+00 -0.00000000000E+00 -0.45593999997E+02  0.45594000000E+02  0.51100000000E-03 0. -1.
    9900012    2    1    2    0    0 -0.70298684304E+00  0.32531534994E+02  0.31149949302E+02  0.46142308740E+02  0.99999177361E+01 0.  0.
         12    1    1    2    0    0  0.70298684304E+00 -0.32531534994E+02 -0.31149949302E+02  0.45045691260E+02  0.00000000000E+00 0. -1.
         11    1    3    3    0    0  0.37771034210E+00  0.73223802937E+01  0.10858032771E+02  0.13101785916E+02  0.51100000000E-03 0.  1.
        -11    1    3    3    0    0  0.48765801231E+00  0.11520286793E+02  0.53366159259E+01  0.12705679357E+02  0.51100000000E-03 0. -1.
         12    1    3    3    0    0 -0.15683551974E+01  0.13688867907E+02  0.14955300606E+02  0.20334843467E+02  0.00000000000E+00 0. -1.
</event>
<event>
 7    1  0.2243370E-008  0.4614232E+02  0.7816164E-02  0.1320468E+00
        -11   -1    0    0    0    0  0.00000000000E+00  0.00000000000E+00  0.45593999997E+02  0.45594000000E+02  0.51100000000E-03 0.  1.
         11   -1    0    0    0    0 -0.00000000000E+00 -0.00000000000E+00 -0.45593999997E+02  0.45594000000E+02  0.51100000000E-03 0. -1.
    9900012    2    1    2    0    0  0.31833368262E+02 -0.77837364114E+01  0.30905720659E+02  0.46142318111E+02  0.10000003187E+02 0.  0.
         12    1    1    2    0    0 -0.31833368262E+02  0.77837364114E+01 -0.30905720659E+02  0.45045681889E+02  0.00000000000E+00 0. -1.
         11    1    3    3    0    0  0.25151119462E+00 -0.10708053301E+01  0.30839344702E+01  0.32742226579E+01  0.51100000000E-03 0. -1.
        -11    1    3    3    0    0  0.11129909679E+02 -0.45195509657E+01  0.93565964055E+01  0.15226527081E+02  0.51100000000E-03 0.  1.
        -12    1    3    3    0    0  0.20451947389E+02 -0.21933801156E+01  0.18465189783E+02  0.27641568372E+02  0.00000000000E+00 0.  1.
</event>
<event>
 7    1  0.2243370E-008  0.4614232E+02  0.7816164E-02  0.1320468E+00
        -11   -1    0    0    0    0  0.00000000000E+00  0.00000000000E+00  0.45593999997E+02  0.45594000000E+02  0.51100000000E-03 0. -1.
         11   -1    0    0    0    0 -0.00000000000E+00 -0.00000000000E+00 -0.45593999997E+02  0.45594000000E+02  0.51100000000E-03 0.  1.
    9900012    2    1    2    0    0 -0.10211222168E+02  0.39048120228E+02 -0.20002218916E+02  0.46142317487E+02  0.99999974974E+01 0.  0.
         12    1    1    2    0    0  0.10211222168E+02 -0.39048120228E+02  0.20002218916E+02  0.45045682513E+02  0.00000000000E+00 0. -1.
         11    1    3    3    0    0 -0.12707451481E+01  0.15204304842E+01 -0.13364750892E+01  0.23901188284E+01  0.51100000000E-03 0. -1.
        -11    1    3    3    0    0 -0.96428408834E+01  0.31101130498E+02 -0.12685322284E+02  0.34945416012E+02  0.51100000000E-03 0.  1.
        -12    1    3    3    0    0  0.70236386398E+00  0.64265592461E+01 -0.59804215433E+01  0.88067826462E+01  0.00000000000E+00 0.  1.
</event>
<event>
 7    1  0.2243370E-008  0.4614231E+02  0.7816164E-02  0.1320468E+00
        -11   -1    0    0    0    0  0.00000000000E+00  0.00000000000E+00  0.45593999997E+02  0.45594000000E+02  0.51100000000E-03 0. -1.
         11   -1    0    0    0    0 -0.00000000000E+00 -0.00000000000E+00 -0.45593999997E+02  0.45594000000E+02  0.51100000000E-03 0.  1.
    9900012    2    1    2    0    0 -0.39693342642E+02 -0.85634333257E+01 -0.19499234633E+02  0.46142312174E+02  0.99999490512E+01 0.  0.
         12    1    1    2    0    0  0.39693342642E+02  0.85634333257E+01  0.19499234633E+02  0.45045687826E+02  0.00000000000E+00 0. -1.
         11    1    3    3    0    0 -0.13777446458E+01 -0.25643043766E-01  0.79872934532E+00  0.15927356036E+01  0.51100000000E-03 0. -1.
        -11    1    3    3    0    0 -0.77541518870E+01 -0.41086277201E+01 -0.43890677744E+01  0.98118096913E+01  0.51100000000E-03 0.  1.
        -12    1    3    3    0    0 -0.30561446109E+02 -0.44291625618E+01 -0.15908896204E+02  0.34737766879E+02  0.00000000000E+00 0.  1.
</event>
<event>
 7    1  0.2243370E-008  0.4614232E+02  0.7816164E-02  0.1320468E+00
        -11   -1    0    0    0    0  0.00000000000E+00  0.00000000000E+00  0.45593999997E+02  0.45594000000E+02  0.51100000000E-03 0.  1.
         11   -1    0    0    0    0 -0.00000000000E+00 -0.00000000000E+00 -0.45593999997E+02  0.45594000000E+02  0.51100000000E-03 0. -1.
    9900012    2    1    2    0    0  0.26938472257E+02 -0.27057439556E+02  0.23902452668E+02  0.46142316895E+02  0.99999921035E+01 0.  0.
         12    1    1    2    0    0 -0.26938472257E+02  0.27057439556E+02 -0.23902452668E+02  0.45045683105E+02  0.00000000000E+00 0. -1.
         11    1    3    3    0    0  0.13511146173E+02 -0.82973614850E+01  0.11868909024E+02  0.19805763812E+02  0.51100000000E-03 0. -1.
        -11    1    3    3    0    0  0.31491556877E+01 -0.32866044203E+01  0.41401254294E+01  0.61530146264E+01  0.51100000000E-03 0.  1.
        -12    1    3    3    0    0  0.10278170397E+02 -0.15473473651E+02  0.78934182145E+01  0.20183538457E+02  0.00000000000E+00 0.  1.
</event>
<event>
 7    1  0.2243370E-008  0.4614232E+02  0.7816164E-02  0.1320468E+00
        -11   -1    0    0    0    0  0.00000000000E+00  0.00000000000E+00  0.45593999997E+02  0.45594000000E+02  0.51100000000E-03 0. -1.
         11   -1    0    0    0    0 -0.00000000000E+00 -0.00000000000E+00 -0.45593999997E+02  0.45594000000E+02  0.51100000000E-03 0.  1.
    9900012    2    1    2    0    0  0.40884972132E+02 -0.18908519960E+02 -0.20746740501E-01  0.46142317590E+02  0.99999984425E+01 0.  0.
         12    1    1    2    0    0 -0.40884972132E+02  0.18908519960E+02  0.20746740501E-01  0.45045682410E+02  0.00000000000E+00 0. -1.
         11    1    3    3    0    0  0.16881463838E+01  0.10509253233E+01  0.67429650799E+00  0.20997519592E+01  0.51100000000E-03 0. -1.
        -11    1    3    3    0    0  0.11495421088E+02 -0.50230520857E+01 -0.80484865427E+00  0.12570741421E+02  0.51100000000E-03 0.  1.
         12    1    3    3    0    0  0.27701404661E+02 -0.14936393197E+02  0.10980540578E+00  0.31471824211E+02  0.00000000000E+00 0. -1.
</event>
<event>
 7    1  0.2243370E-008  0.4614232E+02  0.7816164E-02  0.1320468E+00
        -11   -1    0    0    0    0  0.00000000000E+00  0.00000000000E+00  0.45593999997E+02  0.45594000000E+02  0.51100000000E-03 0.  1.
         11   -1    0    0    0    0 -0.00000000000E+00 -0.00000000000E+00 -0.45593999997E+02  0.45594000000E+02  0.51100000000E-03 0. -1.
    9900012    2    1    2    0    0  0.98638880733E+01 -0.83388944736E+01  0.43154143195E+02  0.46142317368E+02  0.99999964112E+01 0.  0.
         12    1    1    2    0    0 -0.98638880733E+01  0.83388944736E+01 -0.43154143195E+02  0.45045682632E+02  0.00000000000E+00 0. -1.
         11    1    3    3    0    0  0.75992780556E+01 -0.76542640694E+01  0.37423647606E+02  0.38946966323E+02  0.51100000000E-03 0. -1.
        -11    1    3    3    0    0  0.25511573697E+01 -0.15605858059E+01  0.54756764445E+01  0.62391397459E+01  0.51100000000E-03 0.  1.
         12    1    3    3    0    0 -0.28654735209E+00  0.87595540168E+00  0.25481914435E+00  0.95621129833E+00  0.00000000000E+00 0. -1.
</event>
<event>
 7    1  0.2243370E-008  0.4614232E+02  0.7816164E-02  0.1320468E+00
        -11   -1    0    0    0    0  0.00000000000E+00  0.00000000000E+00  0.45593999997E+02  0.45594000000E+02  0.51100000000E-03 0. -1.
         11   -1    0    0    0    0 -0.00000000000E+00 -0.00000000000E+00 -0.45593999997E+02  0.45594000000E+02  0.51100000000E-03 0.  1.
    9900012    2    1    2    0    0 -0.34064770714E+02  0.23283564547E+02 -0.18071534291E+02  0.46142319481E+02  0.10000015683E+02 0.  0.
         12    1    1    2    0    0  0.34064770714E+02 -0.23283564547E+02  0.18071534291E+02  0.45045680519E+02  0.00000000000E+00 0. -1.
         11    1    3    3    0    0 -0.49665937531E+01  0.53518704914E+01 -0.59246879289E+01  0.94027388872E+01  0.51100000000E-03 0. -1.
        -11    1    3    3    0    0 -0.20905650327E+02  0.15228825503E+02 -0.10709108557E+02  0.27993719798E+02  0.51100000000E-03 0.  1.
        -12    1    3    3    0    0 -0.81925266338E+01  0.27028685524E+01 -0.14377378051E+01  0.87458607955E+01  0.00000000000E+00 0.  1.
</event>
<event>
 7    1  0.2243370E-008  0.4614232E+02  0.7816164E-02  0.1320468E+00
        -11   -1    0    0    0    0  0.00000000000E+00  0.00000000000E+00  0.45593999997E+02  0.45594000000E+02  0.51100000000E-03 0.  1.
         11   -1    0    0    0    0 -0.00000000000E+00 -0.00000000000E+00 -0.45593999997E+02  0.45594000000E+02  0.51100000000E-03 0. -1.
    9900012    2    1    2    0    0 -0.35055346112E+02 -0.18172577390E+02  0.21679336650E+02  0.46142317659E+02  0.99999990653E+01 0.  0.
         12    1    1    2    0    0  0.35055346112E+02  0.18172577390E+02 -0.21679336650E+02  0.45045682341E+02  0.00000000000E+00 0. -1.
         11    1    3    3    0    0 -0.28355871024E+01 -0.25082648837E+01  0.31910639816E+01  0.49512459582E+01  0.51100000000E-03 0. -1.
        -11    1    3    3    0    0 -0.16457948647E+02 -0.38263837220E+01  0.64047929596E+01  0.18070048676E+02  0.51100000000E-03 0.  1.
        -12    1    3    3    0    0 -0.15761810363E+02 -0.11837928784E+02  0.12083479708E+02  0.23121023024E+02  0.00000000000E+00 0.  1.
</event>
<event>
 7    1  0.2243370E-008  0.4614232E+02  0.7816164E-02  0.1320468E+00
        -11   -1    0    0    0    0  0.00000000000E+00  0.00000000000E+00  0.45593999997E+02  0.45594000000E+02  0.51100000000E-03 0.  1.
         11   -1    0    0    0    0 -0.00000000000E+00 -0.00000000000E+00 -0.45593999997E+02  0.45594000000E+02  0.51100000000E-03 0. -1.
    9900012    2    1    2    0    0 -0.36412724940E+01 -0.11719502434E+02  0.43341757177E+02  0.46142317434E+02  0.99999970186E+01 0.  0.
         12    1    1    2    0    0  0.36412724940E+01  0.11719502434E+02 -0.43341757177E+02  0.45045682566E+02  0.00000000000E+00 0. -1.
         11    1    3    3    0    0  0.17432642558E+00 -0.18083359041E+01  0.21338066744E+01  0.28024274530E+01  0.51100000000E-03 0. -1.
        -11    1    3    3    0    0 -0.14765365265E+01 -0.81479787332E+01  0.16524077123E+02  0.18482825611E+02  0.51100000000E-03 0.  1.
         12    1    3    3    0    0 -0.23390623931E+01 -0.17631877964E+01  0.24683873379E+02  0.24857064370E+02  0.00000000000E+00 0. -1.
</event>
<event>
 7    1  0.2243370E-008  0.4614232E+02  0.7816164E-02  0.1320468E+00
        -11   -1    0    0    0    0  0.00000000000E+00  0.00000000000E+00  0.45593999997E+02  0.45594000000E+02  0.51100000000E-03 0. -1.
         11   -1    0    0    0    0 -0.00000000000E+00 -0.00000000000E+00 -0.45593999997E+02  0.45594000000E+02  0.51100000000E-03 0.  1.
    9900012    2    1    2    0    0  0.37859831189E+01 -0.29118341630E+02 -0.34159945615E+02  0.46142319054E+02  0.10000011792E+02 0.  0.
         12    1    1    2    0    0 -0.37859831189E+01  0.29118341630E+02  0.34159945615E+02  0.45045680946E+02  0.00000000000E+00 0. -1.
         11    1    3    3    0    0  0.18231837848E+01 -0.30545244499E+01 -0.41388073568E+01  0.54574577713E+01  0.51100000000E-03 0. -1.
        -11    1    3    3    0    0 -0.27214745566E+01 -0.15957594734E+02 -0.19714369326E+02  0.25508971199E+02  0.51100000000E-03 0.  1.
        -12    1    3    3    0    0  0.46842738908E+01 -0.10106222446E+02 -0.10306768932E+02  0.15175890084E+02  0.00000000000E+00 0.  1.
</event>
<event>
 7    1  0.2243370E-008  0.4614232E+02  0.7816164E-02  0.1320468E+00
        -11   -1    0    0    0    0  0.00000000000E+00  0.00000000000E+00  0.45593999997E+02  0.45594000000E+02  0.51100000000E-03 0. -1.
         11   -1    0    0    0    0 -0.00000000000E+00 -0.00000000000E+00 -0.45593999997E+02  0.45594000000E+02  0.51100000000E-03 0.  1.
    9900012    2    1    2    0    0  0.34507642340E+02  0.23015001390E+02 -0.17568318483E+02  0.46142317819E+02  0.10000000526E+02 0.  0.
         12    1    1    2    0    0 -0.34507642340E+02 -0.23015001390E+02  0.17568318483E+02  0.45045682181E+02  0.00000000000E+00 0. -1.
         11    1    3    3    0    0  0.99386420177E+01  0.47999098030E+01 -0.16303050691E+01  0.11156775258E+02  0.51100000000E-03 0. -1.
        -11    1    3    3    0    0  0.30511362104E+01  0.56789985342E+00 -0.44663996895E+00  0.31355111132E+01  0.51100000000E-03 0.  1.
        -12    1    3    3    0    0  0.21517864112E+02  0.17647191734E+02 -0.15491373445E+02  0.31850031448E+02  0.00000000000E+00 0.  1.
</event>
<event>
 7    1  0.2243370E-008  0.4614232E+02  0.7816164E-02  0.1320468E+00
        -11   -1    0    0    0    0  0.00000000000E+00  0.00000000000E+00  0.45593999997E+02  0.45594000000E+02  0.51100000000E-03 0.  1.
         11   -1    0    0    0    0 -0.00000000000E+00 -0.00000000000E+00 -0.45593999997E+02  0.45594000000E+02  0.51100000000E-03 0. -1.
    9900012    2    1    2    0    0 -0.34269854318E+02 -0.22784517939E+02  0.18318195374E+02  0.46142318138E+02  0.10000003434E+02 0.  0.
         12    1    1    2    0    0  0.34269854318E+02  0.22784517939E+02 -0.18318195374E+02  0.45045681862E+02  0.00000000000E+00 0. -1.
         11    1    3    3    0    0 -0.16260374093E+01 -0.39390959109E+00  0.23896659489E+01  0.29171331870E+01  0.51100000000E-03 0. -1.
        -11    1    3    3    0    0 -0.31787408555E+01 -0.51155420146E+01  0.21506789111E+01  0.63952000414E+01  0.51100000000E-03 0.  1.
        -12    1    3    3    0    0 -0.29465076053E+02 -0.17275066333E+02  0.13777850514E+02  0.36829984909E+02  0.00000000000E+00 0.  1.
</event>
<event>
 7    1  0.2243370E-008  0.4614232E+02  0.7816164E-02  0.1320468E+00
        -11   -1    0    0    0    0  0.00000000000E+00  0.00000000000E+00  0.45593999997E+02  0.45594000000E+02  0.51100000000E-03 0.  1.
         11   -1    0    0    0    0 -0.00000000000E+00 -0.00000000000E+00 -0.45593999997E+02  0.45594000000E+02  0.51100000000E-03 0. -1.
    9900012    2    1    2    0    0 -0.17591208381E+02 -0.24326794640E+02  0.33583773449E+02  0.46142318866E+02  0.10000010072E+02 0.  0.
         12    1    1    2    0    0  0.17591208381E+02  0.24326794640E+02 -0.33583773449E+02  0.45045681134E+02  0.00000000000E+00 0. -1.
         11    1    3    3    0    0  0.86324081790E-02 -0.28702871225E+01  0.11121082481E+01  0.30782150185E+01  0.51100000000E-03 0. -1.
        -11    1    3    3    0    0 -0.12181793034E+02 -0.12323329081E+02  0.23268319125E+02  0.29011638980E+02  0.51100000000E-03 0.  1.
         12    1    3    3    0    0 -0.54180477551E+01 -0.91331784365E+01  0.92033460762E+01  0.14052464867E+02  0.00000000000E+00 0. -1.
</event>
<event>
 7    1  0.2243370E-008  0.4614232E+02  0.7816164E-02  0.1320468E+00
        -11   -1    0    0    0    0  0.00000000000E+00  0.00000000000E+00  0.45593999997E+02  0.45594000000E+02  0.51100000000E-03 0. -1.
         11   -1    0    0    0    0 -0.00000000000E+00 -0.00000000000E+00 -0.45593999997E+02  0.45594000000E+02  0.51100000000E-03 0.  1.
    9900012    2    1    2    0    0 -0.35730249694E+02  0.21558307331E+01 -0.27346205406E+02  0.46142319858E+02  0.10000019119E+02 0.  0.
         12    1    1    2    0    0  0.35730249694E+02 -0.21558307331E+01  0.27346205406E+02  0.45045680142E+02  0.00000000000E+00 0. -1.
         11    1    3    3    0    0 -0.34671794409E+01 -0.16930753358E+01 -0.41006216361E+01  0.56305359808E+01  0.51100000000E-03 0. -1.
        -11    1    3    3    0    0 -0.23751386201E+02  0.63820716573E+00 -0.14184245441E+02  0.27671799252E+02  0.51100000000E-03 0.  1.
         12    1    3    3    0    0 -0.85116840528E+01  0.32106989032E+01 -0.90613383292E+01  0.12839984625E+02  0.00000000000E+00 0. -1.
</event>
<event>
 7    1  0.2243370E-008  0.4614232E+02  0.7816164E-02  0.1320468E+00
        -11   -1    0    0    0    0  0.00000000000E+00  0.00000000000E+00  0.45593999997E+02  0.45594000000E+02  0.51100000000E-03 0.  1.
         11   -1    0    0    0    0 -0.00000000000E+00 -0.00000000000E+00 -0.45593999997E+02  0.45594000000E+02  0.51100000000E-03 0. -1.
    9900012    2    1    2    0    0  0.27239078661E+02 -0.34102980480E+02  0.11141489591E+02  0.46142317918E+02  0.10000001435E+02 0.  0.
         12    1    1    2    0    0 -0.27239078661E+02  0.34102980480E+02 -0.11141489591E+02  0.45045682082E+02  0.00000000000E+00 0. -1.
         11    1    3    3    0    0  0.63671966575E+01 -0.32203355295E+01  0.23553576495E+01  0.75139512985E+01  0.51100000000E-03 0. -1.
        -11    1    3    3    0    0  0.90650938034E+01 -0.10000282180E+02  0.16349058965E+01  0.13596120289E+02  0.51100000000E-03 0.  1.
        -12    1    3    3    0    0  0.11806788200E+02 -0.20882362770E+02  0.71512260451E+01  0.25032246331E+02  0.00000000000E+00 0.  1.
</event>
<event>
 7    1  0.2243370E-008  0.4614232E+02  0.7816164E-02  0.1320468E+00
        -11   -1    0    0    0    0  0.00000000000E+00  0.00000000000E+00  0.45593999997E+02  0.45594000000E+02  0.51100000000E-03 0. -1.
         11   -1    0    0    0    0 -0.00000000000E+00 -0.00000000000E+00 -0.45593999997E+02  0.45594000000E+02  0.51100000000E-03 0.  1.
    9900012    2    1    2    0    0 -0.19888149734E+02  0.36737662543E+02 -0.16849899510E+02  0.46142318048E+02  0.10000002618E+02 0.  0.
         12    1    1    2    0    0  0.19888149734E+02 -0.36737662543E+02  0.16849899510E+02  0.45045681952E+02  0.00000000000E+00 0. -1.
         11    1    3    3    0    0 -0.59926476452E-01  0.52158351597E+00 -0.53067721985E+00  0.74649790321E+00  0.51100000000E-03 0. -1.
        -11    1    3    3    0    0 -0.34662994870E+01  0.14037175218E+02 -0.29222984497E+01  0.14751181266E+02  0.51100000000E-03 0.  1.
        -12    1    3    3    0    0 -0.16361923771E+02  0.22178903809E+02 -0.13396923840E+02  0.30644638879E+02  0.00000000000E+00 0.  1.
</event>
<event>
 7    1  0.2243370E-008  0.4614232E+02  0.7816164E-02  0.1320468E+00
        -11   -1    0    0    0    0  0.00000000000E+00  0.00000000000E+00  0.45593999997E+02  0.45594000000E+02  0.51100000000E-03 0. -1.
         11   -1    0    0    0    0 -0.00000000000E+00 -0.00000000000E+00 -0.45593999997E+02  0.45594000000E+02  0.51100000000E-03 0.  1.
    9900012    2    1    2    0    0 -0.19633640531E+02  0.39896812801E+02 -0.72026369996E+01  0.46142317721E+02  0.99999996381E+01 0.  0.
         12    1    1    2    0    0  0.19633640531E+02 -0.39896812801E+02  0.72026369996E+01  0.45045682279E+02  0.00000000000E+00 0. -1.
         11    1    3    3    0    0 -0.17487916923E+01  0.96453713474E+01 -0.44348626263E-01  0.98027255329E+01  0.51100000000E-03 0. -1.
        -11    1    3    3    0    0 -0.70047826762E+01  0.78774001634E+01 -0.35653092765E+00  0.10547394381E+02  0.51100000000E-03 0.  1.
         12    1    3    3    0    0 -0.10880066162E+02  0.22374041290E+02 -0.68017574457E+01  0.25792197807E+02  0.00000000000E+00 0. -1.
</event>
<event>
 7    1  0.2243370E-008  0.4614233E+02  0.7816164E-02  0.1320468E+00
        -11   -1    0    0    0    0  0.00000000000E+00  0.00000000000E+00  0.45593999997E+02  0.45594000000E+02  0.51100000000E-03 0.  1.
         11   -1    0    0    0    0 -0.00000000000E+00 -0.00000000000E+00 -0.45593999997E+02  0.45594000000E+02  0.51100000000E-03 0. -1.
    9900012    2    1    2    0    0  0.44385223931E+01  0.28739588165E+02  0.34401284806E+02  0.46142325344E+02  0.10000069148E+02 0.  0.
         12    1    1    2    0    0 -0.44385223931E+01 -0.28739588165E+02 -0.34401284806E+02  0.45045674656E+02  0.00000000000E+00 0. -1.
         11    1    3    3    0    0  0.42662650015E-01  0.28912059923E+01  0.15375294557E+01  0.32748876744E+01  0.51100000000E-03 0. -1.
        -11    1    3    3    0    0 -0.21828284356E+00  0.13361928076E+02  0.21744176261E+02  0.25522499306E+02  0.51100000000E-03 0.  1.
         12    1    3    3    0    0  0.46141425866E+01  0.12486454097E+02  0.11119579089E+02  0.17344938364E+02  0.00000000000E+00 0. -1.
</event>
<event>
 7    1  0.2243370E-008  0.4614232E+02  0.7816164E-02  0.1320468E+00
        -11   -1    0    0    0    0  0.00000000000E+00  0.00000000000E+00  0.45593999997E+02  0.45594000000E+02  0.51100000000E-03 0.  1.
         11   -1    0    0    0    0 -0.00000000000E+00 -0.00000000000E+00 -0.45593999997E+02  0.45594000000E+02  0.51100000000E-03 0. -1.
    9900012    2    1    2    0    0  0.31436207079E+01 -0.32708978903E+02  0.30811586269E+02  0.46142317627E+02  0.99999987746E+01 0.  0.
         12    1    1    2    0    0 -0.31436207079E+01  0.32708978903E+02 -0.30811586269E+02  0.45045682373E+02  0.00000000000E+00 0. -1.
         11    1    3    3    0    0 -0.20146773362E+01 -0.96160256195E+01  0.56196212089E+01  0.11318437007E+02  0.51100000000E-03 0. -1.
        -11    1    3    3    0    0  0.19721062649E+01 -0.15158722789E+02  0.18280722117E+02  0.23829831747E+02  0.51100000000E-03 0.  1.
         12    1    3    3    0    0  0.31861917792E+01 -0.79342304954E+01  0.69112429436E+01  0.10994048873E+02  0.00000000000E+00 0. -1.
</event>
<event>
 7    1  0.2243370E-008  0.4614232E+02  0.7816164E-02  0.1320468E+00
        -11   -1    0    0    0    0  0.00000000000E+00  0.00000000000E+00  0.45593999997E+02  0.45594000000E+02  0.51100000000E-03 0. -1.
         11   -1    0    0    0    0 -0.00000000000E+00 -0.00000000000E+00 -0.45593999997E+02  0.45594000000E+02  0.51100000000E-03 0.  1.
    9900012    2    1    2    0    0 -0.30910325112E+02 -0.32747895984E+02 -0.11138469083E+01  0.46142317134E+02  0.99999942832E+01 0.  0.
         12    1    1    2    0    0  0.30910325112E+02  0.32747895984E+02  0.11138469083E+01  0.45045682866E+02  0.00000000000E+00 0. -1.
         11    1    3    3    0    0 -0.52835650252E+01 -0.87082554945E+01  0.16364129089E+01  0.10316376331E+02  0.51100000000E-03 0. -1.
        -11    1    3    3    0    0 -0.14401380829E+02 -0.91284832255E+01 -0.16201069574E+01  0.17127571999E+02  0.51100000000E-03 0.  1.
         12    1    3    3    0    0 -0.11225379258E+02 -0.14911157264E+02 -0.11301528598E+01  0.18698368804E+02  0.00000000000E+00 0. -1.
</event>
<event>
 7    1  0.2243370E-008  0.4614232E+02  0.7816164E-02  0.1320468E+00
        -11   -1    0    0    0    0  0.00000000000E+00  0.00000000000E+00  0.45593999997E+02  0.45594000000E+02  0.51100000000E-03 0.  1.
         11   -1    0    0    0    0 -0.00000000000E+00 -0.00000000000E+00 -0.45593999997E+02  0.45594000000E+02  0.51100000000E-03 0. -1.
    9900012    2    1    2    0    0  0.12607756861E+01  0.13821480064E+02  0.42854293415E+02  0.46142319513E+02  0.10000015973E+02 0.  0.
         12    1    1    2    0    0 -0.12607756861E+01 -0.13821480064E+02 -0.42854293415E+02  0.45045680487E+02  0.00000000000E+00 0. -1.
         11    1    3    3    0    0  0.21990284723E+01  0.39515752882E+01  0.12836333554E+02  0.13609633825E+02  0.51100000000E-03 0. -1.
        -11    1    3    3    0    0  0.26280906727E+01  0.72628452739E+01  0.14905543444E+02  0.16787823197E+02  0.51100000000E-03 0.  1.
         12    1    3    3    0    0 -0.35663434590E+01  0.26070595019E+01  0.15112416416E+02  0.15744862491E+02  0.00000000000E+00 0. -1.
</event>
<event>
 7    1  0.2243370E-008  0.4614232E+02  0.7816164E-02  0.1320468E+00
        -11   -1    0    0    0    0  0.00000000000E+00  0.00000000000E+00  0.45593999997E+02  0.45594000000E+02  0.51100000000E-03 0. -1.
         11   -1    0    0    0    0 -0.00000000000E+00 -0.00000000000E+00 -0.45593999997E+02  0.45594000000E+02  0.51100000000E-03 0.  1.
    9900012    2    1    2    0    0 -0.13161726813E+02 -0.13819242433E+01 -0.43057783112E+02  0.46142318144E+02  0.10000003494E+02 0.  0.
         12    1    1    2    0    0  0.13161726813E+02  0.13819242433E+01  0.43057783112E+02  0.45045681856E+02  0.00000000000E+00 0. -1.
         11    1    3    3    0    0 -0.77421771047E+00 -0.16378724757E+01 -0.46510035649E+01  0.49913799426E+01  0.51100000000E-03 0. -1.
        -11    1    3    3    0    0 -0.34076619266E+01 -0.21872977749E+01 -0.48021205893E+01  0.62814643020E+01  0.51100000000E-03 0.  1.
        -12    1    3    3    0    0 -0.89798471757E+01  0.24432460073E+01 -0.33604658958E+02  0.34869473900E+02  0.00000000000E+00 0.  1.
</event>
<event>
 7    1  0.2243370E-008  0.4614232E+02  0.7816164E-02  0.1320468E+00
        -11   -1    0    0    0    0  0.00000000000E+00  0.00000000000E+00  0.45593999997E+02  0.45594000000E+02  0.51100000000E-03 0.  1.
         11   -1    0    0    0    0 -0.00000000000E+00 -0.00000000000E+00 -0.45593999997E+02  0.45594000000E+02  0.51100000000E-03 0. -1.
    9900012    2    1    2    0    0  0.12410389165E+02 -0.43299828996E+02 -0.46966040404E+00  0.46142317286E+02  0.99999956665E+01 0.  0.
         12    1    1    2    0    0 -0.12410389165E+02  0.43299828996E+02  0.46966040404E+00  0.45045682714E+02  0.00000000000E+00 0. -1.
         11    1    3    3    0    0  0.83637154503E+01 -0.29009303075E+02 -0.36790647722E+00  0.30193157444E+02  0.51100000000E-03 0. -1.
        -11    1    3    3    0    0  0.27562745502E+01 -0.99336243373E+01 -0.27766610937E+01  0.10676319074E+02  0.51100000000E-03 0.  1.
         12    1    3    3    0    0  0.12903991645E+01 -0.43569015837E+01  0.26749071669E+01  0.52728407681E+01  0.00000000000E+00 0. -1.
</event>
<event>
 7    1  0.2243370E-008  0.4614232E+02  0.7816164E-02  0.1320468E+00
        -11   -1    0    0    0    0  0.00000000000E+00  0.00000000000E+00  0.45593999997E+02  0.45594000000E+02  0.51100000000E-03 0. -1.
         11   -1    0    0    0    0 -0.00000000000E+00 -0.00000000000E+00 -0.45593999997E+02  0.45594000000E+02  0.51100000000E-03 0.  1.
    9900012    2    1    2    0    0  0.19576025181E+02  0.29354318870E+02  0.28003866810E+02  0.46142319247E+02  0.10000013551E+02 0.  0.
         12    1    1    2    0    0 -0.19576025181E+02 -0.29354318870E+02 -0.28003866810E+02  0.45045680753E+02  0.00000000000E+00 0. -1.
         11    1    3    3    0    0  0.15362721941E+01  0.21740803854E-01 -0.17446103473E+00  0.15462993988E+01  0.51100000000E-03 0. -1.
        -11    1    3    3    0    0  0.21328608016E+01  0.35288360657E+01  0.21951245702E+01  0.46712258902E+01  0.51100000000E-03 0.  1.
        -12    1    3    3    0    0  0.15906892185E+02  0.25803742000E+02  0.25983203274E+02  0.39924793958E+02  0.00000000000E+00 0.  1.
</event>
<event>
 7    1  0.2243370E-008  0.4614232E+02  0.7816164E-02  0.1320468E+00
        -11   -1    0    0    0    0  0.00000000000E+00  0.00000000000E+00  0.45593999997E+02  0.45594000000E+02  0.51100000000E-03 0.  1.
         11   -1    0    0    0    0 -0.00000000000E+00 -0.00000000000E+00 -0.45593999997E+02  0.45594000000E+02  0.51100000000E-03 0. -1.
    9900012    2    1    2    0    0  0.22271034629E+02 -0.24435723738E+02  0.30594278865E+02  0.46142317884E+02  0.10000001117E+02 0.  0.
         12    1    1    2    0    0 -0.22271034629E+02  0.24435723738E+02 -0.30594278865E+02  0.45045682116E+02  0.00000000000E+00 0. -1.
         11    1    3    3    0    0  0.10537307719E+02 -0.16644416105E+02  0.20670845827E+02  0.28554427133E+02  0.51100000000E-03 0. -1.
        -11    1    3    3    0    0  0.99358175849E+01 -0.78380649155E+01  0.80929664697E+01  0.15021712261E+02  0.51100000000E-03 0.  1.
         12    1    3    3    0    0  0.17979093249E+01  0.46757281789E-01  0.18304665687E+01  0.25661784901E+01  0.00000000000E+00 0. -1.
</event>
<event>
 7    1  0.2243370E-008  0.4614232E+02  0.7816164E-02  0.1320468E+00
        -11   -1    0    0    0    0  0.00000000000E+00  0.00000000000E+00  0.45593999997E+02  0.45594000000E+02  0.51100000000E-03 0.  1.
         11   -1    0    0    0    0 -0.00000000000E+00 -0.00000000000E+00 -0.45593999997E+02  0.45594000000E+02  0.51100000000E-03 0. -1.
    9900012    2    1    2    0    0 -0.27177333848E+01 -0.15936346736E+02  0.42044740772E+02  0.46142318202E+02  0.10000004024E+02 0.  0.
         12    1    1    2    0    0  0.27177333848E+01  0.15936346736E+02 -0.42044740772E+02  0.45045681798E+02  0.00000000000E+00 0. -1.
         11    1    3    3    0    0 -0.10406509499E+01 -0.10142761593E+02  0.17841600576E+02  0.20549483655E+02  0.51100000000E-03 0.  1.
        -11    1    3    3    0    0 -0.12969431727E+01  0.89774847698E+00  0.56596534069E+01  0.58753460212E+01  0.51100000000E-03 0. -1.
        -12    1    3    3    0    0 -0.38013926214E+00 -0.66913336195E+01  0.18543486789E+02  0.19717488526E+02  0.00000000000E+00 0.  1.
</event>
<event>
 7    1  0.2243370E-008  0.4614232E+02  0.7816164E-02  0.1320468E+00
        -11   -1    0    0    0    0  0.00000000000E+00  0.00000000000E+00  0.45593999997E+02  0.45594000000E+02  0.51100000000E-03 0. -1.
         11   -1    0    0    0    0 -0.00000000000E+00 -0.00000000000E+00 -0.45593999997E+02  0.45594000000E+02  0.51100000000E-03 0.  1.
    9900012    2    1    2    0    0 -0.57568278097E+01  0.21008834942E+02 -0.39428431059E+02  0.46142318877E+02  0.10000010176E+02 0.  0.
         12    1    1    2    0    0  0.57568278097E+01 -0.21008834942E+02  0.39428431059E+02  0.45045681123E+02  0.00000000000E+00 0. -1.
         11    1    3    3    0    0  0.93714151284E+00  0.51462398911E+01 -0.97892963464E+01  0.11099204586E+02  0.51100000000E-03 0. -1.
        -11    1    3    3    0    0  0.50815661937E+00  0.61961741473E+01 -0.13824787170E+02  0.15158348781E+02  0.51100000000E-03 0.  1.
         12    1    3    3    0    0 -0.72021259419E+01  0.96664209038E+01 -0.15814347543E+02  0.19884765510E+02  0.00000000000E+00 0. -1.
</event>
<event>
 7    1  0.2243370E-008  0.4614232E+02  0.7816164E-02  0.1320468E+00
        -11   -1    0    0    0    0  0.00000000000E+00  0.00000000000E+00  0.45593999997E+02  0.45594000000E+02  0.51100000000E-03 0.  1.
         11   -1    0    0    0    0 -0.00000000000E+00 -0.00000000000E+00 -0.45593999997E+02  0.45594000000E+02  0.51100000000E-03 0. -1.
    9900012    2    1    2    0    0 -0.27351347009E+01 -0.22194222953E+02  0.39103055499E+02  0.46142318257E+02  0.10000004521E+02 0.  0.
         12    1    1    2    0    0  0.27351347009E+01  0.22194222953E+02 -0.39103055499E+02  0.45045681743E+02  0.00000000000E+00 0. -1.
         11    1    3    3    0    0  0.47949047350E-01 -0.22524560837E+01  0.10459924495E+02  0.10699807391E+02  0.51100000000E-03 0.  1.
        -11    1    3    3    0    0 -0.34881071654E+01 -0.64382112433E+01  0.91657959948E+01  0.11731550285E+02  0.51100000000E-03 0. -1.
         12    1    3    3    0    0  0.70502341710E+00 -0.13503555626E+02  0.19477335010E+02  0.23710960580E+02  0.00000000000E+00 0. -1.
</event>
<event>
 7    1  0.2243370E-008  0.4614232E+02  0.7816164E-02  0.1320468E+00
        -11   -1    0    0    0    0  0.00000000000E+00  0.00000000000E+00  0.45593999997E+02  0.45594000000E+02  0.51100000000E-03 0.  1.
         11   -1    0    0    0    0 -0.00000000000E+00 -0.00000000000E+00 -0.45593999997E+02  0.45594000000E+02  0.51100000000E-03 0. -1.
    9900012    2    1    2    0    0  0.23823919054E+02  0.20201022700E+02  0.32456941254E+02  0.46142317934E+02  0.10000001578E+02 0.  0.
         12    1    1    2    0    0 -0.23823919054E+02 -0.20201022700E+02 -0.32456941254E+02  0.45045682066E+02  0.00000000000E+00 0. -1.
         11    1    3    3    0    0  0.57814724123E+01  0.94808933787E+01  0.84605516013E+01  0.13960433237E+02  0.51100000000E-03 0. -1.
        -11    1    3    3    0    0  0.10557464247E+01  0.11652186042E+01  0.49042486602E+00  0.16470736836E+01  0.51100000000E-03 0.  1.
         12    1    3    3    0    0  0.16986700217E+02  0.95549107169E+01  0.23505964787E+02  0.30534811013E+02  0.00000000000E+00 0. -1.
</event>
<event>
 7    1  0.2243370E-008  0.4614232E+02  0.7816164E-02  0.1320468E+00
        -11   -1    0    0    0    0  0.00000000000E+00  0.00000000000E+00  0.45593999997E+02  0.45594000000E+02  0.51100000000E-03 0.  1.
         11   -1    0    0    0    0 -0.00000000000E+00 -0.00000000000E+00 -0.45593999997E+02  0.45594000000E+02  0.51100000000E-03 0. -1.
    9900012    2    1    2    0    0 -0.34591366699E+02 -0.33793781687E+01  0.28655370897E+02  0.46142321759E+02  0.10000036458E+02 0.  0.
         12    1    1    2    0    0  0.34591366699E+02  0.33793781687E+01 -0.28655370897E+02  0.45045678241E+02  0.00000000000E+00 0. -1.
         11    1    3    3    0    0 -0.61129278853E+01 -0.27508682552E+01  0.23478784134E+01  0.71026542077E+01  0.51100000000E-03 0. -1.
        -11    1    3    3    0    0 -0.94655250841E+01 -0.18132109500E+01  0.69613046361E+01  0.11888804043E+02  0.51100000000E-03 0.  1.
        -12    1    3    3    0    0 -0.19012913729E+02  0.11847010365E+01  0.19346187848E+02  0.27150863509E+02  0.00000000000E+00 0.  1.
</event>
<event>
 7    1  0.2243370E-008  0.4614232E+02  0.7816164E-02  0.1320468E+00
        -11   -1    0    0    0    0  0.00000000000E+00  0.00000000000E+00  0.45593999997E+02  0.45594000000E+02  0.51100000000E-03 0. -1.
         11   -1    0    0    0    0 -0.00000000000E+00 -0.00000000000E+00 -0.45593999997E+02  0.45594000000E+02  0.51100000000E-03 0.  1.
    9900012    2    1    2    0    0  0.13946428533E+02 -0.51407152689E+01 -0.42522740805E+02  0.46142319765E+02  0.10000018274E+02 0.  0.
         12    1    1    2    0    0 -0.13946428533E+02  0.51407152689E+01  0.42522740805E+02  0.45045680235E+02  0.00000000000E+00 0. -1.
         11    1    3    3    0    0  0.45063827941E+00 -0.16110802127E+01 -0.40393485324E+01  0.43720694343E+01  0.51100000000E-03 0. -1.
        -11    1    3    3    0    0  0.11033044361E+02 -0.60721065013E+01 -0.31894063195E+02  0.34290374927E+02  0.51100000000E-03 0.  1.
         12    1    3    3    0    0  0.24627458923E+01  0.25424714452E+01 -0.65893290768E+01  0.74798754041E+01  0.00000000000E+00 0. -1.
</event>
<event>
 7    1  0.2243370E-008  0.4614232E+02  0.7816164E-02  0.1320468E+00
        -11   -1    0    0    0    0  0.00000000000E+00  0.00000000000E+00  0.45593999997E+02  0.45594000000E+02  0.51100000000E-03 0.  1.
         11   -1    0    0    0    0 -0.00000000000E+00 -0.00000000000E+00 -0.45593999997E+02  0.45594000000E+02  0.51100000000E-03 0. -1.
    9900012    2    1    2    0    0  0.22351181904E+00  0.20999825792E+02  0.39850606703E+02  0.46142317682E+02  0.99999992831E+01 0.  0.
         12    1    1    2    0    0 -0.22351181904E+00 -0.20999825792E+02 -0.39850606703E+02  0.45045682318E+02  0.00000000000E+00 0. -1.
         11    1    3    3    0    0 -0.18595817979E+01  0.58356707941E+01  0.12401527139E+02  0.13831521020E+02  0.51100000000E-03 0.  1.
        -11    1    3    3    0    0  0.93285943642E+00 -0.62426661425E+00  0.10972423195E+01  0.15696740116E+01  0.51100000000E-03 0. -1.
        -12    1    3    3    0    0  0.11502341806E+01  0.15788421612E+02  0.26351837244E+02  0.30741122651E+02  0.00000000000E+00 0.  1.
</event>
<event>
 7    1  0.2243370E-008  0.4614232E+02  0.7816164E-02  0.1320468E+00
        -11   -1    0    0    0    0  0.00000000000E+00  0.00000000000E+00  0.45593999997E+02  0.45594000000E+02  0.51100000000E-03 0.  1.
         11   -1    0    0    0    0 -0.00000000000E+00 -0.00000000000E+00 -0.45593999997E+02  0.45594000000E+02  0.51100000000E-03 0. -1.
    9900012    2    1    2    0    0 -0.10502505968E+02 -0.16809241200E+02  0.40450714539E+02  0.46142317320E+02  0.99999959820E+01 0.  0.
         12    1    1    2    0    0  0.10502505968E+02  0.16809241200E+02 -0.40450714539E+02  0.45045682680E+02  0.00000000000E+00 0. -1.
         11    1    3    3    0    0 -0.63906969285E+01 -0.82415786981E+01  0.16672497841E+02  0.19665625115E+02  0.51100000000E-03 0.  1.
        -11    1    3    3    0    0 -0.17048149653E+01 -0.63819535891E+01  0.80375410070E+01  0.10403739298E+02  0.51100000000E-03 0. -1.
         12    1    3    3    0    0 -0.24069940740E+01 -0.21857089124E+01  0.15740675692E+02  0.16072952907E+02  0.00000000000E+00 0. -1.
</event>
<event>
 7    1  0.2243370E-008  0.4614232E+02  0.7816164E-02  0.1320468E+00
        -11   -1    0    0    0    0  0.00000000000E+00  0.00000000000E+00  0.45593999997E+02  0.45594000000E+02  0.51100000000E-03 0. -1.
         11   -1    0    0    0    0 -0.00000000000E+00 -0.00000000000E+00 -0.45593999997E+02  0.45594000000E+02  0.51100000000E-03 0.  1.
    9900012    2    1    2    0    0 -0.17580483486E+02 -0.34726749259E+02 -0.22673613991E+02  0.46142320018E+02  0.10000020576E+02 0.  0.
         12    1    1    2    0    0  0.17580483486E+02  0.34726749259E+02  0.22673613991E+02  0.45045679982E+02  0.00000000000E+00 0. -1.
         11    1    3    3    0    0 -0.49745668448E+01 -0.16961585192E+02 -0.11280408228E+02  0.20968769577E+02  0.51100000000E-03 0. -1.
        -11    1    3    3    0    0 -0.37523963509E+01 -0.81570346742E+01 -0.70150840552E+01  0.11394257221E+02  0.51100000000E-03 0.  1.
         12    1    3    3    0    0 -0.88535202898E+01 -0.96081293930E+01 -0.43781217075E+01  0.13779293220E+02  0.00000000000E+00 0. -1.
</event>
<event>
 7    1  0.2243370E-008  0.4614232E+02  0.7816164E-02  0.1320468E+00
        -11   -1    0    0    0    0  0.00000000000E+00  0.00000000000E+00  0.45593999997E+02  0.45594000000E+02  0.51100000000E-03 0.  1.
         11   -1    0    0    0    0 -0.00000000000E+00 -0.00000000000E+00 -0.45593999997E+02  0.45594000000E+02  0.51100000000E-03 0. -1.
    9900012    2    1    2    0    0  0.40164386480E+02  0.16917959243E+02 -0.11389398035E+02  0.46142315702E+02  0.99999812216E+01 0.  0.
         12    1    1    2    0    0 -0.40164386480E+02 -0.16917959243E+02  0.11389398035E+02  0.45045684298E+02  0.00000000000E+00 0. -1.
         11    1    3    3    0    0  0.18997019459E+01  0.74587453280E+00 -0.31198814110E+01  0.37281170290E+01  0.51100000000E-03 0. -1.
        -11    1    3    3    0    0  0.98578801229E+01  0.34345511162E+01 -0.13886996582E+01  0.10531022215E+02  0.51100000000E-03 0.  1.
         12    1    3    3    0    0  0.28406804411E+02  0.12737533594E+02 -0.68808169659E+01  0.31883176458E+02  0.00000000000E+00 0. -1.
</event>
<event>
 7    1  0.2243370E-008  0.4614232E+02  0.7816164E-02  0.1320468E+00
        -11   -1    0    0    0    0  0.00000000000E+00  0.00000000000E+00  0.45593999997E+02  0.45594000000E+02  0.51100000000E-03 0.  1.
         11   -1    0    0    0    0 -0.00000000000E+00 -0.00000000000E+00 -0.45593999997E+02  0.45594000000E+02  0.51100000000E-03 0. -1.
    9900012    2    1    2    0    0 -0.42179157433E+02 -0.15730207353E+02  0.16101862432E+01  0.46142318244E+02  0.10000004407E+02 0.  0.
         12    1    1    2    0    0  0.42179157433E+02  0.15730207353E+02 -0.16101862432E+01  0.45045681756E+02  0.00000000000E+00 0. -1.
         11    1    3    3    0    0 -0.13796005973E+02 -0.57129019050E+01 -0.96131629472E+00  0.14962992958E+02  0.51100000000E-03 0.  1.
        -11    1    3    3    0    0 -0.56783208607E+01 -0.28713560216E+00 -0.20594035156E+01  0.60470586034E+01  0.51100000000E-03 0. -1.
         12    1    3    3    0    0 -0.22704830599E+02 -0.97301698457E+01  0.46309060535E+01  0.25132266683E+02  0.00000000000E+00 0. -1.
</event>
<event>
 7    1  0.2243370E-008  0.4614232E+02  0.7816164E-02  0.1320468E+00
        -11   -1    0    0    0    0  0.00000000000E+00  0.00000000000E+00  0.45593999997E+02  0.45594000000E+02  0.51100000000E-03 0.  1.
         11   -1    0    0    0    0 -0.00000000000E+00 -0.00000000000E+00 -0.45593999997E+02  0.45594000000E+02  0.51100000000E-03 0. -1.
    9900012    2    1    2    0    0  0.57503344007E+01  0.43989100092E+02  0.78106487323E+01  0.46142317563E+02  0.99999981916E+01 0.  0.
         12    1    1    2    0    0 -0.57503344007E+01 -0.43989100092E+02 -0.78106487323E+01  0.45045682437E+02  0.00000000000E+00 0. -1.
         11    1    3    3    0    0  0.24607718209E+01  0.12613314278E+02  0.26504489368E+01  0.13121584312E+02  0.51100000000E-03 0. -1.
        -11    1    3    3    0    0  0.44320765219E+01  0.23384586172E+02  0.72903027429E+00  0.23812048591E+02  0.51100000000E-03 0.  1.
         12    1    3    3    0    0 -0.11425139422E+01  0.79911996419E+01  0.44311695212E+01  0.92086846590E+01  0.00000000000E+00 0. -1.
</event>
<event>
 7    1  0.2243370E-008  0.4614232E+02  0.7816164E-02  0.1320468E+00
        -11   -1    0    0    0    0  0.00000000000E+00  0.00000000000E+00  0.45593999997E+02  0.45594000000E+02  0.51100000000E-03 0.  1.
         11   -1    0    0    0    0 -0.00000000000E+00 -0.00000000000E+00 -0.45593999997E+02  0.45594000000E+02  0.51100000000E-03 0. -1.
    9900012    2    1    2    0    0 -0.20106986389E+02 -0.26277466818E+02  0.30566603051E+02  0.46142318896E+02  0.10000010350E+02 0.  0.
         12    1    1    2    0    0  0.20106986389E+02  0.26277466818E+02 -0.30566603051E+02  0.45045681104E+02  0.00000000000E+00 0. -1.
         11    1    3    3    0    0 -0.35459689243E+01 -0.94659430918E+01  0.48829783524E+01  0.11225927671E+02  0.51100000000E-03 0. -1.
        -11    1    3    3    0    0 -0.11345929914E+02 -0.12423162574E+02  0.17737028757E+02  0.24447234677E+02  0.51100000000E-03 0.  1.
         12    1    3    3    0    0 -0.52150875506E+01 -0.43883611520E+01  0.79465959420E+01  0.10469156548E+02  0.00000000000E+00 0. -1.
</event>
<event>
 7    1  0.2243370E-008  0.4614232E+02  0.7816164E-02  0.1320468E+00
        -11   -1    0    0    0    0  0.00000000000E+00  0.00000000000E+00  0.45593999997E+02  0.45594000000E+02  0.51100000000E-03 0.  1.
         11   -1    0    0    0    0 -0.00000000000E+00 -0.00000000000E+00 -0.45593999997E+02  0.45594000000E+02  0.51100000000E-03 0. -1.
    9900012    2    1    2    0    0  0.20722250568E+02 -0.39621180633E+02 -0.54647983471E+01  0.46142316030E+02  0.99999842170E+01 0.  0.
         12    1    1    2    0    0 -0.20722250568E+02  0.39621180633E+02  0.54647983471E+01  0.45045683970E+02  0.00000000000E+00 0. -1.
         11    1    3    3    0    0  0.37897925175E+01 -0.91636905940E+01 -0.28107415529E+01  0.10307085959E+02  0.51100000000E-03 0. -1.
        -11    1    3    3    0    0  0.13630592717E+01 -0.56307856212E+01  0.20699624287E+01  0.61521071193E+01  0.51100000000E-03 0.  1.
        -12    1    3    3    0    0  0.15569398779E+02 -0.24826704417E+02 -0.47240192229E+01  0.29683122952E+02  0.00000000000E+00 0.  1.
</event>
<event>
 7    1  0.2243370E-008  0.4614232E+02  0.7816164E-02  0.1320468E+00
        -11   -1    0    0    0    0  0.00000000000E+00  0.00000000000E+00  0.45593999997E+02  0.45594000000E+02  0.51100000000E-03 0.  1.
         11   -1    0    0    0    0 -0.00000000000E+00 -0.00000000000E+00 -0.45593999997E+02  0.45594000000E+02  0.51100000000E-03 0. -1.
    9900012    2    1    2    0    0  0.32329860297E+02  0.26677155773E+02  0.16499177580E+02  0.46142319100E+02  0.10000012211E+02 0.  0.
         12    1    1    2    0    0 -0.32329860297E+02 -0.26677155773E+02 -0.16499177580E+02  0.45045680900E+02  0.00000000000E+00 0. -1.
         11    1    3    3    0    0  0.43567775851E+01  0.50446215754E+01  0.18703114133E+01  0.69229894416E+01  0.51100000000E-03 0. -1.
        -11    1    3    3    0    0  0.38796477199E+01 -0.15826663084E+00  0.19714920683E+01  0.43547096336E+01  0.51100000000E-03 0.  1.
        -12    1    3    3    0    0  0.24093434992E+02  0.21790800828E+02  0.12657374098E+02  0.34864620025E+02  0.00000000000E+00 0.  1.
</event>
<event>
 7    1  0.2243370E-008  0.4614232E+02  0.7816164E-02  0.1320468E+00
        -11   -1    0    0    0    0  0.00000000000E+00  0.00000000000E+00  0.45593999997E+02  0.45594000000E+02  0.51100000000E-03 0.  1.
         11   -1    0    0    0    0 -0.00000000000E+00 -0.00000000000E+00 -0.45593999997E+02  0.45594000000E+02  0.51100000000E-03 0. -1.
    9900012    2    1    2    0    0 -0.23198649830E+02  0.34577135394E+02  0.17185976881E+02  0.46142318217E+02  0.10000004153E+02 0.  0.
         12    1    1    2    0    0  0.23198649830E+02 -0.34577135394E+02 -0.17185976881E+02  0.45045681783E+02  0.00000000000E+00 0. -1.
         11    1    3    3    0    0 -0.11671472383E+02  0.17941644800E+02  0.71668378626E+01  0.22571873005E+02  0.51100000000E-03 0. -1.
        -11    1    3    3    0    0 -0.51549052976E+01  0.86871407808E+01  0.13451995955E+01  0.10190634219E+02  0.51100000000E-03 0.  1.
         12    1    3    3    0    0 -0.63722721495E+01  0.79483498125E+01  0.86739394233E+01  0.13379810993E+02  0.00000000000E+00 0. -1.
</event>
<event>
 7    1  0.2243370E-008  0.4614232E+02  0.7816164E-02  0.1320468E+00
        -11   -1    0    0    0    0  0.00000000000E+00  0.00000000000E+00  0.45593999997E+02  0.45594000000E+02  0.51100000000E-03 0.  1.
         11   -1    0    0    0    0 -0.00000000000E+00 -0.00000000000E+00 -0.45593999997E+02  0.45594000000E+02  0.51100000000E-03 0. -1.
    9900012    2    1    2    0    0 -0.49478384184E+01 -0.40221483545E+02  0.19668866953E+02  0.46142321286E+02  0.10000032147E+02 0.  0.
         12    1    1    2    0    0  0.49478384184E+01  0.40221483545E+02 -0.19668866953E+02  0.45045678714E+02  0.00000000000E+00 0. -1.
         11    1    3    3    0    0  0.17505256697E+01 -0.64618069373E+01  0.18763490352E+01  0.69526955189E+01  0.51100000000E-03 0. -1.
        -11    1    3    3    0    0 -0.24483091932E+01 -0.18553766669E+02  0.12632566220E+02  0.22579154215E+02  0.51100000000E-03 0.  1.
        -12    1    3    3    0    0 -0.42500548949E+01 -0.15205909938E+02  0.51599516978E+01  0.16610471552E+02  0.00000000000E+00 0.  1.
</event>
<event>
 7    1  0.2243370E-008  0.4614232E+02  0.7816164E-02  0.1320468E+00
        -11   -1    0    0    0    0  0.00000000000E+00  0.00000000000E+00  0.45593999997E+02  0.45594000000E+02  0.51100000000E-03 0. -1.
         11   -1    0    0    0    0 -0.00000000000E+00 -0.00000000000E+00 -0.45593999997E+02  0.45594000000E+02  0.51100000000E-03 0.  1.
    9900012    2    1    2    0    0  0.26678354339E+01  0.41607763817E+01 -0.44773697017E+02  0.46142319291E+02  0.10000013952E+02 0.  0.
         12    1    1    2    0    0 -0.26678354339E+01 -0.41607763817E+01  0.44773697017E+02  0.45045680709E+02  0.00000000000E+00 0. -1.
         11    1    3    3    0    0 -0.19562461602E+01  0.10790347662E+01 -0.86224121588E+01  0.89071435805E+01  0.51100000000E-03 0. -1.
        -11    1    3    3    0    0  0.27306785560E+01 -0.15789053502E+01 -0.73559406879E+01  0.80037123353E+01  0.51100000000E-03 0.  1.
        -12    1    3    3    0    0  0.18934030381E+01  0.46606469658E+01 -0.28795344170E+02  0.29231463375E+02  0.00000000000E+00 0.  1.
</event>
<event>
 7    1  0.2243370E-008  0.4614232E+02  0.7816164E-02  0.1320468E+00
        -11   -1    0    0    0    0  0.00000000000E+00  0.00000000000E+00  0.45593999997E+02  0.45594000000E+02  0.51100000000E-03 0. -1.
         11   -1    0    0    0    0 -0.00000000000E+00 -0.00000000000E+00 -0.45593999997E+02  0.45594000000E+02  0.51100000000E-03 0.  1.
    9900012    2    1    2    0    0  0.26579698406E+02  0.12599849611E+02 -0.34115638724E+02  0.46142318929E+02  0.10000010652E+02 0.  0.
         12    1    1    2    0    0 -0.26579698406E+02 -0.12599849611E+02  0.34115638724E+02  0.45045681071E+02  0.00000000000E+00 0. -1.
         11    1    3    3    0    0 -0.39693905308E+00  0.12956288858E+00 -0.27330210226E+01  0.27647334999E+01  0.51100000000E-03 0. -1.
        -11    1    3    3    0    0  0.11946085948E+02  0.38133223829E+01 -0.11818989540E+02  0.17231915479E+02  0.51100000000E-03 0.  1.
        -12    1    3    3    0    0  0.15030551511E+02  0.86569643399E+01 -0.19563628162E+02  0.26145669951E+02  0.00000000000E+00 0.  1.
</event>
<event>
 7    1  0.2243370E-008  0.4614232E+02  0.7816164E-02  0.1320468E+00
        -11   -1    0    0    0    0  0.00000000000E+00  0.00000000000E+00  0.45593999997E+02  0.45594000000E+02  0.51100000000E-03 0.  1.
         11   -1    0    0    0    0 -0.00000000000E+00 -0.00000000000E+00 -0.45593999997E+02  0.45594000000E+02  0.51100000000E-03 0. -1.
    9900012    2    1    2    0    0  0.22772560114E+02 -0.35056433112E+02  0.16780061412E+02  0.46142318102E+02  0.10000003108E+02 0.  0.
         12    1    1    2    0    0 -0.22772560114E+02  0.35056433112E+02 -0.16780061412E+02  0.45045681898E+02  0.00000000000E+00 0. -1.
         11    1    3    3    0    0  0.41479855183E+01 -0.22938987658E+01  0.27424924974E+01  0.54762232211E+01  0.51100000000E-03 0. -1.
        -11    1    3    3    0    0  0.16009752613E+02 -0.22765817904E+02  0.10057529893E+02  0.29593049038E+02  0.51100000000E-03 0.  1.
        -12    1    3    3    0    0  0.26148219832E+01 -0.99967164420E+01  0.39800390213E+01  0.11073045843E+02  0.00000000000E+00 0.  1.
</event>
<event>
 7    1  0.2243370E-008  0.4614232E+02  0.7816164E-02  0.1320468E+00
        -11   -1    0    0    0    0  0.00000000000E+00  0.00000000000E+00  0.45593999997E+02  0.45594000000E+02  0.51100000000E-03 0.  1.
         11   -1    0    0    0    0 -0.00000000000E+00 -0.00000000000E+00 -0.45593999997E+02  0.45594000000E+02  0.51100000000E-03 0. -1.
    9900012    2    1    2    0    0 -0.93655377996E+01 -0.16115482213E+02  0.41008431725E+02  0.46142317213E+02  0.99999949992E+01 0.  0.
         12    1    1    2    0    0  0.93655377996E+01  0.16115482213E+02 -0.41008431725E+02  0.45045682787E+02  0.00000000000E+00 0. -1.
         11    1    3    3    0    0  0.52422300013E-01 -0.15759476178E+01  0.32585346159E+01  0.36200009801E+01  0.51100000000E-03 0.  1.
        -11    1    3    3    0    0 -0.71773565688E+01 -0.39286017921E+01  0.21317575511E+02  0.22833908673E+02  0.51100000000E-03 0. -1.
         12    1    3    3    0    0 -0.22406035309E+01 -0.10610932803E+02  0.16432321598E+02  0.19688407560E+02  0.00000000000E+00 0. -1.
</event>
<event>
 7    1  0.2243370E-008  0.4614232E+02  0.7816164E-02  0.1320468E+00
        -11   -1    0    0    0    0  0.00000000000E+00  0.00000000000E+00  0.45593999997E+02  0.45594000000E+02  0.51100000000E-03 0.  1.
         11   -1    0    0    0    0 -0.00000000000E+00 -0.00000000000E+00 -0.45593999997E+02  0.45594000000E+02  0.51100000000E-03 0. -1.
    9900012    2    1    2    0    0  0.18392701746E+02  0.33169690787E+02  0.24302131544E+02  0.46142318054E+02  0.10000002668E+02 0.  0.
         12    1    1    2    0    0 -0.18392701746E+02 -0.33169690787E+02 -0.24302131544E+02  0.45045681946E+02  0.00000000000E+00 0. -1.
         11    1    3    3    0    0  0.41407412026E+01  0.38459558967E+01  0.43052153689E+01  0.71043644403E+01  0.51100000000E-03 0. -1.
        -11    1    3    3    0    0  0.13315183855E+02  0.28032427382E+02  0.20689964859E+02  0.37298602549E+02  0.51100000000E-03 0.  1.
         12    1    3    3    0    0  0.93677668850E+00  0.12913075085E+01 -0.69304868387E+00  0.17393510640E+01  0.00000000000E+00 0. -1.
</event>
<event>
 7    1  0.2243370E-008  0.4614232E+02  0.7816164E-02  0.1320468E+00
        -11   -1    0    0    0    0  0.00000000000E+00  0.00000000000E+00  0.45593999997E+02  0.45594000000E+02  0.51100000000E-03 0. -1.
         11   -1    0    0    0    0 -0.00000000000E+00 -0.00000000000E+00 -0.45593999997E+02  0.45594000000E+02  0.51100000000E-03 0.  1.
    9900012    2    1    2    0    0 -0.23187016866E+02 -0.25249487614E+02 -0.29222236459E+02  0.46142317859E+02  0.10000000888E+02 0.  0.
         12    1    1    2    0    0  0.23187016866E+02  0.25249487614E+02  0.29222236459E+02  0.45045682141E+02  0.00000000000E+00 0. -1.
         11    1    3    3    0    0  0.14760764071E+00  0.84928041263E-01 -0.25801245199E+01  0.25857384993E+01  0.51100000000E-03 0. -1.
        -11    1    3    3    0    0 -0.15158435505E+02 -0.16449100147E+02 -0.17912675335E+02  0.28656849103E+02  0.51100000000E-03 0.  1.
         12    1    3    3    0    0 -0.81761890015E+01 -0.88853155083E+01 -0.87294366044E+01  0.14899730256E+02  0.00000000000E+00 0. -1.
</event>
<event>
 7    1  0.2243370E-008  0.4614232E+02  0.7816164E-02  0.1320468E+00
        -11   -1    0    0    0    0  0.00000000000E+00  0.00000000000E+00  0.45593999997E+02  0.45594000000E+02  0.51100000000E-03 0.  1.
         11   -1    0    0    0    0 -0.00000000000E+00 -0.00000000000E+00 -0.45593999997E+02  0.45594000000E+02  0.51100000000E-03 0. -1.
    9900012    2    1    2    0    0  0.28718873951E+02 -0.10659507673E+02 -0.33025970820E+02  0.46142316817E+02  0.99999913885E+01 0.  0.
         12    1    1    2    0    0 -0.28718873951E+02  0.10659507673E+02  0.33025970820E+02  0.45045683183E+02  0.00000000000E+00 0. -1.
         11    1    3    3    0    0  0.62160763166E-01  0.21875931044E+00  0.17697365965E-01  0.22810754977E+00  0.51100000000E-03 0. -1.
        -11    1    3    3    0    0  0.10480520432E+02  0.29632656272E+00 -0.12200003654E+02  0.16086304964E+02  0.51100000000E-03 0.  1.
        -12    1    3    3    0    0  0.18176192756E+02 -0.11174593546E+02 -0.20843664531E+02  0.29827904303E+02  0.00000000000E+00 0.  1.
</event>
<event>
 7    1  0.2243370E-008  0.4614232E+02  0.7816164E-02  0.1320468E+00
        -11   -1    0    0    0    0  0.00000000000E+00  0.00000000000E+00  0.45593999997E+02  0.45594000000E+02  0.51100000000E-03 0. -1.
         11   -1    0    0    0    0 -0.00000000000E+00 -0.00000000000E+00 -0.45593999997E+02  0.45594000000E+02  0.51100000000E-03 0.  1.
    9900012    2    1    2    0    0 -0.36021508059E+01 -0.36943966700E+02  0.25520213123E+02  0.46142318255E+02  0.10000004508E+02 0.  0.
         12    1    1    2    0    0  0.36021508059E+01  0.36943966700E+02 -0.25520213123E+02  0.45045681745E+02  0.00000000000E+00 0. -1.
         11    1    3    3    0    0  0.87419144145E-01 -0.11611534713E+02  0.59583619837E+01  0.13051339329E+02  0.51100000000E-03 0. -1.
        -11    1    3    3    0    0  0.17943651090E+01 -0.13639332004E+02  0.10692689138E+02  0.17423682875E+02  0.51100000000E-03 0.  1.
         12    1    3    3    0    0 -0.54839350591E+01 -0.11693099984E+02  0.88691620015E+01  0.15667296052E+02  0.00000000000E+00 0. -1.
</event>
<event>
 7    1  0.2243370E-008  0.4614232E+02  0.7816164E-02  0.1320468E+00
        -11   -1    0    0    0    0  0.00000000000E+00  0.00000000000E+00  0.45593999997E+02  0.45594000000E+02  0.51100000000E-03 0. -1.
         11   -1    0    0    0    0 -0.00000000000E+00 -0.00000000000E+00 -0.45593999997E+02  0.45594000000E+02  0.51100000000E-03 0.  1.
    9900012    2    1    2    0    0  0.18485350067E+01 -0.36560894421E+02 -0.26248760594E+02  0.46142317463E+02  0.99999972831E+01 0.  0.
         12    1    1    2    0    0 -0.18485350067E+01  0.36560894421E+02  0.26248760594E+02  0.45045682537E+02  0.00000000000E+00 0. -1.
         11    1    3    3    0    0  0.37243651333E+01 -0.26842279731E+02 -0.18410502011E+02  0.32761646194E+02  0.51100000000E-03 0. -1.
        -11    1    3    3    0    0  0.59794988661E+00 -0.64900335464E+01 -0.33657257998E+01  0.73352702691E+01  0.51100000000E-03 0.  1.
        -12    1    3    3    0    0 -0.24737800132E+01 -0.32285811428E+01 -0.44725327832E+01  0.60454009996E+01  0.00000000000E+00 0.  1.
</event>
<event>
 7    1  0.2243370E-008  0.4614232E+02  0.7816164E-02  0.1320468E+00
        -11   -1    0    0    0    0  0.00000000000E+00  0.00000000000E+00  0.45593999997E+02  0.45594000000E+02  0.51100000000E-03 0. -1.
         11   -1    0    0    0    0 -0.00000000000E+00 -0.00000000000E+00 -0.45593999997E+02  0.45594000000E+02  0.51100000000E-03 0.  1.
    9900012    2    1    2    0    0 -0.20258218337E+02 -0.32149422157E+01 -0.40104640222E+02  0.46142318398E+02  0.10000005810E+02 0.  0.
         12    1    1    2    0    0  0.20258218337E+02  0.32149422157E+01  0.40104640222E+02  0.45045681602E+02  0.00000000000E+00 0. -1.
         11    1    3    3    0    0 -0.23940928292E+01 -0.17845407448E+01 -0.88522953760E+01  0.93423444504E+01  0.51100000000E-03 0. -1.
        -11    1    3    3    0    0 -0.29724345683E+01 -0.10288305536E+01 -0.12288079423E+02  0.12684271983E+02  0.51100000000E-03 0.  1.
         12    1    3    3    0    0 -0.14891690939E+02 -0.40157091727E+00 -0.18964265423E+02  0.24115701965E+02  0.00000000000E+00 0. -1.
</event>
<event>
 7    1  0.2243370E-008  0.4614231E+02  0.7816164E-02  0.1320468E+00
        -11   -1    0    0    0    0  0.00000000000E+00  0.00000000000E+00  0.45593999997E+02  0.45594000000E+02  0.51100000000E-03 0. -1.
         11   -1    0    0    0    0 -0.00000000000E+00 -0.00000000000E+00 -0.45593999997E+02  0.45594000000E+02  0.51100000000E-03 0.  1.
    9900012    2    1    2    0    0 -0.25957216421E+02 -0.31465664914E+02  0.19111480518E+02  0.46142313853E+02  0.99999643644E+01 0.  0.
         12    1    1    2    0    0  0.25957216421E+02  0.31465664914E+02 -0.19111480518E+02  0.45045686147E+02  0.00000000000E+00 0. -1.
         11    1    3    3    0    0 -0.10409975947E+02 -0.68830213659E+01  0.50939133068E+01  0.13479300255E+02  0.51100000000E-03 0. -1.
        -11    1    3    3    0    0 -0.43289761693E+01 -0.60479605080E+01  0.60205016333E+01  0.95689237200E+01  0.51100000000E-03 0.  1.
        -12    1    3    3    0    0 -0.11218264305E+02 -0.18534683041E+02  0.79970655779E+01  0.23094089878E+02  0.00000000000E+00 0.  1.
</event>
<event>
 7    1  0.2243370E-008  0.4614232E+02  0.7816164E-02  0.1320468E+00
        -11   -1    0    0    0    0  0.00000000000E+00  0.00000000000E+00  0.45593999997E+02  0.45594000000E+02  0.51100000000E-03 0.  1.
         11   -1    0    0    0    0 -0.00000000000E+00 -0.00000000000E+00 -0.45593999997E+02  0.45594000000E+02  0.51100000000E-03 0. -1.
    9900012    2    1    2    0    0  0.32006902342E+02 -0.22111333808E+02  0.22710366676E+02  0.46142316135E+02  0.99999851714E+01 0.  0.
         12    1    1    2    0    0 -0.32006902342E+02  0.22111333808E+02 -0.22710366676E+02  0.45045683865E+02  0.00000000000E+00 0. -1.
         11    1    3    3    0    0  0.11797684939E+02 -0.68435551105E+01  0.39066468957E+01  0.14187371381E+02  0.51100000000E-03 0. -1.
        -11    1    3    3    0    0  0.12548157961E+02 -0.10335683881E+02  0.90437935224E+01  0.18603032845E+02  0.51100000000E-03 0.  1.
        -12    1    3    3    0    0  0.76610594414E+01 -0.49320948163E+01  0.97599262583E+01  0.13351911908E+02  0.00000000000E+00 0.  1.
</event>
<event>
 7    1  0.2243370E-008  0.4614232E+02  0.7816164E-02  0.1320468E+00
        -11   -1    0    0    0    0  0.00000000000E+00  0.00000000000E+00  0.45593999997E+02  0.45594000000E+02  0.51100000000E-03 0. -1.
         11   -1    0    0    0    0 -0.00000000000E+00 -0.00000000000E+00 -0.45593999997E+02  0.45594000000E+02  0.51100000000E-03 0.  1.
    9900012    2    1    2    0    0  0.41655719026E+02 -0.10884963385E+02  0.13245080850E+02  0.46142317386E+02  0.99999965754E+01 0.  0.
         12    1    1    2    0    0 -0.41655719026E+02  0.10884963385E+02 -0.13245080850E+02  0.45045682614E+02  0.00000000000E+00 0. -1.
         11    1    3    3    0    0  0.41611734238E+01 -0.24093865657E+01 -0.10055999550E+01  0.49124066828E+01  0.51100000000E-03 0. -1.
        -11    1    3    3    0    0  0.23772678155E+02 -0.33403116416E+01  0.96513003952E+01  0.25873645048E+02  0.51100000000E-03 0.  1.
        -12    1    3    3    0    0  0.13721867448E+02 -0.51352651775E+01  0.45993804095E+01  0.15356265654E+02  0.00000000000E+00 0.  1.
</event>
<event>
 7    1  0.2243370E-008  0.4614232E+02  0.7816164E-02  0.1320468E+00
        -11   -1    0    0    0    0  0.00000000000E+00  0.00000000000E+00  0.45593999997E+02  0.45594000000E+02  0.51100000000E-03 0.  1.
         11   -1    0    0    0    0 -0.00000000000E+00 -0.00000000000E+00 -0.45593999997E+02  0.45594000000E+02  0.51100000000E-03 0. -1.
    9900012    2    1    2    0    0  0.13572226135E+02 -0.35336113174E+01  0.42806795844E+02  0.46142317614E+02  0.99999986542E+01 0.  0.
         12    1    1    2    0    0 -0.13572226135E+02  0.35336113174E+01 -0.42806795844E+02  0.45045682386E+02  0.00000000000E+00 0. -1.
         11    1    3    3    0    0  0.48991218056E+01 -0.64100830790E+00  0.56512197613E+01  0.75065685349E+01  0.51100000000E-03 0. -1.
        -11    1    3    3    0    0  0.92864307337E+00 -0.10045742364E+01  0.12405724580E+01  0.18467722217E+01  0.51100000000E-03 0.  1.
        -12    1    3    3    0    0  0.77444612560E+01 -0.18880287731E+01  0.35915003625E+02  0.36788976857E+02  0.00000000000E+00 0.  1.
</event>
<event>
 7    1  0.2243370E-008  0.4614232E+02  0.7816164E-02  0.1320468E+00
        -11   -1    0    0    0    0  0.00000000000E+00  0.00000000000E+00  0.45593999997E+02  0.45594000000E+02  0.51100000000E-03 0. -1.
         11   -1    0    0    0    0 -0.00000000000E+00 -0.00000000000E+00 -0.45593999997E+02  0.45594000000E+02  0.51100000000E-03 0.  1.
    9900012    2    1    2    0    0 -0.44488009870E+02 -0.38285074863E+01 -0.59391128153E+01  0.46142317046E+02  0.99999934746E+01 0.  0.
         12    1    1    2    0    0  0.44488009870E+02  0.38285074863E+01  0.59391128153E+01  0.45045682954E+02  0.00000000000E+00 0. -1.
         11    1    3    3    0    0 -0.23644663452E+00 -0.65013402518E+00 -0.65823809270E+00  0.95491303765E+00  0.51100000000E-03 0. -1.
        -11    1    3    3    0    0 -0.19443766520E+02  0.14798257910E+01 -0.55779374385E+00  0.19507974651E+02  0.51100000000E-03 0.  1.
        -12    1    3    3    0    0 -0.24807796716E+02 -0.46581992521E+01 -0.47230809788E+01  0.25679429357E+02  0.00000000000E+00 0.  1.
</event>
<event>
 7    1  0.2243370E-008  0.4614232E+02  0.7816164E-02  0.1320468E+00
        -11   -1    0    0    0    0  0.00000000000E+00  0.00000000000E+00  0.45593999997E+02  0.45594000000E+02  0.51100000000E-03 0.  1.
         11   -1    0    0    0    0 -0.00000000000E+00 -0.00000000000E+00 -0.45593999997E+02  0.45594000000E+02  0.51100000000E-03 0. -1.
    9900012    2    1    2    0    0  0.22520584497E+02  0.31184082526E+02  0.23441198332E+02  0.46142317540E+02  0.99999979843E+01 0.  0.
         12    1    1    2    0    0 -0.22520584497E+02 -0.31184082526E+02 -0.23441198332E+02  0.45045682460E+02  0.00000000000E+00 0. -1.
         11    1    3    3    0    0  0.51754079721E+01  0.72267493916E+01  0.67578249035E+01  0.11165972960E+02  0.51100000000E-03 0. -1.
        -11    1    3    3    0    0  0.46009082709E+01  0.88082122863E+01  0.99584286599E+01  0.14068520257E+02  0.51100000000E-03 0.  1.
         12    1    3    3    0    0  0.12744268254E+02  0.15149120848E+02  0.67249447686E+01  0.20907824323E+02  0.00000000000E+00 0. -1.
</event>
<event>
 7    1  0.2243370E-008  0.4614232E+02  0.7816164E-02  0.1320468E+00
        -11   -1    0    0    0    0  0.00000000000E+00  0.00000000000E+00  0.45593999997E+02  0.45594000000E+02  0.51100000000E-03 0.  1.
         11   -1    0    0    0    0 -0.00000000000E+00 -0.00000000000E+00 -0.45593999997E+02  0.45594000000E+02  0.51100000000E-03 0. -1.
    9900012    2    1    2    0    0 -0.24627631280E+02 -0.35557028248E+02  0.12581351120E+02  0.46142324554E+02  0.10000061947E+02 0.  0.
         12    1    1    2    0    0  0.24627631280E+02  0.35557028248E+02 -0.12581351120E+02  0.45045675446E+02  0.00000000000E+00 0. -1.
         11    1    3    3    0    0 -0.10735696920E+01 -0.64857060945E+01  0.36243896698E+00  0.65839424127E+01  0.51100000000E-03 0. -1.
        -11    1    3    3    0    0 -0.95021623119E+01 -0.12488197865E+02  0.31445911240E+01  0.16004206576E+02  0.51100000000E-03 0.  1.
         12    1    3    3    0    0 -0.14051899277E+02 -0.16583124289E+02  0.90743210293E+01  0.23554175566E+02  0.00000000000E+00 0. -1.
</event>
<event>
 7    1  0.2243370E-008  0.4614232E+02  0.7816164E-02  0.1320468E+00
        -11   -1    0    0    0    0  0.00000000000E+00  0.00000000000E+00  0.45593999997E+02  0.45594000000E+02  0.51100000000E-03 0. -1.
         11   -1    0    0    0    0 -0.00000000000E+00 -0.00000000000E+00 -0.45593999997E+02  0.45594000000E+02  0.51100000000E-03 0.  1.
    9900012    2    1    2    0    0  0.34377861551E+02 -0.12016461092E+01 -0.29083190479E+02  0.46142320001E+02  0.10000020421E+02 0.  0.
         12    1    1    2    0    0 -0.34377861551E+02  0.12016461092E+01  0.29083190479E+02  0.45045679999E+02  0.00000000000E+00 0. -1.
         11    1    3    3    0    0  0.13865907125E+02  0.40497119785E+01 -0.11590099226E+02  0.18520095783E+02  0.51100000000E-03 0.  1.
        -11    1    3    3    0    0  0.86593579445E-01 -0.28725134556E+00 -0.43298142890E-01  0.30312831248E+00  0.51100000000E-03 0. -1.
        -12    1    3    3    0    0  0.20425360846E+02 -0.49641067421E+01 -0.17449793111E+02  0.27319095905E+02  0.00000000000E+00 0.  1.
</event>
<event>
 7    1  0.2243370E-008  0.4614232E+02  0.7816164E-02  0.1320468E+00
        -11   -1    0    0    0    0  0.00000000000E+00  0.00000000000E+00  0.45593999997E+02  0.45594000000E+02  0.51100000000E-03 0.  1.
         11   -1    0    0    0    0 -0.00000000000E+00 -0.00000000000E+00 -0.45593999997E+02  0.45594000000E+02  0.51100000000E-03 0. -1.
    9900012    2    1    2    0    0  0.32335383619E+02  0.19832041584E+02  0.24294578653E+02  0.46142318086E+02  0.10000002965E+02 0.  0.
         12    1    1    2    0    0 -0.32335383619E+02 -0.19832041584E+02 -0.24294578653E+02  0.45045681914E+02  0.00000000000E+00 0. -1.
         11    1    3    3    0    0  0.94207928167E+00 -0.62853960287E+00  0.49228472764E+00  0.12348764795E+01  0.51100000000E-03 0. -1.
        -11    1    3    3    0    0  0.45359339099E+01  0.39751529024E+01  0.68390886148E+01  0.91186441083E+01  0.51100000000E-03 0.  1.
        -12    1    3    3    0    0  0.26857370427E+02  0.16485428284E+02  0.16963205310E+02  0.35788797499E+02  0.00000000000E+00 0.  1.
</event>
<event>
 7    1  0.2243370E-008  0.4614232E+02  0.7816164E-02  0.1320468E+00
        -11   -1    0    0    0    0  0.00000000000E+00  0.00000000000E+00  0.45593999997E+02  0.45594000000E+02  0.51100000000E-03 0.  1.
         11   -1    0    0    0    0 -0.00000000000E+00 -0.00000000000E+00 -0.45593999997E+02  0.45594000000E+02  0.51100000000E-03 0. -1.
    9900012    2    1    2    0    0 -0.16566107288E+02  0.17919522671E+02  0.37862492380E+02  0.46142317269E+02  0.99999955155E+01 0.  0.
         12    1    1    2    0    0  0.16566107288E+02 -0.17919522671E+02 -0.37862492380E+02  0.45045682731E+02  0.00000000000E+00 0. -1.
         11    1    3    3    0    0 -0.10646233443E+02  0.67239351220E+01  0.25319911954E+02  0.28278110469E+02  0.51100000000E-03 0.  1.
        -11    1    3    3    0    0 -0.25687029979E+01  0.49826658140E+01  0.63873709404E+01  0.84984528884E+01  0.51100000000E-03 0. -1.
        -12    1    3    3    0    0 -0.33511708469E+01  0.62129217354E+01  0.61552094856E+01  0.93657539123E+01  0.00000000000E+00 0.  1.
</event>
<event>
 7    1  0.2243370E-008  0.4614232E+02  0.7816164E-02  0.1320468E+00
        -11   -1    0    0    0    0  0.00000000000E+00  0.00000000000E+00  0.45593999997E+02  0.45594000000E+02  0.51100000000E-03 0. -1.
         11   -1    0    0    0    0 -0.00000000000E+00 -0.00000000000E+00 -0.45593999997E+02  0.45594000000E+02  0.51100000000E-03 0.  1.
    9900012    2    1    2    0    0 -0.16170252472E+02 -0.19890954492E+02 -0.37040333515E+02  0.46142318270E+02  0.10000004640E+02 0.  0.
         12    1    1    2    0    0  0.16170252472E+02  0.19890954492E+02  0.37040333515E+02  0.45045681730E+02  0.00000000000E+00 0. -1.
         11    1    3    3    0    0 -0.17934102497E+01  0.82002328995E+00 -0.13801833239E+01  0.24070032797E+01  0.51100000000E-03 0. -1.
        -11    1    3    3    0    0 -0.83063524364E+01 -0.12642064015E+02 -0.23226741253E+02  0.27718203096E+02  0.51100000000E-03 0.  1.
         12    1    3    3    0    0 -0.60704897854E+01 -0.80689137671E+01 -0.12433408938E+02  0.16017111894E+02  0.00000000000E+00 0. -1.
</event>
<event>
 7    1  0.2243370E-008  0.4614232E+02  0.7816164E-02  0.1320468E+00
        -11   -1    0    0    0    0  0.00000000000E+00  0.00000000000E+00  0.45593999997E+02  0.45594000000E+02  0.51100000000E-03 0.  1.
         11   -1    0    0    0    0 -0.00000000000E+00 -0.00000000000E+00 -0.45593999997E+02  0.45594000000E+02  0.51100000000E-03 0. -1.
    9900012    2    1    2    0    0  0.44118812090E+02 -0.88234760090E+01 -0.21886279067E+01  0.46142318728E+02  0.10000008820E+02 0.  0.
         12    1    1    2    0    0 -0.44118812090E+02  0.88234760090E+01  0.21886279067E+01  0.45045681272E+02  0.00000000000E+00 0. -1.
         11    1    3    3    0    0  0.23484590427E+01 -0.16535768548E+01 -0.16116256248E+01  0.32934653036E+01  0.51100000000E-03 0. -1.
        -11    1    3    3    0    0  0.20979664091E+02 -0.67151209582E+00 -0.15241290028E+01  0.21045669468E+02  0.51100000000E-03 0.  1.
        -12    1    3    3    0    0  0.20790688956E+02 -0.64983870584E+01  0.94712672089E+00  0.21803183957E+02  0.00000000000E+00 0.  1.
</event>
<event>
 7    1  0.2243370E-008  0.4614231E+02  0.7816164E-02  0.1320468E+00
        -11   -1    0    0    0    0  0.00000000000E+00  0.00000000000E+00  0.45593999997E+02  0.45594000000E+02  0.51100000000E-03 0.  1.
         11   -1    0    0    0    0 -0.00000000000E+00 -0.00000000000E+00 -0.45593999997E+02  0.45594000000E+02  0.51100000000E-03 0. -1.
    9900012    2    1    2    0    0 -0.11265306643E+02  0.30384275179E+02  0.31289016708E+02  0.46142313431E+02  0.99999605145E+01 0.  0.
         12    1    1    2    0    0  0.11265306643E+02 -0.30384275179E+02 -0.31289016708E+02  0.45045686569E+02  0.00000000000E+00 0. -1.
         11    1    3    3    0    0 -0.15479331919E+01  0.34932181941E+01  0.59145680355E+01  0.70413624978E+01  0.51100000000E-03 0. -1.
        -11    1    3    3    0    0 -0.82451585988E+01  0.10825953272E+02  0.11140905225E+02  0.17587031417E+02  0.51100000000E-03 0.  1.
        -12    1    3    3    0    0 -0.14722148524E+01  0.16065103713E+02  0.14233543447E+02  0.21513919516E+02  0.00000000000E+00 0.  1.
</event>
<event>
 7    1  0.2243370E-008  0.4614232E+02  0.7816164E-02  0.1320468E+00
        -11   -1    0    0    0    0  0.00000000000E+00  0.00000000000E+00  0.45593999997E+02  0.45594000000E+02  0.51100000000E-03 0. -1.
         11   -1    0    0    0    0 -0.00000000000E+00 -0.00000000000E+00 -0.45593999997E+02  0.45594000000E+02  0.51100000000E-03 0.  1.
    9900012    2    1    2    0    0 -0.16799194114E+02  0.37875696521E+02 -0.17672920337E+02  0.46142318486E+02  0.10000006609E+02 0.  0.
         12    1    1    2    0    0  0.16799194114E+02 -0.37875696521E+02  0.17672920337E+02  0.45045681514E+02  0.00000000000E+00 0. -1.
         11    1    3    3    0    0 -0.39661741661E+01  0.67789802254E+01  0.26383090138E+00  0.78584169791E+01  0.51100000000E-03 0. -1.
        -11    1    3    3    0    0 -0.15372773412E+01  0.28421728645E+01 -0.67895200441E+00  0.33018395329E+01  0.51100000000E-03 0.  1.
        -12    1    3    3    0    0 -0.11295742607E+02  0.28254543431E+02 -0.17257799234E+02  0.34982061974E+02  0.00000000000E+00 0.  1.
</event>
<event>
 7    1  0.2243370E-008  0.4614232E+02  0.7816164E-02  0.1320468E+00
        -11   -1    0    0    0    0  0.00000000000E+00  0.00000000000E+00  0.45593999997E+02  0.45594000000E+02  0.51100000000E-03 0.  1.
         11   -1    0    0    0    0 -0.00000000000E+00 -0.00000000000E+00 -0.45593999997E+02  0.45594000000E+02  0.51100000000E-03 0. -1.
    9900012    2    1    2    0    0 -0.85808730041E+01 -0.41997456069E+02 -0.13845422811E+02  0.46142318403E+02  0.10000005851E+02 0.  0.
         12    1    1    2    0    0  0.85808730041E+01  0.41997456069E+02  0.13845422811E+02  0.45045681597E+02  0.00000000000E+00 0. -1.
         11    1    3    3    0    0 -0.32555732949E+01 -0.10558614674E+02 -0.94905105613E+00  0.11089806106E+02  0.51100000000E-03 0. -1.
        -11    1    3    3    0    0  0.12680869910E+01 -0.94444380492E+01 -0.50695766514E+01  0.10793797403E+02  0.51100000000E-03 0.  1.
        -12    1    3    3    0    0 -0.65933867002E+01 -0.21994403346E+02 -0.78267951033E+01  0.24258714894E+02  0.00000000000E+00 0.  1.
</event>
<event>
 7    1  0.2243370E-008  0.4614231E+02  0.7816164E-02  0.1320468E+00
        -11   -1    0    0    0    0  0.00000000000E+00  0.00000000000E+00  0.45593999997E+02  0.45594000000E+02  0.51100000000E-03 0. -1.
         11   -1    0    0    0    0 -0.00000000000E+00 -0.00000000000E+00 -0.45593999997E+02  0.45594000000E+02  0.51100000000E-03 0.  1.
    9900012    2    1    2    0    0  0.33576952568E+02  0.28722452923E+02  0.87591811091E+01  0.46142308759E+02  0.99999179098E+01 0.  0.
         12    1    1    2    0    0 -0.33576952568E+02 -0.28722452923E+02 -0.87591811091E+01  0.45045691241E+02  0.00000000000E+00 0. -1.
         11    1    3    3    0    0  0.39474680825E+01  0.47816215624E+01 -0.26390225859E-01  0.62005730166E+01  0.51100000000E-03 0. -1.
        -11    1    3    3    0    0  0.28079404030E+02  0.19672302010E+02  0.66519177341E+01  0.34924209467E+02  0.51100000000E-03 0.  1.
         12    1    3    3    0    0  0.15500804552E+01  0.42685293510E+01  0.21336536008E+01  0.50175262756E+01  0.00000000000E+00 0. -1.
</event>
<event>
 7    1  0.2243370E-008  0.4614232E+02  0.7816164E-02  0.1320468E+00
        -11   -1    0    0    0    0  0.00000000000E+00  0.00000000000E+00  0.45593999997E+02  0.45594000000E+02  0.51100000000E-03 0.  1.
         11   -1    0    0    0    0 -0.00000000000E+00 -0.00000000000E+00 -0.45593999997E+02  0.45594000000E+02  0.51100000000E-03 0. -1.
    9900012    2    1    2    0    0  0.16525448995E+02 -0.41204367477E+02  0.76304055534E+01  0.46142318159E+02  0.10000003627E+02 0.  0.
         12    1    1    2    0    0 -0.16525448995E+02  0.41204367477E+02 -0.76304055534E+01  0.45045681841E+02  0.00000000000E+00 0. -1.
         11    1    3    3    0    0  0.37800184857E+00 -0.19591348701E+01  0.12838139584E+01  0.23726089812E+01  0.51100000000E-03 0. -1.
        -11    1    3    3    0    0  0.12196341073E+02 -0.28692142110E+02  0.74483463714E+00  0.31185646271E+02  0.51100000000E-03 0.  1.
        -12    1    3    3    0    0  0.39511060732E+01 -0.10553090496E+02  0.56017569578E+01  0.12584062907E+02  0.00000000000E+00 0.  1.
</event>
<event>
 7    1  0.2243370E-008  0.4614232E+02  0.7816164E-02  0.1320468E+00
        -11   -1    0    0    0    0  0.00000000000E+00  0.00000000000E+00  0.45593999997E+02  0.45594000000E+02  0.51100000000E-03 0. -1.
         11   -1    0    0    0    0 -0.00000000000E+00 -0.00000000000E+00 -0.45593999997E+02  0.45594000000E+02  0.51100000000E-03 0.  1.
    9900012    2    1    2    0    0 -0.21365018334E+02  0.19716298092E+02 -0.34408090632E+02  0.46142321852E+02  0.10000037303E+02 0.  0.
         12    1    1    2    0    0  0.21365018334E+02 -0.19716298092E+02  0.34408090632E+02  0.45045678148E+02  0.00000000000E+00 0. -1.
         11    1    3    3    0    0 -0.47394189291E+01  0.85683208606E+01 -0.90675275840E+01  0.13345346414E+02  0.51100000000E-03 0. -1.
        -11    1    3    3    0    0 -0.85814309500E+01  0.88757501051E+01 -0.13387633809E+02  0.18211222813E+02  0.51100000000E-03 0.  1.
        -12    1    3    3    0    0 -0.80441684552E+01  0.22722271261E+01 -0.11952929239E+02  0.14585752625E+02  0.00000000000E+00 0.  1.
</event>
<event>
 7    1  0.2243370E-008  0.4614232E+02  0.7816164E-02  0.1320468E+00
        -11   -1    0    0    0    0  0.00000000000E+00  0.00000000000E+00  0.45593999997E+02  0.45594000000E+02  0.51100000000E-03 0. -1.
         11   -1    0    0    0    0 -0.00000000000E+00 -0.00000000000E+00 -0.45593999997E+02  0.45594000000E+02  0.51100000000E-03 0.  1.
    9900012    2    1    2    0    0  0.26573088620E+02  0.33682642981E+02  0.13728221647E+02  0.46142317115E+02  0.99999941107E+01 0.  0.
         12    1    1    2    0    0 -0.26573088620E+02 -0.33682642981E+02 -0.13728221647E+02  0.45045682885E+02  0.00000000000E+00 0. -1.
         11    1    3    3    0    0  0.76270232267E+01  0.12134079022E+02  0.17688915786E+01  0.14440787191E+02  0.51100000000E-03 0. -1.
        -11    1    3    3    0    0  0.14572489923E+02  0.18953525605E+02  0.78516619004E+01  0.25164303890E+02  0.51100000000E-03 0.  1.
        -12    1    3    3    0    0  0.43735754707E+01  0.25950383544E+01  0.41076681676E+01  0.65372260351E+01  0.00000000000E+00 0.  1.
</event>
<event>
 7    1  0.2243370E-008  0.4614232E+02  0.7816164E-02  0.1320468E+00
        -11   -1    0    0    0    0  0.00000000000E+00  0.00000000000E+00  0.45593999997E+02  0.45594000000E+02  0.51100000000E-03 0. -1.
         11   -1    0    0    0    0 -0.00000000000E+00 -0.00000000000E+00 -0.45593999997E+02  0.45594000000E+02  0.51100000000E-03 0.  1.
    9900012    2    1    2    0    0  0.34630477562E+02  0.28311792478E+02  0.53184514312E+01  0.46142317687E+02  0.99999993219E+01 0.  0.
         12    1    1    2    0    0 -0.34630477562E+02 -0.28311792478E+02 -0.53184514312E+01  0.45045682313E+02  0.00000000000E+00 0. -1.
         11    1    3    3    0    0  0.18499313906E+01  0.16288024899E+01 -0.17959797342E+01  0.30497191949E+01  0.51100000000E-03 0. -1.
        -11    1    3    3    0    0  0.21379484385E+02  0.15534802114E+02  0.28123057361E+01  0.26576709599E+02  0.51100000000E-03 0.  1.
         12    1    3    3    0    0  0.11401061786E+02  0.11148187873E+02  0.43021254293E+01  0.16515888893E+02  0.00000000000E+00 0. -1.
</event>
<event>
 7    1  0.2243370E-008  0.4614232E+02  0.7816164E-02  0.1320468E+00
        -11   -1    0    0    0    0  0.00000000000E+00  0.00000000000E+00  0.45593999997E+02  0.45594000000E+02  0.51100000000E-03 0.  1.
         11   -1    0    0    0    0 -0.00000000000E+00 -0.00000000000E+00 -0.45593999997E+02  0.45594000000E+02  0.51100000000E-03 0. -1.
    9900012    2    1    2    0    0  0.24107991016E+02 -0.15031969160E+02  0.34956517173E+02  0.46142318514E+02  0.10000006868E+02 0.  0.
         12    1    1    2    0    0 -0.24107991016E+02  0.15031969160E+02 -0.34956517173E+02  0.45045681486E+02  0.00000000000E+00 0. -1.
         11    1    3    3    0    0  0.52008795553E+01 -0.12475179555E+01  0.55319757716E+01  0.76946868290E+01  0.51100000000E-03 0. -1.
        -11    1    3    3    0    0  0.14576603707E+02 -0.14253153612E+02  0.24512903407E+02  0.31882788417E+02  0.51100000000E-03 0.  1.
        -12    1    3    3    0    0  0.43305077538E+01  0.46870240804E+00  0.49116379944E+01  0.65648432686E+01  0.00000000000E+00 0.  1.
</event>
<event>
 7    1  0.2243370E-008  0.4614232E+02  0.7816164E-02  0.1320468E+00
        -11   -1    0    0    0    0  0.00000000000E+00  0.00000000000E+00  0.45593999997E+02  0.45594000000E+02  0.51100000000E-03 0.  1.
         11   -1    0    0    0    0 -0.00000000000E+00 -0.00000000000E+00 -0.45593999997E+02  0.45594000000E+02  0.51100000000E-03 0. -1.
    9900012    2    1    2    0    0  0.18747012301E+02 -0.25243298584E+02  0.32255833217E+02  0.46142319074E+02  0.10000011970E+02 0.  0.
         12    1    1    2    0    0 -0.18747012301E+02  0.25243298584E+02 -0.32255833217E+02  0.45045680926E+02  0.00000000000E+00 0. -1.
         11    1    3    3    0    0  0.56007574809E+01 -0.61244926083E+01  0.11368947463E+02  0.14075896446E+02  0.51100000000E-03 0. -1.
        -11    1    3    3    0    0  0.41832506345E+01 -0.34130593661E+01  0.16068120344E+01  0.56329748164E+01  0.51100000000E-03 0.  1.
        -12    1    3    3    0    0  0.89630041853E+01 -0.15705746609E+02  0.19280073720E+02  0.26433447812E+02  0.00000000000E+00 0.  1.
</event>
<event>
 7    1  0.2243370E-008  0.4614232E+02  0.7816164E-02  0.1320468E+00
        -11   -1    0    0    0    0  0.00000000000E+00  0.00000000000E+00  0.45593999997E+02  0.45594000000E+02  0.51100000000E-03 0.  1.
         11   -1    0    0    0    0 -0.00000000000E+00 -0.00000000000E+00 -0.45593999997E+02  0.45594000000E+02  0.51100000000E-03 0. -1.
    9900012    2    1    2    0    0 -0.56918538269E+01  0.38766383327E+02  0.22223498049E+02  0.46142317168E+02  0.99999945901E+01 0.  0.
         12    1    1    2    0    0  0.56918538269E+01 -0.38766383327E+02 -0.22223498049E+02  0.45045682832E+02  0.00000000000E+00 0. -1.
         11    1    3    3    0    0 -0.67575264629E+00  0.86623778869E+01  0.47992695110E+01  0.99260475717E+01  0.51100000000E-03 0. -1.
        -11    1    3    3    0    0  0.38173165154E+00  0.96970983237E+01  0.97480564937E+01  0.13755145969E+02  0.51100000000E-03 0.  1.
         12    1    3    3    0    0 -0.53978328321E+01  0.20406907117E+02  0.76761720448E+01  0.22461123627E+02  0.00000000000E+00 0. -1.
</event>
<event>
 7    1  0.2243370E-008  0.4614232E+02  0.7816164E-02  0.1320468E+00
        -11   -1    0    0    0    0  0.00000000000E+00  0.00000000000E+00  0.45593999997E+02  0.45594000000E+02  0.51100000000E-03 0.  1.
         11   -1    0    0    0    0 -0.00000000000E+00 -0.00000000000E+00 -0.45593999997E+02  0.45594000000E+02  0.51100000000E-03 0. -1.
    9900012    2    1    2    0    0  0.42438240536E+02  0.24366166759E+01  0.14905441674E+02  0.46142317053E+02  0.99999935469E+01 0.  0.
         12    1    1    2    0    0 -0.42438240536E+02 -0.24366166759E+01 -0.14905441674E+02  0.45045682947E+02  0.00000000000E+00 0. -1.
         11    1    3    3    0    0  0.39152799146E+01  0.16034075873E+00 -0.81689950956E+00  0.40028053960E+01  0.51100000000E-03 0. -1.
        -11    1    3    3    0    0  0.14292401848E+02 -0.84966026504E+00  0.85537354140E+01  0.16678161258E+02  0.51100000000E-03 0.  1.
        -12    1    3    3    0    0  0.24230558773E+02  0.31259361822E+01  0.71686057700E+01  0.25461350399E+02  0.00000000000E+00 0.  1.
</event>
<event>
 7    1  0.2243370E-008  0.4614232E+02  0.7816164E-02  0.1320468E+00
        -11   -1    0    0    0    0  0.00000000000E+00  0.00000000000E+00  0.45593999997E+02  0.45594000000E+02  0.51100000000E-03 0.  1.
         11   -1    0    0    0    0 -0.00000000000E+00 -0.00000000000E+00 -0.45593999997E+02  0.45594000000E+02  0.51100000000E-03 0. -1.
    9900012    2    1    2    0    0 -0.43706554608E+02  0.92378674026E+01 -0.57889905987E+01  0.46142317387E+02  0.99999965919E+01 0.  0.
         12    1    1    2    0    0  0.43706554608E+02 -0.92378674026E+01  0.57889905987E+01  0.45045682613E+02  0.00000000000E+00 0. -1.
         11    1    3    3    0    0 -0.33730658246E+00  0.13875964707E+01  0.10210586792E+00  0.14316513421E+01  0.51100000000E-03 0. -1.
        -11    1    3    3    0    0 -0.23449005377E+02  0.38409941277E+01 -0.85842489883E+00  0.23777005333E+02  0.51100000000E-03 0.  1.
        -12    1    3    3    0    0 -0.19920242649E+02  0.40092768042E+01 -0.50326715678E+01  0.20933660712E+02  0.00000000000E+00 0.  1.
</event>
<event>
 7    1  0.2243370E-008  0.4614232E+02  0.7816164E-02  0.1320468E+00
        -11   -1    0    0    0    0  0.00000000000E+00  0.00000000000E+00  0.45593999997E+02  0.45594000000E+02  0.51100000000E-03 0.  1.
         11   -1    0    0    0    0 -0.00000000000E+00 -0.00000000000E+00 -0.45593999997E+02  0.45594000000E+02  0.51100000000E-03 0. -1.
    9900012    2    1    2    0    0  0.28779952820E+01 -0.29267548229E+02  0.34120979006E+02  0.46142318248E+02  0.10000004436E+02 0.  0.
         12    1    1    2    0    0 -0.28779952820E+01  0.29267548229E+02 -0.34120979006E+02  0.45045681752E+02  0.00000000000E+00 0. -1.
         11    1    3    3    0    0  0.48706880909E-01 -0.11102631571E+02  0.90841027755E+01  0.14345442610E+02  0.51100000000E-03 0. -1.
        -11    1    3    3    0    0  0.12331586407E+01 -0.17779416019E+02  0.21721784686E+02  0.28097406365E+02  0.51100000000E-03 0.  1.
         12    1    3    3    0    0  0.15961297604E+01 -0.38550063875E+00  0.33150915443E+01  0.36994692729E+01  0.00000000000E+00 0. -1.
</event>
<event>
 7    1  0.2243370E-008  0.4614232E+02  0.7816164E-02  0.1320468E+00
        -11   -1    0    0    0    0  0.00000000000E+00  0.00000000000E+00  0.45593999997E+02  0.45594000000E+02  0.51100000000E-03 0.  1.
         11   -1    0    0    0    0 -0.00000000000E+00 -0.00000000000E+00 -0.45593999997E+02  0.45594000000E+02  0.51100000000E-03 0. -1.
    9900012    2    1    2    0    0  0.19064050304E+01 -0.32550735283E+02  0.31079395214E+02  0.46142317027E+02  0.99999933095E+01 0.  0.
         12    1    1    2    0    0 -0.19064050304E+01  0.32550735283E+02 -0.31079395214E+02  0.45045682973E+02  0.00000000000E+00 0. -1.
         11    1    3    3    0    0  0.15168997271E+01 -0.14259534211E+01  0.60624984776E+00  0.21683789061E+01  0.51100000000E-03 0. -1.
        -11    1    3    3    0    0  0.15940776704E+01 -0.23118672285E+02  0.19196348994E+02  0.30091758121E+02  0.51100000000E-03 0.  1.
        -12    1    3    3    0    0 -0.12045723671E+01 -0.80061095765E+01  0.11276796372E+02  0.13882180000E+02  0.00000000000E+00 0.  1.
</event>
<event>
 7    1  0.2243370E-008  0.4614232E+02  0.7816164E-02  0.1320468E+00
        -11   -1    0    0    0    0  0.00000000000E+00  0.00000000000E+00  0.45593999997E+02  0.45594000000E+02  0.51100000000E-03 0. -1.
         11   -1    0    0    0    0 -0.00000000000E+00 -0.00000000000E+00 -0.45593999997E+02  0.45594000000E+02  0.51100000000E-03 0.  1.
    9900012    2    1    2    0    0 -0.98670824158E+01  0.41984191280E+02 -0.13003132040E+02  0.46142322341E+02  0.10000041767E+02 0.  0.
         12    1    1    2    0    0  0.98670824158E+01 -0.41984191280E+02  0.13003132040E+02  0.45045677659E+02  0.00000000000E+00 0. -1.
         11    1    3    3    0    0 -0.45484047279E+01  0.84986702526E+01 -0.20178724586E+01  0.98482075096E+01  0.51100000000E-03 0.  1.
        -11    1    3    3    0    0 -0.52910057129E+01  0.15976911903E+02 -0.75754610786E+01  0.18456545349E+02  0.51100000000E-03 0. -1.
         12    1    3    3    0    0 -0.27671975025E-01  0.17508609125E+02 -0.34097985028E+01  0.17837569483E+02  0.00000000000E+00 0. -1.
</event>
<event>
 7    1  0.2243370E-008  0.4614232E+02  0.7816164E-02  0.1320468E+00
        -11   -1    0    0    0    0  0.00000000000E+00  0.00000000000E+00  0.45593999997E+02  0.45594000000E+02  0.51100000000E-03 0.  1.
         11   -1    0    0    0    0 -0.00000000000E+00 -0.00000000000E+00 -0.45593999997E+02  0.45594000000E+02  0.51100000000E-03 0. -1.
    9900012    2    1    2    0    0  0.18314353147E+02  0.15462083686E+02  0.38139506363E+02  0.46142317535E+02  0.99999979421E+01 0.  0.
         12    1    1    2    0    0 -0.18314353147E+02 -0.15462083686E+02 -0.38139506363E+02  0.45045682465E+02  0.00000000000E+00 0. -1.
         11    1    3    3    0    0  0.16378545849E+02  0.97730221449E+01  0.28700816466E+02  0.34460203018E+02  0.51100000000E-03 0. -1.
        -11    1    3    3    0    0  0.65041026023E+00  0.73564203417E+00  0.42662219412E-01  0.98286470846E+00  0.51100000000E-03 0.  1.
        -12    1    3    3    0    0  0.12853970374E+01  0.49534195070E+01  0.93960276775E+01  0.10699249809E+02  0.00000000000E+00 0.  1.
</event>
<event>
 7    1  0.2243370E-008  0.4614232E+02  0.7816164E-02  0.1320468E+00
        -11   -1    0    0    0    0  0.00000000000E+00  0.00000000000E+00  0.45593999997E+02  0.45594000000E+02  0.51100000000E-03 0.  1.
         11   -1    0    0    0    0 -0.00000000000E+00 -0.00000000000E+00 -0.45593999997E+02  0.45594000000E+02  0.51100000000E-03 0. -1.
    9900012    2    1    2    0    0  0.44455733661E+01  0.22515594995E+02  0.38760783619E+02  0.46142317773E+02  0.10000000111E+02 0.  0.
         12    1    1    2    0    0 -0.44455733661E+01 -0.22515594995E+02 -0.38760783619E+02  0.45045682227E+02  0.00000000000E+00 0. -1.
         11    1    3    3    0    0  0.44109823923E-01  0.16903733949E+01 -0.22320810061E+00  0.17056171928E+01  0.51100000000E-03 0. -1.
        -11    1    3    3    0    0  0.14493075531E+01  0.63916415871E+01  0.13309218895E+02  0.14835392898E+02  0.51100000000E-03 0.  1.
         12    1    3    3    0    0  0.29521559891E+01  0.14433580013E+02  0.25674772824E+02  0.29601307683E+02  0.00000000000E+00 0. -1.
</event>
<event>
 7    1  0.2243370E-008  0.4614232E+02  0.7816164E-02  0.1320468E+00
        -11   -1    0    0    0    0  0.00000000000E+00  0.00000000000E+00  0.45593999997E+02  0.45594000000E+02  0.51100000000E-03 0.  1.
         11   -1    0    0    0    0 -0.00000000000E+00 -0.00000000000E+00 -0.45593999997E+02  0.45594000000E+02  0.51100000000E-03 0. -1.
    9900012    2    1    2    0    0 -0.14883016110E+02  0.32749054654E+02  0.27112888512E+02  0.46142317935E+02  0.10000001585E+02 0.  0.
         12    1    1    2    0    0  0.14883016110E+02 -0.32749054654E+02 -0.27112888512E+02  0.45045682065E+02  0.00000000000E+00 0. -1.
         11    1    3    3    0    0 -0.28043873811E+01  0.26958452821E+01  0.46358655905E+01  0.60517287119E+01  0.51100000000E-03 0.  1.
        -11    1    3    3    0    0 -0.95879747058E+01  0.28608287339E+02  0.19371271084E+02  0.35855397183E+02  0.51100000000E-03 0. -1.
         12    1    3    3    0    0 -0.24906540236E+01  0.14449220320E+01  0.31057518371E+01  0.42351920402E+01  0.00000000000E+00 0. -1.
</event>
<event>
 7    1  0.2243370E-008  0.4614232E+02  0.7816164E-02  0.1320468E+00
        -11   -1    0    0    0    0  0.00000000000E+00  0.00000000000E+00  0.45593999997E+02  0.45594000000E+02  0.51100000000E-03 0.  1.
         11   -1    0    0    0    0 -0.00000000000E+00 -0.00000000000E+00 -0.45593999997E+02  0.45594000000E+02  0.51100000000E-03 0. -1.
    9900012    2    1    2    0    0 -0.38910701655E+02  0.29218798751E+01  0.22506298939E+02  0.46142316775E+02  0.99999910045E+01 0.  0.
         12    1    1    2    0    0  0.38910701655E+02 -0.29218798751E+01 -0.22506298939E+02  0.45045683225E+02  0.00000000000E+00 0. -1.
         11    1    3    3    0    0 -0.27220450406E+01  0.43152788352E+00  0.98507516720E+00  0.29267932731E+01  0.51100000000E-03 0.  1.
        -11    1    3    3    0    0  0.41462203605E+00 -0.60645320332E+00  0.31067868184E+00  0.79763301403E+00  0.51100000000E-03 0. -1.
         12    1    3    3    0    0 -0.36603278651E+02  0.30968051949E+01  0.21210545090E+02  0.42417890487E+02  0.00000000000E+00 0. -1.
</event>
<event>
 7    1  0.2243370E-008  0.4614232E+02  0.7816164E-02  0.1320468E+00
        -11   -1    0    0    0    0  0.00000000000E+00  0.00000000000E+00  0.45593999997E+02  0.45594000000E+02  0.51100000000E-03 0.  1.
         11   -1    0    0    0    0 -0.00000000000E+00 -0.00000000000E+00 -0.45593999997E+02  0.45594000000E+02  0.51100000000E-03 0. -1.
    9900012    2    1    2    0    0 -0.21710395204E+02 -0.15604846990E+02  0.36252736780E+02  0.46142318370E+02  0.10000005552E+02 0.  0.
         12    1    1    2    0    0  0.21710395204E+02  0.15604846990E+02 -0.36252736780E+02  0.45045681630E+02  0.00000000000E+00 0. -1.
         11    1    3    3    0    0 -0.60082610955E+01 -0.80362700461E+01  0.97923921493E+01  0.14020405911E+02  0.51100000000E-03 0. -1.
        -11    1    3    3    0    0 -0.21606108452E+01 -0.14965400260E+01  0.80885754325E+01  0.85048764871E+01  0.51100000000E-03 0.  1.
        -12    1    3    3    0    0 -0.13541523264E+02 -0.60720369176E+01  0.18371769198E+02  0.23617035972E+02  0.00000000000E+00 0.  1.
</event>
<event>
 7    1  0.2243370E-008  0.4614232E+02  0.7816164E-02  0.1320468E+00
        -11   -1    0    0    0    0  0.00000000000E+00  0.00000000000E+00  0.45593999997E+02  0.45594000000E+02  0.51100000000E-03 0.  1.
         11   -1    0    0    0    0 -0.00000000000E+00 -0.00000000000E+00 -0.45593999997E+02  0.45594000000E+02  0.51100000000E-03 0. -1.
    9900012    2    1    2    0    0  0.69814782567E+01  0.30740222897E+02  0.32177804873E+02  0.46142317978E+02  0.10000001976E+02 0.  0.
         12    1    1    2    0    0 -0.69814782567E+01 -0.30740222897E+02 -0.32177804873E+02  0.45045682022E+02  0.00000000000E+00 0. -1.
         11    1    3    3    0    0  0.20991485820E+01  0.39884367711E+01  0.93974053270E+01  0.10422345215E+02  0.51100000000E-03 0. -1.
        -11    1    3    3    0    0  0.34067893498E+01  0.18872773610E+02  0.13477678754E+02  0.23440043136E+02  0.51100000000E-03 0.  1.
        -12    1    3    3    0    0  0.14755403249E+01  0.78790125164E+01  0.93027207922E+01  0.12279929626E+02  0.00000000000E+00 0.  1.
</event>
<event>
 7    1  0.2243370E-008  0.4614232E+02  0.7816164E-02  0.1320468E+00
        -11   -1    0    0    0    0  0.00000000000E+00  0.00000000000E+00  0.45593999997E+02  0.45594000000E+02  0.51100000000E-03 0.  1.
         11   -1    0    0    0    0 -0.00000000000E+00 -0.00000000000E+00 -0.45593999997E+02  0.45594000000E+02  0.51100000000E-03 0. -1.
    9900012    2    1    2    0    0  0.71837759714E+01  0.10265018179E+02  0.43268189425E+02  0.46142318170E+02  0.10000003725E+02 0.  0.
         12    1    1    2    0    0 -0.71837759714E+01 -0.10265018179E+02 -0.43268189425E+02  0.45045681830E+02  0.00000000000E+00 0. -1.
         11    1    3    3    0    0  0.27727081018E+01  0.30792676611E+01  0.54557461812E+01  0.68509098813E+01  0.51100000000E-03 0. -1.
        -11    1    3    3    0    0  0.57454631313E+01  0.35798405385E+01  0.21982341791E+02  0.23001064231E+02  0.51100000000E-03 0.  1.
         12    1    3    3    0    0 -0.13343952618E+01  0.36059099791E+01  0.15830101453E+02  0.16290344057E+02  0.00000000000E+00 0. -1.
</event>
<event>
 7    1  0.2243370E-008  0.4614232E+02  0.7816164E-02  0.1320468E+00
        -11   -1    0    0    0    0  0.00000000000E+00  0.00000000000E+00  0.45593999997E+02  0.45594000000E+02  0.51100000000E-03 0.  1.
         11   -1    0    0    0    0 -0.00000000000E+00 -0.00000000000E+00 -0.45593999997E+02  0.45594000000E+02  0.51100000000E-03 0. -1.
    9900012    2    1    2    0    0 -0.10756815421E+02  0.19969167038E+02  0.38918336930E+02  0.46142315861E+02  0.99999826723E+01 0.  0.
         12    1    1    2    0    0  0.10756815421E+02 -0.19969167038E+02 -0.38918336930E+02  0.45045684139E+02  0.00000000000E+00 0. -1.
         11    1    3    3    0    0 -0.12460251449E-01  0.18074576979E+01  0.75111776492E+01  0.77255969690E+01  0.51100000000E-03 0. -1.
        -11    1    3    3    0    0 -0.29566101176E+01  0.10931230996E+02  0.18586472894E+02  0.21764428074E+02  0.51100000000E-03 0.  1.
         12    1    3    3    0    0 -0.77877450516E+01  0.72304783437E+01  0.12820686387E+02  0.16652290818E+02  0.00000000000E+00 0. -1.
</event>
<event>
 7    1  0.2243370E-008  0.4614232E+02  0.7816164E-02  0.1320468E+00
        -11   -1    0    0    0    0  0.00000000000E+00  0.00000000000E+00  0.45593999997E+02  0.45594000000E+02  0.51100000000E-03 0.  1.
         11   -1    0    0    0    0 -0.00000000000E+00 -0.00000000000E+00 -0.45593999997E+02  0.45594000000E+02  0.51100000000E-03 0. -1.
    9900012    2    1    2    0    0 -0.15542617102E+02 -0.41810059891E+02 -0.62816838958E+01  0.46142316444E+02  0.99999879903E+01 0.  0.
         12    1    1    2    0    0  0.15542617102E+02  0.41810059891E+02  0.62816838958E+01  0.45045683556E+02  0.00000000000E+00 0. -1.
         11    1    3    3    0    0 -0.44152222762E+01 -0.23942124612E+02 -0.24021543170E+01  0.24464052491E+02  0.51100000000E-03 0. -1.
        -11    1    3    3    0    0 -0.15299419191E+01 -0.37916998192E+01  0.41158905371E+00  0.41093935812E+01  0.51100000000E-03 0.  1.
         12    1    3    3    0    0 -0.95974529066E+01 -0.14076235460E+02 -0.42911186326E+01  0.17568870372E+02  0.00000000000E+00 0. -1.
</event>
<event>
 7    1  0.2243370E-008  0.4614232E+02  0.7816164E-02  0.1320468E+00
        -11   -1    0    0    0    0  0.00000000000E+00  0.00000000000E+00  0.45593999997E+02  0.45594000000E+02  0.51100000000E-03 0.  1.
         11   -1    0    0    0    0 -0.00000000000E+00 -0.00000000000E+00 -0.45593999997E+02  0.45594000000E+02  0.51100000000E-03 0. -1.
    9900012    2    1    2    0    0  0.54663493367E+01  0.15173636521E+02  0.42059401564E+02  0.46142317851E+02  0.10000000823E+02 0.  0.
         12    1    1    2    0    0 -0.54663493367E+01 -0.15173636521E+02 -0.42059401564E+02  0.45045682149E+02  0.00000000000E+00 0. -1.
         11    1    3    3    0    0  0.23546664757E+01  0.56013676572E+01  0.14093197633E+02  0.15347247102E+02  0.51100000000E-03 0.  1.
        -11    1    3    3    0    0  0.79279883637E+00 -0.14317698550E+01  0.31536471514E+01  0.35530248422E+01  0.51100000000E-03 0. -1.
         12    1    3    3    0    0  0.23188840246E+01  0.11004038719E+02  0.24812556780E+02  0.27242045907E+02  0.00000000000E+00 0. -1.
</event>
<event>
 7    1  0.2243370E-008  0.4614232E+02  0.7816164E-02  0.1320468E+00
        -11   -1    0    0    0    0  0.00000000000E+00  0.00000000000E+00  0.45593999997E+02  0.45594000000E+02  0.51100000000E-03 0.  1.
         11   -1    0    0    0    0 -0.00000000000E+00 -0.00000000000E+00 -0.45593999997E+02  0.45594000000E+02  0.51100000000E-03 0. -1.
    9900012    2    1    2    0    0  0.86690198756E+01  0.17194620209E+02  0.40722311157E+02  0.46142317680E+02  0.99999992615E+01 0.  0.
         12    1    1    2    0    0 -0.86690198756E+01 -0.17194620209E+02 -0.40722311157E+02  0.45045682320E+02  0.00000000000E+00 0. -1.
         11    1    3    3    0    0  0.33768436313E+01  0.95168865974E+01  0.29775473801E+02  0.31441263393E+02  0.51100000000E-03 0.  1.
        -11    1    3    3    0    0  0.22758390302E+01  0.11083276360E+01  0.35337582247E+01  0.43468702410E+01  0.51100000000E-03 0. -1.
        -12    1    3    3    0    0  0.30163372140E+01  0.65694059752E+01  0.74130791306E+01  0.10354184046E+02  0.00000000000E+00 0.  1.
</event>
<event>
 7    1  0.2243370E-008  0.4614232E+02  0.7816164E-02  0.1320468E+00
        -11   -1    0    0    0    0  0.00000000000E+00  0.00000000000E+00  0.45593999997E+02  0.45594000000E+02  0.51100000000E-03 0.  1.
         11   -1    0    0    0    0 -0.00000000000E+00 -0.00000000000E+00 -0.45593999997E+02  0.45594000000E+02  0.51100000000E-03 0. -1.
    9900012    2    1    2    0    0  0.45122527725E+01 -0.43893013877E+02  0.90640199240E+01  0.46142317083E+02  0.99999938168E+01 0.  0.
         12    1    1    2    0    0 -0.45122527725E+01  0.43893013877E+02 -0.90640199240E+01  0.45045682917E+02  0.00000000000E+00 0. -1.
         11    1    3    3    0    0  0.15582183044E+00 -0.19245073542E+02  0.83270358748E+00  0.19263710224E+02  0.51100000000E-03 0. -1.
        -11    1    3    3    0    0  0.19419675992E+01 -0.15774418724E+02  0.26264984162E+01  0.16109066342E+02  0.51100000000E-03 0.  1.
         12    1    3    3    0    0  0.24144633428E+01 -0.88735216111E+01  0.56048179203E+01  0.10769540516E+02  0.00000000000E+00 0. -1.
</event>
<event>
 7    1  0.2243370E-008  0.4614232E+02  0.7816164E-02  0.1320468E+00
        -11   -1    0    0    0    0  0.00000000000E+00  0.00000000000E+00  0.45593999997E+02  0.45594000000E+02  0.51100000000E-03 0. -1.
         11   -1    0    0    0    0 -0.00000000000E+00 -0.00000000000E+00 -0.45593999997E+02  0.45594000000E+02  0.51100000000E-03 0.  1.
    9900012    2    1    2    0    0 -0.34844111917E+02 -0.26658587016E+02 -0.10213762681E+02  0.46142319352E+02  0.10000014503E+02 0.  0.
         12    1    1    2    0    0  0.34844111917E+02  0.26658587016E+02  0.10213762681E+02  0.45045680648E+02  0.00000000000E+00 0. -1.
         11    1    3    3    0    0 -0.83256852734E+01 -0.31188186140E+01 -0.82883730607E+00  0.89292237266E+01  0.51100000000E-03 0. -1.
        -11    1    3    3    0    0 -0.13173115513E+01 -0.19459518524E+00 -0.14252425911E+01  0.19505111417E+01  0.51100000000E-03 0.  1.
        -12    1    3    3    0    0 -0.25201115093E+02 -0.23345173217E+02 -0.79596827837E+01  0.35262584483E+02  0.00000000000E+00 0.  1.
</event>
<event>
 7    1  0.2243370E-008  0.4614232E+02  0.7816164E-02  0.1320468E+00
        -11   -1    0    0    0    0  0.00000000000E+00  0.00000000000E+00  0.45593999997E+02  0.45594000000E+02  0.51100000000E-03 0. -1.
         11   -1    0    0    0    0 -0.00000000000E+00 -0.00000000000E+00 -0.45593999997E+02  0.45594000000E+02  0.51100000000E-03 0.  1.
    9900012    2    1    2    0    0  0.40062068711E+01  0.41310397698E+02 -0.17507560579E+02  0.46142319532E+02  0.10000016145E+02 0.  0.
         12    1    1    2    0    0 -0.40062068711E+01 -0.41310397698E+02  0.17507560579E+02  0.45045680468E+02  0.00000000000E+00 0. -1.
         11    1    3    3    0    0  0.28348544101E+01  0.13045215843E+02 -0.53565556663E+01  0.14384253362E+02  0.51100000000E-03 0. -1.
        -11    1    3    3    0    0  0.43249838934E+01  0.13207537539E+02 -0.47581541965E+01  0.14689607385E+02  0.51100000000E-03 0.  1.
         12    1    3    3    0    0 -0.31536314325E+01  0.15057644316E+02 -0.73928507162E+01  0.17068458784E+02  0.00000000000E+00 0. -1.
</event>
<event>
 7    1  0.2243370E-008  0.4614231E+02  0.7816164E-02  0.1320468E+00
        -11   -1    0    0    0    0  0.00000000000E+00  0.00000000000E+00  0.45593999997E+02  0.45594000000E+02  0.51100000000E-03 0. -1.
         11   -1    0    0    0    0 -0.00000000000E+00 -0.00000000000E+00 -0.45593999997E+02  0.45594000000E+02  0.51100000000E-03 0.  1.
    9900012    2    1    2    0    0  0.25757306157E+02 -0.21220090391E+02 -0.30255291792E+02  0.46142314990E+02  0.99999747271E+01 0.  0.
         12    1    1    2    0    0 -0.25757306157E+02  0.21220090391E+02  0.30255291792E+02  0.45045685010E+02  0.00000000000E+00 0. -1.
         11    1    3    3    0    0  0.12476630383E+02 -0.84461068497E+01 -0.15056217289E+02  0.21300063520E+02  0.51100000000E-03 0. -1.
        -11    1    3    3    0    0  0.83407759927E+01 -0.33136477256E+01 -0.71504982680E+01  0.11475122272E+02  0.51100000000E-03 0.  1.
        -12    1    3    3    0    0  0.49398997809E+01 -0.94603358155E+01 -0.80485762346E+01  0.13367129198E+02  0.00000000000E+00 0.  1.
</event>
<event>
 7    1  0.2243370E-008  0.4614232E+02  0.7816164E-02  0.1320468E+00
        -11   -1    0    0    0    0  0.00000000000E+00  0.00000000000E+00  0.45593999997E+02  0.45594000000E+02  0.51100000000E-03 0. -1.
         11   -1    0    0    0    0 -0.00000000000E+00 -0.00000000000E+00 -0.45593999997E+02  0.45594000000E+02  0.51100000000E-03 0.  1.
    9900012    2    1    2    0    0 -0.18577327675E+02 -0.38594161958E+02 -0.13945862073E+02  0.46142317524E+02  0.99999978365E+01 0.  0.
         12    1    1    2    0    0  0.18577327675E+02  0.38594161958E+02  0.13945862073E+02  0.45045682476E+02  0.00000000000E+00 0. -1.
         11    1    3    3    0    0 -0.44814682639E+01 -0.81248616986E+01 -0.41310199259E+01  0.10156882460E+02  0.51100000000E-03 0. -1.
        -11    1    3    3    0    0 -0.12979058025E+02 -0.23601378324E+02 -0.46812995374E+01  0.27338536384E+02  0.51100000000E-03 0.  1.
         12    1    3    3    0    0 -0.11168013860E+01 -0.68679219352E+01 -0.51335426097E+01  0.86468986793E+01  0.00000000000E+00 0. -1.
</event>
<event>
 7    1  0.2243370E-008  0.4614232E+02  0.7816164E-02  0.1320468E+00
        -11   -1    0    0    0    0  0.00000000000E+00  0.00000000000E+00  0.45593999997E+02  0.45594000000E+02  0.51100000000E-03 0.  1.
         11   -1    0    0    0    0 -0.00000000000E+00 -0.00000000000E+00 -0.45593999997E+02  0.45594000000E+02  0.51100000000E-03 0. -1.
    9900012    2    1    2    0    0 -0.11301996279E+02 -0.34668480029E+02  0.26447586635E+02  0.46142318007E+02  0.10000002243E+02 0.  0.
         12    1    1    2    0    0  0.11301996279E+02  0.34668480029E+02 -0.26447586635E+02  0.45045681993E+02  0.00000000000E+00 0. -1.
         11    1    3    3    0    0 -0.44776946595E+01 -0.18233376241E+02  0.85184762934E+01  0.20617230591E+02  0.51100000000E-03 0. -1.
        -11    1    3    3    0    0 -0.59790903513E+01 -0.99935246674E+01  0.10851658410E+02  0.15917868802E+02  0.51100000000E-03 0.  1.
        -12    1    3    3    0    0 -0.84521126829E+00 -0.64415791202E+01  0.70774519315E+01  0.96072186137E+01  0.00000000000E+00 0.  1.
</event>
<event>
 7    1  0.2243370E-008  0.4614232E+02  0.7816164E-02  0.1320468E+00
        -11   -1    0    0    0    0  0.00000000000E+00  0.00000000000E+00  0.45593999997E+02  0.45594000000E+02  0.51100000000E-03 0.  1.
         11   -1    0    0    0    0 -0.00000000000E+00 -0.00000000000E+00 -0.45593999997E+02  0.45594000000E+02  0.51100000000E-03 0. -1.
    9900012    2    1    2    0    0  0.19756720306E+02 -0.30098934695E+02  0.27071012246E+02  0.46142316844E+02  0.99999916352E+01 0.  0.
         12    1    1    2    0    0 -0.19756720306E+02  0.30098934695E+02 -0.27071012246E+02  0.45045683156E+02  0.00000000000E+00 0. -1.
         11    1    3    3    0    0  0.12725664656E+02 -0.19026707965E+02  0.13317205549E+02  0.26482184970E+02  0.51100000000E-03 0. -1.
        -11    1    3    3    0    0  0.42865886563E+01 -0.45635282336E+01  0.33952308818E+01  0.71223749725E+01  0.51100000000E-03 0.  1.
         12    1    3    3    0    0  0.27444669941E+01 -0.65086984961E+01  0.10358575815E+02  0.12537756901E+02  0.00000000000E+00 0. -1.
</event>
<event>
 7    1  0.2243370E-008  0.4614232E+02  0.7816164E-02  0.1320468E+00
        -11   -1    0    0    0    0  0.00000000000E+00  0.00000000000E+00  0.45593999997E+02  0.45594000000E+02  0.51100000000E-03 0. -1.
         11   -1    0    0    0    0 -0.00000000000E+00 -0.00000000000E+00 -0.45593999997E+02  0.45594000000E+02  0.51100000000E-03 0.  1.
    9900012    2    1    2    0    0  0.23842514651E+02  0.34541020173E+02 -0.16357447801E+02  0.46142315656E+02  0.99999808025E+01 0.  0.
         12    1    1    2    0    0 -0.23842514651E+02 -0.34541020173E+02  0.16357447801E+02  0.45045684344E+02  0.00000000000E+00 0. -1.
         11    1    3    3    0    0  0.50529535350E+00  0.70569226319E-01 -0.15678527248E+01  0.16487770734E+01  0.51100000000E-03 0. -1.
        -11    1    3    3    0    0  0.13355882324E+02  0.19170651548E+02 -0.55158166598E+01  0.24006617986E+02  0.51100000000E-03 0.  1.
        -12    1    3    3    0    0  0.99813369730E+01  0.15299799398E+02 -0.92737784167E+01  0.20486920596E+02  0.00000000000E+00 0.  1.
</event>
<event>
 7    1  0.2243370E-008  0.4614232E+02  0.7816164E-02  0.1320468E+00
        -11   -1    0    0    0    0  0.00000000000E+00  0.00000000000E+00  0.45593999997E+02  0.45594000000E+02  0.51100000000E-03 0.  1.
         11   -1    0    0    0    0 -0.00000000000E+00 -0.00000000000E+00 -0.45593999997E+02  0.45594000000E+02  0.51100000000E-03 0. -1.
    9900012    2    1    2    0    0  0.40820195554E+02  0.92153229819E+01  0.16670419915E+02  0.46142318266E+02  0.10000004608E+02 0.  0.
         12    1    1    2    0    0 -0.40820195554E+02 -0.92153229819E+01 -0.16670419915E+02  0.45045681734E+02  0.00000000000E+00 0. -1.
         11    1    3    3    0    0  0.13106322467E+02  0.31929030756E+01  0.33986323928E+01  0.13911183309E+02  0.51100000000E-03 0. -1.
        -11    1    3    3    0    0  0.10655305279E+02  0.61341710692E+01  0.50026783197E+01  0.13273672285E+02  0.51100000000E-03 0.  1.
         12    1    3    3    0    0  0.17058567807E+02 -0.11175116298E+00  0.82691092027E+01  0.18957462672E+02  0.00000000000E+00 0. -1.
</event>
<event>
 7    1  0.2243370E-008  0.4614232E+02  0.7816164E-02  0.1320468E+00
        -11   -1    0    0    0    0  0.00000000000E+00  0.00000000000E+00  0.45593999997E+02  0.45594000000E+02  0.51100000000E-03 0.  1.
         11   -1    0    0    0    0 -0.00000000000E+00 -0.00000000000E+00 -0.45593999997E+02  0.45594000000E+02  0.51100000000E-03 0. -1.
    9900012    2    1    2    0    0 -0.92143988462E+01 -0.23848174500E+02  0.37087367058E+02  0.46142319093E+02  0.10000012147E+02 0.  0.
         12    1    1    2    0    0  0.92143988462E+01  0.23848174500E+02 -0.37087367058E+02  0.45045680907E+02  0.00000000000E+00 0. -1.
         11    1    3    3    0    0  0.65688579273E+00 -0.74043596061E+01  0.65996938088E+01  0.99404224635E+01  0.51100000000E-03 0. -1.
        -11    1    3    3    0    0 -0.72575427665E+01 -0.12875047718E+02  0.20440661954E+02  0.25224183676E+02  0.51100000000E-03 0.  1.
         12    1    3    3    0    0 -0.26137418724E+01 -0.35687671758E+01  0.10047011295E+02  0.10977712954E+02  0.00000000000E+00 0. -1.
</event>
<event>
 7    1  0.2243370E-008  0.4614232E+02  0.7816164E-02  0.1320468E+00
        -11   -1    0    0    0    0  0.00000000000E+00  0.00000000000E+00  0.45593999997E+02  0.45594000000E+02  0.51100000000E-03 0.  1.
         11   -1    0    0    0    0 -0.00000000000E+00 -0.00000000000E+00 -0.45593999997E+02  0.45594000000E+02  0.51100000000E-03 0. -1.
    9900012    2    1    2    0    0 -0.53904868922E+01  0.10399832370E+01  0.44709893125E+02  0.46142318106E+02  0.10000003141E+02 0.  0.
         12    1    1    2    0    0  0.53904868922E+01 -0.10399832370E+01 -0.44709893125E+02  0.45045681894E+02  0.00000000000E+00 0. -1.
         11    1    3    3    0    0  0.82998918120E+00 -0.53519395935E+00  0.61225512892E+01  0.62016892187E+01  0.51100000000E-03 0. -1.
        -11    1    3    3    0    0 -0.10666515751E+01 -0.29997047600E+01  0.16456661482E+02  0.16761792315E+02  0.51100000000E-03 0.  1.
        -12    1    3    3    0    0 -0.51538244982E+01  0.45748819563E+01  0.22130680354E+02  0.23178836571E+02  0.00000000000E+00 0.  1.
</event>
<event>
 7    1  0.2243370E-008  0.4614232E+02  0.7816164E-02  0.1320468E+00
        -11   -1    0    0    0    0  0.00000000000E+00  0.00000000000E+00  0.45593999997E+02  0.45594000000E+02  0.51100000000E-03 0.  1.
         11   -1    0    0    0    0 -0.00000000000E+00 -0.00000000000E+00 -0.45593999997E+02  0.45594000000E+02  0.51100000000E-03 0. -1.
    9900012    2    1    2    0    0  0.35508815404E+02 -0.24144221271E+02  0.13612274575E+02  0.46142318617E+02  0.10000007805E+02 0.  0.
         12    1    1    2    0    0 -0.35508815404E+02  0.24144221271E+02 -0.13612274575E+02  0.45045681383E+02  0.00000000000E+00 0. -1.
         11    1    3    3    0    0  0.24857840640E+01  0.86281845741E-01 -0.27781661787E+00  0.25027483502E+01  0.51100000000E-03 0. -1.
        -11    1    3    3    0    0  0.99262221444E+01 -0.10260714506E+02  0.33667953506E+01  0.14667905762E+02  0.51100000000E-03 0.  1.
        -12    1    3    3    0    0  0.23096809196E+02 -0.13969788610E+02  0.10523295842E+02  0.28971664505E+02  0.00000000000E+00 0.  1.
</event>
<event>
 7    1  0.2243370E-008  0.4614232E+02  0.7816164E-02  0.1320468E+00
        -11   -1    0    0    0    0  0.00000000000E+00  0.00000000000E+00  0.45593999997E+02  0.45594000000E+02  0.51100000000E-03 0.  1.
         11   -1    0    0    0    0 -0.00000000000E+00 -0.00000000000E+00 -0.45593999997E+02  0.45594000000E+02  0.51100000000E-03 0. -1.
    9900012    2    1    2    0    0 -0.15410762169E+01 -0.28717958457E+02  0.34670122802E+02  0.46142317977E+02  0.10000001966E+02 0.  0.
         12    1    1    2    0    0  0.15410762169E+01  0.28717958457E+02 -0.34670122802E+02  0.45045682023E+02  0.00000000000E+00 0. -1.
         11    1    3    3    0    0 -0.92867440568E-01 -0.15829309015E+01  0.33561501142E+01  0.37118780221E+01  0.51100000000E-03 0. -1.
        -11    1    3    3    0    0  0.19518909870E+01 -0.98095758089E+01  0.63271929857E+01  0.11835160637E+02  0.51100000000E-03 0.  1.
        -12    1    3    3    0    0 -0.34000997633E+01 -0.17325451747E+02  0.24986779702E+02  0.30595279317E+02  0.00000000000E+00 0.  1.
</event>
<event>
 7    1  0.2243370E-008  0.4614232E+02  0.7816164E-02  0.1320468E+00
        -11   -1    0    0    0    0  0.00000000000E+00  0.00000000000E+00  0.45593999997E+02  0.45594000000E+02  0.51100000000E-03 0.  1.
         11   -1    0    0    0    0 -0.00000000000E+00 -0.00000000000E+00 -0.45593999997E+02  0.45594000000E+02  0.51100000000E-03 0. -1.
    9900012    2    1    2    0    0  0.54599137052E+00  0.15681083203E+02  0.42224628345E+02  0.46142315236E+02  0.99999769708E+01 0.  0.
         12    1    1    2    0    0 -0.54599137052E+00 -0.15681083203E+02 -0.42224628345E+02  0.45045684764E+02  0.00000000000E+00 0. -1.
         11    1    3    3    0    0 -0.89464162164E-02  0.19839905607E+01  0.78893845781E+01  0.81350284489E+01  0.51100000000E-03 0. -1.
        -11    1    3    3    0    0 -0.27363302186E+01  0.11291586963E+02  0.29359510844E+02  0.31574805090E+02  0.51100000000E-03 0.  1.
         12    1    3    3    0    0  0.32912680053E+01  0.24055056799E+01  0.49757329228E+01  0.64324816967E+01  0.00000000000E+00 0. -1.
</event>
<event>
 7    1  0.2243370E-008  0.4614231E+02  0.7816164E-02  0.1320468E+00
        -11   -1    0    0    0    0  0.00000000000E+00  0.00000000000E+00  0.45593999997E+02  0.45594000000E+02  0.51100000000E-03 0.  1.
         11   -1    0    0    0    0 -0.00000000000E+00 -0.00000000000E+00 -0.45593999997E+02  0.45594000000E+02  0.51100000000E-03 0. -1.
    9900012    2    1    2    0    0  0.29976234266E+02 -0.10466907981E+02  0.31952832349E+02  0.46142308990E+02  0.99999200153E+01 0.  0.
         12    1    1    2    0    0 -0.29976234266E+02  0.10466907981E+02 -0.31952832349E+02  0.45045691010E+02  0.00000000000E+00 0. -1.
         11    1    3    3    0    0  0.13861757636E+02 -0.75046099805E+01  0.14527043280E+02  0.21436009014E+02  0.51100000000E-03 0.  1.
        -11    1    3    3    0    0  0.15404583065E+02 -0.39073518601E+01  0.14354503774E+02  0.21415423340E+02  0.51100000000E-03 0. -1.
         12    1    3    3    0    0  0.70989356513E+00  0.94505385946E+00  0.30712852948E+01  0.32908766359E+01  0.00000000000E+00 0. -1.
</event>
<event>
 7    1  0.2243370E-008  0.4614232E+02  0.7816164E-02  0.1320468E+00
        -11   -1    0    0    0    0  0.00000000000E+00  0.00000000000E+00  0.45593999997E+02  0.45594000000E+02  0.51100000000E-03 0.  1.
         11   -1    0    0    0    0 -0.00000000000E+00 -0.00000000000E+00 -0.45593999997E+02  0.45594000000E+02  0.51100000000E-03 0. -1.
    9900012    2    1    2    0    0  0.99963514615E+01  0.42773941239E+02  0.99787945238E+01  0.46142318388E+02  0.10000005721E+02 0.  0.
         12    1    1    2    0    0 -0.99963514615E+01 -0.42773941239E+02 -0.99787945238E+01  0.45045681612E+02  0.00000000000E+00 0. -1.
         11    1    3    3    0    0  0.30924967946E+01  0.18430006178E+02  0.90437164821E+00  0.18709531060E+02  0.51100000000E-03 0. -1.
        -11    1    3    3    0    0  0.26909336625E+01  0.27825772763E+01  0.77133090816E+00  0.39470003680E+01  0.51100000000E-03 0.  1.
         12    1    3    3    0    0  0.42129210045E+01  0.21561357785E+02  0.83030919674E+01  0.23485786961E+02  0.00000000000E+00 0. -1.
</event>
<event>
 7    1  0.2243370E-008  0.4614232E+02  0.7816164E-02  0.1320468E+00
        -11   -1    0    0    0    0  0.00000000000E+00  0.00000000000E+00  0.45593999997E+02  0.45594000000E+02  0.51100000000E-03 0. -1.
         11   -1    0    0    0    0 -0.00000000000E+00 -0.00000000000E+00 -0.45593999997E+02  0.45594000000E+02  0.51100000000E-03 0.  1.
    9900012    2    1    2    0    0  0.19736379648E+02 -0.15694440098E+02 -0.37326574311E+02  0.46142320058E+02  0.10000020948E+02 0.  0.
         12    1    1    2    0    0 -0.19736379648E+02  0.15694440098E+02  0.37326574311E+02  0.45045679942E+02  0.00000000000E+00 0. -1.
         11    1    3    3    0    0  0.46574035682E-01  0.39851482618E+00 -0.27327293035E+00  0.48544985639E+00  0.51100000000E-03 0. -1.
        -11    1    3    3    0    0  0.27082517439E+00  0.20688348631E+00 -0.39280077393E+01  0.39427645268E+01  0.51100000000E-03 0.  1.
        -12    1    3    3    0    0  0.19418980438E+02 -0.16299838411E+02 -0.33125293641E+02  0.41714105675E+02  0.00000000000E+00 0.  1.
</event>
<event>
 7    1  0.2243370E-008  0.4614232E+02  0.7816164E-02  0.1320468E+00
        -11   -1    0    0    0    0  0.00000000000E+00  0.00000000000E+00  0.45593999997E+02  0.45594000000E+02  0.51100000000E-03 0.  1.
         11   -1    0    0    0    0 -0.00000000000E+00 -0.00000000000E+00 -0.45593999997E+02  0.45594000000E+02  0.51100000000E-03 0. -1.
    9900012    2    1    2    0    0 -0.42420789726E+01 -0.37469850528E+01  0.44688683827E+02  0.46142316598E+02  0.99999893930E+01 0.  0.
         12    1    1    2    0    0  0.42420789726E+01  0.37469850528E+01 -0.44688683827E+02  0.45045683402E+02  0.00000000000E+00 0. -1.
         11    1    3    3    0    0 -0.29224939109E+01 -0.23624737686E+00  0.13098344892E+02  0.13422496886E+02  0.51100000000E-03 0. -1.
        -11    1    3    3    0    0 -0.11408934844E+01  0.15791850701E+01  0.19546917484E+02  0.19643763560E+02  0.51100000000E-03 0.  1.
         12    1    3    3    0    0 -0.17869157735E+00 -0.50899227460E+01  0.12043421451E+02  0.13076056152E+02  0.00000000000E+00 0. -1.
</event>
<event>
 7    1  0.2243370E-008  0.4614232E+02  0.7816164E-02  0.1320468E+00
        -11   -1    0    0    0    0  0.00000000000E+00  0.00000000000E+00  0.45593999997E+02  0.45594000000E+02  0.51100000000E-03 0. -1.
         11   -1    0    0    0    0 -0.00000000000E+00 -0.00000000000E+00 -0.45593999997E+02  0.45594000000E+02  0.51100000000E-03 0.  1.
    9900012    2    1    2    0    0  0.14373061125E+02  0.31614227593E+02 -0.28689180879E+02  0.46142319054E+02  0.10000011789E+02 0.  0.
         12    1    1    2    0    0 -0.14373061125E+02 -0.31614227593E+02  0.28689180879E+02  0.45045680946E+02  0.00000000000E+00 0. -1.
         11    1    3    3    0    0 -0.26537828266E+00  0.24480042818E+01 -0.35407868604E+01  0.43128091134E+01  0.51100000000E-03 0.  1.
        -11    1    3    3    0    0 -0.57198719983E+00  0.63217633663E+00 -0.16524727344E+01  0.18594307398E+01  0.51100000000E-03 0. -1.
        -12    1    3    3    0    0  0.15210426607E+02  0.28534046974E+02 -0.23495921284E+02  0.39970079201E+02  0.00000000000E+00 0.  1.
</event>
<event>
 7    1  0.2243370E-008  0.4614232E+02  0.7816164E-02  0.1320468E+00
        -11   -1    0    0    0    0  0.00000000000E+00  0.00000000000E+00  0.45593999997E+02  0.45594000000E+02  0.51100000000E-03 0.  1.
         11   -1    0    0    0    0 -0.00000000000E+00 -0.00000000000E+00 -0.45593999997E+02  0.45594000000E+02  0.51100000000E-03 0. -1.
    9900012    2    1    2    0    0 -0.13000352043E+01 -0.15395659239E+02  0.42313082231E+02  0.46142319377E+02  0.10000014732E+02 0.  0.
         12    1    1    2    0    0  0.13000352043E+01  0.15395659239E+02 -0.42313082231E+02  0.45045680623E+02  0.00000000000E+00 0. -1.
         11    1    3    3    0    0 -0.47758351324E+00 -0.60688206035E+01  0.98250019601E+01  0.11558085192E+02  0.51100000000E-03 0.  1.
        -11    1    3    3    0    0  0.27802483380E+01 -0.40519138812E+01  0.91299581252E+01  0.10368409837E+02  0.51100000000E-03 0. -1.
         12    1    3    3    0    0 -0.36027000291E+01 -0.52749247547E+01  0.23358122146E+02  0.24215824348E+02  0.00000000000E+00 0. -1.
</event>
<event>
 7    1  0.2243370E-008  0.4614232E+02  0.7816164E-02  0.1320468E+00
        -11   -1    0    0    0    0  0.00000000000E+00  0.00000000000E+00  0.45593999997E+02  0.45594000000E+02  0.51100000000E-03 0.  1.
         11   -1    0    0    0    0 -0.00000000000E+00 -0.00000000000E+00 -0.45593999997E+02  0.45594000000E+02  0.51100000000E-03 0. -1.
    9900012    2    1    2    0    0 -0.15134060877E+02  0.33010510883E+02  0.26652953420E+02  0.46142317040E+02  0.99999934214E+01 0.  0.
         12    1    1    2    0    0  0.15134060877E+02 -0.33010510883E+02 -0.26652953420E+02  0.45045682960E+02  0.00000000000E+00 0. -1.
         11    1    3    3    0    0 -0.38434922447E+01  0.50281299518E+01  0.14417973176E+01  0.64910171170E+01  0.51100000000E-03 0. -1.
        -11    1    3    3    0    0 -0.75020137626E+01  0.23491349149E+02  0.19278410769E+02  0.31301450723E+02  0.51100000000E-03 0.  1.
        -12    1    3    3    0    0 -0.37885548694E+01  0.44910317820E+01  0.59327453334E+01  0.83498491996E+01  0.00000000000E+00 0.  1.
</event>
<event>
 7    1  0.2243370E-008  0.4614232E+02  0.7816164E-02  0.1320468E+00
        -11   -1    0    0    0    0  0.00000000000E+00  0.00000000000E+00  0.45593999997E+02  0.45594000000E+02  0.51100000000E-03 0.  1.
         11   -1    0    0    0    0 -0.00000000000E+00 -0.00000000000E+00 -0.45593999997E+02  0.45594000000E+02  0.51100000000E-03 0. -1.
    9900012    2    1    2    0    0  0.33396869905E+02  0.25482765099E+01  0.30120903191E+02  0.46142318280E+02  0.10000004729E+02 0.  0.
         12    1    1    2    0    0 -0.33396869905E+02 -0.25482765099E+01 -0.30120903191E+02  0.45045681720E+02  0.00000000000E+00 0. -1.
         11    1    3    3    0    0 -0.74381819224E-01 -0.10684167017E+00 -0.99420575070E-01  0.16380631668E+00  0.51100000000E-03 0. -1.
        -11    1    3    3    0    0  0.17655286224E+02 -0.16460419421E+01  0.19687393931E+02  0.26495510295E+02  0.51100000000E-03 0.  1.
         12    1    3    3    0    0  0.15815965500E+02  0.43011601222E+01  0.10532929835E+02  0.19483001668E+02  0.00000000000E+00 0. -1.
</event>
<event>
 7    1  0.2243370E-008  0.4614232E+02  0.7816164E-02  0.1320468E+00
        -11   -1    0    0    0    0  0.00000000000E+00  0.00000000000E+00  0.45593999997E+02  0.45594000000E+02  0.51100000000E-03 0.  1.
         11   -1    0    0    0    0 -0.00000000000E+00 -0.00000000000E+00 -0.45593999997E+02  0.45594000000E+02  0.51100000000E-03 0. -1.
    9900012    2    1    2    0    0 -0.24531406249E+02  0.29748533905E+02  0.23288372139E+02  0.46142318310E+02  0.10000005001E+02 0.  0.
         12    1    1    2    0    0  0.24531406249E+02 -0.29748533905E+02 -0.23288372139E+02  0.45045681690E+02  0.00000000000E+00 0. -1.
         11    1    3    3    0    0 -0.29344755465E+01  0.23360346965E+01  0.49840737801E+01  0.62377236668E+01  0.51100000000E-03 0. -1.
        -11    1    3    3    0    0 -0.84752673600E+01  0.15391447793E+02  0.76531982081E+01  0.19165027134E+02  0.51100000000E-03 0.  1.
        -12    1    3    3    0    0 -0.13121663343E+02  0.12021051416E+02  0.10651100151E+02  0.20739567509E+02  0.00000000000E+00 0.  1.
</event>
<event>
 7    1  0.2243370E-008  0.4614232E+02  0.7816164E-02  0.1320468E+00
        -11   -1    0    0    0    0  0.00000000000E+00  0.00000000000E+00  0.45593999997E+02  0.45594000000E+02  0.51100000000E-03 0.  1.
         11   -1    0    0    0    0 -0.00000000000E+00 -0.00000000000E+00 -0.45593999997E+02  0.45594000000E+02  0.51100000000E-03 0. -1.
    9900012    2    1    2    0    0  0.13861180904E+02 -0.26693603345E+02  0.33532561180E+02  0.46142318132E+02  0.10000003386E+02 0.  0.
         12    1    1    2    0    0 -0.13861180904E+02  0.26693603345E+02 -0.33532561180E+02  0.45045681868E+02  0.00000000000E+00 0. -1.
         11    1    3    3    0    0  0.84600002174E+01 -0.19118792955E+02  0.21158520884E+02  0.29745299696E+02  0.51100000000E-03 0. -1.
        -11    1    3    3    0    0  0.31027701726E+01 -0.71920261708E+01  0.68646913462E+01  0.10415200945E+02  0.51100000000E-03 0.  1.
         12    1    3    3    0    0  0.22984105145E+01 -0.38278421957E+00  0.55093489498E+01  0.59818174916E+01  0.00000000000E+00 0. -1.
</event>
<event>
 7    1  0.2243370E-008  0.4614231E+02  0.7816164E-02  0.1320468E+00
        -11   -1    0    0    0    0  0.00000000000E+00  0.00000000000E+00  0.45593999997E+02  0.45594000000E+02  0.51100000000E-03 0. -1.
         11   -1    0    0    0    0 -0.00000000000E+00 -0.00000000000E+00 -0.45593999997E+02  0.45594000000E+02  0.51100000000E-03 0.  1.
    9900012    2    1    2    0    0 -0.22792310659E+02  0.38139008364E+02  0.74189218470E+01  0.46142314463E+02  0.99999699240E+01 0.  0.
         12    1    1    2    0    0  0.22792310659E+02 -0.38139008364E+02 -0.74189218470E+01  0.45045685537E+02  0.00000000000E+00 0. -1.
         11    1    3    3    0    0 -0.32239972281E+01  0.64555535051E+01 -0.14939409433E+01  0.73688661941E+01  0.51100000000E-03 0. -1.
        -11    1    3    3    0    0 -0.58610170856E+01  0.49974393701E+01  0.11787818960E+01  0.77920118426E+01  0.51100000000E-03 0.  1.
        -12    1    3    3    0    0 -0.13707296345E+02  0.26686015489E+02  0.77340808943E+01  0.30981436426E+02  0.00000000000E+00 0.  1.
</event>
<event>
 7    1  0.2243370E-008  0.4614231E+02  0.7816164E-02  0.1320468E+00
        -11   -1    0    0    0    0  0.00000000000E+00  0.00000000000E+00  0.45593999997E+02  0.45594000000E+02  0.51100000000E-03 0.  1.
         11   -1    0    0    0    0 -0.00000000000E+00 -0.00000000000E+00 -0.45593999997E+02  0.45594000000E+02  0.51100000000E-03 0. -1.
    9900012    2    1    2    0    0 -0.57600948241E+01 -0.35336397905E+02  0.27336321981E+02  0.46142309765E+02  0.99999270887E+01 0.  0.
         12    1    1    2    0    0  0.57600948241E+01  0.35336397905E+02 -0.27336321981E+02  0.45045690235E+02  0.00000000000E+00 0. -1.
         11    1    3    3    0    0  0.27906557056E+00 -0.44213735070E+00  0.24850576105E+01  0.25394634508E+01  0.51100000000E-03 0. -1.
        -11    1    3    3    0    0 -0.52200173106E+01 -0.14623895043E+02  0.10190107429E+02  0.18572699766E+02  0.51100000000E-03 0.  1.
         12    1    3    3    0    0 -0.81914308413E+00 -0.20270365511E+02  0.14661156942E+02  0.25030146548E+02  0.00000000000E+00 0. -1.
</event>
<event>
 7    1  0.2243370E-008  0.4614232E+02  0.7816164E-02  0.1320468E+00
        -11   -1    0    0    0    0  0.00000000000E+00  0.00000000000E+00  0.45593999997E+02  0.45594000000E+02  0.51100000000E-03 0. -1.
         11   -1    0    0    0    0 -0.00000000000E+00 -0.00000000000E+00 -0.45593999997E+02  0.45594000000E+02  0.51100000000E-03 0.  1.
    9900012    2    1    2    0    0 -0.32352040387E+02  0.30202827304E+02 -0.83814199541E+01  0.46142317690E+02  0.99999993527E+01 0.  0.
         12    1    1    2    0    0  0.32352040387E+02 -0.30202827304E+02  0.83814199541E+01  0.45045682310E+02  0.00000000000E+00 0. -1.
         11    1    3    3    0    0 -0.88390997460E+01  0.12828933715E+02 -0.35000408387E+01  0.15967514231E+02  0.51100000000E-03 0. -1.
        -11    1    3    3    0    0 -0.32035752533E+01  0.16795070302E+01  0.11749335283E+01  0.38031706937E+01  0.51100000000E-03 0.  1.
        -12    1    3    3    0    0 -0.20309365387E+02  0.15694386559E+02 -0.60563126437E+01  0.26371632766E+02  0.00000000000E+00 0.  1.
</event>
<event>
 7    1  0.2243370E-008  0.4614232E+02  0.7816164E-02  0.1320468E+00
        -11   -1    0    0    0    0  0.00000000000E+00  0.00000000000E+00  0.45593999997E+02  0.45594000000E+02  0.51100000000E-03 0.  1.
         11   -1    0    0    0    0 -0.00000000000E+00 -0.00000000000E+00 -0.45593999997E+02  0.45594000000E+02  0.51100000000E-03 0. -1.
    9900012    2    1    2    0    0 -0.17089016327E+02 -0.30515466861E+02  0.28388118842E+02  0.46142317764E+02  0.10000000022E+02 0.  0.
         12    1    1    2    0    0  0.17089016327E+02  0.30515466861E+02 -0.28388118842E+02  0.45045682236E+02  0.00000000000E+00 0. -1.
         11    1    3    3    0    0 -0.24795294785E+01 -0.29380429926E+01  0.14105479024E+01  0.40950956896E+01  0.51100000000E-03 0. -1.
        -11    1    3    3    0    0 -0.66527800089E+01 -0.18579503498E+02  0.20269184838E+02  0.28289526089E+02  0.51100000000E-03 0.  1.
        -12    1    3    3    0    0 -0.79567068400E+01 -0.89979203699E+01  0.67083861012E+01  0.13757695984E+02  0.00000000000E+00 0.  1.
</event>
<event>
 7    1  0.2243370E-008  0.4614232E+02  0.7816164E-02  0.1320468E+00
        -11   -1    0    0    0    0  0.00000000000E+00  0.00000000000E+00  0.45593999997E+02  0.45594000000E+02  0.51100000000E-03 0.  1.
         11   -1    0    0    0    0 -0.00000000000E+00 -0.00000000000E+00 -0.45593999997E+02  0.45594000000E+02  0.51100000000E-03 0. -1.
    9900012    2    1    2    0    0  0.12341879083E+02  0.11416631709E+02  0.41790572914E+02  0.46142318261E+02  0.10000004556E+02 0.  0.
         12    1    1    2    0    0 -0.12341879083E+02 -0.11416631709E+02 -0.41790572914E+02  0.45045681739E+02  0.00000000000E+00 0. -1.
         11    1    3    3    0    0  0.91886125613E-01  0.28314339963E+01  0.38049627846E+01  0.47437541662E+01  0.51100000000E-03 0. -1.
        -11    1    3    3    0    0  0.36000368373E+01  0.17268177723E+00  0.42637375888E+01  0.55829689873E+01  0.51100000000E-03 0.  1.
        -12    1    3    3    0    0  0.86499561206E+01  0.84125159351E+01  0.33721872541E+02  0.35815595107E+02  0.00000000000E+00 0.  1.
</event>
<event>
 7    1  0.2243370E-008  0.4614232E+02  0.7816164E-02  0.1320468E+00
        -11   -1    0    0    0    0  0.00000000000E+00  0.00000000000E+00  0.45593999997E+02  0.45594000000E+02  0.51100000000E-03 0.  1.
         11   -1    0    0    0    0 -0.00000000000E+00 -0.00000000000E+00 -0.45593999997E+02  0.45594000000E+02  0.51100000000E-03 0. -1.
    9900012    2    1    2    0    0 -0.35425378635E+02 -0.27438382205E+02 -0.46142583021E+01  0.46142315977E+02  0.99999837287E+01 0.  0.
         12    1    1    2    0    0  0.35425378635E+02  0.27438382205E+02  0.46142583021E+01  0.45045684023E+02  0.00000000000E+00 0. -1.
         11    1    3    3    0    0 -0.30125193612E+01 -0.34699482379E+01 -0.34373125675E+00  0.46080326728E+01  0.51100000000E-03 0.  1.
        -11    1    3    3    0    0 -0.18440080472E+02 -0.11019550975E+02  0.17562030501E+01  0.21553452645E+02  0.51100000000E-03 0. -1.
         12    1    3    3    0    0 -0.13972778801E+02 -0.12948882992E+02 -0.60267300954E+01  0.19980830659E+02  0.00000000000E+00 0. -1.
</event>
<event>
 7    1  0.2243370E-008  0.4614232E+02  0.7816164E-02  0.1320468E+00
        -11   -1    0    0    0    0  0.00000000000E+00  0.00000000000E+00  0.45593999997E+02  0.45594000000E+02  0.51100000000E-03 0.  1.
         11   -1    0    0    0    0 -0.00000000000E+00 -0.00000000000E+00 -0.45593999997E+02  0.45594000000E+02  0.51100000000E-03 0. -1.
    9900012    2    1    2    0    0 -0.25046226123E+02  0.25660169640E+02  0.27264551245E+02  0.46142317593E+02  0.99999984625E+01 0.  0.
         12    1    1    2    0    0  0.25046226123E+02 -0.25660169640E+02 -0.27264551245E+02  0.45045682407E+02  0.00000000000E+00 0. -1.
         11    1    3    3    0    0 -0.86897443108E+01  0.86515661330E+01  0.12882975884E+02  0.17785733626E+02  0.51100000000E-03 0. -1.
        -11    1    3    3    0    0 -0.11326414945E+02  0.15360648791E+02  0.12064440432E+02  0.22578483784E+02  0.51100000000E-03 0.  1.
         12    1    3    3    0    0 -0.50300668676E+01  0.16479547163E+01  0.23171349293E+01  0.57781001826E+01  0.00000000000E+00 0. -1.
</event>
<event>
 7    1  0.2243370E-008  0.4614232E+02  0.7816164E-02  0.1320468E+00
        -11   -1    0    0    0    0  0.00000000000E+00  0.00000000000E+00  0.45593999997E+02  0.45594000000E+02  0.51100000000E-03 0.  1.
         11   -1    0    0    0    0 -0.00000000000E+00 -0.00000000000E+00 -0.45593999997E+02  0.45594000000E+02  0.51100000000E-03 0. -1.
    9900012    2    1    2    0    0 -0.44453067362E+02 -0.67388610997E+01  0.27614954972E+01  0.46142319806E+02  0.10000018643E+02 0.  0.
         12    1    1    2    0    0  0.44453067362E+02  0.67388610997E+01 -0.27614954972E+01  0.45045680194E+02  0.00000000000E+00 0. -1.
         11    1    3    3    0    0 -0.18489103589E+00  0.33672531674E+00 -0.46684447365E+00  0.60457642841E+00  0.51100000000E-03 0.  1.
        -11    1    3    3    0    0 -0.29183421471E+01 -0.14864789354E+01 -0.13884239863E+01  0.35572548320E+01  0.51100000000E-03 0. -1.
        -12    1    3    3    0    0 -0.41349834179E+02 -0.55891074810E+01  0.46167639571E+01  0.41980488545E+02  0.00000000000E+00 0.  1.
</event>
<event>
 7    1  0.2243370E-008  0.4614232E+02  0.7816164E-02  0.1320468E+00
        -11   -1    0    0    0    0  0.00000000000E+00  0.00000000000E+00  0.45593999997E+02  0.45594000000E+02  0.51100000000E-03 0.  1.
         11   -1    0    0    0    0 -0.00000000000E+00 -0.00000000000E+00 -0.45593999997E+02  0.45594000000E+02  0.51100000000E-03 0. -1.
    9900012    2    1    2    0    0  0.52430521638E+00 -0.22758453144E+02  0.38870186937E+02  0.46142317433E+02  0.99999970044E+01 0.  0.
         12    1    1    2    0    0 -0.52430521638E+00  0.22758453144E+02 -0.38870186937E+02  0.45045682567E+02  0.00000000000E+00 0. -1.
         11    1    3    3    0    0  0.30282046140E+01 -0.94512859917E+01  0.20215861182E+02  0.22520609976E+02  0.51100000000E-03 0. -1.
        -11    1    3    3    0    0 -0.31444458311E+01 -0.13428401023E+02  0.18160857828E+02  0.22804084084E+02  0.51100000000E-03 0.  1.
        -12    1    3    3    0    0  0.64054643354E+00  0.12123387037E+00  0.49346792621E+00  0.81762337237E+00  0.00000000000E+00 0.  1.
</event>
<event>
 7    1  0.2243370E-008  0.4614232E+02  0.7816164E-02  0.1320468E+00
        -11   -1    0    0    0    0  0.00000000000E+00  0.00000000000E+00  0.45593999997E+02  0.45594000000E+02  0.51100000000E-03 0.  1.
         11   -1    0    0    0    0 -0.00000000000E+00 -0.00000000000E+00 -0.45593999997E+02  0.45594000000E+02  0.51100000000E-03 0. -1.
    9900012    2    1    2    0    0  0.25840061447E+02 -0.12228111402E+02  0.34812037808E+02  0.46142318071E+02  0.10000002828E+02 0.  0.
         12    1    1    2    0    0 -0.25840061447E+02  0.12228111402E+02 -0.34812037808E+02  0.45045681929E+02  0.00000000000E+00 0. -1.
         11    1    3    3    0    0  0.73928306773E+00  0.23288904931E+00  0.19821981078E+01  0.21283529696E+01  0.51100000000E-03 0. -1.
        -11    1    3    3    0    0  0.13386822533E+02 -0.34538352503E+01  0.20721145686E+02  0.24909875035E+02  0.51100000000E-03 0.  1.
        -12    1    3    3    0    0  0.11713955847E+02 -0.90071652009E+01  0.12108694015E+02  0.19104090067E+02  0.00000000000E+00 0.  1.
</event>
<event>
 7    1  0.2243370E-008  0.4614232E+02  0.7816164E-02  0.1320468E+00
        -11   -1    0    0    0    0  0.00000000000E+00  0.00000000000E+00  0.45593999997E+02  0.45594000000E+02  0.51100000000E-03 0.  1.
         11   -1    0    0    0    0 -0.00000000000E+00 -0.00000000000E+00 -0.45593999997E+02  0.45594000000E+02  0.51100000000E-03 0. -1.
    9900012    2    1    2    0    0 -0.27618055061E+02  0.30241498759E+02  0.18756553133E+02  0.46142317654E+02  0.99999990246E+01 0.  0.
         12    1    1    2    0    0  0.27618055061E+02 -0.30241498759E+02 -0.18756553133E+02  0.45045682346E+02  0.00000000000E+00 0. -1.
         11    1    3    3    0    0 -0.57424224347E+01  0.11211472585E+02  0.47331543082E+01  0.13456421623E+02  0.51100000000E-03 0. -1.
        -11    1    3    3    0    0 -0.67344039893E+01  0.94107847152E+01  0.50058006409E+01  0.12608453766E+02  0.51100000000E-03 0.  1.
         12    1    3    3    0    0 -0.15141228637E+02  0.96192414591E+01  0.90175981842E+01  0.20077442265E+02  0.00000000000E+00 0. -1.
</event>
<event>
 7    1  0.2243370E-008  0.4614232E+02  0.7816164E-02  0.1320468E+00
        -11   -1    0    0    0    0  0.00000000000E+00  0.00000000000E+00  0.45593999997E+02  0.45594000000E+02  0.51100000000E-03 0.  1.
         11   -1    0    0    0    0 -0.00000000000E+00 -0.00000000000E+00 -0.45593999997E+02  0.45594000000E+02  0.51100000000E-03 0. -1.
    9900012    2    1    2    0    0  0.34923415818E+02 -0.27231393895E+02  0.82413558365E+01  0.46142315058E+02  0.99999753509E+01 0.  0.
         12    1    1    2    0    0 -0.34923415818E+02  0.27231393895E+02 -0.82413558365E+01  0.45045684942E+02  0.00000000000E+00 0. -1.
         11    1    3    3    0    0  0.14156334083E-01 -0.49947959694E+00  0.13516674113E+01  0.14410708939E+01  0.51100000000E-03 0. -1.
        -11    1    3    3    0    0  0.52018798611E+01 -0.59067339806E+01  0.16995804635E+01  0.80521819664E+01  0.51100000000E-03 0.  1.
        -12    1    3    3    0    0  0.29707379623E+02 -0.20825180318E+02  0.51901079617E+01  0.36649062198E+02  0.00000000000E+00 0.  1.
</event>
<event>
 7    1  0.2243370E-008  0.4614232E+02  0.7816164E-02  0.1320468E+00
        -11   -1    0    0    0    0  0.00000000000E+00  0.00000000000E+00  0.45593999997E+02  0.45594000000E+02  0.51100000000E-03 0.  1.
         11   -1    0    0    0    0 -0.00000000000E+00 -0.00000000000E+00 -0.45593999997E+02  0.45594000000E+02  0.51100000000E-03 0. -1.
    9900012    2    1    2    0    0 -0.53774257172E+01 -0.32454245721E+01  0.44605652638E+02  0.46142315020E+02  0.99999750083E+01 0.  0.
         12    1    1    2    0    0  0.53774257172E+01  0.32454245721E+01 -0.44605652638E+02  0.45045684980E+02  0.00000000000E+00 0. -1.
         11    1    3    3    0    0 -0.10156564467E+00 -0.10332522615E+01  0.24781763288E+01  0.26868725302E+01  0.51100000000E-03 0.  1.
        -11    1    3    3    0    0 -0.52407961445E+01 -0.48179277676E+01  0.37262839709E+02  0.37936757843E+02  0.51100000000E-03 0. -1.
         12    1    3    3    0    0 -0.35063928076E-01  0.26057554569E+01  0.48646366001E+01  0.55186846469E+01  0.00000000000E+00 0. -1.
</event>
<event>
 7    1  0.2243370E-008  0.4614232E+02  0.7816164E-02  0.1320468E+00
        -11   -1    0    0    0    0  0.00000000000E+00  0.00000000000E+00  0.45593999997E+02  0.45594000000E+02  0.51100000000E-03 0. -1.
         11   -1    0    0    0    0 -0.00000000000E+00 -0.00000000000E+00 -0.45593999997E+02  0.45594000000E+02  0.51100000000E-03 0.  1.
    9900012    2    1    2    0    0  0.66211916396E+01 -0.20373164787E+02 -0.39625842393E+02  0.46142318659E+02  0.10000008185E+02 0.  0.
         12    1    1    2    0    0 -0.66211916396E+01  0.20373164787E+02  0.39625842393E+02  0.45045681341E+02  0.00000000000E+00 0. -1.
         11    1    3    3    0    0 -0.72815280043E+00 -0.65650062785E+01 -0.10305066679E+02  0.12240257900E+02  0.51100000000E-03 0. -1.
        -11    1    3    3    0    0  0.55183690704E+01 -0.14081018946E+02 -0.25302219554E+02  0.29477615344E+02  0.51100000000E-03 0.  1.
         12    1    3    3    0    0  0.18309753696E+01  0.27286043690E+00 -0.40185561588E+01  0.44244454142E+01  0.00000000000E+00 0. -1.
</event>
<event>
 7    1  0.2243370E-008  0.4614232E+02  0.7816164E-02  0.1320468E+00
        -11   -1    0    0    0    0  0.00000000000E+00  0.00000000000E+00  0.45593999997E+02  0.45594000000E+02  0.51100000000E-03 0.  1.
         11   -1    0    0    0    0 -0.00000000000E+00 -0.00000000000E+00 -0.45593999997E+02  0.45594000000E+02  0.51100000000E-03 0. -1.
    9900012    2    1    2    0    0  0.29961074380E+02  0.28786074340E+02  0.17401420049E+02  0.46142317924E+02  0.10000001489E+02 0.  0.
         12    1    1    2    0    0 -0.29961074380E+02 -0.28786074340E+02 -0.17401420049E+02  0.45045682076E+02  0.00000000000E+00 0. -1.
         11    1    3    3    0    0  0.15091846234E+01  0.26719260848E-01  0.44759559335E+00  0.15743869355E+01  0.51100000000E-03 0. -1.
        -11    1    3    3    0    0  0.17226911689E+02  0.15566440228E+02  0.13651025696E+02  0.26933827254E+02  0.51100000000E-03 0.  1.
         12    1    3    3    0    0  0.11224978068E+02  0.13192914851E+02  0.33027987592E+01  0.17634103735E+02  0.00000000000E+00 0. -1.
</event>
<event>
 7    1  0.2243370E-008  0.4614232E+02  0.7816164E-02  0.1320468E+00
        -11   -1    0    0    0    0  0.00000000000E+00  0.00000000000E+00  0.45593999997E+02  0.45594000000E+02  0.51100000000E-03 0. -1.
         11   -1    0    0    0    0 -0.00000000000E+00 -0.00000000000E+00 -0.45593999997E+02  0.45594000000E+02  0.51100000000E-03 0.  1.
    9900012    2    1    2    0    0  0.42037279826E+02 -0.97199426172E+01 -0.12942303982E+02  0.46142318608E+02  0.10000007727E+02 0.  0.
         12    1    1    2    0    0 -0.42037279826E+02  0.97199426172E+01  0.12942303982E+02  0.45045681392E+02  0.00000000000E+00 0. -1.
         11    1    3    3    0    0  0.87195312149E+01 -0.44829928721E+01 -0.31048547491E+01  0.10284336292E+02  0.51100000000E-03 0. -1.
        -11    1    3    3    0    0  0.29516871584E+01 -0.26221671515E+01 -0.49064910872E+00  0.39785618583E+01  0.51100000000E-03 0.  1.
        -12    1    3    3    0    0  0.30366061453E+02 -0.26147825936E+01 -0.93468001243E+01  0.31879420458E+02  0.00000000000E+00 0.  1.
</event>
<event>
 7    1  0.2243370E-008  0.4614232E+02  0.7816164E-02  0.1320468E+00
        -11   -1    0    0    0    0  0.00000000000E+00  0.00000000000E+00  0.45593999997E+02  0.45594000000E+02  0.51100000000E-03 0.  1.
         11   -1    0    0    0    0 -0.00000000000E+00 -0.00000000000E+00 -0.45593999997E+02  0.45594000000E+02  0.51100000000E-03 0. -1.
    9900012    2    1    2    0    0 -0.16026561189E+02  0.70642113838E+01  0.41501321909E+02  0.46142318007E+02  0.10000002238E+02 0.  0.
         12    1    1    2    0    0  0.16026561189E+02 -0.70642113838E+01 -0.41501321909E+02  0.45045681993E+02  0.00000000000E+00 0. -1.
         11    1    3    3    0    0 -0.35169731367E+01  0.66867283799E+00  0.14475293105E+02  0.14911416235E+02  0.51100000000E-03 0. -1.
        -11    1    3    3    0    0 -0.10966548840E+01  0.18846489810E+01  0.10048756472E+02  0.10282609621E+02  0.51100000000E-03 0.  1.
         12    1    3    3    0    0 -0.11412933169E+02  0.45108895648E+01  0.16977272332E+02  0.20948292150E+02  0.00000000000E+00 0. -1.
</event>
<event>
 7    1  0.2243370E-008  0.4614232E+02  0.7816164E-02  0.1320468E+00
        -11   -1    0    0    0    0  0.00000000000E+00  0.00000000000E+00  0.45593999997E+02  0.45594000000E+02  0.51100000000E-03 0.  1.
         11   -1    0    0    0    0 -0.00000000000E+00 -0.00000000000E+00 -0.45593999997E+02  0.45594000000E+02  0.51100000000E-03 0. -1.
    9900012    2    1    2    0    0  0.29819479097E+02  0.23638397387E+02  0.24106809504E+02  0.46142318419E+02  0.10000005999E+02 0.  0.
         12    1    1    2    0    0 -0.29819479097E+02 -0.23638397387E+02 -0.24106809504E+02  0.45045681581E+02  0.00000000000E+00 0. -1.
         11    1    3    3    0    0  0.14375807364E+02  0.97164444930E+01  0.80622319153E+01  0.19133026804E+02  0.51100000000E-03 0.  1.
        -11    1    3    3    0    0  0.11521783659E+02  0.62784072999E+01  0.92045984139E+01  0.16027929659E+02  0.51100000000E-03 0. -1.
         12    1    3    3    0    0  0.39218880731E+01  0.76435455941E+01  0.68399791750E+01  0.10981361957E+02  0.00000000000E+00 0. -1.
</event>
<event>
 7    1  0.2243370E-008  0.4614233E+02  0.7816164E-02  0.1320468E+00
        -11   -1    0    0    0    0  0.00000000000E+00  0.00000000000E+00  0.45593999997E+02  0.45594000000E+02  0.51100000000E-03 0.  1.
         11   -1    0    0    0    0 -0.00000000000E+00 -0.00000000000E+00 -0.45593999997E+02  0.45594000000E+02  0.51100000000E-03 0. -1.
    9900012    2    1    2    0    0  0.11496091478E+02  0.42996041242E+02  0.69493102748E+01  0.46142327677E+02  0.10000090419E+02 0.  0.
         12    1    1    2    0    0 -0.11496091478E+02 -0.42996041242E+02 -0.69493102748E+01  0.45045672323E+02  0.00000000000E+00 0. -1.
         11    1    3    3    0    0  0.70225928103E+01  0.15478930369E+02  0.34699792904E+01  0.17348050371E+02  0.51100000000E-03 0. -1.
        -11    1    3    3    0    0  0.25397888333E+00  0.55934324485E+01  0.32357259746E+01  0.64669092056E+01  0.51100000000E-03 0.  1.
        -12    1    3    3    0    0  0.42195197841E+01  0.21923678425E+02  0.24360500978E+00  0.22327368100E+02  0.00000000000E+00 0.  1.
</event>
<event>
 7    1  0.2243370E-008  0.4614232E+02  0.7816164E-02  0.1320468E+00
        -11   -1    0    0    0    0  0.00000000000E+00  0.00000000000E+00  0.45593999997E+02  0.45594000000E+02  0.51100000000E-03 0.  1.
         11   -1    0    0    0    0 -0.00000000000E+00 -0.00000000000E+00 -0.45593999997E+02  0.45594000000E+02  0.51100000000E-03 0. -1.
    9900012    2    1    2    0    0 -0.20417255582E+02  0.20350304521E+01  0.40101219312E+02  0.46142318023E+02  0.10000002390E+02 0.  0.
         12    1    1    2    0    0  0.20417255582E+02 -0.20350304521E+01 -0.40101219312E+02  0.45045681977E+02  0.00000000000E+00 0. -1.
         11    1    3    3    0    0  0.60530933762E+00 -0.75711588319E-01  0.60544063057E+00  0.85947091695E+00  0.51100000000E-03 0. -1.
        -11    1    3    3    0    0 -0.12303340779E+02 -0.13615301934E+01  0.26541565790E+02  0.29286185713E+02  0.51100000000E-03 0.  1.
         12    1    3    3    0    0 -0.87192241407E+01  0.34722722338E+01  0.12954212892E+02  0.15996661393E+02  0.00000000000E+00 0. -1.
</event>
<event>
 7    1  0.2243370E-008  0.4614232E+02  0.7816164E-02  0.1320468E+00
        -11   -1    0    0    0    0  0.00000000000E+00  0.00000000000E+00  0.45593999997E+02  0.45594000000E+02  0.51100000000E-03 0.  1.
         11   -1    0    0    0    0 -0.00000000000E+00 -0.00000000000E+00 -0.45593999997E+02  0.45594000000E+02  0.51100000000E-03 0. -1.
    9900012    2    1    2    0    0  0.21719247800E+02 -0.29460069104E+02  0.26258181791E+02  0.46142317547E+02  0.99999980513E+01 0.  0.
         12    1    1    2    0    0 -0.21719247800E+02  0.29460069104E+02 -0.26258181791E+02  0.45045682453E+02  0.00000000000E+00 0. -1.
         11    1    3    3    0    0  0.47743921323E+01 -0.10556129274E+02  0.88877484462E+01  0.14602012128E+02  0.51100000000E-03 0. -1.
        -11    1    3    3    0    0  0.14974277715E+02 -0.18035874338E+02  0.17684364249E+02  0.29364238376E+02  0.51100000000E-03 0.  1.
         12    1    3    3    0    0  0.19705779526E+01 -0.86806549242E+00 -0.31393090406E+00  0.21760670438E+01  0.00000000000E+00 0. -1.
</event>
<event>
 7    1  0.2243370E-008  0.4614232E+02  0.7816164E-02  0.1320468E+00
        -11   -1    0    0    0    0  0.00000000000E+00  0.00000000000E+00  0.45593999997E+02  0.45594000000E+02  0.51100000000E-03 0. -1.
         11   -1    0    0    0    0 -0.00000000000E+00 -0.00000000000E+00 -0.45593999997E+02  0.45594000000E+02  0.51100000000E-03 0.  1.
    9900012    2    1    2    0    0 -0.16766112866E+02 -0.54615580411E+01 -0.41450955533E+02  0.46142324608E+02  0.10000062437E+02 0.  0.
         12    1    1    2    0    0  0.16766112866E+02  0.54615580411E+01  0.41450955533E+02  0.45045675392E+02  0.00000000000E+00 0. -1.
         11    1    3    3    0    0 -0.21876281369E+01 -0.28882560697E+01 -0.37681876200E+01  0.52275212281E+01  0.51100000000E-03 0. -1.
        -11    1    3    3    0    0 -0.48050096135E+01  0.19175088510E+01 -0.12889524973E+02  0.13889017671E+02  0.51100000000E-03 0.  1.
        -12    1    3    3    0    0 -0.97734751155E+01 -0.44908108224E+01 -0.24793242940E+02  0.27025785709E+02  0.00000000000E+00 0.  1.
</event>
<event>
 7    1  0.2243370E-008  0.4614232E+02  0.7816164E-02  0.1320468E+00
        -11   -1    0    0    0    0  0.00000000000E+00  0.00000000000E+00  0.45593999997E+02  0.45594000000E+02  0.51100000000E-03 0.  1.
         11   -1    0    0    0    0 -0.00000000000E+00 -0.00000000000E+00 -0.45593999997E+02  0.45594000000E+02  0.51100000000E-03 0. -1.
    9900012    2    1    2    0    0  0.10879711619E+02 -0.27233556174E+02  0.34191791696E+02  0.46142319561E+02  0.10000016417E+02 0.  0.
         12    1    1    2    0    0 -0.10879711619E+02  0.27233556174E+02 -0.34191791696E+02  0.45045680439E+02  0.00000000000E+00 0. -1.
         11    1    3    3    0    0  0.77399131193E+01 -0.12450596156E+02  0.12960789976E+02  0.19567975797E+02  0.51100000000E-03 0. -1.
        -11    1    3    3    0    0  0.40605066717E+01 -0.14439912359E+02  0.19927471656E+02  0.24941990903E+02  0.51100000000E-03 0.  1.
        -12    1    3    3    0    0 -0.92070817201E+00 -0.34304765874E+00  0.13035300641E+01  0.16323528608E+01  0.00000000000E+00 0.  1.
</event>
<event>
 7    1  0.2243370E-008  0.4614232E+02  0.7816164E-02  0.1320468E+00
        -11   -1    0    0    0    0  0.00000000000E+00  0.00000000000E+00  0.45593999997E+02  0.45594000000E+02  0.51100000000E-03 0. -1.
         11   -1    0    0    0    0 -0.00000000000E+00 -0.00000000000E+00 -0.45593999997E+02  0.45594000000E+02  0.51100000000E-03 0.  1.
    9900012    2    1    2    0    0  0.28687561072E+02  0.27283362447E+02 -0.21488491497E+02  0.46142319925E+02  0.10000019728E+02 0.  0.
         12    1    1    2    0    0 -0.28687561072E+02 -0.27283362447E+02  0.21488491497E+02  0.45045680075E+02  0.00000000000E+00 0. -1.
         11    1    3    3    0    0  0.12487365213E+01  0.19542745527E+01 -0.13482904389E+01  0.26826142652E+01  0.51100000000E-03 0. -1.
        -11    1    3    3    0    0  0.27744498194E+02  0.25276046356E+02 -0.18598741381E+02  0.41887335564E+02  0.51100000000E-03 0.  1.
        -12    1    3    3    0    0 -0.30567364363E+00  0.53041538259E-01 -0.15414596770E+01  0.15723700954E+01  0.00000000000E+00 0.  1.
</event>
<event>
 7    1  0.2243370E-008  0.4614232E+02  0.7816164E-02  0.1320468E+00
        -11   -1    0    0    0    0  0.00000000000E+00  0.00000000000E+00  0.45593999997E+02  0.45594000000E+02  0.51100000000E-03 0.  1.
         11   -1    0    0    0    0 -0.00000000000E+00 -0.00000000000E+00 -0.45593999997E+02  0.45594000000E+02  0.51100000000E-03 0. -1.
    9900012    2    1    2    0    0  0.13084382847E+02 -0.11197468820E+02  0.41623657833E+02  0.46142320142E+02  0.10000021710E+02 0.  0.
         12    1    1    2    0    0 -0.13084382847E+02  0.11197468820E+02 -0.41623657833E+02  0.45045679858E+02  0.00000000000E+00 0. -1.
         11    1    3    3    0    0  0.16080877208E+01 -0.24293788708E+01  0.37191056047E+01  0.47243597000E+01  0.51100000000E-03 0. -1.
        -11    1    3    3    0    0  0.80207770526E+01 -0.10949998204E+01  0.21655414833E+02  0.23119015572E+02  0.51100000000E-03 0.  1.
         12    1    3    3    0    0  0.34555180740E+01 -0.76730901284E+01  0.16249137395E+02  0.18298944870E+02  0.00000000000E+00 0. -1.
</event>
<event>
 7    1  0.2243370E-008  0.4614232E+02  0.7816164E-02  0.1320468E+00
        -11   -1    0    0    0    0  0.00000000000E+00  0.00000000000E+00  0.45593999997E+02  0.45594000000E+02  0.51100000000E-03 0.  1.
         11   -1    0    0    0    0 -0.00000000000E+00 -0.00000000000E+00 -0.45593999997E+02  0.45594000000E+02  0.51100000000E-03 0. -1.
    9900012    2    1    2    0    0 -0.18781745629E-01  0.40069561559E+02  0.20580170011E+02  0.46142317477E+02  0.99999974086E+01 0.  0.
         12    1    1    2    0    0  0.18781745629E-01 -0.40069561559E+02 -0.20580170011E+02  0.45045682523E+02  0.00000000000E+00 0. -1.
         11    1    3    3    0    0  0.47280159011E+00  0.66308741467E+00 -0.10638948153E+00  0.82130703516E+00  0.51100000000E-03 0. -1.
        -11    1    3    3    0    0  0.30348968291E+01  0.15411351706E+02  0.11140925539E+02  0.19257221562E+02  0.51100000000E-03 0.  1.
        -12    1    3    3    0    0 -0.35264801648E+01  0.23995122438E+02  0.95456339540E+01  0.26063788880E+02  0.00000000000E+00 0.  1.
</event>
<event>
 7    1  0.2243370E-008  0.4614232E+02  0.7816164E-02  0.1320468E+00
        -11   -1    0    0    0    0  0.00000000000E+00  0.00000000000E+00  0.45593999997E+02  0.45594000000E+02  0.51100000000E-03 0.  1.
         11   -1    0    0    0    0 -0.00000000000E+00 -0.00000000000E+00 -0.45593999997E+02  0.45594000000E+02  0.51100000000E-03 0. -1.
    9900012    2    1    2    0    0 -0.16967414952E+02  0.30598396226E+02  0.28371787364E+02  0.46142319408E+02  0.10000015022E+02 0.  0.
         12    1    1    2    0    0  0.16967414952E+02 -0.30598396226E+02 -0.28371787364E+02  0.45045680592E+02  0.00000000000E+00 0. -1.
         11    1    3    3    0    0 -0.40533597261E+01  0.56714345480E+01  0.25166220843E+01  0.74113616750E+01  0.51100000000E-03 0. -1.
        -11    1    3    3    0    0 -0.13445277076E+02  0.21926453404E+02  0.23899027561E+02  0.35109946641E+02  0.51100000000E-03 0.  1.
        -12    1    3    3    0    0  0.53122185080E+00  0.30005082736E+01  0.19561377187E+01  0.36210110922E+01  0.00000000000E+00 0.  1.
</event>
<event>
 7    1  0.2243370E-008  0.4614232E+02  0.7816164E-02  0.1320468E+00
        -11   -1    0    0    0    0  0.00000000000E+00  0.00000000000E+00  0.45593999997E+02  0.45594000000E+02  0.51100000000E-03 0.  1.
         11   -1    0    0    0    0 -0.00000000000E+00 -0.00000000000E+00 -0.45593999997E+02  0.45594000000E+02  0.51100000000E-03 0. -1.
    9900012    2    1    2    0    0 -0.18483202731E+02 -0.27965146381E+02  0.30090452433E+02  0.46142317378E+02  0.99999965058E+01 0.  0.
         12    1    1    2    0    0  0.18483202731E+02  0.27965146381E+02 -0.30090452433E+02  0.45045682622E+02  0.00000000000E+00 0. -1.
         11    1    3    3    0    0 -0.26454805085E+01 -0.76985268308E+01  0.11567898353E+02  0.14145039945E+02  0.51100000000E-03 0. -1.
        -11    1    3    3    0    0 -0.18881337247E+01 -0.39739616203E+01  0.49139690828E+01  0.65957950491E+01  0.51100000000E-03 0.  1.
         12    1    3    3    0    0 -0.13949588498E+02 -0.16292657930E+02  0.13608584997E+02  0.25401482384E+02  0.00000000000E+00 0. -1.
</event>
<event>
 7    1  0.2243370E-008  0.4614231E+02  0.7816164E-02  0.1320468E+00
        -11   -1    0    0    0    0  0.00000000000E+00  0.00000000000E+00  0.45593999997E+02  0.45594000000E+02  0.51100000000E-03 0.  1.
         11   -1    0    0    0    0 -0.00000000000E+00 -0.00000000000E+00 -0.45593999997E+02  0.45594000000E+02  0.51100000000E-03 0. -1.
    9900012    2    1    2    0    0 -0.29223080451E+02 -0.24349516789E+01  0.34193516266E+02  0.46142312356E+02  0.99999507102E+01 0.  0.
         12    1    1    2    0    0  0.29223080451E+02  0.24349516789E+01 -0.34193516266E+02  0.45045687644E+02  0.00000000000E+00 0. -1.
         11    1    3    3    0    0 -0.34505946798E+01  0.10114895028E+01  0.40234260918E+01  0.53960793578E+01  0.51100000000E-03 0. -1.
        -11    1    3    3    0    0 -0.18872476117E+02 -0.82887446112E+00  0.15943599357E+02  0.24719541832E+02  0.51100000000E-03 0.  1.
         12    1    3    3    0    0 -0.69000096536E+01 -0.26175667206E+01  0.14226490817E+02  0.16026691166E+02  0.00000000000E+00 0. -1.
</event>
<event>
 7    1  0.2243370E-008  0.4614232E+02  0.7816164E-02  0.1320468E+00
        -11   -1    0    0    0    0  0.00000000000E+00  0.00000000000E+00  0.45593999997E+02  0.45594000000E+02  0.51100000000E-03 0.  1.
         11   -1    0    0    0    0 -0.00000000000E+00 -0.00000000000E+00 -0.45593999997E+02  0.45594000000E+02  0.51100000000E-03 0. -1.
    9900012    2    1    2    0    0  0.18734269949E+02  0.19491228425E+02  0.36030996252E+02  0.46142317111E+02  0.99999940688E+01 0.  0.
         12    1    1    2    0    0 -0.18734269949E+02 -0.19491228425E+02 -0.36030996252E+02  0.45045682889E+02  0.00000000000E+00 0. -1.
         11    1    3    3    0    0  0.28867189973E+01  0.25552336882E+01  0.10157304077E+02  0.10864308176E+02  0.51100000000E-03 0. -1.
        -11    1    3    3    0    0  0.59306462860E+00 -0.67391265999E-02  0.27210022790E+01  0.27848922300E+01  0.51100000000E-03 0.  1.
         12    1    3    3    0    0  0.15254486323E+02  0.16942733864E+02  0.23152689896E+02  0.32493116705E+02  0.00000000000E+00 0. -1.
</event>
<event>
 7    1  0.2243370E-008  0.4614232E+02  0.7816164E-02  0.1320468E+00
        -11   -1    0    0    0    0  0.00000000000E+00  0.00000000000E+00  0.45593999997E+02  0.45594000000E+02  0.51100000000E-03 0. -1.
         11   -1    0    0    0    0 -0.00000000000E+00 -0.00000000000E+00 -0.45593999997E+02  0.45594000000E+02  0.51100000000E-03 0.  1.
    9900012    2    1    2    0    0 -0.30078445634E+00  0.28942851822E+02 -0.34515714519E+02  0.46142315505E+02  0.99999794247E+01 0.  0.
         12    1    1    2    0    0  0.30078445634E+00 -0.28942851822E+02  0.34515714519E+02  0.45045684495E+02  0.00000000000E+00 0. -1.
         11    1    3    3    0    0  0.32539188523E+01  0.96101372716E+01 -0.14687437391E+02  0.17851149645E+02  0.51100000000E-03 0. -1.
        -11    1    3    3    0    0  0.63243448020E-01  0.85844865669E+01 -0.10795233207E+02  0.13792551236E+02  0.51100000000E-03 0.  1.
        -12    1    3    3    0    0 -0.36179467567E+01  0.10748227983E+02 -0.90330439217E+01  0.14498614624E+02  0.00000000000E+00 0.  1.
</event>
<event>
 7    1  0.2243370E-008  0.4614232E+02  0.7816164E-02  0.1320468E+00
        -11   -1    0    0    0    0  0.00000000000E+00  0.00000000000E+00  0.45593999997E+02  0.45594000000E+02  0.51100000000E-03 0.  1.
         11   -1    0    0    0    0 -0.00000000000E+00 -0.00000000000E+00 -0.45593999997E+02  0.45594000000E+02  0.51100000000E-03 0. -1.
    9900012    2    1    2    0    0 -0.20115394431E+02 -0.39115697734E+02  0.97183643964E+01  0.46142317534E+02  0.99999979260E+01 0.  0.
         12    1    1    2    0    0  0.20115394431E+02  0.39115697734E+02 -0.97183643964E+01  0.45045682466E+02  0.00000000000E+00 0. -1.
         11    1    3    3    0    0 -0.23109417879E+00 -0.39514524683E+01 -0.79291997303E+00  0.40368432560E+01  0.51100000000E-03 0.  1.
        -11    1    3    3    0    0 -0.12644370240E+02 -0.18539144327E+02  0.37442936820E+01  0.22750817712E+02  0.51100000000E-03 0. -1.
        -12    1    3    3    0    0 -0.72399300125E+01 -0.16625100939E+02  0.67669906874E+01  0.19354656565E+02  0.00000000000E+00 0.  1.
</event>
<event>
 7    1  0.2243370E-008  0.4614232E+02  0.7816164E-02  0.1320468E+00
        -11   -1    0    0    0    0  0.00000000000E+00  0.00000000000E+00  0.45593999997E+02  0.45594000000E+02  0.51100000000E-03 0.  1.
         11   -1    0    0    0    0 -0.00000000000E+00 -0.00000000000E+00 -0.45593999997E+02  0.45594000000E+02  0.51100000000E-03 0. -1.
    9900012    2    1    2    0    0  0.13062648386E+02 -0.42994562796E+02  0.31540850800E+01  0.46142318014E+02  0.10000002308E+02 0.  0.
         12    1    1    2    0    0 -0.13062648386E+02  0.42994562796E+02 -0.31540850800E+01  0.45045681986E+02  0.00000000000E+00 0. -1.
         11    1    3    3    0    0 -0.12450027356E+01 -0.12950389393E+01  0.80564205436E+00  0.19688110744E+01  0.51100000000E-03 0. -1.
        -11    1    3    3    0    0  0.86164442642E+01 -0.25659353482E+02  0.73645128517E+00  0.27077442523E+02  0.51100000000E-03 0.  1.
        -12    1    3    3    0    0  0.56912068570E+01 -0.16040170375E+02  0.16119917405E+01  0.17096064416E+02  0.00000000000E+00 0.  1.
</event>
<event>
 7    1  0.2243370E-008  0.4614232E+02  0.7816164E-02  0.1320468E+00
        -11   -1    0    0    0    0  0.00000000000E+00  0.00000000000E+00  0.45593999997E+02  0.45594000000E+02  0.51100000000E-03 0.  1.
         11   -1    0    0    0    0 -0.00000000000E+00 -0.00000000000E+00 -0.45593999997E+02  0.45594000000E+02  0.51100000000E-03 0. -1.
    9900012    2    1    2    0    0 -0.15534740713E+02  0.17145551195E+02  0.38649909698E+02  0.46142316362E+02  0.99999872378E+01 0.  0.
         12    1    1    2    0    0  0.15534740713E+02 -0.17145551195E+02 -0.38649909698E+02  0.45045683638E+02  0.00000000000E+00 0. -1.
         11    1    3    3    0    0 -0.18706455389E+01  0.17756614075E+01  0.18142784026E+01  0.31533941316E+01  0.51100000000E-03 0. -1.
        -11    1    3    3    0    0 -0.14154113231E+02  0.12485521017E+02  0.34144479928E+02  0.39013749707E+02  0.51100000000E-03 0.  1.
        -12    1    3    3    0    0  0.49001805674E+00  0.28843687712E+01  0.26911513674E+01  0.39751725228E+01  0.00000000000E+00 0.  1.
</event>
<event>
 7    1  0.2243370E-008  0.4614232E+02  0.7816164E-02  0.1320468E+00
        -11   -1    0    0    0    0  0.00000000000E+00  0.00000000000E+00  0.45593999997E+02  0.45594000000E+02  0.51100000000E-03 0.  1.
         11   -1    0    0    0    0 -0.00000000000E+00 -0.00000000000E+00 -0.45593999997E+02  0.45594000000E+02  0.51100000000E-03 0. -1.
    9900012    2    1    2    0    0 -0.18597215553E+02  0.48882801872E+01  0.40735265905E+02  0.46142316545E+02  0.99999889146E+01 0.  0.
         12    1    1    2    0    0  0.18597215553E+02 -0.48882801872E+01 -0.40735265905E+02  0.45045683455E+02  0.00000000000E+00 0. -1.
         11    1    3    3    0    0 -0.11371760109E+02  0.10536984845E+01  0.28145850104E+02  0.30374596076E+02  0.51100000000E-03 0. -1.
        -11    1    3    3    0    0 -0.67389802535E+01  0.36123265629E+01  0.77079325411E+01  0.10857024564E+02  0.51100000000E-03 0.  1.
        -12    1    3    3    0    0 -0.48647519119E+00  0.22225513985E+00  0.48814832599E+01  0.49106959055E+01  0.00000000000E+00 0.  1.
</event>
<event>
 7    1  0.2243370E-008  0.4614232E+02  0.7816164E-02  0.1320468E+00
        -11   -1    0    0    0    0  0.00000000000E+00  0.00000000000E+00  0.45593999997E+02  0.45594000000E+02  0.51100000000E-03 0. -1.
         11   -1    0    0    0    0 -0.00000000000E+00 -0.00000000000E+00 -0.45593999997E+02  0.45594000000E+02  0.51100000000E-03 0.  1.
    9900012    2    1    2    0    0  0.50772884949E+01  0.41423031639E+01 -0.44566534337E+02  0.46142317446E+02  0.99999971255E+01 0.  0.
         12    1    1    2    0    0 -0.50772884949E+01 -0.41423031639E+01  0.44566534337E+02  0.45045682554E+02  0.00000000000E+00 0. -1.
         11    1    3    3    0    0  0.33980847229E+00 -0.90294345016E+00 -0.25394587785E+00  0.99762991235E+00  0.51100000000E-03 0. -1.
        -11    1    3    3    0    0 -0.34205004021E+00  0.18624773741E+01 -0.20574508206E+02  0.20661466753E+02  0.51100000000E-03 0.  1.
        -12    1    3    3    0    0  0.50795300628E+01  0.31827692400E+01 -0.23738080253E+02  0.24483220780E+02  0.00000000000E+00 0.  1.
</event>
<event>
 7    1  0.2243370E-008  0.4614232E+02  0.7816164E-02  0.1320468E+00
        -11   -1    0    0    0    0  0.00000000000E+00  0.00000000000E+00  0.45593999997E+02  0.45594000000E+02  0.51100000000E-03 0.  1.
         11   -1    0    0    0    0 -0.00000000000E+00 -0.00000000000E+00 -0.45593999997E+02  0.45594000000E+02  0.51100000000E-03 0. -1.
    9900012    2    1    2    0    0  0.29117407511E+02 -0.49207372735E+01 -0.34015826053E+02  0.46142317659E+02  0.99999990689E+01 0.  0.
         12    1    1    2    0    0 -0.29117407511E+02  0.49207372735E+01  0.34015826053E+02  0.45045682341E+02  0.00000000000E+00 0. -1.
         11    1    3    3    0    0  0.11625389112E+02 -0.51068581986E+00 -0.10899462592E+02  0.15943925397E+02  0.51100000000E-03 0. -1.
        -11    1    3    3    0    0  0.83928222646E+00 -0.18025457076E+01 -0.53543567666E+01  0.57116286932E+01  0.51100000000E-03 0.  1.
        -12    1    3    3    0    0  0.16652736173E+02 -0.26075057460E+01 -0.17762006694E+02  0.24486763569E+02  0.00000000000E+00 0.  1.
</event>
<event>
 7    1  0.2243370E-008  0.4614232E+02  0.7816164E-02  0.1320468E+00
        -11   -1    0    0    0    0  0.00000000000E+00  0.00000000000E+00  0.45593999997E+02  0.45594000000E+02  0.51100000000E-03 0. -1.
         11   -1    0    0    0    0 -0.00000000000E+00 -0.00000000000E+00 -0.45593999997E+02  0.45594000000E+02  0.51100000000E-03 0.  1.
    9900012    2    1    2    0    0  0.29442668879E+01  0.33738818561E+02 -0.29700789354E+02  0.46142317925E+02  0.10000001490E+02 0.  0.
         12    1    1    2    0    0 -0.29442668879E+01 -0.33738818561E+02  0.29700789354E+02  0.45045682075E+02  0.00000000000E+00 0. -1.
         11    1    3    3    0    0  0.29765909144E+01  0.10208206763E+02 -0.14928453163E+02  0.18328292143E+02  0.51100000000E-03 0. -1.
        -11    1    3    3    0    0 -0.22920297284E+00  0.26258307420E+01 -0.20737549498E+01  0.33538009693E+01  0.51100000000E-03 0.  1.
         12    1    3    3    0    0  0.19687894639E+00  0.20904781056E+02 -0.12698581242E+02  0.24460224813E+02  0.00000000000E+00 0. -1.
</event>
<event>
 7    1  0.2243370E-008  0.4614232E+02  0.7816164E-02  0.1320468E+00
        -11   -1    0    0    0    0  0.00000000000E+00  0.00000000000E+00  0.45593999997E+02  0.45594000000E+02  0.51100000000E-03 0.  1.
         11   -1    0    0    0    0 -0.00000000000E+00 -0.00000000000E+00 -0.45593999997E+02  0.45594000000E+02  0.51100000000E-03 0. -1.
    9900012    2    1    2    0    0 -0.10885772460E+02 -0.39604718944E+02  0.18495398821E+02  0.46142316719E+02  0.99999905000E+01 0.  0.
         12    1    1    2    0    0  0.10885772460E+02  0.39604718944E+02 -0.18495398821E+02  0.45045683281E+02  0.00000000000E+00 0. -1.
         11    1    3    3    0    0 -0.62393787102E+01 -0.82885799286E+01  0.27454711249E+01  0.10731636216E+02  0.51100000000E-03 0. -1.
        -11    1    3    3    0    0 -0.71143664928E+00 -0.32332321317E+01  0.10714810032E+01  0.34796557193E+01  0.51100000000E-03 0.  1.
         12    1    3    3    0    0 -0.39349571005E+01 -0.28082906884E+02  0.14678446693E+02  0.31931024784E+02  0.00000000000E+00 0. -1.
</event>
<event>
 7    1  0.2243370E-008  0.4614232E+02  0.7816164E-02  0.1320468E+00
        -11   -1    0    0    0    0  0.00000000000E+00  0.00000000000E+00  0.45593999997E+02  0.45594000000E+02  0.51100000000E-03 0.  1.
         11   -1    0    0    0    0 -0.00000000000E+00 -0.00000000000E+00 -0.45593999997E+02  0.45594000000E+02  0.51100000000E-03 0. -1.
    9900012    2    1    2    0    0  0.41387324285E+02  0.17747003295E+02  0.11165816551E+01  0.46142317721E+02  0.99999996319E+01 0.  0.
         12    1    1    2    0    0 -0.41387324285E+02 -0.17747003295E+02 -0.11165816551E+01  0.45045682279E+02  0.00000000000E+00 0. -1.
         11    1    3    3    0    0  0.12300535916E+02  0.44170967589E+01 -0.31058572698E+01  0.13433550434E+02  0.51100000000E-03 0. -1.
        -11    1    3    3    0    0  0.88431833894E+01  0.20084476183E+01 -0.31885849121E+00  0.90739972059E+01  0.51100000000E-03 0.  1.
         12    1    3    3    0    0  0.20243604979E+02  0.11321458918E+02  0.45412974161E+01  0.23634770081E+02  0.00000000000E+00 0. -1.
</event>
<event>
 7    1  0.2243370E-008  0.4614232E+02  0.7816164E-02  0.1320468E+00
        -11   -1    0    0    0    0  0.00000000000E+00  0.00000000000E+00  0.45593999997E+02  0.45594000000E+02  0.51100000000E-03 0.  1.
         11   -1    0    0    0    0 -0.00000000000E+00 -0.00000000000E+00 -0.45593999997E+02  0.45594000000E+02  0.51100000000E-03 0. -1.
    9900012    2    1    2    0    0 -0.33620481256E+02 -0.10531029685E+02  0.28069090233E+02  0.46142321266E+02  0.10000031961E+02 0.  0.
         12    1    1    2    0    0  0.33620481256E+02  0.10531029685E+02 -0.28069090233E+02  0.45045678734E+02  0.00000000000E+00 0. -1.
         11    1    3    3    0    0 -0.13373776351E+02 -0.65715059793E+01  0.11084387811E+02  0.18571651465E+02  0.51100000000E-03 0. -1.
        -11    1    3    3    0    0 -0.12842862940E+02 -0.35076527169E+01  0.67388708842E+01  0.14921633193E+02  0.51100000000E-03 0.  1.
        -12    1    3    3    0    0 -0.74038419650E+01 -0.45187098890E+00  0.10245831538E+02  0.12649036609E+02  0.00000000000E+00 0.  1.
</event>
<event>
 7    1  0.2243370E-008  0.4614232E+02  0.7816164E-02  0.1320468E+00
        -11   -1    0    0    0    0  0.00000000000E+00  0.00000000000E+00  0.45593999997E+02  0.45594000000E+02  0.51100000000E-03 0.  1.
         11   -1    0    0    0    0 -0.00000000000E+00 -0.00000000000E+00 -0.45593999997E+02  0.45594000000E+02  0.51100000000E-03 0. -1.
    9900012    2    1    2    0    0 -0.13887155035E+02  0.37460159765E+00  0.42849971639E+02  0.46142317956E+02  0.10000001779E+02 0.  0.
         12    1    1    2    0    0  0.13887155035E+02 -0.37460159765E+00 -0.42849971639E+02  0.45045682044E+02  0.00000000000E+00 0. -1.
         11    1    3    3    0    0  0.41071586520E+00  0.95147743639E-02  0.64271587049E+01  0.64402754080E+01  0.51100000000E-03 0. -1.
        -11    1    3    3    0    0 -0.10886574528E+02  0.32024095392E+01  0.25395694233E+02  0.27815718895E+02  0.51100000000E-03 0.  1.
        -12    1    3    3    0    0 -0.34112963720E+01 -0.28373227159E+01  0.11027118701E+02  0.11886323653E+02  0.00000000000E+00 0.  1.
</event>
<event>
 7    1  0.2243370E-008  0.4614232E+02  0.7816164E-02  0.1320468E+00
        -11   -1    0    0    0    0  0.00000000000E+00  0.00000000000E+00  0.45593999997E+02  0.45594000000E+02  0.51100000000E-03 0.  1.
         11   -1    0    0    0    0 -0.00000000000E+00 -0.00000000000E+00 -0.45593999997E+02  0.45594000000E+02  0.51100000000E-03 0. -1.
    9900012    2    1    2    0    0  0.15768633688E+02  0.40819017698E+02  0.10689784188E+02  0.46142317630E+02  0.99999988026E+01 0.  0.
         12    1    1    2    0    0 -0.15768633688E+02 -0.40819017698E+02 -0.10689784188E+02  0.45045682370E+02  0.00000000000E+00 0. -1.
         11    1    3    3    0    0  0.83358687911E+01  0.16398062107E+02  0.27197135645E+01  0.18595160432E+02  0.51100000000E-03 0. -1.
        -11    1    3    3    0    0 -0.62027752923E-01  0.72000771937E+01  0.14695048715E+00  0.72018437740E+01  0.51100000000E-03 0.  1.
        -12    1    3    3    0    0  0.74947926502E+01  0.17220878397E+02  0.78231201362E+01  0.20345313423E+02  0.00000000000E+00 0.  1.
</event>
<event>
 7    1  0.2243370E-008  0.4614232E+02  0.7816164E-02  0.1320468E+00
        -11   -1    0    0    0    0  0.00000000000E+00  0.00000000000E+00  0.45593999997E+02  0.45594000000E+02  0.51100000000E-03 0.  1.
         11   -1    0    0    0    0 -0.00000000000E+00 -0.00000000000E+00 -0.45593999997E+02  0.45594000000E+02  0.51100000000E-03 0. -1.
    9900012    2    1    2    0    0 -0.12591990669E+02 -0.26688590333E+02  0.34033430438E+02  0.46142317961E+02  0.10000001822E+02 0.  0.
         12    1    1    2    0    0  0.12591990669E+02  0.26688590333E+02 -0.34033430438E+02  0.45045682039E+02  0.00000000000E+00 0. -1.
         11    1    3    3    0    0 -0.14674484745E+01 -0.20292305453E+01  0.83386926838E+01  0.87066053987E+01  0.51100000000E-03 0. -1.
        -11    1    3    3    0    0 -0.18425838410E+01 -0.53165619024E+01  0.38543204275E+01  0.68203175800E+01  0.51100000000E-03 0.  1.
        -12    1    3    3    0    0 -0.92819583537E+01 -0.19342797885E+02  0.21840417327E+02  0.30615394982E+02  0.00000000000E+00 0.  1.
</event>
<event>
 7    1  0.2243370E-008  0.4614231E+02  0.7816164E-02  0.1320468E+00
        -11   -1    0    0    0    0  0.00000000000E+00  0.00000000000E+00  0.45593999997E+02  0.45594000000E+02  0.51100000000E-03 0.  1.
         11   -1    0    0    0    0 -0.00000000000E+00 -0.00000000000E+00 -0.45593999997E+02  0.45594000000E+02  0.51100000000E-03 0. -1.
    9900012    2    1    2    0    0  0.24350834061E+02 -0.10707930598E+02  0.36352315759E+02  0.46142314766E+02  0.99999726879E+01 0.  0.
         12    1    1    2    0    0 -0.24350834061E+02  0.10707930598E+02 -0.36352315759E+02  0.45045685234E+02  0.00000000000E+00 0. -1.
         11    1    3    3    0    0  0.20519755286E+02 -0.64833409300E+01  0.24954145381E+02  0.32951531658E+02  0.51100000000E-03 0. -1.
        -11    1    3    3    0    0  0.39496929027E+01 -0.45579262568E+01  0.94488799814E+01  0.11209643123E+02  0.51100000000E-03 0.  1.
         12    1    3    3    0    0 -0.11861412730E+00  0.33333658847E+00  0.19492903959E+01  0.19811399850E+01  0.00000000000E+00 0. -1.
</event>
<event>
 7    1  0.2243370E-008  0.4614232E+02  0.7816164E-02  0.1320468E+00
        -11   -1    0    0    0    0  0.00000000000E+00  0.00000000000E+00  0.45593999997E+02  0.45594000000E+02  0.51100000000E-03 0.  1.
         11   -1    0    0    0    0 -0.00000000000E+00 -0.00000000000E+00 -0.45593999997E+02  0.45594000000E+02  0.51100000000E-03 0. -1.
    9900012    2    1    2    0    0  0.66772610017E+01  0.43226186025E+02  0.10771469637E+02  0.46142317289E+02  0.99999956979E+01 0.  0.
         12    1    1    2    0    0 -0.66772610017E+01 -0.43226186025E+02 -0.10771469637E+02  0.45045682711E+02  0.00000000000E+00 0. -1.
         11    1    3    3    0    0  0.38976869106E+01  0.18014592606E+02  0.42712553037E+01  0.18919860785E+02  0.51100000000E-03 0. -1.
        -11    1    3    3    0    0  0.51068522197E+01  0.19238646573E+02  0.37888680535E+01  0.20262304483E+02  0.51100000000E-03 0.  1.
         12    1    3    3    0    0 -0.23272781286E+01  0.59729468454E+01  0.27113462798E+01  0.69601520210E+01  0.00000000000E+00 0. -1.
</event>
<event>
 7    1  0.2243370E-008  0.4614233E+02  0.7816164E-02  0.1320468E+00
        -11   -1    0    0    0    0  0.00000000000E+00  0.00000000000E+00  0.45593999997E+02  0.45594000000E+02  0.51100000000E-03 0.  1.
         11   -1    0    0    0    0 -0.00000000000E+00 -0.00000000000E+00 -0.45593999997E+02  0.45594000000E+02  0.51100000000E-03 0. -1.
    9900012    2    1    2    0    0 -0.13282542887E+02 -0.25121395374E+01  0.42969476551E+02  0.46142326449E+02  0.10000079220E+02 0.  0.
         12    1    1    2    0    0  0.13282542887E+02  0.25121395374E+01 -0.42969476551E+02  0.45045673551E+02  0.00000000000E+00 0. -1.
         11    1    3    3    0    0 -0.63424487816E+01 -0.25005556855E+01  0.29434680971E+02  0.30213902089E+02  0.51100000000E-03 0.  1.
        -11    1    3    3    0    0  0.45930556837E+00 -0.44613950353E+00  0.19786022763E+00  0.67018728169E+00  0.51100000000E-03 0. -1.
        -12    1    3    3    0    0 -0.73993996735E+01  0.43455565157E+00  0.13336935353E+02  0.15258237078E+02  0.00000000000E+00 0.  1.
</event>
<event>
 7    1  0.2243370E-008  0.4614232E+02  0.7816164E-02  0.1320468E+00
        -11   -1    0    0    0    0  0.00000000000E+00  0.00000000000E+00  0.45593999997E+02  0.45594000000E+02  0.51100000000E-03 0. -1.
         11   -1    0    0    0    0 -0.00000000000E+00 -0.00000000000E+00 -0.45593999997E+02  0.45594000000E+02  0.51100000000E-03 0.  1.
    9900012    2    1    2    0    0  0.40266807689E+02 -0.19625822271E+02  0.47460490324E+01  0.46142315604E+02  0.99999803288E+01 0.  0.
         12    1    1    2    0    0 -0.40266807689E+02  0.19625822271E+02 -0.47460490324E+01  0.45045684396E+02  0.00000000000E+00 0. -1.
         11    1    3    3    0    0  0.21709519793E+02 -0.10907142920E+02  0.13238501747E+01  0.24331493909E+02  0.51100000000E-03 0. -1.
        -11    1    3    3    0    0  0.18063310342E+02 -0.92142661947E+01  0.21924025738E+01  0.20395894472E+02  0.51100000000E-03 0.  1.
         12    1    3    3    0    0  0.49397755513E+00  0.49558684454E+00  0.12297962838E+01  0.14149272226E+01  0.00000000000E+00 0. -1.
</event>
<event>
 7    1  0.2243370E-008  0.4614232E+02  0.7816164E-02  0.1320468E+00
        -11   -1    0    0    0    0  0.00000000000E+00  0.00000000000E+00  0.45593999997E+02  0.45594000000E+02  0.51100000000E-03 0. -1.
         11   -1    0    0    0    0 -0.00000000000E+00 -0.00000000000E+00 -0.45593999997E+02  0.45594000000E+02  0.51100000000E-03 0.  1.
    9900012    2    1    2    0    0  0.23339912117E+02 -0.20672960847E+02 -0.32511393787E+02  0.46142317257E+02  0.99999954006E+01 0.  0.
         12    1    1    2    0    0 -0.23339912117E+02  0.20672960847E+02  0.32511393787E+02  0.45045682743E+02  0.00000000000E+00 0. -1.
         11    1    3    3    0    0  0.10887413093E+02 -0.41696570378E+01 -0.13274307869E+02  0.17667174458E+02  0.51100000000E-03 0. -1.
        -11    1    3    3    0    0  0.48966505783E+01 -0.56873899438E+01 -0.47563477450E+01  0.88851806617E+01  0.51100000000E-03 0.  1.
         12    1    3    3    0    0  0.75558484454E+01 -0.10815913865E+02 -0.14480738174E+02  0.19589962137E+02  0.00000000000E+00 0. -1.
</event>
<event>
 7    1  0.2243370E-008  0.4614232E+02  0.7816164E-02  0.1320468E+00
        -11   -1    0    0    0    0  0.00000000000E+00  0.00000000000E+00  0.45593999997E+02  0.45594000000E+02  0.51100000000E-03 0.  1.
         11   -1    0    0    0    0 -0.00000000000E+00 -0.00000000000E+00 -0.45593999997E+02  0.45594000000E+02  0.51100000000E-03 0. -1.
    9900012    2    1    2    0    0  0.93640821147E+01 -0.19485334470E+02  0.39518970758E+02  0.46142319375E+02  0.10000014712E+02 0.  0.
         12    1    1    2    0    0 -0.93640821147E+01  0.19485334470E+02 -0.39518970758E+02  0.45045680625E+02  0.00000000000E+00 0. -1.
         11    1    3    3    0    0  0.78424480382E+00 -0.58710922353E+01  0.17299947766E+02  0.18285867683E+02  0.51100000000E-03 0. -1.
        -11    1    3    3    0    0  0.16797092098E+01 -0.60448625615E+01  0.11013864693E+02  0.12675448795E+02  0.51100000000E-03 0.  1.
         12    1    3    3    0    0  0.69001281011E+01 -0.75693796732E+01  0.11205158299E+02  0.15181002897E+02  0.00000000000E+00 0. -1.
</event>
<event>
 7    1  0.2243370E-008  0.4614232E+02  0.7816164E-02  0.1320468E+00
        -11   -1    0    0    0    0  0.00000000000E+00  0.00000000000E+00  0.45593999997E+02  0.45594000000E+02  0.51100000000E-03 0. -1.
         11   -1    0    0    0    0 -0.00000000000E+00 -0.00000000000E+00 -0.45593999997E+02  0.45594000000E+02  0.51100000000E-03 0.  1.
    9900012    2    1    2    0    0  0.11495187470E+02  0.73255836310E+01 -0.42933786030E+02  0.46142317705E+02  0.99999994923E+01 0.  0.
         12    1    1    2    0    0 -0.11495187470E+02 -0.73255836310E+01  0.42933786030E+02  0.45045682295E+02  0.00000000000E+00 0. -1.
         11    1    3    3    0    0  0.38540615707E+01  0.65706974050E+00 -0.23120776689E+02  0.23449005228E+02  0.51100000000E-03 0.  1.
        -11    1    3    3    0    0  0.80728509954E+01  0.67527145621E+01 -0.19480863480E+02  0.22142134480E+02  0.51100000000E-03 0. -1.
         12    1    3    3    0    0 -0.43172509557E+00 -0.84200671645E-01 -0.33214586075E+00  0.55117799671E+00  0.00000000000E+00 0. -1.
</event>
<event>
 7    1  0.2243370E-008  0.4614232E+02  0.7816164E-02  0.1320468E+00
        -11   -1    0    0    0    0  0.00000000000E+00  0.00000000000E+00  0.45593999997E+02  0.45594000000E+02  0.51100000000E-03 0.  1.
         11   -1    0    0    0    0 -0.00000000000E+00 -0.00000000000E+00 -0.45593999997E+02  0.45594000000E+02  0.51100000000E-03 0. -1.
    9900012    2    1    2    0    0 -0.13485853171E+02  0.34219901562E+01  0.42843146863E+02  0.46142317793E+02  0.10000000289E+02 0.  0.
         12    1    1    2    0    0  0.13485853171E+02 -0.34219901562E+01 -0.42843146863E+02  0.45045682207E+02  0.00000000000E+00 0. -1.
         11    1    3    3    0    0 -0.10556864040E+02  0.21887586663E+01  0.24074670719E+02  0.26378548356E+02  0.51100000000E-03 0. -1.
        -11    1    3    3    0    0 -0.33262467662E+01  0.26830342428E+01  0.10115103705E+02  0.10980797490E+02  0.51100000000E-03 0.  1.
         12    1    3    3    0    0  0.39725763545E+00 -0.14498027529E+01  0.86533724394E+01  0.87829719473E+01  0.00000000000E+00 0. -1.
</event>
<event>
 7    1  0.2243370E-008  0.4614232E+02  0.7816164E-02  0.1320468E+00
        -11   -1    0    0    0    0  0.00000000000E+00  0.00000000000E+00  0.45593999997E+02  0.45594000000E+02  0.51100000000E-03 0. -1.
         11   -1    0    0    0    0 -0.00000000000E+00 -0.00000000000E+00 -0.45593999997E+02  0.45594000000E+02  0.51100000000E-03 0.  1.
    9900012    2    1    2    0    0  0.71370424403E+01  0.18979556562E+02 -0.40223782490E+02  0.46142316301E+02  0.99999866846E+01 0.  0.
         12    1    1    2    0    0 -0.71370424403E+01 -0.18979556562E+02  0.40223782490E+02  0.45045683699E+02  0.00000000000E+00 0. -1.
         11    1    3    3    0    0  0.61871703943E+01  0.71531034307E+01 -0.20211419265E+02  0.22314780643E+02  0.51100000000E-03 0.  1.
        -11    1    3    3    0    0  0.65889015432E+00  0.12325913845E+02 -0.19307355876E+02  0.22915852145E+02  0.51100000000E-03 0. -1.
        -12    1    3    3    0    0  0.29098189162E+00 -0.49946071311E+00 -0.70500734868E+00  0.91168351246E+00  0.00000000000E+00 0.  1.
</event>
<event>
 7    1  0.2243370E-008  0.4614232E+02  0.7816164E-02  0.1320468E+00
        -11   -1    0    0    0    0  0.00000000000E+00  0.00000000000E+00  0.45593999997E+02  0.45594000000E+02  0.51100000000E-03 0.  1.
         11   -1    0    0    0    0 -0.00000000000E+00 -0.00000000000E+00 -0.45593999997E+02  0.45594000000E+02  0.51100000000E-03 0. -1.
    9900012    2    1    2    0    0  0.32387167515E+02  0.30405656909E+02  0.74619639787E+01  0.46142317653E+02  0.99999990133E+01 0.  0.
         12    1    1    2    0    0 -0.32387167515E+02 -0.30405656909E+02 -0.74619639787E+01  0.45045682347E+02  0.00000000000E+00 0. -1.
         11    1    3    3    0    0  0.39704899750E+01  0.47179382027E+01  0.12024182148E+00  0.61675108336E+01  0.51100000000E-03 0. -1.
        -11    1    3    3    0    0  0.13119580508E+02  0.13293465918E+02  0.78989674012E+01  0.20278888408E+02  0.51100000000E-03 0.  1.
        -12    1    3    3    0    0  0.15297097032E+02  0.12394252788E+02 -0.55724524399E+00  0.19695918411E+02  0.00000000000E+00 0.  1.
</event>
<event>
 7    1  0.2243370E-008  0.4614232E+02  0.7816164E-02  0.1320468E+00
        -11   -1    0    0    0    0  0.00000000000E+00  0.00000000000E+00  0.45593999997E+02  0.45594000000E+02  0.51100000000E-03 0.  1.
         11   -1    0    0    0    0 -0.00000000000E+00 -0.00000000000E+00 -0.45593999997E+02  0.45594000000E+02  0.51100000000E-03 0. -1.
    9900012    2    1    2    0    0  0.19798103752E+02 -0.56603954429E+01  0.40063802187E+02  0.46142320580E+02  0.10000025701E+02 0.  0.
         12    1    1    2    0    0 -0.19798103752E+02  0.56603954429E+01 -0.40063802187E+02  0.45045679420E+02  0.00000000000E+00 0. -1.
         11    1    3    3    0    0  0.43507816414E+01 -0.16090060063E+01  0.44084269204E+01  0.63994085190E+01  0.51100000000E-03 0. -1.
        -11    1    3    3    0    0  0.99840783304E+01  0.96572565643E+00  0.18295828080E+02  0.20865084988E+02  0.51100000000E-03 0.  1.
         12    1    3    3    0    0  0.54632437801E+01 -0.50171150930E+01  0.17359547187E+02  0.18877827073E+02  0.00000000000E+00 0. -1.
</event>
<event>
 7    1  0.2243370E-008  0.4614232E+02  0.7816164E-02  0.1320468E+00
        -11   -1    0    0    0    0  0.00000000000E+00  0.00000000000E+00  0.45593999997E+02  0.45594000000E+02  0.51100000000E-03 0. -1.
         11   -1    0    0    0    0 -0.00000000000E+00 -0.00000000000E+00 -0.45593999997E+02  0.45594000000E+02  0.51100000000E-03 0.  1.
    9900012    2    1    2    0    0 -0.35562660261E+02 -0.25945004693E+02 -0.95534030012E+01  0.46142316719E+02  0.99999905011E+01 0.  0.
         12    1    1    2    0    0  0.35562660261E+02  0.25945004693E+02  0.95534030012E+01  0.45045683281E+02  0.00000000000E+00 0. -1.
         11    1    3    3    0    0 -0.60165338119E+01 -0.36518774617E+01  0.84738237846E-01  0.70386127138E+01  0.51100000000E-03 0. -1.
        -11    1    3    3    0    0 -0.26006911160E+01 -0.13059291277E+01 -0.32403161002E+01  0.43553064023E+01  0.51100000000E-03 0.  1.
        -12    1    3    3    0    0 -0.26945435333E+02 -0.20987198103E+02 -0.63978251388E+01  0.34748397603E+02  0.00000000000E+00 0.  1.
</event>
<event>
 7    1  0.2243370E-008  0.4614232E+02  0.7816164E-02  0.1320468E+00
        -11   -1    0    0    0    0  0.00000000000E+00  0.00000000000E+00  0.45593999997E+02  0.45594000000E+02  0.51100000000E-03 0.  1.
         11   -1    0    0    0    0 -0.00000000000E+00 -0.00000000000E+00 -0.45593999997E+02  0.45594000000E+02  0.51100000000E-03 0. -1.
    9900012    2    1    2    0    0  0.14956703877E+02 -0.13486733412E+02  0.40292908995E+02  0.46142317807E+02  0.10000000414E+02 0.  0.
         12    1    1    2    0    0 -0.14956703877E+02  0.13486733412E+02 -0.40292908995E+02  0.45045682193E+02  0.00000000000E+00 0. -1.
         11    1    3    3    0    0  0.13060729753E+02 -0.72028356676E+01  0.23352159151E+02  0.27708966791E+02  0.51100000000E-03 0.  1.
        -11    1    3    3    0    0 -0.42720944346E+00  0.44605693821E-01  0.47184497161E+00  0.63807171608E+00  0.51100000000E-03 0. -1.
        -12    1    3    3    0    0  0.23231835672E+01 -0.63285034379E+01  0.16468904872E+02  0.17795279299E+02  0.00000000000E+00 0.  1.
</event>
<event>
 7    1  0.2243370E-008  0.4614232E+02  0.7816164E-02  0.1320468E+00
        -11   -1    0    0    0    0  0.00000000000E+00  0.00000000000E+00  0.45593999997E+02  0.45594000000E+02  0.51100000000E-03 0.  1.
         11   -1    0    0    0    0 -0.00000000000E+00 -0.00000000000E+00 -0.45593999997E+02  0.45594000000E+02  0.51100000000E-03 0. -1.
    9900012    2    1    2    0    0 -0.14221387509E+02 -0.13089277789E+02  0.40688282219E+02  0.46142319124E+02  0.10000012426E+02 0.  0.
         12    1    1    2    0    0  0.14221387509E+02  0.13089277789E+02 -0.40688282219E+02  0.45045680876E+02  0.00000000000E+00 0. -1.
         11    1    3    3    0    0 -0.60644292460E+01 -0.71047369956E+01  0.21562430904E+02  0.23498787556E+02  0.51100000000E-03 0. -1.
        -11    1    3    3    0    0 -0.59195541676E+01 -0.73349654744E+01  0.15991560156E+02  0.18562673206E+02  0.51100000000E-03 0.  1.
         12    1    3    3    0    0 -0.22374040951E+01  0.13504246811E+01  0.31342911581E+01  0.40808583617E+01  0.00000000000E+00 0. -1.
</event>
<event>
 7    1  0.2243370E-008  0.4614232E+02  0.7816164E-02  0.1320468E+00
        -11   -1    0    0    0    0  0.00000000000E+00  0.00000000000E+00  0.45593999997E+02  0.45594000000E+02  0.51100000000E-03 0.  1.
         11   -1    0    0    0    0 -0.00000000000E+00 -0.00000000000E+00 -0.45593999997E+02  0.45594000000E+02  0.51100000000E-03 0. -1.
    9900012    2    1    2    0    0 -0.29291971889E+02 -0.26648215112E+02  0.21470130365E+02  0.46142317813E+02  0.10000000473E+02 0.  0.
         12    1    1    2    0    0  0.29291971889E+02  0.26648215112E+02 -0.21470130365E+02  0.45045682187E+02  0.00000000000E+00 0. -1.
         11    1    3    3    0    0 -0.21585215651E+02 -0.14705232839E+02  0.12401823804E+02  0.28913156892E+02  0.51100000000E-03 0. -1.
        -11    1    3    3    0    0 -0.18634019290E+01 -0.37869482801E+01  0.95810309021E+00  0.43279563095E+01  0.51100000000E-03 0.  1.
         12    1    3    3    0    0 -0.58433543083E+01 -0.81560339932E+01  0.81102034715E+01  0.12901204611E+02  0.00000000000E+00 0. -1.
</event>
<event>
 7    1  0.2243370E-008  0.4614232E+02  0.7816164E-02  0.1320468E+00
        -11   -1    0    0    0    0  0.00000000000E+00  0.00000000000E+00  0.45593999997E+02  0.45594000000E+02  0.51100000000E-03 0.  1.
         11   -1    0    0    0    0 -0.00000000000E+00 -0.00000000000E+00 -0.45593999997E+02  0.45594000000E+02  0.51100000000E-03 0. -1.
    9900012    2    1    2    0    0 -0.26420599097E+02 -0.14961541280E+01  0.36453078729E+02  0.46142317825E+02  0.10000000582E+02 0.  0.
         12    1    1    2    0    0  0.26420599097E+02  0.14961541280E+01 -0.36453078729E+02  0.45045682175E+02  0.00000000000E+00 0. -1.
         11    1    3    3    0    0 -0.10613596452E+02 -0.20095202564E+01  0.92165665879E+01  0.14199707787E+02  0.51100000000E-03 0. -1.
        -11    1    3    3    0    0 -0.65128841733E+01 -0.16439578398E+01  0.14923488796E+02  0.16365536220E+02  0.51100000000E-03 0.  1.
        -12    1    3    3    0    0 -0.92941184718E+01  0.21573239681E+01  0.12313023344E+02  0.15577073819E+02  0.00000000000E+00 0.  1.
</event>
<event>
 7    1  0.2243370E-008  0.4614232E+02  0.7816164E-02  0.1320468E+00
        -11   -1    0    0    0    0  0.00000000000E+00  0.00000000000E+00  0.45593999997E+02  0.45594000000E+02  0.51100000000E-03 0.  1.
         11   -1    0    0    0    0 -0.00000000000E+00 -0.00000000000E+00 -0.45593999997E+02  0.45594000000E+02  0.51100000000E-03 0. -1.
    9900012    2    1    2    0    0 -0.44278814732E+02 -0.71709189480E+01  0.41325507537E+01  0.46142317762E+02  0.10000000005E+02 0.  0.
         12    1    1    2    0    0  0.44278814732E+02  0.71709189480E+01 -0.41325507537E+01  0.45045682238E+02  0.00000000000E+00 0. -1.
         11    1    3    3    0    0 -0.14751277345E+02 -0.32752164273E+01 -0.28353784854E+01  0.15374218594E+02  0.51100000000E-03 0. -1.
        -11    1    3    3    0    0 -0.86504307719E+01 -0.26714268991E+01  0.19338465940E+01  0.92577663141E+01  0.51100000000E-03 0.  1.
         12    1    3    3    0    0 -0.20877106615E+02 -0.12242756216E+01  0.50340826452E+01  0.21510332854E+02  0.00000000000E+00 0. -1.
</event>
<event>
 7    1  0.2243370E-008  0.4614232E+02  0.7816164E-02  0.1320468E+00
        -11   -1    0    0    0    0  0.00000000000E+00  0.00000000000E+00  0.45593999997E+02  0.45594000000E+02  0.51100000000E-03 0. -1.
         11   -1    0    0    0    0 -0.00000000000E+00 -0.00000000000E+00 -0.45593999997E+02  0.45594000000E+02  0.51100000000E-03 0.  1.
    9900012    2    1    2    0    0 -0.31175579807E+02  0.15139234042E+00 -0.32514210846E+02  0.46142316490E+02  0.99999884112E+01 0.  0.
         12    1    1    2    0    0  0.31175579807E+02 -0.15139234042E+00  0.32514210846E+02  0.45045683510E+02  0.00000000000E+00 0. -1.
         11    1    3    3    0    0 -0.14519592274E+02 -0.30105048671E+01 -0.16280996080E+02  0.22021637836E+02  0.51100000000E-03 0. -1.
        -11    1    3    3    0    0 -0.15067473070E+02  0.12376544499E+01 -0.12430315122E+02  0.19572257600E+02  0.51100000000E-03 0.  1.
         12    1    3    3    0    0 -0.15885144625E+01  0.19242427576E+01 -0.38028996440E+01  0.45484210546E+01  0.00000000000E+00 0. -1.
</event>
<event>
 7    1  0.2243370E-008  0.4614232E+02  0.7816164E-02  0.1320468E+00
        -11   -1    0    0    0    0  0.00000000000E+00  0.00000000000E+00  0.45593999997E+02  0.45594000000E+02  0.51100000000E-03 0. -1.
         11   -1    0    0    0    0 -0.00000000000E+00 -0.00000000000E+00 -0.45593999997E+02  0.45594000000E+02  0.51100000000E-03 0.  1.
    9900012    2    1    2    0    0  0.43676466484E+02 -0.10667398943E+02  0.27724434491E+01  0.46142316884E+02  0.99999920023E+01 0.  0.
         12    1    1    2    0    0 -0.43676466484E+02  0.10667398943E+02 -0.27724434491E+01  0.45045683116E+02  0.00000000000E+00 0. -1.
         11    1    3    3    0    0  0.21001161410E+02 -0.77647257966E+01  0.52654173119E+01  0.23001399240E+02  0.51100000000E-03 0. -1.
        -11    1    3    3    0    0  0.53492093422E+01 -0.91213167473E+00 -0.16855431468E+01  0.56821721849E+01  0.51100000000E-03 0.  1.
         12    1    3    3    0    0  0.17326095732E+02 -0.19905414715E+01 -0.80743071596E+00  0.17458745459E+02  0.00000000000E+00 0. -1.
</event>
<event>
 7    1  0.2243370E-008  0.4614232E+02  0.7816164E-02  0.1320468E+00
        -11   -1    0    0    0    0  0.00000000000E+00  0.00000000000E+00  0.45593999997E+02  0.45594000000E+02  0.51100000000E-03 0.  1.
         11   -1    0    0    0    0 -0.00000000000E+00 -0.00000000000E+00 -0.45593999997E+02  0.45594000000E+02  0.51100000000E-03 0. -1.
    9900012    2    1    2    0    0  0.37367464228E+02 -0.24536166892E+02  0.55464021625E+01  0.46142318236E+02  0.10000004333E+02 0.  0.
         12    1    1    2    0    0 -0.37367464228E+02  0.24536166892E+02 -0.55464021625E+01  0.45045681764E+02  0.00000000000E+00 0. -1.
         11    1    3    3    0    0  0.16992170365E+02 -0.14245602914E+02  0.50793206679E+00  0.22179473649E+02  0.51100000000E-03 0. -1.
        -11    1    3    3    0    0  0.78636858419E+01 -0.51621260486E+01 -0.33447224557E+00  0.94125964700E+01  0.51100000000E-03 0.  1.
         12    1    3    3    0    0  0.12511608021E+02 -0.51284379296E+01  0.53729423413E+01  0.14550248117E+02  0.00000000000E+00 0. -1.
</event>
<event>
 7    1  0.2243370E-008  0.4614232E+02  0.7816164E-02  0.1320468E+00
        -11   -1    0    0    0    0  0.00000000000E+00  0.00000000000E+00  0.45593999997E+02  0.45594000000E+02  0.51100000000E-03 0. -1.
         11   -1    0    0    0    0 -0.00000000000E+00 -0.00000000000E+00 -0.45593999997E+02  0.45594000000E+02  0.51100000000E-03 0.  1.
    9900012    2    1    2    0    0 -0.44860067928E+02  0.12426820685E+01  0.38914806706E+01  0.46142316799E+02  0.99999912311E+01 0.  0.
         12    1    1    2    0    0  0.44860067928E+02 -0.12426820685E+01 -0.38914806706E+01  0.45045683201E+02  0.00000000000E+00 0. -1.
         11    1    3    3    0    0 -0.40862694309E+01  0.25138975687E+01  0.83491347222E+00  0.48697391732E+01  0.51100000000E-03 0. -1.
        -11    1    3    3    0    0 -0.99063819537E+01 -0.26589814068E+01  0.99859719684E+00  0.10305521926E+02  0.51100000000E-03 0.  1.
        -12    1    3    3    0    0 -0.30867416543E+02  0.13877659066E+01  0.20579700015E+01  0.30967055701E+02  0.00000000000E+00 0.  1.
</event>
<event>
 7    1  0.2243370E-008  0.4614232E+02  0.7816164E-02  0.1320468E+00
        -11   -1    0    0    0    0  0.00000000000E+00  0.00000000000E+00  0.45593999997E+02  0.45594000000E+02  0.51100000000E-03 0.  1.
         11   -1    0    0    0    0 -0.00000000000E+00 -0.00000000000E+00 -0.45593999997E+02  0.45594000000E+02  0.51100000000E-03 0. -1.
    9900012    2    1    2    0    0  0.17792703382E+02 -0.31044710672E+02  0.27363463471E+02  0.46142317771E+02  0.10000000089E+02 0.  0.
         12    1    1    2    0    0 -0.17792703382E+02  0.31044710672E+02 -0.27363463471E+02  0.45045682229E+02  0.00000000000E+00 0. -1.
         11    1    3    3    0    0  0.13152361139E+02 -0.13475310557E+02  0.12030373243E+02  0.22344987778E+02  0.51100000000E-03 0. -1.
        -11    1    3    3    0    0  0.15565668559E+01 -0.77931453069E+01  0.65728755989E+01  0.10313035831E+02  0.51100000000E-03 0.  1.
         12    1    3    3    0    0  0.30837753866E+01 -0.97762548084E+01  0.87602146285E+01  0.13484294162E+02  0.00000000000E+00 0. -1.
</event>
<event>
 7    1  0.2243370E-008  0.4614232E+02  0.7816164E-02  0.1320468E+00
        -11   -1    0    0    0    0  0.00000000000E+00  0.00000000000E+00  0.45593999997E+02  0.45594000000E+02  0.51100000000E-03 0. -1.
         11   -1    0    0    0    0 -0.00000000000E+00 -0.00000000000E+00 -0.45593999997E+02  0.45594000000E+02  0.51100000000E-03 0.  1.
    9900012    2    1    2    0    0  0.26789392099E+02 -0.36181626491E+02  0.15270322003E+01  0.46142318166E+02  0.10000003692E+02 0.  0.
         12    1    1    2    0    0 -0.26789392099E+02  0.36181626491E+02 -0.15270322003E+01  0.45045681834E+02  0.00000000000E+00 0. -1.
         11    1    3    3    0    0  0.69488967126E+01 -0.10574479010E+02  0.39709506244E+01  0.13261795542E+02  0.51100000000E-03 0. -1.
        -11    1    3    3    0    0  0.12769985250E+02 -0.18516938868E+02  0.31040045956E+00  0.22495463921E+02  0.51100000000E-03 0.  1.
        -12    1    3    3    0    0  0.70705101366E+01 -0.70902086123E+01 -0.27543188837E+01  0.10385058703E+02  0.00000000000E+00 0.  1.
</event>
<event>
 7    1  0.2243370E-008  0.4614232E+02  0.7816164E-02  0.1320468E+00
        -11   -1    0    0    0    0  0.00000000000E+00  0.00000000000E+00  0.45593999997E+02  0.45594000000E+02  0.51100000000E-03 0. -1.
         11   -1    0    0    0    0 -0.00000000000E+00 -0.00000000000E+00 -0.45593999997E+02  0.45594000000E+02  0.51100000000E-03 0.  1.
    9900012    2    1    2    0    0  0.29054928763E-01 -0.33754682287E+02 -0.29828410119E+02  0.46142317958E+02  0.10000001793E+02 0.  0.
         12    1    1    2    0    0 -0.29054928763E-01  0.33754682287E+02  0.29828410119E+02  0.45045682042E+02  0.00000000000E+00 0. -1.
         11    1    3    3    0    0 -0.29385973198E+01 -0.16835773591E+02 -0.18749043184E+02  0.25369376169E+02  0.51100000000E-03 0. -1.
        -11    1    3    3    0    0  0.11203273875E+01 -0.23329607192E+01 -0.44108353003E+00  0.26253369525E+01  0.51100000000E-03 0.  1.
        -12    1    3    3    0    0  0.18473248611E+01 -0.14585947976E+02 -0.10638283405E+02  0.18147604837E+02  0.00000000000E+00 0.  1.
</event>
<event>
 7    1  0.2243370E-008  0.4614232E+02  0.7816164E-02  0.1320468E+00
        -11   -1    0    0    0    0  0.00000000000E+00  0.00000000000E+00  0.45593999997E+02  0.45594000000E+02  0.51100000000E-03 0.  1.
         11   -1    0    0    0    0 -0.00000000000E+00 -0.00000000000E+00 -0.45593999997E+02  0.45594000000E+02  0.51100000000E-03 0. -1.
    9900012    2    1    2    0    0  0.26853691664E+02  0.12741531195E+02  0.33847391861E+02  0.46142319753E+02  0.10000018160E+02 0.  0.
         12    1    1    2    0    0 -0.26853691664E+02 -0.12741531195E+02 -0.33847391861E+02  0.45045680247E+02  0.00000000000E+00 0. -1.
         11    1    3    3    0    0  0.31255526604E+01 -0.10439930887E+01  0.41285758285E+01  0.52824369031E+01  0.51100000000E-03 0. -1.
        -11    1    3    3    0    0  0.42095199720E+01  0.51593459636E+01  0.80538879483E+01  0.10450072751E+02  0.51100000000E-03 0.  1.
        -12    1    3    3    0    0  0.19518619032E+02  0.86261783198E+01  0.21664928084E+02  0.30409810098E+02  0.00000000000E+00 0.  1.
</event>
<event>
 7    1  0.2243370E-008  0.4614232E+02  0.7816164E-02  0.1320468E+00
        -11   -1    0    0    0    0  0.00000000000E+00  0.00000000000E+00  0.45593999997E+02  0.45594000000E+02  0.51100000000E-03 0.  1.
         11   -1    0    0    0    0 -0.00000000000E+00 -0.00000000000E+00 -0.45593999997E+02  0.45594000000E+02  0.51100000000E-03 0. -1.
    9900012    2    1    2    0    0 -0.31568791360E+02  0.15343585670E+02  0.28232944668E+02  0.46142319033E+02  0.10000011595E+02 0.  0.
         12    1    1    2    0    0  0.31568791360E+02 -0.15343585670E+02 -0.28232944668E+02  0.45045680967E+02  0.00000000000E+00 0. -1.
         11    1    3    3    0    0 -0.44195283228E+01  0.40056600889E+01  0.41398846808E+01  0.72605914893E+01  0.51100000000E-03 0. -1.
        -11    1    3    3    0    0 -0.18167075031E+02  0.10786482493E+02  0.19617291155E+02  0.28831041124E+02  0.51100000000E-03 0.  1.
        -12    1    3    3    0    0 -0.89821880060E+01  0.55144308820E+00  0.44757688323E+01  0.10050686419E+02  0.00000000000E+00 0.  1.
</event>
<event>
 7    1  0.2243370E-008  0.4614231E+02  0.7816164E-02  0.1320468E+00
        -11   -1    0    0    0    0  0.00000000000E+00  0.00000000000E+00  0.45593999997E+02  0.45594000000E+02  0.51100000000E-03 0. -1.
         11   -1    0    0    0    0 -0.00000000000E+00 -0.00000000000E+00 -0.45593999997E+02  0.45594000000E+02  0.51100000000E-03 0.  1.
    9900012    2    1    2    0    0  0.44892765636E+02  0.36658029276E+01 -0.56174036475E+00  0.46142311307E+02  0.99999411472E+01 0.  0.
         12    1    1    2    0    0 -0.44892765636E+02 -0.36658029276E+01  0.56174036475E+00  0.45045688693E+02  0.00000000000E+00 0. -1.
         11    1    3    3    0    0  0.14502167145E+02 -0.25524422361E+01 -0.36515800541E+00  0.14729601281E+02  0.51100000000E-03 0. -1.
        -11    1    3    3    0    0  0.86776036190E+01 -0.42813609466E+00 -0.50968346008E+00  0.87030961487E+01  0.51100000000E-03 0.  1.
         12    1    3    3    0    0  0.21712994872E+02  0.66463812583E+01  0.31310110074E+00  0.22709613877E+02  0.00000000000E+00 0. -1.
</event>
<event>
 7    1  0.2243370E-008  0.4614232E+02  0.7816164E-02  0.1320468E+00
        -11   -1    0    0    0    0  0.00000000000E+00  0.00000000000E+00  0.45593999997E+02  0.45594000000E+02  0.51100000000E-03 0.  1.
         11   -1    0    0    0    0 -0.00000000000E+00 -0.00000000000E+00 -0.45593999997E+02  0.45594000000E+02  0.51100000000E-03 0. -1.
    9900012    2    1    2    0    0 -0.28021682406E+02  0.18134673435E+02  0.30249503056E+02  0.46142317626E+02  0.99999987645E+01 0.  0.
         12    1    1    2    0    0  0.28021682406E+02 -0.18134673435E+02 -0.30249503056E+02  0.45045682374E+02  0.00000000000E+00 0. -1.
         11    1    3    3    0    0 -0.10027241791E+02  0.10386688052E+02  0.97583364479E+01  0.17425670636E+02  0.51100000000E-03 0. -1.
        -11    1    3    3    0    0 -0.31874121611E+01 -0.33308815530E+00  0.40084880569E+01  0.51321068546E+01  0.51100000000E-03 0.  1.
        -12    1    3    3    0    0 -0.14807028453E+02  0.80810735384E+01  0.16482678551E+02  0.23584540135E+02  0.00000000000E+00 0.  1.
</event>
<event>
 7    1  0.2243370E-008  0.4614232E+02  0.7816164E-02  0.1320468E+00
        -11   -1    0    0    0    0  0.00000000000E+00  0.00000000000E+00  0.45593999997E+02  0.45594000000E+02  0.51100000000E-03 0.  1.
         11   -1    0    0    0    0 -0.00000000000E+00 -0.00000000000E+00 -0.45593999997E+02  0.45594000000E+02  0.51100000000E-03 0. -1.
    9900012    2    1    2    0    0 -0.16133218134E+02  0.12403191148E+02  0.40186983799E+02  0.46142317134E+02  0.99999942792E+01 0.  0.
         12    1    1    2    0    0  0.16133218134E+02 -0.12403191148E+02 -0.40186983799E+02  0.45045682866E+02  0.00000000000E+00 0. -1.
         11    1    3    3    0    0 -0.21941246373E+01  0.29279413085E-01  0.39016399738E+01  0.44763640328E+01  0.51100000000E-03 0. -1.
        -11    1    3    3    0    0 -0.10275626451E+02  0.99606265704E+01  0.33604264402E+02  0.36524637807E+02  0.51100000000E-03 0.  1.
        -12    1    3    3    0    0 -0.36634670458E+01  0.24132851643E+01  0.26810794228E+01  0.51413152939E+01  0.00000000000E+00 0.  1.
</event>
<event>
 7    1  0.2243370E-008  0.4614232E+02  0.7816164E-02  0.1320468E+00
        -11   -1    0    0    0    0  0.00000000000E+00  0.00000000000E+00  0.45593999997E+02  0.45594000000E+02  0.51100000000E-03 0.  1.
         11   -1    0    0    0    0 -0.00000000000E+00 -0.00000000000E+00 -0.45593999997E+02  0.45594000000E+02  0.51100000000E-03 0. -1.
    9900012    2    1    2    0    0  0.15813795263E+01 -0.10153657463E+02  0.43857905134E+02  0.46142319144E+02  0.10000012609E+02 0.  0.
         12    1    1    2    0    0 -0.15813795263E+01  0.10153657463E+02 -0.43857905134E+02  0.45045680856E+02  0.00000000000E+00 0. -1.
         11    1    3    3    0    0 -0.11457878125E+00 -0.74665978763E+01  0.21245099635E+02  0.22519268881E+02  0.51100000000E-03 0. -1.
        -11    1    3    3    0    0  0.29455277639E+01  0.36195452568E+00  0.60866749373E+01  0.67716140573E+01  0.51100000000E-03 0.  1.
        -12    1    3    3    0    0 -0.12495694563E+01 -0.30490141120E+01  0.16526130561E+02  0.16851436206E+02  0.00000000000E+00 0.  1.
</event>
<event>
 7    1  0.2243370E-008  0.4614232E+02  0.7816164E-02  0.1320468E+00
        -11   -1    0    0    0    0  0.00000000000E+00  0.00000000000E+00  0.45593999997E+02  0.45594000000E+02  0.51100000000E-03 0. -1.
         11   -1    0    0    0    0 -0.00000000000E+00 -0.00000000000E+00 -0.45593999997E+02  0.45594000000E+02  0.51100000000E-03 0.  1.
    9900012    2    1    2    0    0  0.19323460366E+02 -0.39710722860E+02 -0.88755640004E+01  0.46142320219E+02  0.10000022412E+02 0.  0.
         12    1    1    2    0    0 -0.19323460366E+02  0.39710722860E+02  0.88755640004E+01  0.45045679781E+02  0.00000000000E+00 0. -1.
         11    1    3    3    0    0  0.78521790611E+01 -0.13670560009E+02 -0.36472652020E+01  0.16181578127E+02  0.51100000000E-03 0. -1.
        -11    1    3    3    0    0  0.11439771976E+02 -0.23649627461E+02 -0.67529897384E+01  0.27125193687E+02  0.51100000000E-03 0.  1.
         12    1    3    3    0    0  0.31509328442E-01 -0.23905353908E+01  0.15246909400E+01  0.28355484047E+01  0.00000000000E+00 0. -1.
</event>
<event>
 7    1  0.2243370E-008  0.4614232E+02  0.7816164E-02  0.1320468E+00
        -11   -1    0    0    0    0  0.00000000000E+00  0.00000000000E+00  0.45593999997E+02  0.45594000000E+02  0.51100000000E-03 0.  1.
         11   -1    0    0    0    0 -0.00000000000E+00 -0.00000000000E+00 -0.45593999997E+02  0.45594000000E+02  0.51100000000E-03 0. -1.
    9900012    2    1    2    0    0  0.15792294408E+02  0.25556549014E+02  0.33564560498E+02  0.46142317836E+02  0.10000000682E+02 0.  0.
         12    1    1    2    0    0 -0.15792294408E+02 -0.25556549014E+02 -0.33564560498E+02  0.45045682164E+02  0.00000000000E+00 0. -1.
         11    1    3    3    0    0  0.66059918294E+01  0.10869618592E+02  0.11405946463E+02  0.17084593977E+02  0.51100000000E-03 0. -1.
        -11    1    3    3    0    0  0.77777354520E+01  0.14496181713E+02  0.16797814073E+02  0.23511678181E+02  0.51100000000E-03 0.  1.
        -12    1    3    3    0    0  0.14085671267E+01  0.19074870959E+00  0.53607999623E+01  0.55460456775E+01  0.00000000000E+00 0.  1.
</event>
<event>
 7    1  0.2243370E-008  0.4614232E+02  0.7816164E-02  0.1320468E+00
        -11   -1    0    0    0    0  0.00000000000E+00  0.00000000000E+00  0.45593999997E+02  0.45594000000E+02  0.51100000000E-03 0.  1.
         11   -1    0    0    0    0 -0.00000000000E+00 -0.00000000000E+00 -0.45593999997E+02  0.45594000000E+02  0.51100000000E-03 0. -1.
    9900012    2    1    2    0    0 -0.25505528705E+02  0.11193192358E+02  0.35401892277E+02  0.46142317338E+02  0.99999961413E+01 0.  0.
         12    1    1    2    0    0  0.25505528705E+02 -0.11193192358E+02 -0.35401892277E+02  0.45045682662E+02  0.00000000000E+00 0. -1.
         11    1    3    3    0    0 -0.11670784844E+02  0.86207270610E+00  0.11031888347E+02  0.16082690975E+02  0.51100000000E-03 0. -1.
        -11    1    3    3    0    0 -0.48147412021E+01  0.41964496254E+01  0.11789700286E+02  0.13408540390E+02  0.51100000000E-03 0.  1.
        -12    1    3    3    0    0 -0.90200026586E+01  0.61346700270E+01  0.12580303645E+02  0.16651085973E+02  0.00000000000E+00 0.  1.
</event>
<event>
 7    1  0.2243370E-008  0.4614232E+02  0.7816164E-02  0.1320468E+00
        -11   -1    0    0    0    0  0.00000000000E+00  0.00000000000E+00  0.45593999997E+02  0.45594000000E+02  0.51100000000E-03 0. -1.
         11   -1    0    0    0    0 -0.00000000000E+00 -0.00000000000E+00 -0.45593999997E+02  0.45594000000E+02  0.51100000000E-03 0.  1.
    9900012    2    1    2    0    0 -0.39488636604E+01 -0.11963273597E+01 -0.44856312650E+02  0.46142317544E+02  0.99999980190E+01 0.  0.
         12    1    1    2    0    0  0.39488636604E+01  0.11963273597E+01  0.44856312650E+02  0.45045682456E+02  0.00000000000E+00 0. -1.
         11    1    3    3    0    0  0.11345628572E+01  0.12744268579E+01 -0.17610310150E+02  0.17692778768E+02  0.51100000000E-03 0. -1.
        -11    1    3    3    0    0 -0.41450850882E+01  0.93078175769E+00 -0.19190418547E+02  0.19655031146E+02  0.51100000000E-03 0.  1.
         12    1    3    3    0    0 -0.93834142946E+00 -0.34015359753E+01 -0.80555839539E+01  0.87945076308E+01  0.00000000000E+00 0. -1.
</event>
<event>
 7    1  0.2243370E-008  0.4614232E+02  0.7816164E-02  0.1320468E+00
        -11   -1    0    0    0    0  0.00000000000E+00  0.00000000000E+00  0.45593999997E+02  0.45594000000E+02  0.51100000000E-03 0.  1.
         11   -1    0    0    0    0 -0.00000000000E+00 -0.00000000000E+00 -0.45593999997E+02  0.45594000000E+02  0.51100000000E-03 0. -1.
    9900012    2    1    2    0    0  0.30254118441E+02 -0.30518075328E+02 -0.13507362493E+02  0.46142318232E+02  0.10000004295E+02 0.  0.
         12    1    1    2    0    0 -0.30254118441E+02  0.30518075328E+02  0.13507362493E+02  0.45045681768E+02  0.00000000000E+00 0. -1.
         11    1    3    3    0    0  0.27695854144E+02 -0.26097609958E+02 -0.88300749624E+01  0.39065532204E+02  0.51100000000E-03 0.  1.
        -11    1    3    3    0    0  0.20821486904E+01 -0.25159262077E+01 -0.23036193990E+01  0.39964847614E+01  0.51100000000E-03 0. -1.
        -12    1    3    3    0    0  0.47611560708E+00 -0.19045391622E+01 -0.23736681320E+01  0.30803012665E+01  0.00000000000E+00 0.  1.
</event>
<event>
 7    1  0.2243370E-008  0.4614232E+02  0.7816164E-02  0.1320468E+00
        -11   -1    0    0    0    0  0.00000000000E+00  0.00000000000E+00  0.45593999997E+02  0.45594000000E+02  0.51100000000E-03 0. -1.
         11   -1    0    0    0    0 -0.00000000000E+00 -0.00000000000E+00 -0.45593999997E+02  0.45594000000E+02  0.51100000000E-03 0.  1.
    9900012    2    1    2    0    0 -0.15525541936E+02 -0.38229656472E+02  0.18071094613E+02  0.46142317112E+02  0.99999940769E+01 0.  0.
         12    1    1    2    0    0  0.15525541936E+02  0.38229656472E+02 -0.18071094613E+02  0.45045682888E+02  0.00000000000E+00 0. -1.
         11    1    3    3    0    0 -0.27291939475E+00 -0.91626312014E+00 -0.97619830684E+00  0.13663771429E+01  0.51100000000E-03 0. -1.
        -11    1    3    3    0    0 -0.57320519165E+01 -0.92529766490E+01  0.54749035821E+01  0.12183947043E+02  0.51100000000E-03 0.  1.
        -12    1    3    3    0    0 -0.95205706245E+01 -0.28060416703E+02  0.13572389338E+02  0.32591992926E+02  0.00000000000E+00 0.  1.
</event>
<event>
 7    1  0.2243370E-008  0.4614232E+02  0.7816164E-02  0.1320468E+00
        -11   -1    0    0    0    0  0.00000000000E+00  0.00000000000E+00  0.45593999997E+02  0.45594000000E+02  0.51100000000E-03 0.  1.
         11   -1    0    0    0    0 -0.00000000000E+00 -0.00000000000E+00 -0.45593999997E+02  0.45594000000E+02  0.51100000000E-03 0. -1.
    9900012    2    1    2    0    0  0.35548741724E+02 -0.31387365740E+01  0.27487244424E+02  0.46142319724E+02  0.10000017902E+02 0.  0.
         12    1    1    2    0    0 -0.35548741724E+02  0.31387365740E+01 -0.27487244424E+02  0.45045680276E+02  0.00000000000E+00 0. -1.
         11    1    3    3    0    0  0.10473984200E+02  0.22864743040E+01  0.95513650349E+01  0.14358303662E+02  0.51100000000E-03 0. -1.
        -11    1    3    3    0    0  0.19405210941E+02 -0.18791795561E+01  0.12425078745E+02  0.23118739359E+02  0.51100000000E-03 0.  1.
         12    1    3    3    0    0  0.56695465826E+01 -0.35460313218E+01  0.55108006450E+01  0.86652767029E+01  0.00000000000E+00 0. -1.
</event>
<event>
 7    1  0.2243370E-008  0.4614232E+02  0.7816164E-02  0.1320468E+00
        -11   -1    0    0    0    0  0.00000000000E+00  0.00000000000E+00  0.45593999997E+02  0.45594000000E+02  0.51100000000E-03 0. -1.
         11   -1    0    0    0    0 -0.00000000000E+00 -0.00000000000E+00 -0.45593999997E+02  0.45594000000E+02  0.51100000000E-03 0.  1.
    9900012    2    1    2    0    0 -0.29891834353E+02  0.12503700202E+02 -0.31292958554E+02  0.46142317245E+02  0.99999952982E+01 0.  0.
         12    1    1    2    0    0  0.29891834353E+02 -0.12503700202E+02  0.31292958554E+02  0.45045682755E+02  0.00000000000E+00 0. -1.
         11    1    3    3    0    0 -0.10557145896E+02  0.60531896049E+01 -0.13542450964E+02  0.18206933082E+02  0.51100000000E-03 0. -1.
        -11    1    3    3    0    0 -0.12279999412E+02  0.72665757449E+01 -0.10005606356E+02  0.17427382690E+02  0.51100000000E-03 0.  1.
        -12    1    3    3    0    0 -0.70546890453E+01 -0.81606514744E+00 -0.77449012342E+01  0.10508001474E+02  0.00000000000E+00 0.  1.
</event>
<event>
 7    1  0.2243370E-008  0.4614232E+02  0.7816164E-02  0.1320468E+00
        -11   -1    0    0    0    0  0.00000000000E+00  0.00000000000E+00  0.45593999997E+02  0.45594000000E+02  0.51100000000E-03 0.  1.
         11   -1    0    0    0    0 -0.00000000000E+00 -0.00000000000E+00 -0.45593999997E+02  0.45594000000E+02  0.51100000000E-03 0. -1.
    9900012    2    1    2    0    0 -0.43502434340E+01  0.19201695139E+02  0.40515228749E+02  0.46142317913E+02  0.10000001382E+02 0.  0.
         12    1    1    2    0    0  0.43502434340E+01 -0.19201695139E+02 -0.40515228749E+02  0.45045682087E+02  0.00000000000E+00 0. -1.
         11    1    3    3    0    0 -0.24792212187E+01  0.19744220990E+01  0.83659993868E+01  0.89462185574E+01  0.51100000000E-03 0. -1.
        -11    1    3    3    0    0 -0.54733196813E+00  0.10693884320E+01  0.81258536938E+01  0.82141744817E+01  0.51100000000E-03 0.  1.
        -12    1    3    3    0    0 -0.13236902471E+01  0.16157884608E+02  0.24023375668E+02  0.28981924874E+02  0.00000000000E+00 0.  1.
</event>
<event>
 7    1  0.2243370E-008  0.4614232E+02  0.7816164E-02  0.1320468E+00
        -11   -1    0    0    0    0  0.00000000000E+00  0.00000000000E+00  0.45593999997E+02  0.45594000000E+02  0.51100000000E-03 0.  1.
         11   -1    0    0    0    0 -0.00000000000E+00 -0.00000000000E+00 -0.45593999997E+02  0.45594000000E+02  0.51100000000E-03 0. -1.
    9900012    2    1    2    0    0 -0.26173487438E+02 -0.36058450954E+02  0.66219236872E+01  0.46142320926E+02  0.10000028864E+02 0.  0.
         12    1    1    2    0    0  0.26173487438E+02  0.36058450954E+02 -0.66219236872E+01  0.45045679074E+02  0.00000000000E+00 0. -1.
         11    1    3    3    0    0 -0.70287394934E+01 -0.73762462629E+01  0.55527766203E-01  0.10188977937E+02  0.51100000000E-03 0. -1.
        -11    1    3    3    0    0 -0.72840496678E+00 -0.13126636556E+01 -0.13601156226E+01  0.20257281250E+01  0.51100000000E-03 0.  1.
        -12    1    3    3    0    0 -0.18416342978E+02 -0.27369541035E+02  0.79265115437E+01  0.33927614865E+02  0.00000000000E+00 0.  1.
</event>
<event>
 7    1  0.2243370E-008  0.4614232E+02  0.7816164E-02  0.1320468E+00
        -11   -1    0    0    0    0  0.00000000000E+00  0.00000000000E+00  0.45593999997E+02  0.45594000000E+02  0.51100000000E-03 0.  1.
         11   -1    0    0    0    0 -0.00000000000E+00 -0.00000000000E+00 -0.45593999997E+02  0.45594000000E+02  0.51100000000E-03 0. -1.
    9900012    2    1    2    0    0  0.54452300983E+01 -0.20424077357E+02  0.39778388754E+02  0.46142315650E+02  0.99999807504E+01 0.  0.
         12    1    1    2    0    0 -0.54452300983E+01  0.20424077357E+02 -0.39778388754E+02  0.45045684350E+02  0.00000000000E+00 0. -1.
         11    1    3    3    0    0  0.11803384867E+01  0.15579575201E+00  0.46369565380E+01  0.47873622649E+01  0.51100000000E-03 0.  1.
        -11    1    3    3    0    0  0.37273167663E+01 -0.67857456607E+01  0.97128733613E+01  0.12420915572E+02  0.51100000000E-03 0. -1.
        -12    1    3    3    0    0  0.53757484533E+00 -0.13794127448E+02  0.25428558854E+02  0.28934037813E+02  0.00000000000E+00 0.  1.
</event>
<event>
 7    1  0.2243370E-008  0.4614232E+02  0.7816164E-02  0.1320468E+00
        -11   -1    0    0    0    0  0.00000000000E+00  0.00000000000E+00  0.45593999997E+02  0.45594000000E+02  0.51100000000E-03 0. -1.
         11   -1    0    0    0    0 -0.00000000000E+00 -0.00000000000E+00 -0.45593999997E+02  0.45594000000E+02  0.51100000000E-03 0.  1.
    9900012    2    1    2    0    0 -0.29355426120E+01  0.44451707862E+02 -0.66739243211E+01  0.46142323092E+02  0.10000048609E+02 0.  0.
         12    1    1    2    0    0  0.29355426120E+01 -0.44451707862E+02  0.66739243211E+01  0.45045676908E+02  0.00000000000E+00 0. -1.
         11    1    3    3    0    0 -0.45388937548E+01  0.22244927536E+02 -0.34036391451E+01  0.22956984064E+02  0.51100000000E-03 0. -1.
        -11    1    3    3    0    0  0.13956541102E+01  0.21472560374E+02 -0.18805205838E+01  0.21599885586E+02  0.51100000000E-03 0.  1.
         12    1    3    3    0    0  0.20769703253E+00  0.73421995171E+00 -0.13897645921E+01  0.15854534418E+01  0.00000000000E+00 0. -1.
</event>
<event>
 7    1  0.2243370E-008  0.4614231E+02  0.7816164E-02  0.1320468E+00
        -11   -1    0    0    0    0  0.00000000000E+00  0.00000000000E+00  0.45593999997E+02  0.45594000000E+02  0.51100000000E-03 0. -1.
         11   -1    0    0    0    0 -0.00000000000E+00 -0.00000000000E+00 -0.45593999997E+02  0.45594000000E+02  0.51100000000E-03 0.  1.
    9900012    2    1    2    0    0 -0.29465912242E+02  0.29551906195E+02 -0.16957553937E+02  0.46142314529E+02  0.99999705252E+01 0.  0.
         12    1    1    2    0    0  0.29465912242E+02 -0.29551906195E+02  0.16957553937E+02  0.45045685471E+02  0.00000000000E+00 0. -1.
         11    1    3    3    0    0 -0.66043354572E+00  0.26166961634E+01 -0.26567378437E+01  0.37870209283E+01  0.51100000000E-03 0. -1.
        -11    1    3    3    0    0 -0.11920935371E+02  0.10434985731E+02 -0.87685161885E+01  0.18107581388E+02  0.51100000000E-03 0.  1.
        -12    1    3    3    0    0 -0.16884543325E+02  0.16500224301E+02 -0.55322999052E+01  0.24247712212E+02  0.00000000000E+00 0.  1.
</event>
<event>
 7    1  0.2243370E-008  0.4614232E+02  0.7816164E-02  0.1320468E+00
        -11   -1    0    0    0    0  0.00000000000E+00  0.00000000000E+00  0.45593999997E+02  0.45594000000E+02  0.51100000000E-03 0.  1.
         11   -1    0    0    0    0 -0.00000000000E+00 -0.00000000000E+00 -0.45593999997E+02  0.45594000000E+02  0.51100000000E-03 0. -1.
    9900012    2    1    2    0    0  0.29868359615E+02 -0.33186593266E+02  0.59703161377E+01  0.46142317038E+02  0.99999934068E+01 0.  0.
         12    1    1    2    0    0 -0.29868359615E+02  0.33186593266E+02 -0.59703161377E+01  0.45045682962E+02  0.00000000000E+00 0. -1.
         11    1    3    3    0    0  0.19275929067E+02 -0.16717878820E+02  0.43662425202E+01  0.25886540665E+02  0.51100000000E-03 0. -1.
        -11    1    3    3    0    0  0.87244230728E+01 -0.10721763990E+02  0.27796181649E+01  0.14099576533E+02  0.51100000000E-03 0.  1.
         12    1    3    3    0    0  0.18680074754E+01 -0.57469504567E+01 -0.11755445474E+01  0.61561998394E+01  0.00000000000E+00 0. -1.
</event>
<event>
 7    1  0.2243370E-008  0.4614232E+02  0.7816164E-02  0.1320468E+00
        -11   -1    0    0    0    0  0.00000000000E+00  0.00000000000E+00  0.45593999997E+02  0.45594000000E+02  0.51100000000E-03 0. -1.
         11   -1    0    0    0    0 -0.00000000000E+00 -0.00000000000E+00 -0.45593999997E+02  0.45594000000E+02  0.51100000000E-03 0.  1.
    9900012    2    1    2    0    0  0.27300422327E+02 -0.28764616962E+02 -0.21363452951E+02  0.46142319073E+02  0.10000011964E+02 0.  0.
         12    1    1    2    0    0 -0.27300422327E+02  0.28764616962E+02  0.21363452951E+02  0.45045680927E+02  0.00000000000E+00 0. -1.
         11    1    3    3    0    0  0.12660264327E+02 -0.14566665375E+02 -0.88228194143E+01  0.21220560210E+02  0.51100000000E-03 0. -1.
        -11    1    3    3    0    0  0.15016910647E+02 -0.14096971509E+02 -0.12971034324E+02  0.24340910887E+02  0.51100000000E-03 0.  1.
         12    1    3    3    0    0 -0.37675264727E+00 -0.10098007826E+00  0.43040078726E+00  0.58084797590E+00  0.00000000000E+00 0. -1.
</event>
<event>
 7    1  0.2243370E-008  0.4614232E+02  0.7816164E-02  0.1320468E+00
        -11   -1    0    0    0    0  0.00000000000E+00  0.00000000000E+00  0.45593999997E+02  0.45594000000E+02  0.51100000000E-03 0.  1.
         11   -1    0    0    0    0 -0.00000000000E+00 -0.00000000000E+00 -0.45593999997E+02  0.45594000000E+02  0.51100000000E-03 0. -1.
    9900012    2    1    2    0    0 -0.31983279451E+02 -0.21234657443E+02  0.23564223065E+02  0.46142318189E+02  0.10000003903E+02 0.  0.
         12    1    1    2    0    0  0.31983279451E+02  0.21234657443E+02 -0.23564223065E+02  0.45045681811E+02  0.00000000000E+00 0. -1.
         11    1    3    3    0    0 -0.21970059599E+02 -0.18117237410E+02  0.19568339085E+02  0.34551956600E+02  0.51100000000E-03 0.  1.
        -11    1    3    3    0    0  0.13702511389E+00 -0.31391558093E+00  0.20098831144E+00  0.39713402806E+00  0.51100000000E-03 0. -1.
        -12    1    3    3    0    0 -0.10150244966E+02 -0.28035044529E+01  0.37948956686E+01  0.11193227561E+02  0.00000000000E+00 0.  1.
</event>
<event>
 7    1  0.2243370E-008  0.4614232E+02  0.7816164E-02  0.1320468E+00
        -11   -1    0    0    0    0  0.00000000000E+00  0.00000000000E+00  0.45593999997E+02  0.45594000000E+02  0.51100000000E-03 0.  1.
         11   -1    0    0    0    0 -0.00000000000E+00 -0.00000000000E+00 -0.45593999997E+02  0.45594000000E+02  0.51100000000E-03 0. -1.
    9900012    2    1    2    0    0 -0.38682977110E+02  0.32539016480E+01  0.22850665315E+02  0.46142317639E+02  0.99999988836E+01 0.  0.
         12    1    1    2    0    0  0.38682977110E+02 -0.32539016480E+01 -0.22850665315E+02  0.45045682361E+02  0.00000000000E+00 0. -1.
         11    1    3    3    0    0 -0.61430455705E+01  0.88495990238E+00  0.57283097615E+01  0.84459277699E+01  0.51100000000E-03 0.  1.
        -11    1    3    3    0    0 -0.87396185057E+01 -0.22194663927E+01  0.70602806707E+01  0.11452271657E+02  0.51100000000E-03 0. -1.
         12    1    3    3    0    0 -0.23800313034E+02  0.45884081383E+01  0.10062074883E+02  0.26244118212E+02  0.00000000000E+00 0. -1.
</event>
<event>
 7    1  0.2243370E-008  0.4614232E+02  0.7816164E-02  0.1320468E+00
        -11   -1    0    0    0    0  0.00000000000E+00  0.00000000000E+00  0.45593999997E+02  0.45594000000E+02  0.51100000000E-03 0.  1.
         11   -1    0    0    0    0 -0.00000000000E+00 -0.00000000000E+00 -0.45593999997E+02  0.45594000000E+02  0.51100000000E-03 0. -1.
    9900012    2    1    2    0    0  0.41763245571E+02 -0.33069475208E+01  0.16553215345E+02  0.46142317401E+02  0.99999967182E+01 0.  0.
         12    1    1    2    0    0 -0.41763245571E+02  0.33069475208E+01 -0.16553215345E+02  0.45045682599E+02  0.00000000000E+00 0. -1.
         11    1    3    3    0    0  0.16230620929E+02 -0.48482317998E+01  0.93524161206E+01  0.19349576091E+02  0.51100000000E-03 0. -1.
        -11    1    3    3    0    0  0.19749622242E+02 -0.12583189600E+00  0.61321083778E+01  0.20680091049E+02  0.51100000000E-03 0.  1.
         12    1    3    3    0    0  0.57830024000E+01  0.16671161750E+01  0.10686908463E+01  0.61126502619E+01  0.00000000000E+00 0. -1.
</event>
<event>
 7    1  0.2243370E-008  0.4614232E+02  0.7816164E-02  0.1320468E+00
        -11   -1    0    0    0    0  0.00000000000E+00  0.00000000000E+00  0.45593999997E+02  0.45594000000E+02  0.51100000000E-03 0. -1.
         11   -1    0    0    0    0 -0.00000000000E+00 -0.00000000000E+00 -0.45593999997E+02  0.45594000000E+02  0.51100000000E-03 0.  1.
    9900012    2    1    2    0    0  0.20490904109E+02  0.44426762234E+01 -0.39868521175E+02  0.46142317589E+02  0.99999984262E+01 0.  0.
         12    1    1    2    0    0 -0.20490904109E+02 -0.44426762234E+01  0.39868521175E+02  0.45045682411E+02  0.00000000000E+00 0. -1.
         11    1    3    3    0    0  0.62536092551E+01  0.58583003167E+01 -0.12074946334E+02  0.14806472927E+02  0.51100000000E-03 0. -1.
        -11    1    3    3    0    0  0.33404463738E+01  0.27307795164E+00 -0.80857271390E+01  0.87528359502E+01  0.51100000000E-03 0.  1.
         12    1    3    3    0    0  0.10896848480E+02 -0.16887020449E+01 -0.19707847703E+02  0.22583008711E+02  0.00000000000E+00 0. -1.
</event>
<event>
 7    1  0.2243370E-008  0.4614232E+02  0.7816164E-02  0.1320468E+00
        -11   -1    0    0    0    0  0.00000000000E+00  0.00000000000E+00  0.45593999997E+02  0.45594000000E+02  0.51100000000E-03 0.  1.
         11   -1    0    0    0    0 -0.00000000000E+00 -0.00000000000E+00 -0.45593999997E+02  0.45594000000E+02  0.51100000000E-03 0. -1.
    9900012    2    1    2    0    0  0.38056184354E+02 -0.69524977062E+01  0.23076027751E+02  0.46142318201E+02  0.10000004013E+02 0.  0.
         12    1    1    2    0    0 -0.38056184354E+02  0.69524977062E+01 -0.23076027751E+02  0.45045681799E+02  0.00000000000E+00 0. -1.
         11    1    3    3    0    0  0.33389325127E+00 -0.12891774309E+00 -0.50631297111E+00  0.62004642855E+00  0.51100000000E-03 0. -1.
        -11    1    3    3    0    0  0.16545639228E+02 -0.57019676852E+00  0.12930108780E+02  0.21006451751E+02  0.51100000000E-03 0.  1.
         12    1    3    3    0    0  0.21176651875E+02 -0.62533831946E+01  0.10652231942E+02  0.24515820022E+02  0.00000000000E+00 0. -1.
</event>
<event>
 7    1  0.2243370E-008  0.4614232E+02  0.7816164E-02  0.1320468E+00
        -11   -1    0    0    0    0  0.00000000000E+00  0.00000000000E+00  0.45593999997E+02  0.45594000000E+02  0.51100000000E-03 0.  1.
         11   -1    0    0    0    0 -0.00000000000E+00 -0.00000000000E+00 -0.45593999997E+02  0.45594000000E+02  0.51100000000E-03 0. -1.
    9900012    2    1    2    0    0  0.34617021783E+02  0.15826125163E+02  0.24089603309E+02  0.46142318494E+02  0.10000006681E+02 0.  0.
         12    1    1    2    0    0 -0.34617021783E+02 -0.15826125163E+02 -0.24089603309E+02  0.45045681506E+02  0.00000000000E+00 0. -1.
         11    1    3    3    0    0  0.27216255108E+01  0.37238580228E+01  0.24555265638E+01  0.52253205607E+01  0.51100000000E-03 0. -1.
        -11    1    3    3    0    0  0.20490142963E+01  0.27949180470E+01  0.22210157575E+01  0.41161799926E+01  0.51100000000E-03 0.  1.
        -12    1    3    3    0    0  0.29846381976E+02  0.93073490928E+01  0.19413060988E+02  0.36800817940E+02  0.00000000000E+00 0.  1.
</event>
<event>
 7    1  0.2243370E-008  0.4614232E+02  0.7816164E-02  0.1320468E+00
        -11   -1    0    0    0    0  0.00000000000E+00  0.00000000000E+00  0.45593999997E+02  0.45594000000E+02  0.51100000000E-03 0.  1.
         11   -1    0    0    0    0 -0.00000000000E+00 -0.00000000000E+00 -0.45593999997E+02  0.45594000000E+02  0.51100000000E-03 0. -1.
    9900012    2    1    2    0    0 -0.23395996116E+02 -0.29607248891E+02  0.24599831132E+02  0.46142317489E+02  0.99999975181E+01 0.  0.
         12    1    1    2    0    0  0.23395996116E+02  0.29607248891E+02 -0.24599831132E+02  0.45045682511E+02  0.00000000000E+00 0. -1.
         11    1    3    3    0    0 -0.92961522794E+01 -0.82803927169E+01  0.68068792469E+01  0.14188620655E+02  0.51100000000E-03 0. -1.
        -11    1    3    3    0    0 -0.91171497879E+01 -0.15226125249E+02  0.15956287464E+02  0.23865465012E+02  0.51100000000E-03 0.  1.
         12    1    3    3    0    0 -0.49826940487E+01 -0.61007309257E+01  0.18366644210E+01  0.80882318220E+01  0.00000000000E+00 0. -1.
</event>
<event>
 7    1  0.2243370E-008  0.4614232E+02  0.7816164E-02  0.1320468E+00
        -11   -1    0    0    0    0  0.00000000000E+00  0.00000000000E+00  0.45593999997E+02  0.45594000000E+02  0.51100000000E-03 0. -1.
         11   -1    0    0    0    0 -0.00000000000E+00 -0.00000000000E+00 -0.45593999997E+02  0.45594000000E+02  0.51100000000E-03 0.  1.
    9900012    2    1    2    0    0 -0.26496378711E+02  0.22529054500E+02 -0.28626861300E+02  0.46142316862E+02  0.99999918057E+01 0.  0.
         12    1    1    2    0    0  0.26496378711E+02 -0.22529054500E+02  0.28626861300E+02  0.45045683138E+02  0.00000000000E+00 0. -1.
         11    1    3    3    0    0 -0.11225899490E+02  0.60283121678E+01 -0.10190069185E+02  0.16315602263E+02  0.51100000000E-03 0. -1.
        -11    1    3    3    0    0 -0.15054498822E+02  0.15480954358E+02 -0.15149539101E+02  0.26378142805E+02  0.51100000000E-03 0.  1.
         12    1    3    3    0    0 -0.21598039891E+00  0.10197879742E+01 -0.32872530134E+01  0.34485717941E+01  0.00000000000E+00 0. -1.
</event>
<event>
 7    1  0.2243370E-008  0.4614232E+02  0.7816164E-02  0.1320468E+00
        -11   -1    0    0    0    0  0.00000000000E+00  0.00000000000E+00  0.45593999997E+02  0.45594000000E+02  0.51100000000E-03 0.  1.
         11   -1    0    0    0    0 -0.00000000000E+00 -0.00000000000E+00 -0.45593999997E+02  0.45594000000E+02  0.51100000000E-03 0. -1.
    9900012    2    1    2    0    0  0.34511501650E+02 -0.21544156791E+02  0.19336987606E+02  0.46142317325E+02  0.99999960273E+01 0.  0.
         12    1    1    2    0    0 -0.34511501650E+02  0.21544156791E+02 -0.19336987606E+02  0.45045682675E+02  0.00000000000E+00 0. -1.
         11    1    3    3    0    0  0.14213692865E+02 -0.71488543649E+01  0.89732946679E+01  0.18266231167E+02  0.51100000000E-03 0.  1.
        -11    1    3    3    0    0  0.18671373270E+01 -0.31857656843E+01  0.38677808459E+01  0.53474324424E+01  0.51100000000E-03 0. -1.
         12    1    3    3    0    0  0.18430671457E+02 -0.11209536742E+02  0.64959120918E+01  0.22528653716E+02  0.00000000000E+00 0. -1.
</event>
<event>
 7    1  0.2243370E-008  0.4614232E+02  0.7816164E-02  0.1320468E+00
        -11   -1    0    0    0    0  0.00000000000E+00  0.00000000000E+00  0.45593999997E+02  0.45594000000E+02  0.51100000000E-03 0.  1.
         11   -1    0    0    0    0 -0.00000000000E+00 -0.00000000000E+00 -0.45593999997E+02  0.45594000000E+02  0.51100000000E-03 0. -1.
    9900012    2    1    2    0    0  0.18070003424E+02  0.31945941725E+02 -0.26115997055E+02  0.46142317425E+02  0.99999969389E+01 0.  0.
         12    1    1    2    0    0 -0.18070003424E+02 -0.31945941725E+02  0.26115997055E+02  0.45045682575E+02  0.00000000000E+00 0. -1.
         11    1    3    3    0    0  0.55236431371E+01  0.56828040978E+01 -0.89017056831E+01  0.11918274214E+02  0.51100000000E-03 0. -1.
        -11    1    3    3    0    0  0.66800484732E+01  0.18091643459E+02 -0.13315573918E+02  0.23435765822E+02  0.51100000000E-03 0.  1.
        -12    1    3    3    0    0  0.58663118134E+01  0.81714941678E+01 -0.38987174547E+01  0.10788277389E+02  0.00000000000E+00 0.  1.
</event>
<event>
 7    1  0.2243370E-008  0.4614232E+02  0.7816164E-02  0.1320468E+00
        -11   -1    0    0    0    0  0.00000000000E+00  0.00000000000E+00  0.45593999997E+02  0.45594000000E+02  0.51100000000E-03 0.  1.
         11   -1    0    0    0    0 -0.00000000000E+00 -0.00000000000E+00 -0.45593999997E+02  0.45594000000E+02  0.51100000000E-03 0. -1.
    9900012    2    1    2    0    0  0.12081372762E+02 -0.89227683544E+01  0.42468082304E+02  0.46142318991E+02  0.10000011218E+02 0.  0.
         12    1    1    2    0    0 -0.12081372762E+02  0.89227683544E+01 -0.42468082304E+02  0.45045681009E+02  0.00000000000E+00 0. -1.
         11    1    3    3    0    0 -0.88447369351E+00 -0.34832577361E+01  0.79009898614E+01  0.86799204617E+01  0.51100000000E-03 0. -1.
        -11    1    3    3    0    0  0.70257318232E+01 -0.45519827608E+01  0.18369046733E+02  0.20186711789E+02  0.51100000000E-03 0.  1.
         12    1    3    3    0    0  0.59401146325E+01 -0.88752785753E+00  0.16198045710E+02  0.17275686741E+02  0.00000000000E+00 0. -1.
</event>
<event>
 7    1  0.2243370E-008  0.4614232E+02  0.7816164E-02  0.1320468E+00
        -11   -1    0    0    0    0  0.00000000000E+00  0.00000000000E+00  0.45593999997E+02  0.45594000000E+02  0.51100000000E-03 0.  1.
         11   -1    0    0    0    0 -0.00000000000E+00 -0.00000000000E+00 -0.45593999997E+02  0.45594000000E+02  0.51100000000E-03 0. -1.
    9900012    2    1    2    0    0 -0.14870517006E+02 -0.13782627897E+02  0.40224624644E+02  0.46142317238E+02  0.99999952264E+01 0.  0.
         12    1    1    2    0    0  0.14870517006E+02  0.13782627897E+02 -0.40224624644E+02  0.45045682762E+02  0.00000000000E+00 0. -1.
         11    1    3    3    0    0 -0.41695439333E+01 -0.53461250283E+00  0.11221917453E+02  0.11983419325E+02  0.51100000000E-03 0. -1.
        -11    1    3    3    0    0 -0.91570457254E+01 -0.84436050922E+01  0.16479761707E+02  0.20657407861E+02  0.51100000000E-03 0.  1.
         12    1    3    3    0    0 -0.15439273476E+01 -0.48044103025E+01  0.12522945484E+02  0.13501490051E+02  0.00000000000E+00 0. -1.
</event>
<event>
 7    1  0.2243370E-008  0.4614231E+02  0.7816164E-02  0.1320468E+00
        -11   -1    0    0    0    0  0.00000000000E+00  0.00000000000E+00  0.45593999997E+02  0.45594000000E+02  0.51100000000E-03 0.  1.
         11   -1    0    0    0    0 -0.00000000000E+00 -0.00000000000E+00 -0.45593999997E+02  0.45594000000E+02  0.51100000000E-03 0. -1.
    9900012    2    1    2    0    0 -0.66420327977E+01  0.35193686087E+02  0.27320354922E+02  0.46142312824E+02  0.99999549827E+01 0.  0.
         12    1    1    2    0    0  0.66420327977E+01 -0.35193686087E+02 -0.27320354922E+02  0.45045687176E+02  0.00000000000E+00 0. -1.
         11    1    3    3    0    0 -0.14226195615E+01  0.92143918731E+01  0.78500545670E+01  0.12188200071E+02  0.51100000000E-03 0. -1.
        -11    1    3    3    0    0 -0.71629326247E+01  0.22946107013E+02  0.15546153844E+02  0.28627160712E+02  0.51100000000E-03 0.  1.
        -12    1    3    3    0    0  0.19435193885E+01  0.30331872007E+01  0.39241465109E+01  0.53269520410E+01  0.00000000000E+00 0.  1.
</event>
<event>
 7    1  0.2243370E-008  0.4614232E+02  0.7816164E-02  0.1320468E+00
        -11   -1    0    0    0    0  0.00000000000E+00  0.00000000000E+00  0.45593999997E+02  0.45594000000E+02  0.51100000000E-03 0.  1.
         11   -1    0    0    0    0 -0.00000000000E+00 -0.00000000000E+00 -0.45593999997E+02  0.45594000000E+02  0.51100000000E-03 0. -1.
    9900012    2    1    2    0    0  0.13379076796E+02 -0.25077819510E+02  0.34945910730E+02  0.46142318697E+02  0.10000008534E+02 0.  0.
         12    1    1    2    0    0 -0.13379076796E+02  0.25077819510E+02 -0.34945910730E+02  0.45045681303E+02  0.00000000000E+00 0. -1.
         11    1    3    3    0    0  0.40761924877E+01 -0.39372829185E+01  0.48917167950E+01  0.74864167291E+01  0.51100000000E-03 0. -1.
        -11    1    3    3    0    0  0.65858265901E+01 -0.79833937940E+01  0.17131228168E+02  0.20014661305E+02  0.51100000000E-03 0.  1.
         12    1    3    3    0    0  0.27170577186E+01 -0.13157142797E+02  0.12922965767E+02  0.18641240663E+02  0.00000000000E+00 0. -1.
</event>
<event>
 7    1  0.2243370E-008  0.4614232E+02  0.7816164E-02  0.1320468E+00
        -11   -1    0    0    0    0  0.00000000000E+00  0.00000000000E+00  0.45593999997E+02  0.45594000000E+02  0.51100000000E-03 0.  1.
         11   -1    0    0    0    0 -0.00000000000E+00 -0.00000000000E+00 -0.45593999997E+02  0.45594000000E+02  0.51100000000E-03 0. -1.
    9900012    2    1    2    0    0 -0.14756013717E+02 -0.26516541500E+02  0.33290338761E+02  0.46142316869E+02  0.99999918661E+01 0.  0.
         12    1    1    2    0    0  0.14756013717E+02  0.26516541500E+02 -0.33290338761E+02  0.45045683131E+02  0.00000000000E+00 0. -1.
         11    1    3    3    0    0 -0.10575628013E+02 -0.24124539160E+02  0.24318454334E+02  0.35850028159E+02  0.51100000000E-03 0. -1.
        -11    1    3    3    0    0 -0.10709769092E+01 -0.13896149754E+01  0.36049727428E+01  0.40092206297E+01  0.51100000000E-03 0.  1.
         12    1    3    3    0    0 -0.31094087940E+01 -0.10023873643E+01  0.53669116838E+01  0.62830680801E+01  0.00000000000E+00 0. -1.
</event>
<event>
 7    1  0.2243370E-008  0.4614232E+02  0.7816164E-02  0.1320468E+00
        -11   -1    0    0    0    0  0.00000000000E+00  0.00000000000E+00  0.45593999997E+02  0.45594000000E+02  0.51100000000E-03 0. -1.
         11   -1    0    0    0    0 -0.00000000000E+00 -0.00000000000E+00 -0.45593999997E+02  0.45594000000E+02  0.51100000000E-03 0.  1.
    9900012    2    1    2    0    0 -0.30245757384E+02  0.11101371145E+02 -0.31481219213E+02  0.46142318252E+02  0.10000004474E+02 0.  0.
         12    1    1    2    0    0  0.30245757384E+02 -0.11101371145E+02  0.31481219213E+02  0.45045681748E+02  0.00000000000E+00 0. -1.
         11    1    3    3    0    0 -0.13620672875E+02  0.82372199998E+01 -0.18190241366E+02  0.24171458461E+02  0.51100000000E-03 0. -1.
        -11    1    3    3    0    0 -0.13682749214E+02  0.23456657514E+01 -0.83595355454E+01  0.16204987155E+02  0.51100000000E-03 0.  1.
        -12    1    3    3    0    0 -0.29423352942E+01  0.51848539355E+00 -0.49314423015E+01  0.57658726364E+01  0.00000000000E+00 0.  1.
</event>
<event>
 7    1  0.2243370E-008  0.4614232E+02  0.7816164E-02  0.1320468E+00
        -11   -1    0    0    0    0  0.00000000000E+00  0.00000000000E+00  0.45593999997E+02  0.45594000000E+02  0.51100000000E-03 0. -1.
         11   -1    0    0    0    0 -0.00000000000E+00 -0.00000000000E+00 -0.45593999997E+02  0.45594000000E+02  0.51100000000E-03 0.  1.
    9900012    2    1    2    0    0  0.34212490189E+02 -0.24542530642E+01 -0.29199238839E+02  0.46142318833E+02  0.10000009771E+02 0.  0.
         12    1    1    2    0    0 -0.34212490189E+02  0.24542530642E+01  0.29199238839E+02  0.45045681167E+02  0.00000000000E+00 0. -1.
         11    1    3    3    0    0  0.25421376855E+02 -0.51246371132E+01 -0.19772340303E+02  0.32610638572E+02  0.51100000000E-03 0.  1.
        -11    1    3    3    0    0  0.10024497091E+01  0.10757367927E+01 -0.44417709685E+00  0.15360366600E+01  0.51100000000E-03 0. -1.
        -12    1    3    3    0    0  0.77886636247E+01  0.15946472564E+01 -0.89827214397E+01  0.11995643601E+02  0.00000000000E+00 0.  1.
</event>
<event>
 7    1  0.2243370E-008  0.4614232E+02  0.7816164E-02  0.1320468E+00
        -11   -1    0    0    0    0  0.00000000000E+00  0.00000000000E+00  0.45593999997E+02  0.45594000000E+02  0.51100000000E-03 0. -1.
         11   -1    0    0    0    0 -0.00000000000E+00 -0.00000000000E+00 -0.45593999997E+02  0.45594000000E+02  0.51100000000E-03 0.  1.
    9900012    2    1    2    0    0  0.11724259786E+02 -0.29971538017E+02 -0.31517647684E+02  0.46142317919E+02  0.10000001439E+02 0.  0.
         12    1    1    2    0    0 -0.11724259786E+02  0.29971538017E+02  0.31517647684E+02  0.45045682081E+02  0.00000000000E+00 0. -1.
         11    1    3    3    0    0  0.21352608478E+01 -0.18286876912E-02 -0.15178080436E+01  0.26197487954E+01  0.51100000000E-03 0. -1.
        -11    1    3    3    0    0  0.52120869685E+01 -0.18971763323E+02 -0.17980836550E+02  0.26653407614E+02  0.51100000000E-03 0.  1.
         12    1    3    3    0    0  0.43769119698E+01 -0.10997946006E+02 -0.12019003090E+02  0.16869161510E+02  0.00000000000E+00 0. -1.
</event>
<event>
 7    1  0.2243370E-008  0.4614232E+02  0.7816164E-02  0.1320468E+00
        -11   -1    0    0    0    0  0.00000000000E+00  0.00000000000E+00  0.45593999997E+02  0.45594000000E+02  0.51100000000E-03 0.  1.
         11   -1    0    0    0    0 -0.00000000000E+00 -0.00000000000E+00 -0.45593999997E+02  0.45594000000E+02  0.51100000000E-03 0. -1.
    9900012    2    1    2    0    0  0.82888294381E+01  0.12461605184E+02  0.42486670360E+02  0.46142318126E+02  0.10000003325E+02 0.  0.
         12    1    1    2    0    0 -0.82888294381E+01 -0.12461605184E+02 -0.42486670360E+02  0.45045681874E+02  0.00000000000E+00 0. -1.
         11    1    3    3    0    0 -0.14933933310E+01  0.29546430762E+01  0.91248708384E+01  0.97068742357E+01  0.51100000000E-03 0. -1.
        -11    1    3    3    0    0  0.14635817267E+00 -0.39825876122E+00  0.12813545740E+00  0.44322647953E+00  0.51100000000E-03 0.  1.
        -12    1    3    3    0    0  0.96358645964E+01  0.99052208692E+01  0.33233664064E+02  0.35992217411E+02  0.00000000000E+00 0.  1.
</event>
<event>
 7    1  0.2243370E-008  0.4614232E+02  0.7816164E-02  0.1320468E+00
        -11   -1    0    0    0    0  0.00000000000E+00  0.00000000000E+00  0.45593999997E+02  0.45594000000E+02  0.51100000000E-03 0.  1.
         11   -1    0    0    0    0 -0.00000000000E+00 -0.00000000000E+00 -0.45593999997E+02  0.45594000000E+02  0.51100000000E-03 0. -1.
    9900012    2    1    2    0    0 -0.17463819489E+02  0.29299366613E+02  0.29422367455E+02  0.46142316725E+02  0.99999905497E+01 0.  0.
         12    1    1    2    0    0  0.17463819489E+02 -0.29299366613E+02 -0.29422367455E+02  0.45045683275E+02  0.00000000000E+00 0. -1.
         11    1    3    3    0    0  0.72572657666E+00  0.10017458605E+00  0.12968453077E+00  0.74399754731E+00  0.51100000000E-03 0. -1.
        -11    1    3    3    0    0 -0.32441733412E+01  0.28048489545E+01  0.45719037741E+01  0.62685040246E+01  0.51100000000E-03 0.  1.
        -12    1    3    3    0    0 -0.14945372724E+02  0.26394343073E+02  0.24720779150E+02  0.39129815153E+02  0.00000000000E+00 0.  1.
</event>
<event>
 7    1  0.2243370E-008  0.4614232E+02  0.7816164E-02  0.1320468E+00
        -11   -1    0    0    0    0  0.00000000000E+00  0.00000000000E+00  0.45593999997E+02  0.45594000000E+02  0.51100000000E-03 0.  1.
         11   -1    0    0    0    0 -0.00000000000E+00 -0.00000000000E+00 -0.45593999997E+02  0.45594000000E+02  0.51100000000E-03 0. -1.
    9900012    2    1    2    0    0  0.41434356973E+02  0.77143995646E+01  0.15899545758E+02  0.46142318146E+02  0.10000003507E+02 0.  0.
         12    1    1    2    0    0 -0.41434356973E+02 -0.77143995646E+01 -0.15899545758E+02  0.45045681854E+02  0.00000000000E+00 0. -1.
         11    1    3    3    0    0  0.85856165266E+01  0.10918140337E+01 -0.10445113948E+00  0.86553901892E+01  0.51100000000E-03 0. -1.
        -11    1    3    3    0    0  0.19483412913E+02  0.40390014421E+01  0.66877590444E+01  0.20991499057E+02  0.51100000000E-03 0.  1.
         12    1    3    3    0    0  0.13365327534E+02  0.25835840888E+01  0.93162378536E+01  0.16495428899E+02  0.00000000000E+00 0. -1.
</event>
<event>
 7    1  0.2243370E-008  0.4614232E+02  0.7816164E-02  0.1320468E+00
        -11   -1    0    0    0    0  0.00000000000E+00  0.00000000000E+00  0.45593999997E+02  0.45594000000E+02  0.51100000000E-03 0.  1.
         11   -1    0    0    0    0 -0.00000000000E+00 -0.00000000000E+00 -0.45593999997E+02  0.45594000000E+02  0.51100000000E-03 0. -1.
    9900012    2    1    2    0    0 -0.25675582378E+02  0.13557684870E+02  0.34439324816E+02  0.46142318261E+02  0.10000004562E+02 0.  0.
         12    1    1    2    0    0  0.25675582378E+02 -0.13557684870E+02 -0.34439324816E+02  0.45045681739E+02  0.00000000000E+00 0. -1.
         11    1    3    3    0    0 -0.39714622535E+01  0.38017570108E+01  0.26891392855E+01  0.61202401226E+01  0.51100000000E-03 0. -1.
        -11    1    3    3    0    0 -0.11263008040E+02  0.38293095195E+01  0.11919465458E+02  0.16840208389E+02  0.51100000000E-03 0.  1.
        -12    1    3    3    0    0 -0.10441112084E+02  0.59266183399E+01  0.19830720072E+02  0.23181869750E+02  0.00000000000E+00 0.  1.
</event>
<event>
 7    1  0.2243370E-008  0.4614232E+02  0.7816164E-02  0.1320468E+00
        -11   -1    0    0    0    0  0.00000000000E+00  0.00000000000E+00  0.45593999997E+02  0.45594000000E+02  0.51100000000E-03 0. -1.
         11   -1    0    0    0    0 -0.00000000000E+00 -0.00000000000E+00 -0.45593999997E+02  0.45594000000E+02  0.51100000000E-03 0.  1.
    9900012    2    1    2    0    0 -0.69790215466E+01  0.39965253848E+02 -0.19575118199E+02  0.46142317528E+02  0.99999978773E+01 0.  0.
         12    1    1    2    0    0  0.69790215466E+01 -0.39965253848E+02  0.19575118199E+02  0.45045682472E+02  0.00000000000E+00 0. -1.
         11    1    3    3    0    0 -0.26363582101E+01  0.31138217791E+01 -0.24758160421E+01  0.47724140662E+01  0.51100000000E-03 0. -1.
        -11    1    3    3    0    0 -0.55608774433E+01  0.34298259419E+02 -0.16557645090E+02  0.38489603380E+02  0.51100000000E-03 0.  1.
         12    1    3    3    0    0  0.12182141069E+01  0.25531726491E+01 -0.54165706595E+00  0.28803000822E+01  0.00000000000E+00 0. -1.
</event>
<event>
 7    1  0.2243370E-008  0.4614232E+02  0.7816164E-02  0.1320468E+00
        -11   -1    0    0    0    0  0.00000000000E+00  0.00000000000E+00  0.45593999997E+02  0.45594000000E+02  0.51100000000E-03 0.  1.
         11   -1    0    0    0    0 -0.00000000000E+00 -0.00000000000E+00 -0.45593999997E+02  0.45594000000E+02  0.51100000000E-03 0. -1.
    9900012    2    1    2    0    0  0.31009523545E+02  0.53602899680E+01  0.32230271811E+02  0.46142315633E+02  0.99999805954E+01 0.  0.
         12    1    1    2    0    0 -0.31009523545E+02 -0.53602899680E+01 -0.32230271811E+02  0.45045684367E+02  0.00000000000E+00 0. -1.
         11    1    3    3    0    0  0.67704345816E+01  0.28667562740E+01  0.69132461477E+01  0.10092078503E+02  0.51100000000E-03 0. -1.
        -11    1    3    3    0    0  0.54534608132E+01 -0.38983715867E+00  0.16792954375E+01  0.57194616249E+01  0.51100000000E-03 0.  1.
         12    1    3    3    0    0  0.18785628151E+02  0.28833708527E+01  0.23637730226E+02  0.30330775505E+02  0.00000000000E+00 0. -1.
</event>
<event>
 7    1  0.2243370E-008  0.4614232E+02  0.7816164E-02  0.1320468E+00
        -11   -1    0    0    0    0  0.00000000000E+00  0.00000000000E+00  0.45593999997E+02  0.45594000000E+02  0.51100000000E-03 0.  1.
         11   -1    0    0    0    0 -0.00000000000E+00 -0.00000000000E+00 -0.45593999997E+02  0.45594000000E+02  0.51100000000E-03 0. -1.
    9900012    2    1    2    0    0 -0.23727124369E+02 -0.36803829767E+02  0.10564805345E+02  0.46142318428E+02  0.10000006079E+02 0.  0.
         12    1    1    2    0    0  0.23727124369E+02  0.36803829767E+02 -0.10564805345E+02  0.45045681572E+02  0.00000000000E+00 0. -1.
         11    1    3    3    0    0 -0.76637212188E+01 -0.10344437660E+02  0.53129837374E+01  0.13927232671E+02  0.51100000000E-03 0. -1.
        -11    1    3    3    0    0 -0.92970034127E+01 -0.19270657063E+02  0.62558176640E+01  0.22291876346E+02  0.51100000000E-03 0.  1.
         12    1    3    3    0    0 -0.67663997372E+01 -0.71887350440E+01 -0.10039960562E+01  0.99232094111E+01  0.00000000000E+00 0. -1.
</event>
<event>
 7    1  0.2243370E-008  0.4614232E+02  0.7816164E-02  0.1320468E+00
        -11   -1    0    0    0    0  0.00000000000E+00  0.00000000000E+00  0.45593999997E+02  0.45594000000E+02  0.51100000000E-03 0.  1.
         11   -1    0    0    0    0 -0.00000000000E+00 -0.00000000000E+00 -0.45593999997E+02  0.45594000000E+02  0.51100000000E-03 0. -1.
    9900012    2    1    2    0    0 -0.11590472428E+02 -0.20658597565E+02  0.38314445091E+02  0.46142318663E+02  0.10000008228E+02 0.  0.
         12    1    1    2    0    0  0.11590472428E+02  0.20658597565E+02 -0.38314445091E+02  0.45045681337E+02  0.00000000000E+00 0. -1.
         11    1    3    3    0    0 -0.23241519879E+01 -0.25053089022E+01  0.92023247556E+01  0.98163657392E+01  0.51100000000E-03 0. -1.
        -11    1    3    3    0    0 -0.80275889129E+01 -0.83880644422E+01  0.18585824891E+02  0.21914257824E+02  0.51100000000E-03 0.  1.
        -12    1    3    3    0    0 -0.12387315270E+01 -0.97652242210E+01  0.10526295444E+02  0.14411695100E+02  0.00000000000E+00 0.  1.
</event>
<event>
 7    1  0.2243370E-008  0.4614232E+02  0.7816164E-02  0.1320468E+00
        -11   -1    0    0    0    0  0.00000000000E+00  0.00000000000E+00  0.45593999997E+02  0.45594000000E+02  0.51100000000E-03 0.  1.
         11   -1    0    0    0    0 -0.00000000000E+00 -0.00000000000E+00 -0.45593999997E+02  0.45594000000E+02  0.51100000000E-03 0. -1.
    9900012    2    1    2    0    0  0.21504733341E+02  0.15013482845E+02  0.36623151744E+02  0.46142318000E+02  0.10000002180E+02 0.  0.
         12    1    1    2    0    0 -0.21504733341E+02 -0.15013482845E+02 -0.36623151744E+02  0.45045682000E+02  0.00000000000E+00 0. -1.
         11    1    3    3    0    0  0.63405496597E+01  0.32269418957E+01  0.41429494798E+01  0.82328460838E+01  0.51100000000E-03 0. -1.
        -11    1    3    3    0    0  0.11123665660E+02  0.73016386270E+01  0.19664877087E+02  0.23743572929E+02  0.51100000000E-03 0.  1.
         12    1    3    3    0    0  0.40405180211E+01  0.44849023220E+01  0.12815325177E+02  0.14165898987E+02  0.00000000000E+00 0. -1.
</event>
<event>
 7    1  0.2243370E-008  0.4614232E+02  0.7816164E-02  0.1320468E+00
        -11   -1    0    0    0    0  0.00000000000E+00  0.00000000000E+00  0.45593999997E+02  0.45594000000E+02  0.51100000000E-03 0.  1.
         11   -1    0    0    0    0 -0.00000000000E+00 -0.00000000000E+00 -0.45593999997E+02  0.45594000000E+02  0.51100000000E-03 0. -1.
    9900012    2    1    2    0    0  0.42279878276E+02  0.14797767409E+02  0.47488467202E+01  0.46142316827E+02  0.99999914849E+01 0.  0.
         12    1    1    2    0    0 -0.42279878276E+02 -0.14797767409E+02 -0.47488467202E+01  0.45045683173E+02  0.00000000000E+00 0. -1.
         11    1    3    3    0    0  0.50340202665E+01  0.15048507065E+00 -0.25828844083E+00  0.50428879602E+01  0.51100000000E-03 0. -1.
        -11    1    3    3    0    0 -0.19098507379E+00  0.31641628361E+00 -0.51597252755E+00  0.63468297066E+00  0.51100000000E-03 0.  1.
        -12    1    3    3    0    0  0.37436843083E+02  0.14330866055E+02  0.55231076886E+01  0.40464745896E+02  0.00000000000E+00 0.  1.
</event>
<event>
 7    1  0.2243370E-008  0.4614232E+02  0.7816164E-02  0.1320468E+00
        -11   -1    0    0    0    0  0.00000000000E+00  0.00000000000E+00  0.45593999997E+02  0.45594000000E+02  0.51100000000E-03 0.  1.
         11   -1    0    0    0    0 -0.00000000000E+00 -0.00000000000E+00 -0.45593999997E+02  0.45594000000E+02  0.51100000000E-03 0. -1.
    9900012    2    1    2    0    0 -0.25394810929E+02  0.11930377658E+02  0.35240361836E+02  0.46142318348E+02  0.10000005352E+02 0.  0.
         12    1    1    2    0    0  0.25394810929E+02 -0.11930377658E+02 -0.35240361836E+02  0.45045681652E+02  0.00000000000E+00 0. -1.
         11    1    3    3    0    0 -0.24522808342E+00 -0.47805523568E+00 -0.96700604770E-01  0.54591655896E+00  0.51100000000E-03 0.  1.
        -11    1    3    3    0    0 -0.32852804558E+01  0.44626776570E+01  0.63214149106E+01  0.84064764484E+01  0.51100000000E-03 0. -1.
        -12    1    3    3    0    0 -0.21864302389E+02  0.79457552364E+01  0.29015647530E+02  0.37189925341E+02  0.00000000000E+00 0.  1.
</event>
<event>
 7    1  0.2243370E-008  0.4614232E+02  0.7816164E-02  0.1320468E+00
        -11   -1    0    0    0    0  0.00000000000E+00  0.00000000000E+00  0.45593999997E+02  0.45594000000E+02  0.51100000000E-03 0.  1.
         11   -1    0    0    0    0 -0.00000000000E+00 -0.00000000000E+00 -0.45593999997E+02  0.45594000000E+02  0.51100000000E-03 0. -1.
    9900012    2    1    2    0    0  0.28428243320E+02 -0.30885523745E+02  0.16341141399E+02  0.46142317660E+02  0.99999990790E+01 0.  0.
         12    1    1    2    0    0 -0.28428243320E+02  0.30885523745E+02 -0.16341141399E+02  0.45045682340E+02  0.00000000000E+00 0. -1.
         11    1    3    3    0    0  0.42714707691E+01 -0.23620015512E+01 -0.34194115261E+00  0.48929988628E+01  0.51100000000E-03 0. -1.
        -11    1    3    3    0    0  0.21110878211E+02 -0.22202143210E+02  0.12564694245E+02  0.33113077231E+02  0.51100000000E-03 0.  1.
        -12    1    3    3    0    0  0.30458943396E+01 -0.63213789839E+01  0.41183883065E+01  0.81362415665E+01  0.00000000000E+00 0.  1.
</event>
<event>
 7    1  0.2243370E-008  0.4614232E+02  0.7816164E-02  0.1320468E+00
        -11   -1    0    0    0    0  0.00000000000E+00  0.00000000000E+00  0.45593999997E+02  0.45594000000E+02  0.51100000000E-03 0.  1.
         11   -1    0    0    0    0 -0.00000000000E+00 -0.00000000000E+00 -0.45593999997E+02  0.45594000000E+02  0.51100000000E-03 0. -1.
    9900012    2    1    2    0    0  0.35773208067E+01 -0.34419458026E+02  0.28837770356E+02  0.46142319696E+02  0.10000017648E+02 0.  0.
         12    1    1    2    0    0 -0.35773208067E+01  0.34419458026E+02 -0.28837770356E+02  0.45045680304E+02  0.00000000000E+00 0. -1.
         11    1    3    3    0    0  0.22593593807E+01 -0.10340792276E+02  0.78458990246E+01  0.13175538754E+02  0.51100000000E-03 0. -1.
        -11    1    3    3    0    0 -0.70686437244E-01 -0.19234308006E+02  0.20151716622E+02  0.27857768829E+02  0.51100000000E-03 0.  1.
         12    1    3    3    0    0  0.13886478633E+01 -0.48443577439E+01  0.84015470890E+00  0.51090121134E+01  0.00000000000E+00 0. -1.
</event>
<event>
 7    1  0.2243370E-008  0.4614232E+02  0.7816164E-02  0.1320468E+00
        -11   -1    0    0    0    0  0.00000000000E+00  0.00000000000E+00  0.45593999997E+02  0.45594000000E+02  0.51100000000E-03 0.  1.
         11   -1    0    0    0    0 -0.00000000000E+00 -0.00000000000E+00 -0.45593999997E+02  0.45594000000E+02  0.51100000000E-03 0. -1.
    9900012    2    1    2    0    0 -0.31049502210E+02 -0.15091489755E+01  0.32600067737E+02  0.46142317248E+02  0.99999953208E+01 0.  0.
         12    1    1    2    0    0  0.31049502210E+02  0.15091489755E+01 -0.32600067737E+02  0.45045682752E+02  0.00000000000E+00 0. -1.
         11    1    3    3    0    0 -0.16811187682E+02 -0.14907420142E+01  0.16233167221E+02  0.23416960976E+02  0.51100000000E-03 0. -1.
        -11    1    3    3    0    0 -0.13082314628E+02 -0.22204249591E+01  0.14065506107E+02  0.19336900097E+02  0.51100000000E-03 0.  1.
         12    1    3    3    0    0 -0.11559998997E+01  0.22020179978E+01  0.23013944085E+01  0.33884561757E+01  0.00000000000E+00 0. -1.
</event>
<event>
 7    1  0.2243370E-008  0.4614231E+02  0.7816164E-02  0.1320468E+00
        -11   -1    0    0    0    0  0.00000000000E+00  0.00000000000E+00  0.45593999997E+02  0.45594000000E+02  0.51100000000E-03 0.  1.
         11   -1    0    0    0    0 -0.00000000000E+00 -0.00000000000E+00 -0.45593999997E+02  0.45594000000E+02  0.51100000000E-03 0. -1.
    9900012    2    1    2    0    0 -0.36607846536E+02  0.15351499976E+02  0.21291096180E+02  0.46142314790E+02  0.99999729041E+01 0.  0.
         12    1    1    2    0    0  0.36607846536E+02 -0.15351499976E+02 -0.21291096180E+02  0.45045685210E+02  0.00000000000E+00 0. -1.
         11    1    3    3    0    0 -0.57877450054E+01  0.54699158561E+01  0.45694564396E+01  0.91813890090E+01  0.51100000000E-03 0. -1.
        -11    1    3    3    0    0 -0.21348340386E+02  0.39587003108E+01  0.12236806770E+02  0.24923129530E+02  0.51100000000E-03 0.  1.
        -12    1    3    3    0    0 -0.94717611447E+01  0.59228838089E+01  0.44848329701E+01  0.12037796250E+02  0.00000000000E+00 0.  1.
</event>
<event>
 7    1  0.2243370E-008  0.4614232E+02  0.7816164E-02  0.1320468E+00
        -11   -1    0    0    0    0  0.00000000000E+00  0.00000000000E+00  0.45593999997E+02  0.45594000000E+02  0.51100000000E-03 0. -1.
         11   -1    0    0    0    0 -0.00000000000E+00 -0.00000000000E+00 -0.45593999997E+02  0.45594000000E+02  0.51100000000E-03 0.  1.
    9900012    2    1    2    0    0  0.38844852673E+02  0.55337060031E+01 -0.22126207702E+02  0.46142317092E+02  0.99999938988E+01 0.  0.
         12    1    1    2    0    0 -0.38844852673E+02 -0.55337060031E+01  0.22126207702E+02  0.45045682908E+02  0.00000000000E+00 0. -1.
         11    1    3    3    0    0  0.11309120564E+02  0.27126458569E+01 -0.10079970321E+02  0.15390271518E+02  0.51100000000E-03 0. -1.
        -11    1    3    3    0    0  0.26001734735E+02  0.38569150197E+01 -0.12011951593E+02  0.28900743659E+02  0.51100000000E-03 0.  1.
        -12    1    3    3    0    0  0.15339973749E+01 -0.10358548736E+01 -0.34285788156E-01  0.18513019151E+01  0.00000000000E+00 0.  1.
</event>
<event>
 7    1  0.2243370E-008  0.4614232E+02  0.7816164E-02  0.1320468E+00
        -11   -1    0    0    0    0  0.00000000000E+00  0.00000000000E+00  0.45593999997E+02  0.45594000000E+02  0.51100000000E-03 0. -1.
         11   -1    0    0    0    0 -0.00000000000E+00 -0.00000000000E+00 -0.45593999997E+02  0.45594000000E+02  0.51100000000E-03 0.  1.
    9900012    2    1    2    0    0 -0.33589645073E+02  0.26316522800E+02 -0.14432252462E+02  0.46142317192E+02  0.99999948142E+01 0.  0.
         12    1    1    2    0    0  0.33589645073E+02 -0.26316522800E+02  0.14432252462E+02  0.45045682808E+02  0.00000000000E+00 0. -1.
         11    1    3    3    0    0 -0.52282054328E+01  0.59027073880E+01 -0.41443869545E+01  0.89079756424E+01  0.51100000000E-03 0. -1.
        -11    1    3    3    0    0 -0.19026083972E+02  0.98079770209E+01 -0.83350754453E+01  0.22970889567E+02  0.51100000000E-03 0.  1.
         12    1    3    3    0    0 -0.93353556685E+01  0.10605838391E+02 -0.19527900625E+01  0.14263451983E+02  0.00000000000E+00 0. -1.
</event>
<event>
 7    1  0.2243370E-008  0.4614232E+02  0.7816164E-02  0.1320468E+00
        -11   -1    0    0    0    0  0.00000000000E+00  0.00000000000E+00  0.45593999997E+02  0.45594000000E+02  0.51100000000E-03 0. -1.
         11   -1    0    0    0    0 -0.00000000000E+00 -0.00000000000E+00 -0.45593999997E+02  0.45594000000E+02  0.51100000000E-03 0.  1.
    9900012    2    1    2    0    0  0.10411398086E+02  0.37538493502E+02 -0.22618085513E+02  0.46142317668E+02  0.99999991517E+01 0.  0.
         12    1    1    2    0    0 -0.10411398086E+02 -0.37538493502E+02  0.22618085513E+02  0.45045682332E+02  0.00000000000E+00 0. -1.
         11    1    3    3    0    0  0.84733034518E+00  0.56256107202E+01 -0.26982182815E+01  0.62964948062E+01  0.51100000000E-03 0. -1.
        -11    1    3    3    0    0  0.10603956104E+02  0.30014673787E+02 -0.16649087553E+02  0.35923761554E+02  0.51100000000E-03 0.  1.
         12    1    3    3    0    0 -0.10398883633E+01  0.18982089944E+01 -0.32707796788E+01  0.39220613078E+01  0.00000000000E+00 0. -1.
</event>
<event>
 7    1  0.2243370E-008  0.4614232E+02  0.7816164E-02  0.1320468E+00
        -11   -1    0    0    0    0  0.00000000000E+00  0.00000000000E+00  0.45593999997E+02  0.45594000000E+02  0.51100000000E-03 0.  1.
         11   -1    0    0    0    0 -0.00000000000E+00 -0.00000000000E+00 -0.45593999997E+02  0.45594000000E+02  0.51100000000E-03 0. -1.
    9900012    2    1    2    0    0 -0.13371288177E+01  0.34446429055E+02  0.28996019218E+02  0.46142317426E+02  0.99999969398E+01 0.  0.
         12    1    1    2    0    0  0.13371288177E+01 -0.34446429055E+02 -0.28996019218E+02  0.45045682574E+02  0.00000000000E+00 0. -1.
         11    1    3    3    0    0  0.14410495374E+01  0.20959625819E+02  0.20850721622E+02  0.29599579907E+02  0.51100000000E-03 0. -1.
        -11    1    3    3    0    0  0.13102659719E-01  0.89189321295E+00 -0.49108354259E+00  0.10182379338E+01  0.51100000000E-03 0.  1.
        -12    1    3    3    0    0 -0.27912810149E+01  0.12594910023E+02  0.86363811391E+01  0.15524499585E+02  0.00000000000E+00 0.  1.
</event>
<event>
 7    1  0.2243370E-008  0.4614232E+02  0.7816164E-02  0.1320468E+00
        -11   -1    0    0    0    0  0.00000000000E+00  0.00000000000E+00  0.45593999997E+02  0.45594000000E+02  0.51100000000E-03 0.  1.
         11   -1    0    0    0    0 -0.00000000000E+00 -0.00000000000E+00 -0.45593999997E+02  0.45594000000E+02  0.51100000000E-03 0. -1.
    9900012    2    1    2    0    0 -0.89273208636E+01 -0.43788410569E+02  0.56561071544E+01  0.46142317564E+02  0.99999982053E+01 0.  0.
         12    1    1    2    0    0  0.89273208636E+01  0.43788410569E+02 -0.56561071544E+01  0.45045682436E+02  0.00000000000E+00 0. -1.
         11    1    3    3    0    0 -0.68963309543E+01 -0.24244506225E+02  0.16868852632E+01  0.25262641289E+02  0.51100000000E-03 0. -1.
        -11    1    3    3    0    0  0.20312429376E+00 -0.71455329712E+01 -0.12253860257E+01  0.72526872326E+01  0.51100000000E-03 0.  1.
        -12    1    3    3    0    0 -0.22341142030E+01 -0.12398371373E+02  0.51946079169E+01  0.13626989043E+02  0.00000000000E+00 0.  1.
</event>
<event>
 7    1  0.2243370E-008  0.4614232E+02  0.7816164E-02  0.1320468E+00
        -11   -1    0    0    0    0  0.00000000000E+00  0.00000000000E+00  0.45593999997E+02  0.45594000000E+02  0.51100000000E-03 0. -1.
         11   -1    0    0    0    0 -0.00000000000E+00 -0.00000000000E+00 -0.45593999997E+02  0.45594000000E+02  0.51100000000E-03 0.  1.
    9900012    2    1    2    0    0 -0.17497134640E+02  0.28492863763E+02 -0.30184772930E+02  0.46142317378E+02  0.99999965065E+01 0.  0.
         12    1    1    2    0    0  0.17497134640E+02 -0.28492863763E+02  0.30184772930E+02  0.45045682622E+02  0.00000000000E+00 0. -1.
         11    1    3    3    0    0 -0.39477120879E+01  0.96412571524E+01 -0.87300344417E+01  0.13592342396E+02  0.51100000000E-03 0. -1.
        -11    1    3    3    0    0 -0.11231166888E+02  0.12962328948E+02 -0.19402819723E+02  0.25896534418E+02  0.51100000000E-03 0.  1.
         12    1    3    3    0    0 -0.23182556643E+01  0.58892776621E+01 -0.20519187661E+01  0.66534405632E+01  0.00000000000E+00 0. -1.
</event>
<event>
 7    1  0.2243370E-008  0.4614232E+02  0.7816164E-02  0.1320468E+00
        -11   -1    0    0    0    0  0.00000000000E+00  0.00000000000E+00  0.45593999997E+02  0.45594000000E+02  0.51100000000E-03 0.  1.
         11   -1    0    0    0    0 -0.00000000000E+00 -0.00000000000E+00 -0.45593999997E+02  0.45594000000E+02  0.51100000000E-03 0. -1.
    9900012    2    1    2    0    0  0.26888864982E+02  0.23966566472E+02 -0.27050064465E+02  0.46142319230E+02  0.10000013394E+02 0.  0.
         12    1    1    2    0    0 -0.26888864982E+02 -0.23966566472E+02  0.27050064465E+02  0.45045680770E+02  0.00000000000E+00 0. -1.
         11    1    3    3    0    0  0.11658898795E+02  0.15580736615E+02 -0.14901003157E+02  0.24509777027E+02  0.51100000000E-03 0. -1.
        -11    1    3    3    0    0  0.12489251016E+02  0.78907011439E+01 -0.11625099669E+02  0.18798603620E+02  0.51100000000E-03 0.  1.
        -12    1    3    3    0    0  0.27407151710E+01  0.49512871361E+00 -0.52396163819E+00  0.28339385826E+01  0.00000000000E+00 0.  1.
</event>
<event>
 7    1  0.2243370E-008  0.4614232E+02  0.7816164E-02  0.1320468E+00
        -11   -1    0    0    0    0  0.00000000000E+00  0.00000000000E+00  0.45593999997E+02  0.45594000000E+02  0.51100000000E-03 0.  1.
         11   -1    0    0    0    0 -0.00000000000E+00 -0.00000000000E+00 -0.45593999997E+02  0.45594000000E+02  0.51100000000E-03 0. -1.
    9900012    2    1    2    0    0 -0.36303937775E+02  0.10674015306E+01  0.26645789202E+02  0.46142319561E+02  0.10000016414E+02 0.  0.
         12    1    1    2    0    0  0.36303937775E+02 -0.10674015306E+01 -0.26645789202E+02  0.45045680439E+02  0.00000000000E+00 0. -1.
         11    1    3    3    0    0 -0.14161037005E+02 -0.87104902387E-01  0.81099762070E+01  0.16319138171E+02  0.51100000000E-03 0. -1.
        -11    1    3    3    0    0 -0.94300950883E+01 -0.26807751628E+01  0.56264000213E+01  0.11303522739E+02  0.51100000000E-03 0.  1.
         12    1    3    3    0    0 -0.12712805682E+02  0.38352815958E+01  0.12909412973E+02  0.18519658651E+02  0.00000000000E+00 0. -1.
</event>
<event>
 7    1  0.2243370E-008  0.4614232E+02  0.7816164E-02  0.1320468E+00
        -11   -1    0    0    0    0  0.00000000000E+00  0.00000000000E+00  0.45593999997E+02  0.45594000000E+02  0.51100000000E-03 0.  1.
         11   -1    0    0    0    0 -0.00000000000E+00 -0.00000000000E+00 -0.45593999997E+02  0.45594000000E+02  0.51100000000E-03 0. -1.
    9900012    2    1    2    0    0 -0.10967800079E+02 -0.33151024047E+02  0.28457521578E+02  0.46142316874E+02  0.99999919082E+01 0.  0.
         12    1    1    2    0    0  0.10967800079E+02  0.33151024047E+02 -0.28457521578E+02  0.45045683126E+02  0.00000000000E+00 0. -1.
         11    1    3    3    0    0 -0.77286962011E+01 -0.26530950272E+02  0.17021454362E+02  0.32455415206E+02  0.51100000000E-03 0.  1.
        -11    1    3    3    0    0 -0.16782220663E+01 -0.26325321250E+01  0.60309325010E+01  0.67910825194E+01  0.51100000000E-03 0. -1.
        -12    1    3    3    0    0 -0.15608818120E+01 -0.39875416495E+01  0.54051347155E+01  0.68958191486E+01  0.00000000000E+00 0.  1.
</event>
<event>
 7    1  0.2243370E-008  0.4614232E+02  0.7816164E-02  0.1320468E+00
        -11   -1    0    0    0    0  0.00000000000E+00  0.00000000000E+00  0.45593999997E+02  0.45594000000E+02  0.51100000000E-03 0. -1.
         11   -1    0    0    0    0 -0.00000000000E+00 -0.00000000000E+00 -0.45593999997E+02  0.45594000000E+02  0.51100000000E-03 0.  1.
    9900012    2    1    2    0    0  0.55070646773E+01  0.37514299132E+02  0.24320014914E+02  0.46142317341E+02  0.99999961730E+01 0.  0.
         12    1    1    2    0    0 -0.55070646773E+01 -0.37514299132E+02 -0.24320014914E+02  0.45045682659E+02  0.00000000000E+00 0. -1.
         11    1    3    3    0    0  0.16873712607E+01  0.60829968855E+00  0.13037979095E+01  0.22174624084E+01  0.51100000000E-03 0. -1.
        -11    1    3    3    0    0 -0.44916025797E-01  0.19102606960E+02  0.10247592301E+02  0.21677748000E+02  0.51100000000E-03 0.  1.
         12    1    3    3    0    0  0.38646094424E+01  0.17803392484E+02  0.12768624704E+02  0.22247106934E+02  0.00000000000E+00 0. -1.
</event>
<event>
 7    1  0.2243370E-008  0.4614232E+02  0.7816164E-02  0.1320468E+00
        -11   -1    0    0    0    0  0.00000000000E+00  0.00000000000E+00  0.45593999997E+02  0.45594000000E+02  0.51100000000E-03 0.  1.
         11   -1    0    0    0    0 -0.00000000000E+00 -0.00000000000E+00 -0.45593999997E+02  0.45594000000E+02  0.51100000000E-03 0. -1.
    9900012    2    1    2    0    0  0.15059576753E+02  0.32414463279E+02  0.27415785145E+02  0.46142317002E+02  0.99999930754E+01 0.  0.
         12    1    1    2    0    0 -0.15059576753E+02 -0.32414463279E+02 -0.27415785145E+02  0.45045682998E+02  0.00000000000E+00 0. -1.
         11    1    3    3    0    0  0.47379729174E+01  0.31661344153E+01  0.46605842477E+01  0.73616465749E+01  0.51100000000E-03 0. -1.
        -11    1    3    3    0    0  0.64061282554E+01  0.17012662411E+02  0.10333405133E+02  0.20910485969E+02  0.51100000000E-03 0.  1.
        -12    1    3    3    0    0  0.39154755802E+01  0.12235666453E+02  0.12421795764E+02  0.17870184458E+02  0.00000000000E+00 0.  1.
</event>
<event>
 7    1  0.2243370E-008  0.4614232E+02  0.7816164E-02  0.1320468E+00
        -11   -1    0    0    0    0  0.00000000000E+00  0.00000000000E+00  0.45593999997E+02  0.45594000000E+02  0.51100000000E-03 0.  1.
         11   -1    0    0    0    0 -0.00000000000E+00 -0.00000000000E+00 -0.45593999997E+02  0.45594000000E+02  0.51100000000E-03 0. -1.
    9900012    2    1    2    0    0  0.35565605515E+02  0.18522747553E+02  0.20520944193E+02  0.46142316265E+02  0.99999863606E+01 0.  0.
         12    1    1    2    0    0 -0.35565605515E+02 -0.18522747553E+02 -0.20520944193E+02  0.45045683735E+02  0.00000000000E+00 0. -1.
         11    1    3    3    0    0  0.64891744200E+01  0.10590281928E+01  0.35535805985E+01  0.74738785579E+01  0.51100000000E-03 0. -1.
        -11    1    3    3    0    0  0.23405770829E+02  0.11344727413E+02  0.15249108975E+02  0.30150759077E+02  0.51100000000E-03 0.  1.
         12    1    3    3    0    0  0.56706602661E+01  0.61189919476E+01  0.17182546195E+01  0.85176786301E+01  0.00000000000E+00 0. -1.
</event>
<event>
 7    1  0.2243370E-008  0.4614232E+02  0.7816164E-02  0.1320468E+00
        -11   -1    0    0    0    0  0.00000000000E+00  0.00000000000E+00  0.45593999997E+02  0.45594000000E+02  0.51100000000E-03 0.  1.
         11   -1    0    0    0    0 -0.00000000000E+00 -0.00000000000E+00 -0.45593999997E+02  0.45594000000E+02  0.51100000000E-03 0. -1.
    9900012    2    1    2    0    0  0.43601715574E+02 -0.36804990248E+01  0.10698495829E+02  0.46142317775E+02  0.10000000131E+02 0.  0.
         12    1    1    2    0    0 -0.43601715574E+02  0.36804990248E+01 -0.10698495829E+02  0.45045682225E+02  0.00000000000E+00 0. -1.
         11    1    3    3    0    0  0.18525690893E+02 -0.15165757962E+01  0.69410595787E+00  0.18600618499E+02  0.51100000000E-03 0.  1.
        -11    1    3    3    0    0  0.18553596743E+02  0.45195155573E+00  0.81765697985E+01  0.20280446402E+02  0.51100000000E-03 0. -1.
         12    1    3    3    0    0  0.65224279377E+01 -0.26158747843E+01  0.18278200726E+01  0.72612528745E+01  0.00000000000E+00 0. -1.
</event>
<event>
 7    1  0.2243370E-008  0.4614232E+02  0.7816164E-02  0.1320468E+00
        -11   -1    0    0    0    0  0.00000000000E+00  0.00000000000E+00  0.45593999997E+02  0.45594000000E+02  0.51100000000E-03 0.  1.
         11   -1    0    0    0    0 -0.00000000000E+00 -0.00000000000E+00 -0.45593999997E+02  0.45594000000E+02  0.51100000000E-03 0. -1.
    9900012    2    1    2    0    0  0.16390270912E+02  0.36194051825E+02  0.21224122046E+02  0.46142315138E+02  0.99999760793E+01 0.  0.
         12    1    1    2    0    0 -0.16390270912E+02 -0.36194051825E+02 -0.21224122046E+02  0.45045684862E+02  0.00000000000E+00 0. -1.
         11    1    3    3    0    0  0.20171099918E+01  0.10364474029E+02  0.23645361586E+01  0.10820447594E+02  0.51100000000E-03 0. -1.
        -11    1    3    3    0    0  0.11540498671E+02  0.20147977825E+02  0.12650118892E+02  0.26441437712E+02  0.51100000000E-03 0.  1.
        -12    1    3    3    0    0  0.28326622491E+01  0.56815999704E+01  0.62094669953E+01  0.88804298324E+01  0.00000000000E+00 0.  1.
</event>
<event>
 7    1  0.2243370E-008  0.4614232E+02  0.7816164E-02  0.1320468E+00
        -11   -1    0    0    0    0  0.00000000000E+00  0.00000000000E+00  0.45593999997E+02  0.45594000000E+02  0.51100000000E-03 0.  1.
         11   -1    0    0    0    0 -0.00000000000E+00 -0.00000000000E+00 -0.45593999997E+02  0.45594000000E+02  0.51100000000E-03 0. -1.
    9900012    2    1    2    0    0 -0.37370043443E+02  0.24957797373E+02  0.31147549234E+01  0.46142317689E+02  0.99999993406E+01 0.  0.
         12    1    1    2    0    0  0.37370043443E+02 -0.24957797373E+02 -0.31147549234E+01  0.45045682311E+02  0.00000000000E+00 0. -1.
         11    1    3    3    0    0 -0.17745229963E+02  0.68301009444E+01  0.17298503805E+01  0.19092821896E+02  0.51100000000E-03 0. -1.
        -11    1    3    3    0    0 -0.11134235722E+02  0.82559550104E+01 -0.62111254870E+00  0.13875077632E+02  0.51100000000E-03 0.  1.
         12    1    3    3    0    0 -0.84905777580E+01  0.98717414180E+01  0.20060170916E+01  0.13174418160E+02  0.00000000000E+00 0. -1.
</event>
<event>
 7    1  0.2243370E-008  0.4614232E+02  0.7816164E-02  0.1320468E+00
        -11   -1    0    0    0    0  0.00000000000E+00  0.00000000000E+00  0.45593999997E+02  0.45594000000E+02  0.51100000000E-03 0.  1.
         11   -1    0    0    0    0 -0.00000000000E+00 -0.00000000000E+00 -0.45593999997E+02  0.45594000000E+02  0.51100000000E-03 0. -1.
    9900012    2    1    2    0    0 -0.15172335328E+02  0.37187097050E+02  0.20396900882E+02  0.46142317499E+02  0.99999976141E+01 0.  0.
         12    1    1    2    0    0  0.15172335328E+02 -0.37187097050E+02 -0.20396900882E+02  0.45045682501E+02  0.00000000000E+00 0. -1.
         11    1    3    3    0    0 -0.51857050492E+01  0.10782029305E+02  0.83852437288E+01  0.14610133656E+02  0.51100000000E-03 0.  1.
        -11    1    3    3    0    0 -0.51689735459E+01  0.21014648208E+02  0.10854479493E+02  0.24210606191E+02  0.51100000000E-03 0. -1.
        -12    1    3    3    0    0 -0.48176567325E+01  0.53904195371E+01  0.11571776611E+01  0.73215776522E+01  0.00000000000E+00 0.  1.
</event>
<event>
 7    1  0.2243370E-008  0.4614232E+02  0.7816164E-02  0.1320468E+00
        -11   -1    0    0    0    0  0.00000000000E+00  0.00000000000E+00  0.45593999997E+02  0.45594000000E+02  0.51100000000E-03 0.  1.
         11   -1    0    0    0    0 -0.00000000000E+00 -0.00000000000E+00 -0.45593999997E+02  0.45594000000E+02  0.51100000000E-03 0. -1.
    9900012    2    1    2    0    0  0.40112036344E+00 -0.39316797039E+02  0.21980493109E+02  0.46142317585E+02  0.99999983912E+01 0.  0.
         12    1    1    2    0    0 -0.40112036344E+00  0.39316797039E+02 -0.21980493109E+02  0.45045682415E+02  0.00000000000E+00 0. -1.
         11    1    3    3    0    0 -0.68933323072E+00 -0.17932040552E+02  0.96352813286E+01  0.20368404582E+02  0.51100000000E-03 0. -1.
        -11    1    3    3    0    0 -0.10589851719E+01 -0.19760932879E+02  0.11751135966E+02  0.23015323473E+02  0.51100000000E-03 0.  1.
         12    1    3    3    0    0  0.21494387661E+01 -0.16238236082E+01  0.59407581441E+00  0.27585895296E+01  0.00000000000E+00 0. -1.
</event>
<event>
 7    1  0.2243370E-008  0.4614232E+02  0.7816164E-02  0.1320468E+00
        -11   -1    0    0    0    0  0.00000000000E+00  0.00000000000E+00  0.45593999997E+02  0.45594000000E+02  0.51100000000E-03 0.  1.
         11   -1    0    0    0    0 -0.00000000000E+00 -0.00000000000E+00 -0.45593999997E+02  0.45594000000E+02  0.51100000000E-03 0. -1.
    9900012    2    1    2    0    0 -0.27906375827E+02 -0.13503462380E+02  0.32680332609E+02  0.46142318215E+02  0.10000004138E+02 0.  0.
         12    1    1    2    0    0  0.27906375827E+02  0.13503462380E+02 -0.32680332609E+02  0.45045681785E+02  0.00000000000E+00 0. -1.
         11    1    3    3    0    0 -0.43640105982E+01 -0.30177707013E+01  0.23850776971E+01  0.58172265204E+01  0.51100000000E-03 0. -1.
        -11    1    3    3    0    0 -0.10656202980E+02 -0.34744536539E+01  0.85637859772E+01  0.14105492571E+02  0.51100000000E-03 0.  1.
         12    1    3    3    0    0 -0.12886162249E+02 -0.70112380247E+01  0.21731468934E+02  0.26219599124E+02  0.00000000000E+00 0. -1.
</event>
<event>
 7    1  0.2243370E-008  0.4614232E+02  0.7816164E-02  0.1320468E+00
        -11   -1    0    0    0    0  0.00000000000E+00  0.00000000000E+00  0.45593999997E+02  0.45594000000E+02  0.51100000000E-03 0. -1.
         11   -1    0    0    0    0 -0.00000000000E+00 -0.00000000000E+00 -0.45593999997E+02  0.45594000000E+02  0.51100000000E-03 0.  1.
    9900012    2    1    2    0    0 -0.16416259154E+02  0.18980757399E+02 -0.37407896773E+02  0.46142318109E+02  0.10000003175E+02 0.  0.
         12    1    1    2    0    0  0.16416259154E+02 -0.18980757399E+02  0.37407896773E+02  0.45045681891E+02  0.00000000000E+00 0. -1.
         11    1    3    3    0    0 -0.26508107250E+01  0.48015434019E+01 -0.60702143325E+01  0.81810218704E+01  0.51100000000E-03 0. -1.
        -11    1    3    3    0    0 -0.68455766155E+01  0.94169743184E+01 -0.11257336144E+02  0.16194719566E+02  0.51100000000E-03 0.  1.
        -12    1    3    3    0    0 -0.69198718132E+01  0.47622396788E+01 -0.20080346296E+02  0.21766576673E+02  0.00000000000E+00 0.  1.
</event>
<event>
 7    1  0.2243370E-008  0.4614232E+02  0.7816164E-02  0.1320468E+00
        -11   -1    0    0    0    0  0.00000000000E+00  0.00000000000E+00  0.45593999997E+02  0.45594000000E+02  0.51100000000E-03 0.  1.
         11   -1    0    0    0    0 -0.00000000000E+00 -0.00000000000E+00 -0.45593999997E+02  0.45594000000E+02  0.51100000000E-03 0. -1.
    9900012    2    1    2    0    0  0.10347848298E+02 -0.69482218354E+00  0.43835519337E+02  0.46142317656E+02  0.99999990432E+01 0.  0.
         12    1    1    2    0    0 -0.10347848298E+02  0.69482218354E+00 -0.43835519337E+02  0.45045682344E+02  0.00000000000E+00 0. -1.
         11    1    3    3    0    0  0.35041316262E+01  0.88227332501E-01  0.55499621040E+01  0.65642061312E+01  0.51100000000E-03 0.  1.
        -11    1    3    3    0    0  0.29213341704E+01 -0.22295294185E+01  0.60945712546E+01  0.71167965969E+01  0.51100000000E-03 0. -1.
        -12    1    3    3    0    0  0.39223825019E+01  0.14464799025E+01  0.32190985978E+02  0.32461314928E+02  0.00000000000E+00 0.  1.
</event>
<event>
 7    1  0.2243370E-008  0.4614232E+02  0.7816164E-02  0.1320468E+00
        -11   -1    0    0    0    0  0.00000000000E+00  0.00000000000E+00  0.45593999997E+02  0.45594000000E+02  0.51100000000E-03 0.  1.
         11   -1    0    0    0    0 -0.00000000000E+00 -0.00000000000E+00 -0.45593999997E+02  0.45594000000E+02  0.51100000000E-03 0. -1.
    9900012    2    1    2    0    0 -0.24570230685E+01 -0.42906298701E+02 -0.13495407342E+02  0.46142318188E+02  0.10000003892E+02 0.  0.
         12    1    1    2    0    0  0.24570230685E+01  0.42906298701E+02  0.13495407342E+02  0.45045681812E+02  0.00000000000E+00 0. -1.
         11    1    3    3    0    0  0.14119758460E+01 -0.27577189349E+01  0.56222271620E+00  0.31487750249E+01  0.51100000000E-03 0. -1.
        -11    1    3    3    0    0 -0.10900711099E+01 -0.71376731330E+01 -0.62951893766E+00  0.72478222337E+01  0.51100000000E-03 0.  1.
        -12    1    3    3    0    0 -0.27789278046E+01 -0.33010906633E+02 -0.13428111121E+02  0.35745720929E+02  0.00000000000E+00 0.  1.
</event>
<event>
 7    1  0.2243370E-008  0.4614232E+02  0.7816164E-02  0.1320468E+00
        -11   -1    0    0    0    0  0.00000000000E+00  0.00000000000E+00  0.45593999997E+02  0.45594000000E+02  0.51100000000E-03 0.  1.
         11   -1    0    0    0    0 -0.00000000000E+00 -0.00000000000E+00 -0.45593999997E+02  0.45594000000E+02  0.51100000000E-03 0. -1.
    9900012    2    1    2    0    0 -0.22814514067E+02 -0.37125943949E+02  0.11413837772E+02  0.46142318088E+02  0.10000002981E+02 0.  0.
         12    1    1    2    0    0  0.22814514067E+02  0.37125943949E+02 -0.11413837772E+02  0.45045681912E+02  0.00000000000E+00 0. -1.
         11    1    3    3    0    0 -0.59492073311E+01 -0.16883785357E+02  0.63872531942E+01  0.19006637774E+02  0.51100000000E-03 0. -1.
        -11    1    3    3    0    0 -0.82276326736E+01 -0.12869426450E+02  0.35697263192E+01  0.15686268607E+02  0.51100000000E-03 0.  1.
        -12    1    3    3    0    0 -0.86376740619E+01 -0.73727321425E+01  0.14568582591E+01  0.11449411707E+02  0.00000000000E+00 0.  1.
</event>
<event>
 7    1  0.2243370E-008  0.4614232E+02  0.7816164E-02  0.1320468E+00
        -11   -1    0    0    0    0  0.00000000000E+00  0.00000000000E+00  0.45593999997E+02  0.45594000000E+02  0.51100000000E-03 0.  1.
         11   -1    0    0    0    0 -0.00000000000E+00 -0.00000000000E+00 -0.45593999997E+02  0.45594000000E+02  0.51100000000E-03 0. -1.
    9900012    2    1    2    0    0  0.17262468673E+02  0.35427520128E+02  0.21817687798E+02  0.46142317544E+02  0.99999980207E+01 0.  0.
         12    1    1    2    0    0 -0.17262468673E+02 -0.35427520128E+02 -0.21817687798E+02  0.45045682456E+02  0.00000000000E+00 0. -1.
         11    1    3    3    0    0  0.22602997113E+00  0.71303803394E+01  0.31149666080E+01  0.77843709163E+01  0.51100000000E-03 0. -1.
        -11    1    3    3    0    0  0.82896522909E+01  0.96060517022E+01  0.89877798668E+01  0.15549107743E+02  0.51100000000E-03 0.  1.
        -12    1    3    3    0    0  0.87467864104E+01  0.18691088086E+02  0.97149413229E+01  0.22808838885E+02  0.00000000000E+00 0.  1.
</event>
<event>
 7    1  0.2243370E-008  0.4614232E+02  0.7816164E-02  0.1320468E+00
        -11   -1    0    0    0    0  0.00000000000E+00  0.00000000000E+00  0.45593999997E+02  0.45594000000E+02  0.51100000000E-03 0. -1.
         11   -1    0    0    0    0 -0.00000000000E+00 -0.00000000000E+00 -0.45593999997E+02  0.45594000000E+02  0.51100000000E-03 0.  1.
    9900012    2    1    2    0    0  0.44153740209E+02 -0.11935531266E+01 -0.88394646947E+01  0.46142317858E+02  0.10000000885E+02 0.  0.
         12    1    1    2    0    0 -0.44153740209E+02  0.11935531266E+01  0.88394646947E+01  0.45045682142E+02  0.00000000000E+00 0. -1.
         11    1    3    3    0    0  0.37921199897E+01 -0.14161075976E+01 -0.34048890296E-02  0.40479064464E+01  0.51100000000E-03 0. -1.
        -11    1    3    3    0    0  0.35165015302E+00  0.66432688791E+00 -0.11136856645E+01  0.13436085980E+01  0.51100000000E-03 0.  1.
        -12    1    3    3    0    0  0.40009970067E+02 -0.44177241695E+00 -0.77223741411E+01  0.40750802814E+02  0.00000000000E+00 0.  1.
</event>
<event>
 7    1  0.2243370E-008  0.4614232E+02  0.7816164E-02  0.1320468E+00
        -11   -1    0    0    0    0  0.00000000000E+00  0.00000000000E+00  0.45593999997E+02  0.45594000000E+02  0.51100000000E-03 0.  1.
         11   -1    0    0    0    0 -0.00000000000E+00 -0.00000000000E+00 -0.45593999997E+02  0.45594000000E+02  0.51100000000E-03 0. -1.
    9900012    2    1    2    0    0 -0.30753277274E+01  0.36918771215E+02 -0.25625382678E+02  0.46142317121E+02  0.99999941586E+01 0.  0.
         12    1    1    2    0    0  0.30753277274E+01 -0.36918771215E+02  0.25625382678E+02  0.45045682879E+02  0.00000000000E+00 0. -1.
         11    1    3    3    0    0 -0.30762380051E+01  0.23400076143E+02 -0.11765508567E+02  0.26371461769E+02  0.51100000000E-03 0. -1.
        -11    1    3    3    0    0 -0.61079622636E-01  0.79276170104E+01 -0.52636169584E+01  0.95161182175E+01  0.51100000000E-03 0.  1.
         12    1    3    3    0    0  0.61989900350E-01  0.55910780622E+01 -0.85962571527E+01  0.10254737134E+02  0.00000000000E+00 0. -1.
</event>
<event>
 7    1  0.2243370E-008  0.4614232E+02  0.7816164E-02  0.1320468E+00
        -11   -1    0    0    0    0  0.00000000000E+00  0.00000000000E+00  0.45593999997E+02  0.45594000000E+02  0.51100000000E-03 0.  1.
         11   -1    0    0    0    0 -0.00000000000E+00 -0.00000000000E+00 -0.45593999997E+02  0.45594000000E+02  0.51100000000E-03 0. -1.
    9900012    2    1    2    0    0  0.22138212446E+02 -0.25450930479E+02  0.29854034771E+02  0.46142315361E+02  0.99999781128E+01 0.  0.
         12    1    1    2    0    0 -0.22138212446E+02  0.25450930479E+02 -0.29854034771E+02  0.45045684639E+02  0.00000000000E+00 0. -1.
         11    1    3    3    0    0  0.94393336397E+01 -0.68416763049E+01  0.57595550335E+01  0.13003154566E+02  0.51100000000E-03 0. -1.
        -11    1    3    3    0    0  0.62124697864E+01 -0.90255377330E+01  0.94124931870E+01  0.14444727082E+02  0.51100000000E-03 0.  1.
         12    1    3    3    0    0  0.64864090196E+01 -0.95837164407E+01  0.14681986550E+02  0.18694433713E+02  0.00000000000E+00 0. -1.
</event>
<event>
 7    1  0.2243370E-008  0.4614232E+02  0.7816164E-02  0.1320468E+00
        -11   -1    0    0    0    0  0.00000000000E+00  0.00000000000E+00  0.45593999997E+02  0.45594000000E+02  0.51100000000E-03 0.  1.
         11   -1    0    0    0    0 -0.00000000000E+00 -0.00000000000E+00 -0.45593999997E+02  0.45594000000E+02  0.51100000000E-03 0. -1.
    9900012    2    1    2    0    0 -0.41231410185E+02 -0.18136342876E+02  0.39662993933E+00  0.46142318364E+02  0.10000005498E+02 0.  0.
         12    1    1    2    0    0  0.41231410185E+02  0.18136342876E+02 -0.39662993933E+00  0.45045681636E+02  0.00000000000E+00 0. -1.
         11    1    3    3    0    0 -0.77068554034E+01 -0.41378659298E+01  0.64116805397E+00  0.87708979812E+01  0.51100000000E-03 0. -1.
        -11    1    3    3    0    0 -0.10725086315E+02 -0.68323709068E+01  0.34794001754E+01  0.13183891479E+02  0.51100000000E-03 0.  1.
         12    1    3    3    0    0 -0.22799468466E+02 -0.71661060395E+01 -0.37239382900E+01  0.24187528904E+02  0.00000000000E+00 0. -1.
</event>
<event>
 7    1  0.2243370E-008  0.4614232E+02  0.7816164E-02  0.1320468E+00
        -11   -1    0    0    0    0  0.00000000000E+00  0.00000000000E+00  0.45593999997E+02  0.45594000000E+02  0.51100000000E-03 0.  1.
         11   -1    0    0    0    0 -0.00000000000E+00 -0.00000000000E+00 -0.45593999997E+02  0.45594000000E+02  0.51100000000E-03 0. -1.
    9900012    2    1    2    0    0 -0.12292892849E+02 -0.36466584059E+02  0.23413382949E+02  0.46142317980E+02  0.10000001998E+02 0.  0.
         12    1    1    2    0    0  0.12292892849E+02  0.36466584059E+02 -0.23413382949E+02  0.45045682020E+02  0.00000000000E+00 0. -1.
         11    1    3    3    0    0 -0.10126017270E+02 -0.25147389936E+02  0.20897561547E+02  0.34229161912E+02  0.51100000000E-03 0. -1.
        -11    1    3    3    0    0 -0.20239780194E+01 -0.90330653553E+01  0.26185341421E+01  0.96202639283E+01  0.51100000000E-03 0.  1.
         12    1    3    3    0    0 -0.14289755928E+00 -0.22861287679E+01 -0.10271274089E+00  0.22928921394E+01  0.00000000000E+00 0. -1.
</event>
<event>
 7    1  0.2243370E-008  0.4614232E+02  0.7816164E-02  0.1320468E+00
        -11   -1    0    0    0    0  0.00000000000E+00  0.00000000000E+00  0.45593999997E+02  0.45594000000E+02  0.51100000000E-03 0.  1.
         11   -1    0    0    0    0 -0.00000000000E+00 -0.00000000000E+00 -0.45593999997E+02  0.45594000000E+02  0.51100000000E-03 0. -1.
    9900012    2    1    2    0    0 -0.33510040088E+02 -0.19589749125E+02  0.22856781012E+02  0.46142317679E+02  0.99999992527E+01 0.  0.
         12    1    1    2    0    0  0.33510040088E+02  0.19589749125E+02 -0.22856781012E+02  0.45045682321E+02  0.00000000000E+00 0. -1.
         11    1    3    3    0    0 -0.13232078798E+02 -0.10145113405E+02  0.97374957272E+01  0.19308807799E+02  0.51100000000E-03 0.  1.
        -11    1    3    3    0    0 -0.10990376082E+02 -0.31943837290E+01  0.32198390408E+01  0.11889483485E+02  0.51100000000E-03 0. -1.
        -12    1    3    3    0    0 -0.92875852085E+01 -0.62502519910E+01  0.98994462445E+01  0.14944026395E+02  0.00000000000E+00 0.  1.
</event>
<event>
 7    1  0.2243370E-008  0.4614232E+02  0.7816164E-02  0.1320468E+00
        -11   -1    0    0    0    0  0.00000000000E+00  0.00000000000E+00  0.45593999997E+02  0.45594000000E+02  0.51100000000E-03 0.  1.
         11   -1    0    0    0    0 -0.00000000000E+00 -0.00000000000E+00 -0.45593999997E+02  0.45594000000E+02  0.51100000000E-03 0. -1.
    9900012    2    1    2    0    0 -0.32828597568E+02  0.28953643107E+02  0.10634062372E+02  0.46142317078E+02  0.99999937663E+01 0.  0.
         12    1    1    2    0    0  0.32828597568E+02 -0.28953643107E+02 -0.10634062372E+02  0.45045682922E+02  0.00000000000E+00 0. -1.
         11    1    3    3    0    0 -0.14301391506E+02  0.14431270338E+02  0.65022107362E+01  0.21332372285E+02  0.51100000000E-03 0. -1.
        -11    1    3    3    0    0 -0.71844870779E+01  0.47521454032E+01 -0.16339543794E+01  0.87675280257E+01  0.51100000000E-03 0.  1.
        -12    1    3    3    0    0 -0.11342718984E+02  0.97702273649E+01  0.57658060153E+01  0.16042416767E+02  0.00000000000E+00 0.  1.
</event>
<event>
 7    1  0.2243370E-008  0.4614232E+02  0.7816164E-02  0.1320468E+00
        -11   -1    0    0    0    0  0.00000000000E+00  0.00000000000E+00  0.45593999997E+02  0.45594000000E+02  0.51100000000E-03 0. -1.
         11   -1    0    0    0    0 -0.00000000000E+00 -0.00000000000E+00 -0.45593999997E+02  0.45594000000E+02  0.51100000000E-03 0.  1.
    9900012    2    1    2    0    0 -0.86144393989E+01 -0.63541772099E+01 -0.43755334871E+02  0.46142318033E+02  0.10000002478E+02 0.  0.
         12    1    1    2    0    0  0.86144393989E+01  0.63541772099E+01  0.43755334871E+02  0.45045681967E+02  0.00000000000E+00 0. -1.
         11    1    3    3    0    0 -0.37364760220E+01  0.22277618950E+01 -0.12306289943E+02  0.13052545673E+02  0.51100000000E-03 0.  1.
        -11    1    3    3    0    0 -0.29226382078E+01 -0.52698687004E+01 -0.14358093027E+02  0.15571389336E+02  0.51100000000E-03 0. -1.
        -12    1    3    3    0    0 -0.19553251691E+01 -0.33120704045E+01 -0.17090951901E+02  0.17518383024E+02  0.00000000000E+00 0.  1.
</event>
<event>
 7    1  0.2243370E-008  0.4614232E+02  0.7816164E-02  0.1320468E+00
        -11   -1    0    0    0    0  0.00000000000E+00  0.00000000000E+00  0.45593999997E+02  0.45594000000E+02  0.51100000000E-03 0.  1.
         11   -1    0    0    0    0 -0.00000000000E+00 -0.00000000000E+00 -0.45593999997E+02  0.45594000000E+02  0.51100000000E-03 0. -1.
    9900012    2    1    2    0    0  0.34872210964E+02  0.25130790404E+02 -0.13471659216E+02  0.46142319565E+02  0.10000016446E+02 0.  0.
         12    1    1    2    0    0 -0.34872210964E+02 -0.25130790404E+02  0.13471659216E+02  0.45045680435E+02  0.00000000000E+00 0. -1.
         11    1    3    3    0    0  0.70570345405E+01  0.55654707696E+01 -0.44231856560E+01  0.10017024159E+02  0.51100000000E-03 0. -1.
        -11    1    3    3    0    0  0.52902790085E+01  0.60335193170E+01 -0.52151298959E+01  0.95701613063E+01  0.51100000000E-03 0.  1.
         12    1    3    3    0    0  0.22524897415E+02  0.13531800317E+02 -0.38333436640E+01  0.26555134099E+02  0.00000000000E+00 0. -1.
</event>
<event>
 7    1  0.2243370E-008  0.4614232E+02  0.7816164E-02  0.1320468E+00
        -11   -1    0    0    0    0  0.00000000000E+00  0.00000000000E+00  0.45593999997E+02  0.45594000000E+02  0.51100000000E-03 0.  1.
         11   -1    0    0    0    0 -0.00000000000E+00 -0.00000000000E+00 -0.45593999997E+02  0.45594000000E+02  0.51100000000E-03 0. -1.
    9900012    2    1    2    0    0  0.36655799147E+02 -0.25746764892E+02 -0.47507510635E+01  0.46142321526E+02  0.10000034330E+02 0.  0.
         12    1    1    2    0    0 -0.36655799147E+02  0.25746764892E+02  0.47507510635E+01  0.45045678474E+02  0.00000000000E+00 0. -1.
         11    1    3    3    0    0  0.16734537605E+02 -0.12199400216E+02  0.11445999540E+01  0.20740786479E+02  0.51100000000E-03 0. -1.
        -11    1    3    3    0    0  0.13175942990E+02 -0.61922344693E+01 -0.20301866839E+01  0.14699350313E+02  0.51100000000E-03 0.  1.
        -12    1    3    3    0    0  0.67453185521E+01 -0.73551302071E+01 -0.38651643336E+01  0.10702184733E+02  0.00000000000E+00 0.  1.
</event>
<event>
 7    1  0.2243370E-008  0.4614232E+02  0.7816164E-02  0.1320468E+00
        -11   -1    0    0    0    0  0.00000000000E+00  0.00000000000E+00  0.45593999997E+02  0.45594000000E+02  0.51100000000E-03 0.  1.
         11   -1    0    0    0    0 -0.00000000000E+00 -0.00000000000E+00 -0.45593999997E+02  0.45594000000E+02  0.51100000000E-03 0. -1.
    9900012    2    1    2    0    0  0.42899335035E+02 -0.12671774183E+02 -0.53091181456E+01  0.46142317156E+02  0.99999944814E+01 0.  0.
         12    1    1    2    0    0 -0.42899335035E+02  0.12671774183E+02  0.53091181456E+01  0.45045682844E+02  0.00000000000E+00 0. -1.
         11    1    3    3    0    0  0.13627195703E+02 -0.46114017475E+01 -0.21887507734E+01  0.14551842461E+02  0.51100000000E-03 0. -1.
        -11    1    3    3    0    0  0.19484646610E+02 -0.43358037922E+01  0.17565045315E+01  0.20038362120E+02  0.51100000000E-03 0.  1.
         12    1    3    3    0    0  0.97874927224E+01 -0.37245686430E+01 -0.48768719037E+01  0.11552112574E+02  0.00000000000E+00 0. -1.
</event>
<event>
 7    1  0.2243370E-008  0.4614232E+02  0.7816164E-02  0.1320468E+00
        -11   -1    0    0    0    0  0.00000000000E+00  0.00000000000E+00  0.45593999997E+02  0.45594000000E+02  0.51100000000E-03 0.  1.
         11   -1    0    0    0    0 -0.00000000000E+00 -0.00000000000E+00 -0.45593999997E+02  0.45594000000E+02  0.51100000000E-03 0. -1.
    9900012    2    1    2    0    0 -0.30801963188E+01  0.44097735545E+02 -0.86611530552E+01  0.46142318056E+02  0.10000002690E+02 0.  0.
         12    1    1    2    0    0  0.30801963188E+01 -0.44097735545E+02  0.86611530552E+01  0.45045681944E+02  0.00000000000E+00 0. -1.
         11    1    3    3    0    0  0.13928820881E+01  0.37422930583E+01 -0.42195558086E+00  0.40153361775E+01  0.51100000000E-03 0. -1.
        -11    1    3    3    0    0  0.20755486842E+01  0.14034492726E+02 -0.30672432222E+01  0.14514918865E+02  0.51100000000E-03 0.  1.
        -12    1    3    3    0    0 -0.65486270911E+01  0.26320949761E+02 -0.51719542521E+01  0.27612063014E+02  0.00000000000E+00 0.  1.
</event>
<event>
 7    1  0.2243370E-008  0.4614232E+02  0.7816164E-02  0.1320468E+00
        -11   -1    0    0    0    0  0.00000000000E+00  0.00000000000E+00  0.45593999997E+02  0.45594000000E+02  0.51100000000E-03 0.  1.
         11   -1    0    0    0    0 -0.00000000000E+00 -0.00000000000E+00 -0.45593999997E+02  0.45594000000E+02  0.51100000000E-03 0. -1.
    9900012    2    1    2    0    0 -0.35745389096E+02  0.18270612625E+02  0.20434413174E+02  0.46142319085E+02  0.10000012071E+02 0.  0.
         12    1    1    2    0    0  0.35745389096E+02 -0.18270612625E+02 -0.20434413174E+02  0.45045680915E+02  0.00000000000E+00 0. -1.
         11    1    3    3    0    0 -0.85093785913E+00  0.24139390277E+01  0.13043607699E+01  0.28727259091E+01  0.51100000000E-03 0. -1.
        -11    1    3    3    0    0 -0.28523445288E+02  0.15288302933E+02  0.16791375495E+02  0.36459147397E+02  0.51100000000E-03 0.  1.
        -12    1    3    3    0    0 -0.63710059490E+01  0.56837066467E+00  0.23386769093E+01  0.68104457784E+01  0.00000000000E+00 0.  1.
</event>
<event>
 7    1  0.2243370E-008  0.4614232E+02  0.7816164E-02  0.1320468E+00
        -11   -1    0    0    0    0  0.00000000000E+00  0.00000000000E+00  0.45593999997E+02  0.45594000000E+02  0.51100000000E-03 0.  1.
         11   -1    0    0    0    0 -0.00000000000E+00 -0.00000000000E+00 -0.45593999997E+02  0.45594000000E+02  0.51100000000E-03 0. -1.
    9900012    2    1    2    0    0 -0.34468625510E+02 -0.20000116209E+02  0.21000538276E+02  0.46142318733E+02  0.10000008867E+02 0.  0.
         12    1    1    2    0    0  0.34468625510E+02  0.20000116209E+02 -0.21000538276E+02  0.45045681267E+02  0.00000000000E+00 0. -1.
         11    1    3    3    0    0 -0.16832451401E+02 -0.81882420326E+01  0.95541320726E+01  0.21015712400E+02  0.51100000000E-03 0.  1.
        -11    1    3    3    0    0 -0.31794131328E+01  0.66441662605E+00  0.20824745101E+01  0.38583439023E+01  0.51100000000E-03 0. -1.
        -12    1    3    3    0    0 -0.14456760976E+02 -0.12476290802E+02  0.93639316929E+01  0.21268262431E+02  0.00000000000E+00 0.  1.
</event>
<event>
 7    1  0.2243370E-008  0.4614232E+02  0.7816164E-02  0.1320468E+00
        -11   -1    0    0    0    0  0.00000000000E+00  0.00000000000E+00  0.45593999997E+02  0.45594000000E+02  0.51100000000E-03 0. -1.
         11   -1    0    0    0    0 -0.00000000000E+00 -0.00000000000E+00 -0.45593999997E+02  0.45594000000E+02  0.51100000000E-03 0.  1.
    9900012    2    1    2    0    0  0.68320962249E+01  0.44522131020E+02 -0.46455128670E+00  0.46142317662E+02  0.99999990949E+01 0.  0.
         12    1    1    2    0    0 -0.68320962249E+01 -0.44522131020E+02  0.46455128670E+00  0.45045682338E+02  0.00000000000E+00 0. -1.
         11    1    3    3    0    0 -0.49592064468E+00  0.76821102530E+01  0.18622043222E+01  0.79201363892E+01  0.51100000000E-03 0. -1.
        -11    1    3    3    0    0  0.26056289975E+01  0.26831696162E+02 -0.23057934568E+00  0.26958901841E+02  0.51100000000E-03 0.  1.
         12    1    3    3    0    0  0.47223878721E+01  0.10008324606E+02 -0.20961762632E+01  0.11263279432E+02  0.00000000000E+00 0. -1.
</event>
<event>
 7    1  0.2243370E-008  0.4614231E+02  0.7816164E-02  0.1320468E+00
        -11   -1    0    0    0    0  0.00000000000E+00  0.00000000000E+00  0.45593999997E+02  0.45594000000E+02  0.51100000000E-03 0.  1.
         11   -1    0    0    0    0 -0.00000000000E+00 -0.00000000000E+00 -0.45593999997E+02  0.45594000000E+02  0.51100000000E-03 0. -1.
    9900012    2    1    2    0    0  0.29443261938E+02 -0.32169182542E+01  0.33939065761E+02  0.46142307405E+02  0.99999055685E+01 0.  0.
         12    1    1    2    0    0 -0.29443261938E+02  0.32169182542E+01 -0.33939065761E+02  0.45045692595E+02  0.00000000000E+00 0. -1.
         11    1    3    3    0    0  0.18240581433E+01  0.49086985516E+00  0.28970325457E+00  0.19110388698E+01  0.51100000000E-03 0. -1.
        -11    1    3    3    0    0  0.16853127326E+01  0.14974634076E+01  0.27850227964E+01  0.35831589278E+01  0.51100000000E-03 0.  1.
        -12    1    3    3    0    0  0.25933891062E+02 -0.52052515170E+01  0.30864339710E+02  0.40648109608E+02  0.00000000000E+00 0.  1.
</event>
<event>
 7    1  0.2243370E-008  0.4614232E+02  0.7816164E-02  0.1320468E+00
        -11   -1    0    0    0    0  0.00000000000E+00  0.00000000000E+00  0.45593999997E+02  0.45594000000E+02  0.51100000000E-03 0.  1.
         11   -1    0    0    0    0 -0.00000000000E+00 -0.00000000000E+00 -0.45593999997E+02  0.45594000000E+02  0.51100000000E-03 0. -1.
    9900012    2    1    2    0    0 -0.53853276697E+01 -0.34276720203E+02  0.28726611014E+02  0.46142317828E+02  0.10000000609E+02 0.  0.
         12    1    1    2    0    0  0.53853276697E+01  0.34276720203E+02 -0.28726611014E+02  0.45045682172E+02  0.00000000000E+00 0. -1.
         11    1    3    3    0    0  0.99217650882E+00 -0.86327362545E+01  0.33287604440E+01  0.93053315803E+01  0.51100000000E-03 0. -1.
        -11    1    3    3    0    0 -0.32125617404E+01 -0.19068835414E+02  0.17445047264E+02  0.26043630916E+02  0.51100000000E-03 0.  1.
         12    1    3    3    0    0 -0.31649424382E+01 -0.65751485345E+01  0.79528033058E+01  0.10793355331E+02  0.00000000000E+00 0. -1.
</event>
<event>
 7    1  0.2243370E-008  0.4614232E+02  0.7816164E-02  0.1320468E+00
        -11   -1    0    0    0    0  0.00000000000E+00  0.00000000000E+00  0.45593999997E+02  0.45594000000E+02  0.51100000000E-03 0. -1.
         11   -1    0    0    0    0 -0.00000000000E+00 -0.00000000000E+00 -0.45593999997E+02  0.45594000000E+02  0.51100000000E-03 0.  1.
    9900012    2    1    2    0    0 -0.25367935730E+02  0.34579174815E+02 -0.13779041885E+02  0.46142317750E+02  0.99999999031E+01 0.  0.
         12    1    1    2    0    0  0.25367935730E+02 -0.34579174815E+02  0.13779041885E+02  0.45045682250E+02  0.00000000000E+00 0. -1.
         11    1    3    3    0    0 -0.33842082373E+00 -0.41393328039E-02  0.56891405564E+00  0.66197375464E+00  0.51100000000E-03 0. -1.
        -11    1    3    3    0    0 -0.82587873256E+01  0.11876438254E+02 -0.17608689661E+01  0.14572508825E+02  0.51100000000E-03 0.  1.
        -12    1    3    3    0    0 -0.16770727580E+02  0.22706875894E+02 -0.12587086974E+02  0.30907835171E+02  0.00000000000E+00 0.  1.
</event>
<event>
 7    1  0.2243370E-008  0.4614232E+02  0.7816164E-02  0.1320468E+00
        -11   -1    0    0    0    0  0.00000000000E+00  0.00000000000E+00  0.45593999997E+02  0.45594000000E+02  0.51100000000E-03 0.  1.
         11   -1    0    0    0    0 -0.00000000000E+00 -0.00000000000E+00 -0.45593999997E+02  0.45594000000E+02  0.51100000000E-03 0. -1.
    9900012    2    1    2    0    0 -0.18042956563E+02 -0.41274263698E+02 -0.19849751005E-01  0.46142317417E+02  0.99999968626E+01 0.  0.
         12    1    1    2    0    0  0.18042956563E+02  0.41274263698E+02  0.19849751005E-01  0.45045682583E+02  0.00000000000E+00 0. -1.
         11    1    3    3    0    0 -0.25686009170E+01 -0.42977731574E+01 -0.12634524952E+01  0.51638045327E+01  0.51100000000E-03 0.  1.
        -11    1    3    3    0    0 -0.75897565626E+01 -0.25865069504E+02 -0.18084148806E+01  0.27016228266E+02  0.51100000000E-03 0. -1.
         12    1    3    3    0    0 -0.78845990834E+01 -0.11111421037E+02  0.30520176247E+01  0.13962284618E+02  0.00000000000E+00 0. -1.
</event>
<event>
 7    1  0.2243370E-008  0.4614232E+02  0.7816164E-02  0.1320468E+00
        -11   -1    0    0    0    0  0.00000000000E+00  0.00000000000E+00  0.45593999997E+02  0.45594000000E+02  0.51100000000E-03 0. -1.
         11   -1    0    0    0    0 -0.00000000000E+00 -0.00000000000E+00 -0.45593999997E+02  0.45594000000E+02  0.51100000000E-03 0.  1.
    9900012    2    1    2    0    0  0.38709101157E+02 -0.95187666248E+01 -0.20978846786E+02  0.46142318265E+02  0.10000004597E+02 0.  0.
         12    1    1    2    0    0 -0.38709101157E+02  0.95187666248E+01  0.20978846786E+02  0.45045681735E+02  0.00000000000E+00 0. -1.
         11    1    3    3    0    0  0.16432594303E+01  0.13151846311E+01 -0.10020782085E+01  0.23311313061E+01  0.51100000000E-03 0. -1.
        -11    1    3    3    0    0  0.72957371385E+00 -0.40558253430E+00  0.33188726964E+00  0.89828971770E+00  0.51100000000E-03 0.  1.
        -12    1    3    3    0    0  0.36336268013E+02 -0.10428368722E+02 -0.20308655848E+02  0.42912897241E+02  0.00000000000E+00 0.  1.
</event>
<event>
 7    1  0.2243370E-008  0.4614232E+02  0.7816164E-02  0.1320468E+00
        -11   -1    0    0    0    0  0.00000000000E+00  0.00000000000E+00  0.45593999997E+02  0.45594000000E+02  0.51100000000E-03 0.  1.
         11   -1    0    0    0    0 -0.00000000000E+00 -0.00000000000E+00 -0.45593999997E+02  0.45594000000E+02  0.51100000000E-03 0. -1.
    9900012    2    1    2    0    0 -0.20605819108E+02  0.13514799052E+01  0.40033577531E+02  0.46142316423E+02  0.99999877945E+01 0.  0.
         12    1    1    2    0    0  0.20605819108E+02 -0.13514799052E+01 -0.40033577531E+02  0.45045683577E+02  0.00000000000E+00 0. -1.
         11    1    3    3    0    0 -0.22343795521E+01  0.10605063686E+01  0.12240964117E+02  0.12488327691E+02  0.51100000000E-03 0. -1.
        -11    1    3    3    0    0 -0.88904479003E+01  0.23365739228E+01  0.11923678859E+02  0.15055688604E+02  0.51100000000E-03 0.  1.
        -12    1    3    3    0    0 -0.94809916555E+01 -0.20456003862E+01  0.15868934555E+02  0.18598300127E+02  0.00000000000E+00 0.  1.
</event>
<event>
 7    1  0.2243370E-008  0.4614232E+02  0.7816164E-02  0.1320468E+00
        -11   -1    0    0    0    0  0.00000000000E+00  0.00000000000E+00  0.45593999997E+02  0.45594000000E+02  0.51100000000E-03 0. -1.
         11   -1    0    0    0    0 -0.00000000000E+00 -0.00000000000E+00 -0.45593999997E+02  0.45594000000E+02  0.51100000000E-03 0.  1.
    9900012    2    1    2    0    0 -0.38903325219E+02 -0.22630538649E+02  0.18717626584E+01  0.46142317765E+02  0.10000000033E+02 0.  0.
         12    1    1    2    0    0  0.38903325219E+02  0.22630538649E+02 -0.18717626584E+01  0.45045682235E+02  0.00000000000E+00 0. -1.
         11    1    3    3    0    0  0.33090987237E+00 -0.68071491064E+00 -0.23701481230E+00  0.79312698578E+00  0.51100000000E-03 0. -1.
        -11    1    3    3    0    0 -0.95855434210E+01 -0.81441013492E+01  0.11363227353E+01  0.12629341198E+02  0.51100000000E-03 0.  1.
        -12    1    3    3    0    0 -0.29648691670E+02 -0.13805722389E+02  0.97245473549E+00  0.32719849581E+02  0.00000000000E+00 0.  1.
</event>
<event>
 7    1  0.2243370E-008  0.4614232E+02  0.7816164E-02  0.1320468E+00
        -11   -1    0    0    0    0  0.00000000000E+00  0.00000000000E+00  0.45593999997E+02  0.45594000000E+02  0.51100000000E-03 0.  1.
         11   -1    0    0    0    0 -0.00000000000E+00 -0.00000000000E+00 -0.45593999997E+02  0.45594000000E+02  0.51100000000E-03 0. -1.
    9900012    2    1    2    0    0  0.34397108760E+02  0.14636118494E+02  0.25134367729E+02  0.46142317667E+02  0.99999991462E+01 0.  0.
         12    1    1    2    0    0 -0.34397108760E+02 -0.14636118494E+02 -0.25134367729E+02  0.45045682333E+02  0.00000000000E+00 0. -1.
         11    1    3    3    0    0  0.16718172099E+02  0.35939884000E+01  0.11255366390E+02  0.20471866153E+02  0.51100000000E-03 0.  1.
        -11    1    3    3    0    0  0.96359193522E+01  0.32100500921E+01  0.48067556804E+01  0.11236559250E+02  0.51100000000E-03 0. -1.
         12    1    3    3    0    0  0.80430173092E+01  0.78320800020E+01  0.90722456593E+01  0.14433892264E+02  0.00000000000E+00 0. -1.
</event>
<event>
 7    1  0.2243370E-008  0.4614232E+02  0.7816164E-02  0.1320468E+00
        -11   -1    0    0    0    0  0.00000000000E+00  0.00000000000E+00  0.45593999997E+02  0.45594000000E+02  0.51100000000E-03 0.  1.
         11   -1    0    0    0    0 -0.00000000000E+00 -0.00000000000E+00 -0.45593999997E+02  0.45594000000E+02  0.51100000000E-03 0. -1.
    9900012    2    1    2    0    0 -0.11531484731E+01 -0.39036980519E+02  0.22447670749E+02  0.46142317393E+02  0.99999966475E+01 0.  0.
         12    1    1    2    0    0  0.11531484731E+01  0.39036980519E+02 -0.22447670749E+02  0.45045682607E+02  0.00000000000E+00 0. -1.
         11    1    3    3    0    0 -0.16701375082E+01 -0.93278188207E+01  0.38794806729E+01  0.10239528007E+02  0.51100000000E-03 0. -1.
        -11    1    3    3    0    0  0.10327189722E+01 -0.23219944708E+02  0.10415082046E+02  0.25469712896E+02  0.51100000000E-03 0.  1.
         12    1    3    3    0    0 -0.51572993710E+00 -0.64892169903E+01  0.81531080297E+01  0.10433076491E+02  0.00000000000E+00 0. -1.
</event>
<event>
 7    1  0.2243370E-008  0.4614231E+02  0.7816164E-02  0.1320468E+00
        -11   -1    0    0    0    0  0.00000000000E+00  0.00000000000E+00  0.45593999997E+02  0.45594000000E+02  0.51100000000E-03 0.  1.
         11   -1    0    0    0    0 -0.00000000000E+00 -0.00000000000E+00 -0.45593999997E+02  0.45594000000E+02  0.51100000000E-03 0. -1.
    9900012    2    1    2    0    0 -0.25552521801E+02  0.13109866084E+01  0.37073766155E+02  0.46142309938E+02  0.99999286626E+01 0.  0.
         12    1    1    2    0    0  0.25552521801E+02 -0.13109866084E+01 -0.37073766155E+02  0.45045690062E+02  0.00000000000E+00 0. -1.
         11    1    3    3    0    0 -0.92360353705E+01  0.44795824858E+01  0.14226891198E+02  0.17543529919E+02  0.51100000000E-03 0. -1.
        -11    1    3    3    0    0 -0.61825410197E+01 -0.11303464766E+01  0.12402099020E+02  0.13903724572E+02  0.51100000000E-03 0.  1.
        -12    1    3    3    0    0 -0.10133945411E+02 -0.20382494008E+01  0.10444775937E+02  0.14695055446E+02  0.00000000000E+00 0.  1.
</event>
<event>
 7    1  0.2243370E-008  0.4614232E+02  0.7816164E-02  0.1320468E+00
        -11   -1    0    0    0    0  0.00000000000E+00  0.00000000000E+00  0.45593999997E+02  0.45594000000E+02  0.51100000000E-03 0.  1.
         11   -1    0    0    0    0 -0.00000000000E+00 -0.00000000000E+00 -0.45593999997E+02  0.45594000000E+02  0.51100000000E-03 0. -1.
    9900012    2    1    2    0    0  0.17863823220E+02 -0.28691372471E+02  0.29779228302E+02  0.46142317937E+02  0.10000001603E+02 0.  0.
         12    1    1    2    0    0 -0.17863823220E+02  0.28691372471E+02 -0.29779228302E+02  0.45045682063E+02  0.00000000000E+00 0. -1.
         11    1    3    3    0    0  0.94240527001E+01 -0.10180755136E+02  0.83398651533E+01  0.16186843283E+02  0.51100000000E-03 0. -1.
        -11    1    3    3    0    0  0.29070360790E+01 -0.20870516617E+01  0.32981281122E+01  0.48666510774E+01  0.51100000000E-03 0.  1.
        -12    1    3    3    0    0  0.55327344407E+01 -0.16423565673E+02  0.18141235036E+02  0.25088823576E+02  0.00000000000E+00 0.  1.
</event>
<event>
 7    1  0.2243370E-008  0.4614232E+02  0.7816164E-02  0.1320468E+00
        -11   -1    0    0    0    0  0.00000000000E+00  0.00000000000E+00  0.45593999997E+02  0.45594000000E+02  0.51100000000E-03 0.  1.
         11   -1    0    0    0    0 -0.00000000000E+00 -0.00000000000E+00 -0.45593999997E+02  0.45594000000E+02  0.51100000000E-03 0. -1.
    9900012    2    1    2    0    0  0.25720496157E+02 -0.23939874563E+02  0.28186023282E+02  0.46142318463E+02  0.10000006402E+02 0.  0.
         12    1    1    2    0    0 -0.25720496157E+02  0.23939874563E+02 -0.28186023282E+02  0.45045681537E+02  0.00000000000E+00 0. -1.
         11    1    3    3    0    0  0.12190211549E+01 -0.21905826039E+01  0.46051416887E+00  0.25488700009E+01  0.51100000000E-03 0. -1.
        -11    1    3    3    0    0  0.16128393900E+02 -0.16005209346E+02  0.14638300566E+02  0.27029089140E+02  0.51100000000E-03 0.  1.
        -12    1    3    3    0    0  0.83730811017E+01 -0.57440826134E+01  0.13087208547E+02  0.16564359323E+02  0.00000000000E+00 0.  1.
</event>
<event>
 7    1  0.2243370E-008  0.4614232E+02  0.7816164E-02  0.1320468E+00
        -11   -1    0    0    0    0  0.00000000000E+00  0.00000000000E+00  0.45593999997E+02  0.45594000000E+02  0.51100000000E-03 0.  1.
         11   -1    0    0    0    0 -0.00000000000E+00 -0.00000000000E+00 -0.45593999997E+02  0.45594000000E+02  0.51100000000E-03 0. -1.
    9900012    2    1    2    0    0  0.40881199911E+02  0.11863954176E+02  0.14733891822E+02  0.46142317820E+02  0.10000000539E+02 0.  0.
         12    1    1    2    0    0 -0.40881199911E+02 -0.11863954176E+02 -0.14733891822E+02  0.45045682180E+02  0.00000000000E+00 0. -1.
         11    1    3    3    0    0  0.15201637293E+02  0.45076595920E+00  0.53361856870E+01  0.16117315045E+02  0.51100000000E-03 0. -1.
        -11    1    3    3    0    0  0.23950215298E+02  0.96860852574E+01  0.74148501187E+01  0.26877742893E+02  0.51100000000E-03 0.  1.
        -12    1    3    3    0    0  0.17293473196E+01  0.17271029599E+01  0.19828560161E+01  0.31472598823E+01  0.00000000000E+00 0.  1.
</event>
<event>
 7    1  0.2243370E-008  0.4614232E+02  0.7816164E-02  0.1320468E+00
        -11   -1    0    0    0    0  0.00000000000E+00  0.00000000000E+00  0.45593999997E+02  0.45594000000E+02  0.51100000000E-03 0.  1.
         11   -1    0    0    0    0 -0.00000000000E+00 -0.00000000000E+00 -0.45593999997E+02  0.45594000000E+02  0.51100000000E-03 0. -1.
    9900012    2    1    2    0    0 -0.39193512848E+02 -0.20067769659E+02  0.95008768654E+01  0.46142317747E+02  0.99999998698E+01 0.  0.
         12    1    1    2    0    0  0.39193512848E+02  0.20067769659E+02 -0.95008768654E+01  0.45045682253E+02  0.00000000000E+00 0. -1.
         11    1    3    3    0    0 -0.11921470133E+02 -0.10304919605E+02  0.22067799351E+01  0.15911715688E+02  0.51100000000E-03 0. -1.
        -11    1    3    3    0    0 -0.87316756902E+01 -0.31356846283E+01  0.46081587093E+01  0.10359044618E+02  0.51100000000E-03 0.  1.
         12    1    3    3    0    0 -0.18540367024E+02 -0.66271654258E+01  0.26859382210E+01  0.19871557440E+02  0.00000000000E+00 0. -1.
</event>
<event>
 7    1  0.2243370E-008  0.4614232E+02  0.7816164E-02  0.1320468E+00
        -11   -1    0    0    0    0  0.00000000000E+00  0.00000000000E+00  0.45593999997E+02  0.45594000000E+02  0.51100000000E-03 0.  1.
         11   -1    0    0    0    0 -0.00000000000E+00 -0.00000000000E+00 -0.45593999997E+02  0.45594000000E+02  0.51100000000E-03 0. -1.
    9900012    2    1    2    0    0  0.64107089163E+01  0.30665620322E+02  0.32367205423E+02  0.46142318238E+02  0.10000004345E+02 0.  0.
         12    1    1    2    0    0 -0.64107089163E+01 -0.30665620322E+02 -0.32367205423E+02  0.45045681762E+02  0.00000000000E+00 0. -1.
         11    1    3    3    0    0  0.90372292338E+00  0.10611057187E+01  0.14800867076E+00  0.14016302281E+01  0.51100000000E-03 0. -1.
        -11    1    3    3    0    0  0.67092223767E+01  0.17296343998E+02  0.17349231379E+02  0.25400256107E+02  0.51100000000E-03 0.  1.
        -12    1    3    3    0    0 -0.12022363838E+01  0.12308170605E+02  0.14869965373E+02  0.19340431902E+02  0.00000000000E+00 0.  1.
</event>
<event>
 7    1  0.2243370E-008  0.4614232E+02  0.7816164E-02  0.1320468E+00
        -11   -1    0    0    0    0  0.00000000000E+00  0.00000000000E+00  0.45593999997E+02  0.45594000000E+02  0.51100000000E-03 0.  1.
         11   -1    0    0    0    0 -0.00000000000E+00 -0.00000000000E+00 -0.45593999997E+02  0.45594000000E+02  0.51100000000E-03 0. -1.
    9900012    2    1    2    0    0  0.26570105301E+02 -0.32241146646E+02  0.16841953127E+02  0.46142318543E+02  0.10000007133E+02 0.  0.
         12    1    1    2    0    0 -0.26570105301E+02  0.32241146646E+02 -0.16841953127E+02  0.45045681457E+02  0.00000000000E+00 0. -1.
         11    1    3    3    0    0  0.96660574587E+00  0.41186411048E+00 -0.48586621346E+00  0.11575944678E+01  0.51100000000E-03 0. -1.
        -11    1    3    3    0    0  0.93180612049E+01 -0.11112703809E+02  0.64615791967E+01  0.15876726884E+02  0.51100000000E-03 0.  1.
         12    1    3    3    0    0  0.16285438350E+02 -0.21540306947E+02  0.10866240144E+02  0.29107997192E+02  0.00000000000E+00 0. -1.
</event>
<event>
 7    1  0.2243370E-008  0.4614232E+02  0.7816164E-02  0.1320468E+00
        -11   -1    0    0    0    0  0.00000000000E+00  0.00000000000E+00  0.45593999997E+02  0.45594000000E+02  0.51100000000E-03 0.  1.
         11   -1    0    0    0    0 -0.00000000000E+00 -0.00000000000E+00 -0.45593999997E+02  0.45594000000E+02  0.51100000000E-03 0. -1.
    9900012    2    1    2    0    0  0.38090334251E+01  0.80553060616E+01  0.44155597152E+02  0.46142318173E+02  0.10000003760E+02 0.  0.
         12    1    1    2    0    0 -0.38090334251E+01 -0.80553060616E+01 -0.44155597152E+02  0.45045681827E+02  0.00000000000E+00 0. -1.
         11    1    3    3    0    0  0.14408565498E+01  0.20756093755E+01  0.33951941075E+01  0.42322057093E+01  0.51100000000E-03 0. -1.
        -11    1    3    3    0    0  0.45390404364E+01  0.49829020116E+01  0.35479199326E+02  0.36113789411E+02  0.51100000000E-03 0.  1.
        -12    1    3    3    0    0 -0.21708635611E+01  0.99679467447E+00  0.52812037184E+01  0.57963230534E+01  0.00000000000E+00 0.  1.
</event>
<event>
 7    1  0.2243370E-008  0.4614232E+02  0.7816164E-02  0.1320468E+00
        -11   -1    0    0    0    0  0.00000000000E+00  0.00000000000E+00  0.45593999997E+02  0.45594000000E+02  0.51100000000E-03 0.  1.
         11   -1    0    0    0    0 -0.00000000000E+00 -0.00000000000E+00 -0.45593999997E+02  0.45594000000E+02  0.51100000000E-03 0. -1.
    9900012    2    1    2    0    0 -0.42908041694E+02 -0.86534660260E+01  0.10636306499E+02  0.46142317274E+02  0.99999955606E+01 0.  0.
         12    1    1    2    0    0  0.42908041694E+02  0.86534660260E+01 -0.10636306499E+02  0.45045682726E+02  0.00000000000E+00 0. -1.
         11    1    3    3    0    0 -0.19612337632E+01 -0.13851641082E+01  0.21439733401E+01  0.32189655831E+01  0.51100000000E-03 0. -1.
        -11    1    3    3    0    0 -0.17726884858E+02 -0.30105100043E+00  0.50713470505E+01  0.18440489138E+02  0.51100000000E-03 0.  1.
        -12    1    3    3    0    0 -0.23219923073E+02 -0.69672509174E+01  0.34209861087E+01  0.24482862553E+02  0.00000000000E+00 0.  1.
</event>
<event>
 7    1  0.2243370E-008  0.4614232E+02  0.7816164E-02  0.1320468E+00
        -11   -1    0    0    0    0  0.00000000000E+00  0.00000000000E+00  0.45593999997E+02  0.45594000000E+02  0.51100000000E-03 0. -1.
         11   -1    0    0    0    0 -0.00000000000E+00 -0.00000000000E+00 -0.45593999997E+02  0.45594000000E+02  0.51100000000E-03 0.  1.
    9900012    2    1    2    0    0 -0.18854449353E+02  0.27616863178E+01 -0.40816618396E+02  0.46142317532E+02  0.99999979084E+01 0.  0.
         12    1    1    2    0    0  0.18854449353E+02 -0.27616863178E+01  0.40816618396E+02  0.45045682468E+02  0.00000000000E+00 0. -1.
         11    1    3    3    0    0 -0.68762195381E+01  0.16531507249E+01 -0.93595347674E+01  0.11730992873E+02  0.51100000000E-03 0. -1.
        -11    1    3    3    0    0 -0.11520085947E+02  0.27633952130E+01 -0.29596485594E+02  0.31879471343E+02  0.51100000000E-03 0.  1.
         12    1    3    3    0    0 -0.45814386716E+00 -0.16548596201E+01 -0.18605980349E+01  0.25318533158E+01  0.00000000000E+00 0. -1.
</event>
<event>
 7    1  0.2243370E-008  0.4614232E+02  0.7816164E-02  0.1320468E+00
        -11   -1    0    0    0    0  0.00000000000E+00  0.00000000000E+00  0.45593999997E+02  0.45594000000E+02  0.51100000000E-03 0. -1.
         11   -1    0    0    0    0 -0.00000000000E+00 -0.00000000000E+00 -0.45593999997E+02  0.45594000000E+02  0.51100000000E-03 0.  1.
    9900012    2    1    2    0    0 -0.37516524268E+02  0.16262130664E+02 -0.18898862099E+02  0.46142317904E+02  0.10000001301E+02 0.  0.
         12    1    1    2    0    0  0.37516524268E+02 -0.16262130664E+02  0.18898862099E+02  0.45045682096E+02  0.00000000000E+00 0. -1.
         11    1    3    3    0    0 -0.55069578405E+01  0.57930623288E+01 -0.37930713688E+01  0.88472338317E+01  0.51100000000E-03 0. -1.
        -11    1    3    3    0    0 -0.16164328136E+02  0.57257917438E+01 -0.10570427026E+02  0.20144580486E+02  0.51100000000E-03 0.  1.
         12    1    3    3    0    0 -0.15845238291E+02  0.47432765912E+01 -0.45353637048E+01  0.17150503586E+02  0.00000000000E+00 0. -1.
</event>
<event>
 7    1  0.2243370E-008  0.4614232E+02  0.7816164E-02  0.1320468E+00
        -11   -1    0    0    0    0  0.00000000000E+00  0.00000000000E+00  0.45593999997E+02  0.45594000000E+02  0.51100000000E-03 0. -1.
         11   -1    0    0    0    0 -0.00000000000E+00 -0.00000000000E+00 -0.45593999997E+02  0.45594000000E+02  0.51100000000E-03 0.  1.
    9900012    2    1    2    0    0  0.39108767233E+02 -0.22267424798E+02  0.19441437352E+01  0.46142316783E+02  0.99999910822E+01 0.  0.
         12    1    1    2    0    0 -0.39108767233E+02  0.22267424798E+02 -0.19441437352E+01  0.45045683217E+02  0.00000000000E+00 0. -1.
         11    1    3    3    0    0  0.71225772635E+01 -0.10243776250E+01 -0.13910822794E+01  0.73290904321E+01  0.51100000000E-03 0. -1.
        -11    1    3    3    0    0  0.12337530346E+02 -0.66112239548E+01 -0.55429234581E+00  0.14008218213E+02  0.51100000000E-03 0.  1.
         12    1    3    3    0    0  0.19648659623E+02 -0.14631823218E+02  0.38895183605E+01  0.24805008138E+02  0.00000000000E+00 0. -1.
</event>
<event>
 7    1  0.2243370E-008  0.4614232E+02  0.7816164E-02  0.1320468E+00
        -11   -1    0    0    0    0  0.00000000000E+00  0.00000000000E+00  0.45593999997E+02  0.45594000000E+02  0.51100000000E-03 0. -1.
         11   -1    0    0    0    0 -0.00000000000E+00 -0.00000000000E+00 -0.45593999997E+02  0.45594000000E+02  0.51100000000E-03 0.  1.
    9900012    2    1    2    0    0 -0.22755705220E+02  0.28474601358E+02 -0.26466743405E+02  0.46142317088E+02  0.99999938646E+01 0.  0.
         12    1    1    2    0    0  0.22755705220E+02 -0.28474601358E+02  0.26466743405E+02  0.45045682912E+02  0.00000000000E+00 0. -1.
         11    1    3    3    0    0 -0.23941167850E+01  0.54482707573E+01 -0.14262521328E+01  0.61196114936E+01  0.51100000000E-03 0. -1.
        -11    1    3    3    0    0 -0.11456199873E+02  0.95789631166E+01 -0.14062816114E+02  0.20512529031E+02  0.51100000000E-03 0.  1.
        -12    1    3    3    0    0 -0.89053885614E+01  0.13447367484E+02 -0.10977675158E+02  0.19510176564E+02  0.00000000000E+00 0.  1.
</event>
<event>
 7    1  0.2243370E-008  0.4614231E+02  0.7816164E-02  0.1320468E+00
        -11   -1    0    0    0    0  0.00000000000E+00  0.00000000000E+00  0.45593999997E+02  0.45594000000E+02  0.51100000000E-03 0.  1.
         11   -1    0    0    0    0 -0.00000000000E+00 -0.00000000000E+00 -0.45593999997E+02  0.45594000000E+02  0.51100000000E-03 0. -1.
    9900012    2    1    2    0    0 -0.42917010817E+02 -0.13450712318E+02  0.25144529761E+01  0.46142312602E+02  0.99999529583E+01 0.  0.
         12    1    1    2    0    0  0.42917010817E+02  0.13450712318E+02 -0.25144529761E+01  0.45045687398E+02  0.00000000000E+00 0. -1.
         11    1    3    3    0    0 -0.16649090666E+02 -0.52301164180E+01  0.42262446659E+01  0.17955708897E+02  0.51100000000E-03 0. -1.
        -11    1    3    3    0    0 -0.11389166988E+02 -0.90164859514E+00  0.62203518361E+00  0.11441722899E+02  0.51100000000E-03 0.  1.
         12    1    3    3    0    0 -0.14878753163E+02 -0.73189473045E+01 -0.23338268734E+01  0.16744880806E+02  0.00000000000E+00 0. -1.
</event>
<event>
 7    1  0.2243370E-008  0.4614232E+02  0.7816164E-02  0.1320468E+00
        -11   -1    0    0    0    0  0.00000000000E+00  0.00000000000E+00  0.45593999997E+02  0.45594000000E+02  0.51100000000E-03 0.  1.
         11   -1    0    0    0    0 -0.00000000000E+00 -0.00000000000E+00 -0.45593999997E+02  0.45594000000E+02  0.51100000000E-03 0. -1.
    9900012    2    1    2    0    0 -0.25661937454E+02 -0.36443850950E+02  0.65133814844E+01  0.46142318250E+02  0.10000004461E+02 0.  0.
         12    1    1    2    0    0  0.25661937454E+02  0.36443850950E+02 -0.65133814844E+01  0.45045681750E+02  0.00000000000E+00 0. -1.
         11    1    3    3    0    0 -0.60147127005E+01 -0.15029209391E+02  0.23007417189E+01  0.16350758897E+02  0.51100000000E-03 0. -1.
        -11    1    3    3    0    0 -0.14199654260E+02 -0.18476987160E+02  0.33520285591E+01  0.23542840342E+02  0.51100000000E-03 0.  1.
         12    1    3    3    0    0 -0.54475704930E+01 -0.29376543989E+01  0.86061120643E+00  0.62487190121E+01  0.00000000000E+00 0. -1.
</event>
<event>
 7    1  0.2243370E-008  0.4614232E+02  0.7816164E-02  0.1320468E+00
        -11   -1    0    0    0    0  0.00000000000E+00  0.00000000000E+00  0.45593999997E+02  0.45594000000E+02  0.51100000000E-03 0.  1.
         11   -1    0    0    0    0 -0.00000000000E+00 -0.00000000000E+00 -0.45593999997E+02  0.45594000000E+02  0.51100000000E-03 0. -1.
    9900012    2    1    2    0    0 -0.33032238998E+01  0.37473443467E+02  0.24777876453E+02  0.46142318576E+02  0.10000007435E+02 0.  0.
         12    1    1    2    0    0  0.33032238998E+01 -0.37473443467E+02 -0.24777876453E+02  0.45045681424E+02  0.00000000000E+00 0. -1.
         11    1    3    3    0    0 -0.17256565611E+01  0.14160886247E+01  0.28729272600E+01  0.36382562942E+01  0.51100000000E-03 0. -1.
        -11    1    3    3    0    0  0.18915343575E+00  0.28956824240E+02  0.18984306982E+02  0.34625674880E+02  0.51100000000E-03 0.  1.
         12    1    3    3    0    0 -0.17667207744E+01  0.71005306023E+01  0.29206422110E+01  0.78783874018E+01  0.00000000000E+00 0. -1.
</event>
<event>
 7    1  0.2243370E-008  0.4614232E+02  0.7816164E-02  0.1320468E+00
        -11   -1    0    0    0    0  0.00000000000E+00  0.00000000000E+00  0.45593999997E+02  0.45594000000E+02  0.51100000000E-03 0.  1.
         11   -1    0    0    0    0 -0.00000000000E+00 -0.00000000000E+00 -0.45593999997E+02  0.45594000000E+02  0.51100000000E-03 0. -1.
    9900012    2    1    2    0    0  0.13255524514E+02  0.62363913815E+01  0.42597087008E+02  0.46142319528E+02  0.10000016112E+02 0.  0.
         12    1    1    2    0    0 -0.13255524514E+02 -0.62363913815E+01 -0.42597087008E+02  0.45045680472E+02  0.00000000000E+00 0. -1.
         11    1    3    3    0    0 -0.96044445761E+00  0.87423088121E+00  0.33119361253E+01  0.35574786505E+01  0.51100000000E-03 0. -1.
        -11    1    3    3    0    0  0.19048946421E+01 -0.10695937498E+01  0.90793358203E+01  0.93384684818E+01  0.51100000000E-03 0.  1.
         12    1    3    3    0    0  0.12311074329E+02  0.64317542500E+01  0.30205815063E+02  0.33246372396E+02  0.00000000000E+00 0. -1.
</event>
<event>
 7    1  0.2243370E-008  0.4614232E+02  0.7816164E-02  0.1320468E+00
        -11   -1    0    0    0    0  0.00000000000E+00  0.00000000000E+00  0.45593999997E+02  0.45594000000E+02  0.51100000000E-03 0.  1.
         11   -1    0    0    0    0 -0.00000000000E+00 -0.00000000000E+00 -0.45593999997E+02  0.45594000000E+02  0.51100000000E-03 0. -1.
    9900012    2    1    2    0    0 -0.40353827009E+02  0.19727004664E+02 -0.33952266770E+01  0.46142316173E+02  0.99999855147E+01 0.  0.
         12    1    1    2    0    0  0.40353827009E+02 -0.19727004664E+02  0.33952266770E+01  0.45045683827E+02  0.00000000000E+00 0. -1.
         11    1    3    3    0    0 -0.12758429997E+00  0.88802893754E+00 -0.53028028077E+00  0.10421471032E+01  0.51100000000E-03 0. -1.
        -11    1    3    3    0    0 -0.21092702238E+02  0.62616641811E+01 -0.29749272793E+01  0.22202718721E+02  0.51100000000E-03 0.  1.
         12    1    3    3    0    0 -0.19133540471E+02  0.12577311545E+02  0.10998088307E+00  0.22897450348E+02  0.00000000000E+00 0. -1.
</event>
<event>
 7    1  0.2243370E-008  0.4614232E+02  0.7816164E-02  0.1320468E+00
        -11   -1    0    0    0    0  0.00000000000E+00  0.00000000000E+00  0.45593999997E+02  0.45594000000E+02  0.51100000000E-03 0. -1.
         11   -1    0    0    0    0 -0.00000000000E+00 -0.00000000000E+00 -0.45593999997E+02  0.45594000000E+02  0.51100000000E-03 0.  1.
    9900012    2    1    2    0    0  0.30677694955E+02  0.87916910052E+01 -0.31791486552E+02  0.46142318568E+02  0.10000007361E+02 0.  0.
         12    1    1    2    0    0 -0.30677694955E+02 -0.87916910052E+01  0.31791486552E+02  0.45045681432E+02  0.00000000000E+00 0. -1.
         11    1    3    3    0    0  0.33471152616E+01  0.31764907056E+01 -0.31667183704E+01  0.55965506587E+01  0.51100000000E-03 0. -1.
        -11    1    3    3    0    0  0.12872019123E+02  0.11674970822E+01 -0.89200697775E+01  0.15704125918E+02  0.51100000000E-03 0.  1.
        -12    1    3    3    0    0  0.14458560570E+02  0.44477032173E+01 -0.19704698404E+02  0.24841641992E+02  0.00000000000E+00 0.  1.
</event>
<event>
 7    1  0.2243370E-008  0.4614232E+02  0.7816164E-02  0.1320468E+00
        -11   -1    0    0    0    0  0.00000000000E+00  0.00000000000E+00  0.45593999997E+02  0.45594000000E+02  0.51100000000E-03 0.  1.
         11   -1    0    0    0    0 -0.00000000000E+00 -0.00000000000E+00 -0.45593999997E+02  0.45594000000E+02  0.51100000000E-03 0. -1.
    9900012    2    1    2    0    0 -0.17691759462E+02  0.36345804055E+02  0.19877062328E+02  0.46142318386E+02  0.10000005697E+02 0.  0.
         12    1    1    2    0    0  0.17691759462E+02 -0.36345804055E+02 -0.19877062328E+02  0.45045681614E+02  0.00000000000E+00 0. -1.
         11    1    3    3    0    0 -0.23350442742E+01  0.14994442513E+01  0.38006041590E+01  0.47058853640E+01  0.51100000000E-03 0. -1.
        -11    1    3    3    0    0 -0.10061655876E+01  0.46476165357E+01  0.20576262691E+01  0.51813641811E+01  0.51100000000E-03 0.  1.
        -12    1    3    3    0    0 -0.14350549600E+02  0.30198743268E+02  0.14018831900E+02  0.36255068841E+02  0.00000000000E+00 0.  1.
</event>
<event>
 7    1  0.2243370E-008  0.4614232E+02  0.7816164E-02  0.1320468E+00
        -11   -1    0    0    0    0  0.00000000000E+00  0.00000000000E+00  0.45593999997E+02  0.45594000000E+02  0.51100000000E-03 0.  1.
         11   -1    0    0    0    0 -0.00000000000E+00 -0.00000000000E+00 -0.45593999997E+02  0.45594000000E+02  0.51100000000E-03 0. -1.
    9900012    2    1    2    0    0 -0.14907526805E+02  0.31166908156E+02  0.28905067805E+02  0.46142318029E+02  0.10000002441E+02 0.  0.
         12    1    1    2    0    0  0.14907526805E+02 -0.31166908156E+02 -0.28905067805E+02  0.45045681971E+02  0.00000000000E+00 0. -1.
         11    1    3    3    0    0 -0.42775915315E+00  0.11627686094E+00  0.12168411228E+01  0.12950678672E+01  0.51100000000E-03 0. -1.
        -11    1    3    3    0    0 -0.62754662323E+01  0.20272684400E+02  0.20529278295E+02  0.29526504649E+02  0.51100000000E-03 0.  1.
         12    1    3    3    0    0 -0.82043014191E+01  0.10777946895E+02  0.71589483874E+01  0.15320745513E+02  0.00000000000E+00 0. -1.
</event>
<event>
 7    1  0.2243370E-008  0.4614232E+02  0.7816164E-02  0.1320468E+00
        -11   -1    0    0    0    0  0.00000000000E+00  0.00000000000E+00  0.45593999997E+02  0.45594000000E+02  0.51100000000E-03 0.  1.
         11   -1    0    0    0    0 -0.00000000000E+00 -0.00000000000E+00 -0.45593999997E+02  0.45594000000E+02  0.51100000000E-03 0. -1.
    9900012    2    1    2    0    0  0.55549552363E+00  0.45015120715E+02  0.15633511411E+01  0.46142315023E+02  0.99999750290E+01 0.  0.
         12    1    1    2    0    0 -0.55549552363E+00 -0.45015120715E+02 -0.15633511411E+01  0.45045684977E+02  0.00000000000E+00 0. -1.
         11    1    3    3    0    0 -0.16842835147E+00 -0.69944793702E-01  0.21618137649E+00  0.28283393079E+00  0.51100000000E-03 0. -1.
        -11    1    3    3    0    0  0.28362120324E+01  0.15010460747E+02 -0.24546774748E+01  0.15472022244E+02  0.51100000000E-03 0.  1.
        -12    1    3    3    0    0 -0.21122881573E+01  0.30074604762E+02  0.38018472394E+01  0.30387458848E+02  0.00000000000E+00 0.  1.
</event>
<event>
 7    1  0.2243370E-008  0.4614232E+02  0.7816164E-02  0.1320468E+00
        -11   -1    0    0    0    0  0.00000000000E+00  0.00000000000E+00  0.45593999997E+02  0.45594000000E+02  0.51100000000E-03 0. -1.
         11   -1    0    0    0    0 -0.00000000000E+00 -0.00000000000E+00 -0.45593999997E+02  0.45594000000E+02  0.51100000000E-03 0.  1.
    9900012    2    1    2    0    0  0.15817274358E+02  0.37642815100E+02 -0.19024873553E+02  0.46142317516E+02  0.99999977655E+01 0.  0.
         12    1    1    2    0    0 -0.15817274358E+02 -0.37642815100E+02  0.19024873553E+02  0.45045682484E+02  0.00000000000E+00 0. -1.
         11    1    3    3    0    0  0.64870327614E+01  0.76876651619E+01 -0.56864746089E+01  0.11554989547E+02  0.51100000000E-03 0. -1.
        -11    1    3    3    0    0  0.98743104272E+01  0.25754919143E+02 -0.12436844550E+02  0.30257114355E+02  0.51100000000E-03 0.  1.
         12    1    3    3    0    0 -0.54406883018E+00  0.42002307943E+01 -0.90155439423E+00  0.43302136141E+01  0.00000000000E+00 0. -1.
</event>
<event>
 7    1  0.2243370E-008  0.4614232E+02  0.7816164E-02  0.1320468E+00
        -11   -1    0    0    0    0  0.00000000000E+00  0.00000000000E+00  0.45593999997E+02  0.45594000000E+02  0.51100000000E-03 0.  1.
         11   -1    0    0    0    0 -0.00000000000E+00 -0.00000000000E+00 -0.45593999997E+02  0.45594000000E+02  0.51100000000E-03 0. -1.
    9900012    2    1    2    0    0 -0.70377100325E+01 -0.31543574794E+02  0.31378129541E+02  0.46142317779E+02  0.10000000162E+02 0.  0.
         12    1    1    2    0    0  0.70377100325E+01  0.31543574794E+02 -0.31378129541E+02  0.45045682221E+02  0.00000000000E+00 0. -1.
         11    1    3    3    0    0 -0.20732395477E+01 -0.14064170369E+02  0.75266575007E+01  0.16085701222E+02  0.51100000000E-03 0. -1.
        -11    1    3    3    0    0 -0.16194174043E+01 -0.56403198725E+01  0.61567964531E+01  0.85054020375E+01  0.51100000000E-03 0.  1.
        -12    1    3    3    0    0 -0.33450530806E+01 -0.11839084552E+02  0.17694675587E+02  0.21551214520E+02  0.00000000000E+00 0.  1.
</event>
<event>
 7    1  0.2243370E-008  0.4614232E+02  0.7816164E-02  0.1320468E+00
        -11   -1    0    0    0    0  0.00000000000E+00  0.00000000000E+00  0.45593999997E+02  0.45594000000E+02  0.51100000000E-03 0.  1.
         11   -1    0    0    0    0 -0.00000000000E+00 -0.00000000000E+00 -0.45593999997E+02  0.45594000000E+02  0.51100000000E-03 0. -1.
    9900012    2    1    2    0    0  0.30767513683E+02 -0.75058214973E+01  0.32033360235E+02  0.46142318492E+02  0.10000006667E+02 0.  0.
         12    1    1    2    0    0 -0.30767513683E+02  0.75058214973E+01 -0.32033360235E+02  0.45045681508E+02  0.00000000000E+00 0. -1.
         11    1    3    3    0    0  0.14200867867E+01  0.12958465211E+01  0.35083335325E+00  0.19542131386E+01  0.51100000000E-03 0. -1.
        -11    1    3    3    0    0  0.12341876300E+01 -0.30194629153E+00  0.23934934801E+01  0.27098343066E+01  0.51100000000E-03 0.  1.
        -12    1    3    3    0    0  0.28113239266E+02 -0.84997217269E+01  0.29289033401E+02  0.41478271047E+02  0.00000000000E+00 0.  1.
</event>
<event>
 7    1  0.2243370E-008  0.4614232E+02  0.7816164E-02  0.1320468E+00
        -11   -1    0    0    0    0  0.00000000000E+00  0.00000000000E+00  0.45593999997E+02  0.45594000000E+02  0.51100000000E-03 0.  1.
         11   -1    0    0    0    0 -0.00000000000E+00 -0.00000000000E+00 -0.45593999997E+02  0.45594000000E+02  0.51100000000E-03 0. -1.
    9900012    2    1    2    0    0 -0.34800832255E+02 -0.24090304066E+02 -0.15416645870E+02  0.46142316017E+02  0.99999840949E+01 0.  0.
         12    1    1    2    0    0  0.34800832255E+02  0.24090304066E+02  0.15416645870E+02  0.45045683983E+02  0.00000000000E+00 0. -1.
         11    1    3    3    0    0 -0.13889494248E+00  0.38326170926E+00 -0.91985516133E+00  0.10061387190E+01  0.51100000000E-03 0. -1.
        -11    1    3    3    0    0 -0.20574365416E+02 -0.13048179659E+02 -0.10677199873E+02  0.26600039513E+02  0.51100000000E-03 0.  1.
         12    1    3    3    0    0 -0.14087571896E+02 -0.11425386116E+02 -0.38195908353E+01  0.18536137785E+02  0.00000000000E+00 0. -1.
</event>
<event>
 7    1  0.2243370E-008  0.4614232E+02  0.7816164E-02  0.1320468E+00
        -11   -1    0    0    0    0  0.00000000000E+00  0.00000000000E+00  0.45593999997E+02  0.45594000000E+02  0.51100000000E-03 0. -1.
         11   -1    0    0    0    0 -0.00000000000E+00 -0.00000000000E+00 -0.45593999997E+02  0.45594000000E+02  0.51100000000E-03 0.  1.
    9900012    2    1    2    0    0 -0.91992744070E+01 -0.39558321081E+02 -0.19483994588E+02  0.46142318060E+02  0.10000002727E+02 0.  0.
         12    1    1    2    0    0  0.91992744070E+01  0.39558321081E+02  0.19483994588E+02  0.45045681940E+02  0.00000000000E+00 0. -1.
         11    1    3    3    0    0 -0.24910710488E+01 -0.11895686748E+01 -0.17968944118E+01  0.32938333884E+01  0.51100000000E-03 0. -1.
        -11    1    3    3    0    0  0.14037159312E+00 -0.25379874787E+01 -0.96302989938E+00  0.27181816486E+01  0.51100000000E-03 0.  1.
         12    1    3    3    0    0 -0.68485749513E+01 -0.35830764927E+02 -0.16724070277E+02  0.40130303023E+02  0.00000000000E+00 0. -1.
</event>
<event>
 7    1  0.2243370E-008  0.4614232E+02  0.7816164E-02  0.1320468E+00
        -11   -1    0    0    0    0  0.00000000000E+00  0.00000000000E+00  0.45593999997E+02  0.45594000000E+02  0.51100000000E-03 0. -1.
         11   -1    0    0    0    0 -0.00000000000E+00 -0.00000000000E+00 -0.45593999997E+02  0.45594000000E+02  0.51100000000E-03 0.  1.
    9900012    2    1    2    0    0 -0.41374869369E+02 -0.77543085632E+01  0.16034472676E+02  0.46142318402E+02  0.10000005844E+02 0.  0.
         12    1    1    2    0    0  0.41374869369E+02  0.77543085632E+01 -0.16034472676E+02  0.45045681598E+02  0.00000000000E+00 0. -1.
         11    1    3    3    0    0 -0.27044193400E+02 -0.43234887304E+01  0.12597208595E+02  0.30145822531E+02  0.51100000000E-03 0. -1.
        -11    1    3    3    0    0 -0.10100709625E+02 -0.24983328140E+01  0.47955124624E+01  0.11457004050E+02  0.51100000000E-03 0.  1.
        -12    1    3    3    0    0 -0.42299663452E+01 -0.93248701882E+00 -0.13582483814E+01  0.45394918204E+01  0.00000000000E+00 0.  1.
</event>
<event>
 7    1  0.2243370E-008  0.4614232E+02  0.7816164E-02  0.1320468E+00
        -11   -1    0    0    0    0  0.00000000000E+00  0.00000000000E+00  0.45593999997E+02  0.45594000000E+02  0.51100000000E-03 0.  1.
         11   -1    0    0    0    0 -0.00000000000E+00 -0.00000000000E+00 -0.45593999997E+02  0.45594000000E+02  0.51100000000E-03 0. -1.
    9900012    2    1    2    0    0  0.31348167617E+02  0.31964374424E+02  0.49683602368E+01  0.46142318201E+02  0.10000004012E+02 0.  0.
         12    1    1    2    0    0 -0.31348167617E+02 -0.31964374424E+02 -0.49683602368E+01  0.45045681799E+02  0.00000000000E+00 0. -1.
         11    1    3    3    0    0  0.60676172444E+01  0.54901165286E+01 -0.13277198529E+01  0.82897647005E+01  0.51100000000E-03 0. -1.
        -11    1    3    3    0    0  0.98983330461E+01  0.75966295974E+01 -0.75762091229E+00  0.12500390715E+02  0.51100000000E-03 0.  1.
         12    1    3    3    0    0  0.15382217327E+02  0.18877628298E+02  0.70537010020E+01  0.25352162785E+02  0.00000000000E+00 0. -1.
</event>
<event>
 7    1  0.2243370E-008  0.4614232E+02  0.7816164E-02  0.1320468E+00
        -11   -1    0    0    0    0  0.00000000000E+00  0.00000000000E+00  0.45593999997E+02  0.45594000000E+02  0.51100000000E-03 0. -1.
         11   -1    0    0    0    0 -0.00000000000E+00 -0.00000000000E+00 -0.45593999997E+02  0.45594000000E+02  0.51100000000E-03 0.  1.
    9900012    2    1    2    0    0  0.19681896778E+02 -0.40351638933E+02 -0.36717179149E+01  0.46142319432E+02  0.10000015236E+02 0.  0.
         12    1    1    2    0    0 -0.19681896778E+02  0.40351638933E+02  0.36717179149E+01  0.45045680568E+02  0.00000000000E+00 0. -1.
         11    1    3    3    0    0  0.16550079397E+02 -0.35619723470E+02 -0.44934157302E+01  0.39533031927E+02  0.51100000000E-03 0. -1.
        -11    1    3    3    0    0  0.14521997302E+01 -0.41826268664E+01 -0.42309782031E+00  0.44477256645E+01  0.51100000000E-03 0.  1.
         12    1    3    3    0    0  0.16796176510E+01 -0.54928859666E+00  0.12447956356E+01  0.21615618405E+01  0.00000000000E+00 0. -1.
</event>
<event>
 7    1  0.2243370E-008  0.4614232E+02  0.7816164E-02  0.1320468E+00
        -11   -1    0    0    0    0  0.00000000000E+00  0.00000000000E+00  0.45593999997E+02  0.45594000000E+02  0.51100000000E-03 0.  1.
         11   -1    0    0    0    0 -0.00000000000E+00 -0.00000000000E+00 -0.45593999997E+02  0.45594000000E+02  0.51100000000E-03 0. -1.
    9900012    2    1    2    0    0  0.16470056569E+01  0.31024463895E+01  0.44908525909E+02  0.46142317626E+02  0.99999987677E+01 0.  0.
         12    1    1    2    0    0 -0.16470056569E+01 -0.31024463895E+01 -0.44908525909E+02  0.45045682374E+02  0.00000000000E+00 0. -1.
         11    1    3    3    0    0  0.50330270335E+00  0.55482559857E+00 -0.11796935375E+00  0.75832848132E+00  0.51100000000E-03 0. -1.
        -11    1    3    3    0    0  0.25027825597E+01  0.79927758821E+00  0.35767429404E+02  0.35863794719E+02  0.51100000000E-03 0.  1.
         12    1    3    3    0    0 -0.13590796062E+01  0.17483432027E+01  0.92590658585E+01  0.95201944257E+01  0.00000000000E+00 0. -1.
</event>
<event>
 7    1  0.2243370E-008  0.4614232E+02  0.7816164E-02  0.1320468E+00
        -11   -1    0    0    0    0  0.00000000000E+00  0.00000000000E+00  0.45593999997E+02  0.45594000000E+02  0.51100000000E-03 0.  1.
         11   -1    0    0    0    0 -0.00000000000E+00 -0.00000000000E+00 -0.45593999997E+02  0.45594000000E+02  0.51100000000E-03 0. -1.
    9900012    2    1    2    0    0  0.23527715865E+02  0.30973317737E+01  0.38287944205E+02  0.46142317084E+02  0.99999938223E+01 0.  0.
         12    1    1    2    0    0 -0.23527715865E+02 -0.30973317737E+01 -0.38287944205E+02  0.45045682916E+02  0.00000000000E+00 0. -1.
         11    1    3    3    0    0  0.48165929254E+01 -0.18533446762E+01  0.10442060784E+02  0.11647793249E+02  0.51100000000E-03 0. -1.
        -11    1    3    3    0    0  0.12808414136E+02  0.34483220857E+00  0.16292026390E+02  0.20726902954E+02  0.51100000000E-03 0.  1.
         12    1    3    3    0    0  0.59027088034E+01  0.46058442414E+01  0.11553857032E+02  0.13767620880E+02  0.00000000000E+00 0. -1.
</event>
<event>
 7    1  0.2243370E-008  0.4614232E+02  0.7816164E-02  0.1320468E+00
        -11   -1    0    0    0    0  0.00000000000E+00  0.00000000000E+00  0.45593999997E+02  0.45594000000E+02  0.51100000000E-03 0.  1.
         11   -1    0    0    0    0 -0.00000000000E+00 -0.00000000000E+00 -0.45593999997E+02  0.45594000000E+02  0.51100000000E-03 0. -1.
    9900012    2    1    2    0    0 -0.13907391162E+02  0.20369320812E+02  0.37693352529E+02  0.46142316698E+02  0.99999903033E+01 0.  0.
         12    1    1    2    0    0  0.13907391162E+02 -0.20369320812E+02 -0.37693352529E+02  0.45045683302E+02  0.00000000000E+00 0. -1.
         11    1    3    3    0    0 -0.26622251714E+01  0.24191126217E+01  0.30029705309E+01  0.46858703579E+01  0.51100000000E-03 0. -1.
        -11    1    3    3    0    0 -0.72253147906E+00  0.68060687834E+01  0.15132439431E+02  0.16608291526E+02  0.51100000000E-03 0.  1.
         12    1    3    3    0    0 -0.10522634511E+02  0.11144139407E+02  0.19557942567E+02  0.24848154814E+02  0.00000000000E+00 0. -1.
</event>
<event>
 7    1  0.2243370E-008  0.4614232E+02  0.7816164E-02  0.1320468E+00
        -11   -1    0    0    0    0  0.00000000000E+00  0.00000000000E+00  0.45593999997E+02  0.45594000000E+02  0.51100000000E-03 0. -1.
         11   -1    0    0    0    0 -0.00000000000E+00 -0.00000000000E+00 -0.45593999997E+02  0.45594000000E+02  0.51100000000E-03 0.  1.
    9900012    2    1    2    0    0  0.32241784445E+02  0.52170760933E+01 -0.31021976743E+02  0.46142316653E+02  0.99999898953E+01 0.  0.
         12    1    1    2    0    0 -0.32241784445E+02 -0.52170760933E+01  0.31021976743E+02  0.45045683347E+02  0.00000000000E+00 0. -1.
         11    1    3    3    0    0  0.55171525725E+01  0.34626618695E+01 -0.28205087072E+01  0.70981877517E+01  0.51100000000E-03 0. -1.
        -11    1    3    3    0    0  0.80488532582E+01  0.11120826878E+01 -0.64960512133E+01  0.10402857699E+02  0.51100000000E-03 0.  1.
         12    1    3    3    0    0  0.18675778614E+02  0.64233153602E+00 -0.21705416822E+02  0.28641271202E+02  0.00000000000E+00 0. -1.
</event>
<event>
 7    1  0.2243370E-008  0.4614232E+02  0.7816164E-02  0.1320468E+00
        -11   -1    0    0    0    0  0.00000000000E+00  0.00000000000E+00  0.45593999997E+02  0.45594000000E+02  0.51100000000E-03 0. -1.
         11   -1    0    0    0    0 -0.00000000000E+00 -0.00000000000E+00 -0.45593999997E+02  0.45594000000E+02  0.51100000000E-03 0.  1.
    9900012    2    1    2    0    0 -0.21411243464E+01 -0.33503209749E+02 -0.30034379891E+02  0.46142318160E+02  0.10000003641E+02 0.  0.
         12    1    1    2    0    0  0.21411243464E+01  0.33503209749E+02  0.30034379891E+02  0.45045681840E+02  0.00000000000E+00 0. -1.
         11    1    3    3    0    0 -0.17222654047E+01 -0.11485653869E+02 -0.14771148817E+02  0.18790244292E+02  0.51100000000E-03 0. -1.
        -11    1    3    3    0    0 -0.28098602309E+01 -0.88194616003E+01 -0.69053936806E+01  0.11548276044E+02  0.51100000000E-03 0.  1.
        -12    1    3    3    0    0  0.23910012892E+01 -0.13198094280E+02 -0.83578373933E+01  0.15803797824E+02  0.00000000000E+00 0.  1.
</event>
<event>
 7    1  0.2243370E-008  0.4614232E+02  0.7816164E-02  0.1320468E+00
        -11   -1    0    0    0    0  0.00000000000E+00  0.00000000000E+00  0.45593999997E+02  0.45594000000E+02  0.51100000000E-03 0.  1.
         11   -1    0    0    0    0 -0.00000000000E+00 -0.00000000000E+00 -0.45593999997E+02  0.45594000000E+02  0.51100000000E-03 0. -1.
    9900012    2    1    2    0    0  0.22362163403E+02  0.36705362008E+02 -0.13481970591E+02  0.46142317818E+02  0.10000000519E+02 0.  0.
         12    1    1    2    0    0 -0.22362163403E+02 -0.36705362008E+02  0.13481970591E+02  0.45045682182E+02  0.00000000000E+00 0. -1.
         11    1    3    3    0    0  0.23138807800E+01  0.95710336164E+01 -0.31596580140E+01  0.10341284629E+02  0.51100000000E-03 0. -1.
        -11    1    3    3    0    0  0.11455675568E+02  0.18627091756E+02 -0.42757413926E+01  0.22281898813E+02  0.51100000000E-03 0.  1.
        -12    1    3    3    0    0  0.85926070556E+01  0.85072366355E+01 -0.60465711842E+01  0.13519134376E+02  0.00000000000E+00 0.  1.
</event>
<event>
 7    1  0.2243370E-008  0.4614232E+02  0.7816164E-02  0.1320468E+00
        -11   -1    0    0    0    0  0.00000000000E+00  0.00000000000E+00  0.45593999997E+02  0.45594000000E+02  0.51100000000E-03 0. -1.
         11   -1    0    0    0    0 -0.00000000000E+00 -0.00000000000E+00 -0.45593999997E+02  0.45594000000E+02  0.51100000000E-03 0.  1.
    9900012    2    1    2    0    0  0.16154047975E+02 -0.22065417253E+02 -0.35794936396E+02  0.46142319007E+02  0.10000011358E+02 0.  0.
         12    1    1    2    0    0 -0.16154047975E+02  0.22065417253E+02  0.35794936396E+02  0.45045680993E+02  0.00000000000E+00 0. -1.
         11    1    3    3    0    0  0.15417062342E+02 -0.16155390330E+02 -0.30209611231E+02  0.37567313704E+02  0.51100000000E-03 0.  1.
        -11    1    3    3    0    0 -0.73578526003E+00 -0.15918632430E+01 -0.25512305390E+01  0.30958336611E+01  0.51100000000E-03 0. -1.
        -12    1    3    3    0    0  0.14727708930E+01 -0.43181636801E+01 -0.30340946264E+01  0.54791716412E+01  0.00000000000E+00 0.  1.
</event>
<event>
 7    1  0.2243370E-008  0.4614232E+02  0.7816164E-02  0.1320468E+00
        -11   -1    0    0    0    0  0.00000000000E+00  0.00000000000E+00  0.45593999997E+02  0.45594000000E+02  0.51100000000E-03 0.  1.
         11   -1    0    0    0    0 -0.00000000000E+00 -0.00000000000E+00 -0.45593999997E+02  0.45594000000E+02  0.51100000000E-03 0. -1.
    9900012    2    1    2    0    0 -0.39140286643E+02 -0.23739950544E+01  0.22170150097E+02  0.46142318228E+02  0.10000004257E+02 0.  0.
         12    1    1    2    0    0  0.39140286643E+02  0.23739950544E+01 -0.22170150097E+02  0.45045681772E+02  0.00000000000E+00 0. -1.
         11    1    3    3    0    0 -0.35552829993E+02  0.77424651840E+00  0.20070099743E+02  0.40833957464E+02  0.51100000000E-03 0.  1.
        -11    1    3    3    0    0 -0.15660651495E+01 -0.17680376362E+01  0.14661877483E+01  0.27799683289E+01  0.51100000000E-03 0. -1.
        -12    1    3    3    0    0 -0.20213915002E+01 -0.13802039365E+01  0.63386260500E+00  0.25283924350E+01  0.00000000000E+00 0.  1.
</event>
<event>
 7    1  0.2243370E-008  0.4614232E+02  0.7816164E-02  0.1320468E+00
        -11   -1    0    0    0    0  0.00000000000E+00  0.00000000000E+00  0.45593999997E+02  0.45594000000E+02  0.51100000000E-03 0.  1.
         11   -1    0    0    0    0 -0.00000000000E+00 -0.00000000000E+00 -0.45593999997E+02  0.45594000000E+02  0.51100000000E-03 0. -1.
    9900012    2    1    2    0    0  0.19235839070E+02  0.22290276070E+02  0.34091635149E+02  0.46142317641E+02  0.99999989085E+01 0.  0.
         12    1    1    2    0    0 -0.19235839070E+02 -0.22290276070E+02 -0.34091635149E+02  0.45045682359E+02  0.00000000000E+00 0. -1.
         11    1    3    3    0    0  0.56468541940E+01  0.77486187158E+01  0.50686538036E+01  0.10845243470E+02  0.51100000000E-03 0. -1.
        -11    1    3    3    0    0  0.68657494439E+01  0.59790249287E+01  0.14960818091E+02  0.17513233075E+02  0.51100000000E-03 0.  1.
        -12    1    3    3    0    0  0.67232354321E+01  0.85626324256E+01  0.14062163255E+02  0.17783841096E+02  0.00000000000E+00 0.  1.
</event>
<event>
 7    1  0.2243370E-008  0.4614232E+02  0.7816164E-02  0.1320468E+00
        -11   -1    0    0    0    0  0.00000000000E+00  0.00000000000E+00  0.45593999997E+02  0.45594000000E+02  0.51100000000E-03 0. -1.
         11   -1    0    0    0    0 -0.00000000000E+00 -0.00000000000E+00 -0.45593999997E+02  0.45594000000E+02  0.51100000000E-03 0.  1.
    9900012    2    1    2    0    0  0.24222464065E+02 -0.34464895921E+02 -0.15954832428E+02  0.46142317699E+02  0.99999994293E+01 0.  0.
         12    1    1    2    0    0 -0.24222464065E+02  0.34464895921E+02  0.15954832428E+02  0.45045682301E+02  0.00000000000E+00 0. -1.
         11    1    3    3    0    0  0.29342427864E+01 -0.83660977300E+01 -0.45621312838E+01  0.99706777136E+01  0.51100000000E-03 0. -1.
        -11    1    3    3    0    0  0.68855419935E+01 -0.12874083217E+02 -0.30604551272E+01  0.14917073878E+02  0.51100000000E-03 0.  1.
        -12    1    3    3    0    0  0.14402679285E+02 -0.13224714974E+02 -0.83322460168E+01  0.21254566107E+02  0.00000000000E+00 0.  1.
</event>
<event>
 7    1  0.2243370E-008  0.4614232E+02  0.7816164E-02  0.1320468E+00
        -11   -1    0    0    0    0  0.00000000000E+00  0.00000000000E+00  0.45593999997E+02  0.45594000000E+02  0.51100000000E-03 0. -1.
         11   -1    0    0    0    0 -0.00000000000E+00 -0.00000000000E+00 -0.45593999997E+02  0.45594000000E+02  0.51100000000E-03 0.  1.
    9900012    2    1    2    0    0  0.53292751572E+01 -0.97640306041E+01 -0.43650613696E+02  0.46142317151E+02  0.99999944340E+01 0.  0.
         12    1    1    2    0    0 -0.53292751572E+01  0.97640306041E+01  0.43650613696E+02  0.45045682849E+02  0.00000000000E+00 0. -1.
         11    1    3    3    0    0  0.39377002966E+01  0.48268004468E+00 -0.80219430256E+01  0.89493035382E+01  0.51100000000E-03 0. -1.
        -11    1    3    3    0    0  0.15465774151E+01 -0.26348484529E+01 -0.10702625001E+02  0.11130162184E+02  0.51100000000E-03 0.  1.
         12    1    3    3    0    0 -0.15500255442E+00 -0.76118621959E+01 -0.24926045669E+02  0.26062851428E+02  0.00000000000E+00 0. -1.
</event>
<event>
 7    1  0.2243370E-008  0.4614232E+02  0.7816164E-02  0.1320468E+00
        -11   -1    0    0    0    0  0.00000000000E+00  0.00000000000E+00  0.45593999997E+02  0.45594000000E+02  0.51100000000E-03 0. -1.
         11   -1    0    0    0    0 -0.00000000000E+00 -0.00000000000E+00 -0.45593999997E+02  0.45594000000E+02  0.51100000000E-03 0.  1.
    9900012    2    1    2    0    0  0.22613352236E+02 -0.15790066861E+02 -0.35614934451E+02  0.46142318001E+02  0.10000002184E+02 0.  0.
         12    1    1    2    0    0 -0.22613352236E+02  0.15790066861E+02  0.35614934451E+02  0.45045681999E+02  0.00000000000E+00 0. -1.
         11    1    3    3    0    0  0.86593983674E+01 -0.65996844905E+01 -0.21534257347E+02  0.24130173129E+02  0.51100000000E-03 0.  1.
        -11    1    3    3    0    0 -0.87271736339E-01 -0.56236935119E-01 -0.31210566515E+00  0.32892120056E+00  0.51100000000E-03 0. -1.
        -12    1    3    3    0    0  0.14041225605E+02 -0.91341454351E+01 -0.13768571439E+02  0.21683223672E+02  0.00000000000E+00 0.  1.
</event>
<event>
 7    1  0.2243370E-008  0.4614232E+02  0.7816164E-02  0.1320468E+00
        -11   -1    0    0    0    0  0.00000000000E+00  0.00000000000E+00  0.45593999997E+02  0.45594000000E+02  0.51100000000E-03 0.  1.
         11   -1    0    0    0    0 -0.00000000000E+00 -0.00000000000E+00 -0.45593999997E+02  0.45594000000E+02  0.51100000000E-03 0. -1.
    9900012    2    1    2    0    0  0.30237859944E+01 -0.41703379918E+02  0.16757033966E+02  0.46142319123E+02  0.10000012423E+02 0.  0.
         12    1    1    2    0    0 -0.30237859944E+01  0.41703379918E+02 -0.16757033966E+02  0.45045680877E+02  0.00000000000E+00 0. -1.
         11    1    3    3    0    0  0.30264267754E+00 -0.81941626712E+00  0.16254357895E+01  0.18452851747E+01  0.51100000000E-03 0. -1.
        -11    1    3    3    0    0  0.19628414042E+01 -0.23315243595E+02  0.47463011025E+01  0.23874268674E+02  0.51100000000E-03 0.  1.
        -12    1    3    3    0    0  0.75830191265E+00 -0.17568720056E+02  0.10385297074E+02  0.20422765275E+02  0.00000000000E+00 0.  1.
</event>
<event>
 7    1  0.2243370E-008  0.4614232E+02  0.7816164E-02  0.1320468E+00
        -11   -1    0    0    0    0  0.00000000000E+00  0.00000000000E+00  0.45593999997E+02  0.45594000000E+02  0.51100000000E-03 0.  1.
         11   -1    0    0    0    0 -0.00000000000E+00 -0.00000000000E+00 -0.45593999997E+02  0.45594000000E+02  0.51100000000E-03 0. -1.
    9900012    2    1    2    0    0 -0.37094487358E+02  0.15407558065E+02  0.20389203942E+02  0.46142317907E+02  0.10000001328E+02 0.  0.
         12    1    1    2    0    0  0.37094487358E+02 -0.15407558065E+02 -0.20389203942E+02  0.45045682093E+02  0.00000000000E+00 0. -1.
         11    1    3    3    0    0 -0.38828457702E+01  0.96307968650E+00  0.46078002753E+01  0.61021174518E+01  0.51100000000E-03 0. -1.
        -11    1    3    3    0    0 -0.30109887456E+02  0.10749732531E+02  0.13522116687E+02  0.34713249805E+02  0.51100000000E-03 0.  1.
         12    1    3    3    0    0 -0.31017541323E+01  0.36947458468E+01  0.22592869792E+01  0.53269506496E+01  0.00000000000E+00 0. -1.
</event>
<event>
 7    1  0.2243370E-008  0.4614232E+02  0.7816164E-02  0.1320468E+00
        -11   -1    0    0    0    0  0.00000000000E+00  0.00000000000E+00  0.45593999997E+02  0.45594000000E+02  0.51100000000E-03 0.  1.
         11   -1    0    0    0    0 -0.00000000000E+00 -0.00000000000E+00 -0.45593999997E+02  0.45594000000E+02  0.51100000000E-03 0. -1.
    9900012    2    1    2    0    0 -0.35375666288E+02 -0.18581698518E+02  0.20794137643E+02  0.46142318237E+02  0.10000004344E+02 0.  0.
         12    1    1    2    0    0  0.35375666288E+02  0.18581698518E+02 -0.20794137643E+02  0.45045681763E+02  0.00000000000E+00 0. -1.
         11    1    3    3    0    0 -0.43257313789E+01 -0.23167270880E+01  0.43382264681E+01  0.65497622485E+01  0.51100000000E-03 0. -1.
        -11    1    3    3    0    0  0.47011112464E+00 -0.58752964360E+00  0.68566048010E+00  0.10180010347E+01  0.51100000000E-03 0.  1.
         12    1    3    3    0    0 -0.31520046033E+02 -0.15677441787E+02  0.15770250695E+02  0.38574554954E+02  0.00000000000E+00 0. -1.
</event>
<event>
 7    1  0.2243370E-008  0.4614231E+02  0.7816164E-02  0.1320468E+00
        -11   -1    0    0    0    0  0.00000000000E+00  0.00000000000E+00  0.45593999997E+02  0.45594000000E+02  0.51100000000E-03 0. -1.
         11   -1    0    0    0    0 -0.00000000000E+00 -0.00000000000E+00 -0.45593999997E+02  0.45594000000E+02  0.51100000000E-03 0.  1.
    9900012    2    1    2    0    0  0.13543121387E+02 -0.15461527633E+02 -0.40082906352E+02  0.46142308139E+02  0.99999122553E+01 0.  0.
         12    1    1    2    0    0 -0.13543121387E+02  0.15461527633E+02  0.40082906352E+02  0.45045691861E+02  0.00000000000E+00 0. -1.
         11    1    3    3    0    0  0.73585195576E+01 -0.86398597511E+01 -0.11848447151E+02  0.16406726875E+02  0.51100000000E-03 0. -1.
        -11    1    3    3    0    0  0.26141637384E+01 -0.39947645458E+01 -0.14570640468E+02  0.15332826215E+02  0.51100000000E-03 0.  1.
         12    1    3    3    0    0  0.35704380906E+01 -0.28269033359E+01 -0.13663818733E+02  0.14402755049E+02  0.00000000000E+00 0. -1.
</event>
<event>
 7    1  0.2243370E-008  0.4614232E+02  0.7816164E-02  0.1320468E+00
        -11   -1    0    0    0    0  0.00000000000E+00  0.00000000000E+00  0.45593999997E+02  0.45594000000E+02  0.51100000000E-03 0.  1.
         11   -1    0    0    0    0 -0.00000000000E+00 -0.00000000000E+00 -0.45593999997E+02  0.45594000000E+02  0.51100000000E-03 0. -1.
    9900012    2    1    2    0    0 -0.35913301424E+02  0.20544356670E+02  0.17812290523E+02  0.46142317589E+02  0.99999984335E+01 0.  0.
         12    1    1    2    0    0  0.35913301424E+02 -0.20544356670E+02 -0.17812290523E+02  0.45045682411E+02  0.00000000000E+00 0. -1.
         11    1    3    3    0    0 -0.63644319597E+01  0.20297999360E+00  0.32762431203E+01  0.71610728451E+01  0.51100000000E-03 0. -1.
        -11    1    3    3    0    0 -0.14787069448E+02  0.74904470605E+01  0.73399318100E+01  0.18128398144E+02  0.51100000000E-03 0.  1.
         12    1    3    3    0    0 -0.14761800017E+02  0.12850929616E+02  0.71961155924E+01  0.20852846601E+02  0.00000000000E+00 0. -1.
</event>
<event>
 7    1  0.2243370E-008  0.4614232E+02  0.7816164E-02  0.1320468E+00
        -11   -1    0    0    0    0  0.00000000000E+00  0.00000000000E+00  0.45593999997E+02  0.45594000000E+02  0.51100000000E-03 0. -1.
         11   -1    0    0    0    0 -0.00000000000E+00 -0.00000000000E+00 -0.45593999997E+02  0.45594000000E+02  0.51100000000E-03 0.  1.
    9900012    2    1    2    0    0 -0.31339068236E+02  0.29779548724E+01 -0.32219684729E+02  0.46142317664E+02  0.99999991123E+01 0.  0.
         12    1    1    2    0    0  0.31339068236E+02 -0.29779548724E+01  0.32219684729E+02  0.45045682336E+02  0.00000000000E+00 0. -1.
         11    1    3    3    0    0 -0.11740566561E+02 -0.15993442201E+01 -0.14835638377E+02  0.18986705123E+02  0.51100000000E-03 0. -1.
        -11    1    3    3    0    0 -0.11606758838E+02  0.19307704164E+00 -0.11273379084E+02  0.16181569939E+02  0.51100000000E-03 0.  1.
         12    1    3    3    0    0 -0.79917428375E+01  0.43842220509E+01 -0.61106672675E+01  0.10974042602E+02  0.00000000000E+00 0. -1.
</event>
<event>
 7    1  0.2243370E-008  0.4614232E+02  0.7816164E-02  0.1320468E+00
        -11   -1    0    0    0    0  0.00000000000E+00  0.00000000000E+00  0.45593999997E+02  0.45594000000E+02  0.51100000000E-03 0.  1.
         11   -1    0    0    0    0 -0.00000000000E+00 -0.00000000000E+00 -0.45593999997E+02  0.45594000000E+02  0.51100000000E-03 0. -1.
    9900012    2    1    2    0    0  0.20657763355E+02  0.79790051302E+01  0.39226334562E+02  0.46142322817E+02  0.10000046099E+02 0.  0.
         12    1    1    2    0    0 -0.20657763355E+02 -0.79790051302E+01 -0.39226334562E+02  0.45045677183E+02  0.00000000000E+00 0. -1.
         11    1    3    3    0    0  0.13233505948E+02  0.12282962893E+01  0.16754030136E+02  0.21385320140E+02  0.51100000000E-03 0. -1.
        -11    1    3    3    0    0  0.48159560207E+01  0.26794071756E+01  0.10862396669E+02  0.12180489188E+02  0.51100000000E-03 0.  1.
         12    1    3    3    0    0  0.26083013866E+01  0.40713016653E+01  0.11609907758E+02  0.12576513488E+02  0.00000000000E+00 0. -1.
</event>
<event>
 7    1  0.2243370E-008  0.4614232E+02  0.7816164E-02  0.1320468E+00
        -11   -1    0    0    0    0  0.00000000000E+00  0.00000000000E+00  0.45593999997E+02  0.45594000000E+02  0.51100000000E-03 0.  1.
         11   -1    0    0    0    0 -0.00000000000E+00 -0.00000000000E+00 -0.45593999997E+02  0.45594000000E+02  0.51100000000E-03 0. -1.
    9900012    2    1    2    0    0  0.19566403229E+02  0.53643773547E+01  0.40218065301E+02  0.46142318118E+02  0.10000003251E+02 0.  0.
         12    1    1    2    0    0 -0.19566403229E+02 -0.53643773547E+01 -0.40218065301E+02  0.45045681882E+02  0.00000000000E+00 0. -1.
         11    1    3    3    0    0  0.57269718115E+01  0.15226806733E+01  0.52467931332E+01  0.79148974097E+01  0.51100000000E-03 0. -1.
        -11    1    3    3    0    0  0.25250471821E+01  0.28328130430E+01  0.58927242495E+01  0.70089152050E+01  0.51100000000E-03 0.  1.
         12    1    3    3    0    0  0.11314384236E+02  0.10088836384E+01  0.29078547918E+02  0.31218505503E+02  0.00000000000E+00 0. -1.
</event>
<event>
 7    1  0.2243370E-008  0.4614232E+02  0.7816164E-02  0.1320468E+00
        -11   -1    0    0    0    0  0.00000000000E+00  0.00000000000E+00  0.45593999997E+02  0.45594000000E+02  0.51100000000E-03 0.  1.
         11   -1    0    0    0    0 -0.00000000000E+00 -0.00000000000E+00 -0.45593999997E+02  0.45594000000E+02  0.51100000000E-03 0. -1.
    9900012    2    1    2    0    0 -0.10368043759E+02 -0.80458065865E+01  0.43091555285E+02  0.46142317944E+02  0.10000001669E+02 0.  0.
         12    1    1    2    0    0  0.10368043759E+02  0.80458065865E+01 -0.43091555285E+02  0.45045682056E+02  0.00000000000E+00 0. -1.
         11    1    3    3    0    0 -0.25187329879E+01 -0.32117031175E+01  0.16985978744E+02  0.17469474146E+02  0.51100000000E-03 0. -1.
        -11    1    3    3    0    0 -0.48453186080E+01 -0.55529563911E+01  0.23510790683E+02  0.24638784790E+02  0.51100000000E-03 0.  1.
         12    1    3    3    0    0 -0.30039921629E+01  0.71885292211E+00  0.25947858572E+01  0.40340590083E+01  0.00000000000E+00 0. -1.
</event>
<event>
 7    1  0.2243370E-008  0.4614233E+02  0.7816164E-02  0.1320468E+00
        -11   -1    0    0    0    0  0.00000000000E+00  0.00000000000E+00  0.45593999997E+02  0.45594000000E+02  0.51100000000E-03 0.  1.
         11   -1    0    0    0    0 -0.00000000000E+00 -0.00000000000E+00 -0.45593999997E+02  0.45594000000E+02  0.51100000000E-03 0. -1.
    9900012    2    1    2    0    0 -0.20891845706E+02  0.11410555949E+00  0.39907775885E+02  0.46142325255E+02  0.10000068337E+02 0.  0.
         12    1    1    2    0    0  0.20891845706E+02 -0.11410555949E+00 -0.39907775885E+02  0.45045674745E+02  0.00000000000E+00 0. -1.
         11    1    3    3    0    0 -0.53284287205E+01  0.20272487636E+01  0.82624305795E+01  0.10038408715E+02  0.51100000000E-03 0. -1.
        -11    1    3    3    0    0 -0.39362849174E+01  0.27986792315E+01  0.84263434001E+01  0.97123739503E+01  0.51100000000E-03 0.  1.
         12    1    3    3    0    0 -0.11627132068E+02 -0.47118224357E+01  0.23219001906E+02  0.26391542590E+02  0.00000000000E+00 0. -1.
</event>
<event>
 7    1  0.2243370E-008  0.4614232E+02  0.7816164E-02  0.1320468E+00
        -11   -1    0    0    0    0  0.00000000000E+00  0.00000000000E+00  0.45593999997E+02  0.45594000000E+02  0.51100000000E-03 0. -1.
         11   -1    0    0    0    0 -0.00000000000E+00 -0.00000000000E+00 -0.45593999997E+02  0.45594000000E+02  0.51100000000E-03 0.  1.
    9900012    2    1    2    0    0  0.43170625790E+02 -0.12800642827E+02 -0.12466488511E+01  0.46142317396E+02  0.99999966707E+01 0.  0.
         12    1    1    2    0    0 -0.43170625790E+02  0.12800642827E+02  0.12466488511E+01  0.45045682604E+02  0.00000000000E+00 0. -1.
         11    1    3    3    0    0  0.70053753138E+01 -0.13899572654E+01 -0.12229752797E+01  0.72458907860E+01  0.51100000000E-03 0. -1.
        -11    1    3    3    0    0  0.29477732232E+02 -0.65339348871E+01 -0.23910042298E+01  0.30287718701E+02  0.51100000000E-03 0.  1.
        -12    1    3    3    0    0  0.66875182448E+01 -0.48767506744E+01  0.23673306584E+01  0.86087079089E+01  0.00000000000E+00 0.  1.
</event>
<event>
 7    1  0.2243370E-008  0.4614231E+02  0.7816164E-02  0.1320468E+00
        -11   -1    0    0    0    0  0.00000000000E+00  0.00000000000E+00  0.45593999997E+02  0.45594000000E+02  0.51100000000E-03 0. -1.
         11   -1    0    0    0    0 -0.00000000000E+00 -0.00000000000E+00 -0.45593999997E+02  0.45594000000E+02  0.51100000000E-03 0.  1.
    9900012    2    1    2    0    0 -0.19364959440E+02  0.35473249068E+02 -0.19893741024E+02  0.46142312243E+02  0.99999496813E+01 0.  0.
         12    1    1    2    0    0  0.19364959440E+02 -0.35473249068E+02  0.19893741024E+02  0.45045687757E+02  0.00000000000E+00 0. -1.
         11    1    3    3    0    0 -0.24511318987E+01  0.63384709440E+01  0.73205359001E-01  0.67962946359E+01  0.51100000000E-03 0. -1.
        -11    1    3    3    0    0 -0.35763242590E+01  0.94627503210E+01 -0.53463588331E+01  0.11441909451E+02  0.51100000000E-03 0.  1.
         12    1    3    3    0    0 -0.13337503282E+02  0.19672027803E+02 -0.14620587550E+02  0.27904108156E+02  0.00000000000E+00 0. -1.
</event>
<event>
 7    1  0.2243370E-008  0.4614232E+02  0.7816164E-02  0.1320468E+00
        -11   -1    0    0    0    0  0.00000000000E+00  0.00000000000E+00  0.45593999997E+02  0.45594000000E+02  0.51100000000E-03 0.  1.
         11   -1    0    0    0    0 -0.00000000000E+00 -0.00000000000E+00 -0.45593999997E+02  0.45594000000E+02  0.51100000000E-03 0. -1.
    9900012    2    1    2    0    0 -0.12079854508E+02 -0.38322059592E+02  0.20361982806E+02  0.46142317853E+02  0.10000000837E+02 0.  0.
         12    1    1    2    0    0  0.12079854508E+02  0.38322059592E+02 -0.20361982806E+02  0.45045682147E+02  0.00000000000E+00 0. -1.
         11    1    3    3    0    0  0.54993079509E+00 -0.17103654466E+01  0.41261939830E+00  0.18433743162E+01  0.51100000000E-03 0. -1.
        -11    1    3    3    0    0 -0.11343304412E+01 -0.47386809169E+01 -0.20195684237E+00  0.48767396085E+01  0.51100000000E-03 0.  1.
        -12    1    3    3    0    0 -0.11495454862E+02 -0.31873013228E+02  0.20151320250E+02  0.39422203928E+02  0.00000000000E+00 0.  1.
</event>
<event>
 7    1  0.2243370E-008  0.4614232E+02  0.7816164E-02  0.1320468E+00
        -11   -1    0    0    0    0  0.00000000000E+00  0.00000000000E+00  0.45593999997E+02  0.45594000000E+02  0.51100000000E-03 0. -1.
         11   -1    0    0    0    0 -0.00000000000E+00 -0.00000000000E+00 -0.45593999997E+02  0.45594000000E+02  0.51100000000E-03 0.  1.
    9900012    2    1    2    0    0  0.12698144959E+02 -0.40832548029E+02  0.14162400857E+02  0.46142318054E+02  0.10000002669E+02 0.  0.
         12    1    1    2    0    0 -0.12698144959E+02  0.40832548029E+02 -0.14162400857E+02  0.45045681946E+02  0.00000000000E+00 0. -1.
         11    1    3    3    0    0  0.97819129089E+01 -0.21593740770E+02  0.42062798792E+01  0.24076300614E+02  0.51100000000E-03 0. -1.
        -11    1    3    3    0    0  0.92501537625E+00 -0.57194669906E+01  0.45638276294E+01  0.73753968703E+01  0.51100000000E-03 0.  1.
        -12    1    3    3    0    0  0.19912166740E+01 -0.13519340269E+02  0.53922933488E+01  0.14690620569E+02  0.00000000000E+00 0.  1.
</event>
<event>
 7    1  0.2243370E-008  0.4614232E+02  0.7816164E-02  0.1320468E+00
        -11   -1    0    0    0    0  0.00000000000E+00  0.00000000000E+00  0.45593999997E+02  0.45594000000E+02  0.51100000000E-03 0. -1.
         11   -1    0    0    0    0 -0.00000000000E+00 -0.00000000000E+00 -0.45593999997E+02  0.45594000000E+02  0.51100000000E-03 0.  1.
    9900012    2    1    2    0    0  0.12123454737E+02 -0.39319189294E+02 -0.18334024080E+02  0.46142320513E+02  0.10000025093E+02 0.  0.
         12    1    1    2    0    0 -0.12123454737E+02  0.39319189294E+02  0.18334024080E+02  0.45045679487E+02  0.00000000000E+00 0. -1.
         11    1    3    3    0    0  0.85106121504E+01 -0.20060096597E+02 -0.78342117432E+01  0.23156270610E+02  0.51100000000E-03 0. -1.
        -11    1    3    3    0    0  0.52064380565E+01 -0.14991513418E+02 -0.86008793608E+01  0.18050695218E+02  0.51100000000E-03 0.  1.
         12    1    3    3    0    0 -0.15935954700E+01 -0.42675792785E+01 -0.18989329761E+01  0.49353546851E+01  0.00000000000E+00 0. -1.
</event>
<event>
 7    1  0.2243370E-008  0.4614232E+02  0.7816164E-02  0.1320468E+00
        -11   -1    0    0    0    0  0.00000000000E+00  0.00000000000E+00  0.45593999997E+02  0.45594000000E+02  0.51100000000E-03 0.  1.
         11   -1    0    0    0    0 -0.00000000000E+00 -0.00000000000E+00 -0.45593999997E+02  0.45594000000E+02  0.51100000000E-03 0. -1.
    9900012    2    1    2    0    0 -0.15245219560E+02  0.35749737661E+01  0.42236434271E+02  0.46142317223E+02  0.99999950963E+01 0.  0.
         12    1    1    2    0    0  0.15245219560E+02 -0.35749737661E+01 -0.42236434271E+02  0.45045682777E+02  0.00000000000E+00 0. -1.
         11    1    3    3    0    0 -0.42244512842E+01  0.44766691396E+01  0.10744033917E+02  0.12382278478E+02  0.51100000000E-03 0. -1.
        -11    1    3    3    0    0 -0.97774572641E+01  0.97050730612E+00  0.23867306871E+02  0.25810635260E+02  0.51100000000E-03 0.  1.
        -12    1    3    3    0    0 -0.12433110119E+01 -0.18722026797E+01  0.76250934826E+01  0.79494034849E+01  0.00000000000E+00 0.  1.
</event>
<event>
 7    1  0.2243370E-008  0.4614232E+02  0.7816164E-02  0.1320468E+00
        -11   -1    0    0    0    0  0.00000000000E+00  0.00000000000E+00  0.45593999997E+02  0.45594000000E+02  0.51100000000E-03 0.  1.
         11   -1    0    0    0    0 -0.00000000000E+00 -0.00000000000E+00 -0.45593999997E+02  0.45594000000E+02  0.51100000000E-03 0. -1.
    9900012    2    1    2    0    0  0.31073031712E+00 -0.15770902554E+01  0.45016994774E+02  0.46142316683E+02  0.99999901672E+01 0.  0.
         12    1    1    2    0    0 -0.31073031712E+00  0.15770902554E+01 -0.45016994774E+02  0.45045683317E+02  0.00000000000E+00 0. -1.
         11    1    3    3    0    0  0.12697687622E+01 -0.75442882551E+00  0.17999978617E+02  0.18060473583E+02  0.51100000000E-03 0. -1.
        -11    1    3    3    0    0 -0.79209110939E-01 -0.56301835945E+00  0.27149090488E+02  0.27155043332E+02  0.51100000000E-03 0.  1.
         12    1    3    3    0    0 -0.87982933409E+00 -0.25964307043E+00 -0.13207433101E+00  0.92679976805E+00  0.00000000000E+00 0. -1.
</event>
<event>
 7    1  0.2243370E-008  0.4614232E+02  0.7816164E-02  0.1320468E+00
        -11   -1    0    0    0    0  0.00000000000E+00  0.00000000000E+00  0.45593999997E+02  0.45594000000E+02  0.51100000000E-03 0.  1.
         11   -1    0    0    0    0 -0.00000000000E+00 -0.00000000000E+00 -0.45593999997E+02  0.45594000000E+02  0.51100000000E-03 0. -1.
    9900012    2    1    2    0    0  0.36391800531E+02 -0.26545060287E+02  0.33179225172E+00  0.46142318102E+02  0.10000003112E+02 0.  0.
         12    1    1    2    0    0 -0.36391800531E+02  0.26545060287E+02 -0.33179225172E+00  0.45045681898E+02  0.00000000000E+00 0. -1.
         11    1    3    3    0    0  0.24106862970E+02 -0.22072917135E+02 -0.43905465274E+00  0.32688641488E+02  0.51100000000E-03 0. -1.
        -11    1    3    3    0    0  0.29091173717E+01  0.22560332489E-01 -0.58711235896E+00  0.29678568082E+01  0.51100000000E-03 0.  1.
        -12    1    3    3    0    0  0.93758201900E+01 -0.44947034840E+01  0.13579592634E+01  0.10485819806E+02  0.00000000000E+00 0.  1.
</event>
<event>
 7    1  0.2243370E-008  0.4614232E+02  0.7816164E-02  0.1320468E+00
        -11   -1    0    0    0    0  0.00000000000E+00  0.00000000000E+00  0.45593999997E+02  0.45594000000E+02  0.51100000000E-03 0. -1.
         11   -1    0    0    0    0 -0.00000000000E+00 -0.00000000000E+00 -0.45593999997E+02  0.45594000000E+02  0.51100000000E-03 0.  1.
    9900012    2    1    2    0    0  0.40449514723E+02  0.16836728283E+02 -0.10463014280E+02  0.46142319537E+02  0.10000016192E+02 0.  0.
         12    1    1    2    0    0 -0.40449514723E+02 -0.16836728283E+02  0.10463014280E+02  0.45045680463E+02  0.00000000000E+00 0. -1.
         11    1    3    3    0    0  0.22698933321E+01 -0.60037650415E+00 -0.48970941719E+00  0.23984751948E+01  0.51100000000E-03 0. -1.
        -11    1    3    3    0    0  0.26046027039E+02  0.82291052834E+01 -0.73610172715E+01  0.28289543542E+02  0.51100000000E-03 0.  1.
        -12    1    3    3    0    0  0.12133594351E+02  0.92079995041E+01 -0.26122875911E+01  0.15454300800E+02  0.00000000000E+00 0.  1.
</event>
<event>
 7    1  0.2243370E-008  0.4614232E+02  0.7816164E-02  0.1320468E+00
        -11   -1    0    0    0    0  0.00000000000E+00  0.00000000000E+00  0.45593999997E+02  0.45594000000E+02  0.51100000000E-03 0.  1.
         11   -1    0    0    0    0 -0.00000000000E+00 -0.00000000000E+00 -0.45593999997E+02  0.45594000000E+02  0.51100000000E-03 0. -1.
    9900012    2    1    2    0    0  0.17682569124E+02  0.27337536201E+02  0.31130360411E+02  0.46142317902E+02  0.10000001287E+02 0.  0.
         12    1    1    2    0    0 -0.17682569124E+02 -0.27337536201E+02 -0.31130360411E+02  0.45045682098E+02  0.00000000000E+00 0. -1.
         11    1    3    3    0    0 -0.11391157241E+01  0.23537209944E+01  0.25972390783E+01  0.36855444975E+01  0.51100000000E-03 0. -1.
        -11    1    3    3    0    0  0.83743791622E+01  0.12535879424E+02  0.11941241862E+02  0.19232050249E+02  0.51100000000E-03 0.  1.
         12    1    3    3    0    0  0.10447305686E+02  0.12447935782E+02  0.16591879470E+02  0.23224723156E+02  0.00000000000E+00 0. -1.
</event>
<event>
 7    1  0.2243370E-008  0.4614232E+02  0.7816164E-02  0.1320468E+00
        -11   -1    0    0    0    0  0.00000000000E+00  0.00000000000E+00  0.45593999997E+02  0.45594000000E+02  0.51100000000E-03 0.  1.
         11   -1    0    0    0    0 -0.00000000000E+00 -0.00000000000E+00 -0.45593999997E+02  0.45594000000E+02  0.51100000000E-03 0. -1.
    9900012    2    1    2    0    0  0.13687933643E+02 -0.33270617019E+02  0.27107563638E+02  0.46142317736E+02  0.99999997666E+01 0.  0.
         12    1    1    2    0    0 -0.13687933643E+02  0.33270617019E+02 -0.27107563638E+02  0.45045682264E+02  0.00000000000E+00 0. -1.
         11    1    3    3    0    0  0.90983756964E+00 -0.10429380822E+02  0.87714100652E+01  0.13657870388E+02  0.51100000000E-03 0. -1.
        -11    1    3    3    0    0  0.19231659614E+01 -0.81553130707E+01  0.75256088089E+01  0.11262436983E+02  0.51100000000E-03 0.  1.
         12    1    3    3    0    0  0.10854930112E+02 -0.14685923127E+02  0.10810544764E+02  0.21222010365E+02  0.00000000000E+00 0. -1.
</event>
<event>
 7    1  0.2243370E-008  0.4614232E+02  0.7816164E-02  0.1320468E+00
        -11   -1    0    0    0    0  0.00000000000E+00  0.00000000000E+00  0.45593999997E+02  0.45594000000E+02  0.51100000000E-03 0.  1.
         11   -1    0    0    0    0 -0.00000000000E+00 -0.00000000000E+00 -0.45593999997E+02  0.45594000000E+02  0.51100000000E-03 0. -1.
    9900012    2    1    2    0    0  0.18788442673E+02 -0.11496069605E+02  0.39293107585E+02  0.46142317653E+02  0.99999990160E+01 0.  0.
         12    1    1    2    0    0 -0.18788442673E+02  0.11496069605E+02 -0.39293107585E+02  0.45045682347E+02  0.00000000000E+00 0. -1.
         11    1    3    3    0    0  0.51504941480E+01 -0.52509121788E+01  0.18390236399E+02  0.19806576276E+02  0.51100000000E-03 0. -1.
        -11    1    3    3    0    0  0.69893674981E+01 -0.49740224741E+01  0.15333302092E+02  0.17569926320E+02  0.51100000000E-03 0.  1.
         12    1    3    3    0    0  0.66485810264E+01 -0.12711349517E+01  0.55695690936E+01  0.87658150573E+01  0.00000000000E+00 0. -1.
</event>
<event>
 7    1  0.2243370E-008  0.4614232E+02  0.7816164E-02  0.1320468E+00
        -11   -1    0    0    0    0  0.00000000000E+00  0.00000000000E+00  0.45593999997E+02  0.45594000000E+02  0.51100000000E-03 0. -1.
         11   -1    0    0    0    0 -0.00000000000E+00 -0.00000000000E+00 -0.45593999997E+02  0.45594000000E+02  0.51100000000E-03 0.  1.
    9900012    2    1    2    0    0 -0.20344222875E+02 -0.34503500851E+02 -0.20609090405E+02  0.46142316714E+02  0.99999904526E+01 0.  0.
         12    1    1    2    0    0  0.20344222875E+02  0.34503500851E+02  0.20609090405E+02  0.45045683286E+02  0.00000000000E+00 0. -1.
         11    1    3    3    0    0 -0.96668174629E+01 -0.20319983767E+02 -0.67561156275E+01  0.23494556790E+02  0.51100000000E-03 0. -1.
        -11    1    3    3    0    0 -0.84431866833E+01 -0.11453855772E+02 -0.98158131110E+01  0.17286653832E+02  0.51100000000E-03 0.  1.
         12    1    3    3    0    0 -0.22342187286E+01 -0.27296613127E+01 -0.40371616661E+01  0.53611060918E+01  0.00000000000E+00 0. -1.
</event>
<event>
 7    1  0.2243370E-008  0.4614232E+02  0.7816164E-02  0.1320468E+00
        -11   -1    0    0    0    0  0.00000000000E+00  0.00000000000E+00  0.45593999997E+02  0.45594000000E+02  0.51100000000E-03 0.  1.
         11   -1    0    0    0    0 -0.00000000000E+00 -0.00000000000E+00 -0.45593999997E+02  0.45594000000E+02  0.51100000000E-03 0. -1.
    9900012    2    1    2    0    0  0.38015187612E+02 -0.13286385584E+02  0.20184922354E+02  0.46142316284E+02  0.99999865281E+01 0.  0.
         12    1    1    2    0    0 -0.38015187612E+02  0.13286385584E+02 -0.20184922354E+02  0.45045683716E+02  0.00000000000E+00 0. -1.
         11    1    3    3    0    0  0.51920978715E+01 -0.43201106064E+00  0.45700775740E+01  0.69303768409E+01  0.51100000000E-03 0. -1.
        -11    1    3    3    0    0  0.10948489463E+02 -0.71522457457E+01  0.33780878002E+01  0.13506869296E+02  0.51100000000E-03 0.  1.
        -12    1    3    3    0    0  0.21874600277E+02 -0.57021287778E+01  0.12236756980E+02  0.25705070147E+02  0.00000000000E+00 0.  1.
</event>
<event>
 7    1  0.2243370E-008  0.4614232E+02  0.7816164E-02  0.1320468E+00
        -11   -1    0    0    0    0  0.00000000000E+00  0.00000000000E+00  0.45593999997E+02  0.45594000000E+02  0.51100000000E-03 0.  1.
         11   -1    0    0    0    0 -0.00000000000E+00 -0.00000000000E+00 -0.45593999997E+02  0.45594000000E+02  0.51100000000E-03 0. -1.
    9900012    2    1    2    0    0 -0.11756084301E+02  0.31787681967E+02  0.29672397725E+02  0.46142318413E+02  0.10000005941E+02 0.  0.
         12    1    1    2    0    0  0.11756084301E+02 -0.31787681967E+02 -0.29672397725E+02  0.45045681587E+02  0.00000000000E+00 0. -1.
         11    1    3    3    0    0 -0.69050666301E+01  0.89347654532E+01  0.12360482007E+02  0.16741908331E+02  0.51100000000E-03 0. -1.
        -11    1    3    3    0    0 -0.20998260362E+00  0.21675905826E+00 -0.23796667316E+00  0.38432483893E+00  0.51100000000E-03 0.  1.
        -12    1    3    3    0    0 -0.46410350669E+01  0.22636157455E+02  0.17549882392E+02  0.29016085242E+02  0.00000000000E+00 0.  1.
</event>
<event>
 7    1  0.2243370E-008  0.4614232E+02  0.7816164E-02  0.1320468E+00
        -11   -1    0    0    0    0  0.00000000000E+00  0.00000000000E+00  0.45593999997E+02  0.45594000000E+02  0.51100000000E-03 0.  1.
         11   -1    0    0    0    0 -0.00000000000E+00 -0.00000000000E+00 -0.45593999997E+02  0.45594000000E+02  0.51100000000E-03 0. -1.
    9900012    2    1    2    0    0 -0.79641988866E+01 -0.41819690029E+02 -0.14724080126E+02  0.46142317925E+02  0.10000001492E+02 0.  0.
         12    1    1    2    0    0  0.79641988866E+01  0.41819690029E+02  0.14724080126E+02  0.45045682075E+02  0.00000000000E+00 0. -1.
         11    1    3    3    0    0 -0.33337471986E+01 -0.57211114861E+01 -0.18326440487E+01  0.68704855353E+01  0.51100000000E-03 0. -1.
        -11    1    3    3    0    0 -0.39103160262E-01 -0.12553691522E+02 -0.77033998548E+01  0.14728851600E+02  0.51100000000E-03 0.  1.
         12    1    3    3    0    0 -0.45913485277E+01 -0.23544887022E+02 -0.51880362229E+01  0.24542980789E+02  0.00000000000E+00 0. -1.
</event>
<event>
 7    1  0.2243370E-008  0.4614232E+02  0.7816164E-02  0.1320468E+00
        -11   -1    0    0    0    0  0.00000000000E+00  0.00000000000E+00  0.45593999997E+02  0.45594000000E+02  0.51100000000E-03 0.  1.
         11   -1    0    0    0    0 -0.00000000000E+00 -0.00000000000E+00 -0.45593999997E+02  0.45594000000E+02  0.51100000000E-03 0. -1.
    9900012    2    1    2    0    0  0.39467782038E+02  0.12576780692E+02  0.17698368358E+02  0.46142317919E+02  0.10000001444E+02 0.  0.
         12    1    1    2    0    0 -0.39467782038E+02 -0.12576780692E+02 -0.17698368358E+02  0.45045682081E+02  0.00000000000E+00 0. -1.
         11    1    3    3    0    0  0.83911274747E+01  0.19819849376E+01  0.41774189154E+01  0.95807157168E+01  0.51100000000E-03 0. -1.
        -11    1    3    3    0    0  0.14877322105E+02  0.11956841983E+01  0.84814210508E+01  0.17166795770E+02  0.51100000000E-03 0.  1.
         12    1    3    3    0    0  0.16199332458E+02  0.93991115563E+01  0.50395283919E+01  0.19394806432E+02  0.00000000000E+00 0. -1.
</event>
<event>
 7    1  0.2243370E-008  0.4614232E+02  0.7816164E-02  0.1320468E+00
        -11   -1    0    0    0    0  0.00000000000E+00  0.00000000000E+00  0.45593999997E+02  0.45594000000E+02  0.51100000000E-03 0.  1.
         11   -1    0    0    0    0 -0.00000000000E+00 -0.00000000000E+00 -0.45593999997E+02  0.45594000000E+02  0.51100000000E-03 0. -1.
    9900012    2    1    2    0    0 -0.31568696352E+02  0.13319949342E+01  0.32105399917E+02  0.46142317591E+02  0.99999984474E+01 0.  0.
         12    1    1    2    0    0  0.31568696352E+02 -0.13319949342E+01 -0.32105399917E+02  0.45045682409E+02  0.00000000000E+00 0. -1.
         11    1    3    3    0    0 -0.19905009691E+01 -0.18577384915E+01  0.15755089604E+01  0.31457137754E+01  0.51100000000E-03 0. -1.
        -11    1    3    3    0    0 -0.10275276485E+02  0.12789896646E+00  0.71249926595E+01  0.12504526606E+02  0.51100000000E-03 0.  1.
        -12    1    3    3    0    0 -0.19302918898E+02  0.30618344592E+01  0.23404898297E+02  0.30492077209E+02  0.00000000000E+00 0.  1.
</event>
<event>
 7    1  0.2243370E-008  0.4614232E+02  0.7816164E-02  0.1320468E+00
        -11   -1    0    0    0    0  0.00000000000E+00  0.00000000000E+00  0.45593999997E+02  0.45594000000E+02  0.51100000000E-03 0.  1.
         11   -1    0    0    0    0 -0.00000000000E+00 -0.00000000000E+00 -0.45593999997E+02  0.45594000000E+02  0.51100000000E-03 0. -1.
    9900012    2    1    2    0    0  0.61889961545E+01 -0.41696135247E+01  0.44423238266E+02  0.46142318205E+02  0.10000004048E+02 0.  0.
         12    1    1    2    0    0 -0.61889961545E+01  0.41696135247E+01 -0.44423238266E+02  0.45045681795E+02  0.00000000000E+00 0. -1.
         11    1    3    3    0    0 -0.29114984325E+00 -0.68334637962E+00  0.61631250019E+01  0.62077242654E+01  0.51100000000E-03 0. -1.
        -11    1    3    3    0    0  0.64029279512E+01 -0.27240617119E+01  0.38506261992E+02  0.39129914534E+02  0.51100000000E-03 0.  1.
        -12    1    3    3    0    0  0.77218046476E-01 -0.76220543315E+00 -0.24614872847E+00  0.80467940544E+00  0.00000000000E+00 0.  1.
</event>
<event>
 7    1  0.2243370E-008  0.4614232E+02  0.7816164E-02  0.1320468E+00
        -11   -1    0    0    0    0  0.00000000000E+00  0.00000000000E+00  0.45593999997E+02  0.45594000000E+02  0.51100000000E-03 0.  1.
         11   -1    0    0    0    0 -0.00000000000E+00 -0.00000000000E+00 -0.45593999997E+02  0.45594000000E+02  0.51100000000E-03 0. -1.
    9900012    2    1    2    0    0  0.14375375307E+02  0.23119244413E+02  0.35888196922E+02  0.46142317013E+02  0.99999931776E+01 0.  0.
         12    1    1    2    0    0 -0.14375375307E+02 -0.23119244413E+02 -0.35888196922E+02  0.45045682987E+02  0.00000000000E+00 0. -1.
         11    1    3    3    0    0  0.69514591173E+01  0.11572394332E+02  0.12143431567E+02  0.18157808924E+02  0.51100000000E-03 0. -1.
        -11    1    3    3    0    0  0.68526275916E+00  0.23088221551E+01  0.11668470279E+01  0.26761496671E+01  0.51100000000E-03 0.  1.
        -12    1    3    3    0    0  0.67386534306E+01  0.92380279255E+01  0.22577918327E+02  0.25308358422E+02  0.00000000000E+00 0.  1.
</event>
<event>
 7    1  0.2243370E-008  0.4614232E+02  0.7816164E-02  0.1320468E+00
        -11   -1    0    0    0    0  0.00000000000E+00  0.00000000000E+00  0.45593999997E+02  0.45594000000E+02  0.51100000000E-03 0. -1.
         11   -1    0    0    0    0 -0.00000000000E+00 -0.00000000000E+00 -0.45593999997E+02  0.45594000000E+02  0.51100000000E-03 0.  1.
    9900012    2    1    2    0    0 -0.28982532701E+02  0.34454030486E+02 -0.14302859282E+01  0.46142321669E+02  0.10000035637E+02 0.  0.
         12    1    1    2    0    0  0.28982532701E+02 -0.34454030486E+02  0.14302859282E+01  0.45045678331E+02  0.00000000000E+00 0. -1.
         11    1    3    3    0    0 -0.10720380256E+02  0.12980099485E+02 -0.42822127898E+01  0.17370863022E+02  0.51100000000E-03 0. -1.
        -11    1    3    3    0    0 -0.24177636398E+01  0.92614423496E+00 -0.40538238009E+00  0.26206219294E+01  0.51100000000E-03 0.  1.
         12    1    3    3    0    0 -0.15844388805E+02  0.20547786765E+02  0.32573092417E+01  0.26150836718E+02  0.00000000000E+00 0. -1.
</event>
<event>
 7    1  0.2243370E-008  0.4614232E+02  0.7816164E-02  0.1320468E+00
        -11   -1    0    0    0    0  0.00000000000E+00  0.00000000000E+00  0.45593999997E+02  0.45594000000E+02  0.51100000000E-03 0.  1.
         11   -1    0    0    0    0 -0.00000000000E+00 -0.00000000000E+00 -0.45593999997E+02  0.45594000000E+02  0.51100000000E-03 0. -1.
    9900012    2    1    2    0    0 -0.37625031041E+02 -0.44304167190E+01  0.24368871945E+02  0.46142317931E+02  0.10000001553E+02 0.  0.
         12    1    1    2    0    0  0.37625031041E+02  0.44304167190E+01 -0.24368871945E+02  0.45045682069E+02  0.00000000000E+00 0. -1.
         11    1    3    3    0    0 -0.10056344216E+02 -0.35447097221E+01  0.84534249143E+01  0.13607182627E+02  0.51100000000E-03 0. -1.
        -11    1    3    3    0    0 -0.22814096456E+02 -0.21009345827E+01  0.15389667847E+02  0.27599615938E+02  0.51100000000E-03 0.  1.
        -12    1    3    3    0    0 -0.47545903695E+01  0.12152275858E+01  0.52577918381E+00  0.49355193665E+01  0.00000000000E+00 0.  1.
</event>
<event>
 7    1  0.2243370E-008  0.4614232E+02  0.7816164E-02  0.1320468E+00
        -11   -1    0    0    0    0  0.00000000000E+00  0.00000000000E+00  0.45593999997E+02  0.45594000000E+02  0.51100000000E-03 0. -1.
         11   -1    0    0    0    0 -0.00000000000E+00 -0.00000000000E+00 -0.45593999997E+02  0.45594000000E+02  0.51100000000E-03 0.  1.
    9900012    2    1    2    0    0 -0.38057399764E+02 -0.31413293462E+01 -0.23893092451E+02  0.46142317701E+02  0.99999994544E+01 0.  0.
         12    1    1    2    0    0  0.38057399764E+02  0.31413293462E+01  0.23893092451E+02  0.45045682299E+02  0.00000000000E+00 0. -1.
         11    1    3    3    0    0 -0.37850600060E+01 -0.64970098700E+00 -0.22586550262E+01  0.44553690543E+01  0.51100000000E-03 0.  1.
        -11    1    3    3    0    0 -0.34219154253E+02 -0.14154271373E+01 -0.19801499299E+02  0.39560754878E+02  0.51100000000E-03 0. -1.
         12    1    3    3    0    0 -0.53185504852E-01 -0.10762012219E+01 -0.18329381260E+01  0.21261937686E+01  0.00000000000E+00 0. -1.
</event>
<event>
 7    1  0.2243370E-008  0.4614232E+02  0.7816164E-02  0.1320468E+00
        -11   -1    0    0    0    0  0.00000000000E+00  0.00000000000E+00  0.45593999997E+02  0.45594000000E+02  0.51100000000E-03 0. -1.
         11   -1    0    0    0    0 -0.00000000000E+00 -0.00000000000E+00 -0.45593999997E+02  0.45594000000E+02  0.51100000000E-03 0.  1.
    9900012    2    1    2    0    0 -0.34384931743E+02  0.81162660369E+01 -0.27944876912E+02  0.46142318176E+02  0.10000003785E+02 0.  0.
         12    1    1    2    0    0  0.34384931743E+02 -0.81162660369E+01  0.27944876912E+02  0.45045681824E+02  0.00000000000E+00 0. -1.
         11    1    3    3    0    0 -0.93914941297E+01  0.50034102632E+01 -0.77218850034E+01  0.13147691224E+02  0.51100000000E-03 0. -1.
        -11    1    3    3    0    0 -0.14238690084E+02  0.16276340676E+01 -0.15631238449E+02  0.21206723077E+02  0.51100000000E-03 0.  1.
         12    1    3    3    0    0 -0.10754747529E+02  0.14852217061E+01 -0.45917534598E+01  0.11787903875E+02  0.00000000000E+00 0. -1.
</event>
<event>
 7    1  0.2243370E-008  0.4614232E+02  0.7816164E-02  0.1320468E+00
        -11   -1    0    0    0    0  0.00000000000E+00  0.00000000000E+00  0.45593999997E+02  0.45594000000E+02  0.51100000000E-03 0. -1.
         11   -1    0    0    0    0 -0.00000000000E+00 -0.00000000000E+00 -0.45593999997E+02  0.45594000000E+02  0.51100000000E-03 0.  1.
    9900012    2    1    2    0    0  0.10899907332E+02  0.21072807594E+02 -0.38291543631E+02  0.46142317484E+02  0.99999974691E+01 0.  0.
         12    1    1    2    0    0 -0.10899907332E+02 -0.21072807594E+02  0.38291543631E+02  0.45045682516E+02  0.00000000000E+00 0. -1.
         11    1    3    3    0    0 -0.39718379760E+00  0.26207433155E+01 -0.55546477323E+01  0.61546861972E+01  0.51100000000E-03 0. -1.
        -11    1    3    3    0    0  0.13699751614E+01  0.94262628053E+01 -0.12755032710E+02  0.15919237485E+02  0.51100000000E-03 0.  1.
        -12    1    3    3    0    0  0.99271159681E+01  0.90258014726E+01 -0.19981863189E+02  0.24068393801E+02  0.00000000000E+00 0.  1.
</event>
<event>
 7    1  0.2243370E-008  0.4614232E+02  0.7816164E-02  0.1320468E+00
        -11   -1    0    0    0    0  0.00000000000E+00  0.00000000000E+00  0.45593999997E+02  0.45594000000E+02  0.51100000000E-03 0.  1.
         11   -1    0    0    0    0 -0.00000000000E+00 -0.00000000000E+00 -0.45593999997E+02  0.45594000000E+02  0.51100000000E-03 0. -1.
    9900012    2    1    2    0    0 -0.12918182308E+02  0.28148462380E+02  0.32709296841E+02  0.46142317983E+02  0.10000002023E+02 0.  0.
         12    1    1    2    0    0  0.12918182308E+02 -0.28148462380E+02 -0.32709296841E+02  0.45045682017E+02  0.00000000000E+00 0. -1.
         11    1    3    3    0    0 -0.26288989300E+01  0.71091301537E+01  0.36420006550E+01  0.84092217332E+01  0.51100000000E-03 0.  1.
        -11    1    3    3    0    0  0.57863089615E+00  0.31516308703E+00  0.81330019008E+00  0.10467086250E+01  0.51100000000E-03 0. -1.
        -12    1    3    3    0    0 -0.10867914274E+02  0.20724169140E+02  0.28253995996E+02  0.36686387625E+02  0.00000000000E+00 0.  1.
</event>
<event>
 7    1  0.2243370E-008  0.4614232E+02  0.7816164E-02  0.1320468E+00
        -11   -1    0    0    0    0  0.00000000000E+00  0.00000000000E+00  0.45593999997E+02  0.45594000000E+02  0.51100000000E-03 0.  1.
         11   -1    0    0    0    0 -0.00000000000E+00 -0.00000000000E+00 -0.45593999997E+02  0.45594000000E+02  0.51100000000E-03 0. -1.
    9900012    2    1    2    0    0  0.26887147390E+02 -0.74652658005E+01  0.35361908840E+02  0.46142317798E+02  0.10000000340E+02 0.  0.
         12    1    1    2    0    0 -0.26887147390E+02  0.74652658005E+01 -0.35361908840E+02  0.45045682202E+02  0.00000000000E+00 0. -1.
         11    1    3    3    0    0  0.81812196529E+01 -0.62017064416E+00  0.10511006807E+02  0.13334100307E+02  0.51100000000E-03 0. -1.
        -11    1    3    3    0    0  0.87134348278E+01  0.90017717688E+00  0.95259810271E+01  0.12941351562E+02  0.51100000000E-03 0.  1.
         12    1    3    3    0    0  0.99924929090E+01 -0.77452723332E+01  0.15324921006E+02  0.19866865930E+02  0.00000000000E+00 0. -1.
</event>
<event>
 7    1  0.2243370E-008  0.4614232E+02  0.7816164E-02  0.1320468E+00
        -11   -1    0    0    0    0  0.00000000000E+00  0.00000000000E+00  0.45593999997E+02  0.45594000000E+02  0.51100000000E-03 0. -1.
         11   -1    0    0    0    0 -0.00000000000E+00 -0.00000000000E+00 -0.45593999997E+02  0.45594000000E+02  0.51100000000E-03 0.  1.
    9900012    2    1    2    0    0 -0.37801814117E+01 -0.42293433640E+02  0.15036265575E+02  0.46142316711E+02  0.99999904204E+01 0.  0.
         12    1    1    2    0    0  0.37801814117E+01  0.42293433640E+02 -0.15036265575E+02  0.45045683289E+02  0.00000000000E+00 0. -1.
         11    1    3    3    0    0  0.13431916440E+01 -0.19069753566E+02  0.85072328801E+01  0.20924451639E+02  0.51100000000E-03 0. -1.
        -11    1    3    3    0    0 -0.49945283265E+01 -0.23446760978E+02  0.67203617571E+01  0.24896971220E+02  0.51100000000E-03 0.  1.
        -12    1    3    3    0    0 -0.12884472920E+00  0.22308090312E+00 -0.19132906262E+00  0.32089385127E+00  0.00000000000E+00 0.  1.
</event>
<event>
 7    1  0.2243370E-008  0.4614232E+02  0.7816164E-02  0.1320468E+00
        -11   -1    0    0    0    0  0.00000000000E+00  0.00000000000E+00  0.45593999997E+02  0.45594000000E+02  0.51100000000E-03 0. -1.
         11   -1    0    0    0    0 -0.00000000000E+00 -0.00000000000E+00 -0.45593999997E+02  0.45594000000E+02  0.51100000000E-03 0.  1.
    9900012    2    1    2    0    0 -0.37964494270E+02  0.18210058110E+02  0.16006388376E+02  0.46142317517E+02  0.99999977759E+01 0.  0.
         12    1    1    2    0    0  0.37964494270E+02 -0.18210058110E+02 -0.16006388376E+02  0.45045682483E+02  0.00000000000E+00 0. -1.
         11    1    3    3    0    0 -0.47045984086E+01  0.20877198024E+01  0.29394654448E+01  0.59272487312E+01  0.51100000000E-03 0. -1.
        -11    1    3    3    0    0 -0.31349299973E+02  0.16736911164E+02  0.13735795061E+02  0.38099538978E+02  0.51100000000E-03 0.  1.
         12    1    3    3    0    0 -0.19105958875E+01 -0.61457285626E+00 -0.66887213025E+00  0.21155298078E+01  0.00000000000E+00 0. -1.
</event>
<event>
 7    1  0.2243370E-008  0.4614232E+02  0.7816164E-02  0.1320468E+00
        -11   -1    0    0    0    0  0.00000000000E+00  0.00000000000E+00  0.45593999997E+02  0.45594000000E+02  0.51100000000E-03 0. -1.
         11   -1    0    0    0    0 -0.00000000000E+00 -0.00000000000E+00 -0.45593999997E+02  0.45594000000E+02  0.51100000000E-03 0.  1.
    9900012    2    1    2    0    0 -0.10435954434E+02  0.34116696842E+02 -0.27500098248E+02  0.46142317055E+02  0.99999935595E+01 0.  0.
         12    1    1    2    0    0  0.10435954434E+02 -0.34116696842E+02  0.27500098248E+02  0.45045682945E+02  0.00000000000E+00 0. -1.
         11    1    3    3    0    0 -0.24449706691E+01  0.48320673974E+01 -0.21955961444E+01  0.58435776367E+01  0.51100000000E-03 0.  1.
        -11    1    3    3    0    0 -0.17990773374E+01  0.27216636413E+01 -0.61754988076E+01  0.69843337568E+01  0.51100000000E-03 0. -1.
         12    1    3    3    0    0 -0.61919064272E+01  0.26562965803E+02 -0.19129003296E+02  0.33314405661E+02  0.00000000000E+00 0. -1.
</event>
<event>
 7    1  0.2243370E-008  0.4614230E+02  0.7816164E-02  0.1320468E+00
        -11   -1    0    0    0    0  0.00000000000E+00  0.00000000000E+00  0.45593999997E+02  0.45594000000E+02  0.51100000000E-03 0.  1.
         11   -1    0    0    0    0 -0.00000000000E+00 -0.00000000000E+00 -0.45593999997E+02  0.45594000000E+02  0.51100000000E-03 0. -1.
    9900012    2    1    2    0    0  0.16515849405E+02  0.31766370277E+02  0.27335675942E+02  0.46142303853E+02  0.99998731737E+01 0.  0.
         12    1    1    2    0    0 -0.16515849405E+02 -0.31766370277E+02 -0.27335675942E+02  0.45045696147E+02  0.00000000000E+00 0. -1.
         11    1    3    3    0    0 -0.93268179800E+00  0.13721066282E+01  0.33098230706E+00  0.16917805662E+01  0.51100000000E-03 0. -1.
        -11    1    3    3    0    0  0.42989888901E+01  0.77519639504E+01  0.92704645503E+01  0.12826369861E+02  0.51100000000E-03 0.  1.
        -12    1    3    3    0    0  0.13149542313E+02  0.22642299699E+02  0.17734229085E+02  0.31624153426E+02  0.00000000000E+00 0.  1.
</event>
<event>
 7    1  0.2243370E-008  0.4614232E+02  0.7816164E-02  0.1320468E+00
        -11   -1    0    0    0    0  0.00000000000E+00  0.00000000000E+00  0.45593999997E+02  0.45594000000E+02  0.51100000000E-03 0.  1.
         11   -1    0    0    0    0 -0.00000000000E+00 -0.00000000000E+00 -0.45593999997E+02  0.45594000000E+02  0.51100000000E-03 0. -1.
    9900012    2    1    2    0    0 -0.26215495594E+02 -0.36492619953E+02  0.31859009764E+01  0.46142317795E+02  0.10000000309E+02 0.  0.
         12    1    1    2    0    0  0.26215495594E+02  0.36492619953E+02 -0.31859009764E+01  0.45045682205E+02  0.00000000000E+00 0. -1.
         11    1    3    3    0    0 -0.13645952121E+02 -0.13335075345E+02  0.12384009674E+01  0.19119881824E+02  0.51100000000E-03 0. -1.
        -11    1    3    3    0    0 -0.10249190900E+02 -0.13362906494E+02  0.19786293246E+01  0.16956655281E+02  0.51100000000E-03 0.  1.
        -12    1    3    3    0    0 -0.23203525729E+01 -0.97946381146E+01 -0.31129315593E-01  0.10065780690E+02  0.00000000000E+00 0.  1.
</event>
<event>
 7    1  0.2243370E-008  0.4614232E+02  0.7816164E-02  0.1320468E+00
        -11   -1    0    0    0    0  0.00000000000E+00  0.00000000000E+00  0.45593999997E+02  0.45594000000E+02  0.51100000000E-03 0.  1.
         11   -1    0    0    0    0 -0.00000000000E+00 -0.00000000000E+00 -0.45593999997E+02  0.45594000000E+02  0.51100000000E-03 0. -1.
    9900012    2    1    2    0    0  0.70835256731E+01 -0.63220823206E-01  0.44485201720E+02  0.46142317578E+02  0.99999983277E+01 0.  0.
         12    1    1    2    0    0 -0.70835256731E+01  0.63220823206E-01 -0.44485201720E+02  0.45045682422E+02  0.00000000000E+00 0. -1.
         11    1    3    3    0    0  0.16554103383E+01 -0.14514057600E+01  0.46347329756E+01  0.51310537012E+01  0.51100000000E-03 0. -1.
        -11    1    3    3    0    0 -0.81126814068E+00  0.10099055910E+01  0.93654529406E+00  0.15984938685E+01  0.51100000000E-03 0.  1.
        -12    1    3    3    0    0  0.62393834754E+01  0.37827934583E+00  0.38913923450E+02  0.39412770008E+02  0.00000000000E+00 0.  1.
</event>
<event>
 7    1  0.2243370E-008  0.4614232E+02  0.7816164E-02  0.1320468E+00
        -11   -1    0    0    0    0  0.00000000000E+00  0.00000000000E+00  0.45593999997E+02  0.45594000000E+02  0.51100000000E-03 0.  1.
         11   -1    0    0    0    0 -0.00000000000E+00 -0.00000000000E+00 -0.45593999997E+02  0.45594000000E+02  0.51100000000E-03 0. -1.
    9900012    2    1    2    0    0 -0.41506900254E+01 -0.60777607898E+01  0.44440365630E+02  0.46142317618E+02  0.99999986966E+01 0.  0.
         12    1    1    2    0    0  0.41506900254E+01  0.60777607898E+01 -0.44440365630E+02  0.45045682382E+02  0.00000000000E+00 0. -1.
         11    1    3    3    0    0 -0.14580206668E+01 -0.43379502647E+01  0.20321663366E+02  0.20830593822E+02  0.51100000000E-03 0. -1.
        -11    1    3    3    0    0 -0.27779018341E+01 -0.38669940731E+01  0.21017834347E+02  0.21550400058E+02  0.51100000000E-03 0.  1.
         12    1    3    3    0    0  0.85232475444E-01  0.21271835481E+01  0.31008679172E+01  0.37613237380E+01  0.00000000000E+00 0. -1.
</event>
<event>
 7    1  0.2243370E-008  0.4614232E+02  0.7816164E-02  0.1320468E+00
        -11   -1    0    0    0    0  0.00000000000E+00  0.00000000000E+00  0.45593999997E+02  0.45594000000E+02  0.51100000000E-03 0.  1.
         11   -1    0    0    0    0 -0.00000000000E+00 -0.00000000000E+00 -0.45593999997E+02  0.45594000000E+02  0.51100000000E-03 0. -1.
    9900012    2    1    2    0    0 -0.20219870392E+02 -0.36549607494E+02  0.16864058745E+02  0.46142318254E+02  0.10000004491E+02 0.  0.
         12    1    1    2    0    0  0.20219870392E+02  0.36549607494E+02 -0.16864058745E+02  0.45045681746E+02  0.00000000000E+00 0. -1.
         11    1    3    3    0    0 -0.11713493440E+02 -0.14023833883E+02  0.64703123365E+01  0.19383982753E+02  0.51100000000E-03 0. -1.
        -11    1    3    3    0    0 -0.58315172888E+01 -0.12700496474E+02  0.33337497046E+01  0.14367431640E+02  0.51100000000E-03 0.  1.
         12    1    3    3    0    0 -0.26748596625E+01 -0.98252771372E+01  0.70599967040E+01  0.12390903861E+02  0.00000000000E+00 0. -1.
</event>
<event>
 7    1  0.2243370E-008  0.4614232E+02  0.7816164E-02  0.1320468E+00
        -11   -1    0    0    0    0  0.00000000000E+00  0.00000000000E+00  0.45593999997E+02  0.45594000000E+02  0.51100000000E-03 0.  1.
         11   -1    0    0    0    0 -0.00000000000E+00 -0.00000000000E+00 -0.45593999997E+02  0.45594000000E+02  0.51100000000E-03 0. -1.
    9900012    2    1    2    0    0 -0.36271406295E+00  0.12453201309E+02  0.43288563681E+02  0.46142317300E+02  0.99999957955E+01 0.  0.
         12    1    1    2    0    0  0.36271406295E+00 -0.12453201309E+02 -0.43288563681E+02  0.45045682700E+02  0.00000000000E+00 0. -1.
         11    1    3    3    0    0 -0.24582673171E+01  0.97370930816E+01  0.29453241178E+02  0.31118282023E+02  0.51100000000E-03 0. -1.
        -11    1    3    3    0    0  0.16804408510E+01  0.38656574146E+01  0.77986710271E+01  0.88649003802E+01  0.51100000000E-03 0.  1.
         12    1    3    3    0    0  0.41511240321E+00 -0.11495491871E+01  0.60366514757E+01  0.61591348970E+01  0.00000000000E+00 0. -1.
</event>
<event>
 7    1  0.2243370E-008  0.4614232E+02  0.7816164E-02  0.1320468E+00
        -11   -1    0    0    0    0  0.00000000000E+00  0.00000000000E+00  0.45593999997E+02  0.45594000000E+02  0.51100000000E-03 0. -1.
         11   -1    0    0    0    0 -0.00000000000E+00 -0.00000000000E+00 -0.45593999997E+02  0.45594000000E+02  0.51100000000E-03 0.  1.
    9900012    2    1    2    0    0  0.15583262417E+02  0.20395830717E+02 -0.37017367757E+02  0.46142317700E+02  0.99999994470E+01 0.  0.
         12    1    1    2    0    0 -0.15583262417E+02 -0.20395830717E+02  0.37017367757E+02  0.45045682300E+02  0.00000000000E+00 0. -1.
         11    1    3    3    0    0  0.25968319626E+01  0.72816575281E+01 -0.77942683769E+01  0.10978009491E+02  0.51100000000E-03 0. -1.
        -11    1    3    3    0    0  0.90010432190E+01  0.45556821596E+01 -0.14130989357E+02  0.17362542425E+02  0.51100000000E-03 0.  1.
        -12    1    3    3    0    0  0.39853872351E+01  0.85584910288E+01 -0.15092110023E+02  0.17801765785E+02  0.00000000000E+00 0.  1.
</event>
<event>
 7    1  0.2243370E-008  0.4614232E+02  0.7816164E-02  0.1320468E+00
        -11   -1    0    0    0    0  0.00000000000E+00  0.00000000000E+00  0.45593999997E+02  0.45594000000E+02  0.51100000000E-03 0.  1.
         11   -1    0    0    0    0 -0.00000000000E+00 -0.00000000000E+00 -0.45593999997E+02  0.45594000000E+02  0.51100000000E-03 0. -1.
    9900012    2    1    2    0    0  0.18697861927E+02 -0.13419903919E+01  0.40959765753E+02  0.46142318860E+02  0.10000010017E+02 0.  0.
         12    1    1    2    0    0 -0.18697861927E+02  0.13419903919E+01 -0.40959765753E+02  0.45045681140E+02  0.00000000000E+00 0. -1.
         11    1    3    3    0    0  0.37532384681E+01 -0.16628541886E+01  0.42748507065E+01  0.59267387217E+01  0.51100000000E-03 0. -1.
        -11    1    3    3    0    0  0.35294812311E+01 -0.28689362515E+01  0.85124406710E+01  0.96514081571E+01  0.51100000000E-03 0.  1.
        -12    1    3    3    0    0  0.11415142228E+02  0.31898000482E+01  0.28172474375E+02  0.30564171981E+02  0.00000000000E+00 0.  1.
</event>
<event>
 7    1  0.2243370E-008  0.4614232E+02  0.7816164E-02  0.1320468E+00
        -11   -1    0    0    0    0  0.00000000000E+00  0.00000000000E+00  0.45593999997E+02  0.45594000000E+02  0.51100000000E-03 0.  1.
         11   -1    0    0    0    0 -0.00000000000E+00 -0.00000000000E+00 -0.45593999997E+02  0.45594000000E+02  0.51100000000E-03 0. -1.
    9900012    2    1    2    0    0  0.17718496690E+01  0.19726807194E+02  0.40457721122E+02  0.46142316836E+02  0.99999915649E+01 0.  0.
         12    1    1    2    0    0 -0.17718496690E+01 -0.19726807194E+02 -0.40457721122E+02  0.45045683164E+02  0.00000000000E+00 0. -1.
         11    1    3    3    0    0 -0.33736606827E+01  0.54852397383E+01  0.12522027872E+02  0.14080860189E+02  0.51100000000E-03 0. -1.
        -11    1    3    3    0    0  0.13227762659E+01  0.97204208671E+01  0.17700241929E+02  0.20236968239E+02  0.51100000000E-03 0.  1.
         12    1    3    3    0    0  0.38227340857E+01  0.45211465881E+01  0.10235451321E+02  0.11824488408E+02  0.00000000000E+00 0. -1.
</event>
<event>
 7    1  0.2243370E-008  0.4614232E+02  0.7816164E-02  0.1320468E+00
        -11   -1    0    0    0    0  0.00000000000E+00  0.00000000000E+00  0.45593999997E+02  0.45594000000E+02  0.51100000000E-03 0. -1.
         11   -1    0    0    0    0 -0.00000000000E+00 -0.00000000000E+00 -0.45593999997E+02  0.45594000000E+02  0.51100000000E-03 0.  1.
    9900012    2    1    2    0    0 -0.23015958233E+02 -0.29222722329E+02 -0.25404952050E+02  0.46142318493E+02  0.10000006677E+02 0.  0.
         12    1    1    2    0    0  0.23015958233E+02  0.29222722329E+02  0.25404952050E+02  0.45045681507E+02  0.00000000000E+00 0. -1.
         11    1    3    3    0    0 -0.10002162064E+02 -0.97155214350E+01 -0.10856444561E+02  0.17671926649E+02  0.51100000000E-03 0. -1.
        -11    1    3    3    0    0 -0.33024099817E+01 -0.15726638437E+01 -0.42996633897E+01  0.56450233638E+01  0.51100000000E-03 0.  1.
        -12    1    3    3    0    0 -0.97113861872E+01 -0.17934537050E+02 -0.10248844099E+02  0.22825368480E+02  0.00000000000E+00 0.  1.
</event>
<event>
 7    1  0.2243370E-008  0.4614232E+02  0.7816164E-02  0.1320468E+00
        -11   -1    0    0    0    0  0.00000000000E+00  0.00000000000E+00  0.45593999997E+02  0.45594000000E+02  0.51100000000E-03 0. -1.
         11   -1    0    0    0    0 -0.00000000000E+00 -0.00000000000E+00 -0.45593999997E+02  0.45594000000E+02  0.51100000000E-03 0.  1.
    9900012    2    1    2    0    0 -0.30866433018E+02  0.19481360659E+02  0.26397981163E+02  0.46142317523E+02  0.99999978267E+01 0.  0.
         12    1    1    2    0    0  0.30866433018E+02 -0.19481360659E+02 -0.26397981163E+02  0.45045682477E+02  0.00000000000E+00 0. -1.
         11    1    3    3    0    0 -0.39726051364E+01  0.20524151505E+01  0.57946796468E+01  0.73193108959E+01  0.51100000000E-03 0. -1.
        -11    1    3    3    0    0 -0.23479370642E+02  0.12942833176E+02  0.19305482179E+02  0.33037848277E+02  0.51100000000E-03 0.  1.
        -12    1    3    3    0    0 -0.34144572389E+01  0.44861123325E+01  0.12978193372E+01  0.57851583494E+01  0.00000000000E+00 0.  1.
</event>
<event>
 7    1  0.2243370E-008  0.4614232E+02  0.7816164E-02  0.1320468E+00
        -11   -1    0    0    0    0  0.00000000000E+00  0.00000000000E+00  0.45593999997E+02  0.45594000000E+02  0.51100000000E-03 0.  1.
         11   -1    0    0    0    0 -0.00000000000E+00 -0.00000000000E+00 -0.45593999997E+02  0.45594000000E+02  0.51100000000E-03 0. -1.
    9900012    2    1    2    0    0 -0.20262830413E+02 -0.40230609017E+02  0.17110632967E+00  0.46142317903E+02  0.10000001292E+02 0.  0.
         12    1    1    2    0    0  0.20262830413E+02  0.40230609017E+02 -0.17110632967E+00  0.45045682097E+02  0.00000000000E+00 0. -1.
         11    1    3    3    0    0 -0.18475287756E+01 -0.97940078703E+00 -0.11900947563E+01  0.24060162652E+01  0.51100000000E-03 0. -1.
        -11    1    3    3    0    0 -0.11359167314E+02 -0.17676486805E+02  0.95689098733E+00  0.21033414094E+02  0.51100000000E-03 0.  1.
        -12    1    3    3    0    0 -0.70561343231E+01 -0.21574721425E+02  0.40431009869E+00  0.22702887544E+02  0.00000000000E+00 0.  1.
</event>
<event>
 7    1  0.2243370E-008  0.4614231E+02  0.7816164E-02  0.1320468E+00
        -11   -1    0    0    0    0  0.00000000000E+00  0.00000000000E+00  0.45593999997E+02  0.45594000000E+02  0.51100000000E-03 0.  1.
         11   -1    0    0    0    0 -0.00000000000E+00 -0.00000000000E+00 -0.45593999997E+02  0.45594000000E+02  0.51100000000E-03 0. -1.
    9900012    2    1    2    0    0  0.25815780610E+02  0.36312798107E+02 -0.66362734728E+01  0.46142312521E+02  0.99999522179E+01 0.  0.
         12    1    1    2    0    0 -0.25815780610E+02 -0.36312798107E+02  0.66362734728E+01  0.45045687479E+02  0.00000000000E+00 0. -1.
         11    1    3    3    0    0  0.15732698115E+02  0.23806056294E+02 -0.59435359510E+01  0.29147413712E+02  0.51100000000E-03 0. -1.
        -11    1    3    3    0    0  0.10780943911E+02  0.11595716551E+02 -0.64294093277E+00  0.15846222492E+02  0.51100000000E-03 0.  1.
         12    1    3    3    0    0 -0.69786141563E+00  0.91102526183E+00 -0.49796589017E-01  0.11486763179E+01  0.00000000000E+00 0. -1.
</event>
<event>
 7    1  0.2243370E-008  0.4614233E+02  0.7816164E-02  0.1320468E+00
        -11   -1    0    0    0    0  0.00000000000E+00  0.00000000000E+00  0.45593999997E+02  0.45594000000E+02  0.51100000000E-03 0. -1.
         11   -1    0    0    0    0 -0.00000000000E+00 -0.00000000000E+00 -0.45593999997E+02  0.45594000000E+02  0.51100000000E-03 0.  1.
    9900012    2    1    2    0    0  0.40155460161E+02 -0.17075594300E+02 -0.11183718240E+02  0.46142329230E+02  0.10000104582E+02 0.  0.
         12    1    1    2    0    0 -0.40155460161E+02  0.17075594300E+02  0.11183718240E+02  0.45045670770E+02  0.00000000000E+00 0. -1.
         11    1    3    3    0    0  0.20467883532E+02 -0.74432106809E+01 -0.69112781466E+01  0.22849538450E+02  0.51100000000E-03 0.  1.
        -11    1    3    3    0    0  0.80174840516E+00  0.95279536690E+00 -0.15605917529E+00  0.12549797782E+01  0.51100000000E-03 0. -1.
         12    1    3    3    0    0  0.18885828224E+02 -0.10585178986E+02 -0.41163809182E+01  0.22037811002E+02  0.00000000000E+00 0. -1.
</event>
<event>
 7    1  0.2243370E-008  0.4614232E+02  0.7816164E-02  0.1320468E+00
        -11   -1    0    0    0    0  0.00000000000E+00  0.00000000000E+00  0.45593999997E+02  0.45594000000E+02  0.51100000000E-03 0.  1.
         11   -1    0    0    0    0 -0.00000000000E+00 -0.00000000000E+00 -0.45593999997E+02  0.45594000000E+02  0.51100000000E-03 0. -1.
    9900012    2    1    2    0    0  0.24432297553E+02 -0.97176457473E+01  0.36575179990E+02  0.46142316590E+02  0.99999893213E+01 0.  0.
         12    1    1    2    0    0 -0.24432297553E+02  0.97176457473E+01 -0.36575179990E+02  0.45045683410E+02  0.00000000000E+00 0. -1.
         11    1    3    3    0    0  0.22893715366E+02 -0.94758218652E+01  0.27909355350E+02  0.37320845644E+02  0.51100000000E-03 0. -1.
        -11    1    3    3    0    0  0.12618042364E+00  0.65093188291E-01  0.30241575103E+00  0.33408706958E+00  0.51100000000E-03 0.  1.
         12    1    3    3    0    0  0.14124017638E+01 -0.30691707031E+00  0.83634088882E+01  0.84873838762E+01  0.00000000000E+00 0. -1.
</event>
<event>
 7    1  0.2243370E-008  0.4614232E+02  0.7816164E-02  0.1320468E+00
        -11   -1    0    0    0    0  0.00000000000E+00  0.00000000000E+00  0.45593999997E+02  0.45594000000E+02  0.51100000000E-03 0. -1.
         11   -1    0    0    0    0 -0.00000000000E+00 -0.00000000000E+00 -0.45593999997E+02  0.45594000000E+02  0.51100000000E-03 0.  1.
    9900012    2    1    2    0    0 -0.13270564085E+02  0.38343843896E+02 -0.19564131507E+02  0.46142317881E+02  0.10000001096E+02 0.  0.
         12    1    1    2    0    0  0.13270564085E+02 -0.38343843896E+02  0.19564131507E+02  0.45045682119E+02  0.00000000000E+00 0. -1.
         11    1    3    3    0    0 -0.56923921511E+01  0.24782037408E+02 -0.16229977205E+02  0.30165623925E+02  0.51100000000E-03 0. -1.
        -11    1    3    3    0    0 -0.26974092179E+01  0.58524601923E+01 -0.71472771828E+00  0.64836828087E+01  0.51100000000E-03 0.  1.
         12    1    3    3    0    0 -0.48807627162E+01  0.77093462964E+01 -0.26194265845E+01  0.94930111473E+01  0.00000000000E+00 0. -1.
</event>
<event>
 7    1  0.2243370E-008  0.4614233E+02  0.7816164E-02  0.1320468E+00
        -11   -1    0    0    0    0  0.00000000000E+00  0.00000000000E+00  0.45593999997E+02  0.45594000000E+02  0.51100000000E-03 0. -1.
         11   -1    0    0    0    0 -0.00000000000E+00 -0.00000000000E+00 -0.45593999997E+02  0.45594000000E+02  0.51100000000E-03 0.  1.
    9900012    2    1    2    0    0  0.79623432853E+01  0.35988001361E+02 -0.25895511837E+02  0.46142326668E+02  0.10000081224E+02 0.  0.
         12    1    1    2    0    0 -0.79623432853E+01 -0.35988001361E+02  0.25895511837E+02  0.45045673332E+02  0.00000000000E+00 0. -1.
         11    1    3    3    0    0  0.36335721961E+01  0.10885482437E+02 -0.51184014457E+01  0.12565612138E+02  0.51100000000E-03 0. -1.
        -11    1    3    3    0    0  0.40891263574E+01  0.14431963590E+02 -0.82494546323E+01  0.17118879328E+02  0.51100000000E-03 0.  1.
         12    1    3    3    0    0  0.23964473177E+00  0.10670555334E+02 -0.12527655759E+02  0.16457835203E+02  0.00000000000E+00 0. -1.
</event>
<event>
 7    1  0.2243370E-008  0.4614232E+02  0.7816164E-02  0.1320468E+00
        -11   -1    0    0    0    0  0.00000000000E+00  0.00000000000E+00  0.45593999997E+02  0.45594000000E+02  0.51100000000E-03 0.  1.
         11   -1    0    0    0    0 -0.00000000000E+00 -0.00000000000E+00 -0.45593999997E+02  0.45594000000E+02  0.51100000000E-03 0. -1.
    9900012    2    1    2    0    0  0.22923015863E+02  0.37880625560E+02  0.82889673258E+01  0.46142318427E+02  0.10000006070E+02 0.  0.
         12    1    1    2    0    0 -0.22923015863E+02 -0.37880625560E+02 -0.82889673258E+01  0.45045681573E+02  0.00000000000E+00 0. -1.
         11    1    3    3    0    0  0.12476076702E+00  0.95143697598E+00  0.11100266286E+01  0.14672957935E+01  0.51100000000E-03 0. -1.
        -11    1    3    3    0    0  0.95689076535E+01  0.22716425736E+02  0.32255987147E+01  0.24859695880E+02  0.51100000000E-03 0.  1.
         12    1    3    3    0    0  0.13229347442E+02  0.14212762848E+02  0.39533419825E+01  0.19815326754E+02  0.00000000000E+00 0. -1.
</event>
<event>
 7    1  0.2243370E-008  0.4614232E+02  0.7816164E-02  0.1320468E+00
        -11   -1    0    0    0    0  0.00000000000E+00  0.00000000000E+00  0.45593999997E+02  0.45594000000E+02  0.51100000000E-03 0.  1.
         11   -1    0    0    0    0 -0.00000000000E+00 -0.00000000000E+00 -0.45593999997E+02  0.45594000000E+02  0.51100000000E-03 0. -1.
    9900012    2    1    2    0    0  0.33255573765E+01 -0.22573774130E+01  0.44866001880E+02  0.46142320858E+02  0.10000028239E+02 0.  0.
         12    1    1    2    0    0 -0.33255573765E+01  0.22573774130E+01 -0.44866001880E+02  0.45045679142E+02  0.00000000000E+00 0. -1.
         11    1    3    3    0    0  0.16139509932E+01  0.33667824171E+01  0.11560942594E+02  0.12148887009E+02  0.51100000000E-03 0. -1.
        -11    1    3    3    0    0  0.14433526321E+01 -0.10142804344E+01  0.15471196147E+02  0.15571446372E+02  0.51100000000E-03 0.  1.
        -12    1    3    3    0    0  0.26825375120E+00 -0.46098793957E+01  0.17833863139E+02  0.18421987477E+02  0.00000000000E+00 0.  1.
</event>
<event>
 7    1  0.2243370E-008  0.4614232E+02  0.7816164E-02  0.1320468E+00
        -11   -1    0    0    0    0  0.00000000000E+00  0.00000000000E+00  0.45593999997E+02  0.45594000000E+02  0.51100000000E-03 0.  1.
         11   -1    0    0    0    0 -0.00000000000E+00 -0.00000000000E+00 -0.45593999997E+02  0.45594000000E+02  0.51100000000E-03 0. -1.
    9900012    2    1    2    0    0  0.32351979304E+02  0.30750422821E+02 -0.60724356889E+01  0.46142317146E+02  0.99999943922E+01 0.  0.
         12    1    1    2    0    0 -0.32351979304E+02 -0.30750422821E+02  0.60724356889E+01  0.45045682854E+02  0.00000000000E+00 0. -1.
         11    1    3    3    0    0  0.32054580208E+01  0.79906586473E+01 -0.51235587681E+00  0.86248533638E+01  0.51100000000E-03 0. -1.
        -11    1    3    3    0    0  0.68814106738E+01  0.38370536593E+01 -0.14165890019E+01  0.80052181923E+01  0.51100000000E-03 0.  1.
         12    1    3    3    0    0  0.22265110610E+02  0.18922710514E+02 -0.41434908103E+01  0.29512245590E+02  0.00000000000E+00 0. -1.
</event>
<event>
 7    1  0.2243370E-008  0.4614232E+02  0.7816164E-02  0.1320468E+00
        -11   -1    0    0    0    0  0.00000000000E+00  0.00000000000E+00  0.45593999997E+02  0.45594000000E+02  0.51100000000E-03 0. -1.
         11   -1    0    0    0    0 -0.00000000000E+00 -0.00000000000E+00 -0.45593999997E+02  0.45594000000E+02  0.51100000000E-03 0.  1.
    9900012    2    1    2    0    0  0.74371548893E+01  0.34961919998E+02 -0.27412885071E+02  0.46142318845E+02  0.10000009886E+02 0.  0.
         12    1    1    2    0    0 -0.74371548893E+01 -0.34961919998E+02  0.27412885071E+02  0.45045681155E+02  0.00000000000E+00 0. -1.
         11    1    3    3    0    0  0.12140812370E+01  0.27309517910E+00 -0.18011762278E+00  0.12573849236E+01  0.51100000000E-03 0. -1.
        -11    1    3    3    0    0  0.59419757380E+01  0.17937348198E+02 -0.13517028315E+02  0.23232855846E+02  0.51100000000E-03 0.  1.
         12    1    3    3    0    0  0.28109791433E+00  0.16751476621E+02 -0.13715739133E+02  0.21652078075E+02  0.00000000000E+00 0. -1.
</event>
<event>
 7    1  0.2243370E-008  0.4614232E+02  0.7816164E-02  0.1320468E+00
        -11   -1    0    0    0    0  0.00000000000E+00  0.00000000000E+00  0.45593999997E+02  0.45594000000E+02  0.51100000000E-03 0.  1.
         11   -1    0    0    0    0 -0.00000000000E+00 -0.00000000000E+00 -0.45593999997E+02  0.45594000000E+02  0.51100000000E-03 0. -1.
    9900012    2    1    2    0    0  0.33848615802E+02  0.18669671817E+02  0.23126348234E+02  0.46142318519E+02  0.10000006910E+02 0.  0.
         12    1    1    2    0    0 -0.33848615802E+02 -0.18669671817E+02 -0.23126348234E+02  0.45045681481E+02  0.00000000000E+00 0. -1.
         11    1    3    3    0    0  0.55916812951E+00 -0.66769777491E+00  0.91904313226E+00  0.12661476437E+01  0.51100000000E-03 0. -1.
        -11    1    3    3    0    0 -0.10765755207E+00  0.75661262839E+00  0.61081964835E+00  0.97834233369E+00  0.51100000000E-03 0.  1.
        -12    1    3    3    0    0  0.33397105225E+02  0.18580756963E+02  0.21596485453E+02  0.43897828541E+02  0.00000000000E+00 0.  1.
</event>
<event>
 7    1  0.2243370E-008  0.4614232E+02  0.7816164E-02  0.1320468E+00
        -11   -1    0    0    0    0  0.00000000000E+00  0.00000000000E+00  0.45593999997E+02  0.45594000000E+02  0.51100000000E-03 0. -1.
         11   -1    0    0    0    0 -0.00000000000E+00 -0.00000000000E+00 -0.45593999997E+02  0.45594000000E+02  0.51100000000E-03 0.  1.
    9900012    2    1    2    0    0  0.23850282427E+02  0.30323155793E+02 -0.23254761020E+02  0.46142315865E+02  0.99999827071E+01 0.  0.
         12    1    1    2    0    0 -0.23850282427E+02 -0.30323155793E+02  0.23254761020E+02  0.45045684135E+02  0.00000000000E+00 0. -1.
         11    1    3    3    0    0  0.55295954578E+01  0.65511105028E+01 -0.35428060514E+01  0.92760417057E+01  0.51100000000E-03 0. -1.
        -11    1    3    3    0    0  0.68184544058E+01  0.13916111113E+02 -0.13285454228E+02  0.20412073959E+02  0.51100000000E-03 0.  1.
         12    1    3    3    0    0  0.11502232564E+02  0.98559341773E+01 -0.64265007402E+01  0.16454200200E+02  0.00000000000E+00 0. -1.
</event>
<event>
 7    1  0.2243370E-008  0.4614232E+02  0.7816164E-02  0.1320468E+00
        -11   -1    0    0    0    0  0.00000000000E+00  0.00000000000E+00  0.45593999997E+02  0.45594000000E+02  0.51100000000E-03 0. -1.
         11   -1    0    0    0    0 -0.00000000000E+00 -0.00000000000E+00 -0.45593999997E+02  0.45594000000E+02  0.51100000000E-03 0.  1.
    9900012    2    1    2    0    0  0.11972692761E+02  0.13555610254E+02  0.41255468627E+02  0.46142316156E+02  0.99999853640E+01 0.  0.
         12    1    1    2    0    0 -0.11972692761E+02 -0.13555610254E+02 -0.41255468627E+02  0.45045683844E+02  0.00000000000E+00 0. -1.
         11    1    3    3    0    0  0.10148624455E+01 -0.53581876754E+00  0.39255107190E+00  0.12129073089E+01  0.51100000000E-03 0. -1.
        -11    1    3    3    0    0  0.46463133814E+01  0.64433582141E+01  0.24908127160E+02  0.26144213356E+02  0.51100000000E-03 0.  1.
        -12    1    3    3    0    0  0.63115169337E+01  0.76480708078E+01  0.15954790395E+02  0.18785195491E+02  0.00000000000E+00 0.  1.
</event>
<event>
 7    1  0.2243370E-008  0.4614232E+02  0.7816164E-02  0.1320468E+00
        -11   -1    0    0    0    0  0.00000000000E+00  0.00000000000E+00  0.45593999997E+02  0.45594000000E+02  0.51100000000E-03 0.  1.
         11   -1    0    0    0    0 -0.00000000000E+00 -0.00000000000E+00 -0.45593999997E+02  0.45594000000E+02  0.51100000000E-03 0. -1.
    9900012    2    1    2    0    0 -0.93333205979E+01 -0.28798191127E+02  0.33356661348E+02  0.46142317167E+02  0.99999945855E+01 0.  0.
         12    1    1    2    0    0  0.93333205979E+01  0.28798191127E+02 -0.33356661348E+02  0.45045682833E+02  0.00000000000E+00 0. -1.
         11    1    3    3    0    0 -0.16965400854E+01 -0.86578605714E+01  0.92935174391E+01  0.12814299223E+02  0.51100000000E-03 0. -1.
        -11    1    3    3    0    0 -0.27372824692E+01 -0.15941330400E+02  0.19919807437E+02  0.25659646507E+02  0.51100000000E-03 0.  1.
         12    1    3    3    0    0 -0.48994980434E+01 -0.41990001559E+01  0.41433364711E+01  0.76683714372E+01  0.00000000000E+00 0. -1.
</event>
<event>
 7    1  0.2243370E-008  0.4614232E+02  0.7816164E-02  0.1320468E+00
        -11   -1    0    0    0    0  0.00000000000E+00  0.00000000000E+00  0.45593999997E+02  0.45594000000E+02  0.51100000000E-03 0.  1.
         11   -1    0    0    0    0 -0.00000000000E+00 -0.00000000000E+00 -0.45593999997E+02  0.45594000000E+02  0.51100000000E-03 0. -1.
    9900012    2    1    2    0    0  0.70194741188E+01  0.51815874701E+01  0.44192664985E+02  0.46142317586E+02  0.99999984049E+01 0.  0.
         12    1    1    2    0    0 -0.70194741188E+01 -0.51815874701E+01 -0.44192664985E+02  0.45045682414E+02  0.00000000000E+00 0. -1.
         11    1    3    3    0    0 -0.11909734309E+01  0.37965602523E+00  0.19815460692E+01  0.23428788906E+01  0.51100000000E-03 0. -1.
        -11    1    3    3    0    0  0.34335303583E+01  0.11503709911E+01  0.29684088781E+02  0.29904140368E+02  0.51100000000E-03 0.  1.
         12    1    3    3    0    0  0.47769171914E+01  0.36515604537E+01  0.12527030135E+02  0.13895298327E+02  0.00000000000E+00 0. -1.
</event>
<event>
 7    1  0.2243370E-008  0.4614232E+02  0.7816164E-02  0.1320468E+00
        -11   -1    0    0    0    0  0.00000000000E+00  0.00000000000E+00  0.45593999997E+02  0.45594000000E+02  0.51100000000E-03 0.  1.
         11   -1    0    0    0    0 -0.00000000000E+00 -0.00000000000E+00 -0.45593999997E+02  0.45594000000E+02  0.51100000000E-03 0. -1.
    9900012    2    1    2    0    0 -0.39846870827E+02  0.62171286039E+01  0.20067081409E+02  0.46142316976E+02  0.99999928451E+01 0.  0.
         12    1    1    2    0    0  0.39846870827E+02 -0.62171286039E+01 -0.20067081409E+02  0.45045683024E+02  0.00000000000E+00 0. -1.
         11    1    3    3    0    0 -0.15748788864E+02  0.41059179358E+01  0.38396067584E+01  0.16722006253E+02  0.51100000000E-03 0. -1.
        -11    1    3    3    0    0 -0.91222858722E+01 -0.18116163708E+00  0.40493022165E+01  0.99822726758E+01  0.51100000000E-03 0.  1.
        -12    1    3    3    0    0 -0.14975796091E+02  0.22923723052E+01  0.12178172434E+02  0.19438038048E+02  0.00000000000E+00 0.  1.
</event>
<event>
 7    1  0.2243370E-008  0.4614231E+02  0.7816164E-02  0.1320468E+00
        -11   -1    0    0    0    0  0.00000000000E+00  0.00000000000E+00  0.45593999997E+02  0.45594000000E+02  0.51100000000E-03 0.  1.
         11   -1    0    0    0    0 -0.00000000000E+00 -0.00000000000E+00 -0.45593999997E+02  0.45594000000E+02  0.51100000000E-03 0. -1.
    9900012    2    1    2    0    0 -0.32047929745E+02 -0.30038012391E+02  0.99880831928E+01  0.46142314355E+02  0.99999689446E+01 0.  0.
         12    1    1    2    0    0  0.32047929745E+02  0.30038012391E+02 -0.99880831928E+01  0.45045685645E+02  0.00000000000E+00 0. -1.
         11    1    3    3    0    0 -0.16121516006E+02 -0.15609165870E+02  0.98510971624E+01  0.24507008243E+02  0.51100000000E-03 0.  1.
        -11    1    3    3    0    0 -0.56948677072E+01 -0.42675809952E+01  0.10157767565E+01  0.71885720719E+01  0.51100000000E-03 0. -1.
        -12    1    3    3    0    0 -0.10231546032E+02 -0.10161265526E+02 -0.87879072614E+00  0.14446734040E+02  0.00000000000E+00 0.  1.
</event>
<event>
 7    1  0.2243370E-008  0.4614232E+02  0.7816164E-02  0.1320468E+00
        -11   -1    0    0    0    0  0.00000000000E+00  0.00000000000E+00  0.45593999997E+02  0.45594000000E+02  0.51100000000E-03 0. -1.
         11   -1    0    0    0    0 -0.00000000000E+00 -0.00000000000E+00 -0.45593999997E+02  0.45594000000E+02  0.51100000000E-03 0.  1.
    9900012    2    1    2    0    0 -0.28921414518E+02 -0.25869492176E+02 -0.22878693288E+02  0.46142318190E+02  0.10000003915E+02 0.  0.
         12    1    1    2    0    0  0.28921414518E+02  0.25869492176E+02  0.22878693288E+02  0.45045681810E+02  0.00000000000E+00 0. -1.
         11    1    3    3    0    0 -0.10947434931E+02 -0.46093256232E+01 -0.56067924959E+01  0.13135004249E+02  0.51100000000E-03 0. -1.
        -11    1    3    3    0    0 -0.37255033008E+00 -0.98561382668E-01  0.17018230747E+00  0.42127232700E+00  0.51100000000E-03 0.  1.
        -12    1    3    3    0    0 -0.17601429256E+02 -0.21161605170E+02 -0.17442083099E+02  0.32586041614E+02  0.00000000000E+00 0.  1.
</event>
<event>
 7    1  0.2243370E-008  0.4614232E+02  0.7816164E-02  0.1320468E+00
        -11   -1    0    0    0    0  0.00000000000E+00  0.00000000000E+00  0.45593999997E+02  0.45594000000E+02  0.51100000000E-03 0.  1.
         11   -1    0    0    0    0 -0.00000000000E+00 -0.00000000000E+00 -0.45593999997E+02  0.45594000000E+02  0.51100000000E-03 0. -1.
    9900012    2    1    2    0    0 -0.18125050265E+02  0.16981559103E+02  0.37579543696E+02  0.46142324280E+02  0.10000059441E+02 0.  0.
         12    1    1    2    0    0  0.18125050265E+02 -0.16981559103E+02 -0.37579543696E+02  0.45045675720E+02  0.00000000000E+00 0. -1.
         11    1    3    3    0    0 -0.61601044709E+01  0.29344311801E+01  0.72948493664E+01  0.99886235780E+01  0.51100000000E-03 0. -1.
        -11    1    3    3    0    0 -0.22252833303E+01  0.53535271075E+01  0.48283598402E+01  0.75448788856E+01  0.51100000000E-03 0.  1.
        -12    1    3    3    0    0 -0.97396624641E+01  0.86936008151E+01  0.25456334490E+02  0.28608821816E+02  0.00000000000E+00 0.  1.
</event>
<event>
 7    1  0.2243370E-008  0.4614232E+02  0.7816164E-02  0.1320468E+00
        -11   -1    0    0    0    0  0.00000000000E+00  0.00000000000E+00  0.45593999997E+02  0.45594000000E+02  0.51100000000E-03 0.  1.
         11   -1    0    0    0    0 -0.00000000000E+00 -0.00000000000E+00 -0.45593999997E+02  0.45594000000E+02  0.51100000000E-03 0. -1.
    9900012    2    1    2    0    0 -0.37133852281E+02 -0.22969807034E+02  0.11071512110E+02  0.46142318733E+02  0.10000008866E+02 0.  0.
         12    1    1    2    0    0  0.37133852281E+02  0.22969807034E+02 -0.11071512110E+02  0.45045681267E+02  0.00000000000E+00 0. -1.
         11    1    3    3    0    0 -0.75960466599E+01 -0.89779040659E+01  0.89890007347E+00  0.11794520248E+02  0.51100000000E-03 0.  1.
        -11    1    3    3    0    0 -0.67015181728E+01 -0.20062675499E+01  0.16715001008E+01  0.71923131293E+01  0.51100000000E-03 0. -1.
        -12    1    3    3    0    0 -0.22836287448E+02 -0.11985635418E+02  0.85011119360E+01  0.27155485356E+02  0.00000000000E+00 0.  1.
</event>
<event>
 7    1  0.2243370E-008  0.4614232E+02  0.7816164E-02  0.1320468E+00
        -11   -1    0    0    0    0  0.00000000000E+00  0.00000000000E+00  0.45593999997E+02  0.45594000000E+02  0.51100000000E-03 0. -1.
         11   -1    0    0    0    0 -0.00000000000E+00 -0.00000000000E+00 -0.45593999997E+02  0.45594000000E+02  0.51100000000E-03 0.  1.
    9900012    2    1    2    0    0 -0.41242162444E+02 -0.52470105978E+01  0.17339735011E+02  0.46142317704E+02  0.99999994776E+01 0.  0.
         12    1    1    2    0    0  0.41242162444E+02  0.52470105978E+01 -0.17339735011E+02  0.45045682296E+02  0.00000000000E+00 0. -1.
         11    1    3    3    0    0 -0.13873424425E+02  0.22234269703E+00  0.10089521630E+02  0.17155750889E+02  0.51100000000E-03 0. -1.
        -11    1    3    3    0    0 -0.13951300235E+02 -0.35712089907E+01  0.50333812716E+01  0.15255400329E+02  0.51100000000E-03 0.  1.
         12    1    3    3    0    0 -0.13417437784E+02 -0.18981443042E+01  0.22168321087E+01  0.13731166487E+02  0.00000000000E+00 0. -1.
</event>
<event>
 7    1  0.2243370E-008  0.4614232E+02  0.7816164E-02  0.1320468E+00
        -11   -1    0    0    0    0  0.00000000000E+00  0.00000000000E+00  0.45593999997E+02  0.45594000000E+02  0.51100000000E-03 0. -1.
         11   -1    0    0    0    0 -0.00000000000E+00 -0.00000000000E+00 -0.45593999997E+02  0.45594000000E+02  0.51100000000E-03 0.  1.
    9900012    2    1    2    0    0  0.14529914983E+02  0.42376819295E+02 -0.47117061312E+01  0.46142318546E+02  0.10000007157E+02 0.  0.
         12    1    1    2    0    0 -0.14529914983E+02 -0.42376819295E+02  0.47117061312E+01  0.45045681454E+02  0.00000000000E+00 0. -1.
         11    1    3    3    0    0  0.11307759987E+02  0.19665107991E+02 -0.13046478105E+01  0.22721884041E+02  0.51100000000E-03 0. -1.
        -11    1    3    3    0    0 -0.29437639250E+00  0.14111965517E+01 -0.86819326316E+00  0.16828229174E+01  0.51100000000E-03 0.  1.
         12    1    3    3    0    0  0.35165313881E+01  0.21300514753E+02 -0.25388650575E+01  0.21737611587E+02  0.00000000000E+00 0. -1.
</event>
<event>
 7    1  0.2243370E-008  0.4614232E+02  0.7816164E-02  0.1320468E+00
        -11   -1    0    0    0    0  0.00000000000E+00  0.00000000000E+00  0.45593999997E+02  0.45594000000E+02  0.51100000000E-03 0.  1.
         11   -1    0    0    0    0 -0.00000000000E+00 -0.00000000000E+00 -0.45593999997E+02  0.45594000000E+02  0.51100000000E-03 0. -1.
    9900012    2    1    2    0    0 -0.51942212567E+01  0.22475819350E+02  0.38690710793E+02  0.46142317725E+02  0.99999996724E+01 0.  0.
         12    1    1    2    0    0  0.51942212567E+01 -0.22475819350E+02 -0.38690710793E+02  0.45045682275E+02  0.00000000000E+00 0. -1.
         11    1    3    3    0    0 -0.22805839382E-01  0.36167543744E+01  0.12042906731E+02  0.12574300581E+02  0.51100000000E-03 0. -1.
        -11    1    3    3    0    0  0.51401034349E+00  0.13481926859E+01  0.47228896663E+01  0.49383719193E+01  0.51100000000E-03 0.  1.
         12    1    3    3    0    0 -0.56854257608E+01  0.17510872290E+02  0.21924914396E+02  0.28629645225E+02  0.00000000000E+00 0. -1.
</event>
<event>
 7    1  0.2243370E-008  0.4614232E+02  0.7816164E-02  0.1320468E+00
        -11   -1    0    0    0    0  0.00000000000E+00  0.00000000000E+00  0.45593999997E+02  0.45594000000E+02  0.51100000000E-03 0. -1.
         11   -1    0    0    0    0 -0.00000000000E+00 -0.00000000000E+00 -0.45593999997E+02  0.45594000000E+02  0.51100000000E-03 0.  1.
    9900012    2    1    2    0    0 -0.38563410405E+02  0.16048542305E+02 -0.16864790244E+02  0.46142317831E+02  0.10000000633E+02 0.  0.
         12    1    1    2    0    0  0.38563410405E+02 -0.16048542305E+02  0.16864790244E+02  0.45045682169E+02  0.00000000000E+00 0. -1.
         11    1    3    3    0    0 -0.25750394946E+00 -0.21255349039E+00  0.56159889301E-01  0.33858745481E+00  0.51100000000E-03 0. -1.
        -11    1    3    3    0    0 -0.32255968903E+02  0.16784038971E+02 -0.13207384658E+02  0.38685740316E+02  0.51100000000E-03 0.  1.
         12    1    3    3    0    0 -0.60499375519E+01 -0.52294317549E+00 -0.37135654751E+01  0.71179900593E+01  0.00000000000E+00 0. -1.
</event>
<event>
 7    1  0.2243370E-008  0.4614232E+02  0.7816164E-02  0.1320468E+00
        -11   -1    0    0    0    0  0.00000000000E+00  0.00000000000E+00  0.45593999997E+02  0.45594000000E+02  0.51100000000E-03 0. -1.
         11   -1    0    0    0    0 -0.00000000000E+00 -0.00000000000E+00 -0.45593999997E+02  0.45594000000E+02  0.51100000000E-03 0.  1.
    9900012    2    1    2    0    0 -0.35157805473E+02  0.22290986912E+02 -0.17209128038E+02  0.46142317954E+02  0.10000001759E+02 0.  0.
         12    1    1    2    0    0  0.35157805473E+02 -0.22290986912E+02  0.17209128038E+02  0.45045682046E+02  0.00000000000E+00 0. -1.
         11    1    3    3    0    0 -0.27217371514E+01  0.35671076409E+01 -0.20958970823E+01  0.49522615928E+01  0.51100000000E-03 0. -1.
        -11    1    3    3    0    0 -0.31986336724E+02  0.19469455991E+02 -0.14730827306E+02  0.40239069659E+02  0.51100000000E-03 0.  1.
        -12    1    3    3    0    0 -0.44973159736E+00 -0.74557672088E+00 -0.38240364947E+00  0.95098670207E+00  0.00000000000E+00 0.  1.
</event>
<event>
 7    1  0.2243370E-008  0.4614231E+02  0.7816164E-02  0.1320468E+00
        -11   -1    0    0    0    0  0.00000000000E+00  0.00000000000E+00  0.45593999997E+02  0.45594000000E+02  0.51100000000E-03 0. -1.
         11   -1    0    0    0    0 -0.00000000000E+00 -0.00000000000E+00 -0.45593999997E+02  0.45594000000E+02  0.51100000000E-03 0.  1.
    9900012    2    1    2    0    0 -0.40016404214E+02  0.16135152569E+02  0.12940558695E+02  0.46142314147E+02  0.99999670406E+01 0.  0.
         12    1    1    2    0    0  0.40016404214E+02 -0.16135152569E+02 -0.12940558695E+02  0.45045685853E+02  0.00000000000E+00 0. -1.
         11    1    3    3    0    0 -0.24114178458E+02  0.94752774741E+01  0.66490918457E+01  0.26748549654E+02  0.51100000000E-03 0. -1.
        -11    1    3    3    0    0 -0.13425173354E+02  0.77818880322E+01  0.45743956435E+01  0.16177705545E+02  0.51100000000E-03 0.  1.
         12    1    3    3    0    0 -0.24770524018E+01 -0.11220129376E+01  0.17170712053E+01  0.32160589481E+01  0.00000000000E+00 0. -1.
</event>
<event>
 7    1  0.2243370E-008  0.4614232E+02  0.7816164E-02  0.1320468E+00
        -11   -1    0    0    0    0  0.00000000000E+00  0.00000000000E+00  0.45593999997E+02  0.45594000000E+02  0.51100000000E-03 0.  1.
         11   -1    0    0    0    0 -0.00000000000E+00 -0.00000000000E+00 -0.45593999997E+02  0.45594000000E+02  0.51100000000E-03 0. -1.
    9900012    2    1    2    0    0  0.27190020929E+02 -0.10362845244E+02  0.34386446755E+02  0.46142317409E+02  0.99999967877E+01 0.  0.
         12    1    1    2    0    0 -0.27190020929E+02  0.10362845244E+02 -0.34386446755E+02  0.45045682591E+02  0.00000000000E+00 0. -1.
         11    1    3    3    0    0  0.33190526777E+01  0.21350212629E+00  0.45538730776E+01  0.56391004693E+01  0.51100000000E-03 0. -1.
        -11    1    3    3    0    0  0.47399393590E+01 -0.61359970500E+01  0.86988195445E+01  0.11652765623E+02  0.51100000000E-03 0.  1.
        -12    1    3    3    0    0  0.19131028892E+02 -0.44403503207E+01  0.21133754133E+02  0.28850451317E+02  0.00000000000E+00 0.  1.
</event>
<event>
 7    1  0.2243370E-008  0.4614232E+02  0.7816164E-02  0.1320468E+00
        -11   -1    0    0    0    0  0.00000000000E+00  0.00000000000E+00  0.45593999997E+02  0.45594000000E+02  0.51100000000E-03 0.  1.
         11   -1    0    0    0    0 -0.00000000000E+00 -0.00000000000E+00 -0.45593999997E+02  0.45594000000E+02  0.51100000000E-03 0. -1.
    9900012    2    1    2    0    0 -0.74067613815E+01 -0.41287400714E+02  0.16419620909E+02  0.46142317380E+02  0.99999965244E+01 0.  0.
         12    1    1    2    0    0  0.74067613815E+01  0.41287400714E+02 -0.16419620909E+02  0.45045682620E+02  0.00000000000E+00 0. -1.
         11    1    3    3    0    0 -0.30233340441E+01 -0.54625496960E+01  0.53582032004E+00  0.62663467507E+01  0.51100000000E-03 0. -1.
        -11    1    3    3    0    0 -0.44389007414E+01 -0.19854394633E+02  0.65251522841E+01  0.21365356038E+02  0.51100000000E-03 0.  1.
         12    1    3    3    0    0  0.55473404028E-01 -0.15970456385E+02  0.93586483048E+01  0.18510614591E+02  0.00000000000E+00 0. -1.
</event>
<event>
 7    1  0.2243370E-008  0.4614232E+02  0.7816164E-02  0.1320468E+00
        -11   -1    0    0    0    0  0.00000000000E+00  0.00000000000E+00  0.45593999997E+02  0.45594000000E+02  0.51100000000E-03 0.  1.
         11   -1    0    0    0    0 -0.00000000000E+00 -0.00000000000E+00 -0.45593999997E+02  0.45594000000E+02  0.51100000000E-03 0. -1.
    9900012    2    1    2    0    0 -0.16104737325E+02 -0.68933504997E+00  0.42062759387E+02  0.46142317917E+02  0.10000001419E+02 0.  0.
         12    1    1    2    0    0  0.16104737325E+02  0.68933504997E+00 -0.42062759387E+02  0.45045682083E+02  0.00000000000E+00 0. -1.
         11    1    3    3    0    0 -0.80823511911E+01 -0.45357603932E+01  0.23776521567E+02  0.25519022341E+02  0.51100000000E-03 0. -1.
        -11    1    3    3    0    0 -0.52144509177E+01  0.10628592736E+01  0.80501296794E+01  0.96501169073E+01  0.51100000000E-03 0.  1.
         12    1    3    3    0    0 -0.28079352158E+01  0.27835660697E+01  0.10236108140E+02  0.10973178669E+02  0.00000000000E+00 0. -1.
</event>
<event>
 7    1  0.2243370E-008  0.4614231E+02  0.7816164E-02  0.1320468E+00
        -11   -1    0    0    0    0  0.00000000000E+00  0.00000000000E+00  0.45593999997E+02  0.45594000000E+02  0.51100000000E-03 0. -1.
         11   -1    0    0    0    0 -0.00000000000E+00 -0.00000000000E+00 -0.45593999997E+02  0.45594000000E+02  0.51100000000E-03 0.  1.
    9900012    2    1    2    0    0  0.20838034662E+02  0.37527171009E+02  0.13660228732E+02  0.46142310955E+02  0.99999379360E+01 0.  0.
         12    1    1    2    0    0 -0.20838034662E+02 -0.37527171009E+02 -0.13660228732E+02  0.45045689045E+02  0.00000000000E+00 0. -1.
         11    1    3    3    0    0  0.65345058067E+01  0.11816403550E+02  0.65844045018E+01  0.15022700886E+02  0.51100000000E-03 0. -1.
        -11    1    3    3    0    0  0.12954042745E+02  0.18945206925E+02  0.76624155873E+01  0.24195881918E+02  0.51100000000E-03 0.  1.
        -12    1    3    3    0    0  0.13494861102E+01  0.67655605333E+01 -0.58659135690E+00  0.69237281512E+01  0.00000000000E+00 0.  1.
</event>
<event>
 7    1  0.2243370E-008  0.4614232E+02  0.7816164E-02  0.1320468E+00
        -11   -1    0    0    0    0  0.00000000000E+00  0.00000000000E+00  0.45593999997E+02  0.45594000000E+02  0.51100000000E-03 0.  1.
         11   -1    0    0    0    0 -0.00000000000E+00 -0.00000000000E+00 -0.45593999997E+02  0.45594000000E+02  0.51100000000E-03 0. -1.
    9900012    2    1    2    0    0  0.20260362574E+02  0.18783518308E+02  0.35578232439E+02  0.46142317908E+02  0.10000001339E+02 0.  0.
         12    1    1    2    0    0 -0.20260362574E+02 -0.18783518308E+02 -0.35578232439E+02  0.45045682092E+02  0.00000000000E+00 0. -1.
         11    1    3    3    0    0  0.49358210845E+01  0.96865430307E+01  0.13302371762E+02  0.17179771256E+02  0.51100000000E-03 0. -1.
        -11    1    3    3    0    0  0.52234550894E+01  0.57974356143E+01  0.10776105258E+02  0.13304855789E+02  0.51100000000E-03 0.  1.
         12    1    3    3    0    0  0.10101086400E+02  0.32995396629E+01  0.11499755419E+02  0.15657690862E+02  0.00000000000E+00 0. -1.
</event>
<event>
 7    1  0.2243370E-008  0.4614231E+02  0.7816164E-02  0.1320468E+00
        -11   -1    0    0    0    0  0.00000000000E+00  0.00000000000E+00  0.45593999997E+02  0.45594000000E+02  0.51100000000E-03 0.  1.
         11   -1    0    0    0    0 -0.00000000000E+00 -0.00000000000E+00 -0.45593999997E+02  0.45594000000E+02  0.51100000000E-03 0. -1.
    9900012    2    1    2    0    0  0.37273057106E+01 -0.21533083751E+02  0.39389687538E+02  0.46142312215E+02  0.99999494271E+01 0.  0.
         12    1    1    2    0    0 -0.37273057106E+01  0.21533083751E+02 -0.39389687538E+02  0.45045687785E+02  0.00000000000E+00 0. -1.
         11    1    3    3    0    0  0.14338144171E+01 -0.15466701576E+01  0.60366941168E+01  0.63945045531E+01  0.51100000000E-03 0. -1.
        -11    1    3    3    0    0  0.39954507842E+01 -0.11311693026E+02  0.13775437801E+02  0.18266929489E+02  0.51100000000E-03 0.  1.
        -12    1    3    3    0    0 -0.17019594907E+01 -0.86747205674E+01  0.19577555620E+02  0.21480878173E+02  0.00000000000E+00 0.  1.
</event>
<event>
 7    1  0.2243370E-008  0.4614232E+02  0.7816164E-02  0.1320468E+00
        -11   -1    0    0    0    0  0.00000000000E+00  0.00000000000E+00  0.45593999997E+02  0.45594000000E+02  0.51100000000E-03 0. -1.
         11   -1    0    0    0    0 -0.00000000000E+00 -0.00000000000E+00 -0.45593999997E+02  0.45594000000E+02  0.51100000000E-03 0.  1.
    9900012    2    1    2    0    0 -0.25020289531E+02 -0.27183006500E+02 -0.25771742692E+02  0.46142318165E+02  0.10000003684E+02 0.  0.
         12    1    1    2    0    0  0.25020289531E+02  0.27183006500E+02  0.25771742692E+02  0.45045681835E+02  0.00000000000E+00 0. -1.
         11    1    3    3    0    0 -0.88113820672E+01 -0.11684629069E+02 -0.11154092151E+02  0.18400673422E+02  0.51100000000E-03 0. -1.
        -11    1    3    3    0    0 -0.14006472471E+02 -0.88354873068E+01 -0.10221879214E+02  0.19461087379E+02  0.51100000000E-03 0.  1.
         12    1    3    3    0    0 -0.22024349925E+01 -0.66628901248E+01 -0.43957713267E+01  0.82805573646E+01  0.00000000000E+00 0. -1.
</event>
<event>
 7    1  0.2243370E-008  0.4614232E+02  0.7816164E-02  0.1320468E+00
        -11   -1    0    0    0    0  0.00000000000E+00  0.00000000000E+00  0.45593999997E+02  0.45594000000E+02  0.51100000000E-03 0.  1.
         11   -1    0    0    0    0 -0.00000000000E+00 -0.00000000000E+00 -0.45593999997E+02  0.45594000000E+02  0.51100000000E-03 0. -1.
    9900012    2    1    2    0    0  0.21897517789E+02 -0.10767271227E+02  0.37863938863E+02  0.46142320061E+02  0.10000020971E+02 0.  0.
         12    1    1    2    0    0 -0.21897517789E+02  0.10767271227E+02 -0.37863938863E+02  0.45045679939E+02  0.00000000000E+00 0. -1.
         11    1    3    3    0    0  0.54239892465E+01 -0.25466027184E+01  0.16287397179E+02  0.17354657931E+02  0.51100000000E-03 0. -1.
        -11    1    3    3    0    0  0.96091319918E+01 -0.72687976641E+01  0.14931720078E+02  0.19186638629E+02  0.51100000000E-03 0.  1.
         12    1    3    3    0    0  0.68643965509E+01 -0.95187084418E+00  0.66448216050E+01  0.96010235014E+01  0.00000000000E+00 0. -1.
</event>
<event>
 7    1  0.2243370E-008  0.4614232E+02  0.7816164E-02  0.1320468E+00
        -11   -1    0    0    0    0  0.00000000000E+00  0.00000000000E+00  0.45593999997E+02  0.45594000000E+02  0.51100000000E-03 0. -1.
         11   -1    0    0    0    0 -0.00000000000E+00 -0.00000000000E+00 -0.45593999997E+02  0.45594000000E+02  0.51100000000E-03 0.  1.
    9900012    2    1    2    0    0  0.17043005374E+02 -0.37690238208E+02 -0.17835231227E+02  0.46142316951E+02  0.99999926169E+01 0.  0.
         12    1    1    2    0    0 -0.17043005374E+02  0.37690238208E+02  0.17835231227E+02  0.45045683049E+02  0.00000000000E+00 0. -1.
         11    1    3    3    0    0  0.52165296045E+01 -0.10473823538E+02 -0.49903677284E+01  0.12720728397E+02  0.51100000000E-03 0. -1.
        -11    1    3    3    0    0  0.87965922769E+01 -0.25795414191E+02 -0.12710725029E+02  0.30072345436E+02  0.51100000000E-03 0.  1.
         12    1    3    3    0    0  0.30298834925E+01 -0.14210004792E+01 -0.13413846963E+00  0.33492431189E+01  0.00000000000E+00 0. -1.
</event>
<event>
 7    1  0.2243370E-008  0.4614232E+02  0.7816164E-02  0.1320468E+00
        -11   -1    0    0    0    0  0.00000000000E+00  0.00000000000E+00  0.45593999997E+02  0.45594000000E+02  0.51100000000E-03 0. -1.
         11   -1    0    0    0    0 -0.00000000000E+00 -0.00000000000E+00 -0.45593999997E+02  0.45594000000E+02  0.51100000000E-03 0.  1.
    9900012    2    1    2    0    0  0.44259436420E+02 -0.80315699613E+01 -0.23894902491E+01  0.46142317722E+02  0.99999996449E+01 0.  0.
         12    1    1    2    0    0 -0.44259436420E+02  0.80315699613E+01  0.23894902491E+01  0.45045682278E+02  0.00000000000E+00 0. -1.
         11    1    3    3    0    0  0.82889116768E+01  0.16361871375E+01  0.10811338315E+01  0.85177471058E+01  0.51100000000E-03 0.  1.
        -11    1    3    3    0    0  0.19729272757E+01 -0.13099697215E+01 -0.85242832670E+00  0.25169618630E+01  0.51100000000E-03 0. -1.
         12    1    3    3    0    0  0.33997597467E+02 -0.83577873773E+01 -0.26181957539E+01  0.35107608753E+02  0.00000000000E+00 0. -1.
</event>
<event>
 7    1  0.2243370E-008  0.4614232E+02  0.7816164E-02  0.1320468E+00
        -11   -1    0    0    0    0  0.00000000000E+00  0.00000000000E+00  0.45593999997E+02  0.45594000000E+02  0.51100000000E-03 0. -1.
         11   -1    0    0    0    0 -0.00000000000E+00 -0.00000000000E+00 -0.45593999997E+02  0.45594000000E+02  0.51100000000E-03 0.  1.
    9900012    2    1    2    0    0 -0.21856139073E+02  0.36398396692E+02 -0.15052555960E+02  0.46142317212E+02  0.99999949933E+01 0.  0.
         12    1    1    2    0    0  0.21856139073E+02 -0.36398396692E+02  0.15052555960E+02  0.45045682788E+02  0.00000000000E+00 0. -1.
         11    1    3    3    0    0 -0.29783682952E+01  0.35090895994E+01  0.41564539324E+00  0.46213795421E+01  0.51100000000E-03 0. -1.
        -11    1    3    3    0    0 -0.11720880139E+02  0.25665368699E+02 -0.12949281799E+02  0.31044711000E+02  0.51100000000E-03 0.  1.
        -12    1    3    3    0    0 -0.71568906382E+01  0.72239383927E+01 -0.25189195545E+01  0.10476226670E+02  0.00000000000E+00 0.  1.
</event>
<event>
 7    1  0.2243370E-008  0.4614232E+02  0.7816164E-02  0.1320468E+00
        -11   -1    0    0    0    0  0.00000000000E+00  0.00000000000E+00  0.45593999997E+02  0.45594000000E+02  0.51100000000E-03 0.  1.
         11   -1    0    0    0    0 -0.00000000000E+00 -0.00000000000E+00 -0.45593999997E+02  0.45594000000E+02  0.51100000000E-03 0. -1.
    9900012    2    1    2    0    0  0.28023448388E+02 -0.24861486563E+02  0.25014125618E+02  0.46142315922E+02  0.99999832272E+01 0.  0.
         12    1    1    2    0    0 -0.28023448388E+02  0.24861486563E+02 -0.25014125618E+02  0.45045684078E+02  0.00000000000E+00 0. -1.
         11    1    3    3    0    0  0.41355983997E+01 -0.68207283322E+01  0.51089213602E+01  0.94724118803E+01  0.51100000000E-03 0.  1.
        -11    1    3    3    0    0  0.20077501508E+02 -0.13700754510E+02  0.12664832322E+02  0.27408296535E+02  0.51100000000E-03 0. -1.
         12    1    3    3    0    0  0.38103484800E+01 -0.43400037208E+01  0.72403719357E+01  0.92616075063E+01  0.00000000000E+00 0. -1.
</event>
<event>
 7    1  0.2243370E-008  0.4614232E+02  0.7816164E-02  0.1320468E+00
        -11   -1    0    0    0    0  0.00000000000E+00  0.00000000000E+00  0.45593999997E+02  0.45594000000E+02  0.51100000000E-03 0.  1.
         11   -1    0    0    0    0 -0.00000000000E+00 -0.00000000000E+00 -0.45593999997E+02  0.45594000000E+02  0.51100000000E-03 0. -1.
    9900012    2    1    2    0    0 -0.17829556915E+02  0.29897098927E+02  0.28589917146E+02  0.46142323332E+02  0.10000050801E+02 0.  0.
         12    1    1    2    0    0  0.17829556915E+02 -0.29897098927E+02 -0.28589917146E+02  0.45045676668E+02  0.00000000000E+00 0. -1.
         11    1    3    3    0    0 -0.14923500780E+01  0.64920106971E+01  0.22441009486E+01  0.70291749854E+01  0.51100000000E-03 0. -1.
        -11    1    3    3    0    0 -0.92579276854E+01  0.14893120610E+02  0.13340484017E+02  0.22033673788E+02  0.51100000000E-03 0.  1.
        -12    1    3    3    0    0 -0.70792791519E+01  0.85119676195E+01  0.13005332181E+02  0.17079474559E+02  0.00000000000E+00 0.  1.
</event>
<event>
 7    1  0.2243370E-008  0.4614232E+02  0.7816164E-02  0.1320468E+00
        -11   -1    0    0    0    0  0.00000000000E+00  0.00000000000E+00  0.45593999997E+02  0.45594000000E+02  0.51100000000E-03 0.  1.
         11   -1    0    0    0    0 -0.00000000000E+00 -0.00000000000E+00 -0.45593999997E+02  0.45594000000E+02  0.51100000000E-03 0. -1.
    9900012    2    1    2    0    0  0.40283550028E+02 -0.17572946271E+02 -0.98762452366E+01  0.46142322477E+02  0.10000043005E+02 0.  0.
         12    1    1    2    0    0 -0.40283550028E+02  0.17572946271E+02  0.98762452366E+01  0.45045677523E+02  0.00000000000E+00 0. -1.
         11    1    3    3    0    0  0.59691313093E+01 -0.25098737115E+01 -0.29325981558E+01  0.71084546028E+01  0.51100000000E-03 0. -1.
        -11    1    3    3    0    0  0.67142158518E+01 -0.68011080443E+01 -0.92484664010E+00  0.96016200041E+01  0.51100000000E-03 0.  1.
         12    1    3    3    0    0  0.27600202867E+02 -0.82619645155E+01 -0.60188004406E+01  0.29432247870E+02  0.00000000000E+00 0. -1.
</event>
<event>
 7    1  0.2243370E-008  0.4614232E+02  0.7816164E-02  0.1320468E+00
        -11   -1    0    0    0    0  0.00000000000E+00  0.00000000000E+00  0.45593999997E+02  0.45594000000E+02  0.51100000000E-03 0.  1.
         11   -1    0    0    0    0 -0.00000000000E+00 -0.00000000000E+00 -0.45593999997E+02  0.45594000000E+02  0.51100000000E-03 0. -1.
    9900012    2    1    2    0    0 -0.30024252743E+02 -0.12198224738E+02  0.31286757290E+02  0.46142316287E+02  0.99999865550E+01 0.  0.
         12    1    1    2    0    0  0.30024252743E+02  0.12198224738E+02 -0.31286757290E+02  0.45045683713E+02  0.00000000000E+00 0. -1.
         11    1    3    3    0    0 -0.10210562661E+01 -0.13090043979E-01  0.35997400872E+01  0.37417718002E+01  0.51100000000E-03 0. -1.
        -11    1    3    3    0    0 -0.52904535776E+01  0.26300553379E+00  0.38632182980E+01  0.65561060734E+01  0.51100000000E-03 0.  1.
        -12    1    3    3    0    0 -0.23712742899E+02 -0.12448140227E+02  0.23823798904E+02  0.35844438413E+02  0.00000000000E+00 0.  1.
</event>
<event>
 7    1  0.2243370E-008  0.4614232E+02  0.7816164E-02  0.1320468E+00
        -11   -1    0    0    0    0  0.00000000000E+00  0.00000000000E+00  0.45593999997E+02  0.45594000000E+02  0.51100000000E-03 0.  1.
         11   -1    0    0    0    0 -0.00000000000E+00 -0.00000000000E+00 -0.45593999997E+02  0.45594000000E+02  0.51100000000E-03 0. -1.
    9900012    2    1    2    0    0 -0.29986461216E+02  0.23004332346E+02  0.24509717036E+02  0.46142318829E+02  0.10000009739E+02 0.  0.
         12    1    1    2    0    0  0.29986461216E+02 -0.23004332346E+02 -0.24509717036E+02  0.45045681171E+02  0.00000000000E+00 0. -1.
         11    1    3    3    0    0 -0.13019737745E+01  0.57751040171E+00  0.99121683340E-02  0.14243428259E+01  0.51100000000E-03 0. -1.
        -11    1    3    3    0    0 -0.12422585731E+02  0.12407288325E+02  0.73003696911E+01  0.19014647977E+02  0.51100000000E-03 0.  1.
        -12    1    3    3    0    0 -0.16261901711E+02  0.10019533620E+02  0.17199435176E+02  0.25703328026E+02  0.00000000000E+00 0.  1.
</event>
<event>
 7    1  0.2243370E-008  0.4614232E+02  0.7816164E-02  0.1320468E+00
        -11   -1    0    0    0    0  0.00000000000E+00  0.00000000000E+00  0.45593999997E+02  0.45594000000E+02  0.51100000000E-03 0.  1.
         11   -1    0    0    0    0 -0.00000000000E+00 -0.00000000000E+00 -0.45593999997E+02  0.45594000000E+02  0.51100000000E-03 0. -1.
    9900012    2    1    2    0    0  0.42144048045E+01  0.44722218864E+02 -0.33578842230E+01  0.46142318138E+02  0.10000003436E+02 0.  0.
         12    1    1    2    0    0 -0.42144048045E+01 -0.44722218864E+02  0.33578842230E+01  0.45045681862E+02  0.00000000000E+00 0. -1.
         11    1    3    3    0    0 -0.42406138174E+00  0.34354824795E+01 -0.18646142839E+01  0.39318131455E+01  0.51100000000E-03 0. -1.
        -11    1    3    3    0    0 -0.86589670347E+00  0.22242733609E+02  0.66735626647E+00  0.22269583295E+02  0.51100000000E-03 0.  1.
        -12    1    3    3    0    0  0.55043628897E+01  0.19044002775E+02 -0.21606262056E+01  0.19940921697E+02  0.00000000000E+00 0.  1.
</event>
<event>
 7    1  0.2243370E-008  0.4614232E+02  0.7816164E-02  0.1320468E+00
        -11   -1    0    0    0    0  0.00000000000E+00  0.00000000000E+00  0.45593999997E+02  0.45594000000E+02  0.51100000000E-03 0.  1.
         11   -1    0    0    0    0 -0.00000000000E+00 -0.00000000000E+00 -0.45593999997E+02  0.45594000000E+02  0.51100000000E-03 0. -1.
    9900012    2    1    2    0    0 -0.35114226958E+02 -0.21830163162E+02  0.17875918720E+02  0.46142318424E+02  0.10000006047E+02 0.  0.
         12    1    1    2    0    0  0.35114226958E+02  0.21830163162E+02 -0.17875918720E+02  0.45045681576E+02  0.00000000000E+00 0. -1.
         11    1    3    3    0    0 -0.23008637935E+02 -0.15775865674E+02  0.80322392888E+01  0.29030883997E+02  0.51100000000E-03 0. -1.
        -11    1    3    3    0    0 -0.99581644896E+01 -0.56114007433E+01  0.66084487425E+01  0.13203198603E+02  0.51100000000E-03 0.  1.
         12    1    3    3    0    0 -0.21474245329E+01 -0.44289674542E+00  0.32352306884E+01  0.39082358244E+01  0.00000000000E+00 0. -1.
</event>
<event>
 7    1  0.2243370E-008  0.4614232E+02  0.7816164E-02  0.1320468E+00
        -11   -1    0    0    0    0  0.00000000000E+00  0.00000000000E+00  0.45593999997E+02  0.45594000000E+02  0.51100000000E-03 0. -1.
         11   -1    0    0    0    0 -0.00000000000E+00 -0.00000000000E+00 -0.45593999997E+02  0.45594000000E+02  0.51100000000E-03 0.  1.
    9900012    2    1    2    0    0 -0.10642109519E+02  0.43258223962E+02 -0.66772042347E+01  0.46142317723E+02  0.99999996563E+01 0.  0.
         12    1    1    2    0    0  0.10642109519E+02 -0.43258223962E+02  0.66772042347E+01  0.45045682277E+02  0.00000000000E+00 0. -1.
         11    1    3    3    0    0 -0.32839382420E+01  0.62663953301E+01 -0.98396281501E+00  0.71428386439E+01  0.51100000000E-03 0. -1.
        -11    1    3    3    0    0 -0.58390951835E+01  0.21077647938E+02  0.44238327809E+00  0.21875968056E+02  0.51100000000E-03 0.  1.
        -12    1    3    3    0    0 -0.15190760932E+01  0.15914180694E+02 -0.61356246978E+01  0.17123511023E+02  0.00000000000E+00 0.  1.
</event>
<event>
 7    1  0.2243370E-008  0.4614232E+02  0.7816164E-02  0.1320468E+00
        -11   -1    0    0    0    0  0.00000000000E+00  0.00000000000E+00  0.45593999997E+02  0.45594000000E+02  0.51100000000E-03 0. -1.
         11   -1    0    0    0    0 -0.00000000000E+00 -0.00000000000E+00 -0.45593999997E+02  0.45594000000E+02  0.51100000000E-03 0.  1.
    9900012    2    1    2    0    0  0.33567593156E+01  0.24441645406E+02 -0.37688879695E+02  0.46142317455E+02  0.99999972112E+01 0.  0.
         12    1    1    2    0    0 -0.33567593156E+01 -0.24441645406E+02  0.37688879695E+02  0.45045682545E+02  0.00000000000E+00 0. -1.
         11    1    3    3    0    0  0.30091580537E+01  0.13895338869E+02 -0.17787414505E+02  0.22771200880E+02  0.51100000000E-03 0. -1.
        -11    1    3    3    0    0 -0.17894444303E+01  0.98399403119E+01 -0.16366075899E+02  0.19180067187E+02  0.51100000000E-03 0.  1.
         12    1    3    3    0    0  0.21370456922E+01  0.70636622458E+00 -0.35353892911E+01  0.41910493880E+01  0.00000000000E+00 0. -1.
</event>
<event>
 7    1  0.2243370E-008  0.4614232E+02  0.7816164E-02  0.1320468E+00
        -11   -1    0    0    0    0  0.00000000000E+00  0.00000000000E+00  0.45593999997E+02  0.45594000000E+02  0.51100000000E-03 0.  1.
         11   -1    0    0    0    0 -0.00000000000E+00 -0.00000000000E+00 -0.45593999997E+02  0.45594000000E+02  0.51100000000E-03 0. -1.
    9900012    2    1    2    0    0  0.12563765951E+02 -0.28697429242E+02  0.32368547459E+02  0.46142317360E+02  0.99999963406E+01 0.  0.
         12    1    1    2    0    0 -0.12563765951E+02  0.28697429242E+02 -0.32368547459E+02  0.45045682640E+02  0.00000000000E+00 0. -1.
         11    1    3    3    0    0 -0.65793718206E+00 -0.33021068529E+01  0.42563350974E+01  0.54270783785E+01  0.51100000000E-03 0. -1.
        -11    1    3    3    0    0  0.42383430897E+01 -0.12008520735E+02  0.16520248042E+02  0.20858732417E+02  0.51100000000E-03 0.  1.
        -12    1    3    3    0    0  0.89833600434E+01 -0.13386801654E+02  0.11591964319E+02  0.19856506565E+02  0.00000000000E+00 0.  1.
</event>
<event>
 7    1  0.2243370E-008  0.4614233E+02  0.7816164E-02  0.1320468E+00
        -11   -1    0    0    0    0  0.00000000000E+00  0.00000000000E+00  0.45593999997E+02  0.45594000000E+02  0.51100000000E-03 0.  1.
         11   -1    0    0    0    0 -0.00000000000E+00 -0.00000000000E+00 -0.45593999997E+02  0.45594000000E+02  0.51100000000E-03 0. -1.
    9900012    2    1    2    0    0  0.41199622189E+02  0.45566099047E+01  0.17633524876E+02  0.46142325824E+02  0.10000073527E+02 0.  0.
         12    1    1    2    0    0 -0.41199622189E+02 -0.45566099047E+01 -0.17633524876E+02  0.45045674176E+02  0.00000000000E+00 0. -1.
         11    1    3    3    0    0  0.82363407510E+01 -0.57851852825E+00  0.42569007408E+01  0.92894131587E+01  0.51100000000E-03 0. -1.
        -11    1    3    3    0    0  0.27083304432E+02  0.28919482374E+01  0.13822312354E+02  0.30543822005E+02  0.51100000000E-03 0.  1.
         12    1    3    3    0    0  0.58799770061E+01  0.22431801955E+01 -0.44568821848E+00  0.63090906611E+01  0.00000000000E+00 0. -1.
</event>
<event>
 7    1  0.2243370E-008  0.4614232E+02  0.7816164E-02  0.1320468E+00
        -11   -1    0    0    0    0  0.00000000000E+00  0.00000000000E+00  0.45593999997E+02  0.45594000000E+02  0.51100000000E-03 0.  1.
         11   -1    0    0    0    0 -0.00000000000E+00 -0.00000000000E+00 -0.45593999997E+02  0.45594000000E+02  0.51100000000E-03 0. -1.
    9900012    2    1    2    0    0  0.13837163265E+02  0.25873425270E+02  0.34179121191E+02  0.46142317101E+02  0.99999939814E+01 0.  0.
         12    1    1    2    0    0 -0.13837163265E+02 -0.25873425270E+02 -0.34179121191E+02  0.45045682899E+02  0.00000000000E+00 0. -1.
         11    1    3    3    0    0  0.10376968804E+02  0.99968892787E+01  0.17164947274E+02  0.22411039512E+02  0.51100000000E-03 0. -1.
        -11    1    3    3    0    0  0.26325198329E+00  0.62368707194E+00  0.25682667771E-01  0.67745629450E+00  0.51100000000E-03 0.  1.
        -12    1    3    3    0    0  0.31969424770E+01  0.15252848919E+02  0.16988491250E+02  0.23053821295E+02  0.00000000000E+00 0.  1.
</event>
<event>
 7    1  0.2243370E-008  0.4614230E+02  0.7816164E-02  0.1320468E+00
        -11   -1    0    0    0    0  0.00000000000E+00  0.00000000000E+00  0.45593999997E+02  0.45594000000E+02  0.51100000000E-03 0.  1.
         11   -1    0    0    0    0 -0.00000000000E+00 -0.00000000000E+00 -0.45593999997E+02  0.45594000000E+02  0.51100000000E-03 0. -1.
    9900012    2    1    2    0    0 -0.10823226415E+02 -0.80245513337E+01  0.42983474822E+02  0.46142303625E+02  0.99998710958E+01 0.  0.
         12    1    1    2    0    0  0.10823226415E+02  0.80245513337E+01 -0.42983474822E+02  0.45045696375E+02  0.00000000000E+00 0. -1.
         11    1    3    3    0    0 -0.25955976005E+01  0.11057526462E+01  0.61004480022E+01  0.67212559769E+01  0.51100000000E-03 0. -1.
        -11    1    3    3    0    0 -0.63397927148E+01 -0.36587456485E+01  0.26933096653E+02  0.27910053510E+02  0.51100000000E-03 0.  1.
        -12    1    3    3    0    0 -0.18878361000E+01 -0.54715583315E+01  0.99499301668E+01  0.11510994138E+02  0.00000000000E+00 0.  1.
</event>
<event>
 7    1  0.2243370E-008  0.4614232E+02  0.7816164E-02  0.1320468E+00
        -11   -1    0    0    0    0  0.00000000000E+00  0.00000000000E+00  0.45593999997E+02  0.45594000000E+02  0.51100000000E-03 0. -1.
         11   -1    0    0    0    0 -0.00000000000E+00 -0.00000000000E+00 -0.45593999997E+02  0.45594000000E+02  0.51100000000E-03 0.  1.
    9900012    2    1    2    0    0  0.40645937176E+02 -0.43430961028E+00 -0.19412169749E+02  0.46142321316E+02  0.10000032418E+02 0.  0.
         12    1    1    2    0    0 -0.40645937176E+02  0.43430961028E+00  0.19412169749E+02  0.45045678684E+02  0.00000000000E+00 0. -1.
         11    1    3    3    0    0  0.19459431256E+02  0.76555130808E+00 -0.71905206771E+01  0.20759554944E+02  0.51100000000E-03 0. -1.
        -11    1    3    3    0    0  0.10889584025E+02  0.12642524044E+01 -0.30606227243E+01  0.11381950013E+02  0.51100000000E-03 0.  1.
         12    1    3    3    0    0  0.10296921894E+02 -0.24641133228E+01 -0.91610263476E+01  0.14000816359E+02  0.00000000000E+00 0. -1.
</event>
<event>
 7    1  0.2243370E-008  0.4614232E+02  0.7816164E-02  0.1320468E+00
        -11   -1    0    0    0    0  0.00000000000E+00  0.00000000000E+00  0.45593999997E+02  0.45594000000E+02  0.51100000000E-03 0.  1.
         11   -1    0    0    0    0 -0.00000000000E+00 -0.00000000000E+00 -0.45593999997E+02  0.45594000000E+02  0.51100000000E-03 0. -1.
    9900012    2    1    2    0    0 -0.24295625434E+02  0.21511833520E+01  0.37870944348E+02  0.46142318399E+02  0.10000005818E+02 0.  0.
         12    1    1    2    0    0  0.24295625434E+02 -0.21511833520E+01 -0.37870944348E+02  0.45045681601E+02  0.00000000000E+00 0. -1.
         11    1    3    3    0    0 -0.16984521153E+02  0.39460409985E+01  0.20126214727E+02  0.26629114102E+02  0.51100000000E-03 0. -1.
        -11    1    3    3    0    0 -0.36698451927E+00 -0.22402725271E+00  0.41022104797E+01  0.41246814336E+01  0.51100000000E-03 0.  1.
         12    1    3    3    0    0 -0.69441197618E+01 -0.15708303938E+01  0.13642519141E+02  0.15388522863E+02  0.00000000000E+00 0. -1.
</event>
<event>
 7    1  0.2243370E-008  0.4614232E+02  0.7816164E-02  0.1320468E+00
        -11   -1    0    0    0    0  0.00000000000E+00  0.00000000000E+00  0.45593999997E+02  0.45594000000E+02  0.51100000000E-03 0. -1.
         11   -1    0    0    0    0 -0.00000000000E+00 -0.00000000000E+00 -0.45593999997E+02  0.45594000000E+02  0.51100000000E-03 0.  1.
    9900012    2    1    2    0    0  0.16354157690E+02  0.29765225233E+02 -0.29591999605E+02  0.46142317105E+02  0.99999940149E+01 0.  0.
         12    1    1    2    0    0 -0.16354157690E+02 -0.29765225233E+02  0.29591999605E+02  0.45045682895E+02  0.00000000000E+00 0. -1.
         11    1    3    3    0    0  0.13101644977E+01  0.86570795960E+00 -0.14227731561E+01  0.21190245391E+01  0.51100000000E-03 0. -1.
        -11    1    3    3    0    0  0.13594685100E+02  0.22654709238E+02 -0.17886248607E+02  0.31905629646E+02  0.51100000000E-03 0.  1.
         12    1    3    3    0    0  0.14493080922E+01  0.62448080348E+01 -0.10282977841E+02  0.12117662919E+02  0.00000000000E+00 0. -1.
</event>
<event>
 7    1  0.2243370E-008  0.4614232E+02  0.7816164E-02  0.1320468E+00
        -11   -1    0    0    0    0  0.00000000000E+00  0.00000000000E+00  0.45593999997E+02  0.45594000000E+02  0.51100000000E-03 0.  1.
         11   -1    0    0    0    0 -0.00000000000E+00 -0.00000000000E+00 -0.45593999997E+02  0.45594000000E+02  0.51100000000E-03 0. -1.
    9900012    2    1    2    0    0 -0.23955090934E+02 -0.13866603863E+02  0.35538491997E+02  0.46142317657E+02  0.99999990490E+01 0.  0.
         12    1    1    2    0    0  0.23955090934E+02  0.13866603863E+02 -0.35538491997E+02  0.45045682343E+02  0.00000000000E+00 0. -1.
         11    1    3    3    0    0 -0.10638356996E+01 -0.25150956066E+01  0.42777394790E+01  0.50750869566E+01  0.51100000000E-03 0. -1.
        -11    1    3    3    0    0 -0.18693312003E+02 -0.12234416276E+02  0.26387625629E+02  0.34574956860E+02  0.51100000000E-03 0.  1.
         12    1    3    3    0    0 -0.41979432314E+01  0.88290801942E+00  0.48731268890E+01  0.64922738406E+01  0.00000000000E+00 0. -1.
</event>
<event>
 7    1  0.2243370E-008  0.4614232E+02  0.7816164E-02  0.1320468E+00
        -11   -1    0    0    0    0  0.00000000000E+00  0.00000000000E+00  0.45593999997E+02  0.45594000000E+02  0.51100000000E-03 0.  1.
         11   -1    0    0    0    0 -0.00000000000E+00 -0.00000000000E+00 -0.45593999997E+02  0.45594000000E+02  0.51100000000E-03 0. -1.
    9900012    2    1    2    0    0 -0.31499325666E+01 -0.29841687693E+02  0.33595611405E+02  0.46142317574E+02  0.99999982954E+01 0.  0.
         12    1    1    2    0    0  0.31499325666E+01  0.29841687693E+02 -0.33595611405E+02  0.45045682426E+02  0.00000000000E+00 0. -1.
         11    1    3    3    0    0  0.17731695822E+00 -0.37511901962E+01  0.14779498653E+01  0.40357409799E+01  0.51100000000E-03 0. -1.
        -11    1    3    3    0    0 -0.41722783195E+01 -0.20170553837E+02  0.20611232344E+02  0.29139012466E+02  0.51100000000E-03 0.  1.
        -12    1    3    3    0    0  0.84502879474E+00 -0.59199436597E+01  0.11506429195E+02  0.12967564129E+02  0.00000000000E+00 0.  1.
</event>
<event>
 7    1  0.2243370E-008  0.4614232E+02  0.7816164E-02  0.1320468E+00
        -11   -1    0    0    0    0  0.00000000000E+00  0.00000000000E+00  0.45593999997E+02  0.45594000000E+02  0.51100000000E-03 0.  1.
         11   -1    0    0    0    0 -0.00000000000E+00 -0.00000000000E+00 -0.45593999997E+02  0.45594000000E+02  0.51100000000E-03 0. -1.
    9900012    2    1    2    0    0 -0.19433059353E+02  0.12924557869E+02  0.38528237739E+02  0.46142322125E+02  0.10000039796E+02 0.  0.
         12    1    1    2    0    0  0.19433059353E+02 -0.12924557869E+02 -0.38528237739E+02  0.45045677875E+02  0.00000000000E+00 0. -1.
         11    1    3    3    0    0  0.10901410567E+01  0.51161957905E+00  0.14161478110E+01  0.18589343724E+01  0.51100000000E-03 0. -1.
        -11    1    3    3    0    0 -0.14874911770E+02  0.75331393133E+01  0.26499307136E+02  0.31308536648E+02  0.51100000000E-03 0.  1.
         12    1    3    3    0    0 -0.56482886397E+01  0.48797989764E+01  0.10612782792E+02  0.12974851105E+02  0.00000000000E+00 0. -1.
</event>
<event>
 7    1  0.2243370E-008  0.4614232E+02  0.7816164E-02  0.1320468E+00
        -11   -1    0    0    0    0  0.00000000000E+00  0.00000000000E+00  0.45593999997E+02  0.45594000000E+02  0.51100000000E-03 0.  1.
         11   -1    0    0    0    0 -0.00000000000E+00 -0.00000000000E+00 -0.45593999997E+02  0.45594000000E+02  0.51100000000E-03 0. -1.
    9900012    2    1    2    0    0  0.17495476301E+02 -0.22401082982E+01  0.41448809887E+02  0.46142316331E+02  0.99999869589E+01 0.  0.
         12    1    1    2    0    0 -0.17495476301E+02  0.22401082982E+01 -0.41448809887E+02  0.45045683669E+02  0.00000000000E+00 0. -1.
         11    1    3    3    0    0  0.93528764862E+01  0.30122491212E+01  0.26071656526E+02  0.27861823659E+02  0.51100000000E-03 0. -1.
        -11    1    3    3    0    0  0.58841136710E+01 -0.28669872490E+01  0.11119209443E+02  0.12902682995E+02  0.51100000000E-03 0.  1.
         12    1    3    3    0    0  0.22584861439E+01 -0.23853701705E+01  0.42579439177E+01  0.53778096767E+01  0.00000000000E+00 0. -1.
</event>
<event>
 7    1  0.2243370E-008  0.4614232E+02  0.7816164E-02  0.1320468E+00
        -11   -1    0    0    0    0  0.00000000000E+00  0.00000000000E+00  0.45593999997E+02  0.45594000000E+02  0.51100000000E-03 0.  1.
         11   -1    0    0    0    0 -0.00000000000E+00 -0.00000000000E+00 -0.45593999997E+02  0.45594000000E+02  0.51100000000E-03 0. -1.
    9900012    2    1    2    0    0  0.12575076316E+02 -0.28629140755E+02  0.32424578173E+02  0.46142317472E+02  0.99999973626E+01 0.  0.
         12    1    1    2    0    0 -0.12575076316E+02  0.28629140755E+02 -0.32424578173E+02  0.45045682528E+02  0.00000000000E+00 0. -1.
         11    1    3    3    0    0  0.74877915833E+01 -0.20001371365E+02  0.19856850791E+02  0.29161899850E+02  0.51100000000E-03 0. -1.
        -11    1    3    3    0    0  0.47098798158E+01 -0.81584140428E+01  0.79587310258E+01  0.12332237728E+02  0.51100000000E-03 0.  1.
         12    1    3    3    0    0  0.37740491677E+00 -0.46935534709E+00  0.46089963561E+01  0.46481798936E+01  0.00000000000E+00 0. -1.
</event>
<event>
 7    1  0.2243370E-008  0.4614233E+02  0.7816164E-02  0.1320468E+00
        -11   -1    0    0    0    0  0.00000000000E+00  0.00000000000E+00  0.45593999997E+02  0.45594000000E+02  0.51100000000E-03 0.  1.
         11   -1    0    0    0    0 -0.00000000000E+00 -0.00000000000E+00 -0.45593999997E+02  0.45594000000E+02  0.51100000000E-03 0. -1.
    9900012    2    1    2    0    0  0.20901047859E+02  0.17914410544E+02  0.35655752063E+02  0.46142328044E+02  0.10000093768E+02 0.  0.
         12    1    1    2    0    0 -0.20901047859E+02 -0.17914410544E+02 -0.35655752063E+02  0.45045671956E+02  0.00000000000E+00 0. -1.
         11    1    3    3    0    0  0.26011012564E+01  0.38786709725E+01  0.23748893826E+01  0.52392667521E+01  0.51100000000E-03 0. -1.
        -11    1    3    3    0    0  0.42286521845E+01  0.46485877269E+01  0.53672011265E+01  0.82642431805E+01  0.51100000000E-03 0.  1.
        -12    1    3    3    0    0  0.14071294419E+02  0.93871518449E+01  0.27913661554E+02  0.32638818112E+02  0.00000000000E+00 0.  1.
</event>
<event>
 7    1  0.2243370E-008  0.4614232E+02  0.7816164E-02  0.1320468E+00
        -11   -1    0    0    0    0  0.00000000000E+00  0.00000000000E+00  0.45593999997E+02  0.45594000000E+02  0.51100000000E-03 0.  1.
         11   -1    0    0    0    0 -0.00000000000E+00 -0.00000000000E+00 -0.45593999997E+02  0.45594000000E+02  0.51100000000E-03 0. -1.
    9900012    2    1    2    0    0  0.34149165163E+02  0.29375339098E+02  0.19328244235E+00  0.46142318892E+02  0.10000010310E+02 0.  0.
         12    1    1    2    0    0 -0.34149165163E+02 -0.29375339098E+02 -0.19328244235E+00  0.45045681108E+02  0.00000000000E+00 0. -1.
         11    1    3    3    0    0  0.13081992460E+01  0.11875481506E+01 -0.18616642162E+01  0.25666027726E+01  0.51100000000E-03 0. -1.
        -11    1    3    3    0    0  0.16397419096E+02  0.16446368451E+02  0.25556642670E+01  0.23364284888E+02  0.51100000000E-03 0.  1.
        -12    1    3    3    0    0  0.16443546820E+02  0.11741422496E+02 -0.50071760845E+00  0.20211431231E+02  0.00000000000E+00 0.  1.
</event>
<event>
 7    1  0.2243370E-008  0.4614232E+02  0.7816164E-02  0.1320468E+00
        -11   -1    0    0    0    0  0.00000000000E+00  0.00000000000E+00  0.45593999997E+02  0.45594000000E+02  0.51100000000E-03 0.  1.
         11   -1    0    0    0    0 -0.00000000000E+00 -0.00000000000E+00 -0.45593999997E+02  0.45594000000E+02  0.51100000000E-03 0. -1.
    9900012    2    1    2    0    0  0.23161720698E+02 -0.57559196698E+01  0.38203631352E+02  0.46142319126E+02  0.10000012442E+02 0.  0.
         12    1    1    2    0    0 -0.23161720698E+02  0.57559196698E+01 -0.38203631352E+02  0.45045680874E+02  0.00000000000E+00 0. -1.
         11    1    3    3    0    0  0.11818855082E+02 -0.50416616647E+01  0.20953532527E+02  0.24579548682E+02  0.51100000000E-03 0. -1.
        -11    1    3    3    0    0  0.11536112669E+00  0.14160930310E+01  0.11987225172E+01  0.18589146286E+01  0.51100000000E-03 0.  1.
        -12    1    3    3    0    0  0.11227504489E+02 -0.21303510362E+01  0.16051376308E+02  0.19703855815E+02  0.00000000000E+00 0.  1.
</event>
<event>
 7    1  0.2243370E-008  0.4614232E+02  0.7816164E-02  0.1320468E+00
        -11   -1    0    0    0    0  0.00000000000E+00  0.00000000000E+00  0.45593999997E+02  0.45594000000E+02  0.51100000000E-03 0. -1.
         11   -1    0    0    0    0 -0.00000000000E+00 -0.00000000000E+00 -0.45593999997E+02  0.45594000000E+02  0.51100000000E-03 0.  1.
    9900012    2    1    2    0    0  0.41956313486E+02  0.13573683601E+02 -0.91943646973E+01  0.46142317965E+02  0.10000001855E+02 0.  0.
         12    1    1    2    0    0 -0.41956313486E+02 -0.13573683601E+02  0.91943646973E+01  0.45045682035E+02  0.00000000000E+00 0. -1.
         11    1    3    3    0    0  0.18306992329E+02  0.41843674600E+01  0.43129440213E+00  0.18784060112E+02  0.51100000000E-03 0. -1.
        -11    1    3    3    0    0  0.25978000546E+01  0.16834518353E+01 -0.19712411440E+01  0.36699273991E+01  0.51100000000E-03 0.  1.
        -12    1    3    3    0    0  0.21051521103E+02  0.77058643053E+01 -0.76544179554E+01  0.23688330453E+02  0.00000000000E+00 0.  1.
</event>
<event>
 7    1  0.2243370E-008  0.4614232E+02  0.7816164E-02  0.1320468E+00
        -11   -1    0    0    0    0  0.00000000000E+00  0.00000000000E+00  0.45593999997E+02  0.45594000000E+02  0.51100000000E-03 0.  1.
         11   -1    0    0    0    0 -0.00000000000E+00 -0.00000000000E+00 -0.45593999997E+02  0.45594000000E+02  0.51100000000E-03 0. -1.
    9900012    2    1    2    0    0  0.32348300599E+02  0.11667362576E+02  0.29095938551E+02  0.46142317174E+02  0.99999946434E+01 0.  0.
         12    1    1    2    0    0 -0.32348300599E+02 -0.11667362576E+02 -0.29095938551E+02  0.45045682826E+02  0.00000000000E+00 0. -1.
         11    1    3    3    0    0  0.98867383126E+01  0.40963782241E+01  0.52289777762E+01  0.11910924308E+02  0.51100000000E-03 0.  1.
        -11    1    3    3    0    0  0.10141988093E+02  0.25012013892E+01  0.14806256204E+02  0.18120186366E+02  0.51100000000E-03 0. -1.
         12    1    3    3    0    0  0.12319574193E+02  0.50697829625E+01  0.90607045702E+01  0.16111206501E+02  0.00000000000E+00 0. -1.
</event>
<event>
 7    1  0.2243370E-008  0.4614232E+02  0.7816164E-02  0.1320468E+00
        -11   -1    0    0    0    0  0.00000000000E+00  0.00000000000E+00  0.45593999997E+02  0.45594000000E+02  0.51100000000E-03 0.  1.
         11   -1    0    0    0    0 -0.00000000000E+00 -0.00000000000E+00 -0.45593999997E+02  0.45594000000E+02  0.51100000000E-03 0. -1.
    9900012    2    1    2    0    0 -0.39447006840E+02 -0.10074166501E+01  0.21726303136E+02  0.46142317800E+02  0.10000000353E+02 0.  0.
         12    1    1    2    0    0  0.39447006840E+02  0.10074166501E+01 -0.21726303136E+02  0.45045682200E+02  0.00000000000E+00 0. -1.
         11    1    3    3    0    0 -0.90275956532E+01  0.64462839550E+00  0.67824255823E+01  0.11309921577E+02  0.51100000000E-03 0.  1.
        -11    1    3    3    0    0 -0.52138110044E+01  0.14288754170E+01  0.55757796109E+01  0.77662622076E+01  0.51100000000E-03 0. -1.
         12    1    3    3    0    0 -0.25205600182E+02 -0.30809204626E+01  0.93680979425E+01  0.27066134015E+02  0.00000000000E+00 0. -1.
</event>
<event>
 7    1  0.2243370E-008  0.4614231E+02  0.7816164E-02  0.1320468E+00
        -11   -1    0    0    0    0  0.00000000000E+00  0.00000000000E+00  0.45593999997E+02  0.45594000000E+02  0.51100000000E-03 0.  1.
         11   -1    0    0    0    0 -0.00000000000E+00 -0.00000000000E+00 -0.45593999997E+02  0.45594000000E+02  0.51100000000E-03 0. -1.
    9900012    2    1    2    0    0  0.31059237318E+02 -0.16640244394E+02 -0.28063144518E+02  0.46142311677E+02  0.99999445195E+01 0.  0.
         12    1    1    2    0    0 -0.31059237318E+02  0.16640244394E+02  0.28063144518E+02  0.45045688323E+02  0.00000000000E+00 0. -1.
         11    1    3    3    0    0  0.16057141333E+02 -0.95721737607E+01 -0.13805373494E+02  0.23238903500E+02  0.51100000000E-03 0.  1.
        -11    1    3    3    0    0  0.36600907857E+00  0.99402913847E+00 -0.16919171063E+01  0.19961563891E+01  0.51100000000E-03 0. -1.
         12    1    3    3    0    0  0.14636086907E+02 -0.80620997713E+01 -0.12565853917E+02  0.20907251788E+02  0.00000000000E+00 0. -1.
</event>
<event>
 7    1  0.2243370E-008  0.4614232E+02  0.7816164E-02  0.1320468E+00
        -11   -1    0    0    0    0  0.00000000000E+00  0.00000000000E+00  0.45593999997E+02  0.45594000000E+02  0.51100000000E-03 0.  1.
         11   -1    0    0    0    0 -0.00000000000E+00 -0.00000000000E+00 -0.45593999997E+02  0.45594000000E+02  0.51100000000E-03 0. -1.
    9900012    2    1    2    0    0  0.32187407576E+02 -0.19462667139E+02  0.24784848792E+02  0.46142319316E+02  0.10000014181E+02 0.  0.
         12    1    1    2    0    0 -0.32187407576E+02  0.19462667139E+02 -0.24784848792E+02  0.45045680684E+02  0.00000000000E+00 0. -1.
         11    1    3    3    0    0  0.64381350201E+01 -0.58992647468E+01  0.34693544496E+01  0.93961336542E+01  0.51100000000E-03 0. -1.
        -11    1    3    3    0    0  0.17510005933E+02 -0.62484508985E+01  0.15928577532E+02  0.24481891856E+02  0.51100000000E-03 0.  1.
        -12    1    3    3    0    0  0.82392666229E+01 -0.73149514935E+01  0.53869168106E+01  0.12264293806E+02  0.00000000000E+00 0.  1.
</event>
<event>
 7    1  0.2243370E-008  0.4614232E+02  0.7816164E-02  0.1320468E+00
        -11   -1    0    0    0    0  0.00000000000E+00  0.00000000000E+00  0.45593999997E+02  0.45594000000E+02  0.51100000000E-03 0.  1.
         11   -1    0    0    0    0 -0.00000000000E+00 -0.00000000000E+00 -0.45593999997E+02  0.45594000000E+02  0.51100000000E-03 0. -1.
    9900012    2    1    2    0    0  0.13939744283E+02 -0.35227081550E+02  0.24369033453E+02  0.46142317225E+02  0.99999951156E+01 0.  0.
         12    1    1    2    0    0 -0.13939744283E+02  0.35227081550E+02 -0.24369033453E+02  0.45045682775E+02  0.00000000000E+00 0. -1.
         11    1    3    3    0    0  0.55244240039E+00 -0.15972807785E+01  0.58962311720E+00  0.17900151320E+01  0.51100000000E-03 0. -1.
        -11    1    3    3    0    0 -0.80526509084E+00 -0.35359122762E+01  0.49017680905E+01  0.60974140556E+01  0.51100000000E-03 0.  1.
        -12    1    3    3    0    0  0.14192566973E+02 -0.30093888495E+02  0.18877642245E+02  0.38254888038E+02  0.00000000000E+00 0.  1.
</event>
<event>
 7    1  0.2243370E-008  0.4614232E+02  0.7816164E-02  0.1320468E+00
        -11   -1    0    0    0    0  0.00000000000E+00  0.00000000000E+00  0.45593999997E+02  0.45594000000E+02  0.51100000000E-03 0.  1.
         11   -1    0    0    0    0 -0.00000000000E+00 -0.00000000000E+00 -0.45593999997E+02  0.45594000000E+02  0.51100000000E-03 0. -1.
    9900012    2    1    2    0    0  0.26498797138E+02 -0.30110683604E+02  0.20500583366E+02  0.46142318351E+02  0.10000005381E+02 0.  0.
         12    1    1    2    0    0 -0.26498797138E+02  0.30110683604E+02 -0.20500583366E+02  0.45045681649E+02  0.00000000000E+00 0. -1.
         11    1    3    3    0    0  0.26926885889E+01 -0.14932803109E+01  0.74868351249E+00  0.31687513608E+01  0.51100000000E-03 0. -1.
        -11    1    3    3    0    0  0.19093947368E+02 -0.18330144726E+02  0.10975319207E+02  0.28653632645E+02  0.51100000000E-03 0.  1.
        -12    1    3    3    0    0  0.47121611809E+01 -0.10287258567E+02  0.87765806467E+01  0.14319934346E+02  0.00000000000E+00 0.  1.
</event>
<event>
 7    1  0.2243370E-008  0.4614232E+02  0.7816164E-02  0.1320468E+00
        -11   -1    0    0    0    0  0.00000000000E+00  0.00000000000E+00  0.45593999997E+02  0.45594000000E+02  0.51100000000E-03 0. -1.
         11   -1    0    0    0    0 -0.00000000000E+00 -0.00000000000E+00 -0.45593999997E+02  0.45594000000E+02  0.51100000000E-03 0.  1.
    9900012    2    1    2    0    0 -0.27164993089E+02 -0.74410745718E+00 -0.35925241139E+02  0.46142317672E+02  0.99999991902E+01 0.  0.
         12    1    1    2    0    0  0.27164993089E+02  0.74410745718E+00  0.35925241139E+02  0.45045682328E+02  0.00000000000E+00 0. -1.
         11    1    3    3    0    0 -0.71468763447E+01 -0.14924372199E+01 -0.59189576914E+01  0.93988973160E+01  0.51100000000E-03 0. -1.
        -11    1    3    3    0    0 -0.14055660916E+02  0.15662951083E+01 -0.25729714425E+02  0.29360400011E+02  0.51100000000E-03 0.  1.
        -12    1    3    3    0    0 -0.59624558283E+01 -0.81796534561E+00 -0.42765690230E+01  0.73830203454E+01  0.00000000000E+00 0.  1.
</event>
<event>
 7    1  0.2243370E-008  0.4614232E+02  0.7816164E-02  0.1320468E+00
        -11   -1    0    0    0    0  0.00000000000E+00  0.00000000000E+00  0.45593999997E+02  0.45594000000E+02  0.51100000000E-03 0. -1.
         11   -1    0    0    0    0 -0.00000000000E+00 -0.00000000000E+00 -0.45593999997E+02  0.45594000000E+02  0.51100000000E-03 0.  1.
    9900012    2    1    2    0    0 -0.21635924438E+02 -0.86732373770E+01 -0.38545754171E+02  0.46142318326E+02  0.10000005152E+02 0.  0.
         12    1    1    2    0    0  0.21635924438E+02  0.86732373770E+01  0.38545754171E+02  0.45045681674E+02  0.00000000000E+00 0. -1.
         11    1    3    3    0    0 -0.12977916112E+00 -0.22669587203E+00 -0.58880380072E+00  0.64414581107E+00  0.51100000000E-03 0. -1.
        -11    1    3    3    0    0 -0.21374505590E+02 -0.91640384001E+01 -0.38205894987E+02  0.44727390948E+02  0.51100000000E-03 0.  1.
        -12    1    3    3    0    0 -0.13163968697E+00  0.71749689509E+00  0.24894461701E+00  0.77078156697E+00  0.00000000000E+00 0.  1.
</event>
<event>
 7    1  0.2243370E-008  0.4614232E+02  0.7816164E-02  0.1320468E+00
        -11   -1    0    0    0    0  0.00000000000E+00  0.00000000000E+00  0.45593999997E+02  0.45594000000E+02  0.51100000000E-03 0. -1.
         11   -1    0    0    0    0 -0.00000000000E+00 -0.00000000000E+00 -0.45593999997E+02  0.45594000000E+02  0.51100000000E-03 0.  1.
    9900012    2    1    2    0    0  0.14006766483E+02  0.21735519873E+02 -0.36884830312E+02  0.46142322754E+02  0.10000045525E+02 0.  0.
         12    1    1    2    0    0 -0.14006766483E+02 -0.21735519873E+02  0.36884830312E+02  0.45045677246E+02  0.00000000000E+00 0. -1.
         11    1    3    3    0    0  0.72464135412E+01  0.69067928638E+01 -0.11194046510E+02  0.15017355773E+02  0.51100000000E-03 0. -1.
        -11    1    3    3    0    0  0.70199860899E+01  0.10749005111E+02 -0.15384673812E+02  0.20037702067E+02  0.51100000000E-03 0.  1.
        -12    1    3    3    0    0 -0.25963314800E+00  0.40797218978E+01 -0.10306109990E+02  0.11087264914E+02  0.00000000000E+00 0.  1.
</event>
<event>
 7    1  0.2243370E-008  0.4614232E+02  0.7816164E-02  0.1320468E+00
        -11   -1    0    0    0    0  0.00000000000E+00  0.00000000000E+00  0.45593999997E+02  0.45594000000E+02  0.51100000000E-03 0. -1.
         11   -1    0    0    0    0 -0.00000000000E+00 -0.00000000000E+00 -0.45593999997E+02  0.45594000000E+02  0.51100000000E-03 0.  1.
    9900012    2    1    2    0    0  0.40620533173E+02  0.18627588524E+02 -0.56655483144E+01  0.46142320882E+02  0.10000028457E+02 0.  0.
         12    1    1    2    0    0 -0.40620533173E+02 -0.18627588524E+02  0.56655483144E+01  0.45045679118E+02  0.00000000000E+00 0. -1.
         11    1    3    3    0    0  0.61342389860E+01  0.62155534928E+01 -0.10386949507E+01  0.87943664138E+01  0.51100000000E-03 0. -1.
        -11    1    3    3    0    0  0.19422430449E+02  0.94654238437E+01 -0.13199084377E+01  0.21646413367E+02  0.51100000000E-03 0.  1.
        -12    1    3    3    0    0  0.15063863738E+02  0.29466111880E+01 -0.33069449260E+01  0.15701541101E+02  0.00000000000E+00 0.  1.
</event>
<event>
 7    1  0.2243370E-008  0.4614232E+02  0.7816164E-02  0.1320468E+00
        -11   -1    0    0    0    0  0.00000000000E+00  0.00000000000E+00  0.45593999997E+02  0.45594000000E+02  0.51100000000E-03 0.  1.
         11   -1    0    0    0    0 -0.00000000000E+00 -0.00000000000E+00 -0.45593999997E+02  0.45594000000E+02  0.51100000000E-03 0. -1.
    9900012    2    1    2    0    0  0.36078787594E+02 -0.74092877093E+01  0.25933317953E+02  0.46142318313E+02  0.10000005030E+02 0.  0.
         12    1    1    2    0    0 -0.36078787594E+02  0.74092877093E+01 -0.25933317953E+02  0.45045681687E+02  0.00000000000E+00 0. -1.
         11    1    3    3    0    0  0.40925700861E+01  0.14687972736E+00  0.50501240917E+01  0.65018810483E+01  0.51100000000E-03 0. -1.
        -11    1    3    3    0    0  0.26068707260E+02 -0.31978985736E+01  0.17420373475E+02  0.31516241302E+02  0.51100000000E-03 0.  1.
         12    1    3    3    0    0  0.59175102476E+01 -0.43582688630E+01  0.34628203864E+01  0.81241959628E+01  0.00000000000E+00 0. -1.
</event>
<event>
 7    1  0.2243370E-008  0.4614232E+02  0.7816164E-02  0.1320468E+00
        -11   -1    0    0    0    0  0.00000000000E+00  0.00000000000E+00  0.45593999997E+02  0.45594000000E+02  0.51100000000E-03 0.  1.
         11   -1    0    0    0    0 -0.00000000000E+00 -0.00000000000E+00 -0.45593999997E+02  0.45594000000E+02  0.51100000000E-03 0. -1.
    9900012    2    1    2    0    0  0.36750072703E+02  0.25951119533E+02  0.22549671317E+01  0.46142319569E+02  0.10000016489E+02 0.  0.
         12    1    1    2    0    0 -0.36750072703E+02 -0.25951119533E+02 -0.22549671317E+01  0.45045680431E+02  0.00000000000E+00 0. -1.
         11    1    3    3    0    0  0.10206379319E+02  0.98900285656E+01  0.32317238078E+01  0.14574871624E+02  0.51100000000E-03 0. -1.
        -11    1    3    3    0    0  0.93289943514E+01  0.84765504411E+01  0.10427185465E+01  0.12647897265E+02  0.51100000000E-03 0.  1.
         12    1    3    3    0    0  0.17214699032E+02  0.75845405266E+01 -0.20194752226E+01  0.18919550681E+02  0.00000000000E+00 0. -1.
</event>
<event>
 7    1  0.2243370E-008  0.4614232E+02  0.7816164E-02  0.1320468E+00
        -11   -1    0    0    0    0  0.00000000000E+00  0.00000000000E+00  0.45593999997E+02  0.45594000000E+02  0.51100000000E-03 0.  1.
         11   -1    0    0    0    0 -0.00000000000E+00 -0.00000000000E+00 -0.45593999997E+02  0.45594000000E+02  0.51100000000E-03 0. -1.
    9900012    2    1    2    0    0 -0.13134281135E+02  0.31383099671E+02  0.29524656662E+02  0.46142316112E+02  0.99999849636E+01 0.  0.
         12    1    1    2    0    0  0.13134281135E+02 -0.31383099671E+02 -0.29524656662E+02  0.45045683888E+02  0.00000000000E+00 0. -1.
         11    1    3    3    0    0 -0.33608965704E+01  0.16192089428E+01  0.17386890924E+01  0.41158842767E+01  0.51100000000E-03 0. -1.
        -11    1    3    3    0    0 -0.50642782032E+01  0.10192606144E+02  0.10742654071E+02  0.15650583071E+02  0.51100000000E-03 0.  1.
         12    1    3    3    0    0 -0.47091063612E+01  0.19571284585E+02  0.17043313499E+02  0.26375848764E+02  0.00000000000E+00 0. -1.
</event>
<event>
 7    1  0.2243370E-008  0.4614232E+02  0.7816164E-02  0.1320468E+00
        -11   -1    0    0    0    0  0.00000000000E+00  0.00000000000E+00  0.45593999997E+02  0.45594000000E+02  0.51100000000E-03 0.  1.
         11   -1    0    0    0    0 -0.00000000000E+00 -0.00000000000E+00 -0.45593999997E+02  0.45594000000E+02  0.51100000000E-03 0. -1.
    9900012    2    1    2    0    0  0.21350028804E+02 -0.25925188774E+02  0.30019565481E+02  0.46142318136E+02  0.10000003419E+02 0.  0.
         12    1    1    2    0    0 -0.21350028804E+02  0.25925188774E+02 -0.30019565481E+02  0.45045681864E+02  0.00000000000E+00 0. -1.
         11    1    3    3    0    0  0.49863880962E+01 -0.10587843699E+02  0.70114448793E+01  0.13642831817E+02  0.51100000000E-03 0. -1.
        -11    1    3    3    0    0  0.15519626740E+02 -0.14747172233E+02  0.23063080043E+02  0.31468135699E+02  0.51100000000E-03 0.  1.
        -12    1    3    3    0    0  0.84401396784E+00 -0.59017284186E+00 -0.54959441082E-01  0.10313506200E+01  0.00000000000E+00 0.  1.
</event>
<event>
 7    1  0.2243370E-008  0.4614232E+02  0.7816164E-02  0.1320468E+00
        -11   -1    0    0    0    0  0.00000000000E+00  0.00000000000E+00  0.45593999997E+02  0.45594000000E+02  0.51100000000E-03 0.  1.
         11   -1    0    0    0    0 -0.00000000000E+00 -0.00000000000E+00 -0.45593999997E+02  0.45594000000E+02  0.51100000000E-03 0. -1.
    9900012    2    1    2    0    0 -0.19342340625E+02  0.21726817058E+02  0.34393789460E+02  0.46142317923E+02  0.10000001480E+02 0.  0.
         12    1    1    2    0    0  0.19342340625E+02 -0.21726817058E+02 -0.34393789460E+02  0.45045682077E+02  0.00000000000E+00 0. -1.
         11    1    3    3    0    0 -0.17826255028E+01  0.13213386540E+01  0.45358471834E+01  0.50495147741E+01  0.51100000000E-03 0. -1.
        -11    1    3    3    0    0 -0.16908580680E+02  0.14706390208E+02  0.25024838189E+02  0.33591971365E+02  0.51100000000E-03 0.  1.
         12    1    3    3    0    0 -0.65113444191E+00  0.56990881959E+01  0.48331040881E+01  0.75008317840E+01  0.00000000000E+00 0. -1.
</event>
<event>
 7    1  0.2243370E-008  0.4614232E+02  0.7816164E-02  0.1320468E+00
        -11   -1    0    0    0    0  0.00000000000E+00  0.00000000000E+00  0.45593999997E+02  0.45594000000E+02  0.51100000000E-03 0.  1.
         11   -1    0    0    0    0 -0.00000000000E+00 -0.00000000000E+00 -0.45593999997E+02  0.45594000000E+02  0.51100000000E-03 0. -1.
    9900012    2    1    2    0    0 -0.28380028054E+02 -0.34588044808E+02  0.52301777146E+01  0.46142316578E+02  0.99999892130E+01 0.  0.
         12    1    1    2    0    0  0.28380028054E+02  0.34588044808E+02 -0.52301777146E+01  0.45045683422E+02  0.00000000000E+00 0. -1.
         11    1    3    3    0    0 -0.17704035281E+02 -0.21660378337E+02  0.61678069512E+01  0.28646931734E+02  0.51100000000E-03 0. -1.
        -11    1    3    3    0    0 -0.93735415350E+01 -0.79565454400E+01 -0.14690985350E+00  0.12295994430E+02  0.51100000000E-03 0.  1.
         12    1    3    3    0    0 -0.13024512374E+01 -0.49711210316E+01 -0.79071938307E+00  0.51993904142E+01  0.00000000000E+00 0. -1.
</event>
<event>
 7    1  0.2243370E-008  0.4614232E+02  0.7816164E-02  0.1320468E+00
        -11   -1    0    0    0    0  0.00000000000E+00  0.00000000000E+00  0.45593999997E+02  0.45594000000E+02  0.51100000000E-03 0.  1.
         11   -1    0    0    0    0 -0.00000000000E+00 -0.00000000000E+00 -0.45593999997E+02  0.45594000000E+02  0.51100000000E-03 0. -1.
    9900012    2    1    2    0    0 -0.90296655360E+01  0.24146783508E+02  0.36939294002E+02  0.46142318133E+02  0.10000003394E+02 0.  0.
         12    1    1    2    0    0  0.90296655360E+01 -0.24146783508E+02 -0.36939294002E+02  0.45045681867E+02  0.00000000000E+00 0. -1.
         11    1    3    3    0    0 -0.20549150267E+01  0.11227759946E+01  0.24635079625E+01  0.33988488409E+01  0.51100000000E-03 0. -1.
        -11    1    3    3    0    0 -0.36428161483E+01  0.67403580685E+01  0.16886836625E+02  0.18543672448E+02  0.51100000000E-03 0.  1.
        -12    1    3    3    0    0 -0.33319343610E+01  0.16283649445E+02  0.17588949415E+02  0.24199796845E+02  0.00000000000E+00 0.  1.
</event>
<event>
 7    1  0.2243370E-008  0.4614232E+02  0.7816164E-02  0.1320468E+00
        -11   -1    0    0    0    0  0.00000000000E+00  0.00000000000E+00  0.45593999997E+02  0.45594000000E+02  0.51100000000E-03 0.  1.
         11   -1    0    0    0    0 -0.00000000000E+00 -0.00000000000E+00 -0.45593999997E+02  0.45594000000E+02  0.51100000000E-03 0. -1.
    9900012    2    1    2    0    0 -0.59499995459E+01 -0.21193170611E+02  0.39300896437E+02  0.46142318343E+02  0.10000005309E+02 0.  0.
         12    1    1    2    0    0  0.59499995459E+01  0.21193170611E+02 -0.39300896437E+02  0.45045681657E+02  0.00000000000E+00 0. -1.
         11    1    3    3    0    0 -0.10839386486E+01 -0.64306050561E+01  0.54564506038E+01  0.85029675898E+01  0.51100000000E-03 0. -1.
        -11    1    3    3    0    0 -0.24620509750E+01 -0.13319738525E+02  0.26149108683E+02  0.29449159828E+02  0.51100000000E-03 0.  1.
        -12    1    3    3    0    0 -0.24040099224E+01 -0.14428270307E+01  0.76953371498E+01  0.81901909256E+01  0.00000000000E+00 0.  1.
</event>
<event>
 7    1  0.2243370E-008  0.4614232E+02  0.7816164E-02  0.1320468E+00
        -11   -1    0    0    0    0  0.00000000000E+00  0.00000000000E+00  0.45593999997E+02  0.45594000000E+02  0.51100000000E-03 0.  1.
         11   -1    0    0    0    0 -0.00000000000E+00 -0.00000000000E+00 -0.45593999997E+02  0.45594000000E+02  0.51100000000E-03 0. -1.
    9900012    2    1    2    0    0 -0.36566642422E+02 -0.11861399780E+02  0.23479810694E+02  0.46142315934E+02  0.99999833355E+01 0.  0.
         12    1    1    2    0    0  0.36566642422E+02  0.11861399780E+02 -0.23479810694E+02  0.45045684066E+02  0.00000000000E+00 0. -1.
         11    1    3    3    0    0 -0.18487822716E+02 -0.83896404904E+01  0.12705535086E+02  0.23950287647E+02  0.51100000000E-03 0. -1.
        -11    1    3    3    0    0 -0.10707929051E+02  0.10382730356E+01  0.61211795960E+01  0.12377665183E+02  0.51100000000E-03 0.  1.
        -12    1    3    3    0    0 -0.73708906552E+01 -0.45100323254E+01  0.46530960125E+01  0.98143631036E+01  0.00000000000E+00 0.  1.
</event>
<event>
 7    1  0.2243370E-008  0.4614232E+02  0.7816164E-02  0.1320468E+00
        -11   -1    0    0    0    0  0.00000000000E+00  0.00000000000E+00  0.45593999997E+02  0.45594000000E+02  0.51100000000E-03 0.  1.
         11   -1    0    0    0    0 -0.00000000000E+00 -0.00000000000E+00 -0.45593999997E+02  0.45594000000E+02  0.51100000000E-03 0. -1.
    9900012    2    1    2    0    0 -0.49247501978E+01 -0.29232095601E+02  0.33916732642E+02  0.46142319509E+02  0.10000015940E+02 0.  0.
         12    1    1    2    0    0  0.49247501978E+01  0.29232095601E+02 -0.33916732642E+02  0.45045680491E+02  0.00000000000E+00 0. -1.
         11    1    3    3    0    0 -0.59967380330E+01 -0.13851430350E+02  0.12804722811E+02  0.19793532184E+02  0.51100000000E-03 0. -1.
        -11    1    3    3    0    0 -0.77248882854E+00 -0.63401691117E+01  0.68811758515E+01  0.93885603111E+01  0.51100000000E-03 0.  1.
        -12    1    3    3    0    0  0.18444766638E+01 -0.90404961393E+01  0.14230833980E+02  0.16960227014E+02  0.00000000000E+00 0.  1.
</event>
<event>
 7    1  0.2243370E-008  0.4614232E+02  0.7816164E-02  0.1320468E+00
        -11   -1    0    0    0    0  0.00000000000E+00  0.00000000000E+00  0.45593999997E+02  0.45594000000E+02  0.51100000000E-03 0. -1.
         11   -1    0    0    0    0 -0.00000000000E+00 -0.00000000000E+00 -0.45593999997E+02  0.45594000000E+02  0.51100000000E-03 0.  1.
    9900012    2    1    2    0    0  0.34887036580E+02 -0.14042957565E+02 -0.24795233121E+02  0.46142316921E+02  0.99999923396E+01 0.  0.
         12    1    1    2    0    0 -0.34887036580E+02  0.14042957565E+02  0.24795233121E+02  0.45045683079E+02  0.00000000000E+00 0. -1.
         11    1    3    3    0    0  0.12303066730E+02 -0.56019282262E+01 -0.56012195142E+01  0.14632864078E+02  0.51100000000E-03 0. -1.
        -11    1    3    3    0    0  0.20282669853E+02 -0.74165935281E+01 -0.19334570007E+02  0.28986516754E+02  0.51100000000E-03 0.  1.
        -12    1    3    3    0    0  0.23012999971E+01 -0.10244358112E+01  0.14055639999E+00  0.25229360890E+01  0.00000000000E+00 0.  1.
</event>
<event>
 7    1  0.2243370E-008  0.4614233E+02  0.7816164E-02  0.1320468E+00
        -11   -1    0    0    0    0  0.00000000000E+00  0.00000000000E+00  0.45593999997E+02  0.45594000000E+02  0.51100000000E-03 0.  1.
         11   -1    0    0    0    0 -0.00000000000E+00 -0.00000000000E+00 -0.45593999997E+02  0.45594000000E+02  0.51100000000E-03 0. -1.
    9900012    2    1    2    0    0  0.30001752829E+02  0.18376507225E+02  0.28130256620E+02  0.46142328420E+02  0.10000097192E+02 0.  0.
         12    1    1    2    0    0 -0.30001752829E+02 -0.18376507225E+02 -0.28130256620E+02  0.45045671580E+02  0.00000000000E+00 0. -1.
         11    1    3    3    0    0  0.36366526173E+01  0.44870933377E+01  0.84860319873E+01  0.10265085875E+02  0.51100000000E-03 0. -1.
        -11    1    3    3    0    0  0.57783840080E+01  0.46571500836E+01  0.56513727993E+01  0.93282786956E+01  0.51100000000E-03 0.  1.
         12    1    3    3    0    0  0.20586716204E+02  0.92322638035E+01  0.13992851834E+02  0.26548963849E+02  0.00000000000E+00 0. -1.
</event>
<event>
 7    1  0.2243370E-008  0.4614232E+02  0.7816164E-02  0.1320468E+00
        -11   -1    0    0    0    0  0.00000000000E+00  0.00000000000E+00  0.45593999997E+02  0.45594000000E+02  0.51100000000E-03 0. -1.
         11   -1    0    0    0    0 -0.00000000000E+00 -0.00000000000E+00 -0.45593999997E+02  0.45594000000E+02  0.51100000000E-03 0.  1.
    9900012    2    1    2    0    0 -0.11047423724E+02 -0.43632212958E+02 -0.18160587886E+01  0.46142315988E+02  0.99999838344E+01 0.  0.
         12    1    1    2    0    0  0.11047423724E+02  0.43632212958E+02  0.18160587886E+01  0.45045684012E+02  0.00000000000E+00 0. -1.
         11    1    3    3    0    0 -0.89442502395E+01 -0.33697238862E+02 -0.23327944573E+01  0.34942029842E+02  0.51100000000E-03 0. -1.
        -11    1    3    3    0    0 -0.12125855024E+01 -0.63851809367E+01 -0.19514880273E+01  0.67859564526E+01  0.51100000000E-03 0.  1.
         12    1    3    3    0    0 -0.89058798230E+00 -0.35497931597E+01  0.24682236959E+01  0.44143296936E+01  0.00000000000E+00 0. -1.
</event>
<event>
 7    1  0.2243370E-008  0.4614232E+02  0.7816164E-02  0.1320468E+00
        -11   -1    0    0    0    0  0.00000000000E+00  0.00000000000E+00  0.45593999997E+02  0.45594000000E+02  0.51100000000E-03 0.  1.
         11   -1    0    0    0    0 -0.00000000000E+00 -0.00000000000E+00 -0.45593999997E+02  0.45594000000E+02  0.51100000000E-03 0. -1.
    9900012    2    1    2    0    0 -0.13034791554E+02 -0.15350217696E+02  0.40293653393E+02  0.46142317877E+02  0.10000001059E+02 0.  0.
         12    1    1    2    0    0  0.13034791554E+02  0.15350217696E+02 -0.40293653393E+02  0.45045682123E+02  0.00000000000E+00 0. -1.
         11    1    3    3    0    0 -0.53967817531E+00  0.47616983235E+00  0.10596087215E+01  0.12809219905E+01  0.51100000000E-03 0. -1.
        -11    1    3    3    0    0 -0.49685752734E+01 -0.12352381467E+02  0.26676500945E+02  0.29814489281E+02  0.51100000000E-03 0.  1.
        -12    1    3    3    0    0 -0.75265381052E+01 -0.34740060606E+01  0.12557543727E+02  0.15046906606E+02  0.00000000000E+00 0.  1.
</event>
<event>
 7    1  0.2243370E-008  0.4614232E+02  0.7816164E-02  0.1320468E+00
        -11   -1    0    0    0    0  0.00000000000E+00  0.00000000000E+00  0.45593999997E+02  0.45594000000E+02  0.51100000000E-03 0.  1.
         11   -1    0    0    0    0 -0.00000000000E+00 -0.00000000000E+00 -0.45593999997E+02  0.45594000000E+02  0.51100000000E-03 0. -1.
    9900012    2    1    2    0    0 -0.22023863775E+02 -0.22177739845E+02  0.32437800248E+02  0.46142316465E+02  0.99999881810E+01 0.  0.
         12    1    1    2    0    0  0.22023863775E+02  0.22177739845E+02 -0.32437800248E+02  0.45045683535E+02  0.00000000000E+00 0. -1.
         11    1    3    3    0    0 -0.44730248082E+01 -0.16171939229E+01  0.71037441900E+01  0.85490612875E+01  0.51100000000E-03 0. -1.
        -11    1    3    3    0    0 -0.27907487269E+01 -0.70728273730E+01  0.89471041498E+01  0.11741543273E+02  0.51100000000E-03 0.  1.
        -12    1    3    3    0    0 -0.14760090240E+02 -0.13487718549E+02  0.16386951908E+02  0.25851711904E+02  0.00000000000E+00 0.  1.
</event>
<event>
 7    1  0.2243370E-008  0.4614232E+02  0.7816164E-02  0.1320468E+00
        -11   -1    0    0    0    0  0.00000000000E+00  0.00000000000E+00  0.45593999997E+02  0.45594000000E+02  0.51100000000E-03 0.  1.
         11   -1    0    0    0    0 -0.00000000000E+00 -0.00000000000E+00 -0.45593999997E+02  0.45594000000E+02  0.51100000000E-03 0. -1.
    9900012    2    1    2    0    0  0.18833675474E+01  0.11659186697E+02  0.43469873411E+02  0.46142316498E+02  0.99999884844E+01 0.  0.
         12    1    1    2    0    0 -0.18833675474E+01 -0.11659186697E+02 -0.43469873411E+02  0.45045683502E+02  0.00000000000E+00 0. -1.
         11    1    3    3    0    0  0.60939044702E+00  0.10759769209E+00  0.19523372278E+01  0.20480612522E+01  0.51100000000E-03 0. -1.
        -11    1    3    3    0    0  0.18444302907E+01  0.77710558118E+01  0.38219157580E+02  0.39044785028E+02  0.51100000000E-03 0.  1.
         12    1    3    3    0    0 -0.57045319029E+00  0.37805331936E+01  0.32983786034E+01  0.50494702179E+01  0.00000000000E+00 0. -1.
</event>
<event>
 7    1  0.2243370E-008  0.4614232E+02  0.7816164E-02  0.1320468E+00
        -11   -1    0    0    0    0  0.00000000000E+00  0.00000000000E+00  0.45593999997E+02  0.45594000000E+02  0.51100000000E-03 0.  1.
         11   -1    0    0    0    0 -0.00000000000E+00 -0.00000000000E+00 -0.45593999997E+02  0.45594000000E+02  0.51100000000E-03 0. -1.
    9900012    2    1    2    0    0  0.12531946947E+02 -0.90074359134E+01  0.42319380381E+02  0.46142317057E+02  0.99999935767E+01 0.  0.
         12    1    1    2    0    0 -0.12531946947E+02  0.90074359134E+01 -0.42319380381E+02  0.45045682943E+02  0.00000000000E+00 0. -1.
         11    1    3    3    0    0  0.48639248073E+01  0.14226512627E+01  0.10308745547E+02  0.11487033393E+02  0.51100000000E-03 0. -1.
        -11    1    3    3    0    0  0.36547016992E+00 -0.14509488723E+01  0.20588010123E+01  0.25450899679E+01  0.51100000000E-03 0.  1.
        -12    1    3    3    0    0  0.73025519699E+01 -0.89791383039E+01  0.29951833821E+02  0.32110193696E+02  0.00000000000E+00 0.  1.
</event>
<event>
 7    1  0.2243370E-008  0.4614232E+02  0.7816164E-02  0.1320468E+00
        -11   -1    0    0    0    0  0.00000000000E+00  0.00000000000E+00  0.45593999997E+02  0.45594000000E+02  0.51100000000E-03 0.  1.
         11   -1    0    0    0    0 -0.00000000000E+00 -0.00000000000E+00 -0.45593999997E+02  0.45594000000E+02  0.51100000000E-03 0. -1.
    9900012    2    1    2    0    0 -0.16044927526E+02 -0.19625671745E+02  0.37235824759E+02  0.46142319449E+02  0.10000015394E+02 0.  0.
         12    1    1    2    0    0  0.16044927526E+02  0.19625671745E+02 -0.37235824759E+02  0.45045680551E+02  0.00000000000E+00 0. -1.
         11    1    3    3    0    0 -0.25946845999E+01 -0.71492748353E+01  0.12155317884E+02  0.14338628664E+02  0.51100000000E-03 0. -1.
        -11    1    3    3    0    0 -0.75308660368E+01 -0.63298248495E+01  0.18765107866E+02  0.21187493938E+02  0.51100000000E-03 0.  1.
         12    1    3    3    0    0 -0.59193768890E+01 -0.61465720606E+01  0.63153990092E+01  0.10616196847E+02  0.00000000000E+00 0. -1.
</event>
<event>
 7    1  0.2243370E-008  0.4614232E+02  0.7816164E-02  0.1320468E+00
        -11   -1    0    0    0    0  0.00000000000E+00  0.00000000000E+00  0.45593999997E+02  0.45594000000E+02  0.51100000000E-03 0.  1.
         11   -1    0    0    0    0 -0.00000000000E+00 -0.00000000000E+00 -0.45593999997E+02  0.45594000000E+02  0.51100000000E-03 0. -1.
    9900012    2    1    2    0    0 -0.52950241737E+00  0.38549558120E+02  0.23297310343E+02  0.46142317928E+02  0.10000001525E+02 0.  0.
         12    1    1    2    0    0  0.52950241737E+00 -0.38549558120E+02 -0.23297310343E+02  0.45045682072E+02  0.00000000000E+00 0. -1.
         11    1    3    3    0    0  0.71572544228E+00  0.10669366789E+02  0.10104065527E+02  0.14711892843E+02  0.51100000000E-03 0. -1.
        -11    1    3    3    0    0  0.15803903579E+01  0.18736122454E+02  0.10262876946E+02  0.21421170877E+02  0.51100000000E-03 0.  1.
         12    1    3    3    0    0 -0.28256182175E+01  0.91440688769E+01  0.29303678702E+01  0.10009254208E+02  0.00000000000E+00 0. -1.
</event>
<event>
 7    1  0.2243370E-008  0.4614232E+02  0.7816164E-02  0.1320468E+00
        -11   -1    0    0    0    0  0.00000000000E+00  0.00000000000E+00  0.45593999997E+02  0.45594000000E+02  0.51100000000E-03 0.  1.
         11   -1    0    0    0    0 -0.00000000000E+00 -0.00000000000E+00 -0.45593999997E+02  0.45594000000E+02  0.51100000000E-03 0. -1.
    9900012    2    1    2    0    0 -0.15236013050E+02  0.35387535144E+02  0.23338803682E+02  0.46142317693E+02  0.99999993762E+01 0.  0.
         12    1    1    2    0    0  0.15236013050E+02 -0.35387535144E+02 -0.23338803682E+02  0.45045682307E+02  0.00000000000E+00 0. -1.
         11    1    3    3    0    0 -0.67051077420E+01  0.99545550721E+01  0.46875373494E+01  0.12885055032E+02  0.51100000000E-03 0. -1.
        -11    1    3    3    0    0 -0.85478848392E+01  0.25360307020E+02  0.19051109582E+02  0.32850514211E+02  0.51100000000E-03 0.  1.
        -12    1    3    3    0    0  0.16979531272E-01  0.72673051610E-01 -0.39984324938E+00  0.40674844927E+00  0.00000000000E+00 0.  1.
</event>
<event>
 7    1  0.2243370E-008  0.4614231E+02  0.7816164E-02  0.1320468E+00
        -11   -1    0    0    0    0  0.00000000000E+00  0.00000000000E+00  0.45593999997E+02  0.45594000000E+02  0.51100000000E-03 0. -1.
         11   -1    0    0    0    0 -0.00000000000E+00 -0.00000000000E+00 -0.45593999997E+02  0.45594000000E+02  0.51100000000E-03 0.  1.
    9900012    2    1    2    0    0  0.39420299010E+02  0.94298187190E+01 -0.19652794468E+02  0.46142314463E+02  0.99999699248E+01 0.  0.
         12    1    1    2    0    0 -0.39420299010E+02 -0.94298187190E+01  0.19652794468E+02  0.45045685537E+02  0.00000000000E+00 0. -1.
         11    1    3    3    0    0  0.31203884587E+01  0.13846096577E+01 -0.41729515355E+01  0.53914277160E+01  0.51100000000E-03 0. -1.
        -11    1    3    3    0    0  0.21130775945E+02  0.63641344182E+01 -0.11909451007E+02  0.25076820422E+02  0.51100000000E-03 0.  1.
        -12    1    3    3    0    0  0.15169134606E+02  0.16810746431E+01 -0.35703919253E+01  0.15674066325E+02  0.00000000000E+00 0.  1.
</event>
<event>
 7    1  0.2243370E-008  0.4614232E+02  0.7816164E-02  0.1320468E+00
        -11   -1    0    0    0    0  0.00000000000E+00  0.00000000000E+00  0.45593999997E+02  0.45594000000E+02  0.51100000000E-03 0.  1.
         11   -1    0    0    0    0 -0.00000000000E+00 -0.00000000000E+00 -0.45593999997E+02  0.45594000000E+02  0.51100000000E-03 0. -1.
    9900012    2    1    2    0    0 -0.13689044960E+00  0.17727918073E+02  0.41410333150E+02  0.46142317523E+02  0.99999978298E+01 0.  0.
         12    1    1    2    0    0  0.13689044960E+00 -0.17727918073E+02 -0.41410333150E+02  0.45045682477E+02  0.00000000000E+00 0. -1.
         11    1    3    3    0    0 -0.72445105662E+00  0.14011587052E+02  0.26632675747E+02  0.30102305871E+02  0.51100000000E-03 0.  1.
        -11    1    3    3    0    0  0.23998223379E+01  0.35244795477E+01  0.11824695807E+02  0.12569985463E+02  0.51100000000E-03 0. -1.
        -12    1    3    3    0    0 -0.18122617309E+01  0.19185147347E+00  0.29529615964E+01  0.34700261900E+01  0.00000000000E+00 0.  1.
</event>
<event>
 7    1  0.2243370E-008  0.4614232E+02  0.7816164E-02  0.1320468E+00
        -11   -1    0    0    0    0  0.00000000000E+00  0.00000000000E+00  0.45593999997E+02  0.45594000000E+02  0.51100000000E-03 0.  1.
         11   -1    0    0    0    0 -0.00000000000E+00 -0.00000000000E+00 -0.45593999997E+02  0.45594000000E+02  0.51100000000E-03 0. -1.
    9900012    2    1    2    0    0  0.39769072629E+02 -0.14372202116E+01  0.21106126682E+02  0.46142319594E+02  0.10000016712E+02 0.  0.
         12    1    1    2    0    0 -0.39769072629E+02  0.14372202116E+01 -0.21106126682E+02  0.45045680406E+02  0.00000000000E+00 0. -1.
         11    1    3    3    0    0  0.16655909157E+02 -0.72715220281E+00  0.82699780520E+01  0.18610228301E+02  0.51100000000E-03 0. -1.
        -11    1    3    3    0    0  0.23202637185E+02 -0.17048537981E+01  0.11776617373E+02  0.26075996929E+02  0.51100000000E-03 0.  1.
         12    1    3    3    0    0 -0.89473712796E-01  0.99478578923E+00  0.10595312578E+01  0.14560943644E+01  0.00000000000E+00 0. -1.
</event>
<event>
 7    1  0.2243370E-008  0.4614232E+02  0.7816164E-02  0.1320468E+00
        -11   -1    0    0    0    0  0.00000000000E+00  0.00000000000E+00  0.45593999997E+02  0.45594000000E+02  0.51100000000E-03 0.  1.
         11   -1    0    0    0    0 -0.00000000000E+00 -0.00000000000E+00 -0.45593999997E+02  0.45594000000E+02  0.51100000000E-03 0. -1.
    9900012    2    1    2    0    0 -0.13086039404E+02  0.29821113526E+02  0.31121860915E+02  0.46142318009E+02  0.10000002259E+02 0.  0.
         12    1    1    2    0    0  0.13086039404E+02 -0.29821113526E+02 -0.31121860915E+02  0.45045681991E+02  0.00000000000E+00 0. -1.
         11    1    3    3    0    0 -0.93113983515E+01  0.14650896350E+02  0.11720065632E+02  0.20945425319E+02  0.51100000000E-03 0. -1.
        -11    1    3    3    0    0 -0.27649832764E+01  0.50809610664E+01  0.87630425533E+01  0.10500105377E+02  0.51100000000E-03 0.  1.
         12    1    3    3    0    0 -0.10096577766E+01  0.10089256109E+02  0.10638752730E+02  0.14696787312E+02  0.00000000000E+00 0. -1.
</event>
<event>
 7    1  0.2243370E-008  0.4614232E+02  0.7816164E-02  0.1320468E+00
        -11   -1    0    0    0    0  0.00000000000E+00  0.00000000000E+00  0.45593999997E+02  0.45594000000E+02  0.51100000000E-03 0.  1.
         11   -1    0    0    0    0 -0.00000000000E+00 -0.00000000000E+00 -0.45593999997E+02  0.45594000000E+02  0.51100000000E-03 0. -1.
    9900012    2    1    2    0    0  0.31507255455E+02 -0.26170763964E+02  0.18748265669E+02  0.46142317651E+02  0.99999989925E+01 0.  0.
         12    1    1    2    0    0 -0.31507255455E+02  0.26170763964E+02 -0.18748265669E+02  0.45045682349E+02  0.00000000000E+00 0. -1.
         11    1    3    3    0    0  0.27573191279E+01 -0.34142506865E+01  0.46240188485E+01  0.63750660464E+01  0.51100000000E-03 0. -1.
        -11    1    3    3    0    0  0.24314582297E+02 -0.21757291015E+02  0.12419325931E+02  0.34911578043E+02  0.51100000000E-03 0.  1.
         12    1    3    3    0    0  0.44353540296E+01 -0.99922226243E+00  0.17049208898E+01  0.48556735617E+01  0.00000000000E+00 0. -1.
</event>
<event>
 7    1  0.2243370E-008  0.4614232E+02  0.7816164E-02  0.1320468E+00
        -11   -1    0    0    0    0  0.00000000000E+00  0.00000000000E+00  0.45593999997E+02  0.45594000000E+02  0.51100000000E-03 0.  1.
         11   -1    0    0    0    0 -0.00000000000E+00 -0.00000000000E+00 -0.45593999997E+02  0.45594000000E+02  0.51100000000E-03 0. -1.
    9900012    2    1    2    0    0  0.24381228180E+02  0.20698311548E+02  0.31721429241E+02  0.46142318058E+02  0.10000002710E+02 0.  0.
         12    1    1    2    0    0 -0.24381228180E+02 -0.20698311548E+02 -0.31721429241E+02  0.45045681942E+02  0.00000000000E+00 0. -1.
         11    1    3    3    0    0  0.65227550091E+01  0.43795616990E+01  0.58336282813E+01  0.97856074298E+01  0.51100000000E-03 0. -1.
        -11    1    3    3    0    0  0.18739383996E+02  0.15415027606E+02  0.24631184149E+02  0.34575754821E+02  0.51100000000E-03 0.  1.
        -12    1    3    3    0    0 -0.88091082579E+00  0.90372224302E+00  0.12566168115E+01  0.17809558070E+01  0.00000000000E+00 0.  1.
</event>
<event>
 7    1  0.2243370E-008  0.4614232E+02  0.7816164E-02  0.1320468E+00
        -11   -1    0    0    0    0  0.00000000000E+00  0.00000000000E+00  0.45593999997E+02  0.45594000000E+02  0.51100000000E-03 0. -1.
         11   -1    0    0    0    0 -0.00000000000E+00 -0.00000000000E+00 -0.45593999997E+02  0.45594000000E+02  0.51100000000E-03 0.  1.
    9900012    2    1    2    0    0 -0.25066404308E+02  0.35545959692E+02 -0.11716379248E+02  0.46142318541E+02  0.10000007116E+02 0.  0.
         12    1    1    2    0    0  0.25066404308E+02 -0.35545959692E+02  0.11716379248E+02  0.45045681459E+02  0.00000000000E+00 0. -1.
         11    1    3    3    0    0 -0.12953226431E+02  0.11495619010E+02 -0.21894008678E+01  0.17456483260E+02  0.51100000000E-03 0. -1.
        -11    1    3    3    0    0 -0.55172353227E+01  0.87221748684E+01 -0.44904527303E+01  0.11255238159E+02  0.51100000000E-03 0.  1.
         12    1    3    3    0    0 -0.65959425546E+01  0.15328165814E+02 -0.50365256500E+01  0.17430597122E+02  0.00000000000E+00 0. -1.
</event>
<event>
 7    1  0.2243370E-008  0.4614233E+02  0.7816164E-02  0.1320468E+00
        -11   -1    0    0    0    0  0.00000000000E+00  0.00000000000E+00  0.45593999997E+02  0.45594000000E+02  0.51100000000E-03 0.  1.
         11   -1    0    0    0    0 -0.00000000000E+00 -0.00000000000E+00 -0.45593999997E+02  0.45594000000E+02  0.51100000000E-03 0. -1.
    9900012    2    1    2    0    0 -0.11381571952E+02 -0.41662292951E+02  0.12799452079E+02  0.46142325318E+02  0.10000068911E+02 0.  0.
         12    1    1    2    0    0  0.11381571952E+02  0.41662292951E+02 -0.12799452079E+02  0.45045674682E+02  0.00000000000E+00 0. -1.
         11    1    3    3    0    0 -0.50250252140E+01 -0.90144762953E+01  0.39405548831E+01  0.11047155033E+02  0.51100000000E-03 0. -1.
        -11    1    3    3    0    0 -0.98309391916E+00 -0.16173209379E+02  0.70563293248E+01  0.17672887683E+02  0.51100000000E-03 0.  1.
        -12    1    3    3    0    0 -0.53734528187E+01 -0.16474607277E+02  0.18025678709E+01  0.17422282602E+02  0.00000000000E+00 0.  1.
</event>
<event>
 7    1  0.2243370E-008  0.4614232E+02  0.7816164E-02  0.1320468E+00
        -11   -1    0    0    0    0  0.00000000000E+00  0.00000000000E+00  0.45593999997E+02  0.45594000000E+02  0.51100000000E-03 0.  1.
         11   -1    0    0    0    0 -0.00000000000E+00 -0.00000000000E+00 -0.45593999997E+02  0.45594000000E+02  0.51100000000E-03 0. -1.
    9900012    2    1    2    0    0 -0.13699154098E+02  0.12853851584E+02  0.40941729122E+02  0.46142317553E+02  0.99999981051E+01 0.  0.
         12    1    1    2    0    0  0.13699154098E+02 -0.12853851584E+02 -0.40941729122E+02  0.45045682447E+02  0.00000000000E+00 0. -1.
         11    1    3    3    0    0 -0.40196901109E+01  0.94510230585E+01  0.18739242272E+02  0.21369111976E+02  0.51100000000E-03 0. -1.
        -11    1    3    3    0    0 -0.93020720135E+01  0.30280916392E+01  0.17565650304E+02  0.20105968109E+02  0.51100000000E-03 0.  1.
         12    1    3    3    0    0 -0.37739197406E+00  0.37473688668E+00  0.46368365456E+01  0.46672374684E+01  0.00000000000E+00 0. -1.
</event>
<event>
 7    1  0.2243370E-008  0.4614232E+02  0.7816164E-02  0.1320468E+00
        -11   -1    0    0    0    0  0.00000000000E+00  0.00000000000E+00  0.45593999997E+02  0.45594000000E+02  0.51100000000E-03 0.  1.
         11   -1    0    0    0    0 -0.00000000000E+00 -0.00000000000E+00 -0.45593999997E+02  0.45594000000E+02  0.51100000000E-03 0. -1.
    9900012    2    1    2    0    0  0.24056345501E+02  0.19380750694E+02  0.32784024256E+02  0.46142317601E+02  0.99999985427E+01 0.  0.
         12    1    1    2    0    0 -0.24056345501E+02 -0.19380750694E+02 -0.32784024256E+02  0.45045682399E+02  0.00000000000E+00 0. -1.
         11    1    3    3    0    0  0.92538619615E+01  0.68798526999E+01  0.97716360191E+01  0.15114602381E+02  0.51100000000E-03 0. -1.
        -11    1    3    3    0    0  0.72186281836E+01  0.93895566820E+01  0.17567011883E+02  0.21186606012E+02  0.51100000000E-03 0.  1.
        -12    1    3    3    0    0  0.75838553559E+01  0.31113413119E+01  0.54453763539E+01  0.98411092085E+01  0.00000000000E+00 0.  1.
</event>
<event>
 7    1  0.2243370E-008  0.4614232E+02  0.7816164E-02  0.1320468E+00
        -11   -1    0    0    0    0  0.00000000000E+00  0.00000000000E+00  0.45593999997E+02  0.45594000000E+02  0.51100000000E-03 0.  1.
         11   -1    0    0    0    0 -0.00000000000E+00 -0.00000000000E+00 -0.45593999997E+02  0.45594000000E+02  0.51100000000E-03 0. -1.
    9900012    2    1    2    0    0 -0.49419006059E+01 -0.13550734449E+02  0.42673981749E+02  0.46142317587E+02  0.99999984145E+01 0.  0.
         12    1    1    2    0    0  0.49419006059E+01  0.13550734449E+02 -0.42673981749E+02  0.45045682413E+02  0.00000000000E+00 0. -1.
         11    1    3    3    0    0 -0.25393180774E+01 -0.51347122767E+01  0.58055560187E+01  0.81558498889E+01  0.51100000000E-03 0. -1.
        -11    1    3    3    0    0 -0.24399601405E+01 -0.49814180294E+01  0.19102086790E+02  0.19891145042E+02  0.51100000000E-03 0.  1.
         12    1    3    3    0    0  0.37377612046E-01 -0.34346041425E+01  0.17766338940E+02  0.18095322656E+02  0.00000000000E+00 0. -1.
</event>
<event>
 7    1  0.2243370E-008  0.4614232E+02  0.7816164E-02  0.1320468E+00
        -11   -1    0    0    0    0  0.00000000000E+00  0.00000000000E+00  0.45593999997E+02  0.45594000000E+02  0.51100000000E-03 0.  1.
         11   -1    0    0    0    0 -0.00000000000E+00 -0.00000000000E+00 -0.45593999997E+02  0.45594000000E+02  0.51100000000E-03 0. -1.
    9900012    2    1    2    0    0  0.15895698772E+02  0.30273045459E+02  0.29325466805E+02  0.46142317364E+02  0.99999963793E+01 0.  0.
         12    1    1    2    0    0 -0.15895698772E+02 -0.30273045459E+02 -0.29325466805E+02  0.45045682636E+02  0.00000000000E+00 0. -1.
         11    1    3    3    0    0  0.14114029289E+01  0.55471184317E+01  0.44407434319E+01  0.72445002320E+01  0.51100000000E-03 0. -1.
        -11    1    3    3    0    0  0.10344612445E+02  0.13156871576E+02  0.96280631468E+01  0.19308388760E+02  0.51100000000E-03 0.  1.
         12    1    3    3    0    0  0.41396833988E+01  0.11569055451E+02  0.15256660226E+02  0.19589428372E+02  0.00000000000E+00 0. -1.
</event>
<event>
 7    1  0.2243370E-008  0.4614232E+02  0.7816164E-02  0.1320468E+00
        -11   -1    0    0    0    0  0.00000000000E+00  0.00000000000E+00  0.45593999997E+02  0.45594000000E+02  0.51100000000E-03 0. -1.
         11   -1    0    0    0    0 -0.00000000000E+00 -0.00000000000E+00 -0.45593999997E+02  0.45594000000E+02  0.51100000000E-03 0.  1.
    9900012    2    1    2    0    0 -0.76285731612E+01 -0.33989997024E+02  0.28558684799E+02  0.46142317592E+02  0.99999984566E+01 0.  0.
         12    1    1    2    0    0  0.76285731612E+01  0.33989997024E+02 -0.28558684799E+02  0.45045682408E+02  0.00000000000E+00 0. -1.
         11    1    3    3    0    0  0.39939466243E+00  0.45470022728E+00  0.35032568023E+00  0.69928301596E+00  0.51100000000E-03 0. -1.
        -11    1    3    3    0    0 -0.32919331686E+01 -0.87227052745E+01  0.93078688329E+01  0.13174172982E+02  0.51100000000E-03 0.  1.
        -12    1    3    3    0    0 -0.47360346550E+01 -0.25721991977E+02  0.18900490285E+02  0.32268861594E+02  0.00000000000E+00 0.  1.
</event>
<event>
 7    1  0.2243370E-008  0.4614232E+02  0.7816164E-02  0.1320468E+00
        -11   -1    0    0    0    0  0.00000000000E+00  0.00000000000E+00  0.45593999997E+02  0.45594000000E+02  0.51100000000E-03 0.  1.
         11   -1    0    0    0    0 -0.00000000000E+00 -0.00000000000E+00 -0.45593999997E+02  0.45594000000E+02  0.51100000000E-03 0. -1.
    9900012    2    1    2    0    0 -0.96216649996E+01  0.23556100816E+02  0.37170512501E+02  0.46142319601E+02  0.10000016780E+02 0.  0.
         12    1    1    2    0    0  0.96216649996E+01 -0.23556100816E+02 -0.37170512501E+02  0.45045680399E+02  0.00000000000E+00 0. -1.
         11    1    3    3    0    0 -0.51761555741E+01  0.41788378432E+01  0.93234086688E+01  0.11453437114E+02  0.51100000000E-03 0. -1.
        -11    1    3    3    0    0 -0.17174436807E+01  0.12541867058E+02  0.21596214939E+02  0.25032869233E+02  0.51100000000E-03 0.  1.
        -12    1    3    3    0    0 -0.27280657448E+01  0.68353959147E+01  0.62508888928E+01  0.96560132543E+01  0.00000000000E+00 0.  1.
</event>
<event>
 7    1  0.2243370E-008  0.4614231E+02  0.7816164E-02  0.1320468E+00
        -11   -1    0    0    0    0  0.00000000000E+00  0.00000000000E+00  0.45593999997E+02  0.45594000000E+02  0.51100000000E-03 0.  1.
         11   -1    0    0    0    0 -0.00000000000E+00 -0.00000000000E+00 -0.45593999997E+02  0.45594000000E+02  0.51100000000E-03 0. -1.
    9900012    2    1    2    0    0 -0.27748286695E+02  0.20748536862E+02  0.28786187458E+02  0.46142314471E+02  0.99999699960E+01 0.  0.
         12    1    1    2    0    0  0.27748286695E+02 -0.20748536862E+02 -0.28786187458E+02  0.45045685529E+02  0.00000000000E+00 0. -1.
         11    1    3    3    0    0 -0.10916420279E+02  0.71217346652E+01  0.67378769986E+01  0.14672638585E+02  0.51100000000E-03 0. -1.
        -11    1    3    3    0    0 -0.13128200488E+01 -0.47205341252E+00  0.21541504157E+01  0.25664557622E+01  0.51100000000E-03 0.  1.
        -12    1    3    3    0    0 -0.15519046368E+02  0.14098855609E+02  0.19894160044E+02  0.28903220123E+02  0.00000000000E+00 0.  1.
</event>
<event>
 7    1  0.2243370E-008  0.4614232E+02  0.7816164E-02  0.1320468E+00
        -11   -1    0    0    0    0  0.00000000000E+00  0.00000000000E+00  0.45593999997E+02  0.45594000000E+02  0.51100000000E-03 0. -1.
         11   -1    0    0    0    0 -0.00000000000E+00 -0.00000000000E+00 -0.45593999997E+02  0.45594000000E+02  0.51100000000E-03 0.  1.
    9900012    2    1    2    0    0  0.41205533797E+02 -0.71612671447E+01 -0.16731219856E+02  0.46142317849E+02  0.10000000798E+02 0.  0.
         12    1    1    2    0    0 -0.41205533797E+02  0.71612671447E+01  0.16731219856E+02  0.45045682151E+02  0.00000000000E+00 0. -1.
         11    1    3    3    0    0  0.69134634866E+01 -0.24768663605E+01  0.56983404038E+00  0.73658370497E+01  0.51100000000E-03 0. -1.
        -11    1    3    3    0    0  0.23709043818E+02 -0.33383609499E+01 -0.13251966254E+02  0.27365635795E+02  0.51100000000E-03 0.  1.
        -12    1    3    3    0    0  0.10583026492E+02 -0.13460398343E+01 -0.40490876426E+01  0.11410845004E+02  0.00000000000E+00 0.  1.
</event>
<event>
 7    1  0.2243370E-008  0.4614232E+02  0.7816164E-02  0.1320468E+00
        -11   -1    0    0    0    0  0.00000000000E+00  0.00000000000E+00  0.45593999997E+02  0.45594000000E+02  0.51100000000E-03 0. -1.
         11   -1    0    0    0    0 -0.00000000000E+00 -0.00000000000E+00 -0.45593999997E+02  0.45594000000E+02  0.51100000000E-03 0.  1.
    9900012    2    1    2    0    0 -0.38440929207E+02  0.91993884156E+01 -0.21605080916E+02  0.46142319776E+02  0.10000018370E+02 0.  0.
         12    1    1    2    0    0  0.38440929207E+02 -0.91993884156E+01  0.21605080916E+02  0.45045680224E+02  0.00000000000E+00 0. -1.
         11    1    3    3    0    0 -0.20409408438E+01 -0.31711641229E+00 -0.23024544205E+01  0.30931050688E+01  0.51100000000E-03 0. -1.
        -11    1    3    3    0    0 -0.26836899533E+02  0.83124539845E+01 -0.17891222471E+02  0.33307835558E+02  0.51100000000E-03 0.  1.
        -12    1    3    3    0    0 -0.95630888301E+01  0.12040508435E+01 -0.14114040243E+01  0.97413791491E+01  0.00000000000E+00 0.  1.
</event>
<event>
 7    1  0.2243370E-008  0.4614232E+02  0.7816164E-02  0.1320468E+00
        -11   -1    0    0    0    0  0.00000000000E+00  0.00000000000E+00  0.45593999997E+02  0.45594000000E+02  0.51100000000E-03 0.  1.
         11   -1    0    0    0    0 -0.00000000000E+00 -0.00000000000E+00 -0.45593999997E+02  0.45594000000E+02  0.51100000000E-03 0. -1.
    9900012    2    1    2    0    0 -0.19228190133E+02 -0.72309736423E+01  0.40088690713E+02  0.46142318756E+02  0.10000009073E+02 0.  0.
         12    1    1    2    0    0  0.19228190133E+02  0.72309736423E+01 -0.40088690713E+02  0.45045681244E+02  0.00000000000E+00 0. -1.
         11    1    3    3    0    0 -0.99535071000E+00  0.33890351990E+00  0.49788354655E+01  0.50886522268E+01  0.51100000000E-03 0. -1.
        -11    1    3    3    0    0 -0.28367921745E+01 -0.27753128691E+01  0.25435695634E+01  0.47137562249E+01  0.51100000000E-03 0.  1.
        -12    1    3    3    0    0 -0.15396047248E+02 -0.47945642931E+01  0.32566285685E+02  0.36339910304E+02  0.00000000000E+00 0.  1.
</event>
<event>
 7    1  0.2243370E-008  0.4614232E+02  0.7816164E-02  0.1320468E+00
        -11   -1    0    0    0    0  0.00000000000E+00  0.00000000000E+00  0.45593999997E+02  0.45594000000E+02  0.51100000000E-03 0. -1.
         11   -1    0    0    0    0 -0.00000000000E+00 -0.00000000000E+00 -0.45593999997E+02  0.45594000000E+02  0.51100000000E-03 0.  1.
    9900012    2    1    2    0    0 -0.26405559627E+02  0.13134911760E+01 -0.36471011143E+02  0.46142317720E+02  0.99999996254E+01 0.  0.
         12    1    1    2    0    0  0.26405559627E+02 -0.13134911760E+01  0.36471011143E+02  0.45045682280E+02  0.00000000000E+00 0. -1.
         11    1    3    3    0    0  0.13613442628E+00 -0.12177858781E+01 -0.34591007230E+01  0.36697292952E+01  0.51100000000E-03 0. -1.
        -11    1    3    3    0    0 -0.80858011910E+01  0.82006885258E+00 -0.87717329301E+01  0.11958093188E+02  0.51100000000E-03 0.  1.
         12    1    3    3    0    0 -0.18455892862E+02  0.17112082016E+01 -0.24240177490E+02  0.30514495237E+02  0.00000000000E+00 0. -1.
</event>
<event>
 7    1  0.2243370E-008  0.4614232E+02  0.7816164E-02  0.1320468E+00
        -11   -1    0    0    0    0  0.00000000000E+00  0.00000000000E+00  0.45593999997E+02  0.45594000000E+02  0.51100000000E-03 0.  1.
         11   -1    0    0    0    0 -0.00000000000E+00 -0.00000000000E+00 -0.45593999997E+02  0.45594000000E+02  0.51100000000E-03 0. -1.
    9900012    2    1    2    0    0  0.13707359916E+02  0.22795019585E+02  0.36353937899E+02  0.46142318359E+02  0.10000005454E+02 0.  0.
         12    1    1    2    0    0 -0.13707359916E+02 -0.22795019585E+02 -0.36353937899E+02  0.45045681641E+02  0.00000000000E+00 0. -1.
         11    1    3    3    0    0  0.22781749890E+01  0.16584991919E+01  0.89824607892E+00  0.29576252517E+01  0.51100000000E-03 0. -1.
        -11    1    3    3    0    0  0.44275709943E+01  0.13397152331E+02  0.18365806747E+02  0.23160093549E+02  0.51100000000E-03 0.  1.
        -12    1    3    3    0    0  0.70016139325E+01  0.77393680620E+01  0.17089885073E+02  0.20024599558E+02  0.00000000000E+00 0.  1.
</event>
<event>
 7    1  0.2243370E-008  0.4614231E+02  0.7816164E-02  0.1320468E+00
        -11   -1    0    0    0    0  0.00000000000E+00  0.00000000000E+00  0.45593999997E+02  0.45594000000E+02  0.51100000000E-03 0.  1.
         11   -1    0    0    0    0 -0.00000000000E+00 -0.00000000000E+00 -0.45593999997E+02  0.45594000000E+02  0.51100000000E-03 0. -1.
    9900012    2    1    2    0    0 -0.39586767885E+02 -0.20060680594E+02  0.77182195270E+01  0.46142311970E+02  0.99999471910E+01 0.  0.
         12    1    1    2    0    0  0.39586767885E+02  0.20060680594E+02 -0.77182195270E+01  0.45045688030E+02  0.00000000000E+00 0. -1.
         11    1    3    3    0    0 -0.28614404010E+01  0.70795469078E+00  0.53432802166E+00  0.29957549480E+01  0.51100000000E-03 0. -1.
        -11    1    3    3    0    0 -0.10901017938E+02 -0.43587339257E+01  0.39134599631E+01  0.12375214046E+02  0.51100000000E-03 0.  1.
        -12    1    3    3    0    0 -0.25824309545E+02 -0.16409901359E+02  0.32704315422E+01  0.30771342976E+02  0.00000000000E+00 0.  1.
</event>
<event>
 7    1  0.2243370E-008  0.4614232E+02  0.7816164E-02  0.1320468E+00
        -11   -1    0    0    0    0  0.00000000000E+00  0.00000000000E+00  0.45593999997E+02  0.45594000000E+02  0.51100000000E-03 0.  1.
         11   -1    0    0    0    0 -0.00000000000E+00 -0.00000000000E+00 -0.45593999997E+02  0.45594000000E+02  0.51100000000E-03 0. -1.
    9900012    2    1    2    0    0  0.54424285493E+01 -0.44511305235E+02 -0.42704899782E+01  0.46142318665E+02  0.10000008244E+02 0.  0.
         12    1    1    2    0    0 -0.54424285493E+01  0.44511305235E+02  0.42704899782E+01  0.45045681335E+02  0.00000000000E+00 0. -1.
         11    1    3    3    0    0 -0.90661496646E+00 -0.13907895937E+02 -0.16829325366E+01  0.14038653150E+02  0.51100000000E-03 0. -1.
        -11    1    3    3    0    0  0.39011199369E+01 -0.15167546180E+02  0.20658025525E+01  0.15796858369E+02  0.51100000000E-03 0.  1.
         12    1    3    3    0    0  0.24479235789E+01 -0.15435863119E+02 -0.46533599942E+01  0.16306807146E+02  0.00000000000E+00 0. -1.
</event>
<event>
 7    1  0.2243370E-008  0.4614232E+02  0.7816164E-02  0.1320468E+00
        -11   -1    0    0    0    0  0.00000000000E+00  0.00000000000E+00  0.45593999997E+02  0.45594000000E+02  0.51100000000E-03 0.  1.
         11   -1    0    0    0    0 -0.00000000000E+00 -0.00000000000E+00 -0.45593999997E+02  0.45594000000E+02  0.51100000000E-03 0. -1.
    9900012    2    1    2    0    0  0.26292886342E+02 -0.88240050316E+01  0.35495556394E+02  0.46142318069E+02  0.10000002804E+02 0.  0.
         12    1    1    2    0    0 -0.26292886342E+02  0.88240050316E+01 -0.35495556394E+02  0.45045681931E+02  0.00000000000E+00 0. -1.
         11    1    3    3    0    0  0.81266348550E+01 -0.49136477954E+01  0.17082304367E+02  0.19544596478E+02  0.51100000000E-03 0. -1.
        -11    1    3    3    0    0  0.16868630237E+02 -0.21668542044E+01  0.16626503160E+02  0.23784165968E+02  0.51100000000E-03 0.  1.
         12    1    3    3    0    0  0.12976212495E+01 -0.17435030318E+01  0.17867488661E+01  0.28135556223E+01  0.00000000000E+00 0. -1.
</event>
<event>
 7    1  0.2243370E-008  0.4614232E+02  0.7816164E-02  0.1320468E+00
        -11   -1    0    0    0    0  0.00000000000E+00  0.00000000000E+00  0.45593999997E+02  0.45594000000E+02  0.51100000000E-03 0.  1.
         11   -1    0    0    0    0 -0.00000000000E+00 -0.00000000000E+00 -0.45593999997E+02  0.45594000000E+02  0.51100000000E-03 0. -1.
    9900012    2    1    2    0    0  0.42212381447E+02  0.89538860730E+01  0.12925009164E+02  0.46142322237E+02  0.10000040817E+02 0.  0.
         12    1    1    2    0    0 -0.42212381447E+02 -0.89538860730E+01 -0.12925009164E+02  0.45045677763E+02  0.00000000000E+00 0. -1.
         11    1    3    3    0    0  0.21439895540E+01  0.16317010310E+01  0.25481551184E+01  0.37084004949E+01  0.51100000000E-03 0. -1.
        -11    1    3    3    0    0  0.39998425307E+01 -0.42864643806E+00  0.24170568251E+01  0.46930418703E+01  0.51100000000E-03 0.  1.
        -12    1    3    3    0    0  0.36068549362E+02  0.77508314800E+01  0.79597972201E+01  0.37740879872E+02  0.00000000000E+00 0.  1.
</event>
<event>
 7    1  0.2243370E-008  0.4614232E+02  0.7816164E-02  0.1320468E+00
        -11   -1    0    0    0    0  0.00000000000E+00  0.00000000000E+00  0.45593999997E+02  0.45594000000E+02  0.51100000000E-03 0.  1.
         11   -1    0    0    0    0 -0.00000000000E+00 -0.00000000000E+00 -0.45593999997E+02  0.45594000000E+02  0.51100000000E-03 0. -1.
    9900012    2    1    2    0    0  0.24492444964E+02 -0.12631389401E+02  0.35632590557E+02  0.46142319094E+02  0.10000012152E+02 0.  0.
         12    1    1    2    0    0 -0.24492444964E+02  0.12631389401E+02 -0.35632590557E+02  0.45045680906E+02  0.00000000000E+00 0. -1.
         11    1    3    3    0    0  0.80423124164E+01 -0.28660611578E+01  0.13492031643E+02  0.15966465285E+02  0.51100000000E-03 0. -1.
        -11    1    3    3    0    0  0.83048400115E+01 -0.58631523851E+01  0.16933164872E+02  0.19750417625E+02  0.51100000000E-03 0.  1.
         12    1    3    3    0    0  0.81452925362E+01 -0.39021758583E+01  0.52073940412E+01  0.10425436184E+02  0.00000000000E+00 0. -1.
</event>
<event>
 7    1  0.2243370E-008  0.4614232E+02  0.7816164E-02  0.1320468E+00
        -11   -1    0    0    0    0  0.00000000000E+00  0.00000000000E+00  0.45593999997E+02  0.45594000000E+02  0.51100000000E-03 0. -1.
         11   -1    0    0    0    0 -0.00000000000E+00 -0.00000000000E+00 -0.45593999997E+02  0.45594000000E+02  0.51100000000E-03 0.  1.
    9900012    2    1    2    0    0  0.24415840255E+02 -0.34462634950E+02 -0.15662287830E+02  0.46142315155E+02  0.99999762394E+01 0.  0.
         12    1    1    2    0    0 -0.24415840255E+02  0.34462634950E+02  0.15662287830E+02  0.45045684845E+02  0.00000000000E+00 0. -1.
         11    1    3    3    0    0  0.67242775793E+01 -0.83342200804E+01 -0.85472437847E-01  0.10708988706E+02  0.51100000000E-03 0. -1.
        -11    1    3    3    0    0  0.87756611892E+01 -0.14891425893E+02 -0.65462089632E+01  0.18482955567E+02  0.51100000000E-03 0.  1.
         12    1    3    3    0    0  0.89159014863E+01 -0.11236988977E+02 -0.90306064291E+01  0.16950370882E+02  0.00000000000E+00 0. -1.
</event>
<event>
 7    1  0.2243370E-008  0.4614232E+02  0.7816164E-02  0.1320468E+00
        -11   -1    0    0    0    0  0.00000000000E+00  0.00000000000E+00  0.45593999997E+02  0.45594000000E+02  0.51100000000E-03 0. -1.
         11   -1    0    0    0    0 -0.00000000000E+00 -0.00000000000E+00 -0.45593999997E+02  0.45594000000E+02  0.51100000000E-03 0.  1.
    9900012    2    1    2    0    0  0.28023228512E+02 -0.33973831121E+02 -0.94652486511E+01  0.46142317973E+02  0.10000001929E+02 0.  0.
         12    1    1    2    0    0 -0.28023228512E+02  0.33973831121E+02  0.94652486511E+01  0.45045682027E+02  0.00000000000E+00 0. -1.
         11    1    3    3    0    0  0.33740661879E+01 -0.79974903810E+01  0.12045289107E+01  0.87632793629E+01  0.51100000000E-03 0. -1.
        -11    1    3    3    0    0  0.13328536240E+02 -0.14146766172E+02 -0.52769173781E+01  0.20140176978E+02  0.51100000000E-03 0.  1.
         12    1    3    3    0    0  0.11320626084E+02 -0.11829574568E+02 -0.53928601837E+01  0.17238861632E+02  0.00000000000E+00 0. -1.
</event>
<event>
 7    1  0.2243370E-008  0.4614232E+02  0.7816164E-02  0.1320468E+00
        -11   -1    0    0    0    0  0.00000000000E+00  0.00000000000E+00  0.45593999997E+02  0.45594000000E+02  0.51100000000E-03 0.  1.
         11   -1    0    0    0    0 -0.00000000000E+00 -0.00000000000E+00 -0.45593999997E+02  0.45594000000E+02  0.51100000000E-03 0. -1.
    9900012    2    1    2    0    0  0.38086092848E+01  0.28930844978E+02  0.34316383423E+02  0.46142317998E+02  0.10000002158E+02 0.  0.
         12    1    1    2    0    0 -0.38086092848E+01 -0.28930844978E+02 -0.34316383423E+02  0.45045682002E+02  0.00000000000E+00 0. -1.
         11    1    3    3    0    0 -0.22373005607E+01  0.10993297640E+02  0.12548789584E+02  0.16832415961E+02  0.51100000000E-03 0. -1.
        -11    1    3    3    0    0 -0.45489940720E-01  0.75989970514E+01  0.92211752156E+01  0.11948928744E+02  0.51100000000E-03 0.  1.
        -12    1    3    3    0    0  0.60913997863E+01  0.10338550286E+02  0.12546418623E+02  0.17360973292E+02  0.00000000000E+00 0.  1.
</event>
<event>
 7    1  0.2243370E-008  0.4614231E+02  0.7816164E-02  0.1320468E+00
        -11   -1    0    0    0    0  0.00000000000E+00  0.00000000000E+00  0.45593999997E+02  0.45594000000E+02  0.51100000000E-03 0.  1.
         11   -1    0    0    0    0 -0.00000000000E+00 -0.00000000000E+00 -0.45593999997E+02  0.45594000000E+02  0.51100000000E-03 0. -1.
    9900012    2    1    2    0    0 -0.31605305816E+02 -0.31136957760E+02  0.77915587206E+01  0.46142313397E+02  0.99999602012E+01 0.  0.
         12    1    1    2    0    0  0.31605305816E+02  0.31136957760E+02 -0.77915587206E+01  0.45045686603E+02  0.00000000000E+00 0. -1.
         11    1    3    3    0    0 -0.75304285407E+01 -0.45254754723E+01 -0.61293536365E+00  0.88069842896E+01  0.51100000000E-03 0. -1.
        -11    1    3    3    0    0 -0.44148035637E+01 -0.86609192460E+01  0.15406842283E+01  0.98425464614E+01  0.51100000000E-03 0.  1.
        -12    1    3    3    0    0 -0.19660073712E+02 -0.17950563041E+02  0.68638098559E+01  0.27492782646E+02  0.00000000000E+00 0.  1.
</event>
<event>
 7    1  0.2243370E-008  0.4614232E+02  0.7816164E-02  0.1320468E+00
        -11   -1    0    0    0    0  0.00000000000E+00  0.00000000000E+00  0.45593999997E+02  0.45594000000E+02  0.51100000000E-03 0. -1.
         11   -1    0    0    0    0 -0.00000000000E+00 -0.00000000000E+00 -0.45593999997E+02  0.45594000000E+02  0.51100000000E-03 0.  1.
    9900012    2    1    2    0    0 -0.30190011937E+02  0.13320674895E+02 -0.30663272875E+02  0.46142317590E+02  0.99999984389E+01 0.  0.
         12    1    1    2    0    0  0.30190011937E+02 -0.13320674895E+02  0.30663272875E+02  0.45045682410E+02  0.00000000000E+00 0. -1.
         11    1    3    3    0    0 -0.18371944215E+01 -0.43226507703E+00 -0.21215243070E+01  0.28395425839E+01  0.51100000000E-03 0. -1.
        -11    1    3    3    0    0 -0.29991645860E+01  0.28958924523E+01 -0.76158914793E+01  0.86823375076E+01  0.51100000000E-03 0.  1.
         12    1    3    3    0    0 -0.25353652929E+02  0.10857047520E+02 -0.20925857088E+02  0.34620437498E+02  0.00000000000E+00 0. -1.
</event>
<event>
 7    1  0.2243370E-008  0.4614232E+02  0.7816164E-02  0.1320468E+00
        -11   -1    0    0    0    0  0.00000000000E+00  0.00000000000E+00  0.45593999997E+02  0.45594000000E+02  0.51100000000E-03 0.  1.
         11   -1    0    0    0    0 -0.00000000000E+00 -0.00000000000E+00 -0.45593999997E+02  0.45594000000E+02  0.51100000000E-03 0. -1.
    9900012    2    1    2    0    0  0.42204589507E+02  0.93692993843E+01  0.12653159920E+02  0.46142316496E+02  0.99999884642E+01 0.  0.
         12    1    1    2    0    0 -0.42204589507E+02 -0.93692993843E+01 -0.12653159920E+02  0.45045683504E+02  0.00000000000E+00 0. -1.
         11    1    3    3    0    0  0.24671846211E+02  0.48910824392E+01  0.10268679456E+02  0.27167415426E+02  0.51100000000E-03 0. -1.
        -11    1    3    3    0    0  0.30407165166E+01  0.30242576034E+00  0.24124278517E+01  0.38932283102E+01  0.51100000000E-03 0.  1.
        -12    1    3    3    0    0  0.14492026778E+02  0.41757911847E+01 -0.27947387691E-01  0.15081672759E+02  0.00000000000E+00 0.  1.
</event>
<event>
 7    1  0.2243370E-008  0.4614232E+02  0.7816164E-02  0.1320468E+00
        -11   -1    0    0    0    0  0.00000000000E+00  0.00000000000E+00  0.45593999997E+02  0.45594000000E+02  0.51100000000E-03 0. -1.
         11   -1    0    0    0    0 -0.00000000000E+00 -0.00000000000E+00 -0.45593999997E+02  0.45594000000E+02  0.51100000000E-03 0.  1.
    9900012    2    1    2    0    0 -0.32528208598E+02 -0.26935518711E+02 -0.15668662767E+02  0.46142317457E+02  0.99999972312E+01 0.  0.
         12    1    1    2    0    0  0.32528208598E+02  0.26935518711E+02  0.15668662767E+02  0.45045682543E+02  0.00000000000E+00 0. -1.
         11    1    3    3    0    0 -0.34254512243E+00 -0.23575073901E+01  0.44793555609E+00  0.24240100616E+01  0.51100000000E-03 0. -1.
        -11    1    3    3    0    0 -0.22975441999E+02 -0.15962736647E+02 -0.10085158482E+02  0.29738700681E+02  0.51100000000E-03 0.  1.
         12    1    3    3    0    0 -0.92102214760E+01 -0.86152746736E+01 -0.60314398413E+01  0.13979606715E+02  0.00000000000E+00 0. -1.
</event>
<event>
 7    1  0.2243370E-008  0.4614232E+02  0.7816164E-02  0.1320468E+00
        -11   -1    0    0    0    0  0.00000000000E+00  0.00000000000E+00  0.45593999997E+02  0.45594000000E+02  0.51100000000E-03 0.  1.
         11   -1    0    0    0    0 -0.00000000000E+00 -0.00000000000E+00 -0.45593999997E+02  0.45594000000E+02  0.51100000000E-03 0. -1.
    9900012    2    1    2    0    0  0.15092298390E+02  0.24368022025E+02  0.34749612947E+02  0.46142316877E+02  0.99999919367E+01 0.  0.
         12    1    1    2    0    0 -0.15092298390E+02 -0.24368022025E+02 -0.34749612947E+02  0.45045683123E+02  0.00000000000E+00 0. -1.
         11    1    3    3    0    0  0.13765580191E+00  0.27096333688E+01  0.50711180583E+01  0.57512868765E+01  0.51100000000E-03 0. -1.
        -11    1    3    3    0    0  0.83708367919E+01  0.12681875316E+02  0.22480995695E+02  0.27134775434E+02  0.51100000000E-03 0.  1.
        -12    1    3    3    0    0  0.65838057961E+01  0.89765133396E+01  0.71974991929E+01  0.13256254566E+02  0.00000000000E+00 0.  1.
</event>
<event>
 7    1  0.2243370E-008  0.4614232E+02  0.7816164E-02  0.1320468E+00
        -11   -1    0    0    0    0  0.00000000000E+00  0.00000000000E+00  0.45593999997E+02  0.45594000000E+02  0.51100000000E-03 0.  1.
         11   -1    0    0    0    0 -0.00000000000E+00 -0.00000000000E+00 -0.45593999997E+02  0.45594000000E+02  0.51100000000E-03 0. -1.
    9900012    2    1    2    0    0 -0.27083338670E-01 -0.18466894870E+02  0.41086327728E+02  0.46142320231E+02  0.10000022522E+02 0.  0.
         12    1    1    2    0    0  0.27083338670E-01  0.18466894870E+02 -0.41086327728E+02  0.45045679769E+02  0.00000000000E+00 0. -1.
         11    1    3    3    0    0  0.18073831520E+01 -0.16177330126E+01  0.36664065431E+01  0.43961609569E+01  0.51100000000E-03 0. -1.
        -11    1    3    3    0    0 -0.46756147010E+01 -0.10982266873E+02  0.22680276560E+02  0.25629407008E+02  0.51100000000E-03 0.  1.
        -12    1    3    3    0    0  0.28411482104E+01 -0.58668949851E+01  0.14739644625E+02  0.16116752266E+02  0.00000000000E+00 0.  1.
</event>
<event>
 7    1  0.2243370E-008  0.4614232E+02  0.7816164E-02  0.1320468E+00
        -11   -1    0    0    0    0  0.00000000000E+00  0.00000000000E+00  0.45593999997E+02  0.45594000000E+02  0.51100000000E-03 0.  1.
         11   -1    0    0    0    0 -0.00000000000E+00 -0.00000000000E+00 -0.45593999997E+02  0.45594000000E+02  0.51100000000E-03 0. -1.
    9900012    2    1    2    0    0  0.17595869955E+02  0.32217863647E+02  0.26105711367E+02  0.46142317150E+02  0.99999944293E+01 0.  0.
         12    1    1    2    0    0 -0.17595869955E+02 -0.32217863647E+02 -0.26105711367E+02  0.45045682850E+02  0.00000000000E+00 0. -1.
         11    1    3    3    0    0  0.85029051178E+01  0.13916855162E+02  0.10362253336E+02  0.19322384623E+02  0.51100000000E-03 0. -1.
        -11    1    3    3    0    0  0.95693225813E+01  0.18063021545E+02  0.13459060135E+02  0.24474292268E+02  0.51100000000E-03 0.  1.
         12    1    3    3    0    0 -0.47635774424E+00  0.23798693919E+00  0.22843978953E+01  0.23456402597E+01  0.00000000000E+00 0. -1.
</event>
<event>
 7    1  0.2243370E-008  0.4614232E+02  0.7816164E-02  0.1320468E+00
        -11   -1    0    0    0    0  0.00000000000E+00  0.00000000000E+00  0.45593999997E+02  0.45594000000E+02  0.51100000000E-03 0.  1.
         11   -1    0    0    0    0 -0.00000000000E+00 -0.00000000000E+00 -0.45593999997E+02  0.45594000000E+02  0.51100000000E-03 0. -1.
    9900012    2    1    2    0    0 -0.18852181129E+02 -0.96748436629E+01  0.39750550481E+02  0.46142316558E+02  0.99999890312E+01 0.  0.
         12    1    1    2    0    0  0.18852181129E+02  0.96748436629E+01 -0.39750550481E+02  0.45045683442E+02  0.00000000000E+00 0. -1.
         11    1    3    3    0    0 -0.43815971707E+01 -0.64575693188E+01  0.85730762098E+01  0.11592938852E+02  0.51100000000E-03 0. -1.
        -11    1    3    3    0    0 -0.70554350603E+01 -0.18300300936E+01  0.16797446346E+02  0.18310717573E+02  0.51100000000E-03 0.  1.
         12    1    3    3    0    0 -0.74151488981E+01 -0.13872442504E+01  0.14380027925E+02  0.16238660133E+02  0.00000000000E+00 0. -1.
</event>
<event>
 7    1  0.2243370E-008  0.4614232E+02  0.7816164E-02  0.1320468E+00
        -11   -1    0    0    0    0  0.00000000000E+00  0.00000000000E+00  0.45593999997E+02  0.45594000000E+02  0.51100000000E-03 0.  1.
         11   -1    0    0    0    0 -0.00000000000E+00 -0.00000000000E+00 -0.45593999997E+02  0.45594000000E+02  0.51100000000E-03 0. -1.
    9900012    2    1    2    0    0 -0.25115764523E+02 -0.31059160939E+02  0.20824037016E+02  0.46142316261E+02  0.99999863250E+01 0.  0.
         12    1    1    2    0    0  0.25115764523E+02  0.31059160939E+02 -0.20824037016E+02  0.45045683739E+02  0.00000000000E+00 0. -1.
         11    1    3    3    0    0 -0.76903013250E+01 -0.41142433465E+01  0.45270733755E+01  0.98266029934E+01  0.51100000000E-03 0. -1.
        -11    1    3    3    0    0 -0.10575998767E+02 -0.11911491447E+02  0.82964061661E+01  0.17960115087E+02  0.51100000000E-03 0.  1.
         12    1    3    3    0    0 -0.68494644310E+01 -0.15033426146E+02  0.80005574741E+01  0.18355598181E+02  0.00000000000E+00 0. -1.
</event>
<event>
 7    1  0.2243370E-008  0.4614232E+02  0.7816164E-02  0.1320468E+00
        -11   -1    0    0    0    0  0.00000000000E+00  0.00000000000E+00  0.45593999997E+02  0.45594000000E+02  0.51100000000E-03 0.  1.
         11   -1    0    0    0    0 -0.00000000000E+00 -0.00000000000E+00 -0.45593999997E+02  0.45594000000E+02  0.51100000000E-03 0. -1.
    9900012    2    1    2    0    0 -0.47963992362E+01  0.13800525173E+02  0.42610483661E+02  0.46142320313E+02  0.10000023267E+02 0.  0.
         12    1    1    2    0    0  0.47963992362E+01 -0.13800525173E+02 -0.42610483661E+02  0.45045679687E+02  0.00000000000E+00 0. -1.
         11    1    3    3    0    0  0.54000765782E+00  0.33056799840E+01  0.16432738019E+02  0.16770629312E+02  0.51100000000E-03 0. -1.
        -11    1    3    3    0    0 -0.17197290872E+01  0.91031419847E+01  0.20516718492E+02  0.22511339366E+02  0.51100000000E-03 0.  1.
         12    1    3    3    0    0 -0.36166778068E+01  0.13917032042E+01  0.56610271494E+01  0.68603516348E+01  0.00000000000E+00 0. -1.
</event>
<event>
 7    1  0.2243370E-008  0.4614232E+02  0.7816164E-02  0.1320468E+00
        -11   -1    0    0    0    0  0.00000000000E+00  0.00000000000E+00  0.45593999997E+02  0.45594000000E+02  0.51100000000E-03 0.  1.
         11   -1    0    0    0    0 -0.00000000000E+00 -0.00000000000E+00 -0.45593999997E+02  0.45594000000E+02  0.51100000000E-03 0. -1.
    9900012    2    1    2    0    0 -0.22907241091E+02  0.18874292824E+02  0.33884109548E+02  0.46142317589E+02  0.99999984350E+01 0.  0.
         12    1    1    2    0    0  0.22907241091E+02 -0.18874292824E+02 -0.33884109548E+02  0.45045682411E+02  0.00000000000E+00 0. -1.
         11    1    3    3    0    0 -0.54179390841E+01  0.21176761581E+01  0.11747890553E+02  0.13109216183E+02  0.51100000000E-03 0. -1.
        -11    1    3    3    0    0 -0.91572490032E+01  0.11239330010E+02  0.13876949045E+02  0.20068569043E+02  0.51100000000E-03 0.  1.
        -12    1    3    3    0    0 -0.83320530033E+01  0.55172866552E+01  0.82592699495E+01  0.12964532363E+02  0.00000000000E+00 0.  1.
</event>
<event>
 7    1  0.2243370E-008  0.4614232E+02  0.7816164E-02  0.1320468E+00
        -11   -1    0    0    0    0  0.00000000000E+00  0.00000000000E+00  0.45593999997E+02  0.45594000000E+02  0.51100000000E-03 0.  1.
         11   -1    0    0    0    0 -0.00000000000E+00 -0.00000000000E+00 -0.45593999997E+02  0.45594000000E+02  0.51100000000E-03 0. -1.
    9900012    2    1    2    0    0 -0.39589687332E+02 -0.78006338847E+01 -0.20022992009E+02  0.46142318287E+02  0.10000004793E+02 0.  0.
         12    1    1    2    0    0  0.39589687332E+02  0.78006338847E+01  0.20022992009E+02  0.45045681713E+02  0.00000000000E+00 0. -1.
         11    1    3    3    0    0 -0.14371725130E+02 -0.29692435537E+01 -0.76750268047E+01  0.16561066609E+02  0.51100000000E-03 0. -1.
        -11    1    3    3    0    0 -0.86302858054E+01 -0.52102338610E+01 -0.29095654225E+01  0.10492565996E+02  0.51100000000E-03 0.  1.
        -12    1    3    3    0    0 -0.16587676396E+02  0.37884353000E+00 -0.94383997813E+01  0.19088685682E+02  0.00000000000E+00 0.  1.
</event>
<event>
 7    1  0.2243370E-008  0.4614232E+02  0.7816164E-02  0.1320468E+00
        -11   -1    0    0    0    0  0.00000000000E+00  0.00000000000E+00  0.45593999997E+02  0.45594000000E+02  0.51100000000E-03 0.  1.
         11   -1    0    0    0    0 -0.00000000000E+00 -0.00000000000E+00 -0.45593999997E+02  0.45594000000E+02  0.51100000000E-03 0. -1.
    9900012    2    1    2    0    0 -0.36581344589E+02  0.28701688275E+01  0.26128162111E+02  0.46142317673E+02  0.99999991978E+01 0.  0.
         12    1    1    2    0    0  0.36581344589E+02 -0.28701688275E+01 -0.26128162111E+02  0.45045682327E+02  0.00000000000E+00 0. -1.
         11    1    3    3    0    0 -0.24467858450E+01  0.32907578863E+00  0.78056299580E+00  0.25892722332E+01  0.51100000000E-03 0. -1.
        -11    1    3    3    0    0 -0.12650942222E+00 -0.38654643162E+00 -0.56607709875E+00  0.69704111827E+00  0.51100000000E-03 0.  1.
        -12    1    3    3    0    0 -0.34008049321E+02  0.29276394705E+01  0.25913676214E+02  0.42856004322E+02  0.00000000000E+00 0.  1.
</event>
<event>
 7    1  0.2243370E-008  0.4614232E+02  0.7816164E-02  0.1320468E+00
        -11   -1    0    0    0    0  0.00000000000E+00  0.00000000000E+00  0.45593999997E+02  0.45594000000E+02  0.51100000000E-03 0. -1.
         11   -1    0    0    0    0 -0.00000000000E+00 -0.00000000000E+00 -0.45593999997E+02  0.45594000000E+02  0.51100000000E-03 0.  1.
    9900012    2    1    2    0    0 -0.24356996464E+02  0.36902001101E+02 -0.86077059619E+01  0.46142316922E+02  0.99999923527E+01 0.  0.
         12    1    1    2    0    0  0.24356996464E+02 -0.36902001101E+02  0.86077059619E+01  0.45045683078E+02  0.00000000000E+00 0. -1.
         11    1    3    3    0    0 -0.15000988600E+02  0.26928424124E+02 -0.29219504471E+01  0.30963001784E+02  0.51100000000E-03 0. -1.
        -11    1    3    3    0    0 -0.43133834557E+01  0.23753042854E+01 -0.24760199554E+01  0.55116261090E+01  0.51100000000E-03 0.  1.
        -12    1    3    3    0    0 -0.50426244079E+01  0.75982726918E+01 -0.32097355594E+01  0.96676890300E+01  0.00000000000E+00 0.  1.
</event>
<event>
 7    1  0.2243370E-008  0.4614232E+02  0.7816164E-02  0.1320468E+00
        -11   -1    0    0    0    0  0.00000000000E+00  0.00000000000E+00  0.45593999997E+02  0.45594000000E+02  0.51100000000E-03 0.  1.
         11   -1    0    0    0    0 -0.00000000000E+00 -0.00000000000E+00 -0.45593999997E+02  0.45594000000E+02  0.51100000000E-03 0. -1.
    9900012    2    1    2    0    0 -0.38758695092E+02  0.16390763204E+02  0.16069219998E+02  0.46142318798E+02  0.10000009452E+02 0.  0.
         12    1    1    2    0    0  0.38758695092E+02 -0.16390763204E+02 -0.16069219998E+02  0.45045681202E+02  0.00000000000E+00 0. -1.
         11    1    3    3    0    0 -0.47421607645E+01  0.72834914217E+00 -0.10847385969E+01  0.49188656491E+01  0.51100000000E-03 0. -1.
        -11    1    3    3    0    0 -0.47509679587E+01  0.21190838275E+01  0.30139386449E+01  0.60121576184E+01  0.51100000000E-03 0.  1.
        -12    1    3    3    0    0 -0.29265566369E+02  0.13543330235E+02  0.14140019950E+02  0.35211295530E+02  0.00000000000E+00 0.  1.
</event>
<event>
 7    1  0.2243370E-008  0.4614232E+02  0.7816164E-02  0.1320468E+00
        -11   -1    0    0    0    0  0.00000000000E+00  0.00000000000E+00  0.45593999997E+02  0.45594000000E+02  0.51100000000E-03 0. -1.
         11   -1    0    0    0    0 -0.00000000000E+00 -0.00000000000E+00 -0.45593999997E+02  0.45594000000E+02  0.51100000000E-03 0.  1.
    9900012    2    1    2    0    0 -0.37413390851E+02 -0.18590596899E+01 -0.25017903500E+02  0.46142318593E+02  0.10000007585E+02 0.  0.
         12    1    1    2    0    0  0.37413390851E+02  0.18590596899E+01  0.25017903500E+02  0.45045681407E+02  0.00000000000E+00 0. -1.
         11    1    3    3    0    0 -0.13783366685E+02 -0.32732851744E+01 -0.96255416983E+01  0.17127365420E+02  0.51100000000E-03 0. -1.
        -11    1    3    3    0    0 -0.52636706392E+01 -0.20105071770E+01 -0.18153675458E+01  0.59197911529E+01  0.51100000000E-03 0.  1.
         12    1    3    3    0    0 -0.18366353527E+02  0.34247326615E+01 -0.13576994256E+02  0.23095162020E+02  0.00000000000E+00 0. -1.
</event>
<event>
 7    1  0.2243370E-008  0.4614232E+02  0.7816164E-02  0.1320468E+00
        -11   -1    0    0    0    0  0.00000000000E+00  0.00000000000E+00  0.45593999997E+02  0.45594000000E+02  0.51100000000E-03 0.  1.
         11   -1    0    0    0    0 -0.00000000000E+00 -0.00000000000E+00 -0.45593999997E+02  0.45594000000E+02  0.51100000000E-03 0. -1.
    9900012    2    1    2    0    0 -0.14775167614E+02 -0.48874110639E+01  0.42271990294E+02  0.46142317318E+02  0.99999959568E+01 0.  0.
         12    1    1    2    0    0  0.14775167614E+02  0.48874110639E+01 -0.42271990294E+02  0.45045682682E+02  0.00000000000E+00 0. -1.
         11    1    3    3    0    0 -0.92771376532E+01  0.11761979760E+01  0.16538156999E+02  0.18998930546E+02  0.51100000000E-03 0. -1.
        -11    1    3    3    0    0 -0.15330560332E+01 -0.31806095458E+00  0.33829996285E+01  0.37277486931E+01  0.51100000000E-03 0.  1.
         12    1    3    3    0    0 -0.39649739278E+01 -0.57455480854E+01  0.22350833666E+02  0.23415638078E+02  0.00000000000E+00 0. -1.
</event>
<event>
 7    1  0.2243370E-008  0.4614232E+02  0.7816164E-02  0.1320468E+00
        -11   -1    0    0    0    0  0.00000000000E+00  0.00000000000E+00  0.45593999997E+02  0.45594000000E+02  0.51100000000E-03 0.  1.
         11   -1    0    0    0    0 -0.00000000000E+00 -0.00000000000E+00 -0.45593999997E+02  0.45594000000E+02  0.51100000000E-03 0. -1.
    9900012    2    1    2    0    0 -0.68907202949E+01 -0.44297637828E+02  0.43989347115E+01  0.46142319076E+02  0.10000011992E+02 0.  0.
         12    1    1    2    0    0  0.68907202949E+01  0.44297637828E+02 -0.43989347115E+01  0.45045680924E+02  0.00000000000E+00 0. -1.
         11    1    3    3    0    0 -0.21243335410E+01 -0.72420962770E+01  0.30164033271E+01  0.81276959079E+01  0.51100000000E-03 0. -1.
        -11    1    3    3    0    0 -0.27932735591E+01 -0.41211630421E+01 -0.20737122332E+00  0.49829072920E+01  0.51100000000E-03 0.  1.
         12    1    3    3    0    0 -0.19731131948E+01 -0.32934378509E+02  0.15899026077E+01  0.33031715876E+02  0.00000000000E+00 0. -1.
</event>
<event>
 7    1  0.2243370E-008  0.4614232E+02  0.7816164E-02  0.1320468E+00
        -11   -1    0    0    0    0  0.00000000000E+00  0.00000000000E+00  0.45593999997E+02  0.45594000000E+02  0.51100000000E-03 0. -1.
         11   -1    0    0    0    0 -0.00000000000E+00 -0.00000000000E+00 -0.45593999997E+02  0.45594000000E+02  0.51100000000E-03 0.  1.
    9900012    2    1    2    0    0 -0.17145410835E+02  0.26162855564E+02 -0.32413783544E+02  0.46142317770E+02  0.10000000078E+02 0.  0.
         12    1    1    2    0    0  0.17145410835E+02 -0.26162855564E+02  0.32413783544E+02  0.45045682230E+02  0.00000000000E+00 0. -1.
         11    1    3    3    0    0 -0.11311156004E+02  0.17747597340E+02 -0.18304286994E+02  0.27892048761E+02  0.51100000000E-03 0. -1.
        -11    1    3    3    0    0 -0.10757703154E+01 -0.28947775201E+00 -0.14902225941E+00  0.11239604243E+01  0.51100000000E-03 0.  1.
        -12    1    3    3    0    0 -0.47584845151E+01  0.87047359765E+01 -0.13960474291E+02  0.17126308584E+02  0.00000000000E+00 0.  1.
</event>
<event>
 7    1  0.2243370E-008  0.4614232E+02  0.7816164E-02  0.1320468E+00
        -11   -1    0    0    0    0  0.00000000000E+00  0.00000000000E+00  0.45593999997E+02  0.45594000000E+02  0.51100000000E-03 0.  1.
         11   -1    0    0    0    0 -0.00000000000E+00 -0.00000000000E+00 -0.45593999997E+02  0.45594000000E+02  0.51100000000E-03 0. -1.
    9900012    2    1    2    0    0 -0.35240943753E+02 -0.22715459111E+02  0.16468066769E+02  0.46142318494E+02  0.10000006682E+02 0.  0.
         12    1    1    2    0    0  0.35240943753E+02  0.22715459111E+02 -0.16468066769E+02  0.45045681506E+02  0.00000000000E+00 0. -1.
         11    1    3    3    0    0 -0.53478299151E+01 -0.57027299160E+01  0.50151792593E+01  0.92882956757E+01  0.51100000000E-03 0. -1.
        -11    1    3    3    0    0 -0.28038186873E+02 -0.15321595440E+02  0.86709607072E+01  0.33107050152E+02  0.51100000000E-03 0.  1.
         12    1    3    3    0    0 -0.18549269650E+01 -0.16911337555E+01  0.27819268026E+01  0.37469726660E+01  0.00000000000E+00 0. -1.
</event>
<event>
 7    1  0.2243370E-008  0.4614232E+02  0.7816164E-02  0.1320468E+00
        -11   -1    0    0    0    0  0.00000000000E+00  0.00000000000E+00  0.45593999997E+02  0.45594000000E+02  0.51100000000E-03 0.  1.
         11   -1    0    0    0    0 -0.00000000000E+00 -0.00000000000E+00 -0.45593999997E+02  0.45594000000E+02  0.51100000000E-03 0. -1.
    9900012    2    1    2    0    0  0.16647218185E+02 -0.41820859237E+02 -0.17318333404E+01  0.46142318882E+02  0.10000010224E+02 0.  0.
         12    1    1    2    0    0 -0.16647218185E+02  0.41820859237E+02  0.17318333404E+01  0.45045681118E+02  0.00000000000E+00 0. -1.
         11    1    3    3    0    0  0.14121595814E+02 -0.29458039620E+02 -0.46664987563E+01  0.32999572383E+02  0.51100000000E-03 0. -1.
        -11    1    3    3    0    0  0.13582037080E+01 -0.38471876276E+01  0.62801471725E-01  0.40803816292E+01  0.51100000000E-03 0.  1.
         12    1    3    3    0    0  0.11674186632E+01 -0.85156319895E+01  0.28718639442E+01  0.90623648696E+01  0.00000000000E+00 0. -1.
</event>
<event>
 7    1  0.2243370E-008  0.4614232E+02  0.7816164E-02  0.1320468E+00
        -11   -1    0    0    0    0  0.00000000000E+00  0.00000000000E+00  0.45593999997E+02  0.45594000000E+02  0.51100000000E-03 0.  1.
         11   -1    0    0    0    0 -0.00000000000E+00 -0.00000000000E+00 -0.45593999997E+02  0.45594000000E+02  0.51100000000E-03 0. -1.
    9900012    2    1    2    0    0  0.32793824726E+02  0.12943987918E+02  0.28038041065E+02  0.46142317520E+02  0.99999977974E+01 0.  0.
         12    1    1    2    0    0 -0.32793824726E+02 -0.12943987918E+02 -0.28038041065E+02  0.45045682480E+02  0.00000000000E+00 0. -1.
         11    1    3    3    0    0  0.86649838339E+01  0.30002840545E+01  0.31415065673E+01  0.96929207684E+01  0.51100000000E-03 0. -1.
        -11    1    3    3    0    0  0.17918957081E+02  0.53822217608E+01  0.19618528752E+02  0.27109850693E+02  0.51100000000E-03 0.  1.
         12    1    3    3    0    0  0.62098838110E+01  0.45614821027E+01  0.52780057458E+01  0.93395460581E+01  0.00000000000E+00 0. -1.
</event>
<event>
 7    1  0.2243370E-008  0.4614232E+02  0.7816164E-02  0.1320468E+00
        -11   -1    0    0    0    0  0.00000000000E+00  0.00000000000E+00  0.45593999997E+02  0.45594000000E+02  0.51100000000E-03 0.  1.
         11   -1    0    0    0    0 -0.00000000000E+00 -0.00000000000E+00 -0.45593999997E+02  0.45594000000E+02  0.51100000000E-03 0. -1.
    9900012    2    1    2    0    0  0.16639686538E+02 -0.34833913156E+01  0.41714510301E+02  0.46142317046E+02  0.99999934787E+01 0.  0.
         12    1    1    2    0    0 -0.16639686538E+02  0.34833913156E+01 -0.41714510301E+02  0.45045682954E+02  0.00000000000E+00 0. -1.
         11    1    3    3    0    0  0.95373017281E+01  0.22328428911E+00  0.11892802084E+02  0.15246269111E+02  0.51100000000E-03 0. -1.
        -11    1    3    3    0    0  0.31547278713E+01 -0.11107669442E+01  0.11716306362E+02  0.12184331995E+02  0.51100000000E-03 0.  1.
         12    1    3    3    0    0  0.39476569383E+01 -0.25959086605E+01  0.18105401855E+02  0.18711715940E+02  0.00000000000E+00 0. -1.
</event>
<event>
 7    1  0.2243370E-008  0.4614232E+02  0.7816164E-02  0.1320468E+00
        -11   -1    0    0    0    0  0.00000000000E+00  0.00000000000E+00  0.45593999997E+02  0.45594000000E+02  0.51100000000E-03 0.  1.
         11   -1    0    0    0    0 -0.00000000000E+00 -0.00000000000E+00 -0.45593999997E+02  0.45594000000E+02  0.51100000000E-03 0. -1.
    9900012    2    1    2    0    0 -0.18727699836E+02  0.39527504653E+02  0.10768617654E+02  0.46142317727E+02  0.99999996862E+01 0.  0.
         12    1    1    2    0    0  0.18727699836E+02 -0.39527504653E+02 -0.10768617654E+02  0.45045682273E+02  0.00000000000E+00 0. -1.
         11    1    3    3    0    0 -0.61939427933E+00  0.16265260582E+01  0.17242915014E+01  0.24499832110E+01  0.51100000000E-03 0. -1.
        -11    1    3    3    0    0 -0.11623737776E+02  0.21320119606E+02  0.89750549258E+01  0.25888421950E+02  0.51100000000E-03 0.  1.
         12    1    3    3    0    0 -0.64845677816E+01  0.16580858989E+02  0.69271226476E-01  0.17803912566E+02  0.00000000000E+00 0. -1.
</event>
<event>
 7    1  0.2243370E-008  0.4614232E+02  0.7816164E-02  0.1320468E+00
        -11   -1    0    0    0    0  0.00000000000E+00  0.00000000000E+00  0.45593999997E+02  0.45594000000E+02  0.51100000000E-03 0. -1.
         11   -1    0    0    0    0 -0.00000000000E+00 -0.00000000000E+00 -0.45593999997E+02  0.45594000000E+02  0.51100000000E-03 0.  1.
    9900012    2    1    2    0    0 -0.42211650496E+01  0.21434521056E+02 -0.39393609129E+02  0.46142319103E+02  0.10000012235E+02 0.  0.
         12    1    1    2    0    0  0.42211650496E+01 -0.21434521056E+02  0.39393609129E+02  0.45045680897E+02  0.00000000000E+00 0. -1.
         11    1    3    3    0    0 -0.18798690428E+01  0.16157159521E+00 -0.46777170586E+01  0.50439121860E+01  0.51100000000E-03 0. -1.
        -11    1    3    3    0    0 -0.37903066097E+01  0.12500012724E+02 -0.19372774415E+02  0.23364955192E+02  0.51100000000E-03 0.  1.
        -12    1    3    3    0    0  0.14490106029E+01  0.87729367365E+01 -0.15343117655E+02  0.17733451725E+02  0.00000000000E+00 0.  1.
</event>
<event>
 7    1  0.2243370E-008  0.4614232E+02  0.7816164E-02  0.1320468E+00
        -11   -1    0    0    0    0  0.00000000000E+00  0.00000000000E+00  0.45593999997E+02  0.45594000000E+02  0.51100000000E-03 0.  1.
         11   -1    0    0    0    0 -0.00000000000E+00 -0.00000000000E+00 -0.45593999997E+02  0.45594000000E+02  0.51100000000E-03 0. -1.
    9900012    2    1    2    0    0 -0.27071830321E+02 -0.73920808968E+01  0.35236154840E+02  0.46142318022E+02  0.10000002380E+02 0.  0.
         12    1    1    2    0    0  0.27071830321E+02  0.73920808968E+01 -0.35236154840E+02  0.45045681978E+02  0.00000000000E+00 0. -1.
         11    1    3    3    0    0 -0.11010022987E+02  0.10983830222E+01  0.10430959945E+02  0.15206313724E+02  0.51100000000E-03 0. -1.
        -11    1    3    3    0    0 -0.53688476161E+01 -0.13790432119E+01  0.60472967784E+01  0.82034190124E+01  0.51100000000E-03 0.  1.
        -12    1    3    3    0    0 -0.10692959718E+02 -0.71114207071E+01  0.18757898117E+02  0.22732585286E+02  0.00000000000E+00 0.  1.
</event>
<event>
 7    1  0.2243370E-008  0.4614232E+02  0.7816164E-02  0.1320468E+00
        -11   -1    0    0    0    0  0.00000000000E+00  0.00000000000E+00  0.45593999997E+02  0.45594000000E+02  0.51100000000E-03 0.  1.
         11   -1    0    0    0    0 -0.00000000000E+00 -0.00000000000E+00 -0.45593999997E+02  0.45594000000E+02  0.51100000000E-03 0. -1.
    9900012    2    1    2    0    0 -0.44154132409E+02  0.30956566001E+01  0.83631794607E+01  0.46142320193E+02  0.10000022173E+02 0.  0.
         12    1    1    2    0    0  0.44154132409E+02 -0.30956566001E+01 -0.83631794607E+01  0.45045679807E+02  0.00000000000E+00 0. -1.
         11    1    3    3    0    0 -0.12831220488E+02 -0.13812075157E+01  0.97560073167E+00  0.12942169465E+02  0.51100000000E-03 0. -1.
        -11    1    3    3    0    0 -0.20378798029E+02  0.45941166584E+01  0.19555663135E+01  0.20981552774E+02  0.51100000000E-03 0.  1.
        -12    1    3    3    0    0 -0.10944113893E+02 -0.11725254256E+00  0.54320124155E+01  0.12218597954E+02  0.00000000000E+00 0.  1.
</event>
<event>
 7    1  0.2243370E-008  0.4614232E+02  0.7816164E-02  0.1320468E+00
        -11   -1    0    0    0    0  0.00000000000E+00  0.00000000000E+00  0.45593999997E+02  0.45594000000E+02  0.51100000000E-03 0.  1.
         11   -1    0    0    0    0 -0.00000000000E+00 -0.00000000000E+00 -0.45593999997E+02  0.45594000000E+02  0.51100000000E-03 0. -1.
    9900012    2    1    2    0    0  0.15605467780E+02  0.23948979733E+02  0.34814207715E+02  0.46142319700E+02  0.10000017684E+02 0.  0.
         12    1    1    2    0    0 -0.15605467780E+02 -0.23948979733E+02 -0.34814207715E+02  0.45045680300E+02  0.00000000000E+00 0. -1.
         11    1    3    3    0    0 -0.31149131602E+00  0.30350250729E+00 -0.10467859968E+00  0.44732368844E+00  0.51100000000E-03 0. -1.
        -11    1    3    3    0    0  0.81138883633E+01  0.70608554668E+01  0.94563233050E+01  0.14321763683E+02  0.51100000000E-03 0.  1.
        -12    1    3    3    0    0  0.78030707325E+01  0.16584621759E+02  0.25462563009E+02  0.31373232328E+02  0.00000000000E+00 0.  1.
</event>
<event>
 7    1  0.2243370E-008  0.4614232E+02  0.7816164E-02  0.1320468E+00
        -11   -1    0    0    0    0  0.00000000000E+00  0.00000000000E+00  0.45593999997E+02  0.45594000000E+02  0.51100000000E-03 0.  1.
         11   -1    0    0    0    0 -0.00000000000E+00 -0.00000000000E+00 -0.45593999997E+02  0.45594000000E+02  0.51100000000E-03 0. -1.
    9900012    2    1    2    0    0 -0.18918736562E+02 -0.36577539310E+02  0.18255916261E+02  0.46142318147E+02  0.10000003518E+02 0.  0.
         12    1    1    2    0    0  0.18918736562E+02  0.36577539310E+02 -0.18255916261E+02  0.45045681853E+02  0.00000000000E+00 0. -1.
         11    1    3    3    0    0 -0.11116482682E+01  0.26826169776E+00  0.60551809009E+00  0.12939778318E+01  0.51100000000E-03 0. -1.
        -11    1    3    3    0    0 -0.13114565746E+02 -0.28602594686E+02  0.11299245329E+02  0.33433115361E+02  0.51100000000E-03 0.  1.
         12    1    3    3    0    0 -0.46925225472E+01 -0.82432063218E+01  0.63511528427E+01  0.11415224954E+02  0.00000000000E+00 0. -1.
</event>
<event>
 7    1  0.2243370E-008  0.4614232E+02  0.7816164E-02  0.1320468E+00
        -11   -1    0    0    0    0  0.00000000000E+00  0.00000000000E+00  0.45593999997E+02  0.45594000000E+02  0.51100000000E-03 0.  1.
         11   -1    0    0    0    0 -0.00000000000E+00 -0.00000000000E+00 -0.45593999997E+02  0.45594000000E+02  0.51100000000E-03 0. -1.
    9900012    2    1    2    0    0 -0.37304037937E+02  0.10768024277E+01 -0.25226231447E+02  0.46142317600E+02  0.99999985284E+01 0.  0.
         12    1    1    2    0    0  0.37304037937E+02 -0.10768024277E+01  0.25226231447E+02  0.45045682400E+02  0.00000000000E+00 0. -1.
         11    1    3    3    0    0 -0.56392382177E+01  0.55929124019E+00 -0.50484853191E+01  0.75895334933E+01  0.51100000000E-03 0. -1.
        -11    1    3    3    0    0 -0.18615772810E+02  0.32112860128E+01 -0.15485223019E+02  0.24426450568E+02  0.51100000000E-03 0.  1.
        -12    1    3    3    0    0 -0.13049026910E+02 -0.26937748253E+01 -0.46925231090E+01  0.14126333538E+02  0.00000000000E+00 0.  1.
</event>
<event>
 7    1  0.2243370E-008  0.4614232E+02  0.7816164E-02  0.1320468E+00
        -11   -1    0    0    0    0  0.00000000000E+00  0.00000000000E+00  0.45593999997E+02  0.45594000000E+02  0.51100000000E-03 0.  1.
         11   -1    0    0    0    0 -0.00000000000E+00 -0.00000000000E+00 -0.45593999997E+02  0.45594000000E+02  0.51100000000E-03 0. -1.
    9900012    2    1    2    0    0  0.36330672053E+02 -0.26535521155E+02  0.22498761544E+01  0.46142316994E+02  0.99999930010E+01 0.  0.
         12    1    1    2    0    0 -0.36330672053E+02  0.26535521155E+02 -0.22498761544E+01  0.45045683006E+02  0.00000000000E+00 0. -1.
         11    1    3    3    0    0  0.44687254741E+01 -0.45049469514E+01  0.17876394384E+01  0.65923978506E+01  0.51100000000E-03 0. -1.
        -11    1    3    3    0    0  0.11100399232E+02 -0.12455290724E+02  0.16211059007E+00  0.16684705878E+02  0.51100000000E-03 0.  1.
        -12    1    3    3    0    0  0.20761547347E+02 -0.95752834791E+01  0.30012612598E+00  0.22865213265E+02  0.00000000000E+00 0.  1.
</event>
<event>
 7    1  0.2243370E-008  0.4614232E+02  0.7816164E-02  0.1320468E+00
        -11   -1    0    0    0    0  0.00000000000E+00  0.00000000000E+00  0.45593999997E+02  0.45594000000E+02  0.51100000000E-03 0.  1.
         11   -1    0    0    0    0 -0.00000000000E+00 -0.00000000000E+00 -0.45593999997E+02  0.45594000000E+02  0.51100000000E-03 0. -1.
    9900012    2    1    2    0    0 -0.56082912467E+01  0.36707749672E+02  0.25499055642E+02  0.46142315908E+02  0.99999831026E+01 0.  0.
         12    1    1    2    0    0  0.56082912467E+01 -0.36707749672E+02 -0.25499055642E+02  0.45045684092E+02  0.00000000000E+00 0. -1.
         11    1    3    3    0    0 -0.51878705627E+01  0.12921703916E+02  0.94196892749E+01  0.16811156396E+02  0.51100000000E-03 0. -1.
        -11    1    3    3    0    0  0.24350818578E+01  0.79791670616E+01  0.69305473171E+01  0.10845700394E+02  0.51100000000E-03 0.  1.
         12    1    3    3    0    0 -0.28555025419E+01  0.15806878694E+02  0.91488190503E+01  0.18485459119E+02  0.00000000000E+00 0. -1.
</event>
<event>
 7    1  0.2243370E-008  0.4614232E+02  0.7816164E-02  0.1320468E+00
        -11   -1    0    0    0    0  0.00000000000E+00  0.00000000000E+00  0.45593999997E+02  0.45594000000E+02  0.51100000000E-03 0.  1.
         11   -1    0    0    0    0 -0.00000000000E+00 -0.00000000000E+00 -0.45593999997E+02  0.45594000000E+02  0.51100000000E-03 0. -1.
    9900012    2    1    2    0    0  0.12234938365E+02 -0.33225028366E+02  0.27848110340E+02  0.46142317896E+02  0.10000001233E+02 0.  0.
         12    1    1    2    0    0 -0.12234938365E+02  0.33225028366E+02 -0.27848110340E+02  0.45045682104E+02  0.00000000000E+00 0. -1.
         11    1    3    3    0    0  0.11960434523E+02 -0.19494391079E+02  0.16742371636E+02  0.28344140237E+02  0.51100000000E-03 0. -1.
        -11    1    3    3    0    0  0.12180098610E+00 -0.24535754746E+01  0.99149005464E+00  0.26491358741E+01  0.51100000000E-03 0.  1.
         12    1    3    3    0    0  0.15270285562E+00 -0.11277061812E+02  0.10114248649E+02  0.15149041785E+02  0.00000000000E+00 0. -1.
</event>
<event>
 7    1  0.2243370E-008  0.4614232E+02  0.7816164E-02  0.1320468E+00
        -11   -1    0    0    0    0  0.00000000000E+00  0.00000000000E+00  0.45593999997E+02  0.45594000000E+02  0.51100000000E-03 0.  1.
         11   -1    0    0    0    0 -0.00000000000E+00 -0.00000000000E+00 -0.45593999997E+02  0.45594000000E+02  0.51100000000E-03 0. -1.
    9900012    2    1    2    0    0  0.71407043284E+01 -0.34428218782E+02  0.28157087996E+02  0.46142317507E+02  0.99999976845E+01 0.  0.
         12    1    1    2    0    0 -0.71407043284E+01  0.34428218782E+02 -0.28157087996E+02  0.45045682493E+02  0.00000000000E+00 0. -1.
         11    1    3    3    0    0  0.17179361969E+00 -0.39065593469E+01  0.75136072973E+01  0.84702428452E+01  0.51100000000E-03 0. -1.
        -11    1    3    3    0    0  0.26531403989E+01 -0.62277221479E+01  0.54934344287E+01  0.87178838723E+01  0.51100000000E-03 0.  1.
         12    1    3    3    0    0  0.43157703097E+01 -0.24293937288E+02  0.15150046270E+02  0.28954190790E+02  0.00000000000E+00 0. -1.
</event>
<event>
 7    1  0.2243370E-008  0.4614232E+02  0.7816164E-02  0.1320468E+00
        -11   -1    0    0    0    0  0.00000000000E+00  0.00000000000E+00  0.45593999997E+02  0.45594000000E+02  0.51100000000E-03 0.  1.
         11   -1    0    0    0    0 -0.00000000000E+00 -0.00000000000E+00 -0.45593999997E+02  0.45594000000E+02  0.51100000000E-03 0. -1.
    9900012    2    1    2    0    0 -0.10206300110E+02 -0.40832930720E+02  0.16050439718E+02  0.46142318650E+02  0.10000008109E+02 0.  0.
         12    1    1    2    0    0  0.10206300110E+02  0.40832930720E+02 -0.16050439718E+02  0.45045681350E+02  0.00000000000E+00 0. -1.
         11    1    3    3    0    0 -0.10081997726E+01 -0.17356465515E+02  0.73876417134E+01  0.18890225311E+02  0.51100000000E-03 0.  1.
        -11    1    3    3    0    0 -0.80906640457E+01 -0.22662563639E+02  0.69320590104E+01  0.25042046198E+02  0.51100000000E-03 0. -1.
        -12    1    3    3    0    0 -0.11074362921E+01 -0.81390156534E+00  0.17307389946E+01  0.22100471413E+01  0.00000000000E+00 0.  1.
</event>
<event>
 7    1  0.2243370E-008  0.4614232E+02  0.7816164E-02  0.1320468E+00
        -11   -1    0    0    0    0  0.00000000000E+00  0.00000000000E+00  0.45593999997E+02  0.45594000000E+02  0.51100000000E-03 0.  1.
         11   -1    0    0    0    0 -0.00000000000E+00 -0.00000000000E+00 -0.45593999997E+02  0.45594000000E+02  0.51100000000E-03 0. -1.
    9900012    2    1    2    0    0  0.28641535859E+02  0.34642249794E+02 -0.29479556880E+01  0.46142317744E+02  0.99999998430E+01 0.  0.
         12    1    1    2    0    0 -0.28641535859E+02 -0.34642249794E+02  0.29479556880E+01  0.45045682256E+02  0.00000000000E+00 0. -1.
         11    1    3    3    0    0  0.16037926436E+02  0.16591482123E+02  0.18384713268E+01  0.23148916615E+02  0.51100000000E-03 0. -1.
        -11    1    3    3    0    0  0.64037896368E+01  0.94398269645E+01 -0.13442982862E+00  0.11407757294E+02  0.51100000000E-03 0.  1.
         12    1    3    3    0    0  0.61998197867E+01  0.86109407071E+01 -0.46519971861E+01  0.11585643835E+02  0.00000000000E+00 0. -1.
</event>
<event>
 7    1  0.2243370E-008  0.4614232E+02  0.7816164E-02  0.1320468E+00
        -11   -1    0    0    0    0  0.00000000000E+00  0.00000000000E+00  0.45593999997E+02  0.45594000000E+02  0.51100000000E-03 0.  1.
         11   -1    0    0    0    0 -0.00000000000E+00 -0.00000000000E+00 -0.45593999997E+02  0.45594000000E+02  0.51100000000E-03 0. -1.
    9900012    2    1    2    0    0 -0.12106584549E+02  0.22928181319E+02  0.36835345815E+02  0.46142316640E+02  0.99999897785E+01 0.  0.
         12    1    1    2    0    0  0.12106584549E+02 -0.22928181319E+02 -0.36835345815E+02  0.45045683360E+02  0.00000000000E+00 0. -1.
         11    1    3    3    0    0 -0.63949022864E+01  0.94091787573E+01  0.10651395330E+02  0.15584596333E+02  0.51100000000E-03 0. -1.
        -11    1    3    3    0    0  0.94206581532E+00  0.23804858732E+01  0.26528850641E+01  0.36867330276E+01  0.51100000000E-03 0.  1.
        -12    1    3    3    0    0 -0.66537480783E+01  0.11138516688E+02  0.23531065421E+02  0.26870987279E+02  0.00000000000E+00 0.  1.
</event>
<event>
 7    1  0.2243370E-008  0.4614232E+02  0.7816164E-02  0.1320468E+00
        -11   -1    0    0    0    0  0.00000000000E+00  0.00000000000E+00  0.45593999997E+02  0.45594000000E+02  0.51100000000E-03 0.  1.
         11   -1    0    0    0    0 -0.00000000000E+00 -0.00000000000E+00 -0.45593999997E+02  0.45594000000E+02  0.51100000000E-03 0. -1.
    9900012    2    1    2    0    0 -0.25475390926E+02 -0.11649798771E+02  0.35276056144E+02  0.46142317728E+02  0.99999996995E+01 0.  0.
         12    1    1    2    0    0  0.25475390926E+02  0.11649798771E+02 -0.35276056144E+02  0.45045682272E+02  0.00000000000E+00 0. -1.
         11    1    3    3    0    0 -0.55588161936E+01  0.24923341616E+00  0.33268987246E+01  0.64831173177E+01  0.51100000000E-03 0. -1.
        -11    1    3    3    0    0 -0.30312244499E+01 -0.27908945973E+01  0.77537667363E+01  0.87805645138E+01  0.51100000000E-03 0.  1.
        -12    1    3    3    0    0 -0.16885350282E+02 -0.91081375894E+01  0.24195390684E+02  0.30878635897E+02  0.00000000000E+00 0.  1.
</event>
<event>
 7    1  0.2243370E-008  0.4614232E+02  0.7816164E-02  0.1320468E+00
        -11   -1    0    0    0    0  0.00000000000E+00  0.00000000000E+00  0.45593999997E+02  0.45594000000E+02  0.51100000000E-03 0.  1.
         11   -1    0    0    0    0 -0.00000000000E+00 -0.00000000000E+00 -0.45593999997E+02  0.45594000000E+02  0.51100000000E-03 0. -1.
    9900012    2    1    2    0    0  0.36982303249E+00  0.31268205661E+02  0.32423386615E+02  0.46142318144E+02  0.10000003487E+02 0.  0.
         12    1    1    2    0    0 -0.36982303249E+00 -0.31268205661E+02 -0.32423386615E+02  0.45045681856E+02  0.00000000000E+00 0. -1.
         11    1    3    3    0    0  0.18689316918E+01  0.14406962326E+01  0.37913856537E+01  0.44657716847E+01  0.51100000000E-03 0. -1.
        -11    1    3    3    0    0  0.17134997793E+01  0.15707321398E+02  0.14655531243E+02  0.21550884512E+02  0.51100000000E-03 0.  1.
        -12    1    3    3    0    0 -0.32126084387E+01  0.14120188031E+02  0.13976469719E+02  0.20125661947E+02  0.00000000000E+00 0.  1.
</event>
<event>
 7    1  0.2243370E-008  0.4614232E+02  0.7816164E-02  0.1320468E+00
        -11   -1    0    0    0    0  0.00000000000E+00  0.00000000000E+00  0.45593999997E+02  0.45594000000E+02  0.51100000000E-03 0. -1.
         11   -1    0    0    0    0 -0.00000000000E+00 -0.00000000000E+00 -0.45593999997E+02  0.45594000000E+02  0.51100000000E-03 0.  1.
    9900012    2    1    2    0    0 -0.19578698911E+02 -0.33481830429E+02 -0.22907530556E+02  0.46142319008E+02  0.10000011370E+02 0.  0.
         12    1    1    2    0    0  0.19578698911E+02  0.33481830429E+02  0.22907530556E+02  0.45045680992E+02  0.00000000000E+00 0. -1.
         11    1    3    3    0    0 -0.33921950388E+01 -0.12199439528E+02 -0.70220539675E+01  0.14479038441E+02  0.51100000000E-03 0. -1.
        -11    1    3    3    0    0 -0.66244965946E+01 -0.80080391083E+01 -0.29386701661E+01  0.10800390183E+02  0.51100000000E-03 0.  1.
        -12    1    3    3    0    0 -0.95620072772E+01 -0.13274351792E+02 -0.12946806422E+02  0.20862890385E+02  0.00000000000E+00 0.  1.
</event>
<event>
 7    1  0.2243370E-008  0.4614232E+02  0.7816164E-02  0.1320468E+00
        -11   -1    0    0    0    0  0.00000000000E+00  0.00000000000E+00  0.45593999997E+02  0.45594000000E+02  0.51100000000E-03 0.  1.
         11   -1    0    0    0    0 -0.00000000000E+00 -0.00000000000E+00 -0.45593999997E+02  0.45594000000E+02  0.51100000000E-03 0. -1.
    9900012    2    1    2    0    0  0.35844151149E+01 -0.16429255775E+02  0.41789293238E+02  0.46142317562E+02  0.99999981810E+01 0.  0.
         12    1    1    2    0    0 -0.35844151149E+01  0.16429255775E+02 -0.41789293238E+02  0.45045682438E+02  0.00000000000E+00 0. -1.
         11    1    3    3    0    0  0.28640235997E+01 -0.22617177727E+01  0.13068038385E+02  0.13568036923E+02  0.51100000000E-03 0. -1.
        -11    1    3    3    0    0  0.43159196979E+00 -0.54811112870E+00  0.63042192866E+01  0.63427027766E+01  0.51100000000E-03 0.  1.
         12    1    3    3    0    0  0.28879954542E+00 -0.13619426873E+02  0.22417035566E+02  0.26231577862E+02  0.00000000000E+00 0. -1.
</event>
<event>
 7    1  0.2243370E-008  0.4614232E+02  0.7816164E-02  0.1320468E+00
        -11   -1    0    0    0    0  0.00000000000E+00  0.00000000000E+00  0.45593999997E+02  0.45594000000E+02  0.51100000000E-03 0.  1.
         11   -1    0    0    0    0 -0.00000000000E+00 -0.00000000000E+00 -0.45593999997E+02  0.45594000000E+02  0.51100000000E-03 0. -1.
    9900012    2    1    2    0    0 -0.33870115004E+02 -0.29470453717E+02 -0.36634926244E+01  0.46142317511E+02  0.99999977206E+01 0.  0.
         12    1    1    2    0    0  0.33870115004E+02  0.29470453717E+02  0.36634926244E+01  0.45045682489E+02  0.00000000000E+00 0. -1.
         11    1    3    3    0    0 -0.10321555439E+02 -0.63888350531E+01 -0.39306370512E+01  0.12759374119E+02  0.51100000000E-03 0. -1.
        -11    1    3    3    0    0 -0.31928596293E+01 -0.38417920214E+01  0.18547981533E+01  0.53286015988E+01  0.51100000000E-03 0.  1.
        -12    1    3    3    0    0 -0.20355699936E+02 -0.19239826642E+02 -0.15876537264E+01  0.28054341793E+02  0.00000000000E+00 0.  1.
</event>
<event>
 7    1  0.2243370E-008  0.4614232E+02  0.7816164E-02  0.1320468E+00
        -11   -1    0    0    0    0  0.00000000000E+00  0.00000000000E+00  0.45593999997E+02  0.45594000000E+02  0.51100000000E-03 0. -1.
         11   -1    0    0    0    0 -0.00000000000E+00 -0.00000000000E+00 -0.45593999997E+02  0.45594000000E+02  0.51100000000E-03 0.  1.
    9900012    2    1    2    0    0  0.11055304510E+02 -0.43457169802E+02  0.42858009338E+01  0.46142318136E+02  0.10000003416E+02 0.  0.
         12    1    1    2    0    0 -0.11055304510E+02  0.43457169802E+02 -0.42858009338E+01  0.45045681864E+02  0.00000000000E+00 0. -1.
         11    1    3    3    0    0 -0.42796392555E+00 -0.32397016097E+01  0.12215191894E+01  0.34886858604E+01  0.51100000000E-03 0. -1.
        -11    1    3    3    0    0  0.63251526661E+01 -0.18021207489E+02  0.51200380233E+01  0.19773372632E+02  0.51100000000E-03 0.  1.
        -12    1    3    3    0    0  0.51581157692E+01 -0.22196260703E+02 -0.20557562788E+01  0.22880259643E+02  0.00000000000E+00 0.  1.
</event>
<event>
 7    1  0.2243370E-008  0.4614232E+02  0.7816164E-02  0.1320468E+00
        -11   -1    0    0    0    0  0.00000000000E+00  0.00000000000E+00  0.45593999997E+02  0.45594000000E+02  0.51100000000E-03 0.  1.
         11   -1    0    0    0    0 -0.00000000000E+00 -0.00000000000E+00 -0.45593999997E+02  0.45594000000E+02  0.51100000000E-03 0. -1.
    9900012    2    1    2    0    0 -0.21927289765E+02  0.33633302153E+02 -0.20423233437E+02  0.46142317475E+02  0.99999973902E+01 0.  0.
         12    1    1    2    0    0  0.21927289765E+02 -0.33633302153E+02  0.20423233437E+02  0.45045682525E+02  0.00000000000E+00 0. -1.
         11    1    3    3    0    0 -0.65964150533E+01  0.99216510349E+01 -0.10692294767E+02  0.16008654486E+02  0.51100000000E-03 0. -1.
        -11    1    3    3    0    0 -0.12977416744E+02  0.17807627869E+02 -0.87230003841E+01  0.23698432261E+02  0.51100000000E-03 0.  1.
         12    1    3    3    0    0 -0.23534579678E+01  0.59040232491E+01 -0.10079382854E+01  0.64352307277E+01  0.00000000000E+00 0. -1.
</event>
<event>
 7    1  0.2243370E-008  0.4614232E+02  0.7816164E-02  0.1320468E+00
        -11   -1    0    0    0    0  0.00000000000E+00  0.00000000000E+00  0.45593999997E+02  0.45594000000E+02  0.51100000000E-03 0.  1.
         11   -1    0    0    0    0 -0.00000000000E+00 -0.00000000000E+00 -0.45593999997E+02  0.45594000000E+02  0.51100000000E-03 0. -1.
    9900012    2    1    2    0    0 -0.35170034847E+02 -0.26590502037E+02  0.92264412548E+01  0.46142319098E+02  0.10000012188E+02 0.  0.
         12    1    1    2    0    0  0.35170034847E+02  0.26590502037E+02 -0.92264412548E+01  0.45045680902E+02  0.00000000000E+00 0. -1.
         11    1    3    3    0    0 -0.40422196844E+01 -0.44402384804E+01  0.16180407474E+01  0.62187871696E+01  0.51100000000E-03 0. -1.
        -11    1    3    3    0    0 -0.27659716380E+02 -0.18988184687E+02  0.35838131561E+01  0.33740995612E+02  0.51100000000E-03 0.  1.
        -12    1    3    3    0    0 -0.34680987831E+01 -0.31620788698E+01  0.40245873514E+01  0.61825363158E+01  0.00000000000E+00 0.  1.
</event>
<event>
 7    1  0.2243370E-008  0.4614232E+02  0.7816164E-02  0.1320468E+00
        -11   -1    0    0    0    0  0.00000000000E+00  0.00000000000E+00  0.45593999997E+02  0.45594000000E+02  0.51100000000E-03 0. -1.
         11   -1    0    0    0    0 -0.00000000000E+00 -0.00000000000E+00 -0.45593999997E+02  0.45594000000E+02  0.51100000000E-03 0.  1.
    9900012    2    1    2    0    0 -0.13538184609E+01 -0.22293831849E+02 -0.39118609148E+02  0.46142319356E+02  0.10000014548E+02 0.  0.
         12    1    1    2    0    0  0.13538184609E+01  0.22293831849E+02  0.39118609148E+02  0.45045680644E+02  0.00000000000E+00 0. -1.
         11    1    3    3    0    0  0.12963403491E+01 -0.13868128023E+02 -0.23181133512E+02  0.27043861120E+02  0.51100000000E-03 0. -1.
        -11    1    3    3    0    0 -0.78925501206E+00 -0.81803376399E+01 -0.10422907598E+02  0.13273200459E+02  0.51100000000E-03 0.  1.
         12    1    3    3    0    0 -0.18609037979E+01 -0.24536618643E+00 -0.55145680391E+01  0.58252577770E+01  0.00000000000E+00 0. -1.
</event>
<event>
 7    1  0.2243370E-008  0.4614232E+02  0.7816164E-02  0.1320468E+00
        -11   -1    0    0    0    0  0.00000000000E+00  0.00000000000E+00  0.45593999997E+02  0.45594000000E+02  0.51100000000E-03 0.  1.
         11   -1    0    0    0    0 -0.00000000000E+00 -0.00000000000E+00 -0.45593999997E+02  0.45594000000E+02  0.51100000000E-03 0. -1.
    9900012    2    1    2    0    0 -0.36661973976E+02  0.50997619722E+01  0.25671097131E+02  0.46142321673E+02  0.10000035672E+02 0.  0.
         12    1    1    2    0    0  0.36661973976E+02 -0.50997619722E+01 -0.25671097131E+02  0.45045678327E+02  0.00000000000E+00 0. -1.
         11    1    3    3    0    0 -0.50961419705E+01  0.32535272888E+01  0.16557290072E+01  0.62687751282E+01  0.51100000000E-03 0. -1.
        -11    1    3    3    0    0 -0.22886560738E+02  0.27189848172E+01  0.16311834191E+02  0.28235854437E+02  0.51100000000E-03 0.  1.
         12    1    3    3    0    0 -0.86792712678E+01 -0.87275013381E+00  0.77035339334E+01  0.11637692108E+02  0.00000000000E+00 0. -1.
</event>
<event>
 7    1  0.2243370E-008  0.4614232E+02  0.7816164E-02  0.1320468E+00
        -11   -1    0    0    0    0  0.00000000000E+00  0.00000000000E+00  0.45593999997E+02  0.45594000000E+02  0.51100000000E-03 0.  1.
         11   -1    0    0    0    0 -0.00000000000E+00 -0.00000000000E+00 -0.45593999997E+02  0.45594000000E+02  0.51100000000E-03 0. -1.
    9900012    2    1    2    0    0 -0.75034678704E+01  0.40837559484E+02  0.17467264639E+02  0.46142316204E+02  0.99999857965E+01 0.  0.
         12    1    1    2    0    0  0.75034678704E+01 -0.40837559484E+02 -0.17467264639E+02  0.45045683796E+02  0.00000000000E+00 0. -1.
         11    1    3    3    0    0 -0.36030255849E+01  0.22219870904E+02  0.79288937691E+01  0.23865703698E+02  0.51100000000E-03 0. -1.
        -11    1    3    3    0    0 -0.48966106174E+01  0.11176904431E+02  0.80633052833E+01  0.14625897598E+02  0.51100000000E-03 0.  1.
         12    1    3    3    0    0  0.99616833187E+00  0.74407841494E+01  0.14750655867E+01  0.76507149070E+01  0.00000000000E+00 0. -1.
</event>
<event>
 7    1  0.2243370E-008  0.4614232E+02  0.7816164E-02  0.1320468E+00
        -11   -1    0    0    0    0  0.00000000000E+00  0.00000000000E+00  0.45593999997E+02  0.45594000000E+02  0.51100000000E-03 0.  1.
         11   -1    0    0    0    0 -0.00000000000E+00 -0.00000000000E+00 -0.45593999997E+02  0.45594000000E+02  0.51100000000E-03 0. -1.
    9900012    2    1    2    0    0  0.98693974034E+01  0.41018804410E+02  0.15784998318E+02  0.46142317718E+02  0.99999996057E+01 0.  0.
         12    1    1    2    0    0 -0.98693974034E+01 -0.41018804410E+02 -0.15784998318E+02  0.45045682282E+02  0.00000000000E+00 0. -1.
         11    1    3    3    0    0  0.40896079150E+01  0.46599816174E+01  0.42609877173E+01  0.75230537790E+01  0.51100000000E-03 0. -1.
        -11    1    3    3    0    0  0.99643865423E+00  0.66811383470E+01  0.28544762852E+01  0.73333849433E+01  0.51100000000E-03 0.  1.
         12    1    3    3    0    0  0.47833508342E+01  0.29677684446E+02  0.86695343155E+01  0.31285878996E+02  0.00000000000E+00 0. -1.
</event>
<event>
 7    1  0.2243370E-008  0.4614232E+02  0.7816164E-02  0.1320468E+00
        -11   -1    0    0    0    0  0.00000000000E+00  0.00000000000E+00  0.45593999997E+02  0.45594000000E+02  0.51100000000E-03 0. -1.
         11   -1    0    0    0    0 -0.00000000000E+00 -0.00000000000E+00 -0.45593999997E+02  0.45594000000E+02  0.51100000000E-03 0.  1.
    9900012    2    1    2    0    0  0.13011951606E+02 -0.33980032923E+01 -0.42991349475E+02  0.46142318291E+02  0.10000004828E+02 0.  0.
         12    1    1    2    0    0 -0.13011951606E+02  0.33980032923E+01  0.42991349475E+02  0.45045681709E+02  0.00000000000E+00 0. -1.
         11    1    3    3    0    0  0.92841821298E+01  0.21872415410E+00 -0.17367013647E+02  0.19694086457E+02  0.51100000000E-03 0. -1.
        -11    1    3    3    0    0  0.19941980848E+01 -0.37358255623E+00 -0.37196065460E+01  0.42369638948E+01  0.51100000000E-03 0.  1.
        -12    1    3    3    0    0  0.17335713912E+01 -0.32431448901E+01 -0.21904729282E+02  0.22211267939E+02  0.00000000000E+00 0.  1.
</event>
<event>
 7    1  0.2243370E-008  0.4614232E+02  0.7816164E-02  0.1320468E+00
        -11   -1    0    0    0    0  0.00000000000E+00  0.00000000000E+00  0.45593999997E+02  0.45594000000E+02  0.51100000000E-03 0.  1.
         11   -1    0    0    0    0 -0.00000000000E+00 -0.00000000000E+00 -0.45593999997E+02  0.45594000000E+02  0.51100000000E-03 0. -1.
    9900012    2    1    2    0    0  0.36611979554E+02 -0.25118010690E+02  0.76001404356E+01  0.46142316050E+02  0.99999843971E+01 0.  0.
         12    1    1    2    0    0 -0.36611979554E+02  0.25118010690E+02 -0.76001404356E+01  0.45045683950E+02  0.00000000000E+00 0. -1.
         11    1    3    3    0    0  0.66475267496E+01 -0.16690527461E+01  0.28068726121E+01  0.74063407346E+01  0.51100000000E-03 0. -1.
        -11    1    3    3    0    0  0.26355813798E+02 -0.19293794162E+02  0.57048273501E+01  0.33157570319E+02  0.51100000000E-03 0.  1.
         12    1    3    3    0    0  0.36086390067E+01 -0.41551637814E+01 -0.91155952659E+00  0.55784049962E+01  0.00000000000E+00 0. -1.
</event>
<event>
 7    1  0.2243370E-008  0.4614232E+02  0.7816164E-02  0.1320468E+00
        -11   -1    0    0    0    0  0.00000000000E+00  0.00000000000E+00  0.45593999997E+02  0.45594000000E+02  0.51100000000E-03 0. -1.
         11   -1    0    0    0    0 -0.00000000000E+00 -0.00000000000E+00 -0.45593999997E+02  0.45594000000E+02  0.51100000000E-03 0.  1.
    9900012    2    1    2    0    0  0.73005639858E+01  0.36658153663E+02 -0.25139511429E+02  0.46142317639E+02  0.99999988845E+01 0.  0.
         12    1    1    2    0    0 -0.73005639858E+01 -0.36658153663E+02  0.25139511429E+02  0.45045682361E+02  0.00000000000E+00 0. -1.
         11    1    3    3    0    0 -0.15307632726E+00  0.25628744867E+01  0.46034492677E-01  0.25678546361E+01  0.51100000000E-03 0. -1.
        -11    1    3    3    0    0  0.71461162627E+01  0.19118944759E+02 -0.12413991232E+02  0.23889499888E+02  0.51100000000E-03 0.  1.
        -12    1    3    3    0    0  0.30752405031E+00  0.14976334417E+02 -0.12771554690E+02  0.19684963114E+02  0.00000000000E+00 0.  1.
</event>
<event>
 7    1  0.2243370E-008  0.4614232E+02  0.7816164E-02  0.1320468E+00
        -11   -1    0    0    0    0  0.00000000000E+00  0.00000000000E+00  0.45593999997E+02  0.45594000000E+02  0.51100000000E-03 0.  1.
         11   -1    0    0    0    0 -0.00000000000E+00 -0.00000000000E+00 -0.45593999997E+02  0.45594000000E+02  0.51100000000E-03 0. -1.
    9900012    2    1    2    0    0  0.97543358304E+01  0.81642961746E+01  0.43212392932E+02  0.46142315385E+02  0.99999783368E+01 0.  0.
         12    1    1    2    0    0 -0.97543358304E+01 -0.81642961746E+01 -0.43212392932E+02  0.45045684615E+02  0.00000000000E+00 0. -1.
         11    1    3    3    0    0  0.15446160846E+01 -0.27560224324E+00  0.24799198757E+00  0.15884885055E+01  0.51100000000E-03 0. -1.
        -11    1    3    3    0    0  0.28499154336E+01  0.27099291917E+01  0.13284814946E+02  0.13854675840E+02  0.51100000000E-03 0.  1.
         12    1    3    3    0    0  0.53598043122E+01  0.57299692261E+01  0.29679585998E+02  0.30699151040E+02  0.00000000000E+00 0. -1.
</event>
<event>
 7    1  0.2243370E-008  0.4614232E+02  0.7816164E-02  0.1320468E+00
        -11   -1    0    0    0    0  0.00000000000E+00  0.00000000000E+00  0.45593999997E+02  0.45594000000E+02  0.51100000000E-03 0.  1.
         11   -1    0    0    0    0 -0.00000000000E+00 -0.00000000000E+00 -0.45593999997E+02  0.45594000000E+02  0.51100000000E-03 0. -1.
    9900012    2    1    2    0    0  0.36727374607E+02  0.37995483063E+01  0.25802652097E+02  0.46142317986E+02  0.10000002047E+02 0.  0.
         12    1    1    2    0    0 -0.36727374607E+02 -0.37995483063E+01 -0.25802652097E+02  0.45045682014E+02  0.00000000000E+00 0. -1.
         11    1    3    3    0    0  0.15444917573E+02  0.19284099166E+01  0.10274444481E+02  0.18650159605E+02  0.51100000000E-03 0. -1.
        -11    1    3    3    0    0  0.20630699380E+02  0.24399526486E+00  0.12899805222E+02  0.24332904997E+02  0.51100000000E-03 0.  1.
         12    1    3    3    0    0  0.65175765442E+00  0.16271431248E+01  0.26284023949E+01  0.31592533830E+01  0.00000000000E+00 0. -1.
</event>
<event>
 7    1  0.2243370E-008  0.4614232E+02  0.7816164E-02  0.1320468E+00
        -11   -1    0    0    0    0  0.00000000000E+00  0.00000000000E+00  0.45593999997E+02  0.45594000000E+02  0.51100000000E-03 0.  1.
         11   -1    0    0    0    0 -0.00000000000E+00 -0.00000000000E+00 -0.45593999997E+02  0.45594000000E+02  0.51100000000E-03 0. -1.
    9900012    2    1    2    0    0 -0.73880362629E+01 -0.15064380202E+02  0.41804244967E+02  0.46142317322E+02  0.99999959960E+01 0.  0.
         12    1    1    2    0    0  0.73880362629E+01  0.15064380202E+02 -0.41804244967E+02  0.45045682678E+02  0.00000000000E+00 0. -1.
         11    1    3    3    0    0  0.11075162100E+01 -0.93196731419E+00  0.40242025107E+01  0.42766062875E+01  0.51100000000E-03 0. -1.
        -11    1    3    3    0    0  0.11670644830E+01 -0.16356586071E+01  0.24761456166E+01  0.31888424173E+01  0.51100000000E-03 0.  1.
        -12    1    3    3    0    0 -0.96626169559E+01 -0.12496754281E+02  0.35303896839E+02  0.38676868617E+02  0.00000000000E+00 0.  1.
</event>
<event>
 7    1  0.2243370E-008  0.4614232E+02  0.7816164E-02  0.1320468E+00
        -11   -1    0    0    0    0  0.00000000000E+00  0.00000000000E+00  0.45593999997E+02  0.45594000000E+02  0.51100000000E-03 0.  1.
         11   -1    0    0    0    0 -0.00000000000E+00 -0.00000000000E+00 -0.45593999997E+02  0.45594000000E+02  0.51100000000E-03 0. -1.
    9900012    2    1    2    0    0 -0.15318461408E+02 -0.36398031894E+02  0.21671211645E+02  0.46142318744E+02  0.10000008964E+02 0.  0.
         12    1    1    2    0    0  0.15318461408E+02  0.36398031894E+02 -0.21671211645E+02  0.45045681256E+02  0.00000000000E+00 0. -1.
         11    1    3    3    0    0 -0.31487669688E+01 -0.48264578504E+01  0.47260348965E+01  0.74528407275E+01  0.51100000000E-03 0. -1.
        -11    1    3    3    0    0 -0.13099940585E+02 -0.29397054703E+02  0.16836933854E+02  0.36321861329E+02  0.51100000000E-03 0.  1.
         12    1    3    3    0    0  0.93024614608E+00 -0.21745193406E+01  0.10824289416E+00  0.23676166875E+01  0.00000000000E+00 0. -1.
</event>
<event>
 7    1  0.2243370E-008  0.4614232E+02  0.7816164E-02  0.1320468E+00
        -11   -1    0    0    0    0  0.00000000000E+00  0.00000000000E+00  0.45593999997E+02  0.45594000000E+02  0.51100000000E-03 0. -1.
         11   -1    0    0    0    0 -0.00000000000E+00 -0.00000000000E+00 -0.45593999997E+02  0.45594000000E+02  0.51100000000E-03 0.  1.
    9900012    2    1    2    0    0 -0.91178864601E+01 -0.38760669765E+02 -0.21061529276E+02  0.46142318857E+02  0.10000009998E+02 0.  0.
         12    1    1    2    0    0  0.91178864601E+01  0.38760669765E+02  0.21061529276E+02  0.45045681143E+02  0.00000000000E+00 0. -1.
         11    1    3    3    0    0 -0.25176945171E+01 -0.59531173121E+01 -0.78691260986E+00  0.65113457234E+01  0.51100000000E-03 0. -1.
        -11    1    3    3    0    0 -0.35902366616E-01 -0.82455560178E+00  0.46866589519E+00  0.94912006764E+00  0.51100000000E-03 0.  1.
        -12    1    3    3    0    0 -0.65642895764E+01 -0.31982996852E+02 -0.20743282561E+02  0.38681853066E+02  0.00000000000E+00 0.  1.
</event>
<event>
 7    1  0.2243370E-008  0.4614232E+02  0.7816164E-02  0.1320468E+00
        -11   -1    0    0    0    0  0.00000000000E+00  0.00000000000E+00  0.45593999997E+02  0.45594000000E+02  0.51100000000E-03 0. -1.
         11   -1    0    0    0    0 -0.00000000000E+00 -0.00000000000E+00 -0.45593999997E+02  0.45594000000E+02  0.51100000000E-03 0.  1.
    9900012    2    1    2    0    0  0.10133185835E+02  0.43641620270E+02 -0.46734223453E+01  0.46142319282E+02  0.10000013866E+02 0.  0.
         12    1    1    2    0    0 -0.10133185835E+02 -0.43641620270E+02  0.46734223453E+01  0.45045680718E+02  0.00000000000E+00 0. -1.
         11    1    3    3    0    0  0.28036417477E+01  0.78729631459E+01  0.21045095645E+01  0.86181736182E+01  0.51100000000E-03 0. -1.
        -11    1    3    3    0    0  0.21024526117E+01  0.18898873078E+02 -0.56044643021E+01  0.19824170373E+02  0.51100000000E-03 0.  1.
         12    1    3    3    0    0  0.52270914752E+01  0.16869784046E+02 -0.11734676076E+01  0.17699975290E+02  0.00000000000E+00 0. -1.
</event>
<event>
 7    1  0.2243370E-008  0.4614232E+02  0.7816164E-02  0.1320468E+00
        -11   -1    0    0    0    0  0.00000000000E+00  0.00000000000E+00  0.45593999997E+02  0.45594000000E+02  0.51100000000E-03 0. -1.
         11   -1    0    0    0    0 -0.00000000000E+00 -0.00000000000E+00 -0.45593999997E+02  0.45594000000E+02  0.51100000000E-03 0.  1.
    9900012    2    1    2    0    0  0.89022160077E+01  0.44154536333E+02  0.49086128620E+00  0.46142317927E+02  0.10000001509E+02 0.  0.
         12    1    1    2    0    0 -0.89022160077E+01 -0.44154536333E+02 -0.49086128620E+00  0.45045682073E+02  0.00000000000E+00 0. -1.
         11    1    3    3    0    0  0.82085097297E+01  0.30177260688E+02  0.36175339490E+01  0.31482268768E+02  0.51100000000E-03 0.  1.
        -11    1    3    3    0    0 -0.62563816833E+00  0.94386066021E+01 -0.11207954873E+01  0.95254868901E+01  0.51100000000E-03 0. -1.
        -12    1    3    3    0    0  0.13193444463E+01  0.45386690429E+01 -0.20058771754E+01  0.51345622688E+01  0.00000000000E+00 0.  1.
</event>
<event>
 7    1  0.2243370E-008  0.4614232E+02  0.7816164E-02  0.1320468E+00
        -11   -1    0    0    0    0  0.00000000000E+00  0.00000000000E+00  0.45593999997E+02  0.45594000000E+02  0.51100000000E-03 0.  1.
         11   -1    0    0    0    0 -0.00000000000E+00 -0.00000000000E+00 -0.45593999997E+02  0.45594000000E+02  0.51100000000E-03 0. -1.
    9900012    2    1    2    0    0  0.10659449925E+02 -0.26732227249E+02  0.34653680920E+02  0.46142318213E+02  0.10000004118E+02 0.  0.
         12    1    1    2    0    0 -0.10659449925E+02  0.26732227249E+02 -0.34653680920E+02  0.45045681787E+02  0.00000000000E+00 0. -1.
         11    1    3    3    0    0  0.30777170239E+01 -0.45350760560E+01  0.81044321224E+01  0.97837148977E+01  0.51100000000E-03 0. -1.
        -11    1    3    3    0    0  0.83767201646E+01 -0.19173375256E+02  0.25657610429E+02  0.33107412050E+02  0.51100000000E-03 0.  1.
         12    1    3    3    0    0 -0.79498726373E+00 -0.30237759367E+01  0.89163836851E+00  0.32511912655E+01  0.00000000000E+00 0. -1.
</event>
<event>
 7    1  0.2243370E-008  0.4614232E+02  0.7816164E-02  0.1320468E+00
        -11   -1    0    0    0    0  0.00000000000E+00  0.00000000000E+00  0.45593999997E+02  0.45594000000E+02  0.51100000000E-03 0.  1.
         11   -1    0    0    0    0 -0.00000000000E+00 -0.00000000000E+00 -0.45593999997E+02  0.45594000000E+02  0.51100000000E-03 0. -1.
    9900012    2    1    2    0    0 -0.19905107970E+02 -0.20588598829E+02  0.34770818077E+02  0.46142317468E+02  0.99999973271E+01 0.  0.
         12    1    1    2    0    0  0.19905107970E+02  0.20588598829E+02 -0.34770818077E+02  0.45045682532E+02  0.00000000000E+00 0. -1.
         11    1    3    3    0    0 -0.13349344320E+02 -0.18377477129E+02  0.26621851499E+02  0.34995137332E+02  0.51100000000E-03 0. -1.
        -11    1    3    3    0    0 -0.42741239306E+01 -0.29629479440E+01  0.54232413951E+01  0.75139033387E+01  0.51100000000E-03 0.  1.
         12    1    3    3    0    0 -0.22816397200E+01  0.75182624424E+00  0.27257251831E+01  0.36332767975E+01  0.00000000000E+00 0. -1.
</event>
<event>
 7    1  0.2243370E-008  0.4614232E+02  0.7816164E-02  0.1320468E+00
        -11   -1    0    0    0    0  0.00000000000E+00  0.00000000000E+00  0.45593999997E+02  0.45594000000E+02  0.51100000000E-03 0.  1.
         11   -1    0    0    0    0 -0.00000000000E+00 -0.00000000000E+00 -0.45593999997E+02  0.45594000000E+02  0.51100000000E-03 0. -1.
    9900012    2    1    2    0    0  0.19740191639E+01 -0.21120852354E+02  0.39738221884E+02  0.46142318361E+02  0.10000005467E+02 0.  0.
         12    1    1    2    0    0 -0.19740191639E+01  0.21120852354E+02 -0.39738221884E+02  0.45045681639E+02  0.00000000000E+00 0. -1.
         11    1    3    3    0    0  0.19441066355E+01 -0.95547402215E+01  0.14550922642E+02  0.17515763223E+02  0.51100000000E-03 0. -1.
        -11    1    3    3    0    0 -0.10706276956E+01 -0.12016970956E+02  0.20462045036E+02  0.23753928558E+02  0.51100000000E-03 0.  1.
         12    1    3    3    0    0  0.11005402240E+01  0.45085882358E+00  0.47252542065E+01  0.48726265791E+01  0.00000000000E+00 0. -1.
</event>
<event>
 7    1  0.2243370E-008  0.4614232E+02  0.7816164E-02  0.1320468E+00
        -11   -1    0    0    0    0  0.00000000000E+00  0.00000000000E+00  0.45593999997E+02  0.45594000000E+02  0.51100000000E-03 0.  1.
         11   -1    0    0    0    0 -0.00000000000E+00 -0.00000000000E+00 -0.45593999997E+02  0.45594000000E+02  0.51100000000E-03 0. -1.
    9900012    2    1    2    0    0  0.24404904610E+02 -0.36251504491E+02  0.10924400430E+02  0.46142317948E+02  0.10000001700E+02 0.  0.
         12    1    1    2    0    0 -0.24404904610E+02  0.36251504491E+02 -0.10924400430E+02  0.45045682052E+02  0.00000000000E+00 0. -1.
         11    1    3    3    0    0  0.62543759014E+01 -0.66241829037E+01  0.85530428448E+00  0.91503312911E+01  0.51100000000E-03 0.  1.
        -11    1    3    3    0    0  0.94876649014E+01 -0.87496073968E+01  0.48978652076E+01  0.13804365206E+02  0.51100000000E-03 0. -1.
         12    1    3    3    0    0  0.86628638068E+01 -0.20877714190E+02  0.51712309375E+01  0.23187621451E+02  0.00000000000E+00 0. -1.
</event>
<event>
 7    1  0.2243370E-008  0.4614232E+02  0.7816164E-02  0.1320468E+00
        -11   -1    0    0    0    0  0.00000000000E+00  0.00000000000E+00  0.45593999997E+02  0.45594000000E+02  0.51100000000E-03 0.  1.
         11   -1    0    0    0    0 -0.00000000000E+00 -0.00000000000E+00 -0.45593999997E+02  0.45594000000E+02  0.51100000000E-03 0. -1.
    9900012    2    1    2    0    0  0.11334890966E+02  0.42499120255E+02  0.97189800199E+01  0.46142317096E+02  0.99999939328E+01 0.  0.
         12    1    1    2    0    0 -0.11334890966E+02 -0.42499120255E+02 -0.97189800199E+01  0.45045682904E+02  0.00000000000E+00 0. -1.
         11    1    3    3    0    0 -0.22170055007E+00  0.96107491368E+01  0.17568717913E+00  0.96149111462E+01  0.51100000000E-03 0. -1.
        -11    1    3    3    0    0 -0.39298680267E+00  0.28973663937E+01  0.26092916613E+00  0.29355161279E+01  0.51100000000E-03 0.  1.
         12    1    3    3    0    0  0.11949578319E+02  0.29991004725E+02  0.92823636746E+01  0.33591889822E+02  0.00000000000E+00 0. -1.
</event>
<event>
 7    1  0.2243370E-008  0.4614232E+02  0.7816164E-02  0.1320468E+00
        -11   -1    0    0    0    0  0.00000000000E+00  0.00000000000E+00  0.45593999997E+02  0.45594000000E+02  0.51100000000E-03 0.  1.
         11   -1    0    0    0    0 -0.00000000000E+00 -0.00000000000E+00 -0.45593999997E+02  0.45594000000E+02  0.51100000000E-03 0. -1.
    9900012    2    1    2    0    0 -0.42783678467E+02  0.13184942009E+02  0.49827283182E+01  0.46142318515E+02  0.10000006870E+02 0.  0.
         12    1    1    2    0    0  0.42783678467E+02 -0.13184942009E+02 -0.49827283182E+01  0.45045681485E+02  0.00000000000E+00 0. -1.
         11    1    3    3    0    0 -0.56443374315E+01  0.28256407397E+01  0.21921144351E+01  0.66819276102E+01  0.51100000000E-03 0. -1.
        -11    1    3    3    0    0 -0.24294469864E+02  0.98525150771E+01  0.41158385421E+01  0.26537397130E+02  0.51100000000E-03 0.  1.
         12    1    3    3    0    0 -0.12844871172E+02  0.50678619263E+00 -0.13252246590E+01  0.12922993774E+02  0.00000000000E+00 0. -1.
</event>
<event>
 7    1  0.2243370E-008  0.4614231E+02  0.7816164E-02  0.1320468E+00
        -11   -1    0    0    0    0  0.00000000000E+00  0.00000000000E+00  0.45593999997E+02  0.45594000000E+02  0.51100000000E-03 0. -1.
         11   -1    0    0    0    0 -0.00000000000E+00 -0.00000000000E+00 -0.45593999997E+02  0.45594000000E+02  0.51100000000E-03 0.  1.
    9900012    2    1    2    0    0 -0.18414175794E+02 -0.36425695855E+02 -0.19057822205E+02  0.46142314570E+02  0.99999709026E+01 0.  0.
         12    1    1    2    0    0  0.18414175794E+02  0.36425695855E+02  0.19057822205E+02  0.45045685430E+02  0.00000000000E+00 0. -1.
         11    1    3    3    0    0 -0.25717608288E+01 -0.28499360294E+01 -0.32954921768E+01  0.50592843447E+01  0.51100000000E-03 0.  1.
        -11    1    3    3    0    0 -0.57673723164E-01 -0.64718808957E+01 -0.15903145861E+01  0.66646582306E+01  0.51100000000E-03 0. -1.
        -12    1    3    3    0    0 -0.15784741242E+02 -0.27103878929E+02 -0.14172015442E+02  0.34418371995E+02  0.00000000000E+00 0.  1.
</event>
<event>
 7    1  0.2243370E-008  0.4614233E+02  0.7816164E-02  0.1320468E+00
        -11   -1    0    0    0    0  0.00000000000E+00  0.00000000000E+00  0.45593999997E+02  0.45594000000E+02  0.51100000000E-03 0.  1.
         11   -1    0    0    0    0 -0.00000000000E+00 -0.00000000000E+00 -0.45593999997E+02  0.45594000000E+02  0.51100000000E-03 0. -1.
    9900012    2    1    2    0    0  0.42032432153E+02  0.85627827841E+01  0.13750134690E+02  0.46142325339E+02  0.10000069101E+02 0.  0.
         12    1    1    2    0    0 -0.42032432153E+02 -0.85627827841E+01 -0.13750134690E+02  0.45045674661E+02  0.00000000000E+00 0. -1.
         11    1    3    3    0    0  0.15507520470E+02 -0.28733702937E+00  0.71569729784E+01  0.17081803657E+02  0.51100000000E-03 0. -1.
        -11    1    3    3    0    0  0.52528398906E+01  0.14913513707E+01  0.31090610095E+01  0.62835273891E+01  0.51100000000E-03 0.  1.
        -12    1    3    3    0    0  0.21272071792E+02  0.73587684428E+01  0.34841007017E+01  0.22776994293E+02  0.00000000000E+00 0.  1.
</event>
<event>
 7    1  0.2243370E-008  0.4614232E+02  0.7816164E-02  0.1320468E+00
        -11   -1    0    0    0    0  0.00000000000E+00  0.00000000000E+00  0.45593999997E+02  0.45594000000E+02  0.51100000000E-03 0.  1.
         11   -1    0    0    0    0 -0.00000000000E+00 -0.00000000000E+00 -0.45593999997E+02  0.45594000000E+02  0.51100000000E-03 0. -1.
    9900012    2    1    2    0    0  0.29895212596E+02  0.31996373031E+02  0.10565124892E+02  0.46142317773E+02  0.10000000112E+02 0.  0.
         12    1    1    2    0    0 -0.29895212596E+02 -0.31996373031E+02 -0.10565124892E+02  0.45045682227E+02  0.00000000000E+00 0. -1.
         11    1    3    3    0    0  0.11745744996E+02  0.17439260816E+02  0.52182823622E+01  0.21663813477E+02  0.51100000000E-03 0.  1.
        -11    1    3    3    0    0  0.42333609633E+01  0.39365557600E+01 -0.98227021781E+00  0.58636738773E+01  0.51100000000E-03 0. -1.
        -12    1    3    3    0    0  0.13916106637E+02  0.10620556455E+02  0.63291127474E+01  0.18614830419E+02  0.00000000000E+00 0.  1.
</event>
<event>
 7    1  0.2243370E-008  0.4614232E+02  0.7816164E-02  0.1320468E+00
        -11   -1    0    0    0    0  0.00000000000E+00  0.00000000000E+00  0.45593999997E+02  0.45594000000E+02  0.51100000000E-03 0.  1.
         11   -1    0    0    0    0 -0.00000000000E+00 -0.00000000000E+00 -0.45593999997E+02  0.45594000000E+02  0.51100000000E-03 0. -1.
    9900012    2    1    2    0    0 -0.31733484764E+02  0.64216504370E+01  0.31318713872E+02  0.46142317763E+02  0.10000000019E+02 0.  0.
         12    1    1    2    0    0  0.31733484764E+02 -0.64216504370E+01 -0.31318713872E+02  0.45045682237E+02  0.00000000000E+00 0. -1.
         11    1    3    3    0    0  0.11493067866E+00 -0.28684185410E+00  0.44962163957E+00  0.54557051795E+00  0.51100000000E-03 0. -1.
        -11    1    3    3    0    0 -0.25948325808E+02  0.70591874141E+01  0.21110226401E+02  0.34187562038E+02  0.51100000000E-03 0.  1.
         12    1    3    3    0    0 -0.59000896346E+01 -0.35069512303E+00  0.97588658319E+01  0.11409185207E+02  0.00000000000E+00 0. -1.
</event>
<event>
 7    1  0.2243370E-008  0.4614232E+02  0.7816164E-02  0.1320468E+00
        -11   -1    0    0    0    0  0.00000000000E+00  0.00000000000E+00  0.45593999997E+02  0.45594000000E+02  0.51100000000E-03 0.  1.
         11   -1    0    0    0    0 -0.00000000000E+00 -0.00000000000E+00 -0.45593999997E+02  0.45594000000E+02  0.51100000000E-03 0. -1.
    9900012    2    1    2    0    0  0.10353636558E+01  0.22721093901E+02  0.38881788387E+02  0.46142317031E+02  0.99999933418E+01 0.  0.
         12    1    1    2    0    0 -0.10353636558E+01 -0.22721093901E+02 -0.38881788387E+02  0.45045682969E+02  0.00000000000E+00 0. -1.
         11    1    3    3    0    0 -0.13721354756E+01  0.80675989293E+00  0.33050770538E+01  0.36683990896E+01  0.51100000000E-03 0. -1.
        -11    1    3    3    0    0  0.30882736165E+01  0.16660597175E+02  0.31576697286E+02  0.35835746733E+02  0.51100000000E-03 0.  1.
         12    1    3    3    0    0 -0.68077448517E+00  0.52537368332E+01  0.40000140475E+01  0.66381712084E+01  0.00000000000E+00 0. -1.
</event>
<event>
 7    1  0.2243370E-008  0.4614232E+02  0.7816164E-02  0.1320468E+00
        -11   -1    0    0    0    0  0.00000000000E+00  0.00000000000E+00  0.45593999997E+02  0.45594000000E+02  0.51100000000E-03 0.  1.
         11   -1    0    0    0    0 -0.00000000000E+00 -0.00000000000E+00 -0.45593999997E+02  0.45594000000E+02  0.51100000000E-03 0. -1.
    9900012    2    1    2    0    0  0.30279552584E+02  0.20208378798E+00  0.33349983348E+02  0.46142317279E+02  0.99999955994E+01 0.  0.
         12    1    1    2    0    0 -0.30279552584E+02 -0.20208378798E+00 -0.33349983348E+02  0.45045682721E+02  0.00000000000E+00 0. -1.
         11    1    3    3    0    0  0.45232027986E+01  0.82819704936E+00  0.87071661332E+01  0.98468277249E+01  0.51100000000E-03 0. -1.
        -11    1    3    3    0    0  0.15583460538E+02 -0.36364294013E+01  0.15741930514E+02  0.22447187746E+02  0.51100000000E-03 0.  1.
        -12    1    3    3    0    0  0.10172889247E+02  0.30103161400E+01  0.89008866999E+01  0.13848301807E+02  0.00000000000E+00 0.  1.
</event>
<event>
 7    1  0.2243370E-008  0.4614232E+02  0.7816164E-02  0.1320468E+00
        -11   -1    0    0    0    0  0.00000000000E+00  0.00000000000E+00  0.45593999997E+02  0.45594000000E+02  0.51100000000E-03 0.  1.
         11   -1    0    0    0    0 -0.00000000000E+00 -0.00000000000E+00 -0.45593999997E+02  0.45594000000E+02  0.51100000000E-03 0. -1.
    9900012    2    1    2    0    0 -0.52928182471E+01 -0.27972918418E+02  0.34908670877E+02  0.46142318828E+02  0.10000009728E+02 0.  0.
         12    1    1    2    0    0  0.52928182471E+01  0.27972918418E+02 -0.34908670877E+02  0.45045681172E+02  0.00000000000E+00 0. -1.
         11    1    3    3    0    0 -0.28179143576E+01 -0.20671237319E+02  0.20555321153E+02  0.29287572818E+02  0.51100000000E-03 0. -1.
        -11    1    3    3    0    0 -0.19669715325E+01 -0.73620257330E+01  0.14448134460E+02  0.16334533649E+02  0.51100000000E-03 0.  1.
         12    1    3    3    0    0 -0.50793235698E+00  0.60344633356E-01 -0.94784735609E-01  0.52021236063E+00  0.00000000000E+00 0. -1.
</event>
<event>
 7    1  0.2243370E-008  0.4614232E+02  0.7816164E-02  0.1320468E+00
        -11   -1    0    0    0    0  0.00000000000E+00  0.00000000000E+00  0.45593999997E+02  0.45594000000E+02  0.51100000000E-03 0.  1.
         11   -1    0    0    0    0 -0.00000000000E+00 -0.00000000000E+00 -0.45593999997E+02  0.45594000000E+02  0.51100000000E-03 0. -1.
    9900012    2    1    2    0    0 -0.15436147984E+02 -0.81889254171E+01  0.41518432467E+02  0.46142318758E+02  0.10000009091E+02 0.  0.
         12    1    1    2    0    0  0.15436147984E+02  0.81889254171E+01 -0.41518432467E+02  0.45045681242E+02  0.00000000000E+00 0. -1.
         11    1    3    3    0    0 -0.30681949562E+01 -0.17614279597E+01  0.56887426729E+01  0.66991224952E+01  0.51100000000E-03 0. -1.
        -11    1    3    3    0    0 -0.12242804979E+02 -0.27202144072E+01  0.24527405573E+02  0.27547766962E+02  0.51100000000E-03 0.  1.
        -12    1    3    3    0    0 -0.12514804853E+00 -0.37072830502E+01  0.11302284220E+02  0.11895429301E+02  0.00000000000E+00 0.  1.
</event>
<event>
 7    1  0.2243370E-008  0.4614232E+02  0.7816164E-02  0.1320468E+00
        -11   -1    0    0    0    0  0.00000000000E+00  0.00000000000E+00  0.45593999997E+02  0.45594000000E+02  0.51100000000E-03 0.  1.
         11   -1    0    0    0    0 -0.00000000000E+00 -0.00000000000E+00 -0.45593999997E+02  0.45594000000E+02  0.51100000000E-03 0. -1.
    9900012    2    1    2    0    0 -0.23950461164E+02  0.24020358706E+02  0.29639689829E+02  0.46142318348E+02  0.10000005356E+02 0.  0.
         12    1    1    2    0    0  0.23950461164E+02 -0.24020358706E+02 -0.29639689829E+02  0.45045681652E+02  0.00000000000E+00 0. -1.
         11    1    3    3    0    0 -0.66074012223E+01  0.10629647942E+02  0.11609555495E+02  0.17071290090E+02  0.51100000000E-03 0. -1.
        -11    1    3    3    0    0 -0.10267771563E+02  0.11474906439E+02  0.11083270872E+02  0.18972071688E+02  0.51100000000E-03 0.  1.
        -12    1    3    3    0    0 -0.70752883790E+01  0.19158043244E+01  0.69468634617E+01  0.10098956570E+02  0.00000000000E+00 0.  1.
</event>
<event>
 7    1  0.2243370E-008  0.4614232E+02  0.7816164E-02  0.1320468E+00
        -11   -1    0    0    0    0  0.00000000000E+00  0.00000000000E+00  0.45593999997E+02  0.45594000000E+02  0.51100000000E-03 0.  1.
         11   -1    0    0    0    0 -0.00000000000E+00 -0.00000000000E+00 -0.45593999997E+02  0.45594000000E+02  0.51100000000E-03 0. -1.
    9900012    2    1    2    0    0 -0.41881984817E+02  0.15703589522E+02 -0.53301294687E+01  0.46142315897E+02  0.99999830040E+01 0.  0.
         12    1    1    2    0    0  0.41881984817E+02 -0.15703589522E+02  0.53301294687E+01  0.45045684103E+02  0.00000000000E+00 0. -1.
         11    1    3    3    0    0 -0.16628385600E+02  0.78770396589E+01 -0.46289333340E+01  0.18973085820E+02  0.51100000000E-03 0.  1.
        -11    1    3    3    0    0 -0.78033350664E+01 -0.31875302012E-01 -0.17688970329E+01  0.80013780793E+01  0.51100000000E-03 0. -1.
         12    1    3    3    0    0 -0.17450264151E+02  0.78584251656E+01  0.10677008982E+01  0.19167851998E+02  0.00000000000E+00 0. -1.
</event>
<event>
 7    1  0.2243370E-008  0.4614232E+02  0.7816164E-02  0.1320468E+00
        -11   -1    0    0    0    0  0.00000000000E+00  0.00000000000E+00  0.45593999997E+02  0.45594000000E+02  0.51100000000E-03 0. -1.
         11   -1    0    0    0    0 -0.00000000000E+00 -0.00000000000E+00 -0.45593999997E+02  0.45594000000E+02  0.51100000000E-03 0.  1.
    9900012    2    1    2    0    0  0.98859377137E+01  0.28156311606E+02 -0.33743204080E+02  0.46142317973E+02  0.10000001931E+02 0.  0.
         12    1    1    2    0    0 -0.98859377137E+01 -0.28156311606E+02  0.33743204080E+02  0.45045682027E+02  0.00000000000E+00 0. -1.
         11    1    3    3    0    0  0.13035333288E+01  0.10738619351E+02 -0.98367818676E+01  0.14621197710E+02  0.51100000000E-03 0. -1.
        -11    1    3    3    0    0  0.40922881040E+01  0.12986429359E+02 -0.19667289691E+02  0.23920628200E+02  0.51100000000E-03 0.  1.
         12    1    3    3    0    0  0.44901162809E+01  0.44312628962E+01 -0.42391325211E+01  0.76004920632E+01  0.00000000000E+00 0. -1.
</event>
<event>
 7    1  0.2243370E-008  0.4614231E+02  0.7816164E-02  0.1320468E+00
        -11   -1    0    0    0    0  0.00000000000E+00  0.00000000000E+00  0.45593999997E+02  0.45594000000E+02  0.51100000000E-03 0.  1.
         11   -1    0    0    0    0 -0.00000000000E+00 -0.00000000000E+00 -0.45593999997E+02  0.45594000000E+02  0.51100000000E-03 0. -1.
    9900012    2    1    2    0    0 -0.33464761310E+02 -0.23615662803E+01  0.30060714721E+02  0.46142314143E+02  0.99999670061E+01 0.  0.
         12    1    1    2    0    0  0.33464761310E+02  0.23615662803E+01 -0.30060714721E+02  0.45045685857E+02  0.00000000000E+00 0. -1.
         11    1    3    3    0    0 -0.10292469619E+02 -0.21410693479E+01  0.96590732339E+01  0.14276442302E+02  0.51100000000E-03 0.  1.
        -11    1    3    3    0    0 -0.17563523656E+02 -0.13752279080E+01  0.19117860267E+02  0.25997330565E+02  0.51100000000E-03 0. -1.
         12    1    3    3    0    0 -0.56087680341E+01  0.11547309756E+01  0.12837812197E+01  0.58685412759E+01  0.00000000000E+00 0. -1.
</event>
<event>
 7    1  0.2243370E-008  0.4614232E+02  0.7816164E-02  0.1320468E+00
        -11   -1    0    0    0    0  0.00000000000E+00  0.00000000000E+00  0.45593999997E+02  0.45594000000E+02  0.51100000000E-03 0.  1.
         11   -1    0    0    0    0 -0.00000000000E+00 -0.00000000000E+00 -0.45593999997E+02  0.45594000000E+02  0.51100000000E-03 0. -1.
    9900012    2    1    2    0    0 -0.42722513803E+02 -0.13524502759E+02 -0.45812805138E+01  0.46142317725E+02  0.99999996674E+01 0.  0.
         12    1    1    2    0    0  0.42722513803E+02  0.13524502759E+02  0.45812805138E+01  0.45045682275E+02  0.00000000000E+00 0. -1.
         11    1    3    3    0    0 -0.61834893312E+01 -0.32269503015E+01  0.15308448291E+01  0.71408847288E+01  0.51100000000E-03 0. -1.
        -11    1    3    3    0    0 -0.64396015764E+01 -0.33759117860E+00 -0.30978378394E+01  0.71539524605E+01  0.51100000000E-03 0.  1.
        -12    1    3    3    0    0 -0.30099422895E+02 -0.99599612786E+01 -0.30142875035E+01  0.31847480535E+02  0.00000000000E+00 0.  1.
</event>
<event>
 7    1  0.2243370E-008  0.4614232E+02  0.7816164E-02  0.1320468E+00
        -11   -1    0    0    0    0  0.00000000000E+00  0.00000000000E+00  0.45593999997E+02  0.45594000000E+02  0.51100000000E-03 0.  1.
         11   -1    0    0    0    0 -0.00000000000E+00 -0.00000000000E+00 -0.45593999997E+02  0.45594000000E+02  0.51100000000E-03 0. -1.
    9900012    2    1    2    0    0 -0.78633544998E+01  0.17364971383E+02  0.40813464845E+02  0.46142317767E+02  0.10000000057E+02 0.  0.
         12    1    1    2    0    0  0.78633544998E+01 -0.17364971383E+02 -0.40813464845E+02  0.45045682233E+02  0.00000000000E+00 0. -1.
         11    1    3    3    0    0 -0.27340849859E+01  0.36073276038E+01  0.13556988765E+02  0.14292654680E+02  0.51100000000E-03 0.  1.
        -11    1    3    3    0    0 -0.61155475317E+01  0.57729213750E+01  0.14742516323E+02  0.16972575839E+02  0.51100000000E-03 0. -1.
         12    1    3    3    0    0  0.98627801778E+00  0.79847224043E+01  0.12513959758E+02  0.14877087249E+02  0.00000000000E+00 0. -1.
</event>
<event>
 7    1  0.2243370E-008  0.4614232E+02  0.7816164E-02  0.1320468E+00
        -11   -1    0    0    0    0  0.00000000000E+00  0.00000000000E+00  0.45593999997E+02  0.45594000000E+02  0.51100000000E-03 0. -1.
         11   -1    0    0    0    0 -0.00000000000E+00 -0.00000000000E+00 -0.45593999997E+02  0.45594000000E+02  0.51100000000E-03 0.  1.
    9900012    2    1    2    0    0  0.34608268611E+02  0.28745796884E+02 -0.22494872858E+01  0.46142319988E+02  0.10000020302E+02 0.  0.
         12    1    1    2    0    0 -0.34608268611E+02 -0.28745796884E+02  0.22494872858E+01  0.45045680012E+02  0.00000000000E+00 0. -1.
         11    1    3    3    0    0  0.10152059782E+02  0.99094031203E+01  0.17303479497E+01  0.14291770090E+02  0.51100000000E-03 0. -1.
        -11    1    3    3    0    0  0.16191294936E+02  0.14857753797E+02 -0.32810540091E+00  0.21977682612E+02  0.51100000000E-03 0.  1.
         12    1    3    3    0    0  0.82649138932E+01  0.39786399664E+01 -0.36517298346E+01  0.98728672851E+01  0.00000000000E+00 0. -1.
</event>
<event>
 7    1  0.2243370E-008  0.4614232E+02  0.7816164E-02  0.1320468E+00
        -11   -1    0    0    0    0  0.00000000000E+00  0.00000000000E+00  0.45593999997E+02  0.45594000000E+02  0.51100000000E-03 0. -1.
         11   -1    0    0    0    0 -0.00000000000E+00 -0.00000000000E+00 -0.45593999997E+02  0.45594000000E+02  0.51100000000E-03 0.  1.
    9900012    2    1    2    0    0 -0.11063662456E+02 -0.40744107516E+02 -0.15704353040E+02  0.46142316204E+02  0.99999858047E+01 0.  0.
         12    1    1    2    0    0  0.11063662456E+02  0.40744107516E+02  0.15704353040E+02  0.45045683796E+02  0.00000000000E+00 0. -1.
         11    1    3    3    0    0 -0.26931983574E+01 -0.35972644309E+01 -0.10697732035E+01  0.46193120425E+01  0.51100000000E-03 0. -1.
        -11    1    3    3    0    0  0.91800394251E+00 -0.10004765638E+02 -0.52746571398E+01  0.11347249663E+02  0.51100000000E-03 0.  1.
         12    1    3    3    0    0 -0.92884680416E+01 -0.27142077447E+02 -0.93599226967E+01  0.30175754499E+02  0.00000000000E+00 0. -1.
</event>
<event>
 7    1  0.2243370E-008  0.4614232E+02  0.7816164E-02  0.1320468E+00
        -11   -1    0    0    0    0  0.00000000000E+00  0.00000000000E+00  0.45593999997E+02  0.45594000000E+02  0.51100000000E-03 0.  1.
         11   -1    0    0    0    0 -0.00000000000E+00 -0.00000000000E+00 -0.45593999997E+02  0.45594000000E+02  0.51100000000E-03 0. -1.
    9900012    2    1    2    0    0 -0.26845366930E+02 -0.25525827017E+02  0.25629514206E+02  0.46142316867E+02  0.99999918456E+01 0.  0.
         12    1    1    2    0    0  0.26845366930E+02  0.25525827017E+02 -0.25629514206E+02  0.45045683133E+02  0.00000000000E+00 0. -1.
         11    1    3    3    0    0 -0.11646612939E+02 -0.15937540250E+02  0.16821371436E+02  0.25934674076E+02  0.51100000000E-03 0.  1.
        -11    1    3    3    0    0 -0.39728704711E+01 -0.26590212426E+01  0.37617096971E+01  0.60831368434E+01  0.51100000000E-03 0. -1.
         12    1    3    3    0    0 -0.11225883520E+02 -0.69292655249E+01  0.50464330725E+01  0.14124505948E+02  0.00000000000E+00 0. -1.
</event>
<event>
 7    1  0.2243370E-008  0.4614232E+02  0.7816164E-02  0.1320468E+00
        -11   -1    0    0    0    0  0.00000000000E+00  0.00000000000E+00  0.45593999997E+02  0.45594000000E+02  0.51100000000E-03 0. -1.
         11   -1    0    0    0    0 -0.00000000000E+00 -0.00000000000E+00 -0.45593999997E+02  0.45594000000E+02  0.51100000000E-03 0.  1.
    9900012    2    1    2    0    0 -0.43649471135E+02  0.25695630652E+01  0.10827479549E+02  0.46142319873E+02  0.10000019259E+02 0.  0.
         12    1    1    2    0    0  0.43649471135E+02 -0.25695630652E+01 -0.10827479549E+02  0.45045680127E+02  0.00000000000E+00 0. -1.
         11    1    3    3    0    0 -0.50621939450E+01 -0.21596706469E+01  0.22362384539E+01  0.59406016130E+01  0.51100000000E-03 0. -1.
        -11    1    3    3    0    0 -0.21087350206E+02  0.25955949158E+01  0.75259703572E+01  0.22540046179E+02  0.51100000000E-03 0.  1.
         12    1    3    3    0    0 -0.17499926984E+02  0.21336387963E+01  0.10652707377E+01  0.17661672081E+02  0.00000000000E+00 0. -1.
</event>
<event>
 7    1  0.2243370E-008  0.4614232E+02  0.7816164E-02  0.1320468E+00
        -11   -1    0    0    0    0  0.00000000000E+00  0.00000000000E+00  0.45593999997E+02  0.45594000000E+02  0.51100000000E-03 0.  1.
         11   -1    0    0    0    0 -0.00000000000E+00 -0.00000000000E+00 -0.45593999997E+02  0.45594000000E+02  0.51100000000E-03 0. -1.
    9900012    2    1    2    0    0  0.31691635393E+02  0.27975679843E+02  0.15560047263E+02  0.46142317772E+02  0.10000000098E+02 0.  0.
         12    1    1    2    0    0 -0.31691635393E+02 -0.27975679843E+02 -0.15560047263E+02  0.45045682228E+02  0.00000000000E+00 0. -1.
         11    1    3    3    0    0  0.51732469594E+01  0.14034271518E+01  0.43039890826E+01  0.68743300879E+01  0.51100000000E-03 0. -1.
        -11    1    3    3    0    0  0.23806439850E+01  0.28548489896E+01  0.44906274733E+00  0.37442337199E+01  0.51100000000E-03 0.  1.
        -12    1    3    3    0    0  0.24137744449E+02  0.23717403701E+02  0.10806995433E+02  0.35523753964E+02  0.00000000000E+00 0.  1.
</event>
<event>
 7    1  0.2243370E-008  0.4614232E+02  0.7816164E-02  0.1320468E+00
        -11   -1    0    0    0    0  0.00000000000E+00  0.00000000000E+00  0.45593999997E+02  0.45594000000E+02  0.51100000000E-03 0. -1.
         11   -1    0    0    0    0 -0.00000000000E+00 -0.00000000000E+00 -0.45593999997E+02  0.45594000000E+02  0.51100000000E-03 0.  1.
    9900012    2    1    2    0    0 -0.41925053733E+02  0.13112902198E+01 -0.16422058586E+02  0.46142316291E+02  0.99999865975E+01 0.  0.
         12    1    1    2    0    0  0.41925053733E+02 -0.13112902198E+01  0.16422058586E+02  0.45045683709E+02  0.00000000000E+00 0. -1.
         11    1    3    3    0    0 -0.11648768615E+02  0.13576454365E+01 -0.38510878778E+01  0.12343738878E+02  0.51100000000E-03 0.  1.
        -11    1    3    3    0    0 -0.50672869176E+00  0.11579768099E+01 -0.16224343939E+01  0.20566910033E+01  0.51100000000E-03 0. -1.
         12    1    3    3    0    0 -0.29769556426E+02 -0.12043320266E+01 -0.10948536315E+02  0.31741886410E+02  0.00000000000E+00 0. -1.
</event>
<event>
 7    1  0.2243370E-008  0.4614232E+02  0.7816164E-02  0.1320468E+00
        -11   -1    0    0    0    0  0.00000000000E+00  0.00000000000E+00  0.45593999997E+02  0.45594000000E+02  0.51100000000E-03 0.  1.
         11   -1    0    0    0    0 -0.00000000000E+00 -0.00000000000E+00 -0.45593999997E+02  0.45594000000E+02  0.51100000000E-03 0. -1.
    9900012    2    1    2    0    0  0.37913306353E+02  0.36957658996E+01  0.24042379425E+02  0.46142317713E+02  0.99999995640E+01 0.  0.
         12    1    1    2    0    0 -0.37913306353E+02 -0.36957658996E+01 -0.24042379425E+02  0.45045682287E+02  0.00000000000E+00 0. -1.
         11    1    3    3    0    0  0.35021959734E+00  0.90608900378E+00  0.19681130537E+01  0.21947939088E+01  0.51100000000E-03 0. -1.
        -11    1    3    3    0    0  0.24606324976E+00 -0.47765268154E+00  0.39348902470E+00  0.66598279313E+00  0.51100000000E-03 0.  1.
        -12    1    3    3    0    0  0.37317023506E+02  0.32673295774E+01  0.21680777347E+02  0.43281541011E+02  0.00000000000E+00 0.  1.
</event>
<event>
 7    1  0.2243370E-008  0.4614232E+02  0.7816164E-02  0.1320468E+00
        -11   -1    0    0    0    0  0.00000000000E+00  0.00000000000E+00  0.45593999997E+02  0.45594000000E+02  0.51100000000E-03 0. -1.
         11   -1    0    0    0    0 -0.00000000000E+00 -0.00000000000E+00 -0.45593999997E+02  0.45594000000E+02  0.51100000000E-03 0.  1.
    9900012    2    1    2    0    0  0.42288827203E+01 -0.21519704161E+02 -0.39346312659E+02  0.46142318341E+02  0.10000005286E+02 0.  0.
         12    1    1    2    0    0 -0.42288827203E+01  0.21519704161E+02  0.39346312659E+02  0.45045681659E+02  0.00000000000E+00 0. -1.
         11    1    3    3    0    0  0.34850301690E+01 -0.10255493439E+02 -0.27156785658E+02  0.29237161088E+02  0.51100000000E-03 0. -1.
        -11    1    3    3    0    0  0.17194434454E+01 -0.53065922819E+01 -0.69486226811E+01  0.89106545681E+01  0.51100000000E-03 0.  1.
         12    1    3    3    0    0 -0.97559089404E+00 -0.59576184410E+01 -0.52409043202E+01  0.79945026847E+01  0.00000000000E+00 0. -1.
</event>
<event>
 7    1  0.2243370E-008  0.4614232E+02  0.7816164E-02  0.1320468E+00
        -11   -1    0    0    0    0  0.00000000000E+00  0.00000000000E+00  0.45593999997E+02  0.45594000000E+02  0.51100000000E-03 0.  1.
         11   -1    0    0    0    0 -0.00000000000E+00 -0.00000000000E+00 -0.45593999997E+02  0.45594000000E+02  0.51100000000E-03 0. -1.
    9900012    2    1    2    0    0  0.84513710300E+01 -0.67986323588E+01  0.43720320627E+02  0.46142317521E+02  0.99999978119E+01 0.  0.
         12    1    1    2    0    0 -0.84513710300E+01  0.67986323588E+01 -0.43720320627E+02  0.45045682479E+02  0.00000000000E+00 0. -1.
         11    1    3    3    0    0  0.51067850862E+01 -0.48221032894E+01  0.11994493939E+02  0.13899633778E+02  0.51100000000E-03 0.  1.
        -11    1    3    3    0    0 -0.65211339845E+00  0.17880139381E+00  0.11703326016E+01  0.13516288256E+01  0.51100000000E-03 0. -1.
        -12    1    3    3    0    0  0.39966993423E+01 -0.21553304632E+01  0.30555494086E+02  0.30891054917E+02  0.00000000000E+00 0.  1.
</event>
<event>
 7    1  0.2243370E-008  0.4614232E+02  0.7816164E-02  0.1320468E+00
        -11   -1    0    0    0    0  0.00000000000E+00  0.00000000000E+00  0.45593999997E+02  0.45594000000E+02  0.51100000000E-03 0.  1.
         11   -1    0    0    0    0 -0.00000000000E+00 -0.00000000000E+00 -0.45593999997E+02  0.45594000000E+02  0.51100000000E-03 0. -1.
    9900012    2    1    2    0    0 -0.44688499422E+02 -0.51177513288E+01  0.24207560310E+01  0.46142318531E+02  0.10000007017E+02 0.  0.
         12    1    1    2    0    0  0.44688499422E+02  0.51177513288E+01 -0.24207560310E+01  0.45045681469E+02  0.00000000000E+00 0. -1.
         11    1    3    3    0    0 -0.11035130037E+02 -0.12336523892E+01 -0.23430006900E+01  0.11348376344E+02  0.51100000000E-03 0. -1.
        -11    1    3    3    0    0 -0.22250855633E+02 -0.33924236119E+01  0.21845344176E+00  0.22509038996E+02  0.51100000000E-03 0.  1.
         12    1    3    3    0    0 -0.11402513752E+02 -0.49167532771E+00  0.45453032793E+01  0.12284903190E+02  0.00000000000E+00 0. -1.
</event>
<event>
 7    1  0.2243370E-008  0.4614232E+02  0.7816164E-02  0.1320468E+00
        -11   -1    0    0    0    0  0.00000000000E+00  0.00000000000E+00  0.45593999997E+02  0.45594000000E+02  0.51100000000E-03 0.  1.
         11   -1    0    0    0    0 -0.00000000000E+00 -0.00000000000E+00 -0.45593999997E+02  0.45594000000E+02  0.51100000000E-03 0. -1.
    9900012    2    1    2    0    0 -0.42177682161E+02 -0.14900169631E+02  0.53048768883E+01  0.46142316008E+02  0.99999840138E+01 0.  0.
         12    1    1    2    0    0  0.42177682161E+02  0.14900169631E+02 -0.53048768883E+01  0.45045683992E+02  0.00000000000E+00 0. -1.
         11    1    3    3    0    0 -0.55994652930E+01 -0.30414370919E+01  0.14279204407E+01  0.65301843923E+01  0.51100000000E-03 0. -1.
        -11    1    3    3    0    0 -0.22471445888E+02 -0.11402494160E+02  0.38940908754E+01  0.25497974378E+02  0.51100000000E-03 0.  1.
         12    1    3    3    0    0 -0.14106770980E+02 -0.45623837848E+00 -0.17134427837E-01  0.14114157238E+02  0.00000000000E+00 0. -1.
</event>
<event>
 7    1  0.2243370E-008  0.4614232E+02  0.7816164E-02  0.1320468E+00
        -11   -1    0    0    0    0  0.00000000000E+00  0.00000000000E+00  0.45593999997E+02  0.45594000000E+02  0.51100000000E-03 0. -1.
         11   -1    0    0    0    0 -0.00000000000E+00 -0.00000000000E+00 -0.45593999997E+02  0.45594000000E+02  0.51100000000E-03 0.  1.
    9900012    2    1    2    0    0 -0.26417252105E+02 -0.26968970869E-01 -0.36486182640E+02  0.46142318079E+02  0.10000002896E+02 0.  0.
         12    1    1    2    0    0  0.26417252105E+02  0.26968970869E-01  0.36486182640E+02  0.45045681921E+02  0.00000000000E+00 0. -1.
         11    1    3    3    0    0 -0.41846742899E+00 -0.56613261300E+00 -0.36635357360E+01  0.37305650343E+01  0.51100000000E-03 0. -1.
        -11    1    3    3    0    0 -0.51497516542E+01  0.16065590220E+01 -0.35512762457E+01  0.64585243845E+01  0.51100000000E-03 0.  1.
        -12    1    3    3    0    0 -0.20849033022E+02 -0.10673953799E+01 -0.29271370659E+02  0.35953228660E+02  0.00000000000E+00 0.  1.
</event>
<event>
 7    1  0.2243370E-008  0.4614232E+02  0.7816164E-02  0.1320468E+00
        -11   -1    0    0    0    0  0.00000000000E+00  0.00000000000E+00  0.45593999997E+02  0.45594000000E+02  0.51100000000E-03 0.  1.
         11   -1    0    0    0    0 -0.00000000000E+00 -0.00000000000E+00 -0.45593999997E+02  0.45594000000E+02  0.51100000000E-03 0. -1.
    9900012    2    1    2    0    0  0.31395297679E+02  0.32278584881E+02 -0.12416770836E+01  0.46142317407E+02  0.99999967720E+01 0.  0.
         12    1    1    2    0    0 -0.31395297679E+02 -0.32278584881E+02  0.12416770836E+01  0.45045682593E+02  0.00000000000E+00 0. -1.
         11    1    3    3    0    0  0.11751024620E+01  0.28809791314E+01 -0.29705458354E+00  0.31255636673E+01  0.51100000000E-03 0. -1.
        -11    1    3    3    0    0  0.30361682802E+02  0.27077523853E+02 -0.89099062312E+00  0.40691742960E+02  0.51100000000E-03 0.  1.
        -12    1    3    3    0    0 -0.14148758571E+00  0.23200818973E+01 -0.53631876884E-01  0.23250107796E+01  0.00000000000E+00 0.  1.
</event>
<event>
 7    1  0.2243370E-008  0.4614232E+02  0.7816164E-02  0.1320468E+00
        -11   -1    0    0    0    0  0.00000000000E+00  0.00000000000E+00  0.45593999997E+02  0.45594000000E+02  0.51100000000E-03 0.  1.
         11   -1    0    0    0    0 -0.00000000000E+00 -0.00000000000E+00 -0.45593999997E+02  0.45594000000E+02  0.51100000000E-03 0. -1.
    9900012    2    1    2    0    0  0.49714293782E+01  0.80333931843E+01  0.44043875802E+02  0.46142317501E+02  0.99999976314E+01 0.  0.
         12    1    1    2    0    0 -0.49714293782E+01 -0.80333931843E+01 -0.44043875802E+02  0.45045682499E+02  0.00000000000E+00 0. -1.
         11    1    3    3    0    0 -0.23703644504E-01 -0.10888733813E+01  0.18675228531E+01  0.21619086408E+01  0.51100000000E-03 0. -1.
        -11    1    3    3    0    0  0.64636051833E+01  0.82178827283E+01  0.32164466749E+02  0.33821069025E+02  0.51100000000E-03 0.  1.
        -12    1    3    3    0    0 -0.14684721606E+01  0.90438383730E+00  0.10011886200E+02  0.10159339835E+02  0.00000000000E+00 0.  1.
</event>
<event>
 7    1  0.2243370E-008  0.4614231E+02  0.7816164E-02  0.1320468E+00
        -11   -1    0    0    0    0  0.00000000000E+00  0.00000000000E+00  0.45593999997E+02  0.45594000000E+02  0.51100000000E-03 0.  1.
         11   -1    0    0    0    0 -0.00000000000E+00 -0.00000000000E+00 -0.45593999997E+02  0.45594000000E+02  0.51100000000E-03 0. -1.
    9900012    2    1    2    0    0  0.64927003712E+01  0.26456047303E+02  0.35875286811E+02  0.46142314294E+02  0.99999683810E+01 0.  0.
         12    1    1    2    0    0 -0.64927003712E+01 -0.26456047303E+02 -0.35875286811E+02  0.45045685706E+02  0.00000000000E+00 0. -1.
         11    1    3    3    0    0  0.95434297882E+00  0.37696091923E+01  0.90961521181E+00  0.39935102452E+01  0.51100000000E-03 0. -1.
        -11    1    3    3    0    0  0.30149507000E+01  0.93619473084E+01  0.12474858534E+02  0.15885782349E+02  0.51100000000E-03 0.  1.
         12    1    3    3    0    0  0.25234066923E+01  0.13324490802E+02  0.22490813065E+02  0.26263021700E+02  0.00000000000E+00 0. -1.
</event>
<event>
 7    1  0.2243370E-008  0.4614232E+02  0.7816164E-02  0.1320468E+00
        -11   -1    0    0    0    0  0.00000000000E+00  0.00000000000E+00  0.45593999997E+02  0.45594000000E+02  0.51100000000E-03 0.  1.
         11   -1    0    0    0    0 -0.00000000000E+00 -0.00000000000E+00 -0.45593999997E+02  0.45594000000E+02  0.51100000000E-03 0. -1.
    9900012    2    1    2    0    0 -0.37480837894E+02  0.11924695091E+02  0.21956818507E+02  0.46142318285E+02  0.10000004778E+02 0.  0.
         12    1    1    2    0    0  0.37480837894E+02 -0.11924695091E+02 -0.21956818507E+02  0.45045681715E+02  0.00000000000E+00 0. -1.
         11    1    3    3    0    0 -0.16357025053E+02  0.34674728858E+01  0.41578190733E+01  0.17229715508E+02  0.51100000000E-03 0. -1.
        -11    1    3    3    0    0 -0.92643985711E+01  0.31444500008E+01  0.73174971225E+01  0.12217299664E+02  0.51100000000E-03 0.  1.
         12    1    3    3    0    0 -0.11859414270E+02  0.53127722045E+01  0.10481502311E+02  0.16695303112E+02  0.00000000000E+00 0. -1.
</event>
<event>
 7    1  0.2243370E-008  0.4614232E+02  0.7816164E-02  0.1320468E+00
        -11   -1    0    0    0    0  0.00000000000E+00  0.00000000000E+00  0.45593999997E+02  0.45594000000E+02  0.51100000000E-03 0. -1.
         11   -1    0    0    0    0 -0.00000000000E+00 -0.00000000000E+00 -0.45593999997E+02  0.45594000000E+02  0.51100000000E-03 0.  1.
    9900012    2    1    2    0    0  0.30065745625E+02 -0.32894349697E+02  0.65670575993E+01  0.46142317105E+02  0.99999940176E+01 0.  0.
         12    1    1    2    0    0 -0.30065745625E+02  0.32894349697E+02 -0.65670575993E+01  0.45045682895E+02  0.00000000000E+00 0. -1.
         11    1    3    3    0    0  0.18963137322E+02 -0.21054651627E+02  0.23759917128E+01  0.28434912855E+02  0.51100000000E-03 0. -1.
        -11    1    3    3    0    0  0.11030294267E+02 -0.11869761799E+02  0.29574966752E+01  0.16471351603E+02  0.51100000000E-03 0.  1.
         12    1    3    3    0    0  0.72314036848E-01  0.30063728958E-01  0.12335692113E+01  0.12360526473E+01  0.00000000000E+00 0. -1.
</event>
<event>
 7    1  0.2243370E-008  0.4614232E+02  0.7816164E-02  0.1320468E+00
        -11   -1    0    0    0    0  0.00000000000E+00  0.00000000000E+00  0.45593999997E+02  0.45594000000E+02  0.51100000000E-03 0.  1.
         11   -1    0    0    0    0 -0.00000000000E+00 -0.00000000000E+00 -0.45593999997E+02  0.45594000000E+02  0.51100000000E-03 0. -1.
    9900012    2    1    2    0    0  0.26863497667E+01  0.31777214928E+01  0.44853083662E+02  0.46142317599E+02  0.99999985257E+01 0.  0.
         12    1    1    2    0    0 -0.26863497667E+01 -0.31777214928E+01 -0.44853083662E+02  0.45045682401E+02  0.00000000000E+00 0. -1.
         11    1    3    3    0    0 -0.14453021756E+01  0.13166140195E+01  0.24712354321E+01  0.31510911883E+01  0.51100000000E-03 0. -1.
        -11    1    3    3    0    0 -0.69299550714E+00 -0.36151372841E+00  0.99702961528E+00  0.12668872340E+01  0.51100000000E-03 0.  1.
        -12    1    3    3    0    0  0.48246474494E+01  0.22226212017E+01  0.41384818614E+02  0.41724339177E+02  0.00000000000E+00 0.  1.
</event>
<event>
 7    1  0.2243370E-008  0.4614231E+02  0.7816164E-02  0.1320468E+00
        -11   -1    0    0    0    0  0.00000000000E+00  0.00000000000E+00  0.45593999997E+02  0.45594000000E+02  0.51100000000E-03 0.  1.
         11   -1    0    0    0    0 -0.00000000000E+00 -0.00000000000E+00 -0.45593999997E+02  0.45594000000E+02  0.51100000000E-03 0. -1.
    9900012    2    1    2    0    0  0.14310320451E+02  0.30414331237E+02  0.29988286914E+02  0.46142310217E+02  0.99999312051E+01 0.  0.
         12    1    1    2    0    0 -0.14310320451E+02 -0.30414331237E+02 -0.29988286914E+02  0.45045689783E+02  0.00000000000E+00 0. -1.
         11    1    3    3    0    0  0.42094577714E+01  0.64175233679E+01  0.39378896814E+01  0.86261878203E+01  0.51100000000E-03 0. -1.
        -11    1    3    3    0    0  0.94916516916E+01  0.16685372832E+02  0.15537760266E+02  0.24696459518E+02  0.51100000000E-03 0.  1.
         12    1    3    3    0    0  0.60921098799E+00  0.73114350375E+01  0.10512636967E+02  0.12819662879E+02  0.00000000000E+00 0. -1.
</event>
<event>
 7    1  0.2243370E-008  0.4614232E+02  0.7816164E-02  0.1320468E+00
        -11   -1    0    0    0    0  0.00000000000E+00  0.00000000000E+00  0.45593999997E+02  0.45594000000E+02  0.51100000000E-03 0.  1.
         11   -1    0    0    0    0 -0.00000000000E+00 -0.00000000000E+00 -0.45593999997E+02  0.45594000000E+02  0.51100000000E-03 0. -1.
    9900012    2    1    2    0    0 -0.40498362378E+02 -0.17467278209E+02 -0.91591667271E+01  0.46142317649E+02  0.99999989765E+01 0.  0.
         12    1    1    2    0    0  0.40498362378E+02  0.17467278209E+02  0.91591667271E+01  0.45045682351E+02  0.00000000000E+00 0. -1.
         11    1    3    3    0    0 -0.16741957238E+02 -0.54875746063E+01  0.14552409585E+00  0.17618960944E+02  0.51100000000E-03 0. -1.
        -11    1    3    3    0    0 -0.19234497565E+02 -0.81194166934E+01 -0.60092373687E+01  0.21725601442E+02  0.51100000000E-03 0.  1.
         12    1    3    3    0    0 -0.45219075749E+01 -0.38602869092E+01 -0.32954534542E+01  0.67977552623E+01  0.00000000000E+00 0. -1.
</event>
<event>
 7    1  0.2243370E-008  0.4614231E+02  0.7816164E-02  0.1320468E+00
        -11   -1    0    0    0    0  0.00000000000E+00  0.00000000000E+00  0.45593999997E+02  0.45594000000E+02  0.51100000000E-03 0.  1.
         11   -1    0    0    0    0 -0.00000000000E+00 -0.00000000000E+00 -0.45593999997E+02  0.45594000000E+02  0.51100000000E-03 0. -1.
    9900012    2    1    2    0    0 -0.30309428205E+02 -0.15936968837E+02  0.29265429752E+02  0.46142314386E+02  0.99999692264E+01 0.  0.
         12    1    1    2    0    0  0.30309428205E+02  0.15936968837E+02 -0.29265429752E+02  0.45045685614E+02  0.00000000000E+00 0. -1.
         11    1    3    3    0    0 -0.19265773238E+02 -0.79602949042E+01  0.14084382341E+02  0.25157625874E+02  0.51100000000E-03 0.  1.
        -11    1    3    3    0    0 -0.15943595130E+01 -0.43831702075E+00  0.47114288350E+01  0.49931619236E+01  0.51100000000E-03 0. -1.
        -12    1    3    3    0    0 -0.94492954537E+01 -0.75383569125E+01  0.10469618576E+02  0.15991526589E+02  0.00000000000E+00 0.  1.
</event>
<event>
 7    1  0.2243370E-008  0.4614232E+02  0.7816164E-02  0.1320468E+00
        -11   -1    0    0    0    0  0.00000000000E+00  0.00000000000E+00  0.45593999997E+02  0.45594000000E+02  0.51100000000E-03 0.  1.
         11   -1    0    0    0    0 -0.00000000000E+00 -0.00000000000E+00 -0.45593999997E+02  0.45594000000E+02  0.51100000000E-03 0. -1.
    9900012    2    1    2    0    0  0.16647698472E+02 -0.32153586878E+02  0.26797659326E+02  0.46142316978E+02  0.99999928618E+01 0.  0.
         12    1    1    2    0    0 -0.16647698472E+02  0.32153586878E+02 -0.26797659326E+02  0.45045683022E+02  0.00000000000E+00 0. -1.
         11    1    3    3    0    0  0.15845602311E+01 -0.46432163069E+01  0.23934714863E+01  0.54588455571E+01  0.51100000000E-03 0. -1.
        -11    1    3    3    0    0  0.75112014861E+01 -0.19885137213E+02  0.19642857852E+02  0.28942679465E+02  0.51100000000E-03 0.  1.
        -12    1    3    3    0    0  0.75519367544E+01 -0.76252333584E+01  0.47613299872E+01  0.11740791956E+02  0.00000000000E+00 0.  1.
</event>
<event>
 7    1  0.2243370E-008  0.4614232E+02  0.7816164E-02  0.1320468E+00
        -11   -1    0    0    0    0  0.00000000000E+00  0.00000000000E+00  0.45593999997E+02  0.45594000000E+02  0.51100000000E-03 0.  1.
         11   -1    0    0    0    0 -0.00000000000E+00 -0.00000000000E+00 -0.45593999997E+02  0.45594000000E+02  0.51100000000E-03 0. -1.
    9900012    2    1    2    0    0 -0.10765304977E+02 -0.39908031361E+02  0.17904492873E+02  0.46142316263E+02  0.99999863379E+01 0.  0.
         12    1    1    2    0    0  0.10765304977E+02  0.39908031361E+02 -0.17904492873E+02  0.45045683737E+02  0.00000000000E+00 0. -1.
         11    1    3    3    0    0 -0.52779605165E+01 -0.65188601604E+01  0.21355487470E+01  0.86552281147E+01  0.51100000000E-03 0. -1.
        -11    1    3    3    0    0 -0.50531197855E+01 -0.20541399221E+02  0.97394792528E+01  0.23288206412E+02  0.51100000000E-03 0.  1.
         12    1    3    3    0    0 -0.43422467449E+00 -0.12847771980E+02  0.60294648728E+01  0.14198881736E+02  0.00000000000E+00 0. -1.
</event>
<event>
 7    1  0.2243370E-008  0.4614232E+02  0.7816164E-02  0.1320468E+00
        -11   -1    0    0    0    0  0.00000000000E+00  0.00000000000E+00  0.45593999997E+02  0.45594000000E+02  0.51100000000E-03 0. -1.
         11   -1    0    0    0    0 -0.00000000000E+00 -0.00000000000E+00 -0.45593999997E+02  0.45594000000E+02  0.51100000000E-03 0.  1.
    9900012    2    1    2    0    0 -0.72250669754E+00  0.49844766350E+01 -0.44763226838E+02  0.46142317630E+02  0.99999988016E+01 0.  0.
         12    1    1    2    0    0  0.72250669754E+00 -0.49844766350E+01  0.44763226838E+02  0.45045682370E+02  0.00000000000E+00 0. -1.
         11    1    3    3    0    0 -0.28133016268E+01  0.93824561001E+00 -0.45140955652E+01  0.54011137649E+01  0.51100000000E-03 0. -1.
        -11    1    3    3    0    0  0.13451369939E+01  0.36194679799E+01 -0.15382551454E+02  0.15859786615E+02  0.51100000000E-03 0.  1.
         12    1    3    3    0    0  0.74565793533E+00  0.42676304507E+00 -0.24866579819E+02  0.24881417250E+02  0.00000000000E+00 0. -1.
</event>
<event>
 7    1  0.2243370E-008  0.4614232E+02  0.7816164E-02  0.1320468E+00
        -11   -1    0    0    0    0  0.00000000000E+00  0.00000000000E+00  0.45593999997E+02  0.45594000000E+02  0.51100000000E-03 0.  1.
         11   -1    0    0    0    0 -0.00000000000E+00 -0.00000000000E+00 -0.45593999997E+02  0.45594000000E+02  0.51100000000E-03 0. -1.
    9900012    2    1    2    0    0 -0.11697552452E+02  0.17296548914E+02  0.39913783976E+02  0.46142317754E+02  0.99999999365E+01 0.  0.
         12    1    1    2    0    0  0.11697552452E+02 -0.17296548914E+02 -0.39913783976E+02  0.45045682246E+02  0.00000000000E+00 0. -1.
         11    1    3    3    0    0 -0.26872103926E+01  0.82124174080E+01  0.10263960060E+02  0.13416921247E+02  0.51100000000E-03 0. -1.
        -11    1    3    3    0    0 -0.69428911043E+01  0.94739410721E+01  0.24994093367E+02  0.27616371953E+02  0.51100000000E-03 0.  1.
         12    1    3    3    0    0 -0.20674509555E+01 -0.38980956637E+00  0.46557305492E+01  0.51090245545E+01  0.00000000000E+00 0. -1.
</event>
<event>
 7    1  0.2243370E-008  0.4614232E+02  0.7816164E-02  0.1320468E+00
        -11   -1    0    0    0    0  0.00000000000E+00  0.00000000000E+00  0.45593999997E+02  0.45594000000E+02  0.51100000000E-03 0. -1.
         11   -1    0    0    0    0 -0.00000000000E+00 -0.00000000000E+00 -0.45593999997E+02  0.45594000000E+02  0.51100000000E-03 0.  1.
    9900012    2    1    2    0    0 -0.14894615492E+02 -0.35897520180E+01 -0.42360094832E+02  0.46142317361E+02  0.99999963514E+01 0.  0.
         12    1    1    2    0    0  0.14894615492E+02  0.35897520180E+01  0.42360094832E+02  0.45045682639E+02  0.00000000000E+00 0. -1.
         11    1    3    3    0    0 -0.29976293921E+01 -0.26057071507E+01 -0.16741731333E+02  0.17206424964E+02  0.51100000000E-03 0.  1.
        -11    1    3    3    0    0 -0.22235471949E+01 -0.25417107776E+01 -0.42506805047E+01  0.54288802546E+01  0.51100000000E-03 0. -1.
        -12    1    3    3    0    0 -0.96734389048E+01  0.15576659102E+01 -0.21367682994E+02  0.23507012143E+02  0.00000000000E+00 0.  1.
</event>
<event>
 7    1  0.2243370E-008  0.4614232E+02  0.7816164E-02  0.1320468E+00
        -11   -1    0    0    0    0  0.00000000000E+00  0.00000000000E+00  0.45593999997E+02  0.45594000000E+02  0.51100000000E-03 0. -1.
         11   -1    0    0    0    0 -0.00000000000E+00 -0.00000000000E+00 -0.45593999997E+02  0.45594000000E+02  0.51100000000E-03 0.  1.
    9900012    2    1    2    0    0 -0.25142403205E+02  0.35065236815E+02 -0.12938398602E+02  0.46142318407E+02  0.10000005892E+02 0.  0.
         12    1    1    2    0    0  0.25142403205E+02 -0.35065236815E+02  0.12938398602E+02  0.45045681593E+02  0.00000000000E+00 0. -1.
         11    1    3    3    0    0  0.67595716987E+00  0.20640949738E+00 -0.32653423975E+00  0.77855497362E+00  0.51100000000E-03 0. -1.
        -11    1    3    3    0    0 -0.85951988061E+01  0.11289649802E+02 -0.21340078460E+01  0.14348784789E+02  0.51100000000E-03 0.  1.
        -12    1    3    3    0    0 -0.17223161569E+02  0.23569177515E+02 -0.10477856516E+02  0.31014978644E+02  0.00000000000E+00 0.  1.
</event>
<event>
 7    1  0.2243370E-008  0.4614232E+02  0.7816164E-02  0.1320468E+00
        -11   -1    0    0    0    0  0.00000000000E+00  0.00000000000E+00  0.45593999997E+02  0.45594000000E+02  0.51100000000E-03 0.  1.
         11   -1    0    0    0    0 -0.00000000000E+00 -0.00000000000E+00 -0.45593999997E+02  0.45594000000E+02  0.51100000000E-03 0. -1.
    9900012    2    1    2    0    0  0.33955913309E+01  0.39136973688E+02  0.22042701326E+02  0.46142318390E+02  0.10000005738E+02 0.  0.
         12    1    1    2    0    0 -0.33955913309E+01 -0.39136973688E+02 -0.22042701326E+02  0.45045681610E+02  0.00000000000E+00 0. -1.
         11    1    3    3    0    0 -0.95453703952E+00  0.83002104977E+00  0.12850530296E+01  0.18031742713E+01  0.51100000000E-03 0. -1.
        -11    1    3    3    0    0  0.46043014951E+01  0.14881586038E+02  0.62538695773E+01  0.16786068039E+02  0.51100000000E-03 0.  1.
        -12    1    3    3    0    0 -0.25417312462E+00  0.23425366600E+02  0.14503778720E+02  0.27553076080E+02  0.00000000000E+00 0.  1.
</event>
<event>
 7    1  0.2243370E-008  0.4614232E+02  0.7816164E-02  0.1320468E+00
        -11   -1    0    0    0    0  0.00000000000E+00  0.00000000000E+00  0.45593999997E+02  0.45594000000E+02  0.51100000000E-03 0.  1.
         11   -1    0    0    0    0 -0.00000000000E+00 -0.00000000000E+00 -0.45593999997E+02  0.45594000000E+02  0.51100000000E-03 0. -1.
    9900012    2    1    2    0    0 -0.39112331053E+02 -0.15780498430E+02  0.15821338227E+02  0.46142319692E+02  0.10000017608E+02 0.  0.
         12    1    1    2    0    0  0.39112331053E+02  0.15780498430E+02 -0.15821338227E+02  0.45045680308E+02  0.00000000000E+00 0. -1.
         11    1    3    3    0    0 -0.48780988256E+00 -0.10001157097E+01  0.11010270592E+01  0.15653915678E+01  0.51100000000E-03 0. -1.
        -11    1    3    3    0    0 -0.28805995274E+02 -0.14274509978E+02  0.12530228826E+02  0.34504400205E+02  0.51100000000E-03 0.  1.
        -12    1    3    3    0    0 -0.98185258964E+01 -0.50587274213E+00  0.21900823425E+01  0.10072527919E+02  0.00000000000E+00 0.  1.
</event>
<event>
 7    1  0.2243370E-008  0.4614232E+02  0.7816164E-02  0.1320468E+00
        -11   -1    0    0    0    0  0.00000000000E+00  0.00000000000E+00  0.45593999997E+02  0.45594000000E+02  0.51100000000E-03 0.  1.
         11   -1    0    0    0    0 -0.00000000000E+00 -0.00000000000E+00 -0.45593999997E+02  0.45594000000E+02  0.51100000000E-03 0. -1.
    9900012    2    1    2    0    0  0.29000202436E+02 -0.26470749476E+02  0.22077164714E+02  0.46142317399E+02  0.99999967013E+01 0.  0.
         12    1    1    2    0    0 -0.29000202436E+02  0.26470749476E+02 -0.22077164714E+02  0.45045682601E+02  0.00000000000E+00 0. -1.
         11    1    3    3    0    0  0.37590406831E+01 -0.16604884249E+01  0.36321133416E+01  0.54845105756E+01  0.51100000000E-03 0.  1.
        -11    1    3    3    0    0  0.14363198962E+02 -0.13102933477E+02  0.14339151735E+02  0.24157806665E+02  0.51100000000E-03 0. -1.
         12    1    3    3    0    0  0.10877962791E+02 -0.11707327574E+02  0.41058996374E+01  0.16500000159E+02  0.00000000000E+00 0. -1.
</event>
<event>
 7    1  0.2243370E-008  0.4614232E+02  0.7816164E-02  0.1320468E+00
        -11   -1    0    0    0    0  0.00000000000E+00  0.00000000000E+00  0.45593999997E+02  0.45594000000E+02  0.51100000000E-03 0.  1.
         11   -1    0    0    0    0 -0.00000000000E+00 -0.00000000000E+00 -0.45593999997E+02  0.45594000000E+02  0.51100000000E-03 0. -1.
    9900012    2    1    2    0    0  0.48288008246E+00  0.23595312971E+02  0.38368491262E+02  0.46142322193E+02  0.10000040412E+02 0.  0.
         12    1    1    2    0    0 -0.48288008246E+00 -0.23595312971E+02 -0.38368491262E+02  0.45045677807E+02  0.00000000000E+00 0. -1.
         11    1    3    3    0    0 -0.18068511072E+01  0.66801604515E+01  0.14025275890E+02  0.15639616960E+02  0.51100000000E-03 0. -1.
        -11    1    3    3    0    0  0.46208757973E+01  0.12273855391E+02  0.18607387383E+02  0.22764772891E+02  0.51100000000E-03 0.  1.
         12    1    3    3    0    0 -0.23311446077E+01  0.46412971292E+01  0.57358279886E+01  0.77379323426E+01  0.00000000000E+00 0. -1.
</event>
<event>
 7    1  0.2243370E-008  0.4614232E+02  0.7816164E-02  0.1320468E+00
        -11   -1    0    0    0    0  0.00000000000E+00  0.00000000000E+00  0.45593999997E+02  0.45594000000E+02  0.51100000000E-03 0. -1.
         11   -1    0    0    0    0 -0.00000000000E+00 -0.00000000000E+00 -0.45593999997E+02  0.45594000000E+02  0.51100000000E-03 0.  1.
    9900012    2    1    2    0    0 -0.36119404025E+02  0.53707593390E+00 -0.26911219441E+02  0.46142317305E+02  0.99999958364E+01 0.  0.
         12    1    1    2    0    0  0.36119404025E+02 -0.53707593390E+00  0.26911219441E+02  0.45045682695E+02  0.00000000000E+00 0. -1.
         11    1    3    3    0    0  0.17529563595E+00  0.65333093361E+00 -0.30612153305E+00  0.74248267516E+00  0.51100000000E-03 0. -1.
        -11    1    3    3    0    0 -0.72883025745E+01  0.23536799366E+01 -0.61113472344E+01  0.97983533791E+01  0.51100000000E-03 0.  1.
        -12    1    3    3    0    0 -0.29006397087E+02 -0.24699349363E+01 -0.20493750674E+02  0.35601481250E+02  0.00000000000E+00 0.  1.
</event>
<event>
 7    1  0.2243370E-008  0.4614232E+02  0.7816164E-02  0.1320468E+00
        -11   -1    0    0    0    0  0.00000000000E+00  0.00000000000E+00  0.45593999997E+02  0.45594000000E+02  0.51100000000E-03 0.  1.
         11   -1    0    0    0    0 -0.00000000000E+00 -0.00000000000E+00 -0.45593999997E+02  0.45594000000E+02  0.51100000000E-03 0. -1.
    9900012    2    1    2    0    0 -0.31496860045E+02 -0.28901516547E+02  0.14204338190E+02  0.46142322351E+02  0.10000041859E+02 0.  0.
         12    1    1    2    0    0  0.31496860045E+02  0.28901516547E+02 -0.14204338190E+02  0.45045677649E+02  0.00000000000E+00 0. -1.
         11    1    3    3    0    0  0.64198960570E+00 -0.34228484858E+00 -0.21318383692E+00  0.75812741728E+00  0.51100000000E-03 0. -1.
        -11    1    3    3    0    0 -0.11402867548E+02 -0.95826494356E+01  0.58024916302E+01  0.15985038877E+02  0.51100000000E-03 0.  1.
        -12    1    3    3    0    0 -0.20735982102E+02 -0.18976582263E+02  0.86150303967E+01  0.29399156057E+02  0.00000000000E+00 0.  1.
</event>
<event>
 7    1  0.2243370E-008  0.4614232E+02  0.7816164E-02  0.1320468E+00
        -11   -1    0    0    0    0  0.00000000000E+00  0.00000000000E+00  0.45593999997E+02  0.45594000000E+02  0.51100000000E-03 0.  1.
         11   -1    0    0    0    0 -0.00000000000E+00 -0.00000000000E+00 -0.45593999997E+02  0.45594000000E+02  0.51100000000E-03 0. -1.
    9900012    2    1    2    0    0  0.26236686775E+02  0.63454483299E+01  0.36062239649E+02  0.46142316789E+02  0.99999911325E+01 0.  0.
         12    1    1    2    0    0 -0.26236686775E+02 -0.63454483299E+01 -0.36062239649E+02  0.45045683211E+02  0.00000000000E+00 0. -1.
         11    1    3    3    0    0  0.10468152944E+01  0.60086005840E+00 -0.82373916958E-01  0.12098102305E+01  0.51100000000E-03 0. -1.
        -11    1    3    3    0    0  0.25426028281E+02  0.59944843039E+01  0.34622511946E+02  0.43372054251E+02  0.51100000000E-03 0.  1.
        -12    1    3    3    0    0 -0.23615680026E+00 -0.24989603236E+00  0.15221016203E+01  0.15604523074E+01  0.00000000000E+00 0.  1.
</event>
<event>
 7    1  0.2243370E-008  0.4614232E+02  0.7816164E-02  0.1320468E+00
        -11   -1    0    0    0    0  0.00000000000E+00  0.00000000000E+00  0.45593999997E+02  0.45594000000E+02  0.51100000000E-03 0.  1.
         11   -1    0    0    0    0 -0.00000000000E+00 -0.00000000000E+00 -0.45593999997E+02  0.45594000000E+02  0.51100000000E-03 0. -1.
    9900012    2    1    2    0    0 -0.33813903245E+02  0.28821008398E+02  0.74217847916E+01  0.46142317996E+02  0.10000002140E+02 0.  0.
         12    1    1    2    0    0  0.33813903245E+02 -0.28821008398E+02 -0.74217847916E+01  0.45045682004E+02  0.00000000000E+00 0. -1.
         11    1    3    3    0    0 -0.88399133355E+01  0.33828537941E+01  0.36321690564E+01  0.10138067858E+02  0.51100000000E-03 0.  1.
        -11    1    3    3    0    0 -0.94011416228E+01  0.95670812322E+01 -0.19680086630E+00  0.13414515942E+02  0.51100000000E-03 0. -1.
         12    1    3    3    0    0 -0.15572848287E+02  0.15871073372E+02  0.39864166015E+01  0.22589734196E+02  0.00000000000E+00 0. -1.
</event>
<event>
 7    1  0.2243370E-008  0.4614232E+02  0.7816164E-02  0.1320468E+00
        -11   -1    0    0    0    0  0.00000000000E+00  0.00000000000E+00  0.45593999997E+02  0.45594000000E+02  0.51100000000E-03 0.  1.
         11   -1    0    0    0    0 -0.00000000000E+00 -0.00000000000E+00 -0.45593999997E+02  0.45594000000E+02  0.51100000000E-03 0. -1.
    9900012    2    1    2    0    0  0.42465424049E+02 -0.76274559377E+01  0.12946935390E+02  0.46142318079E+02  0.10000002898E+02 0.  0.
         12    1    1    2    0    0 -0.42465424049E+02  0.76274559377E+01 -0.12946935390E+02  0.45045681921E+02  0.00000000000E+00 0. -1.
         11    1    3    3    0    0  0.48865214794E+01 -0.57621877898E+00  0.17901237437E+00  0.49236334085E+01  0.51100000000E-03 0. -1.
        -11    1    3    3    0    0  0.26236154104E+00  0.16538125941E-01  0.16132682718E+01  0.16345463792E+01  0.51100000000E-03 0.  1.
        -12    1    3    3    0    0  0.37316541028E+02 -0.70677752847E+01  0.11154654744E+02  0.39584138291E+02  0.00000000000E+00 0.  1.
</event>
<event>
 7    1  0.2243370E-008  0.4614232E+02  0.7816164E-02  0.1320468E+00
        -11   -1    0    0    0    0  0.00000000000E+00  0.00000000000E+00  0.45593999997E+02  0.45594000000E+02  0.51100000000E-03 0. -1.
         11   -1    0    0    0    0 -0.00000000000E+00 -0.00000000000E+00 -0.45593999997E+02  0.45594000000E+02  0.51100000000E-03 0.  1.
    9900012    2    1    2    0    0 -0.68856438166E+01 -0.30837391125E+02 -0.32105400479E+02  0.46142317387E+02  0.99999965896E+01 0.  0.
         12    1    1    2    0    0  0.68856438166E+01  0.30837391125E+02  0.32105400479E+02  0.45045682613E+02  0.00000000000E+00 0. -1.
         11    1    3    3    0    0 -0.47898422440E+01 -0.10288879176E+02 -0.83694719359E+01  0.14101478085E+02  0.51100000000E-03 0. -1.
        -11    1    3    3    0    0 -0.14828976345E+01 -0.41210743326E+01 -0.88018299267E+01  0.98312994751E+01  0.51100000000E-03 0.  1.
        -12    1    3    3    0    0 -0.61290393807E+00 -0.16427437616E+02 -0.14934098616E+02  0.22209539827E+02  0.00000000000E+00 0.  1.
</event>
<event>
 7    1  0.2243370E-008  0.4614232E+02  0.7816164E-02  0.1320468E+00
        -11   -1    0    0    0    0  0.00000000000E+00  0.00000000000E+00  0.45593999997E+02  0.45594000000E+02  0.51100000000E-03 0. -1.
         11   -1    0    0    0    0 -0.00000000000E+00 -0.00000000000E+00 -0.45593999997E+02  0.45594000000E+02  0.51100000000E-03 0.  1.
    9900012    2    1    2    0    0 -0.10058060433E+02  0.42925589819E+02 -0.92381074602E+01  0.46142317960E+02  0.10000001814E+02 0.  0.
         12    1    1    2    0    0  0.10058060433E+02 -0.42925589819E+02  0.92381074602E+01  0.45045682040E+02  0.00000000000E+00 0. -1.
         11    1    3    3    0    0 -0.45829680744E+01  0.68442461599E+01 -0.21851890881E+01  0.85218749979E+01  0.51100000000E-03 0. -1.
        -11    1    3    3    0    0 -0.52740765845E+01  0.35470281405E+02 -0.77327632380E+01  0.36684497739E+02  0.51100000000E-03 0.  1.
         12    1    3    3    0    0 -0.20101577430E+00  0.61106225414E+00  0.67984486586E+00  0.93594522360E+00  0.00000000000E+00 0. -1.
</event>
<event>
 7    1  0.2243370E-008  0.4614232E+02  0.7816164E-02  0.1320468E+00
        -11   -1    0    0    0    0  0.00000000000E+00  0.00000000000E+00  0.45593999997E+02  0.45594000000E+02  0.51100000000E-03 0.  1.
         11   -1    0    0    0    0 -0.00000000000E+00 -0.00000000000E+00 -0.45593999997E+02  0.45594000000E+02  0.51100000000E-03 0. -1.
    9900012    2    1    2    0    0  0.97659873547E+00  0.43979473860E+02  0.96935852161E+01  0.46142318071E+02  0.10000002828E+02 0.  0.
         12    1    1    2    0    0 -0.97659873547E+00 -0.43979473860E+02 -0.96935852161E+01  0.45045681929E+02  0.00000000000E+00 0. -1.
         11    1    3    3    0    0  0.73548094253E+00  0.94635726197E+01  0.34384122901E+01  0.10095683151E+02  0.51100000000E-03 0. -1.
        -11    1    3    3    0    0  0.98801858642E+00  0.33933526478E+02  0.72063381782E+01  0.34704347136E+02  0.51100000000E-03 0.  1.
         12    1    3    3    0    0 -0.74690079349E+00  0.58237476261E+00 -0.95116525218E+00  0.13422877845E+01  0.00000000000E+00 0. -1.
</event>
<event>
 7    1  0.2243370E-008  0.4614232E+02  0.7816164E-02  0.1320468E+00
        -11   -1    0    0    0    0  0.00000000000E+00  0.00000000000E+00  0.45593999997E+02  0.45594000000E+02  0.51100000000E-03 0.  1.
         11   -1    0    0    0    0 -0.00000000000E+00 -0.00000000000E+00 -0.45593999997E+02  0.45594000000E+02  0.51100000000E-03 0. -1.
    9900012    2    1    2    0    0 -0.16812132972E+02  0.15969424489E+02  0.38619206852E+02  0.46142317949E+02  0.10000001714E+02 0.  0.
         12    1    1    2    0    0  0.16812132972E+02 -0.15969424489E+02 -0.38619206852E+02  0.45045682051E+02  0.00000000000E+00 0. -1.
         11    1    3    3    0    0 -0.81663912424E+01  0.47610734293E+01  0.12005529448E+02  0.15280396059E+02  0.51100000000E-03 0. -1.
        -11    1    3    3    0    0 -0.84826516786E+01  0.11555388299E+02  0.26831748356E+02  0.30420800422E+02  0.51100000000E-03 0.  1.
         12    1    3    3    0    0 -0.16309005100E+00 -0.34703723852E+00 -0.21807095216E+00  0.44112146834E+00  0.00000000000E+00 0. -1.
</event>
<event>
 7    1  0.2243370E-008  0.4614232E+02  0.7816164E-02  0.1320468E+00
        -11   -1    0    0    0    0  0.00000000000E+00  0.00000000000E+00  0.45593999997E+02  0.45594000000E+02  0.51100000000E-03 0.  1.
         11   -1    0    0    0    0 -0.00000000000E+00 -0.00000000000E+00 -0.45593999997E+02  0.45594000000E+02  0.51100000000E-03 0. -1.
    9900012    2    1    2    0    0  0.13232917736E+01  0.19176603657E+02  0.40738439188E+02  0.46142315896E+02  0.99999829952E+01 0.  0.
         12    1    1    2    0    0 -0.13232917736E+01 -0.19176603657E+02 -0.40738439188E+02  0.45045684104E+02  0.00000000000E+00 0. -1.
         11    1    3    3    0    0  0.88790096509E+00  0.69699856519E+01  0.85504486675E+01  0.11067033965E+02  0.51100000000E-03 0. -1.
        -11    1    3    3    0    0 -0.52824404631E+00  0.11833284535E+02  0.23404520219E+02  0.26231226270E+02  0.51100000000E-03 0.  1.
        -12    1    3    3    0    0  0.96363485485E+00  0.37333346972E+00  0.87834703010E+01  0.88440556614E+01  0.00000000000E+00 0.  1.
</event>
<event>
 7    1  0.2243370E-008  0.4614232E+02  0.7816164E-02  0.1320468E+00
        -11   -1    0    0    0    0  0.00000000000E+00  0.00000000000E+00  0.45593999997E+02  0.45594000000E+02  0.51100000000E-03 0.  1.
         11   -1    0    0    0    0 -0.00000000000E+00 -0.00000000000E+00 -0.45593999997E+02  0.45594000000E+02  0.51100000000E-03 0. -1.
    9900012    2    1    2    0    0 -0.24210375958E+02  0.26919622998E+02  0.26801214121E+02  0.46142317801E+02  0.10000000365E+02 0.  0.
         12    1    1    2    0    0  0.24210375958E+02 -0.26919622998E+02 -0.26801214121E+02  0.45045682199E+02  0.00000000000E+00 0. -1.
         11    1    3    3    0    0 -0.66866531959E+01  0.43616266576E+01  0.40244718476E+01  0.89404413748E+01  0.51100000000E-03 0. -1.
        -11    1    3    3    0    0 -0.74485535381E+01  0.89635705906E+01  0.50680964344E+01  0.12708743025E+02  0.51100000000E-03 0.  1.
         12    1    3    3    0    0 -0.10075169224E+02  0.13594425750E+02  0.17708645839E+02  0.24493133401E+02  0.00000000000E+00 0. -1.
</event>
<event>
 7    1  0.2243370E-008  0.4614232E+02  0.7816164E-02  0.1320468E+00
        -11   -1    0    0    0    0  0.00000000000E+00  0.00000000000E+00  0.45593999997E+02  0.45594000000E+02  0.51100000000E-03 0.  1.
         11   -1    0    0    0    0 -0.00000000000E+00 -0.00000000000E+00 -0.45593999997E+02  0.45594000000E+02  0.51100000000E-03 0. -1.
    9900012    2    1    2    0    0 -0.38023376562E+02  0.10295606391E+02  0.21848043675E+02  0.46142315539E+02  0.99999797368E+01 0.  0.
         12    1    1    2    0    0  0.38023376562E+02 -0.10295606391E+02 -0.21848043675E+02  0.45045684461E+02  0.00000000000E+00 0. -1.
         11    1    3    3    0    0 -0.15075679851E+02  0.20084859943E+01  0.60360817855E+01  0.16362897743E+02  0.51100000000E-03 0. -1.
        -11    1    3    3    0    0 -0.20200456580E+02  0.80044597259E+01  0.16040973069E+02  0.27008195771E+02  0.51100000000E-03 0.  1.
         12    1    3    3    0    0 -0.27472401308E+01  0.28266067121E+00 -0.22901117966E+00  0.27712220250E+01  0.00000000000E+00 0. -1.
</event>
<event>
 7    1  0.2243370E-008  0.4614232E+02  0.7816164E-02  0.1320468E+00
        -11   -1    0    0    0    0  0.00000000000E+00  0.00000000000E+00  0.45593999997E+02  0.45594000000E+02  0.51100000000E-03 0.  1.
         11   -1    0    0    0    0 -0.00000000000E+00 -0.00000000000E+00 -0.45593999997E+02  0.45594000000E+02  0.51100000000E-03 0. -1.
    9900012    2    1    2    0    0  0.10298436906E+02 -0.26859466069E+02  0.34664459693E+02  0.46142317787E+02  0.10000000235E+02 0.  0.
         12    1    1    2    0    0 -0.10298436906E+02  0.26859466069E+02 -0.34664459693E+02  0.45045682213E+02  0.00000000000E+00 0. -1.
         11    1    3    3    0    0  0.88681073528E+00 -0.10055673233E+02  0.83556951991E+01  0.13104222219E+02  0.51100000000E-03 0. -1.
        -11    1    3    3    0    0  0.48681668138E-01 -0.43359362277E+01  0.67857433096E+01  0.80528892579E+01  0.51100000000E-03 0.  1.
         12    1    3    3    0    0  0.93629445028E+01 -0.12467856609E+02  0.19523021185E+02  0.24985206310E+02  0.00000000000E+00 0. -1.
</event>
<event>
 7    1  0.2243370E-008  0.4614232E+02  0.7816164E-02  0.1320468E+00
        -11   -1    0    0    0    0  0.00000000000E+00  0.00000000000E+00  0.45593999997E+02  0.45594000000E+02  0.51100000000E-03 0. -1.
         11   -1    0    0    0    0 -0.00000000000E+00 -0.00000000000E+00 -0.45593999997E+02  0.45594000000E+02  0.51100000000E-03 0.  1.
    9900012    2    1    2    0    0  0.39136984569E+02  0.21856119264E+02  0.44407258651E+01  0.46142317004E+02  0.99999930933E+01 0.  0.
         12    1    1    2    0    0 -0.39136984569E+02 -0.21856119264E+02 -0.44407258651E+01  0.45045682996E+02  0.00000000000E+00 0. -1.
         11    1    3    3    0    0  0.12554158549E+02  0.63484620721E+01 -0.22343264595E+01  0.14244370205E+02  0.51100000000E-03 0. -1.
        -11    1    3    3    0    0  0.20604825216E+02  0.14141076477E+02  0.45068774805E+01  0.25393715974E+02  0.51100000000E-03 0.  1.
         12    1    3    3    0    0  0.59780008040E+01  0.13665807149E+01  0.21681748440E+01  0.65042308244E+01  0.00000000000E+00 0. -1.
</event>
<event>
 7    1  0.2243370E-008  0.4614232E+02  0.7816164E-02  0.1320468E+00
        -11   -1    0    0    0    0  0.00000000000E+00  0.00000000000E+00  0.45593999997E+02  0.45594000000E+02  0.51100000000E-03 0.  1.
         11   -1    0    0    0    0 -0.00000000000E+00 -0.00000000000E+00 -0.45593999997E+02  0.45594000000E+02  0.51100000000E-03 0. -1.
    9900012    2    1    2    0    0 -0.38986240695E+01  0.39723048084E+02  0.20880463637E+02  0.46142316740E+02  0.99999906886E+01 0.  0.
         12    1    1    2    0    0  0.38986240695E+01 -0.39723048084E+02 -0.20880463637E+02  0.45045683260E+02  0.00000000000E+00 0. -1.
         11    1    3    3    0    0  0.31901081167E+00  0.55433898777E+01  0.11514461371E+01  0.56706937585E+01  0.51100000000E-03 0. -1.
        -11    1    3    3    0    0 -0.45923345503E+01  0.17000115442E+02  0.13518690188E+02  0.22200190232E+02  0.51100000000E-03 0.  1.
         12    1    3    3    0    0  0.37469966910E+00  0.17179542763E+02  0.62103273113E+01  0.18271432749E+02  0.00000000000E+00 0. -1.
</event>
<event>
 7    1  0.2243370E-008  0.4614232E+02  0.7816164E-02  0.1320468E+00
        -11   -1    0    0    0    0  0.00000000000E+00  0.00000000000E+00  0.45593999997E+02  0.45594000000E+02  0.51100000000E-03 0. -1.
         11   -1    0    0    0    0 -0.00000000000E+00 -0.00000000000E+00 -0.45593999997E+02  0.45594000000E+02  0.51100000000E-03 0.  1.
    9900012    2    1    2    0    0 -0.41234766635E+02 -0.17898540455E+02 -0.29068359110E+01  0.46142318466E+02  0.10000006426E+02 0.  0.
         12    1    1    2    0    0  0.41234766635E+02  0.17898540455E+02  0.29068359110E+01  0.45045681534E+02  0.00000000000E+00 0. -1.
         11    1    3    3    0    0 -0.10102394664E+02 -0.50265867150E+01  0.24011057152E+01  0.11536475236E+02  0.51100000000E-03 0. -1.
        -11    1    3    3    0    0 -0.25129593604E+02 -0.12746476886E+02 -0.39866027555E+01  0.28458077052E+02  0.51100000000E-03 0.  1.
         12    1    3    3    0    0 -0.60027783675E+01 -0.12547685349E+00 -0.13213388707E+01  0.61477661782E+01  0.00000000000E+00 0. -1.
</event>
<event>
 7    1  0.2243370E-008  0.4614232E+02  0.7816164E-02  0.1320468E+00
        -11   -1    0    0    0    0  0.00000000000E+00  0.00000000000E+00  0.45593999997E+02  0.45594000000E+02  0.51100000000E-03 0.  1.
         11   -1    0    0    0    0 -0.00000000000E+00 -0.00000000000E+00 -0.45593999997E+02  0.45594000000E+02  0.51100000000E-03 0. -1.
    9900012    2    1    2    0    0  0.12956775995E+02  0.37726945924E+01  0.42976765129E+02  0.46142316415E+02  0.99999877255E+01 0.  0.
         12    1    1    2    0    0 -0.12956775995E+02 -0.37726945924E+01 -0.42976765129E+02  0.45045683585E+02  0.00000000000E+00 0. -1.
         11    1    3    3    0    0  0.61232242720E+00 -0.31726747168E+00 -0.27960745026E+00  0.74416261046E+00  0.51100000000E-03 0. -1.
        -11    1    3    3    0    0  0.91783087049E+01  0.47306643829E+01  0.29093038492E+02  0.30871109878E+02  0.51100000000E-03 0.  1.
         12    1    3    3    0    0  0.31661448633E+01 -0.64070231876E+00  0.14163334088E+02  0.14527043926E+02  0.00000000000E+00 0. -1.
</event>
<event>
 7    1  0.2243370E-008  0.4614232E+02  0.7816164E-02  0.1320468E+00
        -11   -1    0    0    0    0  0.00000000000E+00  0.00000000000E+00  0.45593999997E+02  0.45594000000E+02  0.51100000000E-03 0. -1.
         11   -1    0    0    0    0 -0.00000000000E+00 -0.00000000000E+00 -0.45593999997E+02  0.45594000000E+02  0.51100000000E-03 0.  1.
    9900012    2    1    2    0    0 -0.11902728138E+02  0.36322404203E+02 -0.23835302816E+02  0.46142316028E+02  0.99999841933E+01 0.  0.
         12    1    1    2    0    0  0.11902728138E+02 -0.36322404203E+02  0.23835302816E+02  0.45045683972E+02  0.00000000000E+00 0. -1.
         11    1    3    3    0    0 -0.51126629667E+01  0.59958143731E+01 -0.48924370682E+01  0.92749691824E+01  0.51100000000E-03 0. -1.
        -11    1    3    3    0    0 -0.75737028194E+01  0.24905425674E+02 -0.14386159324E+02  0.29742272656E+02  0.51100000000E-03 0.  1.
         12    1    3    3    0    0  0.78363764786E+00  0.54211641558E+01 -0.45567064241E+01  0.71250741893E+01  0.00000000000E+00 0. -1.
</event>
<event>
 7    1  0.2243370E-008  0.4614232E+02  0.7816164E-02  0.1320468E+00
        -11   -1    0    0    0    0  0.00000000000E+00  0.00000000000E+00  0.45593999997E+02  0.45594000000E+02  0.51100000000E-03 0. -1.
         11   -1    0    0    0    0 -0.00000000000E+00 -0.00000000000E+00 -0.45593999997E+02  0.45594000000E+02  0.51100000000E-03 0.  1.
    9900012    2    1    2    0    0  0.33209024559E+02 -0.20671145607E+02 -0.22337812708E+02  0.46142318193E+02  0.10000003934E+02 0.  0.
         12    1    1    2    0    0 -0.33209024559E+02  0.20671145607E+02  0.22337812708E+02  0.45045681807E+02  0.00000000000E+00 0. -1.
         11    1    3    3    0    0  0.13117662689E+02 -0.70757382454E+01 -0.10692038142E+02  0.18342814017E+02  0.51100000000E-03 0. -1.
        -11    1    3    3    0    0  0.16384667627E+02 -0.85489154274E+01 -0.10995093529E+02  0.21504264001E+02  0.51100000000E-03 0.  1.
         12    1    3    3    0    0  0.37066942426E+01 -0.50464919344E+01 -0.65068103751E+00  0.62952401753E+01  0.00000000000E+00 0. -1.
</event>
<event>
 7    1  0.2243370E-008  0.4614232E+02  0.7816164E-02  0.1320468E+00
        -11   -1    0    0    0    0  0.00000000000E+00  0.00000000000E+00  0.45593999997E+02  0.45594000000E+02  0.51100000000E-03 0. -1.
         11   -1    0    0    0    0 -0.00000000000E+00 -0.00000000000E+00 -0.45593999997E+02  0.45594000000E+02  0.51100000000E-03 0.  1.
    9900012    2    1    2    0    0 -0.18291280422E+02 -0.20742644499E+02 -0.35556788323E+02  0.46142318340E+02  0.10000005281E+02 0.  0.
         12    1    1    2    0    0  0.18291280422E+02  0.20742644499E+02  0.35556788323E+02  0.45045681660E+02  0.00000000000E+00 0. -1.
         11    1    3    3    0    0 -0.55707639271E+01 -0.27544188195E+01 -0.45740024935E+01  0.77163289741E+01  0.51100000000E-03 0. -1.
        -11    1    3    3    0    0 -0.28626322319E+01 -0.10099948645E+01 -0.51726275575E+01  0.59975685933E+01  0.51100000000E-03 0.  1.
         12    1    3    3    0    0 -0.98578842634E+01 -0.16978230816E+02 -0.25810158272E+02  0.32428420773E+02  0.00000000000E+00 0. -1.
</event>
<event>
 7    1  0.2243370E-008  0.4614232E+02  0.7816164E-02  0.1320468E+00
        -11   -1    0    0    0    0  0.00000000000E+00  0.00000000000E+00  0.45593999997E+02  0.45594000000E+02  0.51100000000E-03 0. -1.
         11   -1    0    0    0    0 -0.00000000000E+00 -0.00000000000E+00 -0.45593999997E+02  0.45594000000E+02  0.51100000000E-03 0.  1.
    9900012    2    1    2    0    0  0.22527984366E+02 -0.99547773941E+01 -0.37716121635E+02  0.46142317590E+02  0.99999984432E+01 0.  0.
         12    1    1    2    0    0 -0.22527984366E+02  0.99547773941E+01  0.37716121635E+02  0.45045682410E+02  0.00000000000E+00 0. -1.
         11    1    3    3    0    0  0.11035279816E+02 -0.27188397296E+01 -0.13685624243E+02  0.17789485695E+02  0.51100000000E-03 0. -1.
        -11    1    3    3    0    0  0.11552148954E+02 -0.46442915796E+01 -0.20135318005E+02  0.23673880568E+02  0.51100000000E-03 0.  1.
         12    1    3    3    0    0 -0.59444404720E-01 -0.25916460849E+01 -0.38951793873E+01  0.46789513276E+01  0.00000000000E+00 0. -1.
</event>
<event>
 7    1  0.2243370E-008  0.4614231E+02  0.7816164E-02  0.1320468E+00
        -11   -1    0    0    0    0  0.00000000000E+00  0.00000000000E+00  0.45593999997E+02  0.45594000000E+02  0.51100000000E-03 0. -1.
         11   -1    0    0    0    0 -0.00000000000E+00 -0.00000000000E+00 -0.45593999997E+02  0.45594000000E+02  0.51100000000E-03 0.  1.
    9900012    2    1    2    0    0 -0.44388477894E+02 -0.52861441461E+01  0.55528291767E+01  0.46142309845E+02  0.99999278116E+01 0.  0.
         12    1    1    2    0    0  0.44388477894E+02  0.52861441461E+01 -0.55528291767E+01  0.45045690155E+02  0.00000000000E+00 0. -1.
         11    1    3    3    0    0 -0.26785938622E+00 -0.84516127764E+00 -0.83917343816E+00  0.12207614658E+01  0.51100000000E-03 0. -1.
        -11    1    3    3    0    0 -0.12568247388E+02  0.21357051888E+00  0.19080825323E+01  0.12714056551E+02  0.51100000000E-03 0.  1.
         12    1    3    3    0    0 -0.31552371120E+02 -0.46545533873E+01  0.44839200826E+01  0.32207491828E+02  0.00000000000E+00 0. -1.
</event>
<event>
 7    1  0.2243370E-008  0.4614232E+02  0.7816164E-02  0.1320468E+00
        -11   -1    0    0    0    0  0.00000000000E+00  0.00000000000E+00  0.45593999997E+02  0.45594000000E+02  0.51100000000E-03 0. -1.
         11   -1    0    0    0    0 -0.00000000000E+00 -0.00000000000E+00 -0.45593999997E+02  0.45594000000E+02  0.51100000000E-03 0.  1.
    9900012    2    1    2    0    0 -0.30354934711E+02  0.26919496308E+02 -0.19571208968E+02  0.46142316930E+02  0.99999924212E+01 0.  0.
         12    1    1    2    0    0  0.30354934711E+02 -0.26919496308E+02  0.19571208968E+02  0.45045683070E+02  0.00000000000E+00 0. -1.
         11    1    3    3    0    0 -0.19697395069E+02  0.11802441850E+02 -0.94865308951E+01  0.24845105651E+02  0.51100000000E-03 0. -1.
        -11    1    3    3    0    0 -0.84621197563E+01  0.11620958425E+02 -0.62953022529E+01  0.15693469221E+02  0.51100000000E-03 0.  1.
         12    1    3    3    0    0 -0.21954198860E+01  0.34960960324E+01 -0.37893758199E+01  0.56037420576E+01  0.00000000000E+00 0. -1.
</event>
<event>
 7    1  0.2243370E-008  0.4614232E+02  0.7816164E-02  0.1320468E+00
        -11   -1    0    0    0    0  0.00000000000E+00  0.00000000000E+00  0.45593999997E+02  0.45594000000E+02  0.51100000000E-03 0.  1.
         11   -1    0    0    0    0 -0.00000000000E+00 -0.00000000000E+00 -0.45593999997E+02  0.45594000000E+02  0.51100000000E-03 0. -1.
    9900012    2    1    2    0    0 -0.20048312322E+02  0.12529103520E+02  0.38343189101E+02  0.46142318605E+02  0.10000007692E+02 0.  0.
         12    1    1    2    0    0  0.20048312322E+02 -0.12529103520E+02 -0.38343189101E+02  0.45045681395E+02  0.00000000000E+00 0. -1.
         11    1    3    3    0    0 -0.58579827075E+01  0.81733542930E+01  0.18973766851E+02  0.21473786592E+02  0.51100000000E-03 0. -1.
        -11    1    3    3    0    0 -0.71620816833E+01  0.17079458566E+01  0.12407264599E+02  0.14427498334E+02  0.51100000000E-03 0.  1.
        -12    1    3    3    0    0 -0.70282479308E+01  0.26478033704E+01  0.69621576507E+01  0.10241033679E+02  0.00000000000E+00 0.  1.
</event>
<event>
 7    1  0.2243370E-008  0.4614232E+02  0.7816164E-02  0.1320468E+00
        -11   -1    0    0    0    0  0.00000000000E+00  0.00000000000E+00  0.45593999997E+02  0.45594000000E+02  0.51100000000E-03 0.  1.
         11   -1    0    0    0    0 -0.00000000000E+00 -0.00000000000E+00 -0.45593999997E+02  0.45594000000E+02  0.51100000000E-03 0. -1.
    9900012    2    1    2    0    0 -0.38001607750E+02  0.20655699461E+02  0.12583056323E+02  0.46142318540E+02  0.10000007099E+02 0.  0.
         12    1    1    2    0    0  0.38001607750E+02 -0.20655699461E+02 -0.12583056323E+02  0.45045681460E+02  0.00000000000E+00 0. -1.
         11    1    3    3    0    0 -0.11223353510E+01  0.56987726267E+00 -0.10109993220E+01  0.16144710046E+01  0.51100000000E-03 0. -1.
        -11    1    3    3    0    0 -0.16724131558E+02  0.62576777775E+01  0.72741326724E+01  0.19281289219E+02  0.51100000000E-03 0.  1.
         12    1    3    3    0    0 -0.20155140841E+02  0.13828144421E+02  0.63199229729E+01  0.25246558316E+02  0.00000000000E+00 0. -1.
</event>
<event>
 7    1  0.2243370E-008  0.4614232E+02  0.7816164E-02  0.1320468E+00
        -11   -1    0    0    0    0  0.00000000000E+00  0.00000000000E+00  0.45593999997E+02  0.45594000000E+02  0.51100000000E-03 0.  1.
         11   -1    0    0    0    0 -0.00000000000E+00 -0.00000000000E+00 -0.45593999997E+02  0.45594000000E+02  0.51100000000E-03 0. -1.
    9900012    2    1    2    0    0 -0.17991297282E+02  0.19409447371E+02  0.36451337345E+02  0.46142318527E+02  0.10000006981E+02 0.  0.
         12    1    1    2    0    0  0.17991297282E+02 -0.19409447371E+02 -0.36451337345E+02  0.45045681473E+02  0.00000000000E+00 0. -1.
         11    1    3    3    0    0 -0.18307510623E+01  0.28475167609E+01  0.14309771913E+01  0.36752819129E+01  0.51100000000E-03 0. -1.
        -11    1    3    3    0    0 -0.11895112532E+02  0.12339851333E+02  0.20285976404E+02  0.26557230126E+02  0.51100000000E-03 0.  1.
         12    1    3    3    0    0 -0.42654336868E+01  0.42220792774E+01  0.14734383750E+02  0.15909806487E+02  0.00000000000E+00 0. -1.
</event>
<event>
 7    1  0.2243370E-008  0.4614232E+02  0.7816164E-02  0.1320468E+00
        -11   -1    0    0    0    0  0.00000000000E+00  0.00000000000E+00  0.45593999997E+02  0.45594000000E+02  0.51100000000E-03 0.  1.
         11   -1    0    0    0    0 -0.00000000000E+00 -0.00000000000E+00 -0.45593999997E+02  0.45594000000E+02  0.51100000000E-03 0. -1.
    9900012    2    1    2    0    0  0.23653464415E+02  0.29072431904E+02  0.24988415192E+02  0.46142316861E+02  0.99999917884E+01 0.  0.
         12    1    1    2    0    0 -0.23653464415E+02 -0.29072431904E+02 -0.24988415192E+02  0.45045683139E+02  0.00000000000E+00 0. -1.
         11    1    3    3    0    0  0.10669053676E+02  0.80949452453E+01  0.10023877190E+02  0.16728268263E+02  0.51100000000E-03 0. -1.
        -11    1    3    3    0    0  0.54928058878E+01  0.45264806878E+01  0.29250429278E+01  0.76951816306E+01  0.51100000000E-03 0.  1.
        -12    1    3    3    0    0  0.74916048511E+01  0.16451005971E+02  0.12039495074E+02  0.21718866967E+02  0.00000000000E+00 0.  1.
</event>
<event>
 7    1  0.2243370E-008  0.4614232E+02  0.7816164E-02  0.1320468E+00
        -11   -1    0    0    0    0  0.00000000000E+00  0.00000000000E+00  0.45593999997E+02  0.45594000000E+02  0.51100000000E-03 0.  1.
         11   -1    0    0    0    0 -0.00000000000E+00 -0.00000000000E+00 -0.45593999997E+02  0.45594000000E+02  0.51100000000E-03 0. -1.
    9900012    2    1    2    0    0 -0.22412761728E+02  0.28548531932E+02  0.26678874866E+02  0.46142323983E+02  0.10000056734E+02 0.  0.
         12    1    1    2    0    0  0.22412761728E+02 -0.28548531932E+02 -0.26678874866E+02  0.45045676017E+02  0.00000000000E+00 0. -1.
         11    1    3    3    0    0 -0.12200713301E+02  0.10543410671E+02  0.11023807350E+02  0.19533183109E+02  0.51100000000E-03 0. -1.
        -11    1    3    3    0    0 -0.28739239098E+01  0.10047544454E+02  0.57051655178E+01  0.11906363931E+02  0.51100000000E-03 0.  1.
         12    1    3    3    0    0 -0.73381245173E+01  0.79575768064E+01  0.99499019979E+01  0.14702776943E+02  0.00000000000E+00 0. -1.
</event>
<event>
 7    1  0.2243370E-008  0.4614232E+02  0.7816164E-02  0.1320468E+00
        -11   -1    0    0    0    0  0.00000000000E+00  0.00000000000E+00  0.45593999997E+02  0.45594000000E+02  0.51100000000E-03 0.  1.
         11   -1    0    0    0    0 -0.00000000000E+00 -0.00000000000E+00 -0.45593999997E+02  0.45594000000E+02  0.51100000000E-03 0. -1.
    9900012    2    1    2    0    0  0.16761885062E+02  0.28247662996E+02  0.30825675282E+02  0.46142317497E+02  0.99999975875E+01 0.  0.
         12    1    1    2    0    0 -0.16761885062E+02 -0.28247662996E+02 -0.30825675282E+02  0.45045682503E+02  0.00000000000E+00 0. -1.
         11    1    3    3    0    0  0.66031677371E+01  0.15866620759E+02  0.16965947433E+02  0.24149427551E+02  0.51100000000E-03 0. -1.
        -11    1    3    3    0    0 -0.40115359022E+00  0.16595517221E+01  0.29401284009E+01  0.33999104982E+01  0.51100000000E-03 0.  1.
        -12    1    3    3    0    0  0.10559870916E+02  0.10721490515E+02  0.10919599448E+02  0.18592979447E+02  0.00000000000E+00 0.  1.
</event>
<event>
 7    1  0.2243370E-008  0.4614232E+02  0.7816164E-02  0.1320468E+00
        -11   -1    0    0    0    0  0.00000000000E+00  0.00000000000E+00  0.45593999997E+02  0.45594000000E+02  0.51100000000E-03 0.  1.
         11   -1    0    0    0    0 -0.00000000000E+00 -0.00000000000E+00 -0.45593999997E+02  0.45594000000E+02  0.51100000000E-03 0. -1.
    9900012    2    1    2    0    0 -0.27414699828E+02 -0.23618252326E+02  0.26827707362E+02  0.46142317722E+02  0.99999996426E+01 0.  0.
         12    1    1    2    0    0  0.27414699828E+02  0.23618252326E+02 -0.26827707362E+02  0.45045682278E+02  0.00000000000E+00 0. -1.
         11    1    3    3    0    0 -0.14738402779E+02 -0.94222490725E+01  0.12472129435E+02  0.21483791727E+02  0.51100000000E-03 0. -1.
        -11    1    3    3    0    0 -0.10570722375E+02 -0.79770547007E+01  0.77449204402E+01  0.15341361286E+02  0.51100000000E-03 0.  1.
         12    1    3    3    0    0 -0.21055746749E+01 -0.62189485527E+01  0.66106574870E+01  0.93171647095E+01  0.00000000000E+00 0. -1.
</event>
<event>
 7    1  0.2243370E-008  0.4614232E+02  0.7816164E-02  0.1320468E+00
        -11   -1    0    0    0    0  0.00000000000E+00  0.00000000000E+00  0.45593999997E+02  0.45594000000E+02  0.51100000000E-03 0.  1.
         11   -1    0    0    0    0 -0.00000000000E+00 -0.00000000000E+00 -0.45593999997E+02  0.45594000000E+02  0.51100000000E-03 0. -1.
    9900012    2    1    2    0    0 -0.36943328282E+02  0.20432106849E+02  0.15710919300E+02  0.46142317853E+02  0.10000000838E+02 0.  0.
         12    1    1    2    0    0  0.36943328282E+02 -0.20432106849E+02 -0.15710919300E+02  0.45045682147E+02  0.00000000000E+00 0. -1.
         11    1    3    3    0    0 -0.56919173530E+01  0.18117442392E+01 -0.87700829334E+00  0.60373408177E+01  0.51100000000E-03 0. -1.
        -11    1    3    3    0    0 -0.43933412264E+01  0.14679108325E+01  0.24758319921E+01  0.52522332068E+01  0.51100000000E-03 0.  1.
         12    1    3    3    0    0 -0.26858069702E+02  0.17152451778E+02  0.14112095602E+02  0.34852743829E+02  0.00000000000E+00 0. -1.
</event>
<event>
 7    1  0.2243370E-008  0.4614232E+02  0.7816164E-02  0.1320468E+00
        -11   -1    0    0    0    0  0.00000000000E+00  0.00000000000E+00  0.45593999997E+02  0.45594000000E+02  0.51100000000E-03 0.  1.
         11   -1    0    0    0    0 -0.00000000000E+00 -0.00000000000E+00 -0.45593999997E+02  0.45594000000E+02  0.51100000000E-03 0. -1.
    9900012    2    1    2    0    0  0.12549584258E+01 -0.10167844502E+02  0.43865173928E+02  0.46142318007E+02  0.10000002242E+02 0.  0.
         12    1    1    2    0    0 -0.12549584258E+01  0.10167844502E+02 -0.43865173928E+02  0.45045681993E+02  0.00000000000E+00 0. -1.
         11    1    3    3    0    0  0.89284220320E+00 -0.39595469287E+01  0.79082135455E+01  0.88890393645E+01  0.51100000000E-03 0. -1.
        -11    1    3    3    0    0  0.86588999332E+00  0.38598604120E+00  0.19416849816E+02  0.19439979623E+02  0.51100000000E-03 0.  1.
        -12    1    3    3    0    0 -0.50377377067E+00 -0.65942836143E+01  0.16540110567E+02  0.17813299020E+02  0.00000000000E+00 0.  1.
</event>
<event>
 7    1  0.2243370E-008  0.4614232E+02  0.7816164E-02  0.1320468E+00
        -11   -1    0    0    0    0  0.00000000000E+00  0.00000000000E+00  0.45593999997E+02  0.45594000000E+02  0.51100000000E-03 0.  1.
         11   -1    0    0    0    0 -0.00000000000E+00 -0.00000000000E+00 -0.45593999997E+02  0.45594000000E+02  0.51100000000E-03 0. -1.
    9900012    2    1    2    0    0 -0.39611254843E+02  0.44160250369E+01  0.20989540573E+02  0.46142316513E+02  0.99999886184E+01 0.  0.
         12    1    1    2    0    0  0.39611254843E+02 -0.44160250369E+01 -0.20989540573E+02  0.45045683487E+02  0.00000000000E+00 0. -1.
         11    1    3    3    0    0 -0.13504066169E+02  0.27764235293E+01  0.80811378591E+01  0.15980397995E+02  0.51100000000E-03 0.  1.
        -11    1    3    3    0    0 -0.10362038273E+02 -0.24001708460E+01  0.75604512757E+01  0.13049639114E+02  0.51100000000E-03 0. -1.
        -12    1    3    3    0    0 -0.15745150400E+02  0.40397723536E+01  0.53479514383E+01  0.17112279404E+02  0.00000000000E+00 0.  1.
</event>
<event>
 7    1  0.2243370E-008  0.4614232E+02  0.7816164E-02  0.1320468E+00
        -11   -1    0    0    0    0  0.00000000000E+00  0.00000000000E+00  0.45593999997E+02  0.45594000000E+02  0.51100000000E-03 0.  1.
         11   -1    0    0    0    0 -0.00000000000E+00 -0.00000000000E+00 -0.45593999997E+02  0.45594000000E+02  0.51100000000E-03 0. -1.
    9900012    2    1    2    0    0  0.12954467711E+02  0.15997577706E+02  0.40067098481E+02  0.46142321996E+02  0.10000038618E+02 0.  0.
         12    1    1    2    0    0 -0.12954467711E+02 -0.15997577706E+02 -0.40067098481E+02  0.45045678004E+02  0.00000000000E+00 0. -1.
         11    1    3    3    0    0  0.28214581779E+01  0.96379474489E+00  0.34421208740E+01  0.45538690070E+01  0.51100000000E-03 0. -1.
        -11    1    3    3    0    0  0.76902398684E+01  0.74436951755E+01  0.14155434248E+02  0.17746118057E+02  0.51100000000E-03 0.  1.
         12    1    3    3    0    0  0.24427696651E+01  0.75900877859E+01  0.22469543359E+02  0.23842334932E+02  0.00000000000E+00 0. -1.
</event>
<event>
 7    1  0.2243370E-008  0.4614232E+02  0.7816164E-02  0.1320468E+00
        -11   -1    0    0    0    0  0.00000000000E+00  0.00000000000E+00  0.45593999997E+02  0.45594000000E+02  0.51100000000E-03 0. -1.
         11   -1    0    0    0    0 -0.00000000000E+00 -0.00000000000E+00 -0.45593999997E+02  0.45594000000E+02  0.51100000000E-03 0.  1.
    9900012    2    1    2    0    0  0.33844202006E+02 -0.22207411526E+02 -0.19761427057E+02  0.46142321679E+02  0.10000035722E+02 0.  0.
         12    1    1    2    0    0 -0.33844202006E+02  0.22207411526E+02  0.19761427057E+02  0.45045678321E+02  0.00000000000E+00 0. -1.
         11    1    3    3    0    0  0.76181881227E+01 -0.52833513200E+01 -0.94018480257E+01  0.13203989473E+02  0.51100000000E-03 0. -1.
        -11    1    3    3    0    0  0.15333206695E+02 -0.98743495739E+01 -0.70052310294E+01  0.19536715924E+02  0.51100000000E-03 0.  1.
         12    1    3    3    0    0  0.10892807189E+02 -0.70497106321E+01 -0.33543480017E+01  0.13401616282E+02  0.00000000000E+00 0. -1.
</event>
<event>
 7    1  0.2243370E-008  0.4614232E+02  0.7816164E-02  0.1320468E+00
        -11   -1    0    0    0    0  0.00000000000E+00  0.00000000000E+00  0.45593999997E+02  0.45594000000E+02  0.51100000000E-03 0.  1.
         11   -1    0    0    0    0 -0.00000000000E+00 -0.00000000000E+00 -0.45593999997E+02  0.45594000000E+02  0.51100000000E-03 0. -1.
    9900012    2    1    2    0    0  0.39549463900E+01 -0.24991519456E+02  0.37267892664E+02  0.46142317973E+02  0.10000001930E+02 0.  0.
         12    1    1    2    0    0 -0.39549463900E+01  0.24991519456E+02 -0.37267892664E+02  0.45045682027E+02  0.00000000000E+00 0. -1.
         11    1    3    3    0    0  0.58904636176E+01 -0.18111933640E+02  0.25632511054E+02  0.31933764654E+02  0.51100000000E-03 0. -1.
        -11    1    3    3    0    0 -0.19680026475E+01 -0.63336039769E+01  0.11882682346E+02  0.13608295769E+02  0.51100000000E-03 0.  1.
        -12    1    3    3    0    0  0.32485419902E-01 -0.54598183952E+00 -0.24730073554E+00  0.60025754922E+00  0.00000000000E+00 0.  1.
</event>
<event>
 7    1  0.2243370E-008  0.4614232E+02  0.7816164E-02  0.1320468E+00
        -11   -1    0    0    0    0  0.00000000000E+00  0.00000000000E+00  0.45593999997E+02  0.45594000000E+02  0.51100000000E-03 0.  1.
         11   -1    0    0    0    0 -0.00000000000E+00 -0.00000000000E+00 -0.45593999997E+02  0.45594000000E+02  0.51100000000E-03 0. -1.
    9900012    2    1    2    0    0  0.11031193430E+02  0.38061864956E+02  0.21417765882E+02  0.46142317767E+02  0.10000000053E+02 0.  0.
         12    1    1    2    0    0 -0.11031193430E+02 -0.38061864956E+02 -0.21417765882E+02  0.45045682233E+02  0.00000000000E+00 0. -1.
         11    1    3    3    0    0  0.16344318155E+01  0.44116204136E+01  0.57409934265E+01  0.74224502570E+01  0.51100000000E-03 0. -1.
        -11    1    3    3    0    0  0.65836083335E+01  0.27238736770E+02  0.14718033151E+02  0.31653012172E+02  0.51100000000E-03 0.  1.
        -12    1    3    3    0    0  0.28131532813E+01  0.64115077730E+01  0.95873930530E+00  0.70668553376E+01  0.00000000000E+00 0.  1.
</event>
<event>
 7    1  0.2243370E-008  0.4614232E+02  0.7816164E-02  0.1320468E+00
        -11   -1    0    0    0    0  0.00000000000E+00  0.00000000000E+00  0.45593999997E+02  0.45594000000E+02  0.51100000000E-03 0. -1.
         11   -1    0    0    0    0 -0.00000000000E+00 -0.00000000000E+00 -0.45593999997E+02  0.45594000000E+02  0.51100000000E-03 0.  1.
    9900012    2    1    2    0    0 -0.30472292163E+02  0.28486507723E+01 -0.33052051038E+02  0.46142317868E+02  0.10000000976E+02 0.  0.
         12    1    1    2    0    0  0.30472292163E+02 -0.28486507723E+01  0.33052051038E+02  0.45045682132E+02  0.00000000000E+00 0. -1.
         11    1    3    3    0    0 -0.22506081529E+01  0.74302149470E+00 -0.24102914275E+01  0.33803584168E+01  0.51100000000E-03 0. -1.
        -11    1    3    3    0    0 -0.85196802793E+01  0.42487534206E+01 -0.13735660988E+02  0.16712427733E+02  0.51100000000E-03 0.  1.
        -12    1    3    3    0    0 -0.19702003731E+02 -0.21431241430E+01 -0.16906098622E+02  0.26049531718E+02  0.00000000000E+00 0.  1.
</event>
<event>
 7    1  0.2243370E-008  0.4614231E+02  0.7816164E-02  0.1320468E+00
        -11   -1    0    0    0    0  0.00000000000E+00  0.00000000000E+00  0.45593999997E+02  0.45594000000E+02  0.51100000000E-03 0.  1.
         11   -1    0    0    0    0 -0.00000000000E+00 -0.00000000000E+00 -0.45593999997E+02  0.45594000000E+02  0.51100000000E-03 0. -1.
    9900012    2    1    2    0    0 -0.26420451875E+02 -0.10235006222E+02  0.35018827844E+02  0.46142312824E+02  0.99999549752E+01 0.  0.
         12    1    1    2    0    0  0.26420451875E+02  0.10235006222E+02 -0.35018827844E+02  0.45045687176E+02  0.00000000000E+00 0. -1.
         11    1    3    3    0    0 -0.12434284202E+01 -0.77727669819E+00  0.47484848237E+01  0.49697466418E+01  0.51100000000E-03 0. -1.
        -11    1    3    3    0    0 -0.75579476611E+01  0.61971338356E+00  0.74296348564E+01  0.10616312537E+02  0.51100000000E-03 0.  1.
        -12    1    3    3    0    0 -0.17619075794E+02 -0.10077442907E+02  0.22840708164E+02  0.30556253645E+02  0.00000000000E+00 0.  1.
</event>
<event>
 7    1  0.2243370E-008  0.4614232E+02  0.7816164E-02  0.1320468E+00
        -11   -1    0    0    0    0  0.00000000000E+00  0.00000000000E+00  0.45593999997E+02  0.45594000000E+02  0.51100000000E-03 0.  1.
         11   -1    0    0    0    0 -0.00000000000E+00 -0.00000000000E+00 -0.45593999997E+02  0.45594000000E+02  0.51100000000E-03 0. -1.
    9900012    2    1    2    0    0  0.37774801292E+02 -0.22641344017E+02  0.94629491503E+01  0.46142317875E+02  0.10000001034E+02 0.  0.
         12    1    1    2    0    0 -0.37774801292E+02  0.22641344017E+02 -0.94629491503E+01  0.45045682125E+02  0.00000000000E+00 0. -1.
         11    1    3    3    0    0  0.22290401358E+02 -0.13226227435E+02  0.23501778092E+01  0.26025341897E+02  0.51100000000E-03 0. -1.
        -11    1    3    3    0    0  0.12958069237E+02 -0.87674704751E+01  0.41838742403E+01  0.16195212280E+02  0.51100000000E-03 0.  1.
         12    1    3    3    0    0  0.25263306969E+01 -0.64764610646E+00  0.29288971008E+01  0.39217636971E+01  0.00000000000E+00 0. -1.
</event>
<event>
 7    1  0.2243370E-008  0.4614232E+02  0.7816164E-02  0.1320468E+00
        -11   -1    0    0    0    0  0.00000000000E+00  0.00000000000E+00  0.45593999997E+02  0.45594000000E+02  0.51100000000E-03 0.  1.
         11   -1    0    0    0    0 -0.00000000000E+00 -0.00000000000E+00 -0.45593999997E+02  0.45594000000E+02  0.51100000000E-03 0. -1.
    9900012    2    1    2    0    0  0.30625323126E+01 -0.17224250247E+02  0.41509753466E+02  0.46142317260E+02  0.99999954285E+01 0.  0.
         12    1    1    2    0    0 -0.30625323126E+01  0.17224250247E+02 -0.41509753466E+02  0.45045682740E+02  0.00000000000E+00 0. -1.
         11    1    3    3    0    0  0.11180977771E+01 -0.59810736705E+01  0.11708868884E+02  0.13195491491E+02  0.51100000000E-03 0. -1.
        -11    1    3    3    0    0 -0.21862343041E+01 -0.90886401360E+01  0.18640672534E+02  0.20853241301E+02  0.51100000000E-03 0.  1.
         12    1    3    3    0    0  0.41306688396E+01 -0.21545364408E+01  0.11160212048E+02  0.12093584468E+02  0.00000000000E+00 0. -1.
</event>
<event>
 7    1  0.2243370E-008  0.4614232E+02  0.7816164E-02  0.1320468E+00
        -11   -1    0    0    0    0  0.00000000000E+00  0.00000000000E+00  0.45593999997E+02  0.45594000000E+02  0.51100000000E-03 0.  1.
         11   -1    0    0    0    0 -0.00000000000E+00 -0.00000000000E+00 -0.45593999997E+02  0.45594000000E+02  0.51100000000E-03 0. -1.
    9900012    2    1    2    0    0  0.46180151093E+01  0.30978045477E+02  0.32375115076E+02  0.46142318284E+02  0.10000004765E+02 0.  0.
         12    1    1    2    0    0 -0.46180151093E+01 -0.30978045477E+02 -0.32375115076E+02  0.45045681716E+02  0.00000000000E+00 0. -1.
         11    1    3    3    0    0  0.15488452255E+01  0.10463790956E+02  0.77292121453E+01  0.13100784837E+02  0.51100000000E-03 0. -1.
        -11    1    3    3    0    0  0.40523053269E+01  0.11175747888E+02  0.94841195184E+01  0.15207466673E+02  0.51100000000E-03 0.  1.
        -12    1    3    3    0    0 -0.98313544314E+00  0.93385066328E+01  0.15161783412E+02  0.17834066773E+02  0.00000000000E+00 0.  1.
</event>
<event>
 7    1  0.2243370E-008  0.4614232E+02  0.7816164E-02  0.1320468E+00
        -11   -1    0    0    0    0  0.00000000000E+00  0.00000000000E+00  0.45593999997E+02  0.45594000000E+02  0.51100000000E-03 0. -1.
         11   -1    0    0    0    0 -0.00000000000E+00 -0.00000000000E+00 -0.45593999997E+02  0.45594000000E+02  0.51100000000E-03 0.  1.
    9900012    2    1    2    0    0 -0.39879366203E+02  0.19319437101E+02  0.80937656247E+01  0.46142317181E+02  0.99999947074E+01 0.  0.
         12    1    1    2    0    0  0.39879366203E+02 -0.19319437101E+02 -0.80937656247E+01  0.45045682819E+02  0.00000000000E+00 0. -1.
         11    1    3    3    0    0 -0.25595429928E+02  0.10388390117E+02  0.79327284091E+01  0.28739743609E+02  0.51100000000E-03 0. -1.
        -11    1    3    3    0    0 -0.11514229412E+02  0.57543377023E+01  0.15499186601E+01  0.12965034881E+02  0.51100000000E-03 0.  1.
         12    1    3    3    0    0 -0.27697068627E+01  0.31767092817E+01 -0.13888814444E+01  0.44375386908E+01  0.00000000000E+00 0. -1.
</event>
<event>
 7    1  0.2243370E-008  0.4614232E+02  0.7816164E-02  0.1320468E+00
        -11   -1    0    0    0    0  0.00000000000E+00  0.00000000000E+00  0.45593999997E+02  0.45594000000E+02  0.51100000000E-03 0.  1.
         11   -1    0    0    0    0 -0.00000000000E+00 -0.00000000000E+00 -0.45593999997E+02  0.45594000000E+02  0.51100000000E-03 0. -1.
    9900012    2    1    2    0    0  0.91828187918E+01  0.41740400633E+02  0.14231244595E+02  0.46142317314E+02  0.99999959203E+01 0.  0.
         12    1    1    2    0    0 -0.91828187918E+01 -0.41740400633E+02 -0.14231244595E+02  0.45045682686E+02  0.00000000000E+00 0. -1.
         11    1    3    3    0    0  0.55270834678E+00  0.72099214729E+01  0.13449614044E+01  0.73550918147E+01  0.51100000000E-03 0. -1.
        -11    1    3    3    0    0 -0.46779799232E+00  0.11251486959E+02  0.64522847817E+01  0.12978704593E+02  0.51100000000E-03 0.  1.
        -12    1    3    3    0    0  0.90979084373E+01  0.23278992201E+02  0.64339984088E+01  0.25808520906E+02  0.00000000000E+00 0.  1.
</event>
<event>
 7    1  0.2243370E-008  0.4614232E+02  0.7816164E-02  0.1320468E+00
        -11   -1    0    0    0    0  0.00000000000E+00  0.00000000000E+00  0.45593999997E+02  0.45594000000E+02  0.51100000000E-03 0.  1.
         11   -1    0    0    0    0 -0.00000000000E+00 -0.00000000000E+00 -0.45593999997E+02  0.45594000000E+02  0.51100000000E-03 0. -1.
    9900012    2    1    2    0    0  0.20991601016E+02  0.35627653728E+02  0.17864393377E+02  0.46142316810E+02  0.99999913237E+01 0.  0.
         12    1    1    2    0    0 -0.20991601016E+02 -0.35627653728E+02 -0.17864393377E+02  0.45045683190E+02  0.00000000000E+00 0. -1.
         11    1    3    3    0    0  0.13117665561E+02  0.12970409528E+02  0.79280841446E+01  0.20078824456E+02  0.51100000000E-03 0. -1.
        -11    1    3    3    0    0  0.23865165761E+01  0.53069457113E+01  0.33282106400E+01  0.67034409430E+01  0.51100000000E-03 0.  1.
        -12    1    3    3    0    0  0.54874188792E+01  0.17350298489E+02  0.66080985921E+01  0.19360051410E+02  0.00000000000E+00 0.  1.
</event>
<event>
 7    1  0.2243370E-008  0.4614232E+02  0.7816164E-02  0.1320468E+00
        -11   -1    0    0    0    0  0.00000000000E+00  0.00000000000E+00  0.45593999997E+02  0.45594000000E+02  0.51100000000E-03 0. -1.
         11   -1    0    0    0    0 -0.00000000000E+00 -0.00000000000E+00 -0.45593999997E+02  0.45594000000E+02  0.51100000000E-03 0.  1.
    9900012    2    1    2    0    0 -0.18348942099E+01 -0.34321402299E+02  0.29116800714E+02  0.46142316785E+02  0.99999910984E+01 0.  0.
         12    1    1    2    0    0  0.18348942099E+01  0.34321402299E+02 -0.29116800714E+02  0.45045683215E+02  0.00000000000E+00 0. -1.
         11    1    3    3    0    0 -0.16062678494E+01 -0.38650452166E+01  0.40703659098E+01  0.58383687646E+01  0.51100000000E-03 0.  1.
        -11    1    3    3    0    0 -0.13621387506E+01 -0.30411465562E+02  0.24178318008E+02  0.38875489985E+02  0.51100000000E-03 0. -1.
         12    1    3    3    0    0  0.11335123901E+01 -0.44891519713E-01  0.86811679527E+00  0.14284580348E+01  0.00000000000E+00 0. -1.
</event>
<event>
 7    1  0.2243370E-008  0.4614232E+02  0.7816164E-02  0.1320468E+00
        -11   -1    0    0    0    0  0.00000000000E+00  0.00000000000E+00  0.45593999997E+02  0.45594000000E+02  0.51100000000E-03 0. -1.
         11   -1    0    0    0    0 -0.00000000000E+00 -0.00000000000E+00 -0.45593999997E+02  0.45594000000E+02  0.51100000000E-03 0.  1.
    9900012    2    1    2    0    0  0.80853873606E+01 -0.10057230092E+02 -0.43157758177E+02  0.46142318112E+02  0.10000003199E+02 0.  0.
         12    1    1    2    0    0 -0.80853873606E+01  0.10057230092E+02  0.43157758177E+02  0.45045681888E+02  0.00000000000E+00 0. -1.
         11    1    3    3    0    0  0.51641106323E+01 -0.52412972114E+01 -0.21863422385E+02  0.23068343541E+02  0.51100000000E-03 0.  1.
        -11    1    3    3    0    0  0.51776600626E+01 -0.37312579723E+01 -0.15382833072E+02  0.16654188764E+02  0.51100000000E-03 0. -1.
         12    1    3    3    0    0 -0.22563833343E+01 -0.10846749084E+01 -0.59115027198E+01  0.64197858075E+01  0.00000000000E+00 0. -1.
</event>
<event>
 7    1  0.2243370E-008  0.4614232E+02  0.7816164E-02  0.1320468E+00
        -11   -1    0    0    0    0  0.00000000000E+00  0.00000000000E+00  0.45593999997E+02  0.45594000000E+02  0.51100000000E-03 0.  1.
         11   -1    0    0    0    0 -0.00000000000E+00 -0.00000000000E+00 -0.45593999997E+02  0.45594000000E+02  0.51100000000E-03 0. -1.
    9900012    2    1    2    0    0  0.21776355218E+02 -0.30406039181E+02  0.25107303191E+02  0.46142317201E+02  0.99999948959E+01 0.  0.
         12    1    1    2    0    0 -0.21776355218E+02  0.30406039181E+02 -0.25107303191E+02  0.45045682799E+02  0.00000000000E+00 0. -1.
         11    1    3    3    0    0  0.14346667758E+01 -0.77146085288E+01  0.67154695875E+01  0.10328164675E+02  0.51100000000E-03 0. -1.
        -11    1    3    3    0    0  0.18273873807E+02 -0.20251439584E+02  0.17772577344E+02  0.32556409121E+02  0.51100000000E-03 0.  1.
        -12    1    3    3    0    0  0.20678146359E+01 -0.24399910685E+01  0.61925625882E+00  0.32577434056E+01  0.00000000000E+00 0.  1.
</event>
<event>
 7    1  0.2243370E-008  0.4614232E+02  0.7816164E-02  0.1320468E+00
        -11   -1    0    0    0    0  0.00000000000E+00  0.00000000000E+00  0.45593999997E+02  0.45594000000E+02  0.51100000000E-03 0.  1.
         11   -1    0    0    0    0 -0.00000000000E+00 -0.00000000000E+00 -0.45593999997E+02  0.45594000000E+02  0.51100000000E-03 0. -1.
    9900012    2    1    2    0    0 -0.72214182852E+01  0.11563807830E+02  0.42933005485E+02  0.46142317703E+02  0.99999994741E+01 0.  0.
         12    1    1    2    0    0  0.72214182852E+01 -0.11563807830E+02 -0.42933005485E+02  0.45045682297E+02  0.00000000000E+00 0. -1.
         11    1    3    3    0    0 -0.48443490897E+01  0.51149627837E+01  0.14157528024E+02  0.15813480401E+02  0.51100000000E-03 0. -1.
        -11    1    3    3    0    0 -0.65006772883E+00  0.21829405705E+01  0.16420426766E+01  0.28078678743E+01  0.51100000000E-03 0.  1.
        -12    1    3    3    0    0 -0.17270014666E+01  0.42659044759E+01  0.27133434784E+02  0.27520969428E+02  0.00000000000E+00 0.  1.
</event>
<event>
 7    1  0.2243370E-008  0.4614232E+02  0.7816164E-02  0.1320468E+00
        -11   -1    0    0    0    0  0.00000000000E+00  0.00000000000E+00  0.45593999997E+02  0.45594000000E+02  0.51100000000E-03 0.  1.
         11   -1    0    0    0    0 -0.00000000000E+00 -0.00000000000E+00 -0.45593999997E+02  0.45594000000E+02  0.51100000000E-03 0. -1.
    9900012    2    1    2    0    0 -0.81681622131E+00 -0.20446867609E+01  0.44991837807E+02  0.46142318721E+02  0.10000008750E+02 0.  0.
         12    1    1    2    0    0  0.81681622131E+00  0.20446867609E+01 -0.44991837807E+02  0.45045681279E+02  0.00000000000E+00 0. -1.
         11    1    3    3    0    0 -0.15346951038E+01 -0.39004251893E+00  0.18649000802E+01  0.24464821272E+01  0.51100000000E-03 0. -1.
        -11    1    3    3    0    0  0.24743367682E+01 -0.33420682170E+01  0.33850756533E+02  0.34105211926E+02  0.51100000000E-03 0.  1.
        -12    1    3    3    0    0 -0.17564578857E+01  0.16874239750E+01  0.92761811936E+01  0.95906246674E+01  0.00000000000E+00 0.  1.
</event>
<event>
 7    1  0.2243370E-008  0.4614232E+02  0.7816164E-02  0.1320468E+00
        -11   -1    0    0    0    0  0.00000000000E+00  0.00000000000E+00  0.45593999997E+02  0.45594000000E+02  0.51100000000E-03 0.  1.
         11   -1    0    0    0    0 -0.00000000000E+00 -0.00000000000E+00 -0.45593999997E+02  0.45594000000E+02  0.51100000000E-03 0. -1.
    9900012    2    1    2    0    0  0.11473982194E+02 -0.43202218938E+02  0.55704081941E+01  0.46142318342E+02  0.10000005299E+02 0.  0.
         12    1    1    2    0    0 -0.11473982194E+02  0.43202218938E+02 -0.55704081941E+01  0.45045681658E+02  0.00000000000E+00 0. -1.
         11    1    3    3    0    0  0.13258445919E+01 -0.19775331938E+01  0.17229073179E+01  0.29388622461E+01  0.51100000000E-03 0. -1.
        -11    1    3    3    0    0  0.54230438641E+01 -0.99027573671E+01 -0.31690489135E-01  0.11290483283E+02  0.51100000000E-03 0.  1.
         12    1    3    3    0    0  0.47250937381E+01 -0.31321928377E+02  0.38791913653E+01  0.31912972813E+02  0.00000000000E+00 0. -1.
</event>
<event>
 7    1  0.2243370E-008  0.4614232E+02  0.7816164E-02  0.1320468E+00
        -11   -1    0    0    0    0  0.00000000000E+00  0.00000000000E+00  0.45593999997E+02  0.45594000000E+02  0.51100000000E-03 0.  1.
         11   -1    0    0    0    0 -0.00000000000E+00 -0.00000000000E+00 -0.45593999997E+02  0.45594000000E+02  0.51100000000E-03 0. -1.
    9900012    2    1    2    0    0 -0.12632961055E+02 -0.10492472298E+02  0.41945557491E+02  0.46142317930E+02  0.10000001538E+02 0.  0.
         12    1    1    2    0    0  0.12632961055E+02  0.10492472298E+02 -0.41945557491E+02  0.45045682070E+02  0.00000000000E+00 0. -1.
         11    1    3    3    0    0 -0.96556369881E+01 -0.62800021074E+01  0.21392224731E+02  0.24296029126E+02  0.51100000000E-03 0. -1.
        -11    1    3    3    0    0 -0.32492113912E+01 -0.25816140693E+01  0.19378868399E+02  0.19818240249E+02  0.51100000000E-03 0.  1.
         12    1    3    3    0    0  0.27188732414E+00 -0.16308561209E+01  0.11744643614E+01  0.20280485547E+01  0.00000000000E+00 0. -1.
</event>
<event>
 7    1  0.2243370E-008  0.4614232E+02  0.7816164E-02  0.1320468E+00
        -11   -1    0    0    0    0  0.00000000000E+00  0.00000000000E+00  0.45593999997E+02  0.45594000000E+02  0.51100000000E-03 0. -1.
         11   -1    0    0    0    0 -0.00000000000E+00 -0.00000000000E+00 -0.45593999997E+02  0.45594000000E+02  0.51100000000E-03 0.  1.
    9900012    2    1    2    0    0 -0.19018134718E+02  0.22454315284E+02 -0.34106125490E+02  0.46142317422E+02  0.99999969056E+01 0.  0.
         12    1    1    2    0    0  0.19018134718E+02 -0.22454315284E+02  0.34106125490E+02  0.45045682578E+02  0.00000000000E+00 0. -1.
         11    1    3    3    0    0  0.53962273977E+00  0.17881527688E+01 -0.48693145558E+00  0.19302293981E+01  0.51100000000E-03 0. -1.
        -11    1    3    3    0    0 -0.65097160383E+01  0.88935708707E+01 -0.11040427836E+02  0.15600097845E+02  0.51100000000E-03 0.  1.
         12    1    3    3    0    0 -0.13048041420E+02  0.11772591644E+02 -0.22578766199E+02  0.28611990178E+02  0.00000000000E+00 0. -1.
</event>
<event>
 7    1  0.2243370E-008  0.4614231E+02  0.7816164E-02  0.1320468E+00
        -11   -1    0    0    0    0  0.00000000000E+00  0.00000000000E+00  0.45593999997E+02  0.45594000000E+02  0.51100000000E-03 0. -1.
         11   -1    0    0    0    0 -0.00000000000E+00 -0.00000000000E+00 -0.45593999997E+02  0.45594000000E+02  0.51100000000E-03 0.  1.
    9900012    2    1    2    0    0  0.43089250034E+02 -0.13005468842E+02 -0.18134648141E+01  0.46142308276E+02  0.99999135044E+01 0.  0.
         12    1    1    2    0    0 -0.43089250034E+02  0.13005468842E+02  0.18134648141E+01  0.45045691724E+02  0.00000000000E+00 0. -1.
         11    1    3    3    0    0  0.30509774554E+02 -0.77766815577E+01 -0.28857545422E+01  0.31617253184E+02  0.51100000000E-03 0. -1.
        -11    1    3    3    0    0  0.11936649372E+02 -0.59735731857E+01  0.43925015909E+00  0.13355153155E+02  0.51100000000E-03 0.  1.
         12    1    3    3    0    0  0.64282610811E+00  0.74478590172E+00  0.63303956898E+00  0.11699019363E+01  0.00000000000E+00 0. -1.
</event>
<event>
 7    1  0.2243370E-008  0.4614232E+02  0.7816164E-02  0.1320468E+00
        -11   -1    0    0    0    0  0.00000000000E+00  0.00000000000E+00  0.45593999997E+02  0.45594000000E+02  0.51100000000E-03 0.  1.
         11   -1    0    0    0    0 -0.00000000000E+00 -0.00000000000E+00 -0.45593999997E+02  0.45594000000E+02  0.51100000000E-03 0. -1.
    9900012    2    1    2    0    0  0.13320092170E+02  0.38939241773E+02  0.18314589730E+02  0.46142316497E+02  0.99999884715E+01 0.  0.
         12    1    1    2    0    0 -0.13320092170E+02 -0.38939241773E+02 -0.18314589730E+02  0.45045683503E+02  0.00000000000E+00 0. -1.
         11    1    3    3    0    0  0.73133519719E+01  0.17032710738E+02  0.53389233483E+01  0.19289957360E+02  0.51100000000E-03 0. -1.
        -11    1    3    3    0    0  0.71344121882E+01  0.16912200734E+02  0.10728858358E+02  0.21261015330E+02  0.51100000000E-03 0.  1.
         12    1    3    3    0    0 -0.11276719906E+01  0.49943303005E+01  0.22468080242E+01  0.55913438069E+01  0.00000000000E+00 0. -1.
</event>
<event>
 7    1  0.2243370E-008  0.4614232E+02  0.7816164E-02  0.1320468E+00
        -11   -1    0    0    0    0  0.00000000000E+00  0.00000000000E+00  0.45593999997E+02  0.45594000000E+02  0.51100000000E-03 0.  1.
         11   -1    0    0    0    0 -0.00000000000E+00 -0.00000000000E+00 -0.45593999997E+02  0.45594000000E+02  0.51100000000E-03 0. -1.
    9900012    2    1    2    0    0  0.40477125045E+02  0.14079744681E+02  0.13873593723E+02  0.46142318021E+02  0.10000002366E+02 0.  0.
         12    1    1    2    0    0 -0.40477125045E+02 -0.14079744681E+02 -0.13873593723E+02  0.45045681979E+02  0.00000000000E+00 0. -1.
         11    1    3    3    0    0  0.69138962326E+01  0.11132588973E+01  0.26794364805E+01  0.74980455188E+01  0.51100000000E-03 0. -1.
        -11    1    3    3    0    0  0.19072268311E+02  0.11573100324E+02  0.52409940657E+01  0.22916284357E+02  0.51100000000E-03 0.  1.
        -12    1    3    3    0    0  0.14490960501E+02  0.13933854596E+01  0.59531631771E+01  0.15727988145E+02  0.00000000000E+00 0.  1.
</event>
<event>
 7    1  0.2243370E-008  0.4614232E+02  0.7816164E-02  0.1320468E+00
        -11   -1    0    0    0    0  0.00000000000E+00  0.00000000000E+00  0.45593999997E+02  0.45594000000E+02  0.51100000000E-03 0.  1.
         11   -1    0    0    0    0 -0.00000000000E+00 -0.00000000000E+00 -0.45593999997E+02  0.45594000000E+02  0.51100000000E-03 0. -1.
    9900012    2    1    2    0    0  0.20067414800E+02 -0.37216747978E+01  0.40156711289E+02  0.46142318058E+02  0.10000002708E+02 0.  0.
         12    1    1    2    0    0 -0.20067414800E+02  0.37216747978E+01 -0.40156711289E+02  0.45045681942E+02  0.00000000000E+00 0. -1.
         11    1    3    3    0    0  0.34137958449E+01 -0.26399211003E+01  0.82107049423E+01  0.92757135250E+01  0.51100000000E-03 0. -1.
        -11    1    3    3    0    0  0.50239222782E+01 -0.25469127083E+01  0.52047813512E+01  0.76691791331E+01  0.51100000000E-03 0.  1.
        -12    1    3    3    0    0  0.11629696677E+02  0.14651590109E+01  0.26741224995E+02  0.29197425400E+02  0.00000000000E+00 0.  1.
</event>
<event>
 7    1  0.2243370E-008  0.4614232E+02  0.7816164E-02  0.1320468E+00
        -11   -1    0    0    0    0  0.00000000000E+00  0.00000000000E+00  0.45593999997E+02  0.45594000000E+02  0.51100000000E-03 0.  1.
         11   -1    0    0    0    0 -0.00000000000E+00 -0.00000000000E+00 -0.45593999997E+02  0.45594000000E+02  0.51100000000E-03 0. -1.
    9900012    2    1    2    0    0 -0.23693821140E+02  0.38007988722E+02  0.48071971867E+01  0.46142317502E+02  0.99999976385E+01 0.  0.
         12    1    1    2    0    0  0.23693821140E+02 -0.38007988722E+02 -0.48071971867E+01  0.45045682498E+02  0.00000000000E+00 0. -1.
         11    1    3    3    0    0 -0.29212993708E+01  0.55703912886E+01 -0.35506038268E+00  0.62999458139E+01  0.51100000000E-03 0. -1.
        -11    1    3    3    0    0 -0.20714786628E+02  0.27046083402E+02  0.37825723855E+01  0.34276826961E+02  0.51100000000E-03 0.  1.
         12    1    3    3    0    0 -0.57735140962E-01  0.53915140318E+01  0.13796851839E+01  0.55655447270E+01  0.00000000000E+00 0. -1.
</event>
<event>
 7    1  0.2243370E-008  0.4614233E+02  0.7816164E-02  0.1320468E+00
        -11   -1    0    0    0    0  0.00000000000E+00  0.00000000000E+00  0.45593999997E+02  0.45594000000E+02  0.51100000000E-03 0.  1.
         11   -1    0    0    0    0 -0.00000000000E+00 -0.00000000000E+00 -0.45593999997E+02  0.45594000000E+02  0.51100000000E-03 0. -1.
    9900012    2    1    2    0    0  0.59417313835E+01  0.32456456960E+02  0.30665725438E+02  0.46142328878E+02  0.10000101371E+02 0.  0.
         12    1    1    2    0    0 -0.59417313835E+01 -0.32456456960E+02 -0.30665725438E+02  0.45045671122E+02  0.00000000000E+00 0. -1.
         11    1    3    3    0    0  0.38051519445E+01  0.11856179410E+02  0.12383798433E+02  0.17561510055E+02  0.51100000000E-03 0. -1.
        -11    1    3    3    0    0  0.39976000797E+00  0.14680656278E+02  0.16646004575E+02  0.22198444662E+02  0.51100000000E-03 0.  1.
         12    1    3    3    0    0  0.17368194310E+01  0.59196212714E+01  0.16359224295E+01  0.63823741608E+01  0.00000000000E+00 0. -1.
</event>
<event>
 7    1  0.2243370E-008  0.4614232E+02  0.7816164E-02  0.1320468E+00
        -11   -1    0    0    0    0  0.00000000000E+00  0.00000000000E+00  0.45593999997E+02  0.45594000000E+02  0.51100000000E-03 0. -1.
         11   -1    0    0    0    0 -0.00000000000E+00 -0.00000000000E+00 -0.45593999997E+02  0.45594000000E+02  0.51100000000E-03 0.  1.
    9900012    2    1    2    0    0 -0.30262125484E+02  0.31613942781E+01 -0.33216302415E+02  0.46142318756E+02  0.10000009074E+02 0.  0.
         12    1    1    2    0    0  0.30262125484E+02 -0.31613942781E+01  0.33216302415E+02  0.45045681244E+02  0.00000000000E+00 0. -1.
         11    1    3    3    0    0 -0.10886198752E+02 -0.10771756477E+01 -0.13461487237E+02  0.17345929480E+02  0.51100000000E-03 0. -1.
        -11    1    3    3    0    0 -0.11022247694E+02  0.40074589967E+01 -0.15446159553E+02  0.19394161932E+02  0.51100000000E-03 0.  1.
        -12    1    3    3    0    0 -0.83536790384E+01  0.23111092904E+00 -0.43086556251E+01  0.94022273443E+01  0.00000000000E+00 0.  1.
</event>
<event>
 7    1  0.2243370E-008  0.4614232E+02  0.7816164E-02  0.1320468E+00
        -11   -1    0    0    0    0  0.00000000000E+00  0.00000000000E+00  0.45593999997E+02  0.45594000000E+02  0.51100000000E-03 0.  1.
         11   -1    0    0    0    0 -0.00000000000E+00 -0.00000000000E+00 -0.45593999997E+02  0.45594000000E+02  0.51100000000E-03 0. -1.
    9900012    2    1    2    0    0 -0.26304477391E+02 -0.25167924138E+02  0.26528545769E+02  0.46142315669E+02  0.99999809199E+01 0.  0.
         12    1    1    2    0    0  0.26304477391E+02  0.25167924138E+02 -0.26528545769E+02  0.45045684331E+02  0.00000000000E+00 0. -1.
         11    1    3    3    0    0 -0.20755881616E+02 -0.15911684564E+02  0.22197215789E+02  0.34303129834E+02  0.51100000000E-03 0. -1.
        -11    1    3    3    0    0 -0.55835402710E+01 -0.79831196810E+01  0.37434342615E+01  0.10436446815E+02  0.51100000000E-03 0.  1.
         12    1    3    3    0    0  0.34944496833E-01 -0.12731198935E+01  0.58789571901E+00  0.14027390197E+01  0.00000000000E+00 0. -1.
</event>
<event>
 7    1  0.2243370E-008  0.4614232E+02  0.7816164E-02  0.1320468E+00
        -11   -1    0    0    0    0  0.00000000000E+00  0.00000000000E+00  0.45593999997E+02  0.45594000000E+02  0.51100000000E-03 0.  1.
         11   -1    0    0    0    0 -0.00000000000E+00 -0.00000000000E+00 -0.45593999997E+02  0.45594000000E+02  0.51100000000E-03 0. -1.
    9900012    2    1    2    0    0  0.29854778574E+02  0.12560648658E+02  0.31305523682E+02  0.46142317505E+02  0.99999976669E+01 0.  0.
         12    1    1    2    0    0 -0.29854778574E+02 -0.12560648658E+02 -0.31305523682E+02  0.45045682495E+02  0.00000000000E+00 0. -1.
         11    1    3    3    0    0  0.21970180707E+01  0.15184970405E+01  0.53304874638E+01  0.59621152730E+01  0.51100000000E-03 0. -1.
        -11    1    3    3    0    0  0.91353763710E+01  0.41672750956E+01  0.45117946141E+01  0.11008068589E+02  0.51100000000E-03 0.  1.
        -12    1    3    3    0    0  0.18522384132E+02  0.68748765215E+01  0.21463241604E+02  0.29172133643E+02  0.00000000000E+00 0.  1.
</event>
<event>
 7    1  0.2243370E-008  0.4614232E+02  0.7816164E-02  0.1320468E+00
        -11   -1    0    0    0    0  0.00000000000E+00  0.00000000000E+00  0.45593999997E+02  0.45594000000E+02  0.51100000000E-03 0.  1.
         11   -1    0    0    0    0 -0.00000000000E+00 -0.00000000000E+00 -0.45593999997E+02  0.45594000000E+02  0.51100000000E-03 0. -1.
    9900012    2    1    2    0    0  0.17572704022E+02 -0.14482582690E+02  0.38866031894E+02  0.46142316931E+02  0.99999924275E+01 0.  0.
         12    1    1    2    0    0 -0.17572704022E+02  0.14482582690E+02 -0.38866031894E+02  0.45045683069E+02  0.00000000000E+00 0. -1.
         11    1    3    3    0    0  0.45501228693E+01 -0.37979086023E+01  0.13637040076E+02  0.14869317072E+02  0.51100000000E-03 0. -1.
        -11    1    3    3    0    0  0.48404183189E+01  0.22094609619E+00  0.67089177502E+01  0.82757503781E+01  0.51100000000E-03 0.  1.
        -12    1    3    3    0    0  0.81821628334E+01 -0.10905620183E+02  0.18520074068E+02  0.22997249481E+02  0.00000000000E+00 0.  1.
</event>
<event>
 7    1  0.2243370E-008  0.4614231E+02  0.7816164E-02  0.1320468E+00
        -11   -1    0    0    0    0  0.00000000000E+00  0.00000000000E+00  0.45593999997E+02  0.45594000000E+02  0.51100000000E-03 0.  1.
         11   -1    0    0    0    0 -0.00000000000E+00 -0.00000000000E+00 -0.45593999997E+02  0.45594000000E+02  0.51100000000E-03 0. -1.
    9900012    2    1    2    0    0 -0.42314191463E+02  0.53363176650E+01  0.14496446787E+02  0.46142311473E+02  0.99999426641E+01 0.  0.
         12    1    1    2    0    0  0.42314191463E+02 -0.53363176650E+01 -0.14496446787E+02  0.45045688527E+02  0.00000000000E+00 0. -1.
         11    1    3    3    0    0 -0.24457126631E+01  0.91677170923E-01  0.21975694785E+01  0.32892593403E+01  0.51100000000E-03 0. -1.
        -11    1    3    3    0    0 -0.16028844583E+02  0.18722219128E+01  0.92038730467E+01  0.18577953410E+02  0.51100000000E-03 0.  1.
         12    1    3    3    0    0 -0.23839634216E+02  0.33724185813E+01  0.30950042621E+01  0.24275098723E+02  0.00000000000E+00 0. -1.
</event>
<event>
 7    1  0.2243370E-008  0.4614232E+02  0.7816164E-02  0.1320468E+00
        -11   -1    0    0    0    0  0.00000000000E+00  0.00000000000E+00  0.45593999997E+02  0.45594000000E+02  0.51100000000E-03 0.  1.
         11   -1    0    0    0    0 -0.00000000000E+00 -0.00000000000E+00 -0.45593999997E+02  0.45594000000E+02  0.51100000000E-03 0. -1.
    9900012    2    1    2    0    0  0.13106122752E+02  0.10136337935E+01  0.43084981407E+02  0.46142317300E+02  0.99999957949E+01 0.  0.
         12    1    1    2    0    0 -0.13106122752E+02 -0.10136337935E+01 -0.43084981407E+02  0.45045682700E+02  0.00000000000E+00 0. -1.
         11    1    3    3    0    0  0.52922315630E+01 -0.32021008872E+01  0.12069305434E+02  0.13562053640E+02  0.51100000000E-03 0. -1.
        -11    1    3    3    0    0  0.10010205069E+01 -0.11572311722E+00  0.74949475552E+00  0.12558568966E+01  0.51100000000E-03 0.  1.
        -12    1    3    3    0    0  0.68128706818E+01  0.43314577979E+01  0.30266181218E+02  0.31324406764E+02  0.00000000000E+00 0.  1.
</event>
<event>
 7    1  0.2243370E-008  0.4614232E+02  0.7816164E-02  0.1320468E+00
        -11   -1    0    0    0    0  0.00000000000E+00  0.00000000000E+00  0.45593999997E+02  0.45594000000E+02  0.51100000000E-03 0.  1.
         11   -1    0    0    0    0 -0.00000000000E+00 -0.00000000000E+00 -0.45593999997E+02  0.45594000000E+02  0.51100000000E-03 0. -1.
    9900012    2    1    2    0    0  0.93552332102E+01  0.41175151713E+02  0.15690758768E+02  0.46142318546E+02  0.10000007156E+02 0.  0.
         12    1    1    2    0    0 -0.93552332102E+01 -0.41175151713E+02 -0.15690758768E+02  0.45045681454E+02  0.00000000000E+00 0. -1.
         11    1    3    3    0    0  0.98859312677E-01  0.69024373889E+01  0.44107728541E+01  0.81919675599E+01  0.51100000000E-03 0. -1.
        -11    1    3    3    0    0  0.49927342117E+01  0.26738011874E+02  0.10843682162E+02  0.29281975975E+02  0.51100000000E-03 0.  1.
         12    1    3    3    0    0  0.42636396858E+01  0.75347024496E+01  0.43630375172E+00  0.86683750114E+01  0.00000000000E+00 0. -1.
</event>
<event>
 7    1  0.2243370E-008  0.4614232E+02  0.7816164E-02  0.1320468E+00
        -11   -1    0    0    0    0  0.00000000000E+00  0.00000000000E+00  0.45593999997E+02  0.45594000000E+02  0.51100000000E-03 0.  1.
         11   -1    0    0    0    0 -0.00000000000E+00 -0.00000000000E+00 -0.45593999997E+02  0.45594000000E+02  0.51100000000E-03 0. -1.
    9900012    2    1    2    0    0 -0.26512419213E+02  0.24472901651E+02  0.26968171182E+02  0.46142317136E+02  0.99999943019E+01 0.  0.
         12    1    1    2    0    0  0.26512419213E+02 -0.24472901651E+02 -0.26968171182E+02  0.45045682864E+02  0.00000000000E+00 0. -1.
         11    1    3    3    0    0 -0.22700513844E+01  0.29995269008E+01  0.17761036024E+01  0.41599085547E+01  0.51100000000E-03 0. -1.
        -11    1    3    3    0    0 -0.21783623246E+02  0.14508776491E+02  0.18965944612E+02  0.32322405422E+02  0.51100000000E-03 0.  1.
         12    1    3    3    0    0 -0.24587445835E+01  0.69645982590E+01  0.62261229671E+01  0.96600031594E+01  0.00000000000E+00 0. -1.
</event>
<event>
 7    1  0.2243370E-008  0.4614232E+02  0.7816164E-02  0.1320468E+00
        -11   -1    0    0    0    0  0.00000000000E+00  0.00000000000E+00  0.45593999997E+02  0.45594000000E+02  0.51100000000E-03 0.  1.
         11   -1    0    0    0    0 -0.00000000000E+00 -0.00000000000E+00 -0.45593999997E+02  0.45594000000E+02  0.51100000000E-03 0. -1.
    9900012    2    1    2    0    0 -0.29122637991E+02 -0.27290501374E+02  0.20885738842E+02  0.46142316569E+02  0.99999891264E+01 0.  0.
         12    1    1    2    0    0  0.29122637991E+02  0.27290501374E+02 -0.20885738842E+02  0.45045683431E+02  0.00000000000E+00 0. -1.
         11    1    3    3    0    0 -0.14552603992E+02 -0.12332367832E+02  0.47435313286E+01  0.19656211970E+02  0.51100000000E-03 0. -1.
        -11    1    3    3    0    0 -0.21993685810E+01 -0.23099592109E+01  0.35376376720E+01  0.47631937049E+01  0.51100000000E-03 0.  1.
        -12    1    3    3    0    0 -0.12370665419E+02 -0.12648174331E+02  0.12604569842E+02  0.21722910894E+02  0.00000000000E+00 0.  1.
</event>
<event>
 7    1  0.2243370E-008  0.4614232E+02  0.7816164E-02  0.1320468E+00
        -11   -1    0    0    0    0  0.00000000000E+00  0.00000000000E+00  0.45593999997E+02  0.45594000000E+02  0.51100000000E-03 0.  1.
         11   -1    0    0    0    0 -0.00000000000E+00 -0.00000000000E+00 -0.45593999997E+02  0.45594000000E+02  0.51100000000E-03 0. -1.
    9900012    2    1    2    0    0  0.83203275858E+01 -0.35808394125E+02  0.26031604110E+02  0.46142319258E+02  0.10000013650E+02 0.  0.
         12    1    1    2    0    0 -0.83203275858E+01  0.35808394125E+02 -0.26031604110E+02  0.45045680742E+02  0.00000000000E+00 0. -1.
         11    1    3    3    0    0  0.92537362090E+00 -0.13262312872E+01 -0.10235696097E+00  0.16203959313E+01  0.51100000000E-03 0. -1.
        -11    1    3    3    0    0  0.15076766845E+01 -0.15123550403E+02  0.72274381653E+01  0.16829460136E+02  0.51100000000E-03 0.  1.
        -12    1    3    3    0    0  0.58872772804E+01 -0.19358612435E+02  0.18906522906E+02  0.27692463191E+02  0.00000000000E+00 0.  1.
</event>
<event>
 7    1  0.2243370E-008  0.4614232E+02  0.7816164E-02  0.1320468E+00
        -11   -1    0    0    0    0  0.00000000000E+00  0.00000000000E+00  0.45593999997E+02  0.45594000000E+02  0.51100000000E-03 0. -1.
         11   -1    0    0    0    0 -0.00000000000E+00 -0.00000000000E+00 -0.45593999997E+02  0.45594000000E+02  0.51100000000E-03 0.  1.
    9900012    2    1    2    0    0 -0.17112633297E+02  0.29697724171E+02 -0.29228693225E+02  0.46142317111E+02  0.99999940716E+01 0.  0.
         12    1    1    2    0    0  0.17112633297E+02 -0.29697724171E+02  0.29228693225E+02  0.45045682889E+02  0.00000000000E+00 0. -1.
         11    1    3    3    0    0 -0.14451470340E+02  0.23700467051E+02 -0.25788841943E+02  0.37889596229E+02  0.51100000000E-03 0. -1.
        -11    1    3    3    0    0 -0.28758175348E+01  0.46381277025E+01 -0.40008436132E+01  0.67667795114E+01  0.51100000000E-03 0.  1.
         12    1    3    3    0    0  0.21465457735E+00  0.13591294173E+01  0.56099233073E+00  0.14859413702E+01  0.00000000000E+00 0. -1.
</event>
<event>
 7    1  0.2243370E-008  0.4614232E+02  0.7816164E-02  0.1320468E+00
        -11   -1    0    0    0    0  0.00000000000E+00  0.00000000000E+00  0.45593999997E+02  0.45594000000E+02  0.51100000000E-03 0.  1.
         11   -1    0    0    0    0 -0.00000000000E+00 -0.00000000000E+00 -0.45593999997E+02  0.45594000000E+02  0.51100000000E-03 0. -1.
    9900012    2    1    2    0    0 -0.37852985577E+02 -0.14802781654E+02  0.19420162427E+02  0.46142316850E+02  0.99999916914E+01 0.  0.
         12    1    1    2    0    0  0.37852985577E+02  0.14802781654E+02 -0.19420162427E+02  0.45045683150E+02  0.00000000000E+00 0. -1.
         11    1    3    3    0    0 -0.38268940432E-01 -0.42827073920E+00 -0.64509247633E+00  0.77525795836E+00  0.51100000000E-03 0. -1.
        -11    1    3    3    0    0 -0.31263979941E+02 -0.10178354675E+02  0.16901979788E+02  0.36969071758E+02  0.51100000000E-03 0.  1.
         12    1    3    3    0    0 -0.65507366954E+01 -0.41961562398E+01  0.31632751152E+01  0.83979871336E+01  0.00000000000E+00 0. -1.
</event>
<event>
 7    1  0.2243370E-008  0.4614232E+02  0.7816164E-02  0.1320468E+00
        -11   -1    0    0    0    0  0.00000000000E+00  0.00000000000E+00  0.45593999997E+02  0.45594000000E+02  0.51100000000E-03 0.  1.
         11   -1    0    0    0    0 -0.00000000000E+00 -0.00000000000E+00 -0.45593999997E+02  0.45594000000E+02  0.51100000000E-03 0. -1.
    9900012    2    1    2    0    0 -0.17737434703E+02 -0.38030994932E+01  0.41231462112E+02  0.46142316261E+02  0.99999863236E+01 0.  0.
         12    1    1    2    0    0  0.17737434703E+02  0.38030994932E+01 -0.41231462112E+02  0.45045683739E+02  0.00000000000E+00 0. -1.
         11    1    3    3    0    0 -0.74748015997E+01  0.10055052864E+01  0.23091737697E+02  0.24292222005E+02  0.51100000000E-03 0.  1.
        -11    1    3    3    0    0 -0.25376483728E+01 -0.26635419830E+01  0.31165393897E+01  0.48215073564E+01  0.51100000000E-03 0. -1.
        -12    1    3    3    0    0 -0.77249847308E+01 -0.21450627966E+01  0.15023185025E+02  0.17028586900E+02  0.00000000000E+00 0.  1.
</event>
<event>
 7    1  0.2243370E-008  0.4614232E+02  0.7816164E-02  0.1320468E+00
        -11   -1    0    0    0    0  0.00000000000E+00  0.00000000000E+00  0.45593999997E+02  0.45594000000E+02  0.51100000000E-03 0.  1.
         11   -1    0    0    0    0 -0.00000000000E+00 -0.00000000000E+00 -0.45593999997E+02  0.45594000000E+02  0.51100000000E-03 0. -1.
    9900012    2    1    2    0    0 -0.92913142233E+00  0.37791037065E+02  0.24496684404E+02  0.46142319691E+02  0.10000017602E+02 0.  0.
         12    1    1    2    0    0  0.92913142233E+00 -0.37791037065E+02 -0.24496684404E+02  0.45045680309E+02  0.00000000000E+00 0. -1.
         11    1    3    3    0    0 -0.18030119054E+01  0.25856711664E+01  0.14588106292E+01  0.34734242506E+01  0.51100000000E-03 0. -1.
        -11    1    3    3    0    0 -0.28113203828E+01  0.12274910495E+02  0.66167526106E+01  0.14225272065E+02  0.51100000000E-03 0.  1.
         12    1    3    3    0    0  0.36852008659E+01  0.22930455404E+02  0.16421121164E+02  0.28443623376E+02  0.00000000000E+00 0. -1.
</event>
<event>
 7    1  0.2243370E-008  0.4614232E+02  0.7816164E-02  0.1320468E+00
        -11   -1    0    0    0    0  0.00000000000E+00  0.00000000000E+00  0.45593999997E+02  0.45594000000E+02  0.51100000000E-03 0.  1.
         11   -1    0    0    0    0 -0.00000000000E+00 -0.00000000000E+00 -0.45593999997E+02  0.45594000000E+02  0.51100000000E-03 0. -1.
    9900012    2    1    2    0    0  0.24802123153E+02  0.10563468982E+02  0.36088520252E+02  0.46142317811E+02  0.10000000456E+02 0.  0.
         12    1    1    2    0    0 -0.24802123153E+02 -0.10563468982E+02 -0.36088520252E+02  0.45045682189E+02  0.00000000000E+00 0. -1.
         11    1    3    3    0    0  0.16861523764E+02  0.47204337403E+01  0.21971968360E+02  0.28095566772E+02  0.51100000000E-03 0.  1.
        -11    1    3    3    0    0  0.32511155889E+01 -0.22330759626E+00  0.24119516491E+01  0.40542730388E+01  0.51100000000E-03 0. -1.
        -12    1    3    3    0    0  0.46894838008E+01  0.60663428382E+01  0.11704600243E+02  0.13992478001E+02  0.00000000000E+00 0.  1.
</event>
<event>
 7    1  0.2243370E-008  0.4614232E+02  0.7816164E-02  0.1320468E+00
        -11   -1    0    0    0    0  0.00000000000E+00  0.00000000000E+00  0.45593999997E+02  0.45594000000E+02  0.51100000000E-03 0.  1.
         11   -1    0    0    0    0 -0.00000000000E+00 -0.00000000000E+00 -0.45593999997E+02  0.45594000000E+02  0.51100000000E-03 0. -1.
    9900012    2    1    2    0    0  0.18150927326E+02  0.27762671297E+01  0.41133315934E+02  0.46142317614E+02  0.99999986553E+01 0.  0.
         12    1    1    2    0    0 -0.18150927326E+02 -0.27762671297E+01 -0.41133315934E+02  0.45045682386E+02  0.00000000000E+00 0. -1.
         11    1    3    3    0    0  0.29879340733E+01 -0.13148738291E+01  0.84247454983E+01  0.90350971320E+01  0.51100000000E-03 0. -1.
        -11    1    3    3    0    0  0.81088865446E+01  0.20464407418E+01  0.25418516657E+02  0.26758978867E+02  0.51100000000E-03 0.  1.
         12    1    3    3    0    0  0.70541067080E+01  0.20447002169E+01  0.72900537783E+01  0.10348241615E+02  0.00000000000E+00 0. -1.
</event>
<event>
 7    1  0.2243370E-008  0.4614232E+02  0.7816164E-02  0.1320468E+00
        -11   -1    0    0    0    0  0.00000000000E+00  0.00000000000E+00  0.45593999997E+02  0.45594000000E+02  0.51100000000E-03 0.  1.
         11   -1    0    0    0    0 -0.00000000000E+00 -0.00000000000E+00 -0.45593999997E+02  0.45594000000E+02  0.51100000000E-03 0. -1.
    9900012    2    1    2    0    0 -0.39708557210E+02  0.21209726582E+02 -0.15784373892E+01  0.46142317832E+02  0.10000000646E+02 0.  0.
         12    1    1    2    0    0  0.39708557210E+02 -0.21209726582E+02  0.15784373892E+01  0.45045682168E+02  0.00000000000E+00 0. -1.
         11    1    3    3    0    0 -0.66236186694E+01  0.67205084568E+01 -0.95109253767E+00  0.94837827617E+01  0.51100000000E-03 0. -1.
        -11    1    3    3    0    0 -0.32367866799E+02  0.14485495241E+02  0.32939493510E+00  0.35462894338E+02  0.51100000000E-03 0.  1.
         12    1    3    3    0    0 -0.71707174133E+00  0.37228840970E-02 -0.95673978659E+00  0.11956407325E+01  0.00000000000E+00 0. -1.
</event>
<event>
 7    1  0.2243370E-008  0.4614232E+02  0.7816164E-02  0.1320468E+00
        -11   -1    0    0    0    0  0.00000000000E+00  0.00000000000E+00  0.45593999997E+02  0.45594000000E+02  0.51100000000E-03 0.  1.
         11   -1    0    0    0    0 -0.00000000000E+00 -0.00000000000E+00 -0.45593999997E+02  0.45594000000E+02  0.51100000000E-03 0. -1.
    9900012    2    1    2    0    0 -0.29434367228E+01  0.26540859559E+02  0.36277161852E+02  0.46142317434E+02  0.99999970135E+01 0.  0.
         12    1    1    2    0    0  0.29434367228E+01 -0.26540859559E+02 -0.36277161852E+02  0.45045682566E+02  0.00000000000E+00 0. -1.
         11    1    3    3    0    0 -0.27451239981E+00  0.49877314988E+01  0.45740856698E+01  0.67731146851E+01  0.51100000000E-03 0. -1.
        -11    1    3    3    0    0 -0.56834072278E+01  0.16328916223E+02  0.22763514010E+02  0.28585174358E+02  0.51100000000E-03 0.  1.
         12    1    3    3    0    0  0.30144829049E+01  0.52242118373E+01  0.89395621722E+01  0.10784028391E+02  0.00000000000E+00 0. -1.
</event>
<event>
 7    1  0.2243370E-008  0.4614232E+02  0.7816164E-02  0.1320468E+00
        -11   -1    0    0    0    0  0.00000000000E+00  0.00000000000E+00  0.45593999997E+02  0.45594000000E+02  0.51100000000E-03 0.  1.
         11   -1    0    0    0    0 -0.00000000000E+00 -0.00000000000E+00 -0.45593999997E+02  0.45594000000E+02  0.51100000000E-03 0. -1.
    9900012    2    1    2    0    0  0.25409054267E+02  0.33120608273E+02  0.16926859828E+02  0.46142319688E+02  0.10000017574E+02 0.  0.
         12    1    1    2    0    0 -0.25409054267E+02 -0.33120608273E+02 -0.16926859828E+02  0.45045680312E+02  0.00000000000E+00 0. -1.
         11    1    3    3    0    0  0.90499018962E+01  0.13328485508E+02  0.29054506061E+01  0.16370427415E+02  0.51100000000E-03 0. -1.
        -11    1    3    3    0    0  0.15436079091E+01  0.45721815098E+01  0.12397535836E+01  0.49824249462E+01  0.51100000000E-03 0.  1.
        -12    1    3    3    0    0  0.14815544462E+02  0.15219941255E+02  0.12781655638E+02  0.24789467327E+02  0.00000000000E+00 0.  1.
</event>
<event>
 7    1  0.2243370E-008  0.4614232E+02  0.7816164E-02  0.1320468E+00
        -11   -1    0    0    0    0  0.00000000000E+00  0.00000000000E+00  0.45593999997E+02  0.45594000000E+02  0.51100000000E-03 0.  1.
         11   -1    0    0    0    0 -0.00000000000E+00 -0.00000000000E+00 -0.45593999997E+02  0.45594000000E+02  0.51100000000E-03 0. -1.
    9900012    2    1    2    0    0 -0.32161435295E+02  0.30229889155E+02  0.89949639769E+01  0.46142317682E+02  0.99999992788E+01 0.  0.
         12    1    1    2    0    0  0.32161435295E+02 -0.30229889155E+02 -0.89949639769E+01  0.45045682318E+02  0.00000000000E+00 0. -1.
         11    1    3    3    0    0 -0.22773400921E+02  0.15788244640E+02  0.74311675431E+01  0.28690045479E+02  0.51100000000E-03 0. -1.
        -11    1    3    3    0    0 -0.18202663099E+01  0.13716432368E+01  0.19710469600E+00  0.22877117673E+01  0.51100000000E-03 0.  1.
        -12    1    3    3    0    0 -0.75677680648E+01  0.13070001278E+02  0.13666917379E+01  0.15164560435E+02  0.00000000000E+00 0.  1.
</event>
<event>
 7    1  0.2243370E-008  0.4614232E+02  0.7816164E-02  0.1320468E+00
        -11   -1    0    0    0    0  0.00000000000E+00  0.00000000000E+00  0.45593999997E+02  0.45594000000E+02  0.51100000000E-03 0. -1.
         11   -1    0    0    0    0 -0.00000000000E+00 -0.00000000000E+00 -0.45593999997E+02  0.45594000000E+02  0.51100000000E-03 0.  1.
    9900012    2    1    2    0    0 -0.44630554524E+02  0.37738424739E+01  0.47942778593E+01  0.46142318916E+02  0.10000010529E+02 0.  0.
         12    1    1    2    0    0  0.44630554524E+02 -0.37738424739E+01 -0.47942778593E+01  0.45045681084E+02  0.00000000000E+00 0. -1.
         11    1    3    3    0    0 -0.74528443333E+01 -0.95991597496E+00  0.18305219777E+00  0.75166372603E+01  0.51100000000E-03 0. -1.
        -11    1    3    3    0    0 -0.21663948711E+02  0.58291908749E+00  0.60541260888E+01  0.22501531312E+02  0.51100000000E-03 0.  1.
         12    1    3    3    0    0 -0.15513761480E+02  0.41508393613E+01 -0.14429004273E+01  0.16124150343E+02  0.00000000000E+00 0. -1.
</event>
<event>
 7    1  0.2243370E-008  0.4614232E+02  0.7816164E-02  0.1320468E+00
        -11   -1    0    0    0    0  0.00000000000E+00  0.00000000000E+00  0.45593999997E+02  0.45594000000E+02  0.51100000000E-03 0.  1.
         11   -1    0    0    0    0 -0.00000000000E+00 -0.00000000000E+00 -0.45593999997E+02  0.45594000000E+02  0.51100000000E-03 0. -1.
    9900012    2    1    2    0    0 -0.17764278220E+01  0.18055431363E+02  0.41230561375E+02  0.46142317756E+02  0.99999999569E+01 0.  0.
         12    1    1    2    0    0  0.17764278220E+01 -0.18055431363E+02 -0.41230561375E+02  0.45045682244E+02  0.00000000000E+00 0. -1.
         11    1    3    3    0    0 -0.98259782792E+00  0.46978609521E+01  0.15439968938E+02  0.16168736410E+02  0.51100000000E-03 0. -1.
        -11    1    3    3    0    0  0.72690465992E+00  0.74945909570E+01  0.71883305821E+01  0.10410061518E+02  0.51100000000E-03 0.  1.
        -12    1    3    3    0    0 -0.15207346540E+01  0.58629794540E+01  0.18602261854E+02  0.19563519828E+02  0.00000000000E+00 0.  1.
</event>
<event>
 7    1  0.2243370E-008  0.4614232E+02  0.7816164E-02  0.1320468E+00
        -11   -1    0    0    0    0  0.00000000000E+00  0.00000000000E+00  0.45593999997E+02  0.45594000000E+02  0.51100000000E-03 0.  1.
         11   -1    0    0    0    0 -0.00000000000E+00 -0.00000000000E+00 -0.45593999997E+02  0.45594000000E+02  0.51100000000E-03 0. -1.
    9900012    2    1    2    0    0  0.27200092399E+02  0.34302663174E+02  0.10611114318E+02  0.46142317916E+02  0.10000001409E+02 0.  0.
         12    1    1    2    0    0 -0.27200092399E+02 -0.34302663174E+02 -0.10611114318E+02  0.45045682084E+02  0.00000000000E+00 0. -1.
         11    1    3    3    0    0  0.10576206128E+02  0.75134120363E+01  0.22829685536E+01  0.13172677866E+02  0.51100000000E-03 0. -1.
        -11    1    3    3    0    0  0.71779789111E+00  0.17125392594E+01  0.17549533044E+01  0.25549727766E+01  0.51100000000E-03 0.  1.
        -12    1    3    3    0    0  0.15906088380E+02  0.25076711879E+02  0.65731924601E+01  0.30414667273E+02  0.00000000000E+00 0.  1.
</event>
<event>
 7    1  0.2243370E-008  0.4614232E+02  0.7816164E-02  0.1320468E+00
        -11   -1    0    0    0    0  0.00000000000E+00  0.00000000000E+00  0.45593999997E+02  0.45594000000E+02  0.51100000000E-03 0.  1.
         11   -1    0    0    0    0 -0.00000000000E+00 -0.00000000000E+00 -0.45593999997E+02  0.45594000000E+02  0.51100000000E-03 0. -1.
    9900012    2    1    2    0    0 -0.24532837026E+02 -0.37666967122E+02 -0.29073783386E+01  0.46142319258E+02  0.10000013647E+02 0.  0.
         12    1    1    2    0    0  0.24532837026E+02  0.37666967122E+02  0.29073783386E+01  0.45045680742E+02  0.00000000000E+00 0. -1.
         11    1    3    3    0    0 -0.26260757253E+01 -0.17830826111E+01  0.21445020929E+00  0.31814535147E+01  0.51100000000E-03 0. -1.
        -11    1    3    3    0    0 -0.10080573706E+01 -0.35672702737E+01  0.18721352117E+01  0.41528890402E+01  0.51100000000E-03 0.  1.
        -12    1    3    3    0    0 -0.20898703930E+02 -0.32316614238E+02 -0.49939637596E+01  0.38807976703E+02  0.00000000000E+00 0.  1.
</event>
<event>
 7    1  0.2243370E-008  0.4614232E+02  0.7816164E-02  0.1320468E+00
        -11   -1    0    0    0    0  0.00000000000E+00  0.00000000000E+00  0.45593999997E+02  0.45594000000E+02  0.51100000000E-03 0. -1.
         11   -1    0    0    0    0 -0.00000000000E+00 -0.00000000000E+00 -0.45593999997E+02  0.45594000000E+02  0.51100000000E-03 0.  1.
    9900012    2    1    2    0    0 -0.37627790377E+02 -0.72776003228E+01 -0.23670647452E+02  0.46142316234E+02  0.99999860787E+01 0.  0.
         12    1    1    2    0    0  0.37627790377E+02  0.72776003228E+01  0.23670647452E+02  0.45045683766E+02  0.00000000000E+00 0. -1.
         11    1    3    3    0    0 -0.13424732020E+02 -0.48074194945E+01 -0.59893551969E+01  0.15466321086E+02  0.51100000000E-03 0. -1.
        -11    1    3    3    0    0 -0.47814866239E+01  0.19236288392E+01 -0.35064435934E+01  0.62336272892E+01  0.51100000000E-03 0.  1.
        -12    1    3    3    0    0 -0.19421571733E+02 -0.43938096675E+01 -0.14174848662E+02  0.24442367859E+02  0.00000000000E+00 0.  1.
</event>
<event>
 7    1  0.2243370E-008  0.4614232E+02  0.7816164E-02  0.1320468E+00
        -11   -1    0    0    0    0  0.00000000000E+00  0.00000000000E+00  0.45593999997E+02  0.45594000000E+02  0.51100000000E-03 0. -1.
         11   -1    0    0    0    0 -0.00000000000E+00 -0.00000000000E+00 -0.45593999997E+02  0.45594000000E+02  0.51100000000E-03 0.  1.
    9900012    2    1    2    0    0  0.35736549761E+02 -0.21665648315E+02 -0.16811072158E+02  0.46142318156E+02  0.10000003598E+02 0.  0.
         12    1    1    2    0    0 -0.35736549761E+02  0.21665648315E+02  0.16811072158E+02  0.45045681844E+02  0.00000000000E+00 0. -1.
         11    1    3    3    0    0  0.63997683100E+01 -0.25359175575E+01 -0.27723807259E+01  0.74211863897E+01  0.51100000000E-03 0. -1.
        -11    1    3    3    0    0  0.25803016924E+02 -0.14000404571E+02 -0.89870445312E+01  0.30701367725E+02  0.51100000000E-03 0.  1.
         12    1    3    3    0    0  0.35337645269E+01 -0.51293261864E+01 -0.50516469010E+01  0.80197640408E+01  0.00000000000E+00 0. -1.
</event>
<event>
 7    1  0.2243370E-008  0.4614232E+02  0.7816164E-02  0.1320468E+00
        -11   -1    0    0    0    0  0.00000000000E+00  0.00000000000E+00  0.45593999997E+02  0.45594000000E+02  0.51100000000E-03 0.  1.
         11   -1    0    0    0    0 -0.00000000000E+00 -0.00000000000E+00 -0.45593999997E+02  0.45594000000E+02  0.51100000000E-03 0. -1.
    9900012    2    1    2    0    0  0.24900122564E+02  0.28702017903E+02  0.24192804257E+02  0.46142315266E+02  0.99999772433E+01 0.  0.
         12    1    1    2    0    0 -0.24900122564E+02 -0.28702017903E+02 -0.24192804257E+02  0.45045684734E+02  0.00000000000E+00 0. -1.
         11    1    3    3    0    0  0.41398655263E+01  0.45312727171E+01  0.97683957177E+00  0.62149122941E+01  0.51100000000E-03 0. -1.
        -11    1    3    3    0    0  0.11607640165E+02  0.16470846931E+02  0.17421097179E+02  0.26636830442E+02  0.51100000000E-03 0.  1.
        -12    1    3    3    0    0  0.91526168721E+01  0.76998982541E+01  0.57948675067E+01  0.13290572529E+02  0.00000000000E+00 0.  1.
</event>
<event>
 7    1  0.2243370E-008  0.4614231E+02  0.7816164E-02  0.1320468E+00
        -11   -1    0    0    0    0  0.00000000000E+00  0.00000000000E+00  0.45593999997E+02  0.45594000000E+02  0.51100000000E-03 0.  1.
         11   -1    0    0    0    0 -0.00000000000E+00 -0.00000000000E+00 -0.45593999997E+02  0.45594000000E+02  0.51100000000E-03 0. -1.
    9900012    2    1    2    0    0  0.14016429331E+02 -0.41268216459E+02  0.11383672451E+02  0.46142312311E+02  0.99999503010E+01 0.  0.
         12    1    1    2    0    0 -0.14016429331E+02  0.41268216459E+02 -0.11383672451E+02  0.45045687689E+02  0.00000000000E+00 0. -1.
         11    1    3    3    0    0  0.96948133119E+01 -0.26434917971E+02  0.92991475779E+01  0.29652460931E+02  0.51100000000E-03 0. -1.
        -11    1    3    3    0    0  0.34623542228E+01 -0.68833915887E+01 -0.12870826644E+01  0.78118857246E+01  0.51100000000E-03 0.  1.
         12    1    3    3    0    0  0.85926179674E+00 -0.79499068989E+01  0.33716075373E+01  0.86779656558E+01  0.00000000000E+00 0. -1.
</event>
<event>
 7    1  0.2243370E-008  0.4614232E+02  0.7816164E-02  0.1320468E+00
        -11   -1    0    0    0    0  0.00000000000E+00  0.00000000000E+00  0.45593999997E+02  0.45594000000E+02  0.51100000000E-03 0.  1.
         11   -1    0    0    0    0 -0.00000000000E+00 -0.00000000000E+00 -0.45593999997E+02  0.45594000000E+02  0.51100000000E-03 0. -1.
    9900012    2    1    2    0    0 -0.32666589166E+02 -0.10346529294E+02  0.29239646709E+02  0.46142315902E+02  0.99999830477E+01 0.  0.
         12    1    1    2    0    0  0.32666589166E+02  0.10346529294E+02 -0.29239646709E+02  0.45045684098E+02  0.00000000000E+00 0. -1.
         11    1    3    3    0    0 -0.10712536261E+02 -0.34640392386E+01  0.55652048432E+01  0.12559040815E+02  0.51100000000E-03 0.  1.
        -11    1    3    3    0    0 -0.37276414352E+01  0.50349603547E+00  0.18057182939E+01  0.41724618326E+01  0.51100000000E-03 0. -1.
        -12    1    3    3    0    0 -0.18226411470E+02 -0.73859860914E+01  0.21868723572E+02  0.29410813254E+02  0.00000000000E+00 0.  1.
</event>
<event>
 7    1  0.2243370E-008  0.4614232E+02  0.7816164E-02  0.1320468E+00
        -11   -1    0    0    0    0  0.00000000000E+00  0.00000000000E+00  0.45593999997E+02  0.45594000000E+02  0.51100000000E-03 0.  1.
         11   -1    0    0    0    0 -0.00000000000E+00 -0.00000000000E+00 -0.45593999997E+02  0.45594000000E+02  0.51100000000E-03 0. -1.
    9900012    2    1    2    0    0 -0.38436816730E+02  0.65247144607E+01  0.22564412395E+02  0.46142317789E+02  0.10000000254E+02 0.  0.
         12    1    1    2    0    0  0.38436816730E+02 -0.65247144607E+01 -0.22564412395E+02  0.45045682211E+02  0.00000000000E+00 0. -1.
         11    1    3    3    0    0 -0.20447994921E+02  0.44135610679E+01  0.14196069903E+02  0.25280989272E+02  0.51100000000E-03 0. -1.
        -11    1    3    3    0    0 -0.53777855930E+01 -0.53025116822E+00 -0.16623100935E+00  0.54064199980E+01  0.51100000000E-03 0.  1.
        -12    1    3    3    0    0 -0.12611036216E+02  0.26414045611E+01  0.85345735016E+01  0.15454908519E+02  0.00000000000E+00 0.  1.
</event>
<event>
 7    1  0.2243370E-008  0.4614232E+02  0.7816164E-02  0.1320468E+00
        -11   -1    0    0    0    0  0.00000000000E+00  0.00000000000E+00  0.45593999997E+02  0.45594000000E+02  0.51100000000E-03 0.  1.
         11   -1    0    0    0    0 -0.00000000000E+00 -0.00000000000E+00 -0.45593999997E+02  0.45594000000E+02  0.51100000000E-03 0. -1.
    9900012    2    1    2    0    0  0.99809807470E+01  0.26651963400E+02  0.34916561566E+02  0.46142318728E+02  0.10000008813E+02 0.  0.
         12    1    1    2    0    0 -0.99809807470E+01 -0.26651963400E+02 -0.34916561566E+02  0.45045681272E+02  0.00000000000E+00 0. -1.
         11    1    3    3    0    0  0.46059215958E+01  0.12131609694E+02  0.21530663416E+02  0.25138813315E+02  0.51100000000E-03 0. -1.
        -11    1    3    3    0    0  0.20682839541E+01  0.72838913492E+01  0.95019879979E+01  0.12149923781E+02  0.51100000000E-03 0.  1.
         12    1    3    3    0    0  0.33067751971E+01  0.72364623566E+01  0.38839101521E+01  0.88535816318E+01  0.00000000000E+00 0. -1.
</event>
<event>
 7    1  0.2243370E-008  0.4614232E+02  0.7816164E-02  0.1320468E+00
        -11   -1    0    0    0    0  0.00000000000E+00  0.00000000000E+00  0.45593999997E+02  0.45594000000E+02  0.51100000000E-03 0. -1.
         11   -1    0    0    0    0 -0.00000000000E+00 -0.00000000000E+00 -0.45593999997E+02  0.45594000000E+02  0.51100000000E-03 0.  1.
    9900012    2    1    2    0    0 -0.28559787433E+02  0.34423153629E+02 -0.53384110602E+01  0.46142316559E+02  0.99999890426E+01 0.  0.
         12    1    1    2    0    0  0.28559787433E+02 -0.34423153629E+02  0.53384110602E+01  0.45045683441E+02  0.00000000000E+00 0. -1.
         11    1    3    3    0    0 -0.80972126930E+01  0.69281791105E+01 -0.39224316617E+01  0.11355614892E+02  0.51100000000E-03 0. -1.
        -11    1    3    3    0    0 -0.24528999576E+01  0.84761310456E+00 -0.84747635538E-01  0.25966032812E+01  0.51100000000E-03 0.  1.
        -12    1    3    3    0    0 -0.18009674783E+02  0.26647361414E+02 -0.13312317630E+01  0.32190098386E+02  0.00000000000E+00 0.  1.
</event>
<event>
 7    1  0.2243370E-008  0.4614232E+02  0.7816164E-02  0.1320468E+00
        -11   -1    0    0    0    0  0.00000000000E+00  0.00000000000E+00  0.45593999997E+02  0.45594000000E+02  0.51100000000E-03 0. -1.
         11   -1    0    0    0    0 -0.00000000000E+00 -0.00000000000E+00 -0.45593999997E+02  0.45594000000E+02  0.51100000000E-03 0.  1.
    9900012    2    1    2    0    0 -0.99318002064E+01  0.19246265827E+01 -0.43894972916E+02  0.46142317742E+02  0.99999998236E+01 0.  0.
         12    1    1    2    0    0  0.99318002064E+01 -0.19246265827E+01  0.43894972916E+02  0.45045682258E+02  0.00000000000E+00 0. -1.
         11    1    3    3    0    0 -0.85491320550E+01  0.23054701529E+01 -0.43355901866E+02  0.44250842685E+02  0.51100000000E-03 0. -1.
        -11    1    3    3    0    0 -0.25930585747E+00 -0.36186675558E+00 -0.62199608348E+00  0.76489637566E+00  0.51100000000E-03 0.  1.
         12    1    3    3    0    0 -0.11233622939E+01 -0.18976814630E-01  0.82925033233E-01  0.11265786807E+01  0.00000000000E+00 0. -1.
</event>
<event>
 7    1  0.2243370E-008  0.4614232E+02  0.7816164E-02  0.1320468E+00
        -11   -1    0    0    0    0  0.00000000000E+00  0.00000000000E+00  0.45593999997E+02  0.45594000000E+02  0.51100000000E-03 0.  1.
         11   -1    0    0    0    0 -0.00000000000E+00 -0.00000000000E+00 -0.45593999997E+02  0.45594000000E+02  0.51100000000E-03 0. -1.
    9900012    2    1    2    0    0 -0.43655583824E+01  0.42995819996E+02 -0.12704907353E+02  0.46142319764E+02  0.10000018261E+02 0.  0.
         12    1    1    2    0    0  0.43655583824E+01 -0.42995819996E+02  0.12704907353E+02  0.45045680236E+02  0.00000000000E+00 0. -1.
         11    1    3    3    0    0 -0.39728513982E+01  0.12219628979E+02 -0.25521455026E+01  0.13100241508E+02  0.51100000000E-03 0. -1.
        -11    1    3    3    0    0  0.29044642914E+01  0.16806381414E+02 -0.47417075489E+01  0.17702377235E+02  0.51100000000E-03 0.  1.
        -12    1    3    3    0    0 -0.32971712757E+01  0.13969809603E+02 -0.54110543018E+01  0.15339701021E+02  0.00000000000E+00 0.  1.
</event>
<event>
 7    1  0.2243370E-008  0.4614232E+02  0.7816164E-02  0.1320468E+00
        -11   -1    0    0    0    0  0.00000000000E+00  0.00000000000E+00  0.45593999997E+02  0.45594000000E+02  0.51100000000E-03 0.  1.
         11   -1    0    0    0    0 -0.00000000000E+00 -0.00000000000E+00 -0.45593999997E+02  0.45594000000E+02  0.51100000000E-03 0. -1.
    9900012    2    1    2    0    0  0.34990209868E+02 -0.18650792404E+02  0.21376307259E+02  0.46142319230E+02  0.10000013398E+02 0.  0.
         12    1    1    2    0    0 -0.34990209868E+02  0.18650792404E+02 -0.21376307259E+02  0.45045680770E+02  0.00000000000E+00 0. -1.
         11    1    3    3    0    0  0.51788476756E+01 -0.25008738798E+01  0.19142787866E+00  0.57542574068E+01  0.51100000000E-03 0. -1.
        -11    1    3    3    0    0  0.23101478198E+02 -0.13422800709E+02  0.13908542874E+02  0.30121378437E+02  0.51100000000E-03 0.  1.
        -12    1    3    3    0    0  0.67098839951E+01 -0.27271178160E+01  0.72763365065E+01  0.10266683387E+02  0.00000000000E+00 0.  1.
</event>
<event>
 7    1  0.2243370E-008  0.4614232E+02  0.7816164E-02  0.1320468E+00
        -11   -1    0    0    0    0  0.00000000000E+00  0.00000000000E+00  0.45593999997E+02  0.45594000000E+02  0.51100000000E-03 0. -1.
         11   -1    0    0    0    0 -0.00000000000E+00 -0.00000000000E+00 -0.45593999997E+02  0.45594000000E+02  0.51100000000E-03 0.  1.
    9900012    2    1    2    0    0 -0.19133685775E+02 -0.31079597966E+02 -0.26402162744E+02  0.46142317203E+02  0.99999949141E+01 0.  0.
         12    1    1    2    0    0  0.19133685775E+02  0.31079597966E+02  0.26402162744E+02  0.45045682797E+02  0.00000000000E+00 0. -1.
         11    1    3    3    0    0 -0.12296756444E+01 -0.41202010897E+01 -0.44534223204E+01  0.61904062738E+01  0.51100000000E-03 0. -1.
        -11    1    3    3    0    0 -0.13314393894E+02 -0.16224030429E+02 -0.17931199350E+02  0.27604712614E+02  0.51100000000E-03 0.  1.
         12    1    3    3    0    0 -0.45896162372E+01 -0.10735366448E+02 -0.40175410730E+01  0.12347198315E+02  0.00000000000E+00 0. -1.
</event>
<event>
 7    1  0.2265507E-008  0.4614232E+02  0.7816164E-02  0.1320468E+00
        -11   -1    0    0    0    0  0.00000000000E+00  0.00000000000E+00  0.45593999997E+02  0.45594000000E+02  0.51100000000E-03 0.  1.
         11   -1    0    0    0    0 -0.00000000000E+00 -0.00000000000E+00 -0.45593999997E+02  0.45594000000E+02  0.51100000000E-03 0. -1.
    9900012    2    1    2    0    0 -0.40018571309E+02 -0.20210957045E+02  0.43754586263E+01  0.46142317938E+02  0.10000001611E+02 0.  0.
         12    1    1    2    0    0  0.40018571309E+02  0.20210957045E+02 -0.43754586263E+01  0.45045682062E+02  0.00000000000E+00 0. -1.
         11    1    3    3    0    0  0.52708009741E-01 -0.15195361416E+00  0.74138507993E+00  0.75863043243E+00  0.51100000000E-03 0. -1.
        -11    1    3    3    0    0 -0.63922843876E+01 -0.39442545880E+01  0.28677515910E+01  0.80400524498E+01  0.51100000000E-03 0.  1.
        -12    1    3    3    0    0 -0.33678994931E+02 -0.16114748843E+02  0.76632195538E+00  0.37343635056E+02  0.00000000000E+00 0.  1.
</event>
<event>
 7    1  0.2243370E-008  0.4614232E+02  0.7816164E-02  0.1320468E+00
        -11   -1    0    0    0    0  0.00000000000E+00  0.00000000000E+00  0.45593999997E+02  0.45594000000E+02  0.51100000000E-03 0.  1.
         11   -1    0    0    0    0 -0.00000000000E+00 -0.00000000000E+00 -0.45593999997E+02  0.45594000000E+02  0.51100000000E-03 0. -1.
    9900012    2    1    2    0    0  0.69286397503E+01 -0.12431611196E+02  0.42738302307E+02  0.46142317746E+02  0.99999998582E+01 0.  0.
         12    1    1    2    0    0 -0.69286397503E+01  0.12431611196E+02 -0.42738302307E+02  0.45045682254E+02  0.00000000000E+00 0. -1.
         11    1    3    3    0    0  0.31548151369E+01 -0.22913018054E+01  0.51942417750E+01  0.64948495279E+01  0.51100000000E-03 0. -1.
        -11    1    3    3    0    0  0.46826248446E+01 -0.31215347436E+01  0.15138736240E+02  0.16150922258E+02  0.51100000000E-03 0.  1.
         12    1    3    3    0    0 -0.90880023124E+00 -0.70187746468E+01  0.22405324292E+02  0.23496545960E+02  0.00000000000E+00 0. -1.
</event>
<event>
 7    1  0.2243370E-008  0.4614232E+02  0.7816164E-02  0.1320468E+00
        -11   -1    0    0    0    0  0.00000000000E+00  0.00000000000E+00  0.45593999997E+02  0.45594000000E+02  0.51100000000E-03 0.  1.
         11   -1    0    0    0    0 -0.00000000000E+00 -0.00000000000E+00 -0.45593999997E+02  0.45594000000E+02  0.51100000000E-03 0. -1.
    9900012    2    1    2    0    0  0.42111352620E+02 -0.15975567801E+02  0.72718022276E+00  0.46142316776E+02  0.99999910142E+01 0.  0.
         12    1    1    2    0    0 -0.42111352620E+02  0.15975567801E+02 -0.72718022276E+00  0.45045683224E+02  0.00000000000E+00 0. -1.
         11    1    3    3    0    0  0.13642964637E+02 -0.67615798885E+01  0.38523444278E+00  0.15231475717E+02  0.51100000000E-03 0. -1.
        -11    1    3    3    0    0  0.13786754546E+02 -0.74403905468E+01 -0.24631271877E+01  0.15858783314E+02  0.51100000000E-03 0.  1.
        -12    1    3    3    0    0  0.14681633437E+02 -0.17735973660E+01  0.28050729677E+01  0.15052057745E+02  0.00000000000E+00 0.  1.
</event>
<event>
 7    1  0.2243370E-008  0.4614232E+02  0.7816164E-02  0.1320468E+00
        -11   -1    0    0    0    0  0.00000000000E+00  0.00000000000E+00  0.45593999997E+02  0.45594000000E+02  0.51100000000E-03 0. -1.
         11   -1    0    0    0    0 -0.00000000000E+00 -0.00000000000E+00 -0.45593999997E+02  0.45594000000E+02  0.51100000000E-03 0.  1.
    9900012    2    1    2    0    0  0.35991536472E+02 -0.16776130486E+02 -0.21266977285E+02  0.46142316805E+02  0.99999912787E+01 0.  0.
         12    1    1    2    0    0 -0.35991536472E+02  0.16776130486E+02  0.21266977285E+02  0.45045683195E+02  0.00000000000E+00 0. -1.
         11    1    3    3    0    0  0.21249403230E+01 -0.92690196722E-01 -0.33222076966E+01  0.39447467713E+01  0.51100000000E-03 0. -1.
        -11    1    3    3    0    0  0.78163947724E+01 -0.32233073101E+01 -0.15259205957E+01  0.85915173967E+01  0.51100000000E-03 0.  1.
         12    1    3    3    0    0  0.26050201376E+02 -0.13460132979E+02 -0.16418848993E+02  0.33606052637E+02  0.00000000000E+00 0. -1.
</event>
<event>
 7    1  0.2243370E-008  0.4614232E+02  0.7816164E-02  0.1320468E+00
        -11   -1    0    0    0    0  0.00000000000E+00  0.00000000000E+00  0.45593999997E+02  0.45594000000E+02  0.51100000000E-03 0.  1.
         11   -1    0    0    0    0 -0.00000000000E+00 -0.00000000000E+00 -0.45593999997E+02  0.45594000000E+02  0.51100000000E-03 0. -1.
    9900012    2    1    2    0    0 -0.32005844450E+02  0.13729477564E+01  0.31667875477E+02  0.46142318723E+02  0.10000008767E+02 0.  0.
         12    1    1    2    0    0  0.32005844450E+02 -0.13729477564E+01 -0.31667875477E+02  0.45045681277E+02  0.00000000000E+00 0. -1.
         11    1    3    3    0    0 -0.18186587604E+02  0.21690003608E+01  0.16203903492E+02  0.24454509193E+02  0.51100000000E-03 0. -1.
        -11    1    3    3    0    0 -0.14210025950E+02 -0.24820590020E+00  0.15480007590E+02  0.21014687219E+02  0.51100000000E-03 0.  1.
         12    1    3    3    0    0  0.39076910378E+00 -0.54784670429E+00 -0.16035604812E-01  0.67312231020E+00  0.00000000000E+00 0. -1.
</event>
<event>
 7    1  0.2243370E-008  0.4614232E+02  0.7816164E-02  0.1320468E+00
        -11   -1    0    0    0    0  0.00000000000E+00  0.00000000000E+00  0.45593999997E+02  0.45594000000E+02  0.51100000000E-03 0.  1.
         11   -1    0    0    0    0 -0.00000000000E+00 -0.00000000000E+00 -0.45593999997E+02  0.45594000000E+02  0.51100000000E-03 0. -1.
    9900012    2    1    2    0    0  0.37601048029E+01  0.15864970349E+02  0.41991401578E+02  0.46142317867E+02  0.10000000968E+02 0.  0.
         12    1    1    2    0    0 -0.37601048029E+01 -0.15864970349E+02 -0.41991401578E+02  0.45045682133E+02  0.00000000000E+00 0. -1.
         11    1    3    3    0    0 -0.98463715012E+00  0.34140295900E+01  0.13011488822E+02  0.13487918667E+02  0.51100000000E-03 0. -1.
        -11    1    3    3    0    0 -0.49228895344E+00  0.78616257734E+01  0.12652842523E+02  0.14904426603E+02  0.51100000000E-03 0.  1.
        -12    1    3    3    0    0  0.52370309065E+01  0.45893149856E+01  0.16327070234E+02  0.17749972597E+02  0.00000000000E+00 0.  1.
</event>
<event>
 7    1  0.2243370E-008  0.4614232E+02  0.7816164E-02  0.1320468E+00
        -11   -1    0    0    0    0  0.00000000000E+00  0.00000000000E+00  0.45593999997E+02  0.45594000000E+02  0.51100000000E-03 0.  1.
         11   -1    0    0    0    0 -0.00000000000E+00 -0.00000000000E+00 -0.45593999997E+02  0.45594000000E+02  0.51100000000E-03 0. -1.
    9900012    2    1    2    0    0  0.24875087796E+02 -0.37548429264E+02  0.67745712534E+00  0.46142317841E+02  0.10000000725E+02 0.  0.
         12    1    1    2    0    0 -0.24875087796E+02  0.37548429264E+02 -0.67745712534E+00  0.45045682159E+02  0.00000000000E+00 0. -1.
         11    1    3    3    0    0  0.81708929793E+01 -0.91887521186E+01  0.25701646000E+01  0.12561942681E+02  0.51100000000E-03 0. -1.
        -11    1    3    3    0    0  0.11926181573E+01 -0.14174787190E+00 -0.62785347387E+00  0.13552235144E+01  0.51100000000E-03 0.  1.
         12    1    3    3    0    0  0.15511576659E+02 -0.28217929274E+02 -0.12648540007E+01  0.32225151646E+02  0.00000000000E+00 0. -1.
</event>
<event>
 7    1  0.2243370E-008  0.4614232E+02  0.7816164E-02  0.1320468E+00
        -11   -1    0    0    0    0  0.00000000000E+00  0.00000000000E+00  0.45593999997E+02  0.45594000000E+02  0.51100000000E-03 0.  1.
         11   -1    0    0    0    0 -0.00000000000E+00 -0.00000000000E+00 -0.45593999997E+02  0.45594000000E+02  0.51100000000E-03 0. -1.
    9900012    2    1    2    0    0  0.27853520584E+02 -0.11454764284E+02  0.33497509469E+02  0.46142319026E+02  0.10000011536E+02 0.  0.
         12    1    1    2    0    0 -0.27853520584E+02  0.11454764284E+02 -0.33497509469E+02  0.45045680974E+02  0.00000000000E+00 0. -1.
         11    1    3    3    0    0  0.20558594995E+01  0.23351162622E-01  0.20469364227E-01  0.20560940675E+01  0.51100000000E-03 0. -1.
        -11    1    3    3    0    0  0.13422408918E+02 -0.36663010096E+01  0.14167311693E+02  0.19857380118E+02  0.51100000000E-03 0.  1.
        -12    1    3    3    0    0  0.12375252167E+02 -0.78118144371E+01  0.19309728412E+02  0.24228844841E+02  0.00000000000E+00 0.  1.
</event>
<event>
 7    1  0.2243370E-008  0.4614232E+02  0.7816164E-02  0.1320468E+00
        -11   -1    0    0    0    0  0.00000000000E+00  0.00000000000E+00  0.45593999997E+02  0.45594000000E+02  0.51100000000E-03 0. -1.
         11   -1    0    0    0    0 -0.00000000000E+00 -0.00000000000E+00 -0.45593999997E+02  0.45594000000E+02  0.51100000000E-03 0.  1.
    9900012    2    1    2    0    0  0.30598471035E+01 -0.29906262027E+02 -0.33546480587E+02  0.46142317271E+02  0.99999955307E+01 0.  0.
         12    1    1    2    0    0 -0.30598471035E+01  0.29906262027E+02  0.33546480587E+02  0.45045682729E+02  0.00000000000E+00 0. -1.
         11    1    3    3    0    0  0.25561588645E+01 -0.11886617043E+02 -0.12576912657E+02  0.17492979880E+02  0.51100000000E-03 0. -1.
        -11    1    3    3    0    0 -0.24001391610E+01 -0.13289604874E+02 -0.17496188123E+02  0.22101829444E+02  0.51100000000E-03 0.  1.
         12    1    3    3    0    0  0.29038274000E+01 -0.47300401111E+01 -0.34733798074E+01  0.65475079464E+01  0.00000000000E+00 0. -1.
</event>
<event>
 7    1  0.2243370E-008  0.4614232E+02  0.7816164E-02  0.1320468E+00
        -11   -1    0    0    0    0  0.00000000000E+00  0.00000000000E+00  0.45593999997E+02  0.45594000000E+02  0.51100000000E-03 0.  1.
         11   -1    0    0    0    0 -0.00000000000E+00 -0.00000000000E+00 -0.45593999997E+02  0.45594000000E+02  0.51100000000E-03 0. -1.
    9900012    2    1    2    0    0 -0.22765241892E+02 -0.35132179814E+01  0.38710651773E+02  0.46142317635E+02  0.99999988540E+01 0.  0.
         12    1    1    2    0    0  0.22765241892E+02  0.35132179814E+01 -0.38710651773E+02  0.45045682365E+02  0.00000000000E+00 0. -1.
         11    1    3    3    0    0 -0.30495986030E+01 -0.33100292846E+01  0.94481379136E+01  0.10465355025E+02  0.51100000000E-03 0. -1.
        -11    1    3    3    0    0 -0.40739084999E+01  0.62518265088E+00  0.29990706379E+01  0.50972550225E+01  0.51100000000E-03 0.  1.
         12    1    3    3    0    0 -0.15641734789E+02 -0.82837134767E+00  0.26263443222E+02  0.30579707588E+02  0.00000000000E+00 0. -1.
</event>
<event>
 7    1  0.2243370E-008  0.4614232E+02  0.7816164E-02  0.1320468E+00
        -11   -1    0    0    0    0  0.00000000000E+00  0.00000000000E+00  0.45593999997E+02  0.45594000000E+02  0.51100000000E-03 0.  1.
         11   -1    0    0    0    0 -0.00000000000E+00 -0.00000000000E+00 -0.45593999997E+02  0.45594000000E+02  0.51100000000E-03 0. -1.
    9900012    2    1    2    0    0  0.24735672303E+02  0.64805279355E+01  0.37084536224E+02  0.46142317037E+02  0.99999934009E+01 0.  0.
         12    1    1    2    0    0 -0.24735672303E+02 -0.64805279355E+01 -0.37084536224E+02  0.45045682963E+02  0.00000000000E+00 0. -1.
         11    1    3    3    0    0  0.10413759579E+02  0.36431703902E+01  0.11425010903E+02  0.15882378709E+02  0.51100000000E-03 0. -1.
        -11    1    3    3    0    0  0.13487537409E+02  0.38430091913E+01  0.19844673904E+02  0.24300071350E+02  0.51100000000E-03 0.  1.
        -12    1    3    3    0    0  0.83437531546E+00 -0.10056516460E+01  0.58148514163E+01  0.59598669778E+01  0.00000000000E+00 0.  1.
</event>
<event>
 7    1  0.2243370E-008  0.4614232E+02  0.7816164E-02  0.1320468E+00
        -11   -1    0    0    0    0  0.00000000000E+00  0.00000000000E+00  0.45593999997E+02  0.45594000000E+02  0.51100000000E-03 0.  1.
         11   -1    0    0    0    0 -0.00000000000E+00 -0.00000000000E+00 -0.45593999997E+02  0.45594000000E+02  0.51100000000E-03 0. -1.
    9900012    2    1    2    0    0  0.56605072408E+01  0.34079719471E+01  0.44558477242E+02  0.46142317531E+02  0.99999979012E+01 0.  0.
         12    1    1    2    0    0 -0.56605072408E+01 -0.34079719471E+01 -0.44558477242E+02  0.45045682469E+02  0.00000000000E+00 0. -1.
         11    1    3    3    0    0  0.38139557727E+01  0.40112036626E+01  0.13968167119E+02  0.15024836318E+02  0.51100000000E-03 0. -1.
        -11    1    3    3    0    0  0.52786684451E+00  0.23563798817E+01  0.11093743746E+02  0.11353515760E+02  0.51100000000E-03 0.  1.
         12    1    3    3    0    0  0.13186846236E+01 -0.29596115972E+01  0.19496566377E+02  0.19763965453E+02  0.00000000000E+00 0. -1.
</event>
<event>
 7    1  0.2243370E-008  0.4614232E+02  0.7816164E-02  0.1320468E+00
        -11   -1    0    0    0    0  0.00000000000E+00  0.00000000000E+00  0.45593999997E+02  0.45594000000E+02  0.51100000000E-03 0.  1.
         11   -1    0    0    0    0 -0.00000000000E+00 -0.00000000000E+00 -0.45593999997E+02  0.45594000000E+02  0.51100000000E-03 0. -1.
    9900012    2    1    2    0    0 -0.31581727698E+02  0.18508683375E+02  0.26251411365E+02  0.46142317817E+02  0.10000000510E+02 0.  0.
         12    1    1    2    0    0  0.31581727698E+02 -0.18508683375E+02 -0.26251411365E+02  0.45045682183E+02  0.00000000000E+00 0. -1.
         11    1    3    3    0    0 -0.91622589771E+01  0.78805143734E+01  0.13627496901E+02  0.18214229833E+02  0.51100000000E-03 0. -1.
        -11    1    3    3    0    0 -0.17622943156E+02  0.73868421493E+01  0.92801199005E+01  0.21242744362E+02  0.51100000000E-03 0.  1.
         12    1    3    3    0    0 -0.47965255654E+01  0.32413268522E+01  0.33437945634E+01  0.66853436220E+01  0.00000000000E+00 0. -1.
</event>
<event>
 7    1  0.2243370E-008  0.4614232E+02  0.7816164E-02  0.1320468E+00
        -11   -1    0    0    0    0  0.00000000000E+00  0.00000000000E+00  0.45593999997E+02  0.45594000000E+02  0.51100000000E-03 0.  1.
         11   -1    0    0    0    0 -0.00000000000E+00 -0.00000000000E+00 -0.45593999997E+02  0.45594000000E+02  0.51100000000E-03 0. -1.
    9900012    2    1    2    0    0 -0.32317945699E+01  0.43189250387E+01  0.44721536175E+02  0.46142318659E+02  0.10000008189E+02 0.  0.
         12    1    1    2    0    0  0.32317945699E+01 -0.43189250387E+01 -0.44721536175E+02  0.45045681341E+02  0.00000000000E+00 0. -1.
         11    1    3    3    0    0 -0.45244715977E+01  0.42142111995E+01  0.20827727170E+02  0.21726128017E+02  0.51100000000E-03 0.  1.
        -11    1    3    3    0    0  0.20503776300E+01  0.44302234351E+00  0.41043221822E+01  0.46093142721E+01  0.51100000000E-03 0. -1.
        -12    1    3    3    0    0 -0.75770060220E+00 -0.33830850425E+00  0.19789486823E+02  0.19806876371E+02  0.00000000000E+00 0.  1.
</event>
<event>
 7    1  0.2243370E-008  0.4614232E+02  0.7816164E-02  0.1320468E+00
        -11   -1    0    0    0    0  0.00000000000E+00  0.00000000000E+00  0.45593999997E+02  0.45594000000E+02  0.51100000000E-03 0.  1.
         11   -1    0    0    0    0 -0.00000000000E+00 -0.00000000000E+00 -0.45593999997E+02  0.45594000000E+02  0.51100000000E-03 0. -1.
    9900012    2    1    2    0    0  0.37057929211E+02 -0.54966706100E+01  0.25012197836E+02  0.46142317123E+02  0.99999941821E+01 0.  0.
         12    1    1    2    0    0 -0.37057929211E+02  0.54966706100E+01 -0.25012197836E+02  0.45045682877E+02  0.00000000000E+00 0. -1.
         11    1    3    3    0    0  0.62137276838E+01 -0.25186400558E+01  0.90194128765E+01  0.11238494933E+02  0.51100000000E-03 0. -1.
        -11    1    3    3    0    0  0.11731197010E+02 -0.42821940917E+00  0.58184321354E+01  0.13101851317E+02  0.51100000000E-03 0.  1.
         12    1    3    3    0    0  0.19113004517E+02 -0.25498111450E+01  0.10174352824E+02  0.21801970873E+02  0.00000000000E+00 0. -1.
</event>
<event>
 7    1  0.2243370E-008  0.4614232E+02  0.7816164E-02  0.1320468E+00
        -11   -1    0    0    0    0  0.00000000000E+00  0.00000000000E+00  0.45593999997E+02  0.45594000000E+02  0.51100000000E-03 0. -1.
         11   -1    0    0    0    0 -0.00000000000E+00 -0.00000000000E+00 -0.45593999997E+02  0.45594000000E+02  0.51100000000E-03 0.  1.
    9900012    2    1    2    0    0  0.26886166801E+02 -0.30628624303E+02 -0.19186840721E+02  0.46142318200E+02  0.10000004005E+02 0.  0.
         12    1    1    2    0    0 -0.26886166801E+02  0.30628624303E+02  0.19186840721E+02  0.45045681800E+02  0.00000000000E+00 0. -1.
         11    1    3    3    0    0  0.97932451475E+01 -0.15101614999E+02 -0.12349249143E+02  0.21828201500E+02  0.51100000000E-03 0. -1.
        -11    1    3    3    0    0  0.42889840773E+01 -0.59795033830E+01 -0.19910764141E+01  0.76232690278E+01  0.51100000000E-03 0.  1.
         12    1    3    3    0    0  0.12803937577E+02 -0.95475059212E+01 -0.48465151638E+01  0.16690847672E+02  0.00000000000E+00 0. -1.
</event>
<event>
 7    1  0.2243370E-008  0.4614232E+02  0.7816164E-02  0.1320468E+00
        -11   -1    0    0    0    0  0.00000000000E+00  0.00000000000E+00  0.45593999997E+02  0.45594000000E+02  0.51100000000E-03 0.  1.
         11   -1    0    0    0    0 -0.00000000000E+00 -0.00000000000E+00 -0.45593999997E+02  0.45594000000E+02  0.51100000000E-03 0. -1.
    9900012    2    1    2    0    0  0.40304842972E+02 -0.58056042310E+00  0.20107112017E+02  0.46142319064E+02  0.10000011877E+02 0.  0.
         12    1    1    2    0    0 -0.40304842972E+02  0.58056042310E+00 -0.20107112017E+02  0.45045680936E+02  0.00000000000E+00 0. -1.
         11    1    3    3    0    0  0.83495803192E+01  0.24635537302E+01  0.15733339360E+01  0.88464664372E+01  0.51100000000E-03 0. -1.
        -11    1    3    3    0    0  0.17886786587E+02  0.25789871417E+00  0.10984305256E+02  0.20991870054E+02  0.51100000000E-03 0.  1.
         12    1    3    3    0    0  0.14068476066E+02 -0.33020128675E+01  0.75494728246E+01  0.16303982572E+02  0.00000000000E+00 0. -1.
</event>
<event>
 7    1  0.2243370E-008  0.4614232E+02  0.7816164E-02  0.1320468E+00
        -11   -1    0    0    0    0  0.00000000000E+00  0.00000000000E+00  0.45593999997E+02  0.45594000000E+02  0.51100000000E-03 0.  1.
         11   -1    0    0    0    0 -0.00000000000E+00 -0.00000000000E+00 -0.45593999997E+02  0.45594000000E+02  0.51100000000E-03 0. -1.
    9900012    2    1    2    0    0  0.30131055147E+02  0.16429174010E+02 -0.29177305849E+02  0.46142318526E+02  0.10000006970E+02 0.  0.
         12    1    1    2    0    0 -0.30131055147E+02 -0.16429174010E+02  0.29177305849E+02  0.45045681474E+02  0.00000000000E+00 0. -1.
         11    1    3    3    0    0  0.11416653210E+02  0.32100599124E+01 -0.56541717269E+01  0.13138269039E+02  0.51100000000E-03 0. -1.
        -11    1    3    3    0    0  0.26602579863E+01  0.23427878946E+01 -0.21535626538E+01  0.41477053942E+01  0.51100000000E-03 0.  1.
         12    1    3    3    0    0  0.16054143951E+02  0.10876326203E+02 -0.21369571468E+02  0.28856344093E+02  0.00000000000E+00 0. -1.
</event>
<event>
 7    1  0.2243370E-008  0.4614232E+02  0.7816164E-02  0.1320468E+00
        -11   -1    0    0    0    0  0.00000000000E+00  0.00000000000E+00  0.45593999997E+02  0.45594000000E+02  0.51100000000E-03 0. -1.
         11   -1    0    0    0    0 -0.00000000000E+00 -0.00000000000E+00 -0.45593999997E+02  0.45594000000E+02  0.51100000000E-03 0.  1.
    9900012    2    1    2    0    0  0.41993126849E+02  0.13073814951E+02  0.97347823266E+01  0.46142319553E+02  0.10000016342E+02 0.  0.
         12    1    1    2    0    0 -0.41993126849E+02 -0.13073814951E+02 -0.97347823266E+01  0.45045680447E+02  0.00000000000E+00 0. -1.
         11    1    3    3    0    0  0.39772035335E+02  0.11689627148E+02  0.98621428137E+01  0.42611313506E+02  0.51100000000E-03 0. -1.
        -11    1    3    3    0    0  0.24577721744E+01  0.36925871487E+00 -0.47853983018E-01  0.24858170336E+01  0.51100000000E-03 0.  1.
         12    1    3    3    0    0 -0.23668066044E+00  0.10149290887E+01 -0.79506504061E-01  0.10451890136E+01  0.00000000000E+00 0. -1.
</event>
<event>
 7    1  0.2243370E-008  0.4614232E+02  0.7816164E-02  0.1320468E+00
        -11   -1    0    0    0    0  0.00000000000E+00  0.00000000000E+00  0.45593999997E+02  0.45594000000E+02  0.51100000000E-03 0.  1.
         11   -1    0    0    0    0 -0.00000000000E+00 -0.00000000000E+00 -0.45593999997E+02  0.45594000000E+02  0.51100000000E-03 0. -1.
    9900012    2    1    2    0    0  0.27743498777E+02 -0.32548942930E+02  0.14141360363E+02  0.46142317818E+02  0.10000000523E+02 0.  0.
         12    1    1    2    0    0 -0.27743498777E+02  0.32548942930E+02 -0.14141360363E+02  0.45045682182E+02  0.00000000000E+00 0. -1.
         11    1    3    3    0    0 -0.35093307795E+00  0.10248583976E+00 -0.16752751489E+00  0.40214810943E+00  0.51100000000E-03 0. -1.
        -11    1    3    3    0    0  0.11336348442E+02 -0.15084127103E+02  0.89179384138E+01  0.20870393198E+02  0.51100000000E-03 0.  1.
         12    1    3    3    0    0  0.16758083414E+02 -0.17567301667E+02  0.53909494639E+01  0.24869776511E+02  0.00000000000E+00 0. -1.
</event>
<event>
 7    1  0.2243370E-008  0.4614232E+02  0.7816164E-02  0.1320468E+00
        -11   -1    0    0    0    0  0.00000000000E+00  0.00000000000E+00  0.45593999997E+02  0.45594000000E+02  0.51100000000E-03 0. -1.
         11   -1    0    0    0    0 -0.00000000000E+00 -0.00000000000E+00 -0.45593999997E+02  0.45594000000E+02  0.51100000000E-03 0.  1.
    9900012    2    1    2    0    0 -0.37079522905E+02  0.24512312782E+02  0.73054111761E+01  0.46142317308E+02  0.99999958642E+01 0.  0.
         12    1    1    2    0    0  0.37079522905E+02 -0.24512312782E+02 -0.73054111761E+01  0.45045682692E+02  0.00000000000E+00 0. -1.
         11    1    3    3    0    0 -0.18529935476E+02  0.68508423303E+01  0.12742420449E+01  0.19796874562E+02  0.51100000000E-03 0. -1.
        -11    1    3    3    0    0 -0.89012422093E+01  0.78039586945E+01  0.32269523378E+01  0.12269763886E+02  0.51100000000E-03 0.  1.
         12    1    3    3    0    0 -0.96483452196E+01  0.98575117577E+01  0.28042167934E+01  0.14075678859E+02  0.00000000000E+00 0. -1.
</event>
<event>
 7    1  0.2243370E-008  0.4614232E+02  0.7816164E-02  0.1320468E+00
        -11   -1    0    0    0    0  0.00000000000E+00  0.00000000000E+00  0.45593999997E+02  0.45594000000E+02  0.51100000000E-03 0.  1.
         11   -1    0    0    0    0 -0.00000000000E+00 -0.00000000000E+00 -0.45593999997E+02  0.45594000000E+02  0.51100000000E-03 0. -1.
    9900012    2    1    2    0    0  0.28780582963E+02  0.12125900990E+02  0.32461578817E+02  0.46142317301E+02  0.99999958051E+01 0.  0.
         12    1    1    2    0    0 -0.28780582963E+02 -0.12125900990E+02 -0.32461578817E+02  0.45045682699E+02  0.00000000000E+00 0. -1.
         11    1    3    3    0    0  0.27101665079E+01  0.36016115677E+01  0.22320422002E+01  0.50297734571E+01  0.51100000000E-03 0. -1.
        -11    1    3    3    0    0  0.19365937175E+01  0.19541170571E+01  0.41344097230E+01  0.49661164624E+01  0.51100000000E-03 0.  1.
        -12    1    3    3    0    0  0.24133822737E+02  0.65701723649E+01  0.26095126894E+02  0.36146427382E+02  0.00000000000E+00 0.  1.
</event>
<event>
 7    1  0.2243370E-008  0.4614232E+02  0.7816164E-02  0.1320468E+00
        -11   -1    0    0    0    0  0.00000000000E+00  0.00000000000E+00  0.45593999997E+02  0.45594000000E+02  0.51100000000E-03 0. -1.
         11   -1    0    0    0    0 -0.00000000000E+00 -0.00000000000E+00 -0.45593999997E+02  0.45594000000E+02  0.51100000000E-03 0.  1.
    9900012    2    1    2    0    0  0.32088978964E+02 -0.29691602149E+02 -0.10854465379E+02  0.46142320653E+02  0.10000026371E+02 0.  0.
         12    1    1    2    0    0 -0.32088978964E+02  0.29691602149E+02  0.10854465379E+02  0.45045679347E+02  0.00000000000E+00 0. -1.
         11    1    3    3    0    0  0.80692702190E+01 -0.50766818683E+01 -0.34048019221E+01  0.10123166355E+02  0.51100000000E-03 0. -1.
        -11    1    3    3    0    0  0.18085042410E+02 -0.17398452724E+02 -0.87687273285E+01  0.26583180686E+02  0.51100000000E-03 0.  1.
         12    1    3    3    0    0  0.59346663357E+01 -0.72164675572E+01  0.13190638714E+01  0.94359736126E+01  0.00000000000E+00 0. -1.
</event>
<event>
 7    1  0.2243370E-008  0.4614232E+02  0.7816164E-02  0.1320468E+00
        -11   -1    0    0    0    0  0.00000000000E+00  0.00000000000E+00  0.45593999997E+02  0.45594000000E+02  0.51100000000E-03 0.  1.
         11   -1    0    0    0    0 -0.00000000000E+00 -0.00000000000E+00 -0.45593999997E+02  0.45594000000E+02  0.51100000000E-03 0. -1.
    9900012    2    1    2    0    0 -0.37181938341E+02  0.17078249019E+02  0.18840127953E+02  0.46142317081E+02  0.99999937945E+01 0.  0.
         12    1    1    2    0    0  0.37181938341E+02 -0.17078249019E+02 -0.18840127953E+02  0.45045682919E+02  0.00000000000E+00 0. -1.
         11    1    3    3    0    0 -0.93881480179E-01  0.17506530334E+00  0.44774757645E+00  0.48983644831E+00  0.51100000000E-03 0. -1.
        -11    1    3    3    0    0 -0.35572894303E+02  0.16668892761E+02  0.15221648284E+02  0.42130527789E+02  0.51100000000E-03 0.  1.
        -12    1    3    3    0    0 -0.15151625575E+01  0.23429095508E+00  0.31707320931E+01  0.35219528438E+01  0.00000000000E+00 0.  1.
</event>
<event>
 7    1  0.2243370E-008  0.4614232E+02  0.7816164E-02  0.1320468E+00
        -11   -1    0    0    0    0  0.00000000000E+00  0.00000000000E+00  0.45593999997E+02  0.45594000000E+02  0.51100000000E-03 0.  1.
         11   -1    0    0    0    0 -0.00000000000E+00 -0.00000000000E+00 -0.45593999997E+02  0.45594000000E+02  0.51100000000E-03 0. -1.
    9900012    2    1    2    0    0  0.36199588731E+02  0.22727523544E+02  0.14218401079E+02  0.46142317854E+02  0.10000000844E+02 0.  0.
         12    1    1    2    0    0 -0.36199588731E+02 -0.22727523544E+02 -0.14218401079E+02  0.45045682146E+02  0.00000000000E+00 0. -1.
         11    1    3    3    0    0  0.33919882361E+01  0.27540872517E+00  0.66106094137E+00  0.34667615997E+01  0.51100000000E-03 0. -1.
        -11    1    3    3    0    0  0.19330586886E+02  0.13739648147E+02  0.11923425767E+02  0.26544634163E+02  0.51100000000E-03 0.  1.
        -12    1    3    3    0    0  0.13477013609E+02  0.87124666724E+01  0.16339143712E+01  0.16130922091E+02  0.00000000000E+00 0.  1.
</event>
<event>
 7    1  0.2243370E-008  0.4614232E+02  0.7816164E-02  0.1320468E+00
        -11   -1    0    0    0    0  0.00000000000E+00  0.00000000000E+00  0.45593999997E+02  0.45594000000E+02  0.51100000000E-03 0. -1.
         11   -1    0    0    0    0 -0.00000000000E+00 -0.00000000000E+00 -0.45593999997E+02  0.45594000000E+02  0.51100000000E-03 0.  1.
    9900012    2    1    2    0    0  0.21325553186E+02  0.18372220436E+02 -0.35168108046E+02  0.46142317344E+02  0.99999961923E+01 0.  0.
         12    1    1    2    0    0 -0.21325553186E+02 -0.18372220436E+02  0.35168108046E+02  0.45045682656E+02  0.00000000000E+00 0. -1.
         11    1    3    3    0    0  0.14514040172E+01  0.47578862862E+01 -0.44859226599E+01  0.66983250074E+01  0.51100000000E-03 0.  1.
        -11    1    3    3    0    0  0.93583890173E+01  0.67079931499E+01 -0.19324763635E+02  0.22494957367E+02  0.51100000000E-03 0. -1.
        -12    1    3    3    0    0  0.10515760152E+02  0.69063409997E+01 -0.11357421751E+02  0.16949034970E+02  0.00000000000E+00 0.  1.
</event>
<event>
 7    1  0.2243370E-008  0.4614232E+02  0.7816164E-02  0.1320468E+00
        -11   -1    0    0    0    0  0.00000000000E+00  0.00000000000E+00  0.45593999997E+02  0.45594000000E+02  0.51100000000E-03 0.  1.
         11   -1    0    0    0    0 -0.00000000000E+00 -0.00000000000E+00 -0.45593999997E+02  0.45594000000E+02  0.51100000000E-03 0. -1.
    9900012    2    1    2    0    0 -0.23146283431E+02  0.31232666861E+02  0.22757054251E+02  0.46142318363E+02  0.10000005491E+02 0.  0.
         12    1    1    2    0    0  0.23146283431E+02 -0.31232666861E+02 -0.22757054251E+02  0.45045681637E+02  0.00000000000E+00 0. -1.
         11    1    3    3    0    0 -0.76042649327E-01 -0.14538198493E+00 -0.10479511821E+00  0.19468098002E+00  0.51100000000E-03 0. -1.
        -11    1    3    3    0    0 -0.10544066678E+02  0.11319104809E+02  0.13435755204E+02  0.20489484960E+02  0.51100000000E-03 0.  1.
         12    1    3    3    0    0 -0.12526174104E+02  0.20058944038E+02  0.94260941658E+01  0.25458152423E+02  0.00000000000E+00 0. -1.
</event>
<event>
 7    1  0.2243370E-008  0.4614232E+02  0.7816164E-02  0.1320468E+00
        -11   -1    0    0    0    0  0.00000000000E+00  0.00000000000E+00  0.45593999997E+02  0.45594000000E+02  0.51100000000E-03 0. -1.
         11   -1    0    0    0    0 -0.00000000000E+00 -0.00000000000E+00 -0.45593999997E+02  0.45594000000E+02  0.51100000000E-03 0.  1.
    9900012    2    1    2    0    0  0.77722250016E+01 -0.44367467363E+02  0.48365331797E+00  0.46142316941E+02  0.99999925212E+01 0.  0.
         12    1    1    2    0    0 -0.77722250016E+01  0.44367467363E+02 -0.48365331797E+00  0.45045683059E+02  0.00000000000E+00 0. -1.
         11    1    3    3    0    0  0.62017857152E+00 -0.45181632487E+01  0.16830982288E+01  0.48611974360E+01  0.51100000000E-03 0. -1.
        -11    1    3    3    0    0  0.82618219672E+01 -0.27614144597E+02 -0.24752514682E+01  0.28929665642E+02  0.51100000000E-03 0.  1.
        -12    1    3    3    0    0 -0.11097755371E+01 -0.12235159518E+02  0.12758065574E+01  0.12351453863E+02  0.00000000000E+00 0.  1.
</event>
<event>
 7    1  0.2243370E-008  0.4614231E+02  0.7816164E-02  0.1320468E+00
        -11   -1    0    0    0    0  0.00000000000E+00  0.00000000000E+00  0.45593999997E+02  0.45594000000E+02  0.51100000000E-03 0.  1.
         11   -1    0    0    0    0 -0.00000000000E+00 -0.00000000000E+00 -0.45593999997E+02  0.45594000000E+02  0.51100000000E-03 0. -1.
    9900012    2    1    2    0    0 -0.38609230646E+00  0.24768982901E+02  0.37622628809E+02  0.46142314527E+02  0.99999705093E+01 0.  0.
         12    1    1    2    0    0  0.38609230646E+00 -0.24768982901E+02 -0.37622628809E+02  0.45045685473E+02  0.00000000000E+00 0. -1.
         11    1    3    3    0    0 -0.23686262498E+01  0.14670173698E+02  0.16288383494E+02  0.22048488015E+02  0.51100000000E-03 0. -1.
        -11    1    3    3    0    0  0.10002208328E+01  0.98329799384E+01  0.17213127365E+02  0.19848921636E+02  0.51100000000E-03 0.  1.
        -12    1    3    3    0    0  0.98231311061E+00  0.26582926495E+00  0.41211179504E+01  0.42449048760E+01  0.00000000000E+00 0.  1.
</event>
<event>
 7    1  0.2243370E-008  0.4614232E+02  0.7816164E-02  0.1320468E+00
        -11   -1    0    0    0    0  0.00000000000E+00  0.00000000000E+00  0.45593999997E+02  0.45594000000E+02  0.51100000000E-03 0. -1.
         11   -1    0    0    0    0 -0.00000000000E+00 -0.00000000000E+00 -0.45593999997E+02  0.45594000000E+02  0.51100000000E-03 0.  1.
    9900012    2    1    2    0    0 -0.42633694566E+02 -0.13853025325E+02  0.44244022381E+01  0.46142316987E+02  0.99999929390E+01 0.  0.
         12    1    1    2    0    0  0.42633694566E+02  0.13853025325E+02 -0.44244022381E+01  0.45045683013E+02  0.00000000000E+00 0. -1.
         11    1    3    3    0    0 -0.76238242507E+01  0.57583700992E+00  0.26665261576E+01  0.80971999159E+01  0.51100000000E-03 0. -1.
        -11    1    3    3    0    0 -0.14746493226E+01 -0.77589190666E-01 -0.31263431892E+00  0.15094208113E+01  0.51100000000E-03 0.  1.
         12    1    3    3    0    0 -0.33535220992E+02 -0.14351273144E+02  0.20705103994E+01  0.36535696260E+02  0.00000000000E+00 0. -1.
</event>
<event>
 7    1  0.2243370E-008  0.4614232E+02  0.7816164E-02  0.1320468E+00
        -11   -1    0    0    0    0  0.00000000000E+00  0.00000000000E+00  0.45593999997E+02  0.45594000000E+02  0.51100000000E-03 0. -1.
         11   -1    0    0    0    0 -0.00000000000E+00 -0.00000000000E+00 -0.45593999997E+02  0.45594000000E+02  0.51100000000E-03 0.  1.
    9900012    2    1    2    0    0 -0.23545805306E+02 -0.35850169049E+02 -0.13764951618E+02  0.46142318060E+02  0.10000002729E+02 0.  0.
         12    1    1    2    0    0  0.23545805306E+02  0.35850169049E+02  0.13764951618E+02  0.45045681940E+02  0.00000000000E+00 0. -1.
         11    1    3    3    0    0 -0.16482519119E+02 -0.21033870781E+02 -0.10943068611E+02  0.28876424769E+02  0.51100000000E-03 0.  1.
        -11    1    3    3    0    0 -0.45295819698E+01 -0.56929174054E+01  0.34069048551E+00  0.72830276447E+01  0.51100000000E-03 0. -1.
        -12    1    3    3    0    0 -0.25337042167E+01 -0.91233808630E+01 -0.31625734928E+01  0.99828656470E+01  0.00000000000E+00 0.  1.
</event>
<event>
 7    1  0.2243370E-008  0.4614232E+02  0.7816164E-02  0.1320468E+00
        -11   -1    0    0    0    0  0.00000000000E+00  0.00000000000E+00  0.45593999997E+02  0.45594000000E+02  0.51100000000E-03 0. -1.
         11   -1    0    0    0    0 -0.00000000000E+00 -0.00000000000E+00 -0.45593999997E+02  0.45594000000E+02  0.51100000000E-03 0.  1.
    9900012    2    1    2    0    0  0.33045448679E+02  0.30161392480E+02  0.52347144302E+01  0.46142317522E+02  0.99999978206E+01 0.  0.
         12    1    1    2    0    0 -0.33045448679E+02 -0.30161392480E+02 -0.52347144302E+01  0.45045682478E+02  0.00000000000E+00 0. -1.
         11    1    3    3    0    0  0.23916809319E+02  0.20776219575E+02  0.35966332854E+01  0.31884178508E+02  0.51100000000E-03 0.  1.
        -11    1    3    3    0    0  0.38481017010E+01  0.69603504416E+01  0.26019658770E+01  0.83680697690E+01  0.51100000000E-03 0. -1.
         12    1    3    3    0    0  0.52805376582E+01  0.24248224636E+01 -0.96388473222E+00  0.58900692455E+01  0.00000000000E+00 0. -1.
</event>
<event>
 7    1  0.2243370E-008  0.4614232E+02  0.7816164E-02  0.1320468E+00
        -11   -1    0    0    0    0  0.00000000000E+00  0.00000000000E+00  0.45593999997E+02  0.45594000000E+02  0.51100000000E-03 0.  1.
         11   -1    0    0    0    0 -0.00000000000E+00 -0.00000000000E+00 -0.45593999997E+02  0.45594000000E+02  0.51100000000E-03 0. -1.
    9900012    2    1    2    0    0  0.85604687660E+01  0.41429742225E+02  0.15472823247E+02  0.46142318458E+02  0.10000006359E+02 0.  0.
         12    1    1    2    0    0 -0.85604687660E+01 -0.41429742225E+02 -0.15472823247E+02  0.45045681542E+02  0.00000000000E+00 0. -1.
         11    1    3    3    0    0 -0.11115027768E+01  0.86947015634E+00  0.11786976049E+01  0.18386802551E+01  0.51100000000E-03 0. -1.
        -11    1    3    3    0    0  0.45019038034E+01  0.16243692836E+02  0.35744448833E+01  0.17230825613E+02  0.51100000000E-03 0.  1.
         12    1    3    3    0    0  0.51700677394E+01  0.24316579232E+02  0.10719680759E+02  0.27072812591E+02  0.00000000000E+00 0. -1.
</event>
<event>
 7    1  0.2243370E-008  0.4614232E+02  0.7816164E-02  0.1320468E+00
        -11   -1    0    0    0    0  0.00000000000E+00  0.00000000000E+00  0.45593999997E+02  0.45594000000E+02  0.51100000000E-03 0.  1.
         11   -1    0    0    0    0 -0.00000000000E+00 -0.00000000000E+00 -0.45593999997E+02  0.45594000000E+02  0.51100000000E-03 0. -1.
    9900012    2    1    2    0    0  0.43079071494E+02  0.66927205870E+01  0.11336419517E+02  0.46142319662E+02  0.10000017333E+02 0.  0.
         12    1    1    2    0    0 -0.43079071494E+02 -0.66927205870E+01 -0.11336419517E+02  0.45045680338E+02  0.00000000000E+00 0. -1.
         11    1    3    3    0    0  0.25357612606E+02  0.55346759859E+01  0.70187856353E+01  0.26886883557E+02  0.51100000000E-03 0. -1.
        -11    1    3    3    0    0  0.83465834818E+01  0.32572044159E+01  0.68934899665E+00  0.89861025325E+01  0.51100000000E-03 0.  1.
         12    1    3    3    0    0  0.93748754063E+01 -0.20991598148E+01  0.36282848855E+01  0.10269333572E+02  0.00000000000E+00 0. -1.
</event>
<event>
 7    1  0.2243370E-008  0.4614232E+02  0.7816164E-02  0.1320468E+00
        -11   -1    0    0    0    0  0.00000000000E+00  0.00000000000E+00  0.45593999997E+02  0.45594000000E+02  0.51100000000E-03 0.  1.
         11   -1    0    0    0    0 -0.00000000000E+00 -0.00000000000E+00 -0.45593999997E+02  0.45594000000E+02  0.51100000000E-03 0. -1.
    9900012    2    1    2    0    0 -0.16970020174E+01 -0.41667934706E+01  0.44820436398E+02  0.46142317603E+02  0.99999985582E+01 0.  0.
         12    1    1    2    0    0  0.16970020174E+01  0.41667934706E+01 -0.44820436398E+02  0.45045682397E+02  0.00000000000E+00 0. -1.
         11    1    3    3    0    0  0.13304768567E+01 -0.24515498660E+01  0.18068502039E+02  0.18282533512E+02  0.51100000000E-03 0. -1.
        -11    1    3    3    0    0  0.14639682993E+01 -0.27841497891E+01  0.99794455204E+01  0.10463461492E+02  0.51100000000E-03 0.  1.
         12    1    3    3    0    0 -0.44914471734E+01  0.10689061845E+01  0.16772488839E+02  0.17396322599E+02  0.00000000000E+00 0. -1.
</event>
<event>
 7    1  0.2243370E-008  0.4614232E+02  0.7816164E-02  0.1320468E+00
        -11   -1    0    0    0    0  0.00000000000E+00  0.00000000000E+00  0.45593999997E+02  0.45594000000E+02  0.51100000000E-03 0.  1.
         11   -1    0    0    0    0 -0.00000000000E+00 -0.00000000000E+00 -0.45593999997E+02  0.45594000000E+02  0.51100000000E-03 0. -1.
    9900012    2    1    2    0    0  0.72162455223E+01  0.14378915092E+02  0.42074769205E+02  0.46142316496E+02  0.99999884662E+01 0.  0.
         12    1    1    2    0    0 -0.72162455223E+01 -0.14378915092E+02 -0.42074769205E+02  0.45045683504E+02  0.00000000000E+00 0. -1.
         11    1    3    3    0    0 -0.41747315167E+00  0.28680932380E+01  0.35657165984E+01  0.45950601493E+01  0.51100000000E-03 0. -1.
        -11    1    3    3    0    0  0.40272095623E+01  0.55957864046E+00  0.10001900700E+02  0.10796738535E+02  0.51100000000E-03 0.  1.
         12    1    3    3    0    0  0.36065091117E+01  0.10951243214E+02  0.28507151906E+02  0.30750517812E+02  0.00000000000E+00 0. -1.
</event>
<event>
 7    1  0.2243370E-008  0.4614232E+02  0.7816164E-02  0.1320468E+00
        -11   -1    0    0    0    0  0.00000000000E+00  0.00000000000E+00  0.45593999997E+02  0.45594000000E+02  0.51100000000E-03 0.  1.
         11   -1    0    0    0    0 -0.00000000000E+00 -0.00000000000E+00 -0.45593999997E+02  0.45594000000E+02  0.51100000000E-03 0. -1.
    9900012    2    1    2    0    0  0.42353846200E+02 -0.58682725397E+01  0.14171394706E+02  0.46142319426E+02  0.10000015178E+02 0.  0.
         12    1    1    2    0    0 -0.42353846200E+02  0.58682725397E+01 -0.14171394706E+02  0.45045680574E+02  0.00000000000E+00 0. -1.
         11    1    3    3    0    0  0.30741567493E+02 -0.60112155801E+01  0.13384716085E+02  0.34063606820E+02  0.51100000000E-03 0. -1.
        -11    1    3    3    0    0  0.80437980664E+01 -0.92551192799E-01  0.20229902958E+01  0.82948021709E+01  0.51100000000E-03 0.  1.
         12    1    3    3    0    0  0.35684806405E+01  0.23549423316E+00 -0.12363116756E+01  0.37839104343E+01  0.00000000000E+00 0. -1.
</event>
<event>
 7    1  0.2243370E-008  0.4614233E+02  0.7816164E-02  0.1320468E+00
        -11   -1    0    0    0    0  0.00000000000E+00  0.00000000000E+00  0.45593999997E+02  0.45594000000E+02  0.51100000000E-03 0.  1.
         11   -1    0    0    0    0 -0.00000000000E+00 -0.00000000000E+00 -0.45593999997E+02  0.45594000000E+02  0.51100000000E-03 0. -1.
    9900012    2    1    2    0    0 -0.10474402577E+01  0.22564676859E+02  0.38972432638E+02  0.46142331190E+02  0.10000122450E+02 0.  0.
         12    1    1    2    0    0  0.10474402577E+01 -0.22564676859E+02 -0.38972432638E+02  0.45045668810E+02  0.00000000000E+00 0. -1.
         11    1    3    3    0    0  0.15148493360E+00  0.11899193194E+02  0.23505862244E+02  0.26346523612E+02  0.51100000000E-03 0. -1.
        -11    1    3    3    0    0 -0.81982217328E+00  0.50904725349E+01  0.12383027449E+02  0.13413589680E+02  0.51100000000E-03 0.  1.
         12    1    3    3    0    0 -0.37910301801E+00  0.55750111301E+01  0.30835429448E+01  0.63822178975E+01  0.00000000000E+00 0. -1.
</event>
<event>
 7    1  0.2243370E-008  0.4614231E+02  0.7816164E-02  0.1320468E+00
        -11   -1    0    0    0    0  0.00000000000E+00  0.00000000000E+00  0.45593999997E+02  0.45594000000E+02  0.51100000000E-03 0.  1.
         11   -1    0    0    0    0 -0.00000000000E+00 -0.00000000000E+00 -0.45593999997E+02  0.45594000000E+02  0.51100000000E-03 0. -1.
    9900012    2    1    2    0    0  0.15479962867E+02  0.78522836629E+01  0.41567129047E+02  0.46142314010E+02  0.99999657904E+01 0.  0.
         12    1    1    2    0    0 -0.15479962867E+02 -0.78522836629E+01 -0.41567129047E+02  0.45045685990E+02  0.00000000000E+00 0. -1.
         11    1    3    3    0    0  0.48162046159E+01  0.61340939285E+01  0.16467569948E+02  0.18220971310E+02  0.51100000000E-03 0. -1.
        -11    1    3    3    0    0  0.30652344884E+01  0.15683209721E+01  0.14344898186E+02  0.14752335319E+02  0.51100000000E-03 0.  1.
         12    1    3    3    0    0  0.75985237630E+01  0.14986876233E+00  0.10754660914E+02  0.13169007381E+02  0.00000000000E+00 0. -1.
</event>
<event>
 7    1  0.2243370E-008  0.4614232E+02  0.7816164E-02  0.1320468E+00
        -11   -1    0    0    0    0  0.00000000000E+00  0.00000000000E+00  0.45593999997E+02  0.45594000000E+02  0.51100000000E-03 0. -1.
         11   -1    0    0    0    0 -0.00000000000E+00 -0.00000000000E+00 -0.45593999997E+02  0.45594000000E+02  0.51100000000E-03 0.  1.
    9900012    2    1    2    0    0  0.30317755968E+02 -0.65007747313E+01 -0.32675477778E+02  0.46142320439E+02  0.10000024424E+02 0.  0.
         12    1    1    2    0    0 -0.30317755968E+02  0.65007747313E+01  0.32675477778E+02  0.45045679561E+02  0.00000000000E+00 0. -1.
         11    1    3    3    0    0  0.92974203927E+01 -0.12083803129E+01 -0.76451672738E+01  0.12097553135E+02  0.51100000000E-03 0. -1.
        -11    1    3    3    0    0  0.68438455219E+01 -0.10087988599E+01 -0.13875001956E+02  0.15503921317E+02  0.51100000000E-03 0.  1.
        -12    1    3    3    0    0  0.14176490053E+02 -0.42835955585E+01 -0.11155308549E+02  0.18540845988E+02  0.00000000000E+00 0.  1.
</event>
<event>
 7    1  0.2243370E-008  0.4614232E+02  0.7816164E-02  0.1320468E+00
        -11   -1    0    0    0    0  0.00000000000E+00  0.00000000000E+00  0.45593999997E+02  0.45594000000E+02  0.51100000000E-03 0. -1.
         11   -1    0    0    0    0 -0.00000000000E+00 -0.00000000000E+00 -0.45593999997E+02  0.45594000000E+02  0.51100000000E-03 0.  1.
    9900012    2    1    2    0    0  0.30627014051E+02 -0.33013323175E+02  0.11045030709E+01  0.46142318478E+02  0.10000006536E+02 0.  0.
         12    1    1    2    0    0 -0.30627014051E+02  0.33013323175E+02 -0.11045030709E+01  0.45045681522E+02  0.00000000000E+00 0. -1.
         11    1    3    3    0    0  0.16421837304E+02 -0.18840824372E+02  0.13167656723E+01  0.25027730132E+02  0.51100000000E-03 0. -1.
        -11    1    3    3    0    0  0.10160000518E+02 -0.75477391621E+01  0.24825841713E+01  0.12897953380E+02  0.51100000000E-03 0.  1.
         12    1    3    3    0    0  0.40451762296E+01 -0.66247596412E+01 -0.26948467726E+01  0.82166349657E+01  0.00000000000E+00 0. -1.
</event>
<event>
 7    1  0.2243370E-008  0.4614232E+02  0.7816164E-02  0.1320468E+00
        -11   -1    0    0    0    0  0.00000000000E+00  0.00000000000E+00  0.45593999997E+02  0.45594000000E+02  0.51100000000E-03 0.  1.
         11   -1    0    0    0    0 -0.00000000000E+00 -0.00000000000E+00 -0.45593999997E+02  0.45594000000E+02  0.51100000000E-03 0. -1.
    9900012    2    1    2    0    0 -0.38015728697E+02 -0.17150701265E+02  0.17022673149E+02  0.46142316707E+02  0.99999903840E+01 0.  0.
         12    1    1    2    0    0  0.38015728697E+02  0.17150701265E+02 -0.17022673149E+02  0.45045683293E+02  0.00000000000E+00 0. -1.
         11    1    3    3    0    0 -0.41934929293E+01 -0.14861630030E+01 -0.91630661493E+00  0.45424312315E+01  0.51100000000E-03 0. -1.
        -11    1    3    3    0    0 -0.12072648697E+02 -0.58737752424E+01  0.41660471112E+01  0.14057241228E+02  0.51100000000E-03 0.  1.
        -12    1    3    3    0    0 -0.21749587071E+02 -0.97907630196E+01  0.13772932652E+02  0.27542644247E+02  0.00000000000E+00 0.  1.
</event>
<event>
 7    1  0.2243370E-008  0.4614232E+02  0.7816164E-02  0.1320468E+00
        -11   -1    0    0    0    0  0.00000000000E+00  0.00000000000E+00  0.45593999997E+02  0.45594000000E+02  0.51100000000E-03 0.  1.
         11   -1    0    0    0    0 -0.00000000000E+00 -0.00000000000E+00 -0.45593999997E+02  0.45594000000E+02  0.51100000000E-03 0. -1.
    9900012    2    1    2    0    0  0.38654168387E+02 -0.28298987323E+01  0.22955619186E+02  0.46142317491E+02  0.99999975334E+01 0.  0.
         12    1    1    2    0    0 -0.38654168387E+02  0.28298987323E+01 -0.22955619186E+02  0.45045682509E+02  0.00000000000E+00 0. -1.
         11    1    3    3    0    0  0.20939884361E+02 -0.38737718610E+01  0.78761624176E+01  0.22705039092E+02  0.51100000000E-03 0.  1.
        -11    1    3    3    0    0  0.63970088471E+00  0.18050487195E+00  0.13709599312E+01  0.15235913575E+01  0.51100000000E-03 0. -1.
         12    1    3    3    0    0  0.17074583141E+02  0.86336825673E+00  0.13708496838E+02  0.21913687041E+02  0.00000000000E+00 0. -1.
</event>
<event>
 7    1  0.2243370E-008  0.4614232E+02  0.7816164E-02  0.1320468E+00
        -11   -1    0    0    0    0  0.00000000000E+00  0.00000000000E+00  0.45593999997E+02  0.45594000000E+02  0.51100000000E-03 0. -1.
         11   -1    0    0    0    0 -0.00000000000E+00 -0.00000000000E+00 -0.45593999997E+02  0.45594000000E+02  0.51100000000E-03 0.  1.
    9900012    2    1    2    0    0  0.67978358742E+01  0.24881260566E+02 -0.36930012882E+02  0.46142317062E+02  0.99999936209E+01 0.  0.
         12    1    1    2    0    0 -0.67978358742E+01 -0.24881260566E+02  0.36930012882E+02  0.45045682938E+02  0.00000000000E+00 0. -1.
         11    1    3    3    0    0  0.68835972794E+01  0.11029657422E+02 -0.15292226828E+02  0.20072106416E+02  0.51100000000E-03 0. -1.
        -11    1    3    3    0    0  0.11377744580E+01  0.10564812698E+02 -0.18642127675E+02  0.21457835925E+02  0.51100000000E-03 0.  1.
         12    1    3    3    0    0 -0.12235358632E+01  0.32867904449E+01 -0.29956583792E+01  0.46123747205E+01  0.00000000000E+00 0. -1.
</event>
<event>
 7    1  0.2243370E-008  0.4614231E+02  0.7816164E-02  0.1320468E+00
        -11   -1    0    0    0    0  0.00000000000E+00  0.00000000000E+00  0.45593999997E+02  0.45594000000E+02  0.51100000000E-03 0. -1.
         11   -1    0    0    0    0 -0.00000000000E+00 -0.00000000000E+00 -0.45593999997E+02  0.45594000000E+02  0.51100000000E-03 0.  1.
    9900012    2    1    2    0    0 -0.23914000062E+02 -0.14765612791E+02 -0.35202431369E+02  0.46142313255E+02  0.99999589115E+01 0.  0.
         12    1    1    2    0    0  0.23914000062E+02  0.14765612791E+02  0.35202431369E+02  0.45045686745E+02  0.00000000000E+00 0. -1.
         11    1    3    3    0    0 -0.17329551425E+01 -0.16487933897E+01 -0.32359787620E+01  0.40240790222E+01  0.51100000000E-03 0. -1.
        -11    1    3    3    0    0 -0.98340729168E+01 -0.62283000381E+00 -0.11875109683E+02  0.15430979800E+02  0.51100000000E-03 0.  1.
        -12    1    3    3    0    0 -0.12346972002E+02 -0.12493989397E+02 -0.20091342924E+02  0.26687254433E+02  0.00000000000E+00 0.  1.
</event>
<event>
 7    1  0.2243370E-008  0.4614232E+02  0.7816164E-02  0.1320468E+00
        -11   -1    0    0    0    0  0.00000000000E+00  0.00000000000E+00  0.45593999997E+02  0.45594000000E+02  0.51100000000E-03 0.  1.
         11   -1    0    0    0    0 -0.00000000000E+00 -0.00000000000E+00 -0.45593999997E+02  0.45594000000E+02  0.51100000000E-03 0. -1.
    9900012    2    1    2    0    0  0.14663853828E+02 -0.42310518788E+02 -0.48892335961E+01  0.46142320802E+02  0.10000027732E+02 0.  0.
         12    1    1    2    0    0 -0.14663853828E+02  0.42310518788E+02  0.48892335961E+01  0.45045679198E+02  0.00000000000E+00 0. -1.
         11    1    3    3    0    0  0.85853385784E+00 -0.48073731373E+01 -0.36410215453E+01  0.60913836705E+01  0.51100000000E-03 0. -1.
        -11    1    3    3    0    0  0.16736598896E+01 -0.66659913550E+01  0.27335950546E+00  0.68783212960E+01  0.51100000000E-03 0.  1.
         12    1    3    3    0    0  0.12131660081E+02 -0.30837154296E+02 -0.15215715562E+01  0.33172615836E+02  0.00000000000E+00 0. -1.
</event>
<event>
 7    1  0.2243370E-008  0.4614232E+02  0.7816164E-02  0.1320468E+00
        -11   -1    0    0    0    0  0.00000000000E+00  0.00000000000E+00  0.45593999997E+02  0.45594000000E+02  0.51100000000E-03 0. -1.
         11   -1    0    0    0    0 -0.00000000000E+00 -0.00000000000E+00 -0.45593999997E+02  0.45594000000E+02  0.51100000000E-03 0.  1.
    9900012    2    1    2    0    0  0.39972834963E+02 -0.20596215741E+02 -0.26611617488E+01  0.46142318524E+02  0.10000006953E+02 0.  0.
         12    1    1    2    0    0 -0.39972834963E+02  0.20596215741E+02  0.26611617488E+01  0.45045681476E+02  0.00000000000E+00 0. -1.
         11    1    3    3    0    0  0.14157246299E+01 -0.18713138523E+01  0.86204170506E+00  0.24998415797E+01  0.51100000000E-03 0. -1.
        -11    1    3    3    0    0  0.34817524320E+02 -0.16272637385E+02 -0.53668171322E+01  0.38805430723E+02  0.51100000000E-03 0.  1.
        -12    1    3    3    0    0  0.37395860136E+01 -0.24522645028E+01  0.18436136783E+01  0.48370462205E+01  0.00000000000E+00 0.  1.
</event>
<event>
 7    1  0.2243370E-008  0.4614232E+02  0.7816164E-02  0.1320468E+00
        -11   -1    0    0    0    0  0.00000000000E+00  0.00000000000E+00  0.45593999997E+02  0.45594000000E+02  0.51100000000E-03 0.  1.
         11   -1    0    0    0    0 -0.00000000000E+00 -0.00000000000E+00 -0.45593999997E+02  0.45594000000E+02  0.51100000000E-03 0. -1.
    9900012    2    1    2    0    0 -0.43646626148E+02 -0.97659667490E+01  0.53583046147E+01  0.46142317532E+02  0.99999979103E+01 0.  0.
         12    1    1    2    0    0  0.43646626148E+02  0.97659667490E+01 -0.53583046147E+01  0.45045682468E+02  0.00000000000E+00 0. -1.
         11    1    3    3    0    0 -0.14778332716E+02 -0.47281058157E+01 -0.12783459029E+01  0.15568823686E+02  0.51100000000E-03 0. -1.
        -11    1    3    3    0    0 -0.64755014262E+01 -0.32430640359E+01  0.37208157875E+00  0.72517603397E+01  0.51100000000E-03 0.  1.
        -12    1    3    3    0    0 -0.22392792006E+02 -0.17947968975E+01  0.62645689389E+01  0.23321733506E+02  0.00000000000E+00 0.  1.
</event>
<event>
 7    1  0.2243370E-008  0.4614232E+02  0.7816164E-02  0.1320468E+00
        -11   -1    0    0    0    0  0.00000000000E+00  0.00000000000E+00  0.45593999997E+02  0.45594000000E+02  0.51100000000E-03 0. -1.
         11   -1    0    0    0    0 -0.00000000000E+00 -0.00000000000E+00 -0.45593999997E+02  0.45594000000E+02  0.51100000000E-03 0.  1.
    9900012    2    1    2    0    0  0.74337028004E+01 -0.22236119669E+02  0.38463083252E+02  0.46142315096E+02  0.99999756952E+01 0.  0.
         12    1    1    2    0    0 -0.74337028004E+01  0.22236119669E+02 -0.38463083252E+02  0.45045684904E+02  0.00000000000E+00 0. -1.
         11    1    3    3    0    0  0.25176940715E+00 -0.14139438474E+01  0.64639870235E+01  0.66216126086E+01  0.51100000000E-03 0. -1.
        -11    1    3    3    0    0  0.80208750895E+01 -0.16651785868E+02  0.22539867913E+02  0.29148963199E+02  0.51100000000E-03 0.  1.
        -12    1    3    3    0    0 -0.83894169620E+00 -0.41703899538E+01  0.94592283156E+01  0.10371739288E+02  0.00000000000E+00 0.  1.
</event>
<event>
 7    1  0.2243370E-008  0.4614232E+02  0.7816164E-02  0.1320468E+00
        -11   -1    0    0    0    0  0.00000000000E+00  0.00000000000E+00  0.45593999997E+02  0.45594000000E+02  0.51100000000E-03 0.  1.
         11   -1    0    0    0    0 -0.00000000000E+00 -0.00000000000E+00 -0.45593999997E+02  0.45594000000E+02  0.51100000000E-03 0. -1.
    9900012    2    1    2    0    0 -0.14894129354E+02 -0.39079527174E+01  0.42332093483E+02  0.46142319605E+02  0.10000016811E+02 0.  0.
         12    1    1    2    0    0  0.14894129354E+02  0.39079527174E+01 -0.42332093483E+02  0.45045680395E+02  0.00000000000E+00 0. -1.
         11    1    3    3    0    0  0.39730306444E+00  0.50780292668E-01  0.28625672763E+00  0.49231243979E+00  0.51100000000E-03 0. -1.
        -11    1    3    3    0    0 -0.79346914159E+01  0.21410043440E+01  0.19001088684E+02  0.20702284872E+02  0.51100000000E-03 0.  1.
        -12    1    3    3    0    0 -0.73567410030E+01 -0.60997373540E+01  0.23044748071E+02  0.24947722293E+02  0.00000000000E+00 0.  1.
</event>
<event>
 7    1  0.2243370E-008  0.4614232E+02  0.7816164E-02  0.1320468E+00
        -11   -1    0    0    0    0  0.00000000000E+00  0.00000000000E+00  0.45593999997E+02  0.45594000000E+02  0.51100000000E-03 0.  1.
         11   -1    0    0    0    0 -0.00000000000E+00 -0.00000000000E+00 -0.45593999997E+02  0.45594000000E+02  0.51100000000E-03 0. -1.
    9900012    2    1    2    0    0 -0.29872449519E+02 -0.31787610535E+02  0.11238238927E+02  0.46142318320E+02  0.10000005097E+02 0.  0.
         12    1    1    2    0    0  0.29872449519E+02  0.31787610535E+02 -0.11238238927E+02  0.45045681680E+02  0.00000000000E+00 0. -1.
         11    1    3    3    0    0 -0.22541669117E+01 -0.32132231127E+00  0.12748205036E+01  0.26095371373E+01  0.51100000000E-03 0. -1.
        -11    1    3    3    0    0 -0.70699305702E+01 -0.12755787933E+02  0.36600312374E+01  0.15036285212E+02  0.51100000000E-03 0.  1.
         12    1    3    3    0    0 -0.20548352037E+02 -0.18710500291E+02  0.63033871861E+01  0.28496495971E+02  0.00000000000E+00 0. -1.
</event>
<event>
 7    1  0.2243370E-008  0.4614232E+02  0.7816164E-02  0.1320468E+00
        -11   -1    0    0    0    0  0.00000000000E+00  0.00000000000E+00  0.45593999997E+02  0.45594000000E+02  0.51100000000E-03 0. -1.
         11   -1    0    0    0    0 -0.00000000000E+00 -0.00000000000E+00 -0.45593999997E+02  0.45594000000E+02  0.51100000000E-03 0.  1.
    9900012    2    1    2    0    0  0.22466473317E+02 -0.18930324668E+02 -0.34146944756E+02  0.46142318170E+02  0.10000003728E+02 0.  0.
         12    1    1    2    0    0 -0.22466473317E+02  0.18930324668E+02  0.34146944756E+02  0.45045681830E+02  0.00000000000E+00 0. -1.
         11    1    3    3    0    0  0.91388670145E+01 -0.12657691186E+02 -0.15838587484E+02  0.22239534398E+02  0.51100000000E-03 0. -1.
        -11    1    3    3    0    0  0.12765865538E+00 -0.50471909148E+00 -0.23393642752E+01  0.23965941598E+01  0.51100000000E-03 0.  1.
        -12    1    3    3    0    0  0.13199947647E+02 -0.57679143903E+01 -0.15968992997E+02  0.21506189612E+02  0.00000000000E+00 0.  1.
</event>
<event>
 7    1  0.2243370E-008  0.4614232E+02  0.7816164E-02  0.1320468E+00
        -11   -1    0    0    0    0  0.00000000000E+00  0.00000000000E+00  0.45593999997E+02  0.45594000000E+02  0.51100000000E-03 0.  1.
         11   -1    0    0    0    0 -0.00000000000E+00 -0.00000000000E+00 -0.45593999997E+02  0.45594000000E+02  0.51100000000E-03 0. -1.
    9900012    2    1    2    0    0 -0.14544671904E+02 -0.11259981313E+02  0.41119080729E+02  0.46142318076E+02  0.10000002870E+02 0.  0.
         12    1    1    2    0    0  0.14544671904E+02  0.11259981313E+02 -0.41119080729E+02  0.45045681924E+02  0.00000000000E+00 0. -1.
         11    1    3    3    0    0 -0.36746049797E+01 -0.43543338771E+01  0.23958853799E+02  0.24627009986E+02  0.51100000000E-03 0. -1.
        -11    1    3    3    0    0 -0.81875857625E+01 -0.48951636994E+01  0.13733979127E+02  0.16721883004E+02  0.51100000000E-03 0.  1.
        -12    1    3    3    0    0 -0.26824811621E+01 -0.20104837367E+01  0.34262478038E+01  0.47934250858E+01  0.00000000000E+00 0.  1.
</event>
<event>
 7    1  0.2243370E-008  0.4614232E+02  0.7816164E-02  0.1320468E+00
        -11   -1    0    0    0    0  0.00000000000E+00  0.00000000000E+00  0.45593999997E+02  0.45594000000E+02  0.51100000000E-03 0. -1.
         11   -1    0    0    0    0 -0.00000000000E+00 -0.00000000000E+00 -0.45593999997E+02  0.45594000000E+02  0.51100000000E-03 0.  1.
    9900012    2    1    2    0    0 -0.35507001277E+02 -0.27713040476E+02 -0.59474596181E+00  0.46142317911E+02  0.10000001365E+02 0.  0.
         12    1    1    2    0    0  0.35507001277E+02  0.27713040476E+02  0.59474596181E+00  0.45045682089E+02  0.00000000000E+00 0. -1.
         11    1    3    3    0    0 -0.49665478673E+01 -0.77907263213E+01 -0.20854150487E+00  0.92415098416E+01  0.51100000000E-03 0. -1.
        -11    1    3    3    0    0 -0.89447687633E+01 -0.75529337632E+01  0.20845385542E+01  0.11891215157E+02  0.51100000000E-03 0.  1.
         12    1    3    3    0    0 -0.21595684646E+02 -0.12369380392E+02 -0.24707430111E+01  0.25009592912E+02  0.00000000000E+00 0. -1.
</event>
<event>
 7    1  0.2243370E-008  0.4614232E+02  0.7816164E-02  0.1320468E+00
        -11   -1    0    0    0    0  0.00000000000E+00  0.00000000000E+00  0.45593999997E+02  0.45594000000E+02  0.51100000000E-03 0. -1.
         11   -1    0    0    0    0 -0.00000000000E+00 -0.00000000000E+00 -0.45593999997E+02  0.45594000000E+02  0.51100000000E-03 0.  1.
    9900012    2    1    2    0    0  0.31615034700E+02 -0.18418002925E+02 -0.26275083923E+02  0.46142320008E+02  0.10000020487E+02 0.  0.
         12    1    1    2    0    0 -0.31615034700E+02  0.18418002925E+02  0.26275083923E+02  0.45045679992E+02  0.00000000000E+00 0. -1.
         11    1    3    3    0    0  0.66708429977E+01 -0.68130592406E+01 -0.36993420855E+01  0.10227563475E+02  0.51100000000E-03 0. -1.
        -11    1    3    3    0    0  0.12945385738E+02 -0.34949335196E+01 -0.98854368078E+01  0.16658914531E+02  0.51100000000E-03 0.  1.
        -12    1    3    3    0    0  0.11998805964E+02 -0.81100101651E+01 -0.12690305029E+02  0.19255842001E+02  0.00000000000E+00 0.  1.
</event>
<event>
 7    1  0.2243370E-008  0.4614232E+02  0.7816164E-02  0.1320468E+00
        -11   -1    0    0    0    0  0.00000000000E+00  0.00000000000E+00  0.45593999997E+02  0.45594000000E+02  0.51100000000E-03 0.  1.
         11   -1    0    0    0    0 -0.00000000000E+00 -0.00000000000E+00 -0.45593999997E+02  0.45594000000E+02  0.51100000000E-03 0. -1.
    9900012    2    1    2    0    0 -0.14135201483E+01 -0.36629227866E+02  0.26180432314E+02  0.46142318638E+02  0.10000007992E+02 0.  0.
         12    1    1    2    0    0  0.14135201483E+01  0.36629227866E+02 -0.26180432314E+02  0.45045681362E+02  0.00000000000E+00 0. -1.
         11    1    3    3    0    0  0.18102024052E+01 -0.35504708652E+01  0.32219514767E+01  0.51248070883E+01  0.51100000000E-03 0.  1.
        -11    1    3    3    0    0  0.15421298887E+01 -0.68924137461E+01  0.26717794367E+01  0.75512871393E+01  0.51100000000E-03 0. -1.
        -12    1    3    3    0    0 -0.47658524422E+01 -0.26186343255E+02  0.20286701400E+02  0.33466224410E+02  0.00000000000E+00 0.  1.
</event>
<event>
 7    1  0.2243370E-008  0.4614232E+02  0.7816164E-02  0.1320468E+00
        -11   -1    0    0    0    0  0.00000000000E+00  0.00000000000E+00  0.45593999997E+02  0.45594000000E+02  0.51100000000E-03 0.  1.
         11   -1    0    0    0    0 -0.00000000000E+00 -0.00000000000E+00 -0.45593999997E+02  0.45594000000E+02  0.51100000000E-03 0. -1.
    9900012    2    1    2    0    0  0.26590876346E+02  0.30934967343E+02  0.19106714521E+02  0.46142318196E+02  0.10000003970E+02 0.  0.
         12    1    1    2    0    0 -0.26590876346E+02 -0.30934967343E+02 -0.19106714521E+02  0.45045681804E+02  0.00000000000E+00 0. -1.
         11    1    3    3    0    0 -0.32124110699E+00  0.37878996906E+00  0.11216352034E+01  0.12266798605E+01  0.51100000000E-03 0. -1.
        -11    1    3    3    0    0  0.13760112416E+02  0.11181517769E+02  0.72525277389E+01  0.19156361664E+02  0.51100000000E-03 0.  1.
        -12    1    3    3    0    0  0.13152005036E+02  0.19374659605E+02  0.10732551579E+02  0.25759276672E+02  0.00000000000E+00 0.  1.
</event>
<event>
 7    1  0.2243370E-008  0.4614232E+02  0.7816164E-02  0.1320468E+00
        -11   -1    0    0    0    0  0.00000000000E+00  0.00000000000E+00  0.45593999997E+02  0.45594000000E+02  0.51100000000E-03 0. -1.
         11   -1    0    0    0    0 -0.00000000000E+00 -0.00000000000E+00 -0.45593999997E+02  0.45594000000E+02  0.51100000000E-03 0.  1.
    9900012    2    1    2    0    0  0.13398807967E+02  0.17420995030E+02 -0.39320406253E+02  0.46142317958E+02  0.10000001795E+02 0.  0.
         12    1    1    2    0    0 -0.13398807967E+02 -0.17420995030E+02  0.39320406253E+02  0.45045682042E+02  0.00000000000E+00 0. -1.
         11    1    3    3    0    0  0.28191040106E+01  0.10974235281E+02 -0.21881158585E+02  0.24640744483E+02  0.51100000000E-03 0. -1.
        -11    1    3    3    0    0  0.10906596923E+01  0.10610526558E+01 -0.33676382309E+01  0.36954510980E+01  0.51100000000E-03 0.  1.
        -12    1    3    3    0    0  0.94890442646E+01  0.53857070930E+01 -0.14071609437E+02  0.17806122377E+02  0.00000000000E+00 0.  1.
</event>
<event>
 7    1  0.2243370E-008  0.4614232E+02  0.7816164E-02  0.1320468E+00
        -11   -1    0    0    0    0  0.00000000000E+00  0.00000000000E+00  0.45593999997E+02  0.45594000000E+02  0.51100000000E-03 0.  1.
         11   -1    0    0    0    0 -0.00000000000E+00 -0.00000000000E+00 -0.45593999997E+02  0.45594000000E+02  0.51100000000E-03 0. -1.
    9900012    2    1    2    0    0 -0.96772010993E+01 -0.41306470069E+02  0.15140698365E+02  0.46142318324E+02  0.10000005129E+02 0.  0.
         12    1    1    2    0    0  0.96772010993E+01  0.41306470069E+02 -0.15140698365E+02  0.45045681676E+02  0.00000000000E+00 0. -1.
         11    1    3    3    0    0 -0.71256336303E+01 -0.17219562108E+02  0.44198251558E+01  0.19152619364E+02  0.51100000000E-03 0. -1.
        -11    1    3    3    0    0 -0.37245550308E+01 -0.11158359013E+02  0.45056189428E+01  0.12596899950E+02  0.51100000000E-03 0.  1.
         12    1    3    3    0    0  0.11729875618E+01 -0.12928548948E+02  0.62152542666E+01  0.14392799009E+02  0.00000000000E+00 0. -1.
</event>
<event>
 7    1  0.2243370E-008  0.4614232E+02  0.7816164E-02  0.1320468E+00
        -11   -1    0    0    0    0  0.00000000000E+00  0.00000000000E+00  0.45593999997E+02  0.45594000000E+02  0.51100000000E-03 0.  1.
         11   -1    0    0    0    0 -0.00000000000E+00 -0.00000000000E+00 -0.45593999997E+02  0.45594000000E+02  0.51100000000E-03 0. -1.
    9900012    2    1    2    0    0 -0.23164120516E+02  0.28771544803E+02  0.25782459309E+02  0.46142317880E+02  0.10000001085E+02 0.  0.
         12    1    1    2    0    0  0.23164120516E+02 -0.28771544803E+02 -0.25782459309E+02  0.45045682120E+02  0.00000000000E+00 0. -1.
         11    1    3    3    0    0  0.23671531582E+00 -0.56221120582E-01  0.20243089279E+00  0.31650194726E+00  0.51100000000E-03 0. -1.
        -11    1    3    3    0    0 -0.20004049824E+02  0.19961246025E+02  0.21416587286E+02  0.35458194588E+02  0.51100000000E-03 0.  1.
         12    1    3    3    0    0 -0.33967860074E+01  0.88665198986E+01  0.41634411305E+01  0.10367621344E+02  0.00000000000E+00 0. -1.
</event>
<event>
 7    1  0.2243370E-008  0.4614232E+02  0.7816164E-02  0.1320468E+00
        -11   -1    0    0    0    0  0.00000000000E+00  0.00000000000E+00  0.45593999997E+02  0.45594000000E+02  0.51100000000E-03 0. -1.
         11   -1    0    0    0    0 -0.00000000000E+00 -0.00000000000E+00 -0.45593999997E+02  0.45594000000E+02  0.51100000000E-03 0.  1.
    9900012    2    1    2    0    0  0.26362823116E+01  0.40754362629E+02 -0.19006458910E+02  0.46142317210E+02  0.99999949774E+01 0.  0.
         12    1    1    2    0    0 -0.26362823116E+01 -0.40754362629E+02  0.19006458910E+02  0.45045682790E+02  0.00000000000E+00 0. -1.
         11    1    3    3    0    0 -0.16302045798E+01  0.25563157317E+01 -0.10064312877E+01  0.31945612046E+01  0.51100000000E-03 0. -1.
        -11    1    3    3    0    0  0.16476508351E+00  0.36020655211E+01  0.25800298307E+00  0.36150503941E+01  0.51100000000E-03 0.  1.
        -12    1    3    3    0    0  0.41017218079E+01  0.34595981376E+02 -0.18258030605E+02  0.39332705612E+02  0.00000000000E+00 0.  1.
</event>
<event>
 7    1  0.2243370E-008  0.4614231E+02  0.7816164E-02  0.1320468E+00
        -11   -1    0    0    0    0  0.00000000000E+00  0.00000000000E+00  0.45593999997E+02  0.45594000000E+02  0.51100000000E-03 0.  1.
         11   -1    0    0    0    0 -0.00000000000E+00 -0.00000000000E+00 -0.45593999997E+02  0.45594000000E+02  0.51100000000E-03 0. -1.
    9900012    2    1    2    0    0  0.17311658474E+02  0.10702719243E+02  0.40185477014E+02  0.46142308961E+02  0.99999197520E+01 0.  0.
         12    1    1    2    0    0 -0.17311658474E+02 -0.10702719243E+02 -0.40185477014E+02  0.45045691039E+02  0.00000000000E+00 0. -1.
         11    1    3    3    0    0  0.34039364408E+01  0.18982744498E+01  0.50084047127E+01  0.63462073089E+01  0.51100000000E-03 0. -1.
        -11    1    3    3    0    0  0.70178826424E+01  0.38541648136E+01  0.79707832106E+01  0.11297727579E+02  0.51100000000E-03 0.  1.
         12    1    3    3    0    0  0.68898393909E+01  0.49502799796E+01  0.27206289091E+02  0.28498374073E+02  0.00000000000E+00 0. -1.
</event>
<event>
 7    1  0.2243370E-008  0.4614232E+02  0.7816164E-02  0.1320468E+00
        -11   -1    0    0    0    0  0.00000000000E+00  0.00000000000E+00  0.45593999997E+02  0.45594000000E+02  0.51100000000E-03 0. -1.
         11   -1    0    0    0    0 -0.00000000000E+00 -0.00000000000E+00 -0.45593999997E+02  0.45594000000E+02  0.51100000000E-03 0.  1.
    9900012    2    1    2    0    0  0.20715561335E+02  0.10724884498E+02 -0.38535124793E+02  0.46142317946E+02  0.10000001682E+02 0.  0.
         12    1    1    2    0    0 -0.20715561335E+02 -0.10724884498E+02  0.38535124793E+02  0.45045682054E+02  0.00000000000E+00 0. -1.
         11    1    3    3    0    0  0.22470709955E+01  0.19792313990E+01 -0.10496514690E+01  0.31730826426E+01  0.51100000000E-03 0. -1.
        -11    1    3    3    0    0  0.10158729014E+02  0.72845748554E+01 -0.20677176789E+02  0.24162169733E+02  0.51100000000E-03 0.  1.
         12    1    3    3    0    0  0.83097613253E+01  0.14610782437E+01 -0.16808296536E+02  0.18807065570E+02  0.00000000000E+00 0. -1.
</event>
<event>
 7    1  0.2243370E-008  0.4614232E+02  0.7816164E-02  0.1320468E+00
        -11   -1    0    0    0    0  0.00000000000E+00  0.00000000000E+00  0.45593999997E+02  0.45594000000E+02  0.51100000000E-03 0.  1.
         11   -1    0    0    0    0 -0.00000000000E+00 -0.00000000000E+00 -0.45593999997E+02  0.45594000000E+02  0.51100000000E-03 0. -1.
    9900012    2    1    2    0    0 -0.34999592249E+01 -0.42878219550E+02 -0.13353728765E+02  0.46142317651E+02  0.99999989933E+01 0.  0.
         12    1    1    2    0    0  0.34999592249E+01  0.42878219550E+02  0.13353728765E+02  0.45045682349E+02  0.00000000000E+00 0. -1.
         11    1    3    3    0    0 -0.20165562591E+01 -0.29953434238E+02 -0.10827522645E+02  0.31914102974E+02  0.51100000000E-03 0. -1.
        -11    1    3    3    0    0 -0.19166128023E+01 -0.12936032172E+02 -0.31664123257E+01  0.13455129144E+02  0.51100000000E-03 0.  1.
         12    1    3    3    0    0  0.43320983648E+00  0.11246859352E-01  0.64020620620E+00  0.77308553260E+00  0.00000000000E+00 0. -1.
</event>
<event>
 7    1  0.2243370E-008  0.4614232E+02  0.7816164E-02  0.1320468E+00
        -11   -1    0    0    0    0  0.00000000000E+00  0.00000000000E+00  0.45593999997E+02  0.45594000000E+02  0.51100000000E-03 0.  1.
         11   -1    0    0    0    0 -0.00000000000E+00 -0.00000000000E+00 -0.45593999997E+02  0.45594000000E+02  0.51100000000E-03 0. -1.
    9900012    2    1    2    0    0  0.23507109632E+02  0.34679942389E+02  0.16547830925E+02  0.46142319678E+02  0.10000017480E+02 0.  0.
         12    1    1    2    0    0 -0.23507109632E+02 -0.34679942389E+02 -0.16547830925E+02  0.45045680322E+02  0.00000000000E+00 0. -1.
         11    1    3    3    0    0  0.34201019977E+01  0.49087948497E+01 -0.26084481307E+00  0.59884392648E+01  0.51100000000E-03 0. -1.
        -11    1    3    3    0    0  0.11267329261E+02  0.11348575597E+02  0.63454447095E+01  0.17204869822E+02  0.51100000000E-03 0.  1.
        -12    1    3    3    0    0  0.88196783729E+01  0.18422571942E+02  0.10463231029E+02  0.22949010591E+02  0.00000000000E+00 0.  1.
</event>
<event>
 7    1  0.2243370E-008  0.4614232E+02  0.7816164E-02  0.1320468E+00
        -11   -1    0    0    0    0  0.00000000000E+00  0.00000000000E+00  0.45593999997E+02  0.45594000000E+02  0.51100000000E-03 0.  1.
         11   -1    0    0    0    0 -0.00000000000E+00 -0.00000000000E+00 -0.45593999997E+02  0.45594000000E+02  0.51100000000E-03 0. -1.
    9900012    2    1    2    0    0 -0.36354309415E+02 -0.12189193527E+02  0.23641092609E+02  0.46142317503E+02  0.99999976449E+01 0.  0.
         12    1    1    2    0    0  0.36354309415E+02  0.12189193527E+02 -0.23641092609E+02  0.45045682497E+02  0.00000000000E+00 0. -1.
         11    1    3    3    0    0 -0.15887232361E+02 -0.95082230542E+01  0.10627524905E+02  0.21348413140E+02  0.51100000000E-03 0. -1.
        -11    1    3    3    0    0 -0.28433717125E+01  0.11524429289E+01  0.18455378666E+01  0.35803488207E+01  0.51100000000E-03 0.  1.
        -12    1    3    3    0    0 -0.17623705342E+02 -0.38334134017E+01  0.11168029837E+02  0.21213555542E+02  0.00000000000E+00 0.  1.
</event>
<event>
 7    1  0.2243370E-008  0.4614232E+02  0.7816164E-02  0.1320468E+00
        -11   -1    0    0    0    0  0.00000000000E+00  0.00000000000E+00  0.45593999997E+02  0.45594000000E+02  0.51100000000E-03 0.  1.
         11   -1    0    0    0    0 -0.00000000000E+00 -0.00000000000E+00 -0.45593999997E+02  0.45594000000E+02  0.51100000000E-03 0. -1.
    9900012    2    1    2    0    0  0.48811700068E+01 -0.25737716227E+02  0.36645024150E+02  0.46142315943E+02  0.99999834223E+01 0.  0.
         12    1    1    2    0    0 -0.48811700068E+01  0.25737716227E+02 -0.36645024150E+02  0.45045684057E+02  0.00000000000E+00 0. -1.
         11    1    3    3    0    0  0.18944200004E+01 -0.35911960890E+01  0.93448645146E+01  0.10188817868E+02  0.51100000000E-03 0. -1.
        -11    1    3    3    0    0  0.39593016169E+01 -0.98438495124E+01  0.91821132695E+01  0.14031701496E+02  0.51100000000E-03 0.  1.
         12    1    3    3    0    0 -0.97255161053E+00 -0.12302670626E+02  0.18118046366E+02  0.21921796579E+02  0.00000000000E+00 0. -1.
</event>
<event>
 7    1  0.2243370E-008  0.4614232E+02  0.7816164E-02  0.1320468E+00
        -11   -1    0    0    0    0  0.00000000000E+00  0.00000000000E+00  0.45593999997E+02  0.45594000000E+02  0.51100000000E-03 0. -1.
         11   -1    0    0    0    0 -0.00000000000E+00 -0.00000000000E+00 -0.45593999997E+02  0.45594000000E+02  0.51100000000E-03 0.  1.
    9900012    2    1    2    0    0 -0.29625664139E+02  0.33267508000E+02  0.66862903367E+01  0.46142317158E+02  0.99999945014E+01 0.  0.
         12    1    1    2    0    0  0.29625664139E+02 -0.33267508000E+02 -0.66862903367E+01  0.45045682842E+02  0.00000000000E+00 0. -1.
         11    1    3    3    0    0 -0.36925273384E+01  0.87427709577E+01  0.34005726143E+01  0.10081403500E+02  0.51100000000E-03 0. -1.
        -11    1    3    3    0    0 -0.77711914504E+01  0.97092676484E+01  0.19116913065E+01  0.12582363003E+02  0.51100000000E-03 0.  1.
         12    1    3    3    0    0 -0.18161945350E+02  0.14815469394E+02  0.13740264159E+01  0.23478550655E+02  0.00000000000E+00 0. -1.
</event>
<event>
 7    1  0.2243370E-008  0.4614232E+02  0.7816164E-02  0.1320468E+00
        -11   -1    0    0    0    0  0.00000000000E+00  0.00000000000E+00  0.45593999997E+02  0.45594000000E+02  0.51100000000E-03 0.  1.
         11   -1    0    0    0    0 -0.00000000000E+00 -0.00000000000E+00 -0.45593999997E+02  0.45594000000E+02  0.51100000000E-03 0. -1.
    9900012    2    1    2    0    0 -0.73035117074E+01  0.28667501622E+02  0.33969787057E+02  0.46142319128E+02  0.10000012465E+02 0.  0.
         12    1    1    2    0    0  0.73035117074E+01 -0.28667501622E+02 -0.33969787057E+02  0.45045680872E+02  0.00000000000E+00 0. -1.
         11    1    3    3    0    0 -0.51490237472E+00  0.27854272422E+01  0.24565296637E+01  0.37494356411E+01  0.51100000000E-03 0. -1.
        -11    1    3    3    0    0 -0.32313800595E+01  0.14337789298E+02  0.10185768228E+02  0.17881943230E+02  0.51100000000E-03 0.  1.
         12    1    3    3    0    0 -0.35572292732E+01  0.11544285082E+02  0.21327489166E+02  0.24510940257E+02  0.00000000000E+00 0. -1.
</event>
<event>
 7    1  0.2243370E-008  0.4614232E+02  0.7816164E-02  0.1320468E+00
        -11   -1    0    0    0    0  0.00000000000E+00  0.00000000000E+00  0.45593999997E+02  0.45594000000E+02  0.51100000000E-03 0. -1.
         11   -1    0    0    0    0 -0.00000000000E+00 -0.00000000000E+00 -0.45593999997E+02  0.45594000000E+02  0.51100000000E-03 0.  1.
    9900012    2    1    2    0    0  0.15503674169E+01  0.35737924551E+02 -0.27377191450E+02  0.46142317610E+02  0.99999986226E+01 0.  0.
         12    1    1    2    0    0 -0.15503674169E+01 -0.35737924551E+02  0.27377191450E+02  0.45045682390E+02  0.00000000000E+00 0. -1.
         11    1    3    3    0    0  0.21392981847E+00  0.39421001770E+01 -0.57194443386E+01  0.69496736309E+01  0.51100000000E-03 0. -1.
        -11    1    3    3    0    0 -0.22519486921E+01  0.16818398316E+02 -0.87178927006E+01  0.19076987399E+02  0.51100000000E-03 0.  1.
         12    1    3    3    0    0  0.35883862905E+01  0.14977426057E+02 -0.12939854410E+02  0.20115656580E+02  0.00000000000E+00 0. -1.
</event>
<event>
 7    1  0.2243370E-008  0.4614232E+02  0.7816164E-02  0.1320468E+00
        -11   -1    0    0    0    0  0.00000000000E+00  0.00000000000E+00  0.45593999997E+02  0.45594000000E+02  0.51100000000E-03 0.  1.
         11   -1    0    0    0    0 -0.00000000000E+00 -0.00000000000E+00 -0.45593999997E+02  0.45594000000E+02  0.51100000000E-03 0. -1.
    9900012    2    1    2    0    0  0.25062438589E+02 -0.30035402414E+02  0.22335221309E+02  0.46142319440E+02  0.10000015310E+02 0.  0.
         12    1    1    2    0    0 -0.25062438589E+02  0.30035402414E+02 -0.22335221309E+02  0.45045680560E+02  0.00000000000E+00 0. -1.
         11    1    3    3    0    0  0.34329044540E+01 -0.76862055170E+01  0.43976282299E+01  0.94974587417E+01  0.51100000000E-03 0. -1.
        -11    1    3    3    0    0  0.20302803942E+02 -0.21715657835E+02  0.14862863663E+02  0.33236701997E+02  0.51100000000E-03 0.  1.
         12    1    3    3    0    0  0.13267301933E+01 -0.63353906137E+00  0.30747294170E+01  0.34081587016E+01  0.00000000000E+00 0. -1.
</event>
<event>
 7    1  0.2243370E-008  0.4614232E+02  0.7816164E-02  0.1320468E+00
        -11   -1    0    0    0    0  0.00000000000E+00  0.00000000000E+00  0.45593999997E+02  0.45594000000E+02  0.51100000000E-03 0.  1.
         11   -1    0    0    0    0 -0.00000000000E+00 -0.00000000000E+00 -0.45593999997E+02  0.45594000000E+02  0.51100000000E-03 0. -1.
    9900012    2    1    2    0    0  0.31806829295E+02 -0.20291414045E+02  0.24610923661E+02  0.46142318330E+02  0.10000005183E+02 0.  0.
         12    1    1    2    0    0 -0.31806829295E+02  0.20291414045E+02 -0.24610923661E+02  0.45045681670E+02  0.00000000000E+00 0. -1.
         11    1    3    3    0    0  0.45102315063E+01 -0.16868589537E+01  0.33516186097E+01  0.58669437476E+01  0.51100000000E-03 0. -1.
        -11    1    3    3    0    0  0.18253201141E+02 -0.10055495010E+02  0.17672437340E+02  0.27324117069E+02  0.51100000000E-03 0.  1.
        -12    1    3    3    0    0  0.90433966471E+01 -0.85490600816E+01  0.35868677107E+01  0.12951257513E+02  0.00000000000E+00 0.  1.
</event>
<event>
 7    1  0.2243370E-008  0.4614232E+02  0.7816164E-02  0.1320468E+00
        -11   -1    0    0    0    0  0.00000000000E+00  0.00000000000E+00  0.45593999997E+02  0.45594000000E+02  0.51100000000E-03 0.  1.
         11   -1    0    0    0    0 -0.00000000000E+00 -0.00000000000E+00 -0.45593999997E+02  0.45594000000E+02  0.51100000000E-03 0. -1.
    9900012    2    1    2    0    0  0.43743571610E+02  0.80722100395E+01  0.71030323131E+01  0.46142315411E+02  0.99999785654E+01 0.  0.
         12    1    1    2    0    0 -0.43743571610E+02 -0.80722100395E+01 -0.71030323131E+01  0.45045684589E+02  0.00000000000E+00 0. -1.
         11    1    3    3    0    0  0.16214826100E+02  0.73833771868E+01  0.38893205448E+01  0.18236273159E+02  0.51100000000E-03 0. -1.
        -11    1    3    3    0    0  0.14432272965E+02  0.29458026750E+00  0.32810455354E+01  0.14803463802E+02  0.51100000000E-03 0.  1.
         12    1    3    3    0    0  0.13096472544E+02  0.39425258524E+00 -0.67333767084E-01  0.13102578450E+02  0.00000000000E+00 0. -1.
</event>
<event>
 7    1  0.2243370E-008  0.4614232E+02  0.7816164E-02  0.1320468E+00
        -11   -1    0    0    0    0  0.00000000000E+00  0.00000000000E+00  0.45593999997E+02  0.45594000000E+02  0.51100000000E-03 0.  1.
         11   -1    0    0    0    0 -0.00000000000E+00 -0.00000000000E+00 -0.45593999997E+02  0.45594000000E+02  0.51100000000E-03 0. -1.
    9900012    2    1    2    0    0 -0.33782183530E+02  0.29011878794E+02  0.67962080053E+01  0.46142317871E+02  0.10000001000E+02 0.  0.
         12    1    1    2    0    0  0.33782183530E+02 -0.29011878794E+02 -0.67962080053E+01  0.45045682129E+02  0.00000000000E+00 0. -1.
         11    1    3    3    0    0 -0.11754641401E+01 -0.48542720481E+00 -0.34793225623E-01  0.12722288888E+01  0.51100000000E-03 0. -1.
        -11    1    3    3    0    0 -0.21307986309E+02  0.22817350815E+02  0.46231958643E+01  0.31560033572E+02  0.51100000000E-03 0.  1.
        -12    1    3    3    0    0 -0.11298733081E+02  0.66799551836E+01  0.22078053667E+01  0.13310055410E+02  0.00000000000E+00 0.  1.
</event>
<event>
 7    1  0.2243370E-008  0.4614232E+02  0.7816164E-02  0.1320468E+00
        -11   -1    0    0    0    0  0.00000000000E+00  0.00000000000E+00  0.45593999997E+02  0.45594000000E+02  0.51100000000E-03 0.  1.
         11   -1    0    0    0    0 -0.00000000000E+00 -0.00000000000E+00 -0.45593999997E+02  0.45594000000E+02  0.51100000000E-03 0. -1.
    9900012    2    1    2    0    0 -0.35850338464E+02  0.10661052275E+02  0.25103955683E+02  0.46142318803E+02  0.10000009500E+02 0.  0.
         12    1    1    2    0    0  0.35850338464E+02 -0.10661052275E+02 -0.25103955683E+02  0.45045681197E+02  0.00000000000E+00 0. -1.
         11    1    3    3    0    0 -0.76962170248E+01  0.51547429275E+01  0.56416161028E+01  0.10845780915E+02  0.51100000000E-03 0. -1.
        -11    1    3    3    0    0 -0.18014315454E+02  0.61294718089E+01  0.10411926467E+02  0.21690878243E+02  0.51100000000E-03 0.  1.
        -12    1    3    3    0    0 -0.10139805985E+02 -0.62316246101E+00  0.90504131124E+01  0.13605659645E+02  0.00000000000E+00 0.  1.
</event>
<event>
 7    1  0.2243370E-008  0.4614232E+02  0.7816164E-02  0.1320468E+00
        -11   -1    0    0    0    0  0.00000000000E+00  0.00000000000E+00  0.45593999997E+02  0.45594000000E+02  0.51100000000E-03 0.  1.
         11   -1    0    0    0    0 -0.00000000000E+00 -0.00000000000E+00 -0.45593999997E+02  0.45594000000E+02  0.51100000000E-03 0. -1.
    9900012    2    1    2    0    0 -0.12429257623E+01  0.35666089999E+02  0.27486337037E+02  0.46142316922E+02  0.99999923442E+01 0.  0.
         12    1    1    2    0    0  0.12429257623E+01 -0.35666089999E+02 -0.27486337037E+02  0.45045683078E+02  0.00000000000E+00 0. -1.
         11    1    3    3    0    0 -0.49144955650E+00  0.10738268316E+01  0.23404856977E+01  0.26215454017E+01  0.51100000000E-03 0. -1.
        -11    1    3    3    0    0 -0.10756806055E+00  0.13676394976E+02  0.14886277494E+02  0.20215256820E+02  0.51100000000E-03 0.  1.
        -12    1    3    3    0    0 -0.64390814523E+00  0.20915868192E+02  0.10259573846E+02  0.23305514700E+02  0.00000000000E+00 0.  1.
</event>
<event>
 7    1  0.2243370E-008  0.4614232E+02  0.7816164E-02  0.1320468E+00
        -11   -1    0    0    0    0  0.00000000000E+00  0.00000000000E+00  0.45593999997E+02  0.45594000000E+02  0.51100000000E-03 0.  1.
         11   -1    0    0    0    0 -0.00000000000E+00 -0.00000000000E+00 -0.45593999997E+02  0.45594000000E+02  0.51100000000E-03 0. -1.
    9900012    2    1    2    0    0 -0.35788132909E+02 -0.66497171098E+01  0.26534957772E+02  0.46142321198E+02  0.10000031338E+02 0.  0.
         12    1    1    2    0    0  0.35788132909E+02  0.66497171098E+01 -0.26534957772E+02  0.45045678802E+02  0.00000000000E+00 0. -1.
         11    1    3    3    0    0 -0.73810869880E+01  0.21943401101E+01  0.34885772594E+01  0.84537414911E+01  0.51100000000E-03 0. -1.
        -11    1    3    3    0    0 -0.12162351073E+02 -0.28817318953E+01  0.90282975267E+01  0.15418732725E+02  0.51100000000E-03 0.  1.
         12    1    3    3    0    0 -0.16244694848E+02 -0.59623253246E+01  0.14018082986E+02  0.22269846982E+02  0.00000000000E+00 0. -1.
</event>
<event>
 7    1  0.2243370E-008  0.4614232E+02  0.7816164E-02  0.1320468E+00
        -11   -1    0    0    0    0  0.00000000000E+00  0.00000000000E+00  0.45593999997E+02  0.45594000000E+02  0.51100000000E-03 0.  1.
         11   -1    0    0    0    0 -0.00000000000E+00 -0.00000000000E+00 -0.45593999997E+02  0.45594000000E+02  0.51100000000E-03 0. -1.
    9900012    2    1    2    0    0  0.15467345069E+02 -0.37164925564E+02  0.20214920177E+02  0.46142318149E+02  0.10000003536E+02 0.  0.
         12    1    1    2    0    0 -0.15467345069E+02  0.37164925564E+02 -0.20214920177E+02  0.45045681851E+02  0.00000000000E+00 0. -1.
         11    1    3    3    0    0  0.94098095635E+01 -0.20672124004E+02  0.78901795712E+01  0.24044462165E+02  0.51100000000E-03 0.  1.
        -11    1    3    3    0    0  0.60646481806E+01 -0.14909117815E+02  0.12661611475E+02  0.20478724496E+02  0.51100000000E-03 0. -1.
        -12    1    3    3    0    0 -0.71126751528E-02 -0.15836837451E+01 -0.33687086880E+00  0.16191314885E+01  0.00000000000E+00 0.  1.
</event>
<event>
 7    1  0.2243370E-008  0.4614232E+02  0.7816164E-02  0.1320468E+00
        -11   -1    0    0    0    0  0.00000000000E+00  0.00000000000E+00  0.45593999997E+02  0.45594000000E+02  0.51100000000E-03 0. -1.
         11   -1    0    0    0    0 -0.00000000000E+00 -0.00000000000E+00 -0.45593999997E+02  0.45594000000E+02  0.51100000000E-03 0.  1.
    9900012    2    1    2    0    0  0.25027175796E+02 -0.23644299089E+02 -0.29046532374E+02  0.46142318179E+02  0.10000003812E+02 0.  0.
         12    1    1    2    0    0 -0.25027175796E+02  0.23644299089E+02  0.29046532374E+02  0.45045681821E+02  0.00000000000E+00 0. -1.
         11    1    3    3    0    0  0.16072692437E+00 -0.18882746069E+00 -0.68766717604E-01  0.25732873275E+00  0.51100000000E-03 0. -1.
        -11    1    3    3    0    0 -0.24426697813E+00 -0.13319809870E+01  0.33653380788E+00  0.13953834496E+01  0.51100000000E-03 0.  1.
        -12    1    3    3    0    0  0.25110715850E+02 -0.22123490641E+02 -0.29314299465E+02  0.44489605997E+02  0.00000000000E+00 0.  1.
</event>
<event>
 7    1  0.2243370E-008  0.4614232E+02  0.7816164E-02  0.1320468E+00
        -11   -1    0    0    0    0  0.00000000000E+00  0.00000000000E+00  0.45593999997E+02  0.45594000000E+02  0.51100000000E-03 0.  1.
         11   -1    0    0    0    0 -0.00000000000E+00 -0.00000000000E+00 -0.45593999997E+02  0.45594000000E+02  0.51100000000E-03 0. -1.
    9900012    2    1    2    0    0 -0.12394837927E+02 -0.39794533821E+02  0.17084393006E+02  0.46142318591E+02  0.10000007563E+02 0.  0.
         12    1    1    2    0    0  0.12394837927E+02  0.39794533821E+02 -0.17084393006E+02  0.45045681409E+02  0.00000000000E+00 0. -1.
         11    1    3    3    0    0 -0.35922154951E+00 -0.13558710778E+02  0.44937482796E+01  0.14288507688E+02  0.51100000000E-03 0. -1.
        -11    1    3    3    0    0 -0.56818762041E+01 -0.17832619541E+02  0.84356441143E+01  0.20529153143E+02  0.51100000000E-03 0.  1.
         12    1    3    3    0    0 -0.63537401731E+01 -0.84032035023E+01  0.41550006121E+01  0.11324657760E+02  0.00000000000E+00 0. -1.
</event>
<event>
 7    1  0.2243370E-008  0.4614232E+02  0.7816164E-02  0.1320468E+00
        -11   -1    0    0    0    0  0.00000000000E+00  0.00000000000E+00  0.45593999997E+02  0.45594000000E+02  0.51100000000E-03 0.  1.
         11   -1    0    0    0    0 -0.00000000000E+00 -0.00000000000E+00 -0.45593999997E+02  0.45594000000E+02  0.51100000000E-03 0. -1.
    9900012    2    1    2    0    0  0.26720884113E+02  0.20444130460E+02  0.29952385090E+02  0.46142317736E+02  0.99999997721E+01 0.  0.
         12    1    1    2    0    0 -0.26720884113E+02 -0.20444130460E+02 -0.29952385090E+02  0.45045682264E+02  0.00000000000E+00 0. -1.
         11    1    3    3    0    0  0.26792975034E+00  0.11957500189E+01  0.39951578343E+01  0.41788623860E+01  0.51100000000E-03 0. -1.
        -11    1    3    3    0    0  0.18140617204E+02  0.14000685263E+02  0.20348275174E+02  0.30645611158E+02  0.51100000000E-03 0.  1.
        -12    1    3    3    0    0  0.83123371587E+01  0.52476951780E+01  0.56089520810E+01  0.11317844193E+02  0.00000000000E+00 0.  1.
</event>
<event>
 7    1  0.2243370E-008  0.4614232E+02  0.7816164E-02  0.1320468E+00
        -11   -1    0    0    0    0  0.00000000000E+00  0.00000000000E+00  0.45593999997E+02  0.45594000000E+02  0.51100000000E-03 0. -1.
         11   -1    0    0    0    0 -0.00000000000E+00 -0.00000000000E+00 -0.45593999997E+02  0.45594000000E+02  0.51100000000E-03 0.  1.
    9900012    2    1    2    0    0  0.41012557564E+02  0.18042321845E+02  0.46430827826E+01  0.46142317929E+02  0.10000001532E+02 0.  0.
         12    1    1    2    0    0 -0.41012557564E+02 -0.18042321845E+02 -0.46430827826E+01  0.45045682071E+02  0.00000000000E+00 0. -1.
         11    1    3    3    0    0  0.16939221136E+02  0.10661044183E+02  0.63531010608E+00  0.20024951809E+02  0.51100000000E-03 0.  1.
        -11    1    3    3    0    0  0.45281477715E+01 -0.47699457818E+00  0.19436778405E+01  0.49507100377E+01  0.51100000000E-03 0. -1.
         12    1    3    3    0    0  0.19545188656E+02  0.78582722408E+01  0.20640948360E+01  0.21166656082E+02  0.00000000000E+00 0. -1.
</event>
<event>
 7    1  0.2243370E-008  0.4614232E+02  0.7816164E-02  0.1320468E+00
        -11   -1    0    0    0    0  0.00000000000E+00  0.00000000000E+00  0.45593999997E+02  0.45594000000E+02  0.51100000000E-03 0. -1.
         11   -1    0    0    0    0 -0.00000000000E+00 -0.00000000000E+00 -0.45593999997E+02  0.45594000000E+02  0.51100000000E-03 0.  1.
    9900012    2    1    2    0    0  0.52199340387E+01  0.26062201303E+00 -0.44741457500E+02  0.46142315918E+02  0.99999831885E+01 0.  0.
         12    1    1    2    0    0 -0.52199340387E+01 -0.26062201303E+00  0.44741457500E+02  0.45045684082E+02  0.00000000000E+00 0. -1.
         11    1    3    3    0    0  0.22402373616E+01  0.17029759501E+01 -0.34074628358E+01  0.44192299964E+01  0.51100000000E-03 0. -1.
        -11    1    3    3    0    0  0.20929973035E+01 -0.10354543330E+01 -0.70789055102E+01  0.74541067119E+01  0.51100000000E-03 0.  1.
        -12    1    3    3    0    0  0.88669937358E+00 -0.40689960400E+00 -0.34255089154E+02  0.34268979209E+02  0.00000000000E+00 0.  1.
</event>
<event>
 7    1  0.2243370E-008  0.4614232E+02  0.7816164E-02  0.1320468E+00
        -11   -1    0    0    0    0  0.00000000000E+00  0.00000000000E+00  0.45593999997E+02  0.45594000000E+02  0.51100000000E-03 0. -1.
         11   -1    0    0    0    0 -0.00000000000E+00 -0.00000000000E+00 -0.45593999997E+02  0.45594000000E+02  0.51100000000E-03 0.  1.
    9900012    2    1    2    0    0  0.11792119199E+02  0.24253652839E+02 -0.36080741849E+02  0.46142315594E+02  0.99999802380E+01 0.  0.
         12    1    1    2    0    0 -0.11792119199E+02 -0.24253652839E+02  0.36080741849E+02  0.45045684406E+02  0.00000000000E+00 0. -1.
         11    1    3    3    0    0  0.13185866179E+01 -0.41057106324E+00 -0.33429723951E+01  0.36170020683E+01  0.51100000000E-03 0. -1.
        -11    1    3    3    0    0  0.88701067263E+01  0.22793878799E+02 -0.31105421309E+02  0.39570025766E+02  0.51100000000E-03 0.  1.
        -12    1    3    3    0    0  0.16034258550E+01  0.18703451028E+01 -0.16323481451E+01  0.29552877597E+01  0.00000000000E+00 0.  1.
</event>
<event>
 7    1  0.2243370E-008  0.4614232E+02  0.7816164E-02  0.1320468E+00
        -11   -1    0    0    0    0  0.00000000000E+00  0.00000000000E+00  0.45593999997E+02  0.45594000000E+02  0.51100000000E-03 0. -1.
         11   -1    0    0    0    0 -0.00000000000E+00 -0.00000000000E+00 -0.45593999997E+02  0.45594000000E+02  0.51100000000E-03 0.  1.
    9900012    2    1    2    0    0  0.86721771040E+01 -0.44084640864E+02 -0.32328445120E+01  0.46142317638E+02  0.99999988776E+01 0.  0.
         12    1    1    2    0    0 -0.86721771040E+01  0.44084640864E+02  0.32328445120E+01  0.45045682362E+02  0.00000000000E+00 0. -1.
         11    1    3    3    0    0  0.20524122070E+00 -0.15753872259E+01 -0.78034127269E+00  0.17700004614E+01  0.51100000000E-03 0. -1.
        -11    1    3    3    0    0  0.66035674422E+01 -0.28159209078E+02 -0.58487815262E+01  0.29508581878E+02  0.51100000000E-03 0.  1.
         12    1    3    3    0    0  0.18633684411E+01 -0.14350044560E+02  0.33962782869E+01  0.14863735299E+02  0.00000000000E+00 0. -1.
</event>
<event>
 7    1  0.2243370E-008  0.4614232E+02  0.7816164E-02  0.1320468E+00
        -11   -1    0    0    0    0  0.00000000000E+00  0.00000000000E+00  0.45593999997E+02  0.45594000000E+02  0.51100000000E-03 0.  1.
         11   -1    0    0    0    0 -0.00000000000E+00 -0.00000000000E+00 -0.45593999997E+02  0.45594000000E+02  0.51100000000E-03 0. -1.
    9900012    2    1    2    0    0 -0.11268295608E+02  0.36965594987E+02  0.23144844236E+02  0.46142317484E+02  0.99999974708E+01 0.  0.
         12    1    1    2    0    0  0.11268295608E+02 -0.36965594987E+02 -0.23144844236E+02  0.45045682516E+02  0.00000000000E+00 0. -1.
         11    1    3    3    0    0  0.64188873151E+00  0.20016127134E+01 -0.55465006021E+00  0.21739621774E+01  0.51100000000E-03 0. -1.
        -11    1    3    3    0    0 -0.10879839234E+01  0.59315116227E+01  0.44041717310E+01  0.74674807027E+01  0.51100000000E-03 0.  1.
        -12    1    3    3    0    0 -0.10822200417E+02  0.29032470650E+02  0.19295322566E+02  0.36500874604E+02  0.00000000000E+00 0.  1.
</event>
<event>
 7    1  0.2243370E-008  0.4614232E+02  0.7816164E-02  0.1320468E+00
        -11   -1    0    0    0    0  0.00000000000E+00  0.00000000000E+00  0.45593999997E+02  0.45594000000E+02  0.51100000000E-03 0.  1.
         11   -1    0    0    0    0 -0.00000000000E+00 -0.00000000000E+00 -0.45593999997E+02  0.45594000000E+02  0.51100000000E-03 0. -1.
    9900012    2    1    2    0    0 -0.45697099544E+01 -0.27388190089E+02  0.35469964711E+02  0.46142316499E+02  0.99999884932E+01 0.  0.
         12    1    1    2    0    0  0.45697099544E+01  0.27388190089E+02 -0.35469964711E+02  0.45045683501E+02  0.00000000000E+00 0. -1.
         11    1    3    3    0    0  0.15624735740E+00 -0.16221383087E+01 -0.23961218071E+00  0.16471673223E+01  0.51100000000E-03 0. -1.
        -11    1    3    3    0    0 -0.97479986971E+00 -0.16599460745E+02  0.21710497919E+02  0.27346627798E+02  0.51100000000E-03 0.  1.
         12    1    3    3    0    0 -0.37511574420E+01 -0.91665910358E+01  0.13999078973E+02  0.17148521379E+02  0.00000000000E+00 0. -1.
</event>
<event>
 7    1  0.2243370E-008  0.4614232E+02  0.7816164E-02  0.1320468E+00
        -11   -1    0    0    0    0  0.00000000000E+00  0.00000000000E+00  0.45593999997E+02  0.45594000000E+02  0.51100000000E-03 0.  1.
         11   -1    0    0    0    0 -0.00000000000E+00 -0.00000000000E+00 -0.45593999997E+02  0.45594000000E+02  0.51100000000E-03 0. -1.
    9900012    2    1    2    0    0  0.41981438605E+02 -0.10902957906E+02  0.12157212388E+02  0.46142317727E+02  0.99999996872E+01 0.  0.
         12    1    1    2    0    0 -0.41981438605E+02  0.10902957906E+02 -0.12157212388E+02  0.45045682273E+02  0.00000000000E+00 0. -1.
         11    1    3    3    0    0  0.66728779551E+01 -0.17729525905E+01  0.71774637013E+00  0.69416007667E+01  0.51100000000E-03 0. -1.
        -11    1    3    3    0    0  0.24781792621E+02 -0.92644203233E+01  0.11033129301E+02  0.28665251994E+02  0.51100000000E-03 0.  1.
        -12    1    3    3    0    0  0.10526768029E+02  0.13441500825E+00  0.40633671625E+00  0.10535464966E+02  0.00000000000E+00 0.  1.
</event>
<event>
 7    1  0.2243370E-008  0.4614232E+02  0.7816164E-02  0.1320468E+00
        -11   -1    0    0    0    0  0.00000000000E+00  0.00000000000E+00  0.45593999997E+02  0.45594000000E+02  0.51100000000E-03 0.  1.
         11   -1    0    0    0    0 -0.00000000000E+00 -0.00000000000E+00 -0.45593999997E+02  0.45594000000E+02  0.51100000000E-03 0. -1.
    9900012    2    1    2    0    0 -0.92361308293E+00 -0.19201170139E+02  0.40737886992E+02  0.46142318382E+02  0.10000005664E+02 0.  0.
         12    1    1    2    0    0  0.92361308293E+00  0.19201170139E+02 -0.40737886992E+02  0.45045681618E+02  0.00000000000E+00 0. -1.
         11    1    3    3    0    0 -0.10343293399E+01 -0.25993736890E+00  0.11465141549E+01  0.15658542677E+01  0.51100000000E-03 0. -1.
        -11    1    3    3    0    0 -0.12983336033E+01 -0.61421623704E+01  0.63549388364E+01  0.89329209447E+01  0.51100000000E-03 0.  1.
        -12    1    3    3    0    0  0.14090498602E+01 -0.12799070399E+02  0.33236434001E+02  0.35643543170E+02  0.00000000000E+00 0.  1.
</event>
<event>
 7    1  0.2243370E-008  0.4614232E+02  0.7816164E-02  0.1320468E+00
        -11   -1    0    0    0    0  0.00000000000E+00  0.00000000000E+00  0.45593999997E+02  0.45594000000E+02  0.51100000000E-03 0.  1.
         11   -1    0    0    0    0 -0.00000000000E+00 -0.00000000000E+00 -0.45593999997E+02  0.45594000000E+02  0.51100000000E-03 0. -1.
    9900012    2    1    2    0    0 -0.73529704095E+01  0.20332300386E+02  0.39517652527E+02  0.46142317920E+02  0.10000001451E+02 0.  0.
         12    1    1    2    0    0  0.73529704095E+01 -0.20332300386E+02 -0.39517652527E+02  0.45045682080E+02  0.00000000000E+00 0. -1.
         11    1    3    3    0    0 -0.10004543521E+00 -0.16130730586E+00  0.37037580265E+00  0.41618221051E+00  0.51100000000E-03 0. -1.
        -11    1    3    3    0    0 -0.92264750444E+01  0.14075238628E+02  0.29674841992E+02  0.34115046999E+02  0.51100000000E-03 0.  1.
         12    1    3    3    0    0  0.19735500701E+01  0.64183690636E+01  0.94724347315E+01  0.11611088711E+02  0.00000000000E+00 0. -1.
</event>
<event>
 7    1  0.2243370E-008  0.4614232E+02  0.7816164E-02  0.1320468E+00
        -11   -1    0    0    0    0  0.00000000000E+00  0.00000000000E+00  0.45593999997E+02  0.45594000000E+02  0.51100000000E-03 0. -1.
         11   -1    0    0    0    0 -0.00000000000E+00 -0.00000000000E+00 -0.45593999997E+02  0.45594000000E+02  0.51100000000E-03 0.  1.
    9900012    2    1    2    0    0 -0.44212632724E+02 -0.21893375091E+01 -0.83404666673E+01  0.46142317906E+02  0.10000001321E+02 0.  0.
         12    1    1    2    0    0  0.44212632724E+02  0.21893375091E+01  0.83404666673E+01  0.45045682094E+02  0.00000000000E+00 0. -1.
         11    1    3    3    0    0 -0.17360123289E+02 -0.44976105038E+01 -0.34108546069E+01  0.18254761304E+02  0.51100000000E-03 0. -1.
        -11    1    3    3    0    0 -0.21721329054E+02  0.16681598302E+01 -0.60224011650E+01  0.22602393881E+02  0.51100000000E-03 0.  1.
        -12    1    3    3    0    0 -0.51311803800E+01  0.64011316447E+00  0.10927891046E+01  0.52851627206E+01  0.00000000000E+00 0.  1.
</event>
<event>
 7    1  0.2243370E-008  0.4614232E+02  0.7816164E-02  0.1320468E+00
        -11   -1    0    0    0    0  0.00000000000E+00  0.00000000000E+00  0.45593999997E+02  0.45594000000E+02  0.51100000000E-03 0.  1.
         11   -1    0    0    0    0 -0.00000000000E+00 -0.00000000000E+00 -0.45593999997E+02  0.45594000000E+02  0.51100000000E-03 0. -1.
    9900012    2    1    2    0    0 -0.23673847793E+02 -0.38052551960E+02  0.45459558306E+01  0.46142317694E+02  0.99999993839E+01 0.  0.
         12    1    1    2    0    0  0.23673847793E+02  0.38052551960E+02 -0.45459558306E+01  0.45045682306E+02  0.00000000000E+00 0. -1.
         11    1    3    3    0    0 -0.73712356340E+01 -0.19379717882E+02 -0.26320777699E-01  0.20734253616E+02  0.51100000000E-03 0. -1.
        -11    1    3    3    0    0 -0.10802729581E+02 -0.13454350240E+02  0.44767621496E+01  0.17825821339E+02  0.51100000000E-03 0.  1.
         12    1    3    3    0    0 -0.54998825780E+01 -0.52184838376E+01  0.95514458699E-01  0.75822427385E+01  0.00000000000E+00 0. -1.
</event>
<event>
 7    1  0.2243370E-008  0.4614232E+02  0.7816164E-02  0.1320468E+00
        -11   -1    0    0    0    0  0.00000000000E+00  0.00000000000E+00  0.45593999997E+02  0.45594000000E+02  0.51100000000E-03 0.  1.
         11   -1    0    0    0    0 -0.00000000000E+00 -0.00000000000E+00 -0.45593999997E+02  0.45594000000E+02  0.51100000000E-03 0. -1.
    9900012    2    1    2    0    0  0.50148360526E+01 -0.14780599105E+02  0.42255163244E+02  0.46142317507E+02  0.99999976785E+01 0.  0.
         12    1    1    2    0    0 -0.50148360526E+01  0.14780599105E+02 -0.42255163244E+02  0.45045682493E+02  0.00000000000E+00 0. -1.
         11    1    3    3    0    0  0.31261727144E+01 -0.40435085487E+01  0.55675134977E+01  0.75577856566E+01  0.51100000000E-03 0. -1.
        -11    1    3    3    0    0  0.10711513220E+01 -0.56673425083E+01  0.11346272825E+02  0.12728080906E+02  0.51100000000E-03 0.  1.
         12    1    3    3    0    0  0.81751201620E+00 -0.50697480478E+01  0.25341376921E+02  0.25856450944E+02  0.00000000000E+00 0. -1.
</event>
<event>
 7    1  0.2243370E-008  0.4614232E+02  0.7816164E-02  0.1320468E+00
        -11   -1    0    0    0    0  0.00000000000E+00  0.00000000000E+00  0.45593999997E+02  0.45594000000E+02  0.51100000000E-03 0.  1.
         11   -1    0    0    0    0 -0.00000000000E+00 -0.00000000000E+00 -0.45593999997E+02  0.45594000000E+02  0.51100000000E-03 0. -1.
    9900012    2    1    2    0    0 -0.32959810598E+02 -0.23528152179E+02  0.19727909969E+02  0.46142317728E+02  0.99999996983E+01 0.  0.
         12    1    1    2    0    0  0.32959810598E+02  0.23528152179E+02 -0.19727909969E+02  0.45045682272E+02  0.00000000000E+00 0. -1.
         11    1    3    3    0    0 -0.17723659826E+02 -0.15128963963E+02  0.10979228257E+02  0.25759602512E+02  0.51100000000E-03 0. -1.
        -11    1    3    3    0    0 -0.10517295655E+02 -0.25200203897E+01  0.43691227724E+01  0.11664186415E+02  0.51100000000E-03 0.  1.
         12    1    3    3    0    0 -0.47188551170E+01 -0.58791678265E+01  0.43795589395E+01  0.87185288009E+01  0.00000000000E+00 0. -1.
</event>
<event>
 7    1  0.2243370E-008  0.4614232E+02  0.7816164E-02  0.1320468E+00
        -11   -1    0    0    0    0  0.00000000000E+00  0.00000000000E+00  0.45593999997E+02  0.45594000000E+02  0.51100000000E-03 0. -1.
         11   -1    0    0    0    0 -0.00000000000E+00 -0.00000000000E+00 -0.45593999997E+02  0.45594000000E+02  0.51100000000E-03 0.  1.
    9900012    2    1    2    0    0 -0.54298588109E+01  0.44530999463E+02 -0.40767959174E+01  0.46142317135E+02  0.99999942880E+01 0.  0.
         12    1    1    2    0    0  0.54298588109E+01 -0.44530999463E+02  0.40767959174E+01  0.45045682865E+02  0.00000000000E+00 0. -1.
         11    1    3    3    0    0 -0.23009815511E+01  0.29412461046E+01 -0.13364115079E+01  0.39662880286E+01  0.51100000000E-03 0. -1.
        -11    1    3    3    0    0  0.67653130770E+00  0.66849501321E+01 -0.21663903804E+01  0.70597096555E+01  0.51100000000E-03 0.  1.
         12    1    3    3    0    0 -0.38054085675E+01  0.34904803226E+02 -0.57399402901E+00  0.35116319451E+02  0.00000000000E+00 0. -1.
</event>
<event>
 7    1  0.2243370E-008  0.4614232E+02  0.7816164E-02  0.1320468E+00
        -11   -1    0    0    0    0  0.00000000000E+00  0.00000000000E+00  0.45593999997E+02  0.45594000000E+02  0.51100000000E-03 0.  1.
         11   -1    0    0    0    0 -0.00000000000E+00 -0.00000000000E+00 -0.45593999997E+02  0.45594000000E+02  0.51100000000E-03 0. -1.
    9900012    2    1    2    0    0  0.24794508385E+02 -0.35019669795E+02 -0.13710160976E+02  0.46142318381E+02  0.10000005651E+02 0.  0.
         12    1    1    2    0    0 -0.24794508385E+02  0.35019669795E+02  0.13710160976E+02  0.45045681619E+02  0.00000000000E+00 0. -1.
         11    1    3    3    0    0 -0.25863411960E+00 -0.29368178621E+00 -0.33197012990E-02  0.39134624173E+00  0.51100000000E-03 0. -1.
        -11    1    3    3    0    0  0.24898985279E+02 -0.35219490033E+02 -0.13565441449E+02  0.45214965974E+02  0.51100000000E-03 0.  1.
        -12    1    3    3    0    0  0.15415722556E+00  0.49350202437E+00 -0.14139982534E+00  0.53600616494E+00  0.00000000000E+00 0.  1.
</event>
<event>
 7    1  0.2243370E-008  0.4614232E+02  0.7816164E-02  0.1320468E+00
        -11   -1    0    0    0    0  0.00000000000E+00  0.00000000000E+00  0.45593999997E+02  0.45594000000E+02  0.51100000000E-03 0. -1.
         11   -1    0    0    0    0 -0.00000000000E+00 -0.00000000000E+00 -0.45593999997E+02  0.45594000000E+02  0.51100000000E-03 0.  1.
    9900012    2    1    2    0    0 -0.41340415475E+02 -0.17889496814E+02 -0.22202152497E+00  0.46142319392E+02  0.10000014868E+02 0.  0.
         12    1    1    2    0    0  0.41340415475E+02  0.17889496814E+02  0.22202152497E+00  0.45045680608E+02  0.00000000000E+00 0. -1.
         11    1    3    3    0    0 -0.15095786986E+02 -0.45283496765E+01 -0.20086643659E+01  0.15887840266E+02  0.51100000000E-03 0. -1.
        -11    1    3    3    0    0  0.17991911313E+00 -0.61311092902E+00 -0.52177169712E+00  0.82493749072E+00  0.51100000000E-03 0.  1.
        -12    1    3    3    0    0 -0.26424547602E+02 -0.12748036208E+02  0.23084145381E+01  0.29429541635E+02  0.00000000000E+00 0.  1.
</event>
<event>
 7    1  0.2243370E-008  0.4614232E+02  0.7816164E-02  0.1320468E+00
        -11   -1    0    0    0    0  0.00000000000E+00  0.00000000000E+00  0.45593999997E+02  0.45594000000E+02  0.51100000000E-03 0.  1.
         11   -1    0    0    0    0 -0.00000000000E+00 -0.00000000000E+00 -0.45593999997E+02  0.45594000000E+02  0.51100000000E-03 0. -1.
    9900012    2    1    2    0    0  0.18658768142E+02 -0.37608009675E+01  0.40826710706E+02  0.46142316971E+02  0.99999927939E+01 0.  0.
         12    1    1    2    0    0 -0.18658768142E+02  0.37608009675E+01 -0.40826710706E+02  0.45045683029E+02  0.00000000000E+00 0. -1.
         11    1    3    3    0    0  0.54221970864E+01 -0.58220454409E+01  0.13782849787E+02  0.15914250937E+02  0.51100000000E-03 0. -1.
        -11    1    3    3    0    0  0.28164067330E+01 -0.24098601627E+00  0.60408069263E+01  0.66694504817E+01  0.51100000000E-03 0.  1.
         12    1    3    3    0    0  0.10420164323E+02  0.23022304897E+01  0.21003053992E+02  0.23558615552E+02  0.00000000000E+00 0. -1.
</event>
<event>
 7    1  0.2243370E-008  0.4614232E+02  0.7816164E-02  0.1320468E+00
        -11   -1    0    0    0    0  0.00000000000E+00  0.00000000000E+00  0.45593999997E+02  0.45594000000E+02  0.51100000000E-03 0.  1.
         11   -1    0    0    0    0 -0.00000000000E+00 -0.00000000000E+00 -0.45593999997E+02  0.45594000000E+02  0.51100000000E-03 0. -1.
    9900012    2    1    2    0    0  0.23385659338E+02 -0.29993546387E+02  0.24137349140E+02  0.46142317510E+02  0.99999977060E+01 0.  0.
         12    1    1    2    0    0 -0.23385659338E+02  0.29993546387E+02 -0.24137349140E+02  0.45045682490E+02  0.00000000000E+00 0. -1.
         11    1    3    3    0    0  0.19375704820E+02 -0.20272062207E+02  0.16801521983E+02  0.32690450970E+02  0.51100000000E-03 0.  1.
        -11    1    3    3    0    0  0.36226479861E+01 -0.35574548186E+01  0.37297709877E+01  0.63000202459E+01  0.51100000000E-03 0. -1.
         12    1    3    3    0    0  0.38730653169E+00 -0.61640293610E+01  0.36060561696E+01  0.71518462939E+01  0.00000000000E+00 0. -1.
</event>
<event>
 7    1  0.2243370E-008  0.4614232E+02  0.7816164E-02  0.1320468E+00
        -11   -1    0    0    0    0  0.00000000000E+00  0.00000000000E+00  0.45593999997E+02  0.45594000000E+02  0.51100000000E-03 0.  1.
         11   -1    0    0    0    0 -0.00000000000E+00 -0.00000000000E+00 -0.45593999997E+02  0.45594000000E+02  0.51100000000E-03 0. -1.
    9900012    2    1    2    0    0  0.22617398271E+00  0.32141070185E+02  0.31559688378E+02  0.46142317878E+02  0.10000001065E+02 0.  0.
         12    1    1    2    0    0 -0.22617398271E+00 -0.32141070185E+02 -0.31559688378E+02  0.45045682122E+02  0.00000000000E+00 0. -1.
         11    1    3    3    0    0  0.24097680524E+01  0.32789134203E+01  0.51005467401E+01  0.65248626494E+01  0.51100000000E-03 0. -1.
        -11    1    3    3    0    0  0.40868739967E-01  0.47866427383E+01  0.74779324825E+01  0.88788002249E+01  0.51100000000E-03 0.  1.
        -12    1    3    3    0    0 -0.22244628096E+01  0.24075514027E+02  0.18981209155E+02  0.30738655004E+02  0.00000000000E+00 0.  1.
</event>
<event>
 7    1  0.2243370E-008  0.4614232E+02  0.7816164E-02  0.1320468E+00
        -11   -1    0    0    0    0  0.00000000000E+00  0.00000000000E+00  0.45593999997E+02  0.45594000000E+02  0.51100000000E-03 0.  1.
         11   -1    0    0    0    0 -0.00000000000E+00 -0.00000000000E+00 -0.45593999997E+02  0.45594000000E+02  0.51100000000E-03 0. -1.
    9900012    2    1    2    0    0  0.10092361680E+02  0.25553234520E+02  0.35697197675E+02  0.46142317848E+02  0.10000000795E+02 0.  0.
         12    1    1    2    0    0 -0.10092361680E+02 -0.25553234520E+02 -0.35697197675E+02  0.45045682152E+02  0.00000000000E+00 0. -1.
         11    1    3    3    0    0  0.25630699205E+01  0.75425259133E+01  0.17665093208E+02  0.19378197617E+02  0.51100000000E-03 0. -1.
        -11    1    3    3    0    0  0.30005122837E+01  0.53106652649E+01  0.74211130661E+01  0.96062041890E+01  0.51100000000E-03 0.  1.
         12    1    3    3    0    0  0.45287794753E+01  0.12700043342E+02  0.10610991400E+02  0.17157916042E+02  0.00000000000E+00 0. -1.
</event>
<event>
 7    1  0.2243370E-008  0.4614232E+02  0.7816164E-02  0.1320468E+00
        -11   -1    0    0    0    0  0.00000000000E+00  0.00000000000E+00  0.45593999997E+02  0.45594000000E+02  0.51100000000E-03 0.  1.
         11   -1    0    0    0    0 -0.00000000000E+00 -0.00000000000E+00 -0.45593999997E+02  0.45594000000E+02  0.51100000000E-03 0. -1.
    9900012    2    1    2    0    0  0.16032606041E+02  0.31781818368E+02  0.27604077037E+02  0.46142317584E+02  0.99999983865E+01 0.  0.
         12    1    1    2    0    0 -0.16032606041E+02 -0.31781818368E+02 -0.27604077037E+02  0.45045682416E+02  0.00000000000E+00 0. -1.
         11    1    3    3    0    0  0.24108139811E+01  0.10836791586E+02  0.11447392474E+02  0.15946500263E+02  0.51100000000E-03 0. -1.
        -11    1    3    3    0    0  0.73131195813E+01  0.73640972909E+01  0.49883255114E+01  0.11514991906E+02  0.51100000000E-03 0.  1.
        -12    1    3    3    0    0  0.63086724781E+01  0.13580929492E+02  0.11168359051E+02  0.18680825415E+02  0.00000000000E+00 0.  1.
</event>
<event>
 7    1  0.2243370E-008  0.4614232E+02  0.7816164E-02  0.1320468E+00
        -11   -1    0    0    0    0  0.00000000000E+00  0.00000000000E+00  0.45593999997E+02  0.45594000000E+02  0.51100000000E-03 0. -1.
         11   -1    0    0    0    0 -0.00000000000E+00 -0.00000000000E+00 -0.45593999997E+02  0.45594000000E+02  0.51100000000E-03 0.  1.
    9900012    2    1    2    0    0  0.32836313342E+02 -0.14639254664E+02 -0.27140048280E+02  0.46142317947E+02  0.10000001694E+02 0.  0.
         12    1    1    2    0    0 -0.32836313342E+02  0.14639254664E+02  0.27140048280E+02  0.45045682053E+02  0.00000000000E+00 0. -1.
         11    1    3    3    0    0  0.39754003574E+01 -0.48490311046E+01 -0.32748577768E+01  0.70740090737E+01  0.51100000000E-03 0. -1.
        -11    1    3    3    0    0  0.10230713055E+02 -0.46602515579E+01 -0.11744900589E+02  0.16258171001E+02  0.51100000000E-03 0.  1.
         12    1    3    3    0    0  0.18630199929E+02 -0.51299720019E+01 -0.12120289914E+02  0.22810137872E+02  0.00000000000E+00 0. -1.
</event>
<event>
 7    1  0.2243370E-008  0.4614232E+02  0.7816164E-02  0.1320468E+00
        -11   -1    0    0    0    0  0.00000000000E+00  0.00000000000E+00  0.45593999997E+02  0.45594000000E+02  0.51100000000E-03 0.  1.
         11   -1    0    0    0    0 -0.00000000000E+00 -0.00000000000E+00 -0.45593999997E+02  0.45594000000E+02  0.51100000000E-03 0. -1.
    9900012    2    1    2    0    0 -0.59840238116E+01 -0.36745541994E+02  0.25358826771E+02  0.46142317714E+02  0.99999995691E+01 0.  0.
         12    1    1    2    0    0  0.59840238116E+01  0.36745541994E+02 -0.25358826771E+02  0.45045682286E+02  0.00000000000E+00 0. -1.
         11    1    3    3    0    0  0.21386314989E+00 -0.29036883528E+01  0.12965875067E+01  0.31872061309E+01  0.51100000000E-03 0. -1.
        -11    1    3    3    0    0  0.41204763151E-01 -0.22888536594E+02  0.14047386287E+02  0.26855462517E+02  0.51100000000E-03 0.  1.
         12    1    3    3    0    0 -0.62390917246E+01 -0.10953317047E+02  0.10014852977E+02  0.16099649066E+02  0.00000000000E+00 0. -1.
</event>
<event>
 7    1  0.2243370E-008  0.4614232E+02  0.7816164E-02  0.1320468E+00
        -11   -1    0    0    0    0  0.00000000000E+00  0.00000000000E+00  0.45593999997E+02  0.45594000000E+02  0.51100000000E-03 0.  1.
         11   -1    0    0    0    0 -0.00000000000E+00 -0.00000000000E+00 -0.45593999997E+02  0.45594000000E+02  0.51100000000E-03 0. -1.
    9900012    2    1    2    0    0 -0.20907266401E+02  0.10821905934E+02  0.38404245380E+02  0.46142317636E+02  0.99999988623E+01 0.  0.
         12    1    1    2    0    0  0.20907266401E+02 -0.10821905934E+02 -0.38404245380E+02  0.45045682364E+02  0.00000000000E+00 0. -1.
         11    1    3    3    0    0 -0.14057933946E+02  0.10087561111E+02  0.20166354734E+02  0.26571907337E+02  0.51100000000E-03 0. -1.
        -11    1    3    3    0    0 -0.40202722894E+01  0.89934587334E+00  0.88059452189E+01  0.97219382708E+01  0.51100000000E-03 0.  1.
         12    1    3    3    0    0 -0.28290601658E+01 -0.16500105016E+00  0.94319454266E+01  0.98484720287E+01  0.00000000000E+00 0. -1.
</event>
<event>
 7    1  0.2243370E-008  0.4614232E+02  0.7816164E-02  0.1320468E+00
        -11   -1    0    0    0    0  0.00000000000E+00  0.00000000000E+00  0.45593999997E+02  0.45594000000E+02  0.51100000000E-03 0. -1.
         11   -1    0    0    0    0 -0.00000000000E+00 -0.00000000000E+00 -0.45593999997E+02  0.45594000000E+02  0.51100000000E-03 0.  1.
    9900012    2    1    2    0    0 -0.27023849498E+02  0.45168765837E+01 -0.35755039879E+02  0.46142317715E+02  0.99999995787E+01 0.  0.
         12    1    1    2    0    0  0.27023849498E+02 -0.45168765837E+01  0.35755039879E+02  0.45045682285E+02  0.00000000000E+00 0. -1.
         11    1    3    3    0    0 -0.16758437195E+02  0.43168190174E+01 -0.18292754769E+02  0.25181441995E+02  0.51100000000E-03 0. -1.
        -11    1    3    3    0    0 -0.80057885706E+01 -0.11574040902E+01 -0.90160817505E+01  0.12112884267E+02  0.51100000000E-03 0.  1.
         12    1    3    3    0    0 -0.22596237324E+01  0.13574616565E+01 -0.84462033599E+01  0.88479914533E+01  0.00000000000E+00 0. -1.
</event>
<event>
 7    1  0.2243370E-008  0.4614232E+02  0.7816164E-02  0.1320468E+00
        -11   -1    0    0    0    0  0.00000000000E+00  0.00000000000E+00  0.45593999997E+02  0.45594000000E+02  0.51100000000E-03 0.  1.
         11   -1    0    0    0    0 -0.00000000000E+00 -0.00000000000E+00 -0.45593999997E+02  0.45594000000E+02  0.51100000000E-03 0. -1.
    9900012    2    1    2    0    0 -0.18349962678E+02  0.64593004565E+01  0.40628436743E+02  0.46142316912E+02  0.99999922585E+01 0.  0.
         12    1    1    2    0    0  0.18349962678E+02 -0.64593004565E+01 -0.40628436743E+02  0.45045683088E+02  0.00000000000E+00 0. -1.
         11    1    3    3    0    0 -0.50689137704E+01  0.52631868167E+01  0.10183462200E+02  0.12533871107E+02  0.51100000000E-03 0. -1.
        -11    1    3    3    0    0 -0.97409990239E+01  0.21305424900E+01  0.17349546591E+02  0.20010823083E+02  0.51100000000E-03 0.  1.
         12    1    3    3    0    0 -0.35400498834E+01 -0.93442885029E+00  0.13095427952E+02  0.13597622722E+02  0.00000000000E+00 0. -1.
</event>
<event>
 7    1  0.2243370E-008  0.4614232E+02  0.7816164E-02  0.1320468E+00
        -11   -1    0    0    0    0  0.00000000000E+00  0.00000000000E+00  0.45593999997E+02  0.45594000000E+02  0.51100000000E-03 0. -1.
         11   -1    0    0    0    0 -0.00000000000E+00 -0.00000000000E+00 -0.45593999997E+02  0.45594000000E+02  0.51100000000E-03 0.  1.
    9900012    2    1    2    0    0  0.21967169093E+01  0.43617870517E+02 -0.11034914181E+02  0.46142317359E+02  0.99999963336E+01 0.  0.
         12    1    1    2    0    0 -0.21967169093E+01 -0.43617870517E+02  0.11034914181E+02  0.45045682641E+02  0.00000000000E+00 0. -1.
         11    1    3    3    0    0 -0.13534228148E+01  0.16951536572E+02 -0.19402802225E+01  0.17115812370E+02  0.51100000000E-03 0. -1.
        -11    1    3    3    0    0  0.19136476971E+01  0.48105815267E+01  0.28894321478E+00  0.51852898257E+01  0.51100000000E-03 0.  1.
         12    1    3    3    0    0  0.16364920270E+01  0.21855752418E+02 -0.93835771731E+01  0.23841215163E+02  0.00000000000E+00 0. -1.
</event>
<event>
 7    1  0.2243370E-008  0.4614232E+02  0.7816164E-02  0.1320468E+00
        -11   -1    0    0    0    0  0.00000000000E+00  0.00000000000E+00  0.45593999997E+02  0.45594000000E+02  0.51100000000E-03 0.  1.
         11   -1    0    0    0    0 -0.00000000000E+00 -0.00000000000E+00 -0.45593999997E+02  0.45594000000E+02  0.51100000000E-03 0. -1.
    9900012    2    1    2    0    0  0.51309705874E+01 -0.20125412127E+02  0.39971921701E+02  0.46142316557E+02  0.99999890155E+01 0.  0.
         12    1    1    2    0    0 -0.51309705874E+01  0.20125412127E+02 -0.39971921701E+02  0.45045683443E+02  0.00000000000E+00 0. -1.
         11    1    3    3    0    0  0.20045579846E+01 -0.35830706018E+01  0.97880098206E+01  0.10614225556E+02  0.51100000000E-03 0. -1.
        -11    1    3    3    0    0  0.40306680061E+01 -0.91817765576E+01  0.10621036947E+02  0.14606770055E+02  0.51100000000E-03 0.  1.
         12    1    3    3    0    0 -0.90425540335E+00 -0.73605649673E+01  0.19562874933E+02  0.20921320946E+02  0.00000000000E+00 0. -1.
</event>
<event>
 7    1  0.2243370E-008  0.4614232E+02  0.7816164E-02  0.1320468E+00
        -11   -1    0    0    0    0  0.00000000000E+00  0.00000000000E+00  0.45593999997E+02  0.45594000000E+02  0.51100000000E-03 0.  1.
         11   -1    0    0    0    0 -0.00000000000E+00 -0.00000000000E+00 -0.45593999997E+02  0.45594000000E+02  0.51100000000E-03 0. -1.
    9900012    2    1    2    0    0  0.20589382440E+02 -0.39968228689E+02  0.27805381562E+01  0.46142319117E+02  0.10000012362E+02 0.  0.
         12    1    1    2    0    0 -0.20589382440E+02  0.39968228689E+02 -0.27805381562E+01  0.45045680883E+02  0.00000000000E+00 0. -1.
         11    1    3    3    0    0 -0.32798051565E+00 -0.30206525836E+01 -0.10391746791E+01  0.32111987674E+01  0.51100000000E-03 0. -1.
        -11    1    3    3    0    0  0.14287703473E+02 -0.26609874965E+02  0.49075099676E+00  0.30207031515E+02  0.51100000000E-03 0.  1.
        -12    1    3    3    0    0  0.66296594829E+01 -0.10337701141E+02  0.33289618386E+01  0.12724088834E+02  0.00000000000E+00 0.  1.
</event>
<event>
 7    1  0.2243370E-008  0.4614232E+02  0.7816164E-02  0.1320468E+00
        -11   -1    0    0    0    0  0.00000000000E+00  0.00000000000E+00  0.45593999997E+02  0.45594000000E+02  0.51100000000E-03 0.  1.
         11   -1    0    0    0    0 -0.00000000000E+00 -0.00000000000E+00 -0.45593999997E+02  0.45594000000E+02  0.51100000000E-03 0. -1.
    9900012    2    1    2    0    0 -0.35513741667E+02  0.20162779076E+02  0.19009191620E+02  0.46142324588E+02  0.10000062254E+02 0.  0.
         12    1    1    2    0    0  0.35513741667E+02 -0.20162779076E+02 -0.19009191620E+02  0.45045675412E+02  0.00000000000E+00 0. -1.
         11    1    3    3    0    0 -0.61490797426E+01  0.68585298897E+01  0.31546066881E+01  0.97366399516E+01  0.51100000000E-03 0. -1.
        -11    1    3    3    0    0 -0.21529622974E+02  0.10360733911E+02  0.88081640282E+01  0.25464744773E+02  0.51100000000E-03 0.  1.
        -12    1    3    3    0    0 -0.78350389505E+01  0.29435152756E+01  0.70464209040E+01  0.10940939863E+02  0.00000000000E+00 0.  1.
</event>
<event>
 7    1  0.2243370E-008  0.4614232E+02  0.7816164E-02  0.1320468E+00
        -11   -1    0    0    0    0  0.00000000000E+00  0.00000000000E+00  0.45593999997E+02  0.45594000000E+02  0.51100000000E-03 0. -1.
         11   -1    0    0    0    0 -0.00000000000E+00 -0.00000000000E+00 -0.45593999997E+02  0.45594000000E+02  0.51100000000E-03 0.  1.
    9900012    2    1    2    0    0  0.69601996042E+01  0.29915512719E+02 -0.32950434712E+02  0.46142318437E+02  0.10000006164E+02 0.  0.
         12    1    1    2    0    0 -0.69601996042E+01 -0.29915512719E+02  0.32950434712E+02  0.45045681563E+02  0.00000000000E+00 0. -1.
         11    1    3    3    0    0  0.26529360806E+00  0.27411946140E+00 -0.93834335086E+00  0.10129218542E+01  0.51100000000E-03 0. -1.
        -11    1    3    3    0    0  0.86073461294E+01  0.21302277521E+02 -0.20539605854E+02  0.30817995455E+02  0.51100000000E-03 0.  1.
        -12    1    3    3    0    0 -0.19124401333E+01  0.83391157366E+01 -0.11472485507E+02  0.14311401127E+02  0.00000000000E+00 0.  1.
</event>
<event>
 7    1  0.2243370E-008  0.4614232E+02  0.7816164E-02  0.1320468E+00
        -11   -1    0    0    0    0  0.00000000000E+00  0.00000000000E+00  0.45593999997E+02  0.45594000000E+02  0.51100000000E-03 0.  1.
         11   -1    0    0    0    0 -0.00000000000E+00 -0.00000000000E+00 -0.45593999997E+02  0.45594000000E+02  0.51100000000E-03 0. -1.
    9900012    2    1    2    0    0  0.92014529385E+01  0.55767480590E+01  0.43741818346E+02  0.46142317329E+02  0.99999960627E+01 0.  0.
         12    1    1    2    0    0 -0.92014529385E+01 -0.55767480590E+01 -0.43741818346E+02  0.45045682671E+02  0.00000000000E+00 0. -1.
         11    1    3    3    0    0 -0.11084264430E+01  0.39307481401E+00  0.51772874937E+01  0.53091828978E+01  0.51100000000E-03 0. -1.
        -11    1    3    3    0    0  0.51972412956E+01  0.55868118750E+01  0.28921550077E+02  0.29911199293E+02  0.51100000000E-03 0.  1.
        -12    1    3    3    0    0  0.51126380859E+01 -0.40313863001E+00  0.96429807749E+01  0.10921935139E+02  0.00000000000E+00 0.  1.
</event>
<event>
 7    1  0.2243370E-008  0.4614232E+02  0.7816164E-02  0.1320468E+00
        -11   -1    0    0    0    0  0.00000000000E+00  0.00000000000E+00  0.45593999997E+02  0.45594000000E+02  0.51100000000E-03 0.  1.
         11   -1    0    0    0    0 -0.00000000000E+00 -0.00000000000E+00 -0.45593999997E+02  0.45594000000E+02  0.51100000000E-03 0. -1.
    9900012    2    1    2    0    0 -0.16348800819E+02 -0.17293761917E+02  0.38245992480E+02  0.46142318406E+02  0.10000005882E+02 0.  0.
         12    1    1    2    0    0  0.16348800819E+02  0.17293761917E+02 -0.38245992480E+02  0.45045681594E+02  0.00000000000E+00 0. -1.
         11    1    3    3    0    0 -0.58416118951E+01 -0.17015961479E+01  0.67731077063E+01  0.91046607431E+01  0.51100000000E-03 0. -1.
        -11    1    3    3    0    0 -0.49726877491E+01 -0.33347058980E+01  0.81164129268E+01  0.10085833924E+02  0.51100000000E-03 0.  1.
         12    1    3    3    0    0 -0.55345011749E+01 -0.12257459871E+02  0.23356471847E+02  0.26951823739E+02  0.00000000000E+00 0. -1.
</event>
<event>
 7    1  0.2243370E-008  0.4614232E+02  0.7816164E-02  0.1320468E+00
        -11   -1    0    0    0    0  0.00000000000E+00  0.00000000000E+00  0.45593999997E+02  0.45594000000E+02  0.51100000000E-03 0.  1.
         11   -1    0    0    0    0 -0.00000000000E+00 -0.00000000000E+00 -0.45593999997E+02  0.45594000000E+02  0.51100000000E-03 0. -1.
    9900012    2    1    2    0    0 -0.13542760854E+02  0.32518741376E+02  0.28075586823E+02  0.46142317769E+02  0.10000000071E+02 0.  0.
         12    1    1    2    0    0  0.13542760854E+02 -0.32518741376E+02 -0.28075586823E+02  0.45045682231E+02  0.00000000000E+00 0. -1.
         11    1    3    3    0    0 -0.61614724935E+01  0.14902142227E+02  0.12213216179E+02  0.20228698326E+02  0.51100000000E-03 0.  1.
        -11    1    3    3    0    0  0.10582560453E+01  0.63478036241E+00  0.22643677236E+01  0.25788007706E+01  0.51100000000E-03 0. -1.
         12    1    3    3    0    0 -0.84395444061E+01  0.16981818786E+02  0.13598002920E+02  0.23334818673E+02  0.00000000000E+00 0. -1.
</event>
<event>
 7    1  0.2243370E-008  0.4614232E+02  0.7816164E-02  0.1320468E+00
        -11   -1    0    0    0    0  0.00000000000E+00  0.00000000000E+00  0.45593999997E+02  0.45594000000E+02  0.51100000000E-03 0.  1.
         11   -1    0    0    0    0 -0.00000000000E+00 -0.00000000000E+00 -0.45593999997E+02  0.45594000000E+02  0.51100000000E-03 0. -1.
    9900012    2    1    2    0    0 -0.27191948862E+00  0.82780981431E+01  0.44277676317E+02  0.46142317975E+02  0.10000001947E+02 0.  0.
         12    1    1    2    0    0  0.27191948862E+00 -0.82780981431E+01 -0.44277676317E+02  0.45045682025E+02  0.00000000000E+00 0. -1.
         11    1    3    3    0    0 -0.30740342921E+01 -0.42619115036E+00  0.10950060366E+02  0.11381350887E+02  0.51100000000E-03 0. -1.
        -11    1    3    3    0    0 -0.55842866557E+00  0.12343276117E+01  0.22903291579E+01  0.26610176888E+01  0.51100000000E-03 0.  1.
        -12    1    3    3    0    0  0.33605434690E+01  0.74699616818E+01  0.31037286793E+02  0.32099949399E+02  0.00000000000E+00 0.  1.
</event>
<event>
 7    1  0.2243370E-008  0.4614232E+02  0.7816164E-02  0.1320468E+00
        -11   -1    0    0    0    0  0.00000000000E+00  0.00000000000E+00  0.45593999997E+02  0.45594000000E+02  0.51100000000E-03 0. -1.
         11   -1    0    0    0    0 -0.00000000000E+00 -0.00000000000E+00 -0.45593999997E+02  0.45594000000E+02  0.51100000000E-03 0.  1.
    9900012    2    1    2    0    0  0.33311291336E+02  0.71250094620E+01 -0.29473812284E+02  0.46142317622E+02  0.99999987359E+01 0.  0.
         12    1    1    2    0    0 -0.33311291336E+02 -0.71250094620E+01  0.29473812284E+02  0.45045682378E+02  0.00000000000E+00 0. -1.
         11    1    3    3    0    0  0.89353977464E+01  0.46041183171E+01 -0.12300284283E+02  0.15885094651E+02  0.51100000000E-03 0. -1.
        -11    1    3    3    0    0  0.23113855745E+01  0.14272784891E+01 -0.28001474984E+01  0.39013399536E+01  0.51100000000E-03 0.  1.
        -12    1    3    3    0    0  0.22064508015E+02  0.10936126558E+01 -0.14373380503E+02  0.26355883018E+02  0.00000000000E+00 0.  1.
</event>
<event>
 7    1  0.2243370E-008  0.4614232E+02  0.7816164E-02  0.1320468E+00
        -11   -1    0    0    0    0  0.00000000000E+00  0.00000000000E+00  0.45593999997E+02  0.45594000000E+02  0.51100000000E-03 0.  1.
         11   -1    0    0    0    0 -0.00000000000E+00 -0.00000000000E+00 -0.45593999997E+02  0.45594000000E+02  0.51100000000E-03 0. -1.
    9900012    2    1    2    0    0 -0.29426954076E+02  0.82032920945E+01  0.33103984396E+02  0.46142318628E+02  0.10000007903E+02 0.  0.
         12    1    1    2    0    0  0.29426954076E+02 -0.82032920945E+01 -0.33103984396E+02  0.45045681372E+02  0.00000000000E+00 0. -1.
         11    1    3    3    0    0 -0.68517094227E+01 -0.36987907491E-01  0.11417798339E+02  0.13315908129E+02  0.51100000000E-03 0. -1.
        -11    1    3    3    0    0 -0.66527666644E+01  0.34390145541E+00  0.78970905157E+01  0.10331583198E+02  0.51100000000E-03 0.  1.
         12    1    3    3    0    0 -0.15922477989E+02  0.78963785466E+01  0.13789095541E+02  0.22494827301E+02  0.00000000000E+00 0. -1.
</event>
<event>
 7    1  0.2243370E-008  0.4614232E+02  0.7816164E-02  0.1320468E+00
        -11   -1    0    0    0    0  0.00000000000E+00  0.00000000000E+00  0.45593999997E+02  0.45594000000E+02  0.51100000000E-03 0.  1.
         11   -1    0    0    0    0 -0.00000000000E+00 -0.00000000000E+00 -0.45593999997E+02  0.45594000000E+02  0.51100000000E-03 0. -1.
    9900012    2    1    2    0    0 -0.35648325847E+02  0.15238264680E+02  0.22936991820E+02  0.46142318299E+02  0.10000004906E+02 0.  0.
         12    1    1    2    0    0  0.35648325847E+02 -0.15238264680E+02 -0.22936991820E+02  0.45045681701E+02  0.00000000000E+00 0. -1.
         11    1    3    3    0    0 -0.52009841637E+01  0.25842192863E+00  0.29827025760E+01  0.60011276509E+01  0.51100000000E-03 0. -1.
        -11    1    3    3    0    0 -0.10570116946E+02  0.26630975424E+01  0.97615397855E+01  0.14632399667E+02  0.51100000000E-03 0.  1.
        -12    1    3    3    0    0 -0.19877224737E+02  0.12316745209E+02  0.10192749459E+02  0.25508790981E+02  0.00000000000E+00 0.  1.
</event>
<event>
 7    1  0.2243370E-008  0.4614232E+02  0.7816164E-02  0.1320468E+00
        -11   -1    0    0    0    0  0.00000000000E+00  0.00000000000E+00  0.45593999997E+02  0.45594000000E+02  0.51100000000E-03 0.  1.
         11   -1    0    0    0    0 -0.00000000000E+00 -0.00000000000E+00 -0.45593999997E+02  0.45594000000E+02  0.51100000000E-03 0. -1.
    9900012    2    1    2    0    0  0.25082348550E+02  0.37107236087E+02  0.48002440173E+01  0.46142317394E+02  0.99999966530E+01 0.  0.
         12    1    1    2    0    0 -0.25082348550E+02 -0.37107236087E+02 -0.48002440173E+01  0.45045682606E+02  0.00000000000E+00 0. -1.
         11    1    3    3    0    0  0.12604113792E+02  0.12566271501E+02 -0.32298616830E+00  0.17801100647E+02  0.51100000000E-03 0. -1.
        -11    1    3    3    0    0  0.21760357166E+00  0.12480754359E+01  0.11678413538E+01  0.17230488377E+01  0.51100000000E-03 0.  1.
         12    1    3    3    0    0  0.12260631187E+02  0.23292889150E+02  0.39553888318E+01  0.26618167909E+02  0.00000000000E+00 0. -1.
</event>
<event>
 7    1  0.2243370E-008  0.4614232E+02  0.7816164E-02  0.1320468E+00
        -11   -1    0    0    0    0  0.00000000000E+00  0.00000000000E+00  0.45593999997E+02  0.45594000000E+02  0.51100000000E-03 0.  1.
         11   -1    0    0    0    0 -0.00000000000E+00 -0.00000000000E+00 -0.45593999997E+02  0.45594000000E+02  0.51100000000E-03 0. -1.
    9900012    2    1    2    0    0 -0.31240832611E+02  0.10295332662E+02  0.30775477039E+02  0.46142317812E+02  0.10000000461E+02 0.  0.
         12    1    1    2    0    0  0.31240832611E+02 -0.10295332662E+02 -0.30775477039E+02  0.45045682188E+02  0.00000000000E+00 0. -1.
         11    1    3    3    0    0 -0.19097111760E+02  0.45688361899E+01  0.15113505592E+02  0.24778861823E+02  0.51100000000E-03 0. -1.
        -11    1    3    3    0    0 -0.12534492767E+02  0.48924638561E+01  0.15297040630E+02  0.20372755430E+02  0.51100000000E-03 0.  1.
         12    1    3    3    0    0  0.39077191623E+00  0.83403261640E+00  0.36493081677E+00  0.99070055858E+00  0.00000000000E+00 0. -1.
</event>
<event>
 7    1  0.2243370E-008  0.4614232E+02  0.7816164E-02  0.1320468E+00
        -11   -1    0    0    0    0  0.00000000000E+00  0.00000000000E+00  0.45593999997E+02  0.45594000000E+02  0.51100000000E-03 0. -1.
         11   -1    0    0    0    0 -0.00000000000E+00 -0.00000000000E+00 -0.45593999997E+02  0.45594000000E+02  0.51100000000E-03 0.  1.
    9900012    2    1    2    0    0 -0.29419807690E+02 -0.12406007060E+02 -0.31775453373E+02  0.46142317269E+02  0.99999955094E+01 0.  0.
         12    1    1    2    0    0  0.29419807690E+02  0.12406007060E+02  0.31775453373E+02  0.45045682731E+02  0.00000000000E+00 0. -1.
         11    1    3    3    0    0 -0.16354699913E+01  0.71366419666E+00 -0.32923842613E+01  0.37448462002E+01  0.51100000000E-03 0. -1.
        -11    1    3    3    0    0 -0.13204285175E+02 -0.64120422400E+01 -0.18007259246E+02  0.23232064447E+02  0.51100000000E-03 0.  1.
        -12    1    3    3    0    0 -0.14580052523E+02 -0.67076290170E+01 -0.10475809866E+02  0.19165406621E+02  0.00000000000E+00 0.  1.
</event>
<event>
 7    1  0.2243370E-008  0.4614232E+02  0.7816164E-02  0.1320468E+00
        -11   -1    0    0    0    0  0.00000000000E+00  0.00000000000E+00  0.45593999997E+02  0.45594000000E+02  0.51100000000E-03 0. -1.
         11   -1    0    0    0    0 -0.00000000000E+00 -0.00000000000E+00 -0.45593999997E+02  0.45594000000E+02  0.51100000000E-03 0.  1.
    9900012    2    1    2    0    0  0.29047146604E+02  0.13625648827E+02 -0.31618323124E+02  0.46142318864E+02  0.10000010059E+02 0.  0.
         12    1    1    2    0    0 -0.29047146604E+02 -0.13625648827E+02  0.31618323124E+02  0.45045681136E+02  0.00000000000E+00 0. -1.
         11    1    3    3    0    0  0.23582520589E+02  0.13612086581E+02 -0.22699836685E+02  0.35450060144E+02  0.51100000000E-03 0. -1.
        -11    1    3    3    0    0  0.53805419108E+01  0.43639723703E+00 -0.77328549122E+01  0.94306796763E+01  0.51100000000E-03 0.  1.
         12    1    3    3    0    0  0.84084104283E-01 -0.42283499105E+00 -0.11856315271E+01  0.12615790440E+01  0.00000000000E+00 0. -1.
</event>
<event>
 7    1  0.2243370E-008  0.4614232E+02  0.7816164E-02  0.1320468E+00
        -11   -1    0    0    0    0  0.00000000000E+00  0.00000000000E+00  0.45593999997E+02  0.45594000000E+02  0.51100000000E-03 0.  1.
         11   -1    0    0    0    0 -0.00000000000E+00 -0.00000000000E+00 -0.45593999997E+02  0.45594000000E+02  0.51100000000E-03 0. -1.
    9900012    2    1    2    0    0  0.35467155769E+02 -0.87623942074E+01  0.26351750896E+02  0.46142318011E+02  0.10000002276E+02 0.  0.
         12    1    1    2    0    0 -0.35467155769E+02  0.87623942074E+01 -0.26351750896E+02  0.45045681989E+02  0.00000000000E+00 0. -1.
         11    1    3    3    0    0  0.25671176697E+02 -0.39428107656E+01  0.14135165047E+02  0.29569544483E+02  0.51100000000E-03 0. -1.
        -11    1    3    3    0    0  0.41199029336E+01 -0.91849388004E+00  0.56856024916E+01  0.70811939066E+01  0.51100000000E-03 0.  1.
         12    1    3    3    0    0  0.56760761385E+01 -0.39010895617E+01  0.65309833572E+01  0.94915796215E+01  0.00000000000E+00 0. -1.
</event>
<event>
 7    1  0.2243370E-008  0.4614232E+02  0.7816164E-02  0.1320468E+00
        -11   -1    0    0    0    0  0.00000000000E+00  0.00000000000E+00  0.45593999997E+02  0.45594000000E+02  0.51100000000E-03 0. -1.
         11   -1    0    0    0    0 -0.00000000000E+00 -0.00000000000E+00 -0.45593999997E+02  0.45594000000E+02  0.51100000000E-03 0.  1.
    9900012    2    1    2    0    0 -0.22095224824E+02 -0.58025358653E+01 -0.38823256200E+02  0.46142316473E+02  0.99999882511E+01 0.  0.
         12    1    1    2    0    0  0.22095224824E+02  0.58025358653E+01  0.38823256200E+02  0.45045683527E+02  0.00000000000E+00 0. -1.
         11    1    3    3    0    0 -0.29453568802E+01 -0.18384505281E+01 -0.21746769205E+01  0.40968582433E+01  0.51100000000E-03 0. -1.
        -11    1    3    3    0    0 -0.18201510025E+02 -0.52665921323E+01 -0.34486312670E+02  0.39348922751E+02  0.51100000000E-03 0.  1.
        -12    1    3    3    0    0 -0.94835791917E+00  0.13025067952E+01 -0.21622666096E+01  0.26965354782E+01  0.00000000000E+00 0.  1.
</event>
<event>
 7    1  0.2243370E-008  0.4614232E+02  0.7816164E-02  0.1320468E+00
        -11   -1    0    0    0    0  0.00000000000E+00  0.00000000000E+00  0.45593999997E+02  0.45594000000E+02  0.51100000000E-03 0.  1.
         11   -1    0    0    0    0 -0.00000000000E+00 -0.00000000000E+00 -0.45593999997E+02  0.45594000000E+02  0.51100000000E-03 0. -1.
    9900012    2    1    2    0    0 -0.21531042921E+02  0.18430678289E+02  0.35011966540E+02  0.46142317493E+02  0.99999975590E+01 0.  0.
         12    1    1    2    0    0  0.21531042921E+02 -0.18430678289E+02 -0.35011966540E+02  0.45045682507E+02  0.00000000000E+00 0. -1.
         11    1    3    3    0    0 -0.32161689890E+00  0.14982603647E+01  0.55847539847E-01  0.15334082166E+01  0.51100000000E-03 0. -1.
        -11    1    3    3    0    0 -0.20140840744E+02  0.17319044252E+02  0.33227339415E+02  0.42540085150E+02  0.51100000000E-03 0.  1.
        -12    1    3    3    0    0 -0.10685852784E+01 -0.38662632766E+00  0.17287795851E+01  0.20688241269E+01  0.00000000000E+00 0.  1.
</event>
<event>
 7    1  0.2243370E-008  0.4614232E+02  0.7816164E-02  0.1320468E+00
        -11   -1    0    0    0    0  0.00000000000E+00  0.00000000000E+00  0.45593999997E+02  0.45594000000E+02  0.51100000000E-03 0.  1.
         11   -1    0    0    0    0 -0.00000000000E+00 -0.00000000000E+00 -0.45593999997E+02  0.45594000000E+02  0.51100000000E-03 0. -1.
    9900012    2    1    2    0    0 -0.24605985089E+02  0.36219456435E+02  0.10574023576E+02  0.46142317618E+02  0.99999986972E+01 0.  0.
         12    1    1    2    0    0  0.24605985089E+02 -0.36219456435E+02 -0.10574023576E+02  0.45045682382E+02  0.00000000000E+00 0. -1.
         11    1    3    3    0    0 -0.10009264487E+01  0.70962509060E+00 -0.80789307342E+00  0.14690517364E+01  0.51100000000E-03 0. -1.
        -11    1    3    3    0    0 -0.30320910575E+01  0.72613599525E+01 -0.15985358342E+00  0.78706084879E+01  0.51100000000E-03 0.  1.
        -12    1    3    3    0    0 -0.20572967583E+02  0.28248471392E+02  0.11541770233E+02  0.36802657394E+02  0.00000000000E+00 0.  1.
</event>
<event>
 7    1  0.2243370E-008  0.4614232E+02  0.7816164E-02  0.1320468E+00
        -11   -1    0    0    0    0  0.00000000000E+00  0.00000000000E+00  0.45593999997E+02  0.45594000000E+02  0.51100000000E-03 0. -1.
         11   -1    0    0    0    0 -0.00000000000E+00 -0.00000000000E+00 -0.45593999997E+02  0.45594000000E+02  0.51100000000E-03 0.  1.
    9900012    2    1    2    0    0  0.24391835905E+02  0.15531620883E+02 -0.34538682545E+02  0.46142317654E+02  0.99999990258E+01 0.  0.
         12    1    1    2    0    0 -0.24391835905E+02 -0.15531620883E+02  0.34538682545E+02  0.45045682346E+02  0.00000000000E+00 0. -1.
         11    1    3    3    0    0  0.19387102786E+02  0.12214547306E+02 -0.20911621909E+02  0.31021780275E+02  0.51100000000E-03 0. -1.
        -11    1    3    3    0    0  0.27831136087E+01  0.15710599258E+01 -0.41912026542E+01  0.52706859705E+01  0.51100000000E-03 0.  1.
         12    1    3    3    0    0  0.22216195099E+01  0.17460136515E+01 -0.94358579817E+01  0.98498514085E+01  0.00000000000E+00 0. -1.
</event>
<event>
 7    1  0.2243370E-008  0.4614232E+02  0.7816164E-02  0.1320468E+00
        -11   -1    0    0    0    0  0.00000000000E+00  0.00000000000E+00  0.45593999997E+02  0.45594000000E+02  0.51100000000E-03 0.  1.
         11   -1    0    0    0    0 -0.00000000000E+00 -0.00000000000E+00 -0.45593999997E+02  0.45594000000E+02  0.51100000000E-03 0. -1.
    9900012    2    1    2    0    0  0.23209076893E+02 -0.32913785270E+02  0.20177583454E+02  0.46142318908E+02  0.10000010457E+02 0.  0.
         12    1    1    2    0    0 -0.23209076893E+02  0.32913785270E+02 -0.20177583454E+02  0.45045681092E+02  0.00000000000E+00 0. -1.
         11    1    3    3    0    0  0.33094921844E+01 -0.42016763617E+01  0.33753481678E+00  0.53591746361E+01  0.51100000000E-03 0. -1.
        -11    1    3    3    0    0  0.10132542661E+02 -0.15674908198E+02  0.66204742720E+01  0.19804086640E+02  0.51100000000E-03 0.  1.
         12    1    3    3    0    0  0.97670420478E+01 -0.13037200710E+02  0.13219574366E+02  0.20979057632E+02  0.00000000000E+00 0. -1.
</event>
<event>
 7    1  0.2243370E-008  0.4614232E+02  0.7816164E-02  0.1320468E+00
        -11   -1    0    0    0    0  0.00000000000E+00  0.00000000000E+00  0.45593999997E+02  0.45594000000E+02  0.51100000000E-03 0. -1.
         11   -1    0    0    0    0 -0.00000000000E+00 -0.00000000000E+00 -0.45593999997E+02  0.45594000000E+02  0.51100000000E-03 0.  1.
    9900012    2    1    2    0    0  0.30887685594E+02 -0.31668530130E+02 -0.84952072193E+01  0.46142317991E+02  0.10000002094E+02 0.  0.
         12    1    1    2    0    0 -0.30887685594E+02  0.31668530130E+02  0.84952072193E+01  0.45045682009E+02  0.00000000000E+00 0. -1.
         11    1    3    3    0    0  0.74829381270E+01 -0.43761394187E+01 -0.34296169189E+01  0.93224048236E+01  0.51100000000E-03 0. -1.
        -11    1    3    3    0    0  0.53593866507E+01 -0.10632039876E+02 -0.18819384820E+01  0.12054251943E+02  0.51100000000E-03 0.  1.
        -12    1    3    3    0    0  0.18045360817E+02 -0.16660350836E+02 -0.31836518183E+01  0.24765661224E+02  0.00000000000E+00 0.  1.
</event>
<event>
 7    1  0.2243370E-008  0.4614232E+02  0.7816164E-02  0.1320468E+00
        -11   -1    0    0    0    0  0.00000000000E+00  0.00000000000E+00  0.45593999997E+02  0.45594000000E+02  0.51100000000E-03 0.  1.
         11   -1    0    0    0    0 -0.00000000000E+00 -0.00000000000E+00 -0.45593999997E+02  0.45594000000E+02  0.51100000000E-03 0. -1.
    9900012    2    1    2    0    0  0.18226552268E+02 -0.36434524437E+01  0.41032080456E+02  0.46142316745E+02  0.99999907374E+01 0.  0.
         12    1    1    2    0    0 -0.18226552268E+02  0.36434524437E+01 -0.41032080456E+02  0.45045683255E+02  0.00000000000E+00 0. -1.
         11    1    3    3    0    0  0.11253507036E+01 -0.23399408016E+01  0.30012372846E+01  0.39685214703E+01  0.51100000000E-03 0. -1.
        -11    1    3    3    0    0  0.16630856386E+01  0.18074674886E+01  0.44269542767E+01  0.50626788357E+01  0.51100000000E-03 0.  1.
        -12    1    3    3    0    0  0.15438115926E+02 -0.31109791308E+01  0.33603888895E+02  0.37111116439E+02  0.00000000000E+00 0.  1.
</event>
<event>
 7    1  0.2243370E-008  0.4614232E+02  0.7816164E-02  0.1320468E+00
        -11   -1    0    0    0    0  0.00000000000E+00  0.00000000000E+00  0.45593999997E+02  0.45594000000E+02  0.51100000000E-03 0.  1.
         11   -1    0    0    0    0 -0.00000000000E+00 -0.00000000000E+00 -0.45593999997E+02  0.45594000000E+02  0.51100000000E-03 0. -1.
    9900012    2    1    2    0    0  0.17850644494E+02 -0.58094224767E+01  0.40947754924E+02  0.46142317280E+02  0.99999956135E+01 0.  0.
         12    1    1    2    0    0 -0.17850644494E+02  0.58094224767E+01 -0.40947754924E+02  0.45045682720E+02  0.00000000000E+00 0. -1.
         11    1    3    3    0    0 -0.70324806097E-01 -0.63331344868E+00  0.56724256058E-01  0.63972603900E+00  0.51100000000E-03 0. -1.
        -11    1    3    3    0    0  0.14022429211E+02 -0.19198427444E+01  0.23980321240E+02  0.27845468647E+02  0.51100000000E-03 0.  1.
         12    1    3    3    0    0  0.38985400895E+01 -0.32562662837E+01  0.16910709428E+02  0.17657122594E+02  0.00000000000E+00 0. -1.
</event>
<event>
 7    1  0.2243370E-008  0.4614232E+02  0.7816164E-02  0.1320468E+00
        -11   -1    0    0    0    0  0.00000000000E+00  0.00000000000E+00  0.45593999997E+02  0.45594000000E+02  0.51100000000E-03 0.  1.
         11   -1    0    0    0    0 -0.00000000000E+00 -0.00000000000E+00 -0.45593999997E+02  0.45594000000E+02  0.51100000000E-03 0. -1.
    9900012    2    1    2    0    0 -0.24157333157E+02 -0.38004463804E+02  0.10942393750E+01  0.46142319029E+02  0.10000011564E+02 0.  0.
         12    1    1    2    0    0  0.24157333157E+02  0.38004463804E+02 -0.10942393750E+01  0.45045680971E+02  0.00000000000E+00 0. -1.
         11    1    3    3    0    0 -0.15296700344E+02 -0.29337472234E+02 -0.85026922671E+00  0.33096816713E+02  0.51100000000E-03 0. -1.
        -11    1    3    3    0    0 -0.45731566992E+01 -0.53846653653E+01 -0.57306928108E+00  0.70877917544E+01  0.51100000000E-03 0.  1.
        -12    1    3    3    0    0 -0.42874761145E+01 -0.32823262042E+01  0.25175778828E+01  0.59577105619E+01  0.00000000000E+00 0.  1.
</event>
<event>
 7    1  0.2243370E-008  0.4614232E+02  0.7816164E-02  0.1320468E+00
        -11   -1    0    0    0    0  0.00000000000E+00  0.00000000000E+00  0.45593999997E+02  0.45594000000E+02  0.51100000000E-03 0.  1.
         11   -1    0    0    0    0 -0.00000000000E+00 -0.00000000000E+00 -0.45593999997E+02  0.45594000000E+02  0.51100000000E-03 0. -1.
    9900012    2    1    2    0    0  0.25964449209E+02 -0.11500984757E+02  0.34966958967E+02  0.46142317715E+02  0.99999995825E+01 0.  0.
         12    1    1    2    0    0 -0.25964449209E+02  0.11500984757E+02 -0.34966958967E+02  0.45045682285E+02  0.00000000000E+00 0. -1.
         11    1    3    3    0    0  0.14876721123E+02 -0.63985637319E+01  0.16535490074E+02  0.23144780868E+02  0.51100000000E-03 0.  1.
        -11    1    3    3    0    0  0.18383712144E+01 -0.40452442955E+01  0.58345229895E+01  0.73338440745E+01  0.51100000000E-03 0. -1.
         12    1    3    3    0    0  0.92493568714E+01 -0.10571767296E+01  0.12596945904E+02  0.15663692772E+02  0.00000000000E+00 0. -1.
</event>
<event>
 7    1  0.2243370E-008  0.4614232E+02  0.7816164E-02  0.1320468E+00
        -11   -1    0    0    0    0  0.00000000000E+00  0.00000000000E+00  0.45593999997E+02  0.45594000000E+02  0.51100000000E-03 0.  1.
         11   -1    0    0    0    0 -0.00000000000E+00 -0.00000000000E+00 -0.45593999997E+02  0.45594000000E+02  0.51100000000E-03 0. -1.
    9900012    2    1    2    0    0  0.12868234290E+02 -0.21219416765E+02  0.37593330892E+02  0.46142316199E+02  0.99999857554E+01 0.  0.
         12    1    1    2    0    0 -0.12868234290E+02  0.21219416765E+02 -0.37593330892E+02  0.45045683801E+02  0.00000000000E+00 0. -1.
         11    1    3    3    0    0  0.96549296516E+01 -0.15523247071E+02  0.19087013870E+02  0.26429206665E+02  0.51100000000E-03 0. -1.
        -11    1    3    3    0    0  0.10997448973E+01 -0.19094142660E+01  0.89759912422E+01  0.92424953730E+01  0.51100000000E-03 0.  1.
        -12    1    3    3    0    0  0.21135597407E+01 -0.37867554281E+01  0.95303257794E+01  0.10470614161E+02  0.00000000000E+00 0.  1.
</event>
<event>
 7    1  0.2243370E-008  0.4614232E+02  0.7816164E-02  0.1320468E+00
        -11   -1    0    0    0    0  0.00000000000E+00  0.00000000000E+00  0.45593999997E+02  0.45594000000E+02  0.51100000000E-03 0. -1.
         11   -1    0    0    0    0 -0.00000000000E+00 -0.00000000000E+00 -0.45593999997E+02  0.45594000000E+02  0.51100000000E-03 0.  1.
    9900012    2    1    2    0    0 -0.19252634206E+02 -0.30417299934E+02 -0.27078358600E+02  0.46142316926E+02  0.99999923821E+01 0.  0.
         12    1    1    2    0    0  0.19252634206E+02  0.30417299934E+02  0.27078358600E+02  0.45045683074E+02  0.00000000000E+00 0. -1.
         11    1    3    3    0    0 -0.10232720250E+01 -0.13294855584E+01 -0.34671067778E+01  0.38516810820E+01  0.51100000000E-03 0. -1.
        -11    1    3    3    0    0 -0.11030248341E+02 -0.16847987652E+02 -0.18041591684E+02  0.27037383326E+02  0.51100000000E-03 0.  1.
         12    1    3    3    0    0 -0.71991138400E+01 -0.12239826723E+02 -0.55696601387E+01  0.15253252517E+02  0.00000000000E+00 0. -1.
</event>
<event>
 7    1  0.2243370E-008  0.4614232E+02  0.7816164E-02  0.1320468E+00
        -11   -1    0    0    0    0  0.00000000000E+00  0.00000000000E+00  0.45593999997E+02  0.45594000000E+02  0.51100000000E-03 0. -1.
         11   -1    0    0    0    0 -0.00000000000E+00 -0.00000000000E+00 -0.45593999997E+02  0.45594000000E+02  0.51100000000E-03 0.  1.
    9900012    2    1    2    0    0 -0.17533442381E+02 -0.12191692136E+02 -0.39661752018E+02  0.46142317277E+02  0.99999955829E+01 0.  0.
         12    1    1    2    0    0  0.17533442381E+02  0.12191692136E+02  0.39661752018E+02  0.45045682723E+02  0.00000000000E+00 0. -1.
         11    1    3    3    0    0 -0.12016122810E+01 -0.24990296269E+01 -0.28788419458E+01  0.39970929886E+01  0.51100000000E-03 0. -1.
        -11    1    3    3    0    0 -0.99152575145E+00 -0.29195847046E+01 -0.10712321819E+02  0.11147238994E+02  0.51100000000E-03 0.  1.
         12    1    3    3    0    0 -0.15340304348E+02 -0.67730778044E+01 -0.26070588253E+02  0.30997985294E+02  0.00000000000E+00 0. -1.
</event>
<event>
 7    1  0.2243370E-008  0.4614232E+02  0.7816164E-02  0.1320468E+00
        -11   -1    0    0    0    0  0.00000000000E+00  0.00000000000E+00  0.45593999997E+02  0.45594000000E+02  0.51100000000E-03 0.  1.
         11   -1    0    0    0    0 -0.00000000000E+00 -0.00000000000E+00 -0.45593999997E+02  0.45594000000E+02  0.51100000000E-03 0. -1.
    9900012    2    1    2    0    0  0.19858620939E+02  0.28820965838E+02  0.28356669707E+02  0.46142316363E+02  0.99999872532E+01 0.  0.
         12    1    1    2    0    0 -0.19858620939E+02 -0.28820965838E+02 -0.28356669707E+02  0.45045683637E+02  0.00000000000E+00 0. -1.
         11    1    3    3    0    0  0.11230430206E+01 -0.39259051383E+00  0.22431525482E+01  0.25391113708E+01  0.51100000000E-03 0. -1.
        -11    1    3    3    0    0  0.28230558122E+01  0.33765306327E+01  0.48577359412E+01  0.65550134987E+01  0.51100000000E-03 0.  1.
         12    1    3    3    0    0  0.15912522106E+02  0.25837025719E+02  0.21255781218E+02  0.37048191494E+02  0.00000000000E+00 0. -1.
</event>
<event>
 7    1  0.2243370E-008  0.4614232E+02  0.7816164E-02  0.1320468E+00
        -11   -1    0    0    0    0  0.00000000000E+00  0.00000000000E+00  0.45593999997E+02  0.45594000000E+02  0.51100000000E-03 0.  1.
         11   -1    0    0    0    0 -0.00000000000E+00 -0.00000000000E+00 -0.45593999997E+02  0.45594000000E+02  0.51100000000E-03 0. -1.
    9900012    2    1    2    0    0  0.83927178401E+01 -0.35173680430E+02  0.26860528156E+02  0.46142317848E+02  0.10000000792E+02 0.  0.
         12    1    1    2    0    0 -0.83927178401E+01  0.35173680430E+02 -0.26860528156E+02  0.45045682152E+02  0.00000000000E+00 0. -1.
         11    1    3    3    0    0  0.42073294612E+01 -0.70758098018E+01  0.60294088119E+01  0.10204042161E+02  0.51100000000E-03 0. -1.
        -11    1    3    3    0    0  0.36385933459E+01 -0.20726601376E+02  0.18932679356E+02  0.28306849242E+02  0.51100000000E-03 0.  1.
        -12    1    3    3    0    0  0.54679503309E+00 -0.73712692520E+01  0.18984399877E+01  0.76314264447E+01  0.00000000000E+00 0.  1.
</event>
<event>
 7    1  0.2243370E-008  0.4614232E+02  0.7816164E-02  0.1320468E+00
        -11   -1    0    0    0    0  0.00000000000E+00  0.00000000000E+00  0.45593999997E+02  0.45594000000E+02  0.51100000000E-03 0.  1.
         11   -1    0    0    0    0 -0.00000000000E+00 -0.00000000000E+00 -0.45593999997E+02  0.45594000000E+02  0.51100000000E-03 0. -1.
    9900012    2    1    2    0    0  0.58562205328E+01  0.29597528646E+01  0.44565211804E+02  0.46142316976E+02  0.99999928444E+01 0.  0.
         12    1    1    2    0    0 -0.58562205328E+01 -0.29597528646E+01 -0.44565211804E+02  0.45045683024E+02  0.00000000000E+00 0. -1.
         11    1    3    3    0    0 -0.58943345181E+00 -0.51839044134E+00  0.47764446563E+00  0.91886067521E+00  0.51100000000E-03 0. -1.
        -11    1    3    3    0    0  0.25889760314E+01  0.40628037145E+01  0.35056521297E+02  0.35385998031E+02  0.51100000000E-03 0.  1.
        -12    1    3    3    0    0  0.38566779532E+01 -0.58466040858E+00  0.90310460412E+01  0.98374582707E+01  0.00000000000E+00 0.  1.
</event>
<event>
 7    1  0.2243370E-008  0.4614231E+02  0.7816164E-02  0.1320468E+00
        -11   -1    0    0    0    0  0.00000000000E+00  0.00000000000E+00  0.45593999997E+02  0.45594000000E+02  0.51100000000E-03 0.  1.
         11   -1    0    0    0    0 -0.00000000000E+00 -0.00000000000E+00 -0.45593999997E+02  0.45594000000E+02  0.51100000000E-03 0. -1.
    9900012    2    1    2    0    0 -0.13037858676E+02 -0.12475245784E+02  0.41273441619E+02  0.46142306540E+02  0.99998976742E+01 0.  0.
         12    1    1    2    0    0  0.13037858676E+02  0.12475245784E+02 -0.41273441619E+02  0.45045693460E+02  0.00000000000E+00 0. -1.
         11    1    3    3    0    0 -0.15455032878E+00 -0.13656240763E+01  0.79469633977E+01  0.80649266845E+01  0.51100000000E-03 0. -1.
        -11    1    3    3    0    0 -0.66788308605E+01 -0.99692989787E+01  0.19804278001E+02  0.23156060355E+02  0.51100000000E-03 0.  1.
        -12    1    3    3    0    0 -0.62044774863E+01 -0.11403227292E+01  0.13522200221E+02  0.14921319500E+02  0.00000000000E+00 0.  1.
</event>
<event>
 7    1  0.2243370E-008  0.4614232E+02  0.7816164E-02  0.1320468E+00
        -11   -1    0    0    0    0  0.00000000000E+00  0.00000000000E+00  0.45593999997E+02  0.45594000000E+02  0.51100000000E-03 0. -1.
         11   -1    0    0    0    0 -0.00000000000E+00 -0.00000000000E+00 -0.45593999997E+02  0.45594000000E+02  0.51100000000E-03 0.  1.
    9900012    2    1    2    0    0 -0.20066386751E+02  0.20030358911E+01 -0.40279543859E+02  0.46142315595E+02  0.99999802515E+01 0.  0.
         12    1    1    2    0    0  0.20066386751E+02 -0.20030358911E+01  0.40279543859E+02  0.45045684405E+02  0.00000000000E+00 0. -1.
         11    1    3    3    0    0 -0.23094799428E+00 -0.12218057432E+01 -0.11401309543E+01  0.16870225560E+01  0.51100000000E-03 0. -1.
        -11    1    3    3    0    0 -0.71962085683E+01  0.15549663919E+01 -0.21239152929E+02  0.22478989204E+02  0.51100000000E-03 0.  1.
         12    1    3    3    0    0 -0.12639230188E+02  0.16698752424E+01 -0.17900259975E+02  0.21976303835E+02  0.00000000000E+00 0. -1.
</event>
<event>
 7    1  0.2243370E-008  0.4614232E+02  0.7816164E-02  0.1320468E+00
        -11   -1    0    0    0    0  0.00000000000E+00  0.00000000000E+00  0.45593999997E+02  0.45594000000E+02  0.51100000000E-03 0. -1.
         11   -1    0    0    0    0 -0.00000000000E+00 -0.00000000000E+00 -0.45593999997E+02  0.45594000000E+02  0.51100000000E-03 0.  1.
    9900012    2    1    2    0    0  0.37734981421E+02  0.11807681342E+02 -0.21581547802E+02  0.46142319108E+02  0.10000012280E+02 0.  0.
         12    1    1    2    0    0 -0.37734981421E+02 -0.11807681342E+02  0.21581547802E+02  0.45045680892E+02  0.00000000000E+00 0. -1.
         11    1    3    3    0    0  0.69463256130E+01 -0.51168634512E-01 -0.24483135939E+01  0.73653443549E+01  0.51100000000E-03 0. -1.
        -11    1    3    3    0    0  0.26846143043E+02  0.78265414428E+01 -0.17124333104E+02  0.32790439640E+02  0.51100000000E-03 0.  1.
        -12    1    3    3    0    0  0.39425127643E+01  0.40323085341E+01 -0.20089011041E+01  0.59865351128E+01  0.00000000000E+00 0.  1.
</event>
<event>
 7    1  0.2243370E-008  0.4614232E+02  0.7816164E-02  0.1320468E+00
        -11   -1    0    0    0    0  0.00000000000E+00  0.00000000000E+00  0.45593999997E+02  0.45594000000E+02  0.51100000000E-03 0.  1.
         11   -1    0    0    0    0 -0.00000000000E+00 -0.00000000000E+00 -0.45593999997E+02  0.45594000000E+02  0.51100000000E-03 0. -1.
    9900012    2    1    2    0    0 -0.34987885935E+01  0.25311793724E+02  0.37096967820E+02  0.46142318247E+02  0.10000004433E+02 0.  0.
         12    1    1    2    0    0  0.34987885935E+01 -0.25311793724E+02 -0.37096967820E+02  0.45045681753E+02  0.00000000000E+00 0. -1.
         11    1    3    3    0    0  0.35596439574E+00  0.58265551976E+00  0.39068030000E+01  0.39660191689E+01  0.51100000000E-03 0. -1.
        -11    1    3    3    0    0 -0.52007239348E+01  0.14065077897E+02  0.22316036624E+02  0.26886417325E+02  0.51100000000E-03 0.  1.
         12    1    3    3    0    0  0.13459709455E+01  0.10664060307E+02  0.10874128196E+02  0.15289881754E+02  0.00000000000E+00 0. -1.
</event>
<event>
 7    1  0.2243370E-008  0.4614232E+02  0.7816164E-02  0.1320468E+00
        -11   -1    0    0    0    0  0.00000000000E+00  0.00000000000E+00  0.45593999997E+02  0.45594000000E+02  0.51100000000E-03 0.  1.
         11   -1    0    0    0    0 -0.00000000000E+00 -0.00000000000E+00 -0.45593999997E+02  0.45594000000E+02  0.51100000000E-03 0. -1.
    9900012    2    1    2    0    0 -0.13531058546E+02  0.10617160655E+02  0.41632914992E+02  0.46142320335E+02  0.10000023472E+02 0.  0.
         12    1    1    2    0    0  0.13531058546E+02 -0.10617160655E+02 -0.41632914992E+02  0.45045679665E+02  0.00000000000E+00 0. -1.
         11    1    3    3    0    0  0.48677728812E+00 -0.69175737300E+00  0.21600939945E+01  0.23198031635E+01  0.51100000000E-03 0. -1.
        -11    1    3    3    0    0 -0.10668447757E+02  0.96702590615E+01  0.35806600702E+02  0.38593294003E+02  0.51100000000E-03 0.  1.
         12    1    3    3    0    0 -0.33493880771E+01  0.16386589668E+01  0.36662202952E+01  0.52292231692E+01  0.00000000000E+00 0. -1.
</event>
<event>
 7    1  0.2243370E-008  0.4614232E+02  0.7816164E-02  0.1320468E+00
        -11   -1    0    0    0    0  0.00000000000E+00  0.00000000000E+00  0.45593999997E+02  0.45594000000E+02  0.51100000000E-03 0.  1.
         11   -1    0    0    0    0 -0.00000000000E+00 -0.00000000000E+00 -0.45593999997E+02  0.45594000000E+02  0.51100000000E-03 0. -1.
    9900012    2    1    2    0    0  0.29130237940E+02  0.34184201295E+02  0.34616608938E+01  0.46142317890E+02  0.10000001175E+02 0.  0.
         12    1    1    2    0    0 -0.29130237940E+02 -0.34184201295E+02 -0.34616608938E+01  0.45045682110E+02  0.00000000000E+00 0. -1.
         11    1    3    3    0    0  0.11227569155E+02  0.16708973619E+02 -0.25340331460E+01  0.20289638558E+02  0.51100000000E-03 0. -1.
        -11    1    3    3    0    0  0.10202090850E+02  0.10274897646E+02  0.21892279661E+01  0.14644073842E+02  0.51100000000E-03 0.  1.
         12    1    3    3    0    0  0.77005779353E+01  0.72003300297E+01  0.38064660737E+01  0.11208605491E+02  0.00000000000E+00 0. -1.
</event>
<event>
 7    1  0.2243370E-008  0.4614232E+02  0.7816164E-02  0.1320468E+00
        -11   -1    0    0    0    0  0.00000000000E+00  0.00000000000E+00  0.45593999997E+02  0.45594000000E+02  0.51100000000E-03 0.  1.
         11   -1    0    0    0    0 -0.00000000000E+00 -0.00000000000E+00 -0.45593999997E+02  0.45594000000E+02  0.51100000000E-03 0. -1.
    9900012    2    1    2    0    0 -0.24983079130E+02  0.33151020283E+02  0.17491968185E+02  0.46142319413E+02  0.10000015059E+02 0.  0.
         12    1    1    2    0    0  0.24983079130E+02 -0.33151020283E+02 -0.17491968185E+02  0.45045680587E+02  0.00000000000E+00 0. -1.
         11    1    3    3    0    0 -0.15902377279E+02  0.17366491367E+02  0.66276819992E+01  0.24462354639E+02  0.51100000000E-03 0. -1.
        -11    1    3    3    0    0 -0.58693883997E+01  0.84083169407E+01  0.36814860606E+01  0.10895083930E+02  0.51100000000E-03 0.  1.
         12    1    3    3    0    0 -0.32113134513E+01  0.73762119753E+01  0.71828001250E+01  0.10784880844E+02  0.00000000000E+00 0. -1.
</event>
<event>
 7    1  0.2243370E-008  0.4614232E+02  0.7816164E-02  0.1320468E+00
        -11   -1    0    0    0    0  0.00000000000E+00  0.00000000000E+00  0.45593999997E+02  0.45594000000E+02  0.51100000000E-03 0. -1.
         11   -1    0    0    0    0 -0.00000000000E+00 -0.00000000000E+00 -0.45593999997E+02  0.45594000000E+02  0.51100000000E-03 0.  1.
    9900012    2    1    2    0    0  0.38943229167E+02 -0.14450499963E+02 -0.17427608723E+02  0.46142316600E+02  0.99999894136E+01 0.  0.
         12    1    1    2    0    0 -0.38943229167E+02  0.14450499963E+02  0.17427608723E+02  0.45045683400E+02  0.00000000000E+00 0. -1.
         11    1    3    3    0    0 -0.12622803414E+00 -0.11356607061E+00 -0.38374286730E+00  0.41963033532E+00  0.51100000000E-03 0. -1.
        -11    1    3    3    0    0  0.15584443721E+01  0.48815115317E+00  0.54284220582E+00  0.17209643607E+01  0.51100000000E-03 0.  1.
        -12    1    3    3    0    0  0.37511012829E+02 -0.14825085045E+02 -0.17586708061E+02  0.44001721904E+02  0.00000000000E+00 0.  1.
</event>
<event>
 7    1  0.2243370E-008  0.4614232E+02  0.7816164E-02  0.1320468E+00
        -11   -1    0    0    0    0  0.00000000000E+00  0.00000000000E+00  0.45593999997E+02  0.45594000000E+02  0.51100000000E-03 0. -1.
         11   -1    0    0    0    0 -0.00000000000E+00 -0.00000000000E+00 -0.45593999997E+02  0.45594000000E+02  0.51100000000E-03 0.  1.
    9900012    2    1    2    0    0 -0.49588321482E+01  0.44656403863E+02 -0.32138917522E+01  0.46142317383E+02  0.99999965539E+01 0.  0.
         12    1    1    2    0    0  0.49588321482E+01 -0.44656403863E+02  0.32138917522E+01  0.45045682617E+02  0.00000000000E+00 0. -1.
         11    1    3    3    0    0 -0.21836105557E+01  0.77278132162E+01 -0.52896213777E+00  0.80477980447E+01  0.51100000000E-03 0. -1.
        -11    1    3    3    0    0 -0.13357082281E+00  0.29879969772E+02  0.58879655122E+00  0.29886068935E+02  0.51100000000E-03 0.  1.
        -12    1    3    3    0    0 -0.26416507696E+01  0.70486208742E+01 -0.32737261657E+01  0.82084504034E+01  0.00000000000E+00 0.  1.
</event>
<event>
 7    1  0.2243370E-008  0.4614232E+02  0.7816164E-02  0.1320468E+00
        -11   -1    0    0    0    0  0.00000000000E+00  0.00000000000E+00  0.45593999997E+02  0.45594000000E+02  0.51100000000E-03 0.  1.
         11   -1    0    0    0    0 -0.00000000000E+00 -0.00000000000E+00 -0.45593999997E+02  0.45594000000E+02  0.51100000000E-03 0. -1.
    9900012    2    1    2    0    0 -0.15296306385E+02 -0.28840557127E+01  0.42270778608E+02  0.46142317737E+02  0.99999997817E+01 0.  0.
         12    1    1    2    0    0  0.15296306385E+02  0.28840557127E+01 -0.42270778608E+02  0.45045682263E+02  0.00000000000E+00 0. -1.
         11    1    3    3    0    0 -0.10225515580E+02 -0.17942026894E+01  0.14440007756E+02  0.17784660706E+02  0.51100000000E-03 0. -1.
        -11    1    3    3    0    0 -0.34475392940E+01 -0.17389171108E-01  0.15918395947E+02  0.16287454048E+02  0.51100000000E-03 0.  1.
         12    1    3    3    0    0 -0.16232515111E+01 -0.10724638522E+01  0.11912374905E+02  0.12070202983E+02  0.00000000000E+00 0. -1.
</event>
<event>
 7    1  0.2243370E-008  0.4614232E+02  0.7816164E-02  0.1320468E+00
        -11   -1    0    0    0    0  0.00000000000E+00  0.00000000000E+00  0.45593999997E+02  0.45594000000E+02  0.51100000000E-03 0.  1.
         11   -1    0    0    0    0 -0.00000000000E+00 -0.00000000000E+00 -0.45593999997E+02  0.45594000000E+02  0.51100000000E-03 0. -1.
    9900012    2    1    2    0    0  0.41816209594E+02 -0.14557468776E+02  0.82823938696E+01  0.46142319517E+02  0.10000016011E+02 0.  0.
         12    1    1    2    0    0 -0.41816209594E+02  0.14557468776E+02 -0.82823938696E+01  0.45045680483E+02  0.00000000000E+00 0. -1.
         11    1    3    3    0    0 -0.62849251677E-01 -0.12646994983E+01  0.29223903418E+00  0.12995455989E+01  0.51100000000E-03 0. -1.
        -11    1    3    3    0    0  0.18856025961E+02 -0.47329044203E+01  0.18815281905E+01  0.19531775339E+02  0.51100000000E-03 0.  1.
        -12    1    3    3    0    0  0.23023032884E+02 -0.85598648572E+01  0.61086266449E+01  0.25310998579E+02  0.00000000000E+00 0.  1.
</event>
<event>
 7    1  0.2243370E-008  0.4614232E+02  0.7816164E-02  0.1320468E+00
        -11   -1    0    0    0    0  0.00000000000E+00  0.00000000000E+00  0.45593999997E+02  0.45594000000E+02  0.51100000000E-03 0.  1.
         11   -1    0    0    0    0 -0.00000000000E+00 -0.00000000000E+00 -0.45593999997E+02  0.45594000000E+02  0.51100000000E-03 0. -1.
    9900012    2    1    2    0    0  0.22938542204E+02 -0.18049111521E+02  0.34309858173E+02  0.46142317488E+02  0.99999975079E+01 0.  0.
         12    1    1    2    0    0 -0.22938542204E+02  0.18049111521E+02 -0.34309858173E+02  0.45045682512E+02  0.00000000000E+00 0. -1.
         11    1    3    3    0    0  0.13595810156E+02 -0.11341103563E+02  0.19507513785E+02  0.26344065331E+02  0.51100000000E-03 0.  1.
        -11    1    3    3    0    0  0.66734499171E+01 -0.75425075007E+01  0.13101635038E+02  0.16525047477E+02  0.51100000000E-03 0. -1.
        -12    1    3    3    0    0  0.26692821314E+01  0.83449954298E+00  0.17007093505E+01  0.32732046803E+01  0.00000000000E+00 0.  1.
</event>
<event>
 7    1  0.2243370E-008  0.4614232E+02  0.7816164E-02  0.1320468E+00
        -11   -1    0    0    0    0  0.00000000000E+00  0.00000000000E+00  0.45593999997E+02  0.45594000000E+02  0.51100000000E-03 0. -1.
         11   -1    0    0    0    0 -0.00000000000E+00 -0.00000000000E+00 -0.45593999997E+02  0.45594000000E+02  0.51100000000E-03 0.  1.
    9900012    2    1    2    0    0 -0.43211339162E+02 -0.90489902160E+01 -0.89448016324E+01  0.46142317273E+02  0.99999955473E+01 0.  0.
         12    1    1    2    0    0  0.43211339162E+02  0.90489902160E+01  0.89448016324E+01  0.45045682727E+02  0.00000000000E+00 0. -1.
         11    1    3    3    0    0 -0.66314038470E+01  0.82046980643E+00 -0.25694905470E+01  0.71589782524E+01  0.51100000000E-03 0. -1.
        -11    1    3    3    0    0 -0.34901316841E+02 -0.88967480212E+01 -0.74289876462E+01  0.36775588375E+02  0.51100000000E-03 0.  1.
         12    1    3    3    0    0 -0.16786184739E+01 -0.97271200128E+00  0.10536765609E+01  0.22077506456E+01  0.00000000000E+00 0. -1.
</event>
<event>
 7    1  0.2243370E-008  0.4614232E+02  0.7816164E-02  0.1320468E+00
        -11   -1    0    0    0    0  0.00000000000E+00  0.00000000000E+00  0.45593999997E+02  0.45594000000E+02  0.51100000000E-03 0.  1.
         11   -1    0    0    0    0 -0.00000000000E+00 -0.00000000000E+00 -0.45593999997E+02  0.45594000000E+02  0.51100000000E-03 0. -1.
    9900012    2    1    2    0    0  0.27382530392E+02  0.25136720757E+02  0.25445153020E+02  0.46142317484E+02  0.99999974736E+01 0.  0.
         12    1    1    2    0    0 -0.27382530392E+02 -0.25136720757E+02 -0.25445153020E+02  0.45045682516E+02  0.00000000000E+00 0. -1.
         11    1    3    3    0    0  0.97490993623E+01  0.89436334589E+01  0.72285592351E+01  0.15075993722E+02  0.51100000000E-03 0.  1.
        -11    1    3    3    0    0  0.37574741136E+01  0.74068518958E+01  0.34966802764E+01  0.90114837811E+01  0.51100000000E-03 0. -1.
         12    1    3    3    0    0  0.13875956916E+02  0.87862354028E+01  0.14719913509E+02  0.22054839981E+02  0.00000000000E+00 0. -1.
</event>
<event>
 7    1  0.2243370E-008  0.4614232E+02  0.7816164E-02  0.1320468E+00
        -11   -1    0    0    0    0  0.00000000000E+00  0.00000000000E+00  0.45593999997E+02  0.45594000000E+02  0.51100000000E-03 0. -1.
         11   -1    0    0    0    0 -0.00000000000E+00 -0.00000000000E+00 -0.45593999997E+02  0.45594000000E+02  0.51100000000E-03 0.  1.
    9900012    2    1    2    0    0 -0.43765844150E+02 -0.94753073517E+01  0.48870136994E+01  0.46142318004E+02  0.10000002219E+02 0.  0.
         12    1    1    2    0    0  0.43765844150E+02  0.94753073517E+01 -0.48870136994E+01  0.45045681996E+02  0.00000000000E+00 0. -1.
         11    1    3    3    0    0 -0.11831305325E+02 -0.43619255135E+01  0.45835928129E+01  0.13416985624E+02  0.51100000000E-03 0. -1.
        -11    1    3    3    0    0 -0.56139262207E+01 -0.23831318078E+01 -0.12201606795E+01  0.62196685739E+01  0.51100000000E-03 0.  1.
        -12    1    3    3    0    0 -0.26320612604E+02 -0.27302500304E+01  0.15235815660E+01  0.26505663807E+02  0.00000000000E+00 0.  1.
</event>
<event>
 7    1  0.2243370E-008  0.4614232E+02  0.7816164E-02  0.1320468E+00
        -11   -1    0    0    0    0  0.00000000000E+00  0.00000000000E+00  0.45593999997E+02  0.45594000000E+02  0.51100000000E-03 0.  1.
         11   -1    0    0    0    0 -0.00000000000E+00 -0.00000000000E+00 -0.45593999997E+02  0.45594000000E+02  0.51100000000E-03 0. -1.
    9900012    2    1    2    0    0  0.95575323719E+01  0.75684145636E+01  0.43364572461E+02  0.46142317979E+02  0.10000001986E+02 0.  0.
         12    1    1    2    0    0 -0.95575323719E+01 -0.75684145636E+01 -0.43364572461E+02  0.45045682021E+02  0.00000000000E+00 0. -1.
         11    1    3    3    0    0  0.35647008273E+01  0.28724881828E+01  0.60723079969E+01  0.76046830979E+01  0.51100000000E-03 0. -1.
        -11    1    3    3    0    0  0.17481476595E+01  0.32957322085E+01  0.71400914277E+01  0.80559777114E+01  0.51100000000E-03 0.  1.
        -12    1    3    3    0    0  0.42446838850E+01  0.14001941723E+01  0.30152173036E+02  0.30481657170E+02  0.00000000000E+00 0.  1.
</event>
<event>
 7    1  0.2243370E-008  0.4614232E+02  0.7816164E-02  0.1320468E+00
        -11   -1    0    0    0    0  0.00000000000E+00  0.00000000000E+00  0.45593999997E+02  0.45594000000E+02  0.51100000000E-03 0.  1.
         11   -1    0    0    0    0 -0.00000000000E+00 -0.00000000000E+00 -0.45593999997E+02  0.45594000000E+02  0.51100000000E-03 0. -1.
    9900012    2    1    2    0    0  0.25980112389E+02  0.33482415432E+02  0.15266801806E+02  0.46142316297E+02  0.99999866489E+01 0.  0.
         12    1    1    2    0    0 -0.25980112389E+02 -0.33482415432E+02 -0.15266801806E+02  0.45045683703E+02  0.00000000000E+00 0. -1.
         11    1    3    3    0    0  0.11618544170E+02  0.12907459970E+02  0.30980508055E+01  0.17640606865E+02  0.51100000000E-03 0. -1.
        -11    1    3    3    0    0  0.12435201364E+02  0.18841232189E+02  0.87492601425E+01  0.24211068061E+02  0.51100000000E-03 0.  1.
         12    1    3    3    0    0  0.19263668547E+01  0.17337232735E+01  0.34194908583E+01  0.42906413714E+01  0.00000000000E+00 0. -1.
</event>
<event>
 7    1  0.2243370E-008  0.4614232E+02  0.7816164E-02  0.1320468E+00
        -11   -1    0    0    0    0  0.00000000000E+00  0.00000000000E+00  0.45593999997E+02  0.45594000000E+02  0.51100000000E-03 0.  1.
         11   -1    0    0    0    0 -0.00000000000E+00 -0.00000000000E+00 -0.45593999997E+02  0.45594000000E+02  0.51100000000E-03 0. -1.
    9900012    2    1    2    0    0 -0.19726642294E+02  0.21205899666E+02  0.34500476786E+02  0.46142317684E+02  0.99999992948E+01 0.  0.
         12    1    1    2    0    0  0.19726642294E+02 -0.21205899666E+02 -0.34500476786E+02  0.45045682316E+02  0.00000000000E+00 0. -1.
         11    1    3    3    0    0 -0.34532414431E+01  0.49014186279E+01  0.33643715791E+01  0.68751565374E+01  0.51100000000E-03 0. -1.
        -11    1    3    3    0    0 -0.50074410061E+01  0.89491216301E+01  0.16117677650E+02  0.19103423161E+02  0.51100000000E-03 0.  1.
         12    1    3    3    0    0 -0.11265959845E+02  0.73553594083E+01  0.15018427557E+02  0.20163737986E+02  0.00000000000E+00 0. -1.
</event>
<event>
 7    1  0.2243370E-008  0.4614232E+02  0.7816164E-02  0.1320468E+00
        -11   -1    0    0    0    0  0.00000000000E+00  0.00000000000E+00  0.45593999997E+02  0.45594000000E+02  0.51100000000E-03 0.  1.
         11   -1    0    0    0    0 -0.00000000000E+00 -0.00000000000E+00 -0.45593999997E+02  0.45594000000E+02  0.51100000000E-03 0. -1.
    9900012    2    1    2    0    0 -0.43149933641E+02  0.11851564303E+02  0.51707931169E+01  0.46142318175E+02  0.10000003772E+02 0.  0.
         12    1    1    2    0    0  0.43149933641E+02 -0.11851564303E+02 -0.51707931169E+01  0.45045681825E+02  0.00000000000E+00 0. -1.
         11    1    3    3    0    0 -0.10677665911E+02  0.63938403384E+01  0.16631933727E+01  0.12556271582E+02  0.51100000000E-03 0. -1.
        -11    1    3    3    0    0 -0.30473068018E+02  0.58984223400E+01  0.44070339539E+01  0.31349979411E+02  0.51100000000E-03 0.  1.
        -12    1    3    3    0    0 -0.19991997122E+01 -0.44069837500E+00 -0.89943420972E+00  0.22360671825E+01  0.00000000000E+00 0.  1.
</event>
<event>
 7    1  0.2243370E-008  0.4614232E+02  0.7816164E-02  0.1320468E+00
        -11   -1    0    0    0    0  0.00000000000E+00  0.00000000000E+00  0.45593999997E+02  0.45594000000E+02  0.51100000000E-03 0.  1.
         11   -1    0    0    0    0 -0.00000000000E+00 -0.00000000000E+00 -0.45593999997E+02  0.45594000000E+02  0.51100000000E-03 0. -1.
    9900012    2    1    2    0    0  0.24662623874E+02  0.28805306964E+02  0.24313014699E+02  0.46142318638E+02  0.10000007996E+02 0.  0.
         12    1    1    2    0    0 -0.24662623874E+02 -0.28805306964E+02 -0.24313014699E+02  0.45045681362E+02  0.00000000000E+00 0. -1.
         11    1    3    3    0    0  0.92117040762E+01  0.79246723088E+01  0.60630817012E+01  0.13580017790E+02  0.51100000000E-03 0. -1.
        -11    1    3    3    0    0  0.92829421098E+01  0.17483506573E+02  0.12008636227E+02  0.23152826190E+02  0.51100000000E-03 0.  1.
         12    1    3    3    0    0  0.61679776883E+01  0.33971280818E+01  0.62412967701E+01  0.94094746580E+01  0.00000000000E+00 0. -1.
</event>
<event>
 7    1  0.2243370E-008  0.4614232E+02  0.7816164E-02  0.1320468E+00
        -11   -1    0    0    0    0  0.00000000000E+00  0.00000000000E+00  0.45593999997E+02  0.45594000000E+02  0.51100000000E-03 0.  1.
         11   -1    0    0    0    0 -0.00000000000E+00 -0.00000000000E+00 -0.45593999997E+02  0.45594000000E+02  0.51100000000E-03 0. -1.
    9900012    2    1    2    0    0 -0.27284983959E+02  0.31905878782E+01  0.35699625735E+02  0.46142317874E+02  0.10000001025E+02 0.  0.
         12    1    1    2    0    0  0.27284983959E+02 -0.31905878782E+01 -0.35699625735E+02  0.45045682126E+02  0.00000000000E+00 0. -1.
         11    1    3    3    0    0 -0.12865416238E+02 -0.49952472080E+00  0.11293605227E+02  0.17126411743E+02  0.51100000000E-03 0. -1.
        -11    1    3    3    0    0 -0.12193816029E+02  0.45955050009E+01  0.18399598301E+02  0.22546685642E+02  0.51100000000E-03 0.  1.
        -12    1    3    3    0    0 -0.22257516925E+01 -0.90539240188E+00  0.60064222064E+01  0.64692204878E+01  0.00000000000E+00 0.  1.
</event>
<event>
 7    1  0.2243370E-008  0.4614232E+02  0.7816164E-02  0.1320468E+00
        -11   -1    0    0    0    0  0.00000000000E+00  0.00000000000E+00  0.45593999997E+02  0.45594000000E+02  0.51100000000E-03 0. -1.
         11   -1    0    0    0    0 -0.00000000000E+00 -0.00000000000E+00 -0.45593999997E+02  0.45594000000E+02  0.51100000000E-03 0.  1.
    9900012    2    1    2    0    0 -0.20512706616E+02  0.56682981371E+01 -0.39701544963E+02  0.46142318643E+02  0.10000008041E+02 0.  0.
         12    1    1    2    0    0  0.20512706616E+02 -0.56682981371E+01  0.39701544963E+02  0.45045681357E+02  0.00000000000E+00 0. -1.
         11    1    3    3    0    0 -0.67486099812E+00  0.77215291010E+00 -0.25504214144E+01  0.27488737940E+01  0.51100000000E-03 0. -1.
        -11    1    3    3    0    0 -0.18607093300E+02  0.69157678842E+01 -0.34768795944E+02  0.40036495079E+02  0.51100000000E-03 0.  1.
         12    1    3    3    0    0 -0.12307523173E+01 -0.20196226572E+01 -0.23823276042E+01  0.33569497699E+01  0.00000000000E+00 0. -1.
</event>
<event>
 7    1  0.2243370E-008  0.4614232E+02  0.7816164E-02  0.1320468E+00
        -11   -1    0    0    0    0  0.00000000000E+00  0.00000000000E+00  0.45593999997E+02  0.45594000000E+02  0.51100000000E-03 0.  1.
         11   -1    0    0    0    0 -0.00000000000E+00 -0.00000000000E+00 -0.45593999997E+02  0.45594000000E+02  0.51100000000E-03 0. -1.
    9900012    2    1    2    0    0  0.10668841221E+02  0.41281138802E+02  0.14531236489E+02  0.46142318435E+02  0.10000006145E+02 0.  0.
         12    1    1    2    0    0 -0.10668841221E+02 -0.41281138802E+02 -0.14531236489E+02  0.45045681565E+02  0.00000000000E+00 0. -1.
         11    1    3    3    0    0  0.42088961795E+01  0.87633019742E+01  0.69561110024E+01  0.11953984653E+02  0.51100000000E-03 0. -1.
        -11    1    3    3    0    0  0.61797103008E+01  0.22992413940E+02  0.53158008031E+01  0.24394623519E+02  0.51100000000E-03 0.  1.
        -12    1    3    3    0    0  0.28023474032E+00  0.95254228876E+01  0.22593246839E+01  0.97937102635E+01  0.00000000000E+00 0.  1.
</event>
<event>
 7    1  0.2243370E-008  0.4614232E+02  0.7816164E-02  0.1320468E+00
        -11   -1    0    0    0    0  0.00000000000E+00  0.00000000000E+00  0.45593999997E+02  0.45594000000E+02  0.51100000000E-03 0. -1.
         11   -1    0    0    0    0 -0.00000000000E+00 -0.00000000000E+00 -0.45593999997E+02  0.45594000000E+02  0.51100000000E-03 0.  1.
    9900012    2    1    2    0    0 -0.25611949154E+02  0.35111930513E+02 -0.11844570925E+02  0.46142318029E+02  0.10000002447E+02 0.  0.
         12    1    1    2    0    0  0.25611949154E+02 -0.35111930513E+02  0.11844570925E+02  0.45045681971E+02  0.00000000000E+00 0. -1.
         11    1    3    3    0    0 -0.16889636529E+01  0.18262979092E+01  0.94913308528E+00  0.26624830795E+01  0.51100000000E-03 0. -1.
        -11    1    3    3    0    0 -0.41154947279E+01  0.27439571625E+01 -0.29923396419E+01  0.57810634453E+01  0.51100000000E-03 0.  1.
        -12    1    3    3    0    0 -0.19807490773E+02  0.30541675441E+02 -0.98013643683E+01  0.37698771505E+02  0.00000000000E+00 0.  1.
</event>
<event>
 7    1  0.2243370E-008  0.4614232E+02  0.7816164E-02  0.1320468E+00
        -11   -1    0    0    0    0  0.00000000000E+00  0.00000000000E+00  0.45593999997E+02  0.45594000000E+02  0.51100000000E-03 0. -1.
         11   -1    0    0    0    0 -0.00000000000E+00 -0.00000000000E+00 -0.45593999997E+02  0.45594000000E+02  0.51100000000E-03 0.  1.
    9900012    2    1    2    0    0  0.32361796669E+02 -0.30913605436E+02 -0.51162925951E+01  0.46142319468E+02  0.10000015562E+02 0.  0.
         12    1    1    2    0    0 -0.32361796669E+02  0.30913605436E+02  0.51162925951E+01  0.45045680532E+02  0.00000000000E+00 0. -1.
         11    1    3    3    0    0  0.51418973380E-01 -0.26632674282E+01  0.32077566192E+00  0.26830084963E+01  0.51100000000E-03 0. -1.
        -11    1    3    3    0    0  0.19522487712E+02 -0.14479239512E+02 -0.37069385932E+01  0.24586933466E+02  0.51100000000E-03 0.  1.
        -12    1    3    3    0    0  0.12787889984E+02 -0.13771098496E+02 -0.17301296638E+01  0.18872377505E+02  0.00000000000E+00 0.  1.
</event>
<event>
 7    1  0.2243370E-008  0.4614232E+02  0.7816164E-02  0.1320468E+00
        -11   -1    0    0    0    0  0.00000000000E+00  0.00000000000E+00  0.45593999997E+02  0.45594000000E+02  0.51100000000E-03 0. -1.
         11   -1    0    0    0    0 -0.00000000000E+00 -0.00000000000E+00 -0.45593999997E+02  0.45594000000E+02  0.51100000000E-03 0.  1.
    9900012    2    1    2    0    0 -0.34892448237E+02  0.27575211176E+02  0.71580821698E+01  0.46142319233E+02  0.10000013421E+02 0.  0.
         12    1    1    2    0    0  0.34892448237E+02 -0.27575211176E+02 -0.71580821698E+01  0.45045680767E+02  0.00000000000E+00 0. -1.
         11    1    3    3    0    0 -0.52123690919E+01  0.24103569989E+01  0.26104659673E+00  0.57486309674E+01  0.51100000000E-03 0. -1.
        -11    1    3    3    0    0 -0.28616342874E+02  0.24816518484E+02  0.50215221493E+01  0.38209558413E+02  0.51100000000E-03 0.  1.
         12    1    3    3    0    0 -0.10637362719E+01  0.34833569325E+00  0.18755134238E+01  0.21841298529E+01  0.00000000000E+00 0. -1.
</event>
<event>
 7    1  0.2243370E-008  0.4614232E+02  0.7816164E-02  0.1320468E+00
        -11   -1    0    0    0    0  0.00000000000E+00  0.00000000000E+00  0.45593999997E+02  0.45594000000E+02  0.51100000000E-03 0. -1.
         11   -1    0    0    0    0 -0.00000000000E+00 -0.00000000000E+00 -0.45593999997E+02  0.45594000000E+02  0.51100000000E-03 0.  1.
    9900012    2    1    2    0    0 -0.10682364919E+01 -0.39537660761E+02 -0.21557962877E+02  0.46142317509E+02  0.99999977049E+01 0.  0.
         12    1    1    2    0    0  0.10682364919E+01  0.39537660761E+02  0.21557962877E+02  0.45045682491E+02  0.00000000000E+00 0. -1.
         11    1    3    3    0    0  0.47155838824E+00 -0.35081789612E+01  0.81411881237E+00  0.36321449089E+01  0.51100000000E-03 0. -1.
        -11    1    3    3    0    0 -0.18090245819E+01 -0.14134750556E+02 -0.89352506990E+01  0.16819704175E+02  0.51100000000E-03 0.  1.
         12    1    3    3    0    0  0.26922970177E+00 -0.21894731244E+02 -0.13436830991E+02  0.25690468426E+02  0.00000000000E+00 0. -1.
</event>
<event>
 7    1  0.2243370E-008  0.4614232E+02  0.7816164E-02  0.1320468E+00
        -11   -1    0    0    0    0  0.00000000000E+00  0.00000000000E+00  0.45593999997E+02  0.45594000000E+02  0.51100000000E-03 0.  1.
         11   -1    0    0    0    0 -0.00000000000E+00 -0.00000000000E+00 -0.45593999997E+02  0.45594000000E+02  0.51100000000E-03 0. -1.
    9900012    2    1    2    0    0  0.22398019728E+01  0.27368493000E+02  0.35708015221E+02  0.46142317932E+02  0.10000001559E+02 0.  0.
         12    1    1    2    0    0 -0.22398019728E+01 -0.27368493000E+02 -0.35708015221E+02  0.45045682068E+02  0.00000000000E+00 0. -1.
         11    1    3    3    0    0  0.18331422153E+01  0.25939016568E+01  0.48512574031E+01  0.57985717930E+01  0.51100000000E-03 0. -1.
        -11    1    3    3    0    0  0.27155483250E+01  0.16972028154E+02  0.16413482637E+02  0.23766075715E+02  0.51100000000E-03 0.  1.
        -12    1    3    3    0    0 -0.23088885675E+01  0.78025631889E+01  0.14443275180E+02  0.16577670424E+02  0.00000000000E+00 0.  1.
</event>
<event>
 7    1  0.2243370E-008  0.4614232E+02  0.7816164E-02  0.1320468E+00
        -11   -1    0    0    0    0  0.00000000000E+00  0.00000000000E+00  0.45593999997E+02  0.45594000000E+02  0.51100000000E-03 0.  1.
         11   -1    0    0    0    0 -0.00000000000E+00 -0.00000000000E+00 -0.45593999997E+02  0.45594000000E+02  0.51100000000E-03 0. -1.
    9900012    2    1    2    0    0  0.14001017926E+02  0.42771226458E+02 -0.19254276570E+01  0.46142316663E+02  0.99999899846E+01 0.  0.
         12    1    1    2    0    0 -0.14001017926E+02 -0.42771226458E+02  0.19254276570E+01  0.45045683337E+02  0.00000000000E+00 0. -1.
         11    1    3    3    0    0  0.19218973350E+01  0.99502733475E+01 -0.38661851364E+01  0.10846613150E+02  0.51100000000E-03 0. -1.
        -11    1    3    3    0    0  0.61937139246E+00  0.97768494652E+00  0.84927989193E+00  0.14355366148E+01  0.51100000000E-03 0.  1.
        -12    1    3    3    0    0  0.11459749198E+02  0.31843268164E+02  0.10914775875E+01  0.33860166898E+02  0.00000000000E+00 0.  1.
</event>
<event>
 7    1  0.2243370E-008  0.4614232E+02  0.7816164E-02  0.1320468E+00
        -11   -1    0    0    0    0  0.00000000000E+00  0.00000000000E+00  0.45593999997E+02  0.45594000000E+02  0.51100000000E-03 0. -1.
         11   -1    0    0    0    0 -0.00000000000E+00 -0.00000000000E+00 -0.45593999997E+02  0.45594000000E+02  0.51100000000E-03 0.  1.
    9900012    2    1    2    0    0 -0.18899973258E+02 -0.40208849227E+02 -0.74264987757E+01  0.46142318416E+02  0.10000005969E+02 0.  0.
         12    1    1    2    0    0  0.18899973258E+02  0.40208849227E+02  0.74264987757E+01  0.45045681584E+02  0.00000000000E+00 0. -1.
         11    1    3    3    0    0 -0.34579182419E+01 -0.58797233114E+01 -0.68035527669E+00  0.68550148322E+01  0.51100000000E-03 0. -1.
        -11    1    3    3    0    0 -0.13444042322E+02 -0.23693940515E+02 -0.15585874253E+01  0.27286888539E+02  0.51100000000E-03 0.  1.
         12    1    3    3    0    0 -0.19980126941E+01 -0.10635185401E+02 -0.51875560737E+01  0.12000415045E+02  0.00000000000E+00 0. -1.
</event>
<event>
 7    1  0.2243370E-008  0.4614232E+02  0.7816164E-02  0.1320468E+00
        -11   -1    0    0    0    0  0.00000000000E+00  0.00000000000E+00  0.45593999997E+02  0.45594000000E+02  0.51100000000E-03 0.  1.
         11   -1    0    0    0    0 -0.00000000000E+00 -0.00000000000E+00 -0.45593999997E+02  0.45594000000E+02  0.51100000000E-03 0. -1.
    9900012    2    1    2    0    0  0.51036525831E+01  0.25913268904E+02  0.36490666222E+02  0.46142317673E+02  0.99999991946E+01 0.  0.
         12    1    1    2    0    0 -0.51036525831E+01 -0.25913268904E+02 -0.36490666222E+02  0.45045682327E+02  0.00000000000E+00 0. -1.
         11    1    3    3    0    0  0.25380481185E+00  0.16237165140E+01 -0.29632843552E+00  0.16699350296E+01  0.51100000000E-03 0. -1.
        -11    1    3    3    0    0  0.30867884718E+01  0.82822602739E+01  0.14364810039E+02  0.16866293785E+02  0.51100000000E-03 0.  1.
        -12    1    3    3    0    0  0.17630592995E+01  0.16007292116E+02  0.22422184619E+02  0.27606088859E+02  0.00000000000E+00 0.  1.
</event>
<event>
 7    1  0.2243370E-008  0.4614232E+02  0.7816164E-02  0.1320468E+00
        -11   -1    0    0    0    0  0.00000000000E+00  0.00000000000E+00  0.45593999997E+02  0.45594000000E+02  0.51100000000E-03 0.  1.
         11   -1    0    0    0    0 -0.00000000000E+00 -0.00000000000E+00 -0.45593999997E+02  0.45594000000E+02  0.51100000000E-03 0. -1.
    9900012    2    1    2    0    0  0.41286848467E+02 -0.16194981702E+02  0.78887387488E+01  0.46142317768E+02  0.10000000063E+02 0.  0.
         12    1    1    2    0    0 -0.41286848467E+02  0.16194981702E+02 -0.78887387488E+01  0.45045682232E+02  0.00000000000E+00 0. -1.
         11    1    3    3    0    0  0.50737961603E+01 -0.19818790182E+01  0.30229927084E+01  0.62297461501E+01  0.51100000000E-03 0. -1.
        -11    1    3    3    0    0  0.14240085408E+02 -0.55302862387E+01 -0.17534178056E+01  0.15376559192E+02  0.51100000000E-03 0.  1.
        -12    1    3    3    0    0  0.21972966899E+02 -0.86828164449E+01  0.66191638461E+01  0.24536012426E+02  0.00000000000E+00 0.  1.
</event>
<event>
 7    1  0.2243370E-008  0.4614232E+02  0.7816164E-02  0.1320468E+00
        -11   -1    0    0    0    0  0.00000000000E+00  0.00000000000E+00  0.45593999997E+02  0.45594000000E+02  0.51100000000E-03 0.  1.
         11   -1    0    0    0    0 -0.00000000000E+00 -0.00000000000E+00 -0.45593999997E+02  0.45594000000E+02  0.51100000000E-03 0. -1.
    9900012    2    1    2    0    0 -0.11058972389E+02  0.12334636231E+02  0.41888772711E+02  0.46142318737E+02  0.10000008900E+02 0.  0.
         12    1    1    2    0    0  0.11058972389E+02 -0.12334636231E+02 -0.41888772711E+02  0.45045681263E+02  0.00000000000E+00 0. -1.
         11    1    3    3    0    0 -0.37686955802E+01  0.16991950542E+01  0.37699489595E+01  0.55948946037E+01  0.51100000000E-03 0. -1.
        -11    1    3    3    0    0 -0.46174752850E+00 -0.51037784591E+00  0.12058211720E+01  0.13884168270E+01  0.51100000000E-03 0.  1.
        -12    1    3    3    0    0 -0.68285292800E+01  0.11145819023E+02  0.36913002579E+02  0.39159007306E+02  0.00000000000E+00 0.  1.
</event>
<event>
 7    1  0.2243370E-008  0.4614232E+02  0.7816164E-02  0.1320468E+00
        -11   -1    0    0    0    0  0.00000000000E+00  0.00000000000E+00  0.45593999997E+02  0.45594000000E+02  0.51100000000E-03 0. -1.
         11   -1    0    0    0    0 -0.00000000000E+00 -0.00000000000E+00 -0.45593999997E+02  0.45594000000E+02  0.51100000000E-03 0.  1.
    9900012    2    1    2    0    0 -0.13955214868E+02  0.39451946323E+02 -0.16670616277E+02  0.46142317213E+02  0.99999950042E+01 0.  0.
         12    1    1    2    0    0  0.13955214868E+02 -0.39451946323E+02  0.16670616277E+02  0.45045682787E+02  0.00000000000E+00 0. -1.
         11    1    3    3    0    0 -0.96650663108E+01  0.26632499309E+02 -0.10289720257E+02  0.30142691808E+02  0.51100000000E-03 0. -1.
        -11    1    3    3    0    0 -0.51865560817E+01  0.10011223658E+02 -0.65633350688E+01  0.13046161527E+02  0.51100000000E-03 0.  1.
         12    1    3    3    0    0  0.89640752491E+00  0.28082233563E+01  0.18243904822E+00  0.29534638775E+01  0.00000000000E+00 0. -1.
</event>
<event>
 7    1  0.2243370E-008  0.4614232E+02  0.7816164E-02  0.1320468E+00
        -11   -1    0    0    0    0  0.00000000000E+00  0.00000000000E+00  0.45593999997E+02  0.45594000000E+02  0.51100000000E-03 0. -1.
         11   -1    0    0    0    0 -0.00000000000E+00 -0.00000000000E+00 -0.45593999997E+02  0.45594000000E+02  0.51100000000E-03 0.  1.
    9900012    2    1    2    0    0  0.29875616391E+02 -0.71534284261E+01 -0.32945250920E+02  0.46142317064E+02  0.99999936467E+01 0.  0.
         12    1    1    2    0    0 -0.29875616391E+02  0.71534284261E+01  0.32945250920E+02  0.45045682936E+02  0.00000000000E+00 0. -1.
         11    1    3    3    0    0  0.86814249903E+01 -0.53703063824E+01 -0.10611916644E+02  0.14724812583E+02  0.51100000000E-03 0.  1.
        -11    1    3    3    0    0  0.46625413115E+01 -0.24476309179E+01 -0.77075385519E+01  0.93346847500E+01  0.51100000000E-03 0. -1.
         12    1    3    3    0    0  0.16531650089E+02  0.66450887422E+00 -0.14625795724E+02  0.22082819731E+02  0.00000000000E+00 0. -1.
</event>
<event>
 7    1  0.2243370E-008  0.4614232E+02  0.7816164E-02  0.1320468E+00
        -11   -1    0    0    0    0  0.00000000000E+00  0.00000000000E+00  0.45593999997E+02  0.45594000000E+02  0.51100000000E-03 0.  1.
         11   -1    0    0    0    0 -0.00000000000E+00 -0.00000000000E+00 -0.45593999997E+02  0.45594000000E+02  0.51100000000E-03 0. -1.
    9900012    2    1    2    0    0 -0.37342432050E+02 -0.25139304132E+02 -0.16344346755E+01  0.46142320736E+02  0.10000027125E+02 0.  0.
         12    1    1    2    0    0  0.37342432050E+02  0.25139304132E+02  0.16344346755E+01  0.45045679264E+02  0.00000000000E+00 0. -1.
         11    1    3    3    0    0 -0.11894769868E+02 -0.52258007575E+01 -0.33909698232E+01  0.13427331096E+02  0.51100000000E-03 0. -1.
        -11    1    3    3    0    0 -0.23771244265E+02 -0.16898764777E+02  0.21405524196E+01  0.29244183521E+02  0.51100000000E-03 0.  1.
         12    1    3    3    0    0 -0.16764179175E+01 -0.30147385979E+01 -0.38401727186E+00  0.34708061186E+01  0.00000000000E+00 0. -1.
</event>
<event>
 7    1  0.2243370E-008  0.4614232E+02  0.7816164E-02  0.1320468E+00
        -11   -1    0    0    0    0  0.00000000000E+00  0.00000000000E+00  0.45593999997E+02  0.45594000000E+02  0.51100000000E-03 0.  1.
         11   -1    0    0    0    0 -0.00000000000E+00 -0.00000000000E+00 -0.45593999997E+02  0.45594000000E+02  0.51100000000E-03 0. -1.
    9900012    2    1    2    0    0 -0.19708158104E+02 -0.14865193481E+01  0.40478293927E+02  0.46142317467E+02  0.99999973219E+01 0.  0.
         12    1    1    2    0    0  0.19708158104E+02  0.14865193481E+01 -0.40478293927E+02  0.45045682533E+02  0.00000000000E+00 0. -1.
         11    1    3    3    0    0 -0.25575899513E+01 -0.14784351790E+01  0.33608557790E+01  0.44746383950E+01  0.51100000000E-03 0. -1.
        -11    1    3    3    0    0 -0.13482924921E+02 -0.65349943176E+00  0.19861560593E+02  0.24014535502E+02  0.51100000000E-03 0.  1.
         12    1    3    3    0    0 -0.36676432318E+01  0.64541526272E+00  0.17255877555E+02  0.17653143571E+02  0.00000000000E+00 0. -1.
</event>
<event>
 7    1  0.2243370E-008  0.4614232E+02  0.7816164E-02  0.1320468E+00
        -11   -1    0    0    0    0  0.00000000000E+00  0.00000000000E+00  0.45593999997E+02  0.45594000000E+02  0.51100000000E-03 0. -1.
         11   -1    0    0    0    0 -0.00000000000E+00 -0.00000000000E+00 -0.45593999997E+02  0.45594000000E+02  0.51100000000E-03 0.  1.
    9900012    2    1    2    0    0 -0.17570572812E+02 -0.41475956336E+02  0.36541041411E+00  0.46142317547E+02  0.99999980436E+01 0.  0.
         12    1    1    2    0    0  0.17570572812E+02  0.41475956336E+02 -0.36541041411E+00  0.45045682453E+02  0.00000000000E+00 0. -1.
         11    1    3    3    0    0 -0.11781709517E+02 -0.25208139256E+02 -0.23496702872E+01  0.27924539649E+02  0.51100000000E-03 0. -1.
        -11    1    3    3    0    0 -0.32675302938E+01 -0.46636197238E+01 -0.98664744424E+00  0.57792366788E+01  0.51100000000E-03 0.  1.
         12    1    3    3    0    0 -0.25213330008E+01 -0.11604197357E+02  0.37017281455E+01  0.12438541219E+02  0.00000000000E+00 0. -1.
</event>
<event>
 7    1  0.2243370E-008  0.4614232E+02  0.7816164E-02  0.1320468E+00
        -11   -1    0    0    0    0  0.00000000000E+00  0.00000000000E+00  0.45593999997E+02  0.45594000000E+02  0.51100000000E-03 0.  1.
         11   -1    0    0    0    0 -0.00000000000E+00 -0.00000000000E+00 -0.45593999997E+02  0.45594000000E+02  0.51100000000E-03 0. -1.
    9900012    2    1    2    0    0 -0.16210013679E+02 -0.48597057746E+00  0.42025141280E+02  0.46142320846E+02  0.10000028127E+02 0.  0.
         12    1    1    2    0    0  0.16210013679E+02  0.48597057746E+00 -0.42025141280E+02  0.45045679154E+02  0.00000000000E+00 0. -1.
         11    1    3    3    0    0 -0.93934743774E+01  0.21516179179E+00  0.21690678539E+02  0.23638299245E+02  0.51100000000E-03 0. -1.
        -11    1    3    3    0    0 -0.69363555027E+01  0.13371377686E+01  0.12015826946E+02  0.13938474182E+02  0.51100000000E-03 0.  1.
         12    1    3    3    0    0  0.11981620131E+00 -0.20382701379E+01  0.83186357955E+01  0.85655474183E+01  0.00000000000E+00 0. -1.
</event>
<event>
 7    1  0.2243370E-008  0.4614232E+02  0.7816164E-02  0.1320468E+00
        -11   -1    0    0    0    0  0.00000000000E+00  0.00000000000E+00  0.45593999997E+02  0.45594000000E+02  0.51100000000E-03 0.  1.
         11   -1    0    0    0    0 -0.00000000000E+00 -0.00000000000E+00 -0.45593999997E+02  0.45594000000E+02  0.51100000000E-03 0. -1.
    9900012    2    1    2    0    0 -0.22892699760E+02  0.19611520138E+02  0.33472767837E+02  0.46142316399E+02  0.99999875789E+01 0.  0.
         12    1    1    2    0    0  0.22892699760E+02 -0.19611520138E+02 -0.33472767837E+02  0.45045683601E+02  0.00000000000E+00 0. -1.
         11    1    3    3    0    0 -0.42237779127E+01  0.72095295577E+01  0.56514584838E+01  0.10087447623E+02  0.51100000000E-03 0. -1.
        -11    1    3    3    0    0 -0.43530137737E+01  0.93551130836E+00  0.39606574704E+01  0.59590870258E+01  0.51100000000E-03 0.  1.
        -12    1    3    3    0    0 -0.14315908074E+02  0.11466479271E+02  0.23860651883E+02  0.30095781750E+02  0.00000000000E+00 0.  1.
</event>
<event>
 7    1  0.2243370E-008  0.4614232E+02  0.7816164E-02  0.1320468E+00
        -11   -1    0    0    0    0  0.00000000000E+00  0.00000000000E+00  0.45593999997E+02  0.45594000000E+02  0.51100000000E-03 0. -1.
         11   -1    0    0    0    0 -0.00000000000E+00 -0.00000000000E+00 -0.45593999997E+02  0.45594000000E+02  0.51100000000E-03 0.  1.
    9900012    2    1    2    0    0  0.43857535339E+02  0.91798468608E+01 -0.46217222706E+01  0.46142319729E+02  0.10000017941E+02 0.  0.
         12    1    1    2    0    0 -0.43857535339E+02 -0.91798468608E+01  0.46217222706E+01  0.45045680271E+02  0.00000000000E+00 0. -1.
         11    1    3    3    0    0  0.27686718296E+01  0.15504515992E+01  0.12728332113E+01  0.34189981729E+01  0.51100000000E-03 0. -1.
        -11    1    3    3    0    0  0.12930527870E+02 -0.67335163841E+00 -0.22280456033E+01  0.13138346201E+02  0.51100000000E-03 0.  1.
        -12    1    3    3    0    0  0.28158335639E+02  0.83027469001E+01 -0.36665098786E+01  0.29584975355E+02  0.00000000000E+00 0.  1.
</event>
<event>
 7    1  0.2243370E-008  0.4614232E+02  0.7816164E-02  0.1320468E+00
        -11   -1    0    0    0    0  0.00000000000E+00  0.00000000000E+00  0.45593999997E+02  0.45594000000E+02  0.51100000000E-03 0.  1.
         11   -1    0    0    0    0 -0.00000000000E+00 -0.00000000000E+00 -0.45593999997E+02  0.45594000000E+02  0.51100000000E-03 0. -1.
    9900012    2    1    2    0    0 -0.32240521201E+02 -0.11440735187E+01  0.31438091163E+02  0.46142315551E+02  0.99999798442E+01 0.  0.
         12    1    1    2    0    0  0.32240521201E+02  0.11440735187E+01 -0.31438091163E+02  0.45045684449E+02  0.00000000000E+00 0. -1.
         11    1    3    3    0    0 -0.47968304031E+01 -0.15146706064E+01  0.82423755030E+01  0.96561153243E+01  0.51100000000E-03 0. -1.
        -11    1    3    3    0    0 -0.21924828484E+02  0.27370189403E+00  0.21507879580E+02  0.30714197060E+02  0.51100000000E-03 0.  1.
         12    1    3    3    0    0 -0.55188623136E+01  0.96895193702E-01  0.16878360804E+01  0.57720031660E+01  0.00000000000E+00 0. -1.
</event>
<event>
 7    1  0.2243370E-008  0.4614232E+02  0.7816164E-02  0.1320468E+00
        -11   -1    0    0    0    0  0.00000000000E+00  0.00000000000E+00  0.45593999997E+02  0.45594000000E+02  0.51100000000E-03 0.  1.
         11   -1    0    0    0    0 -0.00000000000E+00 -0.00000000000E+00 -0.45593999997E+02  0.45594000000E+02  0.51100000000E-03 0. -1.
    9900012    2    1    2    0    0 -0.25181759894E+02  0.60705343434E-01  0.37349550529E+02  0.46142316064E+02  0.99999845256E+01 0.  0.
         12    1    1    2    0    0  0.25181759894E+02 -0.60705343434E-01 -0.37349550529E+02  0.45045683936E+02  0.00000000000E+00 0. -1.
         11    1    3    3    0    0 -0.60531369651E+01  0.27759357427E+00  0.53173518840E+01  0.80617464999E+01  0.51100000000E-03 0. -1.
        -11    1    3    3    0    0 -0.14230106097E+02  0.31491402507E+01  0.21230410965E+02  0.25751569930E+02  0.51100000000E-03 0.  1.
         12    1    3    3    0    0 -0.48985168326E+01 -0.33660284815E+01  0.10801787680E+02  0.12328999634E+02  0.00000000000E+00 0. -1.
</event>
<event>
 7    1  0.2243370E-008  0.4614232E+02  0.7816164E-02  0.1320468E+00
        -11   -1    0    0    0    0  0.00000000000E+00  0.00000000000E+00  0.45593999997E+02  0.45594000000E+02  0.51100000000E-03 0.  1.
         11   -1    0    0    0    0 -0.00000000000E+00 -0.00000000000E+00 -0.45593999997E+02  0.45594000000E+02  0.51100000000E-03 0. -1.
    9900012    2    1    2    0    0 -0.18513651148E+02 -0.69448665791E+01  0.40473782636E+02  0.46142317282E+02  0.99999956327E+01 0.  0.
         12    1    1    2    0    0  0.18513651148E+02  0.69448665791E+01 -0.40473782636E+02  0.45045682718E+02  0.00000000000E+00 0. -1.
         11    1    3    3    0    0 -0.86319473888E+00  0.15602545865E+01  0.74927990666E+01  0.77020476268E+01  0.51100000000E-03 0. -1.
        -11    1    3    3    0    0 -0.91408791809E+01 -0.54089672786E+01  0.19399247618E+02  0.22116586708E+02  0.51100000000E-03 0.  1.
         12    1    3    3    0    0 -0.85095772286E+01 -0.30961538870E+01  0.13581735952E+02  0.16323682947E+02  0.00000000000E+00 0. -1.
</event>
<event>
 7    1  0.2243370E-008  0.4614232E+02  0.7816164E-02  0.1320468E+00
        -11   -1    0    0    0    0  0.00000000000E+00  0.00000000000E+00  0.45593999997E+02  0.45594000000E+02  0.51100000000E-03 0.  1.
         11   -1    0    0    0    0 -0.00000000000E+00 -0.00000000000E+00 -0.45593999997E+02  0.45594000000E+02  0.51100000000E-03 0. -1.
    9900012    2    1    2    0    0  0.43246169016E+02 -0.11171354481E+02 -0.58380837288E+01  0.46142317442E+02  0.99999970898E+01 0.  0.
         12    1    1    2    0    0 -0.43246169016E+02  0.11171354481E+02  0.58380837288E+01  0.45045682558E+02  0.00000000000E+00 0. -1.
         11    1    3    3    0    0  0.19341166101E+02 -0.60336475049E+01 -0.67691016610E+01  0.21361328281E+02  0.51100000000E-03 0. -1.
        -11    1    3    3    0    0  0.17217689875E+02 -0.31665365180E+01 -0.10358799471E+01  0.17537070613E+02  0.51100000000E-03 0.  1.
        -12    1    3    3    0    0  0.66873130395E+01 -0.19711704577E+01  0.19668978793E+01  0.72439185479E+01  0.00000000000E+00 0.  1.
</event>
<event>
 7    1  0.2243370E-008  0.4614232E+02  0.7816164E-02  0.1320468E+00
        -11   -1    0    0    0    0  0.00000000000E+00  0.00000000000E+00  0.45593999997E+02  0.45594000000E+02  0.51100000000E-03 0.  1.
         11   -1    0    0    0    0 -0.00000000000E+00 -0.00000000000E+00 -0.45593999997E+02  0.45594000000E+02  0.51100000000E-03 0. -1.
    9900012    2    1    2    0    0 -0.30993969826E+02 -0.23631508603E+02  0.22584044284E+02  0.46142318513E+02  0.10000006855E+02 0.  0.
         12    1    1    2    0    0  0.30993969826E+02  0.23631508603E+02 -0.22584044284E+02  0.45045681487E+02  0.00000000000E+00 0. -1.
         11    1    3    3    0    0  0.20089529510E+00  0.22955534991E+00  0.85639608109E+00  0.90910345236E+00  0.51100000000E-03 0. -1.
        -11    1    3    3    0    0 -0.16189409721E+02 -0.12892839050E+02  0.14596369273E+02  0.25325407837E+02  0.51100000000E-03 0.  1.
         12    1    3    3    0    0 -0.15005455400E+02 -0.10968224903E+02  0.71312789300E+01  0.19907807224E+02  0.00000000000E+00 0. -1.
</event>
<event>
 7    1  0.2243370E-008  0.4614232E+02  0.7816164E-02  0.1320468E+00
        -11   -1    0    0    0    0  0.00000000000E+00  0.00000000000E+00  0.45593999997E+02  0.45594000000E+02  0.51100000000E-03 0. -1.
         11   -1    0    0    0    0 -0.00000000000E+00 -0.00000000000E+00 -0.45593999997E+02  0.45594000000E+02  0.51100000000E-03 0.  1.
    9900012    2    1    2    0    0  0.26309833894E+02  0.24473488080E+02 -0.27165319066E+02  0.46142317206E+02  0.99999949425E+01 0.  0.
         12    1    1    2    0    0 -0.26309833894E+02 -0.24473488080E+02  0.27165319066E+02  0.45045682794E+02  0.00000000000E+00 0. -1.
         11    1    3    3    0    0  0.15050954697E+02  0.12205846162E+02 -0.11791415799E+02  0.22683725545E+02  0.51100000000E-03 0. -1.
        -11    1    3    3    0    0  0.11227502928E+02  0.10787230043E+02 -0.11634349034E+02  0.19436543718E+02  0.51100000000E-03 0.  1.
         12    1    3    3    0    0  0.31376269389E-01  0.14804118756E+01 -0.37395542335E+01  0.40220479432E+01  0.00000000000E+00 0. -1.
</event>
<event>
 7    1  0.2243370E-008  0.4614232E+02  0.7816164E-02  0.1320468E+00
        -11   -1    0    0    0    0  0.00000000000E+00  0.00000000000E+00  0.45593999997E+02  0.45594000000E+02  0.51100000000E-03 0.  1.
         11   -1    0    0    0    0 -0.00000000000E+00 -0.00000000000E+00 -0.45593999997E+02  0.45594000000E+02  0.51100000000E-03 0. -1.
    9900012    2    1    2    0    0  0.41385780024E+02 -0.13487806661E+02  0.11593525576E+02  0.46142317055E+02  0.99999935631E+01 0.  0.
         12    1    1    2    0    0 -0.41385780024E+02  0.13487806661E+02 -0.11593525576E+02  0.45045682945E+02  0.00000000000E+00 0. -1.
         11    1    3    3    0    0  0.92431328364E+01 -0.58152767788E+01  0.19468878158E+01  0.11092489399E+02  0.51100000000E-03 0. -1.
        -11    1    3    3    0    0  0.30444115019E+02 -0.64152414408E+01  0.74306048716E+01  0.31987706248E+02  0.51100000000E-03 0.  1.
         12    1    3    3    0    0  0.16985321685E+01 -0.12572884418E+01  0.22160328881E+01  0.30621214075E+01  0.00000000000E+00 0. -1.
</event>
<event>
 7    1  0.2243370E-008  0.4614232E+02  0.7816164E-02  0.1320468E+00
        -11   -1    0    0    0    0  0.00000000000E+00  0.00000000000E+00  0.45593999997E+02  0.45594000000E+02  0.51100000000E-03 0.  1.
         11   -1    0    0    0    0 -0.00000000000E+00 -0.00000000000E+00 -0.45593999997E+02  0.45594000000E+02  0.51100000000E-03 0. -1.
    9900012    2    1    2    0    0  0.28503031166E+02 -0.21723648569E+02  0.27290544808E+02  0.46142317313E+02  0.99999959180E+01 0.  0.
         12    1    1    2    0    0 -0.28503031166E+02  0.21723648569E+02 -0.27290544808E+02  0.45045682687E+02  0.00000000000E+00 0. -1.
         11    1    3    3    0    0  0.75398217360E+01 -0.10016416443E+02  0.10826049972E+02  0.16564445914E+02  0.51100000000E-03 0. -1.
        -11    1    3    3    0    0  0.11257229607E+02 -0.70845510675E+01  0.12079169949E+02  0.17967259924E+02  0.51100000000E-03 0.  1.
        -12    1    3    3    0    0  0.97059798222E+01 -0.46226810586E+01  0.43853248874E+01  0.11610611476E+02  0.00000000000E+00 0.  1.
</event>
<event>
 7    1  0.2243370E-008  0.4614232E+02  0.7816164E-02  0.1320468E+00
        -11   -1    0    0    0    0  0.00000000000E+00  0.00000000000E+00  0.45593999997E+02  0.45594000000E+02  0.51100000000E-03 0. -1.
         11   -1    0    0    0    0 -0.00000000000E+00 -0.00000000000E+00 -0.45593999997E+02  0.45594000000E+02  0.51100000000E-03 0.  1.
    9900012    2    1    2    0    0  0.22352175565E+01 -0.41902483944E+02  0.16379839157E+02  0.46142317754E+02  0.99999999369E+01 0.  0.
         12    1    1    2    0    0 -0.22352175565E+01  0.41902483944E+02 -0.16379839157E+02  0.45045682246E+02  0.00000000000E+00 0. -1.
         11    1    3    3    0    0 -0.98257189473E+00 -0.10503404930E+02  0.25885871569E+01  0.10862216458E+02  0.51100000000E-03 0. -1.
        -11    1    3    3    0    0  0.43460998622E+01 -0.99094954195E+01  0.31271209979E+01  0.11263461700E+02  0.51100000000E-03 0.  1.
        -12    1    3    3    0    0 -0.11283104109E+01 -0.21489583594E+02  0.10664131002E+02  0.24016639596E+02  0.00000000000E+00 0.  1.
</event>
<event>
 7    1  0.2243370E-008  0.4614232E+02  0.7816164E-02  0.1320468E+00
        -11   -1    0    0    0    0  0.00000000000E+00  0.00000000000E+00  0.45593999997E+02  0.45594000000E+02  0.51100000000E-03 0.  1.
         11   -1    0    0    0    0 -0.00000000000E+00 -0.00000000000E+00 -0.45593999997E+02  0.45594000000E+02  0.51100000000E-03 0. -1.
    9900012    2    1    2    0    0 -0.86013094765E+01 -0.19234045942E+02  0.39814349573E+02  0.46142317855E+02  0.10000000858E+02 0.  0.
         12    1    1    2    0    0  0.86013094765E+01  0.19234045942E+02 -0.39814349573E+02  0.45045682145E+02  0.00000000000E+00 0. -1.
         11    1    3    3    0    0 -0.10006882574E+01 -0.61775399954E+01  0.57514744873E+01  0.84995786026E+01  0.51100000000E-03 0. -1.
        -11    1    3    3    0    0 -0.25315773890E+01 -0.30848861389E+01  0.43968092204E+01  0.59377889950E+01  0.51100000000E-03 0.  1.
        -12    1    3    3    0    0 -0.50690438301E+01 -0.99716198075E+01  0.29666065865E+02  0.31704950258E+02  0.00000000000E+00 0.  1.
</event>
<event>
 7    1  0.2243370E-008  0.4614232E+02  0.7816164E-02  0.1320468E+00
        -11   -1    0    0    0    0  0.00000000000E+00  0.00000000000E+00  0.45593999997E+02  0.45594000000E+02  0.51100000000E-03 0.  1.
         11   -1    0    0    0    0 -0.00000000000E+00 -0.00000000000E+00 -0.45593999997E+02  0.45594000000E+02  0.51100000000E-03 0. -1.
    9900012    2    1    2    0    0  0.38965246110E+02 -0.22557317956E+02  0.14108542053E+01  0.46142317551E+02  0.99999980806E+01 0.  0.
         12    1    1    2    0    0 -0.38965246110E+02  0.22557317956E+02 -0.14108542053E+01  0.45045682449E+02  0.00000000000E+00 0. -1.
         11    1    3    3    0    0  0.21594324717E+02 -0.92061534898E+01 -0.14135388617E+00  0.23475265776E+02  0.51100000000E-03 0. -1.
        -11    1    3    3    0    0  0.12944583696E+02 -0.71914447789E+01 -0.47492421015E+00  0.14815690275E+02  0.51100000000E-03 0.  1.
         12    1    3    3    0    0  0.44263376969E+01 -0.61597196870E+01  0.20271323017E+01  0.78513614997E+01  0.00000000000E+00 0. -1.
</event>
<event>
 7    1  0.2243370E-008  0.4614232E+02  0.7816164E-02  0.1320468E+00
        -11   -1    0    0    0    0  0.00000000000E+00  0.00000000000E+00  0.45593999997E+02  0.45594000000E+02  0.51100000000E-03 0.  1.
         11   -1    0    0    0    0 -0.00000000000E+00 -0.00000000000E+00 -0.45593999997E+02  0.45594000000E+02  0.51100000000E-03 0. -1.
    9900012    2    1    2    0    0 -0.43277700969E+02 -0.20065721989E+01  0.12334008144E+02  0.46142317743E+02  0.99999998334E+01 0.  0.
         12    1    1    2    0    0  0.43277700969E+02  0.20065721989E+01 -0.12334008144E+02  0.45045682257E+02  0.00000000000E+00 0. -1.
         11    1    3    3    0    0 -0.14443023652E+02 -0.33307896158E-01  0.18267146459E+00  0.14444217208E+02  0.51100000000E-03 0. -1.
        -11    1    3    3    0    0 -0.12876332878E+02  0.14129059036E+01  0.57745215163E+01  0.14182431049E+02  0.51100000000E-03 0.  1.
         12    1    3    3    0    0 -0.15958344440E+02 -0.33861702063E+01  0.63768151628E+01  0.17515669486E+02  0.00000000000E+00 0. -1.
</event>
<event>
 7    1  0.2243370E-008  0.4614231E+02  0.7816164E-02  0.1320468E+00
        -11   -1    0    0    0    0  0.00000000000E+00  0.00000000000E+00  0.45593999997E+02  0.45594000000E+02  0.51100000000E-03 0.  1.
         11   -1    0    0    0    0 -0.00000000000E+00 -0.00000000000E+00 -0.45593999997E+02  0.45594000000E+02  0.51100000000E-03 0. -1.
    9900012    2    1    2    0    0  0.14783462652E+02 -0.30873783495E+02  0.29280925420E+02  0.46142313539E+02  0.99999614992E+01 0.  0.
         12    1    1    2    0    0 -0.14783462652E+02  0.30873783495E+02 -0.29280925420E+02  0.45045686461E+02  0.00000000000E+00 0. -1.
         11    1    3    3    0    0 -0.28131596206E+00 -0.46745672026E+01  0.33995288034E+01  0.57868396858E+01  0.51100000000E-03 0. -1.
        -11    1    3    3    0    0  0.11880897578E+02 -0.24611956686E+02  0.23756948954E+02  0.36211831810E+02  0.51100000000E-03 0.  1.
         12    1    3    3    0    0  0.31838810362E+01 -0.15872596062E+01  0.21244476632E+01  0.41436420434E+01  0.00000000000E+00 0. -1.
</event>
<event>
 7    1  0.2243370E-008  0.4614232E+02  0.7816164E-02  0.1320468E+00
        -11   -1    0    0    0    0  0.00000000000E+00  0.00000000000E+00  0.45593999997E+02  0.45594000000E+02  0.51100000000E-03 0.  1.
         11   -1    0    0    0    0 -0.00000000000E+00 -0.00000000000E+00 -0.45593999997E+02  0.45594000000E+02  0.51100000000E-03 0. -1.
    9900012    2    1    2    0    0 -0.50725138659E+01  0.32613225537E+01  0.44640194097E+02  0.46142317069E+02  0.99999936908E+01 0.  0.
         12    1    1    2    0    0  0.50725138659E+01 -0.32613225537E+01 -0.44640194097E+02  0.45045682931E+02  0.00000000000E+00 0. -1.
         11    1    3    3    0    0 -0.13042230275E+01 -0.32252112887E+01  0.19917802875E+02  0.20219343639E+02  0.51100000000E-03 0. -1.
        -11    1    3    3    0    0 -0.17936481778E+01  0.16819089820E+01  0.10428490496E+02  0.10714448464E+02  0.51100000000E-03 0.  1.
         12    1    3    3    0    0 -0.19746426606E+01  0.48046248604E+01  0.14293900726E+02  0.15208524967E+02  0.00000000000E+00 0. -1.
</event>
<event>
 7    1  0.2243370E-008  0.4614232E+02  0.7816164E-02  0.1320468E+00
        -11   -1    0    0    0    0  0.00000000000E+00  0.00000000000E+00  0.45593999997E+02  0.45594000000E+02  0.51100000000E-03 0.  1.
         11   -1    0    0    0    0 -0.00000000000E+00 -0.00000000000E+00 -0.45593999997E+02  0.45594000000E+02  0.51100000000E-03 0. -1.
    9900012    2    1    2    0    0 -0.20652689453E+02  0.36600910465E+02  0.16215832370E+02  0.46142318209E+02  0.10000004087E+02 0.  0.
         12    1    1    2    0    0  0.20652689453E+02 -0.36600910465E+02 -0.16215832370E+02  0.45045681791E+02  0.00000000000E+00 0. -1.
         11    1    3    3    0    0 -0.11226439305E+01  0.73258830168E+01  0.33547434292E+01  0.81353054710E+01  0.51100000000E-03 0. -1.
        -11    1    3    3    0    0 -0.64759244840E+01  0.15436050548E+02  0.58763388017E+01  0.17740930427E+02  0.51100000000E-03 0.  1.
         12    1    3    3    0    0 -0.13054121039E+02  0.13838976901E+02  0.69847501389E+01  0.20266082312E+02  0.00000000000E+00 0. -1.
</event>
<event>
 7    1  0.2243370E-008  0.4614232E+02  0.7816164E-02  0.1320468E+00
        -11   -1    0    0    0    0  0.00000000000E+00  0.00000000000E+00  0.45593999997E+02  0.45594000000E+02  0.51100000000E-03 0.  1.
         11   -1    0    0    0    0 -0.00000000000E+00 -0.00000000000E+00 -0.45593999997E+02  0.45594000000E+02  0.51100000000E-03 0. -1.
    9900012    2    1    2    0    0 -0.22534298814E+02  0.12357883250E+02  0.36994616052E+02  0.46142317429E+02  0.99999969743E+01 0.  0.
         12    1    1    2    0    0  0.22534298814E+02 -0.12357883250E+02 -0.36994616052E+02  0.45045682571E+02  0.00000000000E+00 0. -1.
         11    1    3    3    0    0 -0.12052766948E+02  0.19574708474E+01  0.20963563606E+02  0.24260500460E+02  0.51100000000E-03 0.  1.
        -11    1    3    3    0    0 -0.14001053123E+01  0.13242542206E+01  0.12221884840E+01  0.22820361693E+01  0.51100000000E-03 0. -1.
        -12    1    3    3    0    0 -0.90814265529E+01  0.90761581819E+01  0.14808863961E+02  0.19599780800E+02  0.00000000000E+00 0.  1.
</event>
<event>
 7    1  0.2243370E-008  0.4614232E+02  0.7816164E-02  0.1320468E+00
        -11   -1    0    0    0    0  0.00000000000E+00  0.00000000000E+00  0.45593999997E+02  0.45594000000E+02  0.51100000000E-03 0. -1.
         11   -1    0    0    0    0 -0.00000000000E+00 -0.00000000000E+00 -0.45593999997E+02  0.45594000000E+02  0.51100000000E-03 0.  1.
    9900012    2    1    2    0    0 -0.26327166454E+02  0.29869133322E+01 -0.36429003228E+02  0.46142316289E+02  0.99999865769E+01 0.  0.
         12    1    1    2    0    0  0.26327166454E+02 -0.29869133322E+01  0.36429003228E+02  0.45045683711E+02  0.00000000000E+00 0. -1.
         11    1    3    3    0    0 -0.30488901956E+01 -0.17975474173E+01 -0.21108265719E+01  0.41209825552E+01  0.51100000000E-03 0. -1.
        -11    1    3    3    0    0 -0.76379580167E+01  0.12336051578E+01 -0.15286472923E+02  0.17132905155E+02  0.51100000000E-03 0.  1.
         12    1    3    3    0    0 -0.15640318242E+02  0.35508555918E+01 -0.19031703733E+02  0.24888428579E+02  0.00000000000E+00 0. -1.
</event>
<event>
 7    1  0.2243370E-008  0.4614232E+02  0.7816164E-02  0.1320468E+00
        -11   -1    0    0    0    0  0.00000000000E+00  0.00000000000E+00  0.45593999997E+02  0.45594000000E+02  0.51100000000E-03 0.  1.
         11   -1    0    0    0    0 -0.00000000000E+00 -0.00000000000E+00 -0.45593999997E+02  0.45594000000E+02  0.51100000000E-03 0. -1.
    9900012    2    1    2    0    0  0.36268162031E+02 -0.23153975220E+02  0.13327691560E+02  0.46142317544E+02  0.99999980193E+01 0.  0.
         12    1    1    2    0    0 -0.36268162031E+02  0.23153975220E+02 -0.13327691560E+02  0.45045682456E+02  0.00000000000E+00 0. -1.
         11    1    3    3    0    0  0.13844373206E+02 -0.87910817858E+01  0.79445729889E+01  0.18222678965E+02  0.51100000000E-03 0. -1.
        -11    1    3    3    0    0  0.22862580414E+02 -0.14056945669E+02  0.54319168203E+01  0.27382494871E+02  0.51100000000E-03 0.  1.
         12    1    3    3    0    0 -0.43879158923E+00 -0.30594776503E+00 -0.48798248965E-01  0.53714370777E+00  0.00000000000E+00 0. -1.
</event>
<event>
 7    1  0.2243370E-008  0.4614232E+02  0.7816164E-02  0.1320468E+00
        -11   -1    0    0    0    0  0.00000000000E+00  0.00000000000E+00  0.45593999997E+02  0.45594000000E+02  0.51100000000E-03 0. -1.
         11   -1    0    0    0    0 -0.00000000000E+00 -0.00000000000E+00 -0.45593999997E+02  0.45594000000E+02  0.51100000000E-03 0.  1.
    9900012    2    1    2    0    0 -0.39050480634E+02 -0.15680026051E+02 -0.16072032395E+02  0.46142317854E+02  0.10000000844E+02 0.  0.
         12    1    1    2    0    0  0.39050480634E+02  0.15680026051E+02  0.16072032395E+02  0.45045682146E+02  0.00000000000E+00 0. -1.
         11    1    3    3    0    0 -0.86411475803E+01 -0.51112637527E+01 -0.15006793014E+01  0.10151181571E+02  0.51100000000E-03 0. -1.
        -11    1    3    3    0    0 -0.23034248076E+02 -0.88757023211E+01 -0.79427698648E+01  0.25931491849E+02  0.51100000000E-03 0.  1.
        -12    1    3    3    0    0 -0.73750849772E+01 -0.16930599777E+01 -0.66285832290E+01  0.10059644434E+02  0.00000000000E+00 0.  1.
</event>
<event>
 7    1  0.2243370E-008  0.4614232E+02  0.7816164E-02  0.1320468E+00
        -11   -1    0    0    0    0  0.00000000000E+00  0.00000000000E+00  0.45593999997E+02  0.45594000000E+02  0.51100000000E-03 0.  1.
         11   -1    0    0    0    0 -0.00000000000E+00 -0.00000000000E+00 -0.45593999997E+02  0.45594000000E+02  0.51100000000E-03 0. -1.
    9900012    2    1    2    0    0 -0.17152721212E+02 -0.16610819280E+02  0.38196574775E+02  0.46142317780E+02  0.10000000172E+02 0.  0.
         12    1    1    2    0    0  0.17152721212E+02  0.16610819280E+02 -0.38196574775E+02  0.45045682220E+02  0.00000000000E+00 0. -1.
         11    1    3    3    0    0 -0.35052659474E+01 -0.26704640844E+01  0.12309581225E+02  0.13074557659E+02  0.51100000000E-03 0. -1.
        -11    1    3    3    0    0 -0.13876412023E+01 -0.30564585452E+01  0.14858704558E+01  0.36708715883E+01  0.51100000000E-03 0.  1.
        -12    1    3    3    0    0 -0.12259814063E+02 -0.10883896650E+02  0.24401123094E+02  0.29396888533E+02  0.00000000000E+00 0.  1.
</event>
<event>
 7    1  0.2243370E-008  0.4614233E+02  0.7816164E-02  0.1320468E+00
        -11   -1    0    0    0    0  0.00000000000E+00  0.00000000000E+00  0.45593999997E+02  0.45594000000E+02  0.51100000000E-03 0.  1.
         11   -1    0    0    0    0 -0.00000000000E+00 -0.00000000000E+00 -0.45593999997E+02  0.45594000000E+02  0.51100000000E-03 0. -1.
    9900012    2    1    2    0    0 -0.27118638831E+02 -0.30840795081E+02  0.18507769716E+02  0.46142325922E+02  0.10000074422E+02 0.  0.
         12    1    1    2    0    0  0.27118638831E+02  0.30840795081E+02 -0.18507769716E+02  0.45045674078E+02  0.00000000000E+00 0. -1.
         11    1    3    3    0    0 -0.48183337180E+01 -0.18866997590E+01  0.88237107562E+00  0.52492432574E+01  0.51100000000E-03 0.  1.
        -11    1    3    3    0    0 -0.70366061691E+01 -0.73756506450E+01  0.27275423927E+01  0.10552418518E+02  0.51100000000E-03 0. -1.
        -12    1    3    3    0    0 -0.15263698943E+02 -0.21578444677E+02  0.14897856248E+02  0.30340664147E+02  0.00000000000E+00 0.  1.
</event>
<event>
 7    1  0.2243370E-008  0.4614232E+02  0.7816164E-02  0.1320468E+00
        -11   -1    0    0    0    0  0.00000000000E+00  0.00000000000E+00  0.45593999997E+02  0.45594000000E+02  0.51100000000E-03 0. -1.
         11   -1    0    0    0    0 -0.00000000000E+00 -0.00000000000E+00 -0.45593999997E+02  0.45594000000E+02  0.51100000000E-03 0.  1.
    9900012    2    1    2    0    0  0.13184382506E+02 -0.32085112237E+02 -0.28737277542E+02  0.46142317744E+02  0.99999998483E+01 0.  0.
         12    1    1    2    0    0 -0.13184382506E+02  0.32085112237E+02  0.28737277542E+02  0.45045682256E+02  0.00000000000E+00 0. -1.
         11    1    3    3    0    0  0.99665875492E+00 -0.41863572157E+01 -0.11184827516E+01  0.44463377445E+01  0.51100000000E-03 0. -1.
        -11    1    3    3    0    0  0.51234402973E+01 -0.59759175780E+01 -0.45251335932E+01  0.90795410499E+01  0.51100000000E-03 0.  1.
        -12    1    3    3    0    0  0.70642834535E+01 -0.21922837443E+02 -0.23093661198E+02  0.32616438950E+02  0.00000000000E+00 0.  1.
</event>
<event>
 7    1  0.2243370E-008  0.4614232E+02  0.7816164E-02  0.1320468E+00
        -11   -1    0    0    0    0  0.00000000000E+00  0.00000000000E+00  0.45593999997E+02  0.45594000000E+02  0.51100000000E-03 0.  1.
         11   -1    0    0    0    0 -0.00000000000E+00 -0.00000000000E+00 -0.45593999997E+02  0.45594000000E+02  0.51100000000E-03 0. -1.
    9900012    2    1    2    0    0 -0.77403392778E+01 -0.36087357143E+02  0.25824469511E+02  0.46142318484E+02  0.10000006592E+02 0.  0.
         12    1    1    2    0    0  0.77403392778E+01  0.36087357143E+02 -0.25824469511E+02  0.45045681516E+02  0.00000000000E+00 0. -1.
         11    1    3    3    0    0  0.66632599574E+00 -0.16224066915E+01  0.12438099972E+01  0.21501761266E+01  0.51100000000E-03 0. -1.
        -11    1    3    3    0    0 -0.31693543628E+01 -0.25118989591E+02  0.13983603467E+02  0.28923167381E+02  0.51100000000E-03 0.  1.
        -12    1    3    3    0    0 -0.52373109107E+01 -0.93459608608E+01  0.10597056047E+02  0.15068974977E+02  0.00000000000E+00 0.  1.
</event>
<event>
 7    1  0.2243370E-008  0.4614232E+02  0.7816164E-02  0.1320468E+00
        -11   -1    0    0    0    0  0.00000000000E+00  0.00000000000E+00  0.45593999997E+02  0.45594000000E+02  0.51100000000E-03 0.  1.
         11   -1    0    0    0    0 -0.00000000000E+00 -0.00000000000E+00 -0.45593999997E+02  0.45594000000E+02  0.51100000000E-03 0. -1.
    9900012    2    1    2    0    0 -0.23632077325E+02 -0.12978235176E+01  0.38326933407E+02  0.46142320418E+02  0.10000024230E+02 0.  0.
         12    1    1    2    0    0  0.23632077325E+02  0.12978235176E+01 -0.38326933407E+02  0.45045679582E+02  0.00000000000E+00 0. -1.
         11    1    3    3    0    0 -0.55980345577E+01  0.32308443275E+00  0.60876873039E+01  0.82766123161E+01  0.51100000000E-03 0. -1.
        -11    1    3    3    0    0 -0.15738363769E+02 -0.12696713636E+01  0.20378176530E+02  0.25779415014E+02  0.51100000000E-03 0.  1.
         12    1    3    3    0    0 -0.22956789985E+01 -0.35123658683E+00  0.11861069573E+02  0.12086293088E+02  0.00000000000E+00 0. -1.
</event>
<event>
 7    1  0.2243370E-008  0.4614232E+02  0.7816164E-02  0.1320468E+00
        -11   -1    0    0    0    0  0.00000000000E+00  0.00000000000E+00  0.45593999997E+02  0.45594000000E+02  0.51100000000E-03 0.  1.
         11   -1    0    0    0    0 -0.00000000000E+00 -0.00000000000E+00 -0.45593999997E+02  0.45594000000E+02  0.51100000000E-03 0. -1.
    9900012    2    1    2    0    0 -0.23900012688E+02 -0.69276880524E+00  0.38176210931E+02  0.46142316343E+02  0.99999870658E+01 0.  0.
         12    1    1    2    0    0  0.23900012688E+02  0.69276880524E+00 -0.38176210931E+02  0.45045683657E+02  0.00000000000E+00 0. -1.
         11    1    3    3    0    0 -0.13627601032E+02 -0.25362267322E+01  0.18860936786E+02  0.23406812953E+02  0.51100000000E-03 0. -1.
        -11    1    3    3    0    0 -0.95953496596E+01  0.12042756364E+01  0.19518153447E+02  0.21782546434E+02  0.51100000000E-03 0.  1.
        -12    1    3    3    0    0 -0.67706199624E+00  0.63918229060E+00 -0.20287930226E+00  0.95295695530E+00  0.00000000000E+00 0.  1.
</event>
<event>
 7    1  0.2243370E-008  0.4614232E+02  0.7816164E-02  0.1320468E+00
        -11   -1    0    0    0    0  0.00000000000E+00  0.00000000000E+00  0.45593999997E+02  0.45594000000E+02  0.51100000000E-03 0.  1.
         11   -1    0    0    0    0 -0.00000000000E+00 -0.00000000000E+00 -0.45593999997E+02  0.45594000000E+02  0.51100000000E-03 0. -1.
    9900012    2    1    2    0    0  0.29274546862E+02 -0.21408216481E+01  0.34169156827E+02  0.46142317748E+02  0.99999998773E+01 0.  0.
         12    1    1    2    0    0 -0.29274546862E+02  0.21408216481E+01 -0.34169156827E+02  0.45045682252E+02  0.00000000000E+00 0. -1.
         11    1    3    3    0    0  0.17292199666E+01  0.51331498434E-01 -0.25602987377E+00  0.17488247977E+01  0.51100000000E-03 0. -1.
        -11    1    3    3    0    0  0.58864081473E+01  0.53127952367E+00  0.49155853932E+01  0.76873297593E+01  0.51100000000E-03 0.  1.
        -12    1    3    3    0    0  0.21658918748E+02 -0.27234326702E+01  0.29509601308E+02  0.36706163191E+02  0.00000000000E+00 0.  1.
</event>
<event>
 7    1  0.2243370E-008  0.4614232E+02  0.7816164E-02  0.1320468E+00
        -11   -1    0    0    0    0  0.00000000000E+00  0.00000000000E+00  0.45593999997E+02  0.45594000000E+02  0.51100000000E-03 0.  1.
         11   -1    0    0    0    0 -0.00000000000E+00 -0.00000000000E+00 -0.45593999997E+02  0.45594000000E+02  0.51100000000E-03 0. -1.
    9900012    2    1    2    0    0  0.40933761669E+02 -0.99524054124E+01  0.15952747481E+02  0.46142319074E+02  0.10000011974E+02 0.  0.
         12    1    1    2    0    0 -0.40933761669E+02  0.99524054124E+01 -0.15952747481E+02  0.45045680926E+02  0.00000000000E+00 0. -1.
         11    1    3    3    0    0  0.41147870212E+01  0.65511192139E+00 -0.26589412068E+00  0.41750860834E+01  0.51100000000E-03 0. -1.
        -11    1    3    3    0    0  0.36467834964E+01 -0.28283227446E+01  0.15090340714E+01  0.48554735616E+01  0.51100000000E-03 0.  1.
        -12    1    3    3    0    0  0.33172191152E+02 -0.77791945892E+01  0.14709607530E+02  0.37111759429E+02  0.00000000000E+00 0.  1.
</event>
<event>
 7    1  0.2243370E-008  0.4614232E+02  0.7816164E-02  0.1320468E+00
        -11   -1    0    0    0    0  0.00000000000E+00  0.00000000000E+00  0.45593999997E+02  0.45594000000E+02  0.51100000000E-03 0.  1.
         11   -1    0    0    0    0 -0.00000000000E+00 -0.00000000000E+00 -0.45593999997E+02  0.45594000000E+02  0.51100000000E-03 0. -1.
    9900012    2    1    2    0    0 -0.94225878065E+01  0.39482400265E+02  0.19531216560E+02  0.46142317499E+02  0.99999976076E+01 0.  0.
         12    1    1    2    0    0  0.94225878065E+01 -0.39482400265E+02 -0.19531216560E+02  0.45045682501E+02  0.00000000000E+00 0. -1.
         11    1    3    3    0    0  0.61916854758E+00  0.27178252473E+01 -0.37928070849E+00  0.28131473268E+01  0.51100000000E-03 0. -1.
        -11    1    3    3    0    0 -0.13319226752E+01  0.88326114853E+01  0.24725014981E+01  0.92683497767E+01  0.51100000000E-03 0.  1.
        -12    1    3    3    0    0 -0.87098336788E+01  0.27931963533E+02  0.17437995771E+02  0.34060820395E+02  0.00000000000E+00 0.  1.
</event>
<event>
 7    1  0.2243370E-008  0.4614232E+02  0.7816164E-02  0.1320468E+00
        -11   -1    0    0    0    0  0.00000000000E+00  0.00000000000E+00  0.45593999997E+02  0.45594000000E+02  0.51100000000E-03 0.  1.
         11   -1    0    0    0    0 -0.00000000000E+00 -0.00000000000E+00 -0.45593999997E+02  0.45594000000E+02  0.51100000000E-03 0. -1.
    9900012    2    1    2    0    0 -0.26818590959E+02  0.26371593346E+02  0.24787412427E+02  0.46142316839E+02  0.99999915876E+01 0.  0.
         12    1    1    2    0    0  0.26818590959E+02 -0.26371593346E+02 -0.24787412427E+02  0.45045683161E+02  0.00000000000E+00 0. -1.
         11    1    3    3    0    0 -0.50410545363E+01  0.31597149368E+01  0.49352661805E+01  0.77299988262E+01  0.51100000000E-03 0.  1.
        -11    1    3    3    0    0 -0.50763305730E+01  0.29471505549E+01  0.71224907535E+01  0.92295559630E+01  0.51100000000E-03 0. -1.
         12    1    3    3    0    0 -0.16701205850E+02  0.20264727855E+02  0.12729655493E+02  0.29182762049E+02  0.00000000000E+00 0. -1.
</event>
<event>
 7    1  0.2243370E-008  0.4614232E+02  0.7816164E-02  0.1320468E+00
        -11   -1    0    0    0    0  0.00000000000E+00  0.00000000000E+00  0.45593999997E+02  0.45594000000E+02  0.51100000000E-03 0.  1.
         11   -1    0    0    0    0 -0.00000000000E+00 -0.00000000000E+00 -0.45593999997E+02  0.45594000000E+02  0.51100000000E-03 0. -1.
    9900012    2    1    2    0    0  0.20951624107E+02  0.10685910062E+02  0.38418149298E+02  0.46142318498E+02  0.10000006717E+02 0.  0.
         12    1    1    2    0    0 -0.20951624107E+02 -0.10685910062E+02 -0.38418149298E+02  0.45045681502E+02  0.00000000000E+00 0. -1.
         11    1    3    3    0    0  0.19690000684E+01 -0.72979579485E+00  0.42585384858E+01  0.47481273643E+01  0.51100000000E-03 0. -1.
        -11    1    3    3    0    0  0.33129018581E+01  0.33073058913E+00  0.18382506865E+01  0.38031391364E+01  0.51100000000E-03 0.  1.
        -12    1    3    3    0    0  0.15669722180E+02  0.11084975267E+02  0.32321360125E+02  0.37591051997E+02  0.00000000000E+00 0.  1.
</event>
<event>
 7    1  0.2243370E-008  0.4614232E+02  0.7816164E-02  0.1320468E+00
        -11   -1    0    0    0    0  0.00000000000E+00  0.00000000000E+00  0.45593999997E+02  0.45594000000E+02  0.51100000000E-03 0.  1.
         11   -1    0    0    0    0 -0.00000000000E+00 -0.00000000000E+00 -0.45593999997E+02  0.45594000000E+02  0.51100000000E-03 0. -1.
    9900012    2    1    2    0    0 -0.38928806245E+02  0.26070823647E+00  0.22662602604E+02  0.46142317840E+02  0.10000000720E+02 0.  0.
         12    1    1    2    0    0  0.38928806245E+02 -0.26070823647E+00 -0.22662602604E+02  0.45045682160E+02  0.00000000000E+00 0. -1.
         11    1    3    3    0    0 -0.71257685865E+01  0.88440911763E+00  0.15353179977E+01  0.73427487394E+01  0.51100000000E-03 0. -1.
        -11    1    3    3    0    0 -0.12010648353E+02 -0.53513766039E+00  0.12059766806E+02  0.17028799777E+02  0.51100000000E-03 0.  1.
        -12    1    3    3    0    0 -0.19792389306E+02 -0.88563220776E-01  0.90675178002E+01  0.21770769324E+02  0.00000000000E+00 0.  1.
</event>
<event>
 7    1  0.2243370E-008  0.4614232E+02  0.7816164E-02  0.1320468E+00
        -11   -1    0    0    0    0  0.00000000000E+00  0.00000000000E+00  0.45593999997E+02  0.45594000000E+02  0.51100000000E-03 0.  1.
         11   -1    0    0    0    0 -0.00000000000E+00 -0.00000000000E+00 -0.45593999997E+02  0.45594000000E+02  0.51100000000E-03 0. -1.
    9900012    2    1    2    0    0  0.44719445100E+02 -0.53980477278E+01  0.38188053350E+00  0.46142317387E+02  0.99999965904E+01 0.  0.
         12    1    1    2    0    0 -0.44719445100E+02  0.53980477278E+01 -0.38188053350E+00  0.45045682613E+02  0.00000000000E+00 0. -1.
         11    1    3    3    0    0  0.24527816582E+02 -0.27834258624E+01 -0.14444168144E+01  0.24727466227E+02  0.51100000000E-03 0. -1.
        -11    1    3    3    0    0  0.14031818190E+02 -0.35068834387E+01 -0.11630605459E+01  0.14510095219E+02  0.51100000000E-03 0.  1.
         12    1    3    3    0    0  0.61598103276E+01  0.89226157329E+00  0.29893578938E+01  0.69047559410E+01  0.00000000000E+00 0. -1.
</event>
<event>
 7    1  0.2243370E-008  0.4614232E+02  0.7816164E-02  0.1320468E+00
        -11   -1    0    0    0    0  0.00000000000E+00  0.00000000000E+00  0.45593999997E+02  0.45594000000E+02  0.51100000000E-03 0. -1.
         11   -1    0    0    0    0 -0.00000000000E+00 -0.00000000000E+00 -0.45593999997E+02  0.45594000000E+02  0.51100000000E-03 0.  1.
    9900012    2    1    2    0    0  0.16960216440E+02 -0.41487209661E+02 -0.45028874994E+01  0.46142317599E+02  0.99999985227E+01 0.  0.
         12    1    1    2    0    0 -0.16960216440E+02  0.41487209661E+02  0.45028874994E+01  0.45045682401E+02  0.00000000000E+00 0. -1.
         11    1    3    3    0    0  0.12567223293E+02 -0.28695679091E+02  0.33088851332E-01  0.31326956362E+02  0.51100000000E-03 0. -1.
        -11    1    3    3    0    0  0.67324172503E-01 -0.43166079057E+01 -0.10300012533E+00  0.43183614535E+01  0.51100000000E-03 0.  1.
        -12    1    3    3    0    0  0.43256689740E+01 -0.84749226646E+01 -0.44329762254E+01  0.10496999784E+02  0.00000000000E+00 0.  1.
</event>
<event>
 7    1  0.2243370E-008  0.4614232E+02  0.7816164E-02  0.1320468E+00
        -11   -1    0    0    0    0  0.00000000000E+00  0.00000000000E+00  0.45593999997E+02  0.45594000000E+02  0.51100000000E-03 0.  1.
         11   -1    0    0    0    0 -0.00000000000E+00 -0.00000000000E+00 -0.45593999997E+02  0.45594000000E+02  0.51100000000E-03 0. -1.
    9900012    2    1    2    0    0  0.18527192874E+02  0.52154843737E+01  0.40726592442E+02  0.46142317799E+02  0.10000000347E+02 0.  0.
         12    1    1    2    0    0 -0.18527192874E+02 -0.52154843737E+01 -0.40726592442E+02  0.45045682201E+02  0.00000000000E+00 0. -1.
         11    1    3    3    0    0  0.56739345422E+01 -0.14092055029E+01  0.11722786481E+02  0.13099737267E+02  0.51100000000E-03 0. -1.
        -11    1    3    3    0    0  0.33539548010E+01  0.60760498232E+00  0.13288477108E+02  0.13718666872E+02  0.51100000000E-03 0.  1.
        -12    1    3    3    0    0  0.94993035306E+01  0.60170848943E+01  0.15715328853E+02  0.19323913660E+02  0.00000000000E+00 0.  1.
</event>
<event>
 7    1  0.2243370E-008  0.4614232E+02  0.7816164E-02  0.1320468E+00
        -11   -1    0    0    0    0  0.00000000000E+00  0.00000000000E+00  0.45593999997E+02  0.45594000000E+02  0.51100000000E-03 0.  1.
         11   -1    0    0    0    0 -0.00000000000E+00 -0.00000000000E+00 -0.45593999997E+02  0.45594000000E+02  0.51100000000E-03 0. -1.
    9900012    2    1    2    0    0 -0.29413694314E+02  0.67086987463E+00  0.34110084643E+02  0.46142319253E+02  0.10000013608E+02 0.  0.
         12    1    1    2    0    0  0.29413694314E+02 -0.67086987463E+00 -0.34110084643E+02  0.45045680747E+02  0.00000000000E+00 0. -1.
         11    1    3    3    0    0 -0.37482807709E+01 -0.27360155425E+01  0.41940569648E+01  0.62550382790E+01  0.51100000000E-03 0. -1.
        -11    1    3    3    0    0 -0.23769757357E+02  0.22509225926E+01  0.25430731762E+02  0.34882519054E+02  0.51100000000E-03 0.  1.
         12    1    3    3    0    0 -0.18956561861E+01  0.11559628245E+01  0.44852959161E+01  0.50047619207E+01  0.00000000000E+00 0. -1.
</event>
<event>
 7    1  0.2243370E-008  0.4614232E+02  0.7816164E-02  0.1320468E+00
        -11   -1    0    0    0    0  0.00000000000E+00  0.00000000000E+00  0.45593999997E+02  0.45594000000E+02  0.51100000000E-03 0.  1.
         11   -1    0    0    0    0 -0.00000000000E+00 -0.00000000000E+00 -0.45593999997E+02  0.45594000000E+02  0.51100000000E-03 0. -1.
    9900012    2    1    2    0    0 -0.30231405297E+02 -0.33377994427E+02 -0.10417513641E+01  0.46142316254E+02  0.99999862596E+01 0.  0.
         12    1    1    2    0    0  0.30231405297E+02  0.33377994427E+02  0.10417513641E+01  0.45045683746E+02  0.00000000000E+00 0. -1.
         11    1    3    3    0    0 -0.12495515434E+02 -0.11353599343E+02  0.81721221451E+00  0.16902957140E+02  0.51100000000E-03 0.  1.
        -11    1    3    3    0    0 -0.83962900571E+01 -0.55954819098E+01 -0.22477383334E+01  0.10337283608E+02  0.51100000000E-03 0. -1.
         12    1    3    3    0    0 -0.93395998056E+01 -0.16428913174E+02  0.38877475471E+00  0.18902075506E+02  0.00000000000E+00 0. -1.
</event>
<event>
 7    1  0.2243370E-008  0.4614231E+02  0.7816164E-02  0.1320468E+00
        -11   -1    0    0    0    0  0.00000000000E+00  0.00000000000E+00  0.45593999997E+02  0.45594000000E+02  0.51100000000E-03 0.  1.
         11   -1    0    0    0    0 -0.00000000000E+00 -0.00000000000E+00 -0.45593999997E+02  0.45594000000E+02  0.51100000000E-03 0. -1.
    9900012    2    1    2    0    0  0.26047659408E+02  0.26224898457E+02  0.25746609338E+02  0.46142314834E+02  0.99999733052E+01 0.  0.
         12    1    1    2    0    0 -0.26047659408E+02 -0.26224898457E+02 -0.25746609338E+02  0.45045685166E+02  0.00000000000E+00 0. -1.
         11    1    3    3    0    0  0.85628480729E+01  0.88832804278E+01  0.11070603220E+02  0.16576890366E+02  0.51100000000E-03 0. -1.
        -11    1    3    3    0    0  0.12425926579E+02  0.13321231961E+02  0.14178581547E+02  0.23084433007E+02  0.51100000000E-03 0.  1.
        -12    1    3    3    0    0  0.50588847568E+01  0.40203860676E+01  0.49742457061E+00  0.64809914611E+01  0.00000000000E+00 0.  1.
</event>
<event>
 7    1  0.2243370E-008  0.4614232E+02  0.7816164E-02  0.1320468E+00
        -11   -1    0    0    0    0  0.00000000000E+00  0.00000000000E+00  0.45593999997E+02  0.45594000000E+02  0.51100000000E-03 0.  1.
         11   -1    0    0    0    0 -0.00000000000E+00 -0.00000000000E+00 -0.45593999997E+02  0.45594000000E+02  0.51100000000E-03 0. -1.
    9900012    2    1    2    0    0 -0.23246737504E+02  0.34763604061E+02  0.16739010848E+02  0.46142318120E+02  0.10000003269E+02 0.  0.
         12    1    1    2    0    0  0.23246737504E+02 -0.34763604061E+02 -0.16739010848E+02  0.45045681880E+02  0.00000000000E+00 0. -1.
         11    1    3    3    0    0 -0.35022812044E+01  0.45912734434E+01  0.56016880048E+01  0.80451646491E+01  0.51100000000E-03 0. -1.
        -11    1    3    3    0    0 -0.11884122621E+02  0.13445104955E+02  0.51296979771E+01  0.18663253181E+02  0.51100000000E-03 0.  1.
        -12    1    3    3    0    0 -0.78603336791E+01  0.16727225662E+02  0.60076248664E+01  0.19433900289E+02  0.00000000000E+00 0.  1.
</event>
<event>
 7    1  0.2243370E-008  0.4614231E+02  0.7816164E-02  0.1320468E+00
        -11   -1    0    0    0    0  0.00000000000E+00  0.00000000000E+00  0.45593999997E+02  0.45594000000E+02  0.51100000000E-03 0.  1.
         11   -1    0    0    0    0 -0.00000000000E+00 -0.00000000000E+00 -0.45593999997E+02  0.45594000000E+02  0.51100000000E-03 0. -1.
    9900012    2    1    2    0    0 -0.33990429301E+02 -0.16760438388E+02  0.24348557423E+02  0.46142313996E+02  0.99999656685E+01 0.  0.
         12    1    1    2    0    0  0.33990429301E+02  0.16760438388E+02 -0.24348557423E+02  0.45045686004E+02  0.00000000000E+00 0. -1.
         11    1    3    3    0    0 -0.14040141364E+02 -0.50286903802E+01  0.68790429032E+01  0.16423596682E+02  0.51100000000E-03 0. -1.
        -11    1    3    3    0    0 -0.80395088323E+01 -0.66650107886E+01  0.11278083497E+02  0.15370466444E+02  0.51100000000E-03 0.  1.
        -12    1    3    3    0    0 -0.11910779105E+02 -0.50667372191E+01  0.61914310221E+01  0.14348250870E+02  0.00000000000E+00 0.  1.
</event>
<event>
 7    1  0.2243370E-008  0.4614232E+02  0.7816164E-02  0.1320468E+00
        -11   -1    0    0    0    0  0.00000000000E+00  0.00000000000E+00  0.45593999997E+02  0.45594000000E+02  0.51100000000E-03 0. -1.
         11   -1    0    0    0    0 -0.00000000000E+00 -0.00000000000E+00 -0.45593999997E+02  0.45594000000E+02  0.51100000000E-03 0.  1.
    9900012    2    1    2    0    0 -0.16556587435E+02 -0.36092512571E+02 -0.21267898432E+02  0.46142317023E+02  0.99999932702E+01 0.  0.
         12    1    1    2    0    0  0.16556587435E+02  0.36092512571E+02  0.21267898432E+02  0.45045682977E+02  0.00000000000E+00 0. -1.
         11    1    3    3    0    0 -0.65579302244E+01 -0.69222281304E+01 -0.40501492779E+01  0.10359893848E+02  0.51100000000E-03 0. -1.
        -11    1    3    3    0    0 -0.57764113099E+01 -0.19486801250E+02 -0.14206323510E+02  0.24797620421E+02  0.51100000000E-03 0.  1.
        -12    1    3    3    0    0 -0.42222459005E+01 -0.96834831898E+01 -0.30114256436E+01  0.10984802754E+02  0.00000000000E+00 0.  1.
</event>
<event>
 7    1  0.2243370E-008  0.4614232E+02  0.7816164E-02  0.1320468E+00
        -11   -1    0    0    0    0  0.00000000000E+00  0.00000000000E+00  0.45593999997E+02  0.45594000000E+02  0.51100000000E-03 0.  1.
         11   -1    0    0    0    0 -0.00000000000E+00 -0.00000000000E+00 -0.45593999997E+02  0.45594000000E+02  0.51100000000E-03 0. -1.
    9900012    2    1    2    0    0  0.38385020843E+02 -0.15076143754E+02  0.18122190254E+02  0.46142315244E+02  0.99999770433E+01 0.  0.
         12    1    1    2    0    0 -0.38385020843E+02  0.15076143754E+02 -0.18122190254E+02  0.45045684756E+02  0.00000000000E+00 0. -1.
         11    1    3    3    0    0  0.16465204923E+02 -0.60569476571E+01  0.98538193398E+01  0.20121812640E+02  0.51100000000E-03 0. -1.
        -11    1    3    3    0    0  0.18046847606E+01 -0.32967710257E+01  0.12964494080E+01  0.39757222752E+01  0.51100000000E-03 0.  1.
         12    1    3    3    0    0  0.20115131159E+02 -0.57224250711E+01  0.69719215059E+01  0.22044780328E+02  0.00000000000E+00 0. -1.
</event>
<event>
 7    1  0.2243370E-008  0.4614232E+02  0.7816164E-02  0.1320468E+00
        -11   -1    0    0    0    0  0.00000000000E+00  0.00000000000E+00  0.45593999997E+02  0.45594000000E+02  0.51100000000E-03 0. -1.
         11   -1    0    0    0    0 -0.00000000000E+00 -0.00000000000E+00 -0.45593999997E+02  0.45594000000E+02  0.51100000000E-03 0.  1.
    9900012    2    1    2    0    0  0.21024377715E+02  0.25948176047E+02 -0.30228814827E+02  0.46142317141E+02  0.99999943412E+01 0.  0.
         12    1    1    2    0    0 -0.21024377715E+02 -0.25948176047E+02  0.30228814827E+02  0.45045682859E+02  0.00000000000E+00 0. -1.
         11    1    3    3    0    0 -0.42013162336E-01 -0.13283433358E+00 -0.11275606841E+00  0.17923241356E+00  0.51100000000E-03 0. -1.
        -11    1    3    3    0    0  0.21699183170E+02  0.23187685647E+02 -0.27718659674E+02  0.42152667890E+02  0.51100000000E-03 0.  1.
        -12    1    3    3    0    0 -0.63279229265E+00  0.28933247337E+01 -0.23973990845E+01  0.38104168369E+01  0.00000000000E+00 0.  1.
</event>
<event>
 7    1  0.2243370E-008  0.4614232E+02  0.7816164E-02  0.1320468E+00
        -11   -1    0    0    0    0  0.00000000000E+00  0.00000000000E+00  0.45593999997E+02  0.45594000000E+02  0.51100000000E-03 0. -1.
         11   -1    0    0    0    0 -0.00000000000E+00 -0.00000000000E+00 -0.45593999997E+02  0.45594000000E+02  0.51100000000E-03 0.  1.
    9900012    2    1    2    0    0  0.42356442009E+02  0.60544976296E+01  0.14085042905E+02  0.46142317024E+02  0.99999932744E+01 0.  0.
         12    1    1    2    0    0 -0.42356442009E+02 -0.60544976296E+01 -0.14085042905E+02  0.45045682976E+02  0.00000000000E+00 0. -1.
         11    1    3    3    0    0  0.11709865008E+02  0.54671627463E+01  0.59751928100E+01  0.14237757421E+02  0.51100000000E-03 0. -1.
        -11    1    3    3    0    0  0.90740003227E+01  0.17700135969E+01  0.21280289248E+01  0.94867769740E+01  0.51100000000E-03 0.  1.
         12    1    3    3    0    0  0.21572576678E+02 -0.11826787136E+01  0.59818211701E+01  0.22417782629E+02  0.00000000000E+00 0. -1.
</event>
<event>
 7    1  0.2243370E-008  0.4614232E+02  0.7816164E-02  0.1320468E+00
        -11   -1    0    0    0    0  0.00000000000E+00  0.00000000000E+00  0.45593999997E+02  0.45594000000E+02  0.51100000000E-03 0.  1.
         11   -1    0    0    0    0 -0.00000000000E+00 -0.00000000000E+00 -0.45593999997E+02  0.45594000000E+02  0.51100000000E-03 0. -1.
    9900012    2    1    2    0    0  0.44665271762E+01  0.36341375601E+02  0.26238667806E+02  0.46142321697E+02  0.10000035890E+02 0.  0.
         12    1    1    2    0    0 -0.44665271762E+01 -0.36341375601E+02 -0.26238667806E+02  0.45045678303E+02  0.00000000000E+00 0. -1.
         11    1    3    3    0    0  0.61911068639E+00  0.17420987523E+02  0.14383503266E+02  0.22599983867E+02  0.51100000000E-03 0. -1.
        -11    1    3    3    0    0  0.35563670826E+01  0.13284369719E+02  0.11431388234E+02  0.17882920983E+02  0.51100000000E-03 0.  1.
         12    1    3    3    0    0  0.29104940716E+00  0.56360183587E+01  0.42377630607E+00  0.56594168476E+01  0.00000000000E+00 0. -1.
</event>
<event>
 7    1  0.2243370E-008  0.4614232E+02  0.7816164E-02  0.1320468E+00
        -11   -1    0    0    0    0  0.00000000000E+00  0.00000000000E+00  0.45593999997E+02  0.45594000000E+02  0.51100000000E-03 0.  1.
         11   -1    0    0    0    0 -0.00000000000E+00 -0.00000000000E+00 -0.45593999997E+02  0.45594000000E+02  0.51100000000E-03 0. -1.
    9900012    2    1    2    0    0  0.82068373844E+01  0.11907994538E+02  0.42660999601E+02  0.46142318734E+02  0.10000008870E+02 0.  0.
         12    1    1    2    0    0 -0.82068373844E+01 -0.11907994538E+02 -0.42660999601E+02  0.45045681266E+02  0.00000000000E+00 0. -1.
         11    1    3    3    0    0  0.30160460288E+01  0.95987651364E-01  0.72756357816E+01  0.78765870506E+01  0.51100000000E-03 0. -1.
        -11    1    3    3    0    0 -0.16226304720E+01  0.30696747065E+01  0.78748080724E+01  0.86063020451E+01  0.51100000000E-03 0.  1.
        -12    1    3    3    0    0  0.68134218275E+01  0.87423321799E+01  0.27510555747E+02  0.29659429638E+02  0.00000000000E+00 0.  1.
</event>
<event>
 7    1  0.2243370E-008  0.4614232E+02  0.7816164E-02  0.1320468E+00
        -11   -1    0    0    0    0  0.00000000000E+00  0.00000000000E+00  0.45593999997E+02  0.45594000000E+02  0.51100000000E-03 0.  1.
         11   -1    0    0    0    0 -0.00000000000E+00 -0.00000000000E+00 -0.45593999997E+02  0.45594000000E+02  0.51100000000E-03 0. -1.
    9900012    2    1    2    0    0 -0.36522114988E+02  0.72468322349E+01  0.25352159084E+02  0.46142318400E+02  0.10000005823E+02 0.  0.
         12    1    1    2    0    0  0.36522114988E+02 -0.72468322349E+01 -0.25352159084E+02  0.45045681600E+02  0.00000000000E+00 0. -1.
         11    1    3    3    0    0 -0.10920355406E+02 -0.15173317292E+01  0.10446145542E+02  0.15188101090E+02  0.51100000000E-03 0. -1.
        -11    1    3    3    0    0 -0.18373196328E+02  0.61188698429E+01  0.11625914921E+02  0.22587093869E+02  0.51100000000E-03 0.  1.
         12    1    3    3    0    0 -0.72285632541E+01  0.26452941211E+01  0.32800986208E+01  0.83671234405E+01  0.00000000000E+00 0. -1.
</event>
<event>
 7    1  0.2243370E-008  0.4614232E+02  0.7816164E-02  0.1320468E+00
        -11   -1    0    0    0    0  0.00000000000E+00  0.00000000000E+00  0.45593999997E+02  0.45594000000E+02  0.51100000000E-03 0.  1.
         11   -1    0    0    0    0 -0.00000000000E+00 -0.00000000000E+00 -0.45593999997E+02  0.45594000000E+02  0.51100000000E-03 0. -1.
    9900012    2    1    2    0    0  0.23186089471E+02 -0.35162168541E+02 -0.15973116426E+02  0.46142319965E+02  0.10000020093E+02 0.  0.
         12    1    1    2    0    0 -0.23186089471E+02  0.35162168541E+02  0.15973116426E+02  0.45045680035E+02  0.00000000000E+00 0. -1.
         11    1    3    3    0    0 -0.22699304231E+00 -0.14854912825E+01 -0.17541106385E+01  0.23097866968E+01  0.51100000000E-03 0. -1.
        -11    1    3    3    0    0  0.36434320354E+01 -0.40790839750E+01  0.92495988167E-01  0.54701077540E+01  0.51100000000E-03 0.  1.
        -12    1    3    3    0    0  0.19769650478E+02 -0.29597593284E+02 -0.14311501776E+02  0.38362425514E+02  0.00000000000E+00 0.  1.
</event>
<event>
 7    1  0.2243370E-008  0.4614232E+02  0.7816164E-02  0.1320468E+00
        -11   -1    0    0    0    0  0.00000000000E+00  0.00000000000E+00  0.45593999997E+02  0.45594000000E+02  0.51100000000E-03 0.  1.
         11   -1    0    0    0    0 -0.00000000000E+00 -0.00000000000E+00 -0.45593999997E+02  0.45594000000E+02  0.51100000000E-03 0. -1.
    9900012    2    1    2    0    0  0.23839810563E+01 -0.21770921595E+02  0.39363145523E+02  0.46142316320E+02  0.99999868605E+01 0.  0.
         12    1    1    2    0    0 -0.23839810563E+01  0.21770921595E+02 -0.39363145523E+02  0.45045683680E+02  0.00000000000E+00 0. -1.
         11    1    3    3    0    0 -0.29422944874E+01 -0.62871930251E+01  0.82781384318E+01  0.10803400814E+02  0.51100000000E-03 0. -1.
        -11    1    3    3    0    0  0.23322290999E+01 -0.11948474895E+02  0.22223228260E+02  0.25339242677E+02  0.51100000000E-03 0.  1.
         12    1    3    3    0    0  0.29940464437E+01 -0.35352536747E+01  0.88617788306E+01  0.99996728294E+01  0.00000000000E+00 0. -1.
</event>
<event>
 7    1  0.2243370E-008  0.4614232E+02  0.7816164E-02  0.1320468E+00
        -11   -1    0    0    0    0  0.00000000000E+00  0.00000000000E+00  0.45593999997E+02  0.45594000000E+02  0.51100000000E-03 0.  1.
         11   -1    0    0    0    0 -0.00000000000E+00 -0.00000000000E+00 -0.45593999997E+02  0.45594000000E+02  0.51100000000E-03 0. -1.
    9900012    2    1    2    0    0 -0.33592183037E+02  0.29478630218E+02  0.56293046001E+01  0.46142317954E+02  0.10000001760E+02 0.  0.
         12    1    1    2    0    0  0.33592183037E+02 -0.29478630218E+02 -0.56293046001E+01  0.45045682046E+02  0.00000000000E+00 0. -1.
         11    1    3    3    0    0 -0.36700563084E+01  0.28618723275E+01  0.33110117948E+01  0.57116044937E+01  0.51100000000E-03 0. -1.
        -11    1    3    3    0    0 -0.35869444495E+01  0.16980559367E+01 -0.77373940716E+00  0.40432953614E+01  0.51100000000E-03 0.  1.
        -12    1    3    3    0    0 -0.26335182279E+02  0.24918701953E+02  0.30920322124E+01  0.36387418099E+02  0.00000000000E+00 0.  1.
</event>
<event>
 7    1  0.2243370E-008  0.4614232E+02  0.7816164E-02  0.1320468E+00
        -11   -1    0    0    0    0  0.00000000000E+00  0.00000000000E+00  0.45593999997E+02  0.45594000000E+02  0.51100000000E-03 0.  1.
         11   -1    0    0    0    0 -0.00000000000E+00 -0.00000000000E+00 -0.45593999997E+02  0.45594000000E+02  0.51100000000E-03 0. -1.
    9900012    2    1    2    0    0 -0.26742465547E+02  0.42244179756E+00  0.36246041235E+02  0.46142318456E+02  0.10000006334E+02 0.  0.
         12    1    1    2    0    0  0.26742465547E+02 -0.42244179756E+00 -0.36246041235E+02  0.45045681544E+02  0.00000000000E+00 0. -1.
         11    1    3    3    0    0 -0.83762623539E+01 -0.24046640980E+01  0.12008954474E+02  0.14837761565E+02  0.51100000000E-03 0. -1.
        -11    1    3    3    0    0 -0.14651866780E+02  0.22606857763E+01  0.22971153425E+02  0.27339747443E+02  0.51100000000E-03 0.  1.
         12    1    3    3    0    0 -0.37143364133E+01  0.56642011928E+00  0.12659333350E+01  0.39648094470E+01  0.00000000000E+00 0. -1.
</event>
<event>
 7    1  0.2243370E-008  0.4614232E+02  0.7816164E-02  0.1320468E+00
        -11   -1    0    0    0    0  0.00000000000E+00  0.00000000000E+00  0.45593999997E+02  0.45594000000E+02  0.51100000000E-03 0. -1.
         11   -1    0    0    0    0 -0.00000000000E+00 -0.00000000000E+00 -0.45593999997E+02  0.45594000000E+02  0.51100000000E-03 0.  1.
    9900012    2    1    2    0    0 -0.20629976599E+02  0.15796493084E+02 -0.36796579175E+02  0.46142319106E+02  0.10000012260E+02 0.  0.
         12    1    1    2    0    0  0.20629976599E+02 -0.15796493084E+02  0.36796579175E+02  0.45045680894E+02  0.00000000000E+00 0. -1.
         11    1    3    3    0    0 -0.15352226588E+02  0.13958071555E+02 -0.22064587677E+02  0.30288028201E+02  0.51100000000E-03 0. -1.
        -11    1    3    3    0    0 -0.26859781081E+01  0.16854728871E+00 -0.82190340402E+01  0.86484338120E+01  0.51100000000E-03 0.  1.
         12    1    3    3    0    0 -0.25917719034E+01  0.16698742407E+01 -0.65129574582E+01  0.72058570921E+01  0.00000000000E+00 0. -1.
</event>
<event>
 7    1  0.2243370E-008  0.4614232E+02  0.7816164E-02  0.1320468E+00
        -11   -1    0    0    0    0  0.00000000000E+00  0.00000000000E+00  0.45593999997E+02  0.45594000000E+02  0.51100000000E-03 0.  1.
         11   -1    0    0    0    0 -0.00000000000E+00 -0.00000000000E+00 -0.45593999997E+02  0.45594000000E+02  0.51100000000E-03 0. -1.
    9900012    2    1    2    0    0  0.35625021591E+02  0.11981799634E+02  0.24827561498E+02  0.46142317679E+02  0.99999992544E+01 0.  0.
         12    1    1    2    0    0 -0.35625021591E+02 -0.11981799634E+02 -0.24827561498E+02  0.45045682321E+02  0.00000000000E+00 0. -1.
         11    1    3    3    0    0  0.11205247761E+02  0.17060692775E+01  0.89038044585E+01  0.14413395987E+02  0.51100000000E-03 0. -1.
        -11    1    3    3    0    0  0.19870100229E+02  0.68596593215E+01  0.15312701265E+02  0.26006818902E+02  0.51100000000E-03 0.  1.
         12    1    3    3    0    0  0.45496736006E+01  0.34160710350E+01  0.61105577439E+00  0.57221027908E+01  0.00000000000E+00 0. -1.
</event>
<event>
 7    1  0.2243370E-008  0.4614232E+02  0.7816164E-02  0.1320468E+00
        -11   -1    0    0    0    0  0.00000000000E+00  0.00000000000E+00  0.45593999997E+02  0.45594000000E+02  0.51100000000E-03 0.  1.
         11   -1    0    0    0    0 -0.00000000000E+00 -0.00000000000E+00 -0.45593999997E+02  0.45594000000E+02  0.51100000000E-03 0. -1.
    9900012    2    1    2    0    0  0.99966140098E+01 -0.29176989003E+01  0.43825430824E+02  0.46142316018E+02  0.99999841047E+01 0.  0.
         12    1    1    2    0    0 -0.99966140098E+01  0.29176989003E+01 -0.43825430824E+02  0.45045683982E+02  0.00000000000E+00 0. -1.
         11    1    3    3    0    0  0.67972229830E+01 -0.32545929577E+00  0.22661143394E+02  0.23660844960E+02  0.51100000000E-03 0. -1.
        -11    1    3    3    0    0 -0.49262215771E-02 -0.19086185061E+00 -0.45554767155E+00  0.49393972897E+00  0.51100000000E-03 0.  1.
        -12    1    3    3    0    0  0.32043172483E+01 -0.24013777539E+01  0.21619835101E+02  0.21987531329E+02  0.00000000000E+00 0.  1.
</event>
<event>
 7    1  0.2243370E-008  0.4614232E+02  0.7816164E-02  0.1320468E+00
        -11   -1    0    0    0    0  0.00000000000E+00  0.00000000000E+00  0.45593999997E+02  0.45594000000E+02  0.51100000000E-03 0. -1.
         11   -1    0    0    0    0 -0.00000000000E+00 -0.00000000000E+00 -0.45593999997E+02  0.45594000000E+02  0.51100000000E-03 0.  1.
    9900012    2    1    2    0    0  0.44376654419E+02  0.58309656658E+01 -0.50819199809E+01  0.46142317313E+02  0.99999959140E+01 0.  0.
         12    1    1    2    0    0 -0.44376654419E+02 -0.58309656658E+01  0.50819199809E+01  0.45045682687E+02  0.00000000000E+00 0. -1.
         11    1    3    3    0    0  0.52111488282E+01  0.85140890258E+00  0.11412876690E+01  0.54021761387E+01  0.51100000000E-03 0. -1.
        -11    1    3    3    0    0  0.32549854237E+02  0.20804268683E+01 -0.27687552794E+01  0.32733578980E+02  0.51100000000E-03 0.  1.
        -12    1    3    3    0    0  0.66156513543E+01  0.28991298949E+01 -0.34544523705E+01  0.80065621942E+01  0.00000000000E+00 0.  1.
</event>
<event>
 7    1  0.2243370E-008  0.4614232E+02  0.7816164E-02  0.1320468E+00
        -11   -1    0    0    0    0  0.00000000000E+00  0.00000000000E+00  0.45593999997E+02  0.45594000000E+02  0.51100000000E-03 0.  1.
         11   -1    0    0    0    0 -0.00000000000E+00 -0.00000000000E+00 -0.45593999997E+02  0.45594000000E+02  0.51100000000E-03 0. -1.
    9900012    2    1    2    0    0 -0.37242964614E+01  0.42492212968E+02  0.14479467487E+02  0.46142317346E+02  0.99999962167E+01 0.  0.
         12    1    1    2    0    0  0.37242964614E+01 -0.42492212968E+02 -0.14479467487E+02  0.45045682654E+02  0.00000000000E+00 0. -1.
         11    1    3    3    0    0 -0.36839227185E+01  0.16685280875E+02  0.54474703923E+01  0.17934458967E+02  0.51100000000E-03 0. -1.
        -11    1    3    3    0    0 -0.11419076508E+01  0.12697994937E+02  0.98616626361E+00  0.12787319995E+02  0.51100000000E-03 0.  1.
         12    1    3    3    0    0  0.11015339079E+01  0.13108937155E+02  0.80458308315E+01  0.15420538384E+02  0.00000000000E+00 0. -1.
</event>
<event>
 7    1  0.2243370E-008  0.4614232E+02  0.7816164E-02  0.1320468E+00
        -11   -1    0    0    0    0  0.00000000000E+00  0.00000000000E+00  0.45593999997E+02  0.45594000000E+02  0.51100000000E-03 0.  1.
         11   -1    0    0    0    0 -0.00000000000E+00 -0.00000000000E+00 -0.45593999997E+02  0.45594000000E+02  0.51100000000E-03 0. -1.
    9900012    2    1    2    0    0 -0.20972807781E+02  0.16037028853E+02  0.36497513777E+02  0.46142317936E+02  0.10000001599E+02 0.  0.
         12    1    1    2    0    0  0.20972807781E+02 -0.16037028853E+02 -0.36497513777E+02  0.45045682064E+02  0.00000000000E+00 0. -1.
         11    1    3    3    0    0 -0.95429636607E+00  0.34200111177E+01  0.59768760511E+01  0.69519928935E+01  0.51100000000E-03 0. -1.
        -11    1    3    3    0    0 -0.27868394290E+01  0.36161367185E+01  0.96058003001E+01  0.10635521540E+02  0.51100000000E-03 0.  1.
        -12    1    3    3    0    0 -0.17231671986E+02  0.90008810167E+01  0.20914837426E+02  0.28554803503E+02  0.00000000000E+00 0.  1.
</event>
<event>
 7    1  0.2243370E-008  0.4614231E+02  0.7816164E-02  0.1320468E+00
        -11   -1    0    0    0    0  0.00000000000E+00  0.00000000000E+00  0.45593999997E+02  0.45594000000E+02  0.51100000000E-03 0. -1.
         11   -1    0    0    0    0 -0.00000000000E+00 -0.00000000000E+00 -0.45593999997E+02  0.45594000000E+02  0.51100000000E-03 0.  1.
    9900012    2    1    2    0    0 -0.31717802035E+02 -0.30499093876E+02  0.96384715142E+01  0.46142314010E+02  0.99999657944E+01 0.  0.
         12    1    1    2    0    0  0.31717802035E+02  0.30499093876E+02 -0.96384715142E+01  0.45045685990E+02  0.00000000000E+00 0. -1.
         11    1    3    3    0    0 -0.20734979744E+02 -0.21708051603E+02  0.70412844066E+01  0.30834373283E+02  0.51100000000E-03 0. -1.
        -11    1    3    3    0    0 -0.10097302268E+02 -0.86736274628E+01  0.37690079444E+01  0.13834476773E+02  0.51100000000E-03 0.  1.
         12    1    3    3    0    0 -0.88552002311E+00 -0.11741480994E+00 -0.11718208369E+01  0.14734639536E+01  0.00000000000E+00 0. -1.
</event>
<event>
 7    1  0.2243370E-008  0.4614232E+02  0.7816164E-02  0.1320468E+00
        -11   -1    0    0    0    0  0.00000000000E+00  0.00000000000E+00  0.45593999997E+02  0.45594000000E+02  0.51100000000E-03 0.  1.
         11   -1    0    0    0    0 -0.00000000000E+00 -0.00000000000E+00 -0.45593999997E+02  0.45594000000E+02  0.51100000000E-03 0. -1.
    9900012    2    1    2    0    0  0.21021474979E+02 -0.34022414080E+00  0.39838363522E+02  0.46142319065E+02  0.10000011889E+02 0.  0.
         12    1    1    2    0    0 -0.21021474979E+02  0.34022414080E+00 -0.39838363522E+02  0.45045680935E+02  0.00000000000E+00 0. -1.
         11    1    3    3    0    0 -0.91975975662E-01  0.12613060758E+01  0.87315299464E+00  0.15367982984E+01  0.51100000000E-03 0. -1.
        -11    1    3    3    0    0  0.17395768721E+01  0.67699770027E+00  0.16167658168E+01  0.24694909490E+01  0.51100000000E-03 0.  1.
        -12    1    3    3    0    0  0.19373874083E+02 -0.22785279169E+01  0.37348444711E+02  0.42136029817E+02  0.00000000000E+00 0.  1.
</event>
<event>
 7    1  0.2243370E-008  0.4614232E+02  0.7816164E-02  0.1320468E+00
        -11   -1    0    0    0    0  0.00000000000E+00  0.00000000000E+00  0.45593999997E+02  0.45594000000E+02  0.51100000000E-03 0.  1.
         11   -1    0    0    0    0 -0.00000000000E+00 -0.00000000000E+00 -0.45593999997E+02  0.45594000000E+02  0.51100000000E-03 0. -1.
    9900012    2    1    2    0    0 -0.14415655455E+02 -0.26631597977E+02  0.33347569588E+02  0.46142317294E+02  0.99999957441E+01 0.  0.
         12    1    1    2    0    0  0.14415655455E+02  0.26631597977E+02 -0.33347569588E+02  0.45045682706E+02  0.00000000000E+00 0. -1.
         11    1    3    3    0    0 -0.26160121079E+01 -0.20794306429E+01  0.52261754641E+01  0.62032621572E+01  0.51100000000E-03 0. -1.
        -11    1    3    3    0    0 -0.33029868412E+01 -0.14891884721E+01  0.23070192817E+01  0.42953163569E+01  0.51100000000E-03 0.  1.
        -12    1    3    3    0    0 -0.84966565064E+01 -0.23062978862E+02  0.25814374842E+02  0.35643738780E+02  0.00000000000E+00 0.  1.
</event>
<event>
 7    1  0.2243370E-008  0.4614232E+02  0.7816164E-02  0.1320468E+00
        -11   -1    0    0    0    0  0.00000000000E+00  0.00000000000E+00  0.45593999997E+02  0.45594000000E+02  0.51100000000E-03 0. -1.
         11   -1    0    0    0    0 -0.00000000000E+00 -0.00000000000E+00 -0.45593999997E+02  0.45594000000E+02  0.51100000000E-03 0.  1.
    9900012    2    1    2    0    0 -0.33929228118E+02 -0.10156612793E+02 -0.27834586556E+02  0.46142317489E+02  0.99999975221E+01 0.  0.
         12    1    1    2    0    0  0.33929228118E+02  0.10156612793E+02  0.27834586556E+02  0.45045682511E+02  0.00000000000E+00 0. -1.
         11    1    3    3    0    0 -0.22187663059E+01 -0.30736024341E+00 -0.51998183232E+01  0.56617581275E+01  0.51100000000E-03 0. -1.
        -11    1    3    3    0    0 -0.16823907622E+02 -0.65174294755E+01 -0.14774842491E+02  0.23319878334E+02  0.51100000000E-03 0.  1.
        -12    1    3    3    0    0 -0.14886554191E+02 -0.33318230737E+01 -0.78599257415E+01  0.17160681027E+02  0.00000000000E+00 0.  1.
</event>
<event>
 7    1  0.2243370E-008  0.4614232E+02  0.7816164E-02  0.1320468E+00
        -11   -1    0    0    0    0  0.00000000000E+00  0.00000000000E+00  0.45593999997E+02  0.45594000000E+02  0.51100000000E-03 0. -1.
         11   -1    0    0    0    0 -0.00000000000E+00 -0.00000000000E+00 -0.45593999997E+02  0.45594000000E+02  0.51100000000E-03 0.  1.
    9900012    2    1    2    0    0 -0.25920661523E+02  0.26458550894E+02 -0.25635480282E+02  0.46142318093E+02  0.10000003023E+02 0.  0.
         12    1    1    2    0    0  0.25920661523E+02 -0.26458550894E+02  0.25635480282E+02  0.45045681907E+02  0.00000000000E+00 0. -1.
         11    1    3    3    0    0 -0.30473124148E+01  0.58577610867E+01 -0.79434537766E+01  0.10329469302E+02  0.51100000000E-03 0. -1.
        -11    1    3    3    0    0 -0.10494907248E+02  0.68619811023E+01 -0.86079229520E+01  0.15209411580E+02  0.51100000000E-03 0.  1.
         12    1    3    3    0    0 -0.12378441860E+02  0.13738808705E+02 -0.90841035534E+01  0.20603437211E+02  0.00000000000E+00 0. -1.
</event>
<event>
 7    1  0.2243370E-008  0.4614232E+02  0.7816164E-02  0.1320468E+00
        -11   -1    0    0    0    0  0.00000000000E+00  0.00000000000E+00  0.45593999997E+02  0.45594000000E+02  0.51100000000E-03 0.  1.
         11   -1    0    0    0    0 -0.00000000000E+00 -0.00000000000E+00 -0.45593999997E+02  0.45594000000E+02  0.51100000000E-03 0. -1.
    9900012    2    1    2    0    0  0.34114767692E+02 -0.26137592433E+02  0.13495271887E+02  0.46142317897E+02  0.10000001235E+02 0.  0.
         12    1    1    2    0    0 -0.34114767692E+02  0.26137592433E+02 -0.13495271887E+02  0.45045682103E+02  0.00000000000E+00 0. -1.
         11    1    3    3    0    0  0.11476270704E+01 -0.43951769934E+00  0.13542523852E+01  0.18287218172E+01  0.51100000000E-03 0. -1.
        -11    1    3    3    0    0  0.22268277156E+02 -0.18946654462E+02  0.12151910404E+02  0.31662609013E+02  0.51100000000E-03 0.  1.
         12    1    3    3    0    0  0.10698863465E+02 -0.67514202711E+01 -0.10890901887E-01  0.12650987066E+02  0.00000000000E+00 0. -1.
</event>
<event>
 7    1  0.2243370E-008  0.4614232E+02  0.7816164E-02  0.1320468E+00
        -11   -1    0    0    0    0  0.00000000000E+00  0.00000000000E+00  0.45593999997E+02  0.45594000000E+02  0.51100000000E-03 0. -1.
         11   -1    0    0    0    0 -0.00000000000E+00 -0.00000000000E+00 -0.45593999997E+02  0.45594000000E+02  0.51100000000E-03 0.  1.
    9900012    2    1    2    0    0  0.30703613917E+02  0.32116693425E+02  0.74107763930E+01  0.46142317511E+02  0.99999977237E+01 0.  0.
         12    1    1    2    0    0 -0.30703613917E+02 -0.32116693425E+02 -0.74107763930E+01  0.45045682489E+02  0.00000000000E+00 0. -1.
         11    1    3    3    0    0  0.74465353749E+01  0.13371990913E+02  0.35755684139E+01  0.15717688119E+02  0.51100000000E-03 0. -1.
        -11    1    3    3    0    0  0.57758793141E+01  0.61070595362E+01  0.26807543814E+01  0.88228908156E+01  0.51100000000E-03 0.  1.
         12    1    3    3    0    0  0.17481199228E+02  0.12637642976E+02  0.11544535977E+01  0.21601738577E+02  0.00000000000E+00 0. -1.
</event>
<event>
 7    1  0.2243370E-008  0.4614232E+02  0.7816164E-02  0.1320468E+00
        -11   -1    0    0    0    0  0.00000000000E+00  0.00000000000E+00  0.45593999997E+02  0.45594000000E+02  0.51100000000E-03 0. -1.
         11   -1    0    0    0    0 -0.00000000000E+00 -0.00000000000E+00 -0.45593999997E+02  0.45594000000E+02  0.51100000000E-03 0.  1.
    9900012    2    1    2    0    0 -0.49899526758E+01 -0.23915371434E+02 -0.37845328334E+02  0.46142317685E+02  0.99999993058E+01 0.  0.
         12    1    1    2    0    0  0.49899526758E+01  0.23915371434E+02  0.37845328334E+02  0.45045682315E+02  0.00000000000E+00 0. -1.
         11    1    3    3    0    0  0.22583186433E+01 -0.60615420774E+01 -0.11475568312E+02  0.13173115189E+02  0.51100000000E-03 0. -1.
        -11    1    3    3    0    0 -0.17780895175E+01 -0.48630497691E+01 -0.10735351369E+02  0.11918834870E+02  0.51100000000E-03 0.  1.
        -12    1    3    3    0    0 -0.54701818015E+01 -0.12990779588E+02 -0.15634408653E+02  0.21050367626E+02  0.00000000000E+00 0.  1.
</event>
<event>
 7    1  0.2243370E-008  0.4614232E+02  0.7816164E-02  0.1320468E+00
        -11   -1    0    0    0    0  0.00000000000E+00  0.00000000000E+00  0.45593999997E+02  0.45594000000E+02  0.51100000000E-03 0. -1.
         11   -1    0    0    0    0 -0.00000000000E+00 -0.00000000000E+00 -0.45593999997E+02  0.45594000000E+02  0.51100000000E-03 0.  1.
    9900012    2    1    2    0    0  0.12254679130E+02 -0.42590012719E+02 -0.80639323924E+01  0.46142319301E+02  0.10000014045E+02 0.  0.
         12    1    1    2    0    0 -0.12254679130E+02  0.42590012719E+02  0.80639323924E+01  0.45045680699E+02  0.00000000000E+00 0. -1.
         11    1    3    3    0    0  0.69384633588E+01 -0.23542604669E+02 -0.16560653200E+01  0.24599574406E+02  0.51100000000E-03 0. -1.
        -11    1    3    3    0    0  0.34592414183E+01 -0.11313418110E+02 -0.89308779692E+00  0.11864121822E+02  0.51100000000E-03 0.  1.
        -12    1    3    3    0    0  0.18569743531E+01 -0.77339899401E+01 -0.55147792755E+01  0.96786230735E+01  0.00000000000E+00 0.  1.
</event>
<event>
 7    1  0.2243370E-008  0.4614232E+02  0.7816164E-02  0.1320468E+00
        -11   -1    0    0    0    0  0.00000000000E+00  0.00000000000E+00  0.45593999997E+02  0.45594000000E+02  0.51100000000E-03 0. -1.
         11   -1    0    0    0    0 -0.00000000000E+00 -0.00000000000E+00 -0.45593999997E+02  0.45594000000E+02  0.51100000000E-03 0.  1.
    9900012    2    1    2    0    0  0.19803918310E+02 -0.11461373744E+02 -0.38801484446E+02  0.46142318035E+02  0.10000002496E+02 0.  0.
         12    1    1    2    0    0 -0.19803918310E+02  0.11461373744E+02  0.38801484446E+02  0.45045681965E+02  0.00000000000E+00 0. -1.
         11    1    3    3    0    0 -0.13483875266E+00 -0.18469335355E+01 -0.37098964864E+01  0.41464053316E+01  0.51100000000E-03 0. -1.
        -11    1    3    3    0    0  0.13052960278E+02 -0.53948260552E+01 -0.16458033190E+02  0.21687571947E+02  0.51100000000E-03 0.  1.
        -12    1    3    3    0    0  0.68857967849E+01 -0.42196141532E+01 -0.18633554769E+02  0.20308340757E+02  0.00000000000E+00 0.  1.
</event>
<event>
 7    1  0.2243370E-008  0.4614232E+02  0.7816164E-02  0.1320468E+00
        -11   -1    0    0    0    0  0.00000000000E+00  0.00000000000E+00  0.45593999997E+02  0.45594000000E+02  0.51100000000E-03 0.  1.
         11   -1    0    0    0    0 -0.00000000000E+00 -0.00000000000E+00 -0.45593999997E+02  0.45594000000E+02  0.51100000000E-03 0. -1.
    9900012    2    1    2    0    0 -0.75037586035E+00 -0.24828096382E+02  0.37578133133E+02  0.46142317369E+02  0.99999964284E+01 0.  0.
         12    1    1    2    0    0  0.75037586035E+00  0.24828096382E+02 -0.37578133133E+02  0.45045682631E+02  0.00000000000E+00 0. -1.
         11    1    3    3    0    0 -0.17156212262E+00 -0.23558007811E+01  0.14128363237E+01  0.27523331231E+01  0.51100000000E-03 0. -1.
        -11    1    3    3    0    0 -0.53584785859E+00 -0.18235879218E+01  0.93741393529E+01  0.95648886405E+01  0.51100000000E-03 0.  1.
         12    1    3    3    0    0 -0.42965879138E-01 -0.20648707679E+02  0.26791157457E+02  0.33825095606E+02  0.00000000000E+00 0. -1.
</event>
<event>
 7    1  0.2243370E-008  0.4614232E+02  0.7816164E-02  0.1320468E+00
        -11   -1    0    0    0    0  0.00000000000E+00  0.00000000000E+00  0.45593999997E+02  0.45594000000E+02  0.51100000000E-03 0.  1.
         11   -1    0    0    0    0 -0.00000000000E+00 -0.00000000000E+00 -0.45593999997E+02  0.45594000000E+02  0.51100000000E-03 0. -1.
    9900012    2    1    2    0    0  0.98150524810E+01 -0.81324684311E+01  0.43204644174E+02  0.46142316786E+02  0.99999911115E+01 0.  0.
         12    1    1    2    0    0 -0.98150524810E+01  0.81324684311E+01 -0.43204644174E+02  0.45045683214E+02  0.00000000000E+00 0. -1.
         11    1    3    3    0    0  0.27274309233E+00  0.13542738955E+01  0.33014014359E+01  0.35787844697E+01  0.51100000000E-03 0. -1.
        -11    1    3    3    0    0 -0.90811668937E-01  0.67591159224E+00  0.33777961353E+01  0.34459556342E+01  0.51100000000E-03 0.  1.
        -12    1    3    3    0    0  0.96331210576E+01 -0.10162653919E+02  0.36525446603E+02  0.39117576683E+02  0.00000000000E+00 0.  1.
</event>
<event>
 7    1  0.2243370E-008  0.4614232E+02  0.7816164E-02  0.1320468E+00
        -11   -1    0    0    0    0  0.00000000000E+00  0.00000000000E+00  0.45593999997E+02  0.45594000000E+02  0.51100000000E-03 0.  1.
         11   -1    0    0    0    0 -0.00000000000E+00 -0.00000000000E+00 -0.45593999997E+02  0.45594000000E+02  0.51100000000E-03 0. -1.
    9900012    2    1    2    0    0  0.11789837244E+02  0.13340576249E+02  0.41378040754E+02  0.46142317704E+02  0.99999994771E+01 0.  0.
         12    1    1    2    0    0 -0.11789837244E+02 -0.13340576249E+02 -0.41378040754E+02  0.45045682296E+02  0.00000000000E+00 0. -1.
         11    1    3    3    0    0  0.39316111673E+01  0.80050202465E+01  0.12583915693E+02  0.15423775477E+02  0.51100000000E-03 0. -1.
        -11    1    3    3    0    0  0.25664584312E+01  0.44879574205E+01  0.16893207185E+02  0.17666604653E+02  0.51100000000E-03 0.  1.
         12    1    3    3    0    0  0.52917676458E+01  0.84759858226E+00  0.11900917875E+02  0.13051937575E+02  0.00000000000E+00 0. -1.
</event>
<event>
 7    1  0.2243370E-008  0.4614232E+02  0.7816164E-02  0.1320468E+00
        -11   -1    0    0    0    0  0.00000000000E+00  0.00000000000E+00  0.45593999997E+02  0.45594000000E+02  0.51100000000E-03 0. -1.
         11   -1    0    0    0    0 -0.00000000000E+00 -0.00000000000E+00 -0.45593999997E+02  0.45594000000E+02  0.51100000000E-03 0.  1.
    9900012    2    1    2    0    0  0.84926119880E+01  0.35359843148E+02 -0.26583275667E+02  0.46142317510E+02  0.99999977058E+01 0.  0.
         12    1    1    2    0    0 -0.84926119880E+01 -0.35359843148E+02  0.26583275667E+02  0.45045682490E+02  0.00000000000E+00 0. -1.
         11    1    3    3    0    0  0.48902721793E+01  0.26268565239E+02 -0.23651651022E+02  0.35684070368E+02  0.51100000000E-03 0. -1.
        -11    1    3    3    0    0 -0.19377969790E+00  0.17622406801E+01 -0.71814110434E+00  0.19127910740E+01  0.51100000000E-03 0.  1.
         12    1    3    3    0    0  0.37961195066E+01  0.73290372292E+01 -0.22134835404E+01  0.85454560673E+01  0.00000000000E+00 0. -1.
</event>
<event>
 7    1  0.2243370E-008  0.4614232E+02  0.7816164E-02  0.1320468E+00
        -11   -1    0    0    0    0  0.00000000000E+00  0.00000000000E+00  0.45593999997E+02  0.45594000000E+02  0.51100000000E-03 0.  1.
         11   -1    0    0    0    0 -0.00000000000E+00 -0.00000000000E+00 -0.45593999997E+02  0.45594000000E+02  0.51100000000E-03 0. -1.
    9900012    2    1    2    0    0  0.72181407729E+01  0.21319744936E+02  0.39018975147E+02  0.46142317611E+02  0.99999986277E+01 0.  0.
         12    1    1    2    0    0 -0.72181407729E+01 -0.21319744936E+02 -0.39018975147E+02  0.45045682389E+02  0.00000000000E+00 0. -1.
         11    1    3    3    0    0  0.84855081131E+00  0.30605559868E+01  0.29607151175E+01  0.43419898314E+01  0.51100000000E-03 0. -1.
        -11    1    3    3    0    0  0.13334467789E+01 -0.71458820463E+00  0.26466016514E+01  0.30484778458E+01  0.51100000000E-03 0.  1.
        -12    1    3    3    0    0  0.50361431827E+01  0.18973777154E+02  0.33411658379E+02  0.38751849933E+02  0.00000000000E+00 0.  1.
</event>
<event>
 7    1  0.2243370E-008  0.4614232E+02  0.7816164E-02  0.1320468E+00
        -11   -1    0    0    0    0  0.00000000000E+00  0.00000000000E+00  0.45593999997E+02  0.45594000000E+02  0.51100000000E-03 0.  1.
         11   -1    0    0    0    0 -0.00000000000E+00 -0.00000000000E+00 -0.45593999997E+02  0.45594000000E+02  0.51100000000E-03 0. -1.
    9900012    2    1    2    0    0  0.28384905013E+02  0.22419426482E+02  0.26847345418E+02  0.46142317939E+02  0.10000001618E+02 0.  0.
         12    1    1    2    0    0 -0.28384905013E+02 -0.22419426482E+02 -0.26847345418E+02  0.45045682061E+02  0.00000000000E+00 0. -1.
         11    1    3    3    0    0  0.14737257252E+01  0.21569080246E+00 -0.12734532070E+00  0.14948602366E+01  0.51100000000E-03 0. -1.
        -11    1    3    3    0    0  0.22624362569E+02  0.16363680576E+02  0.18481717324E+02  0.33484409793E+02  0.51100000000E-03 0.  1.
        -12    1    3    3    0    0  0.42868167182E+01  0.58400551035E+01  0.84929734155E+01  0.11163047909E+02  0.00000000000E+00 0.  1.
</event>
<event>
 7    1  0.2243370E-008  0.4614232E+02  0.7816164E-02  0.1320468E+00
        -11   -1    0    0    0    0  0.00000000000E+00  0.00000000000E+00  0.45593999997E+02  0.45594000000E+02  0.51100000000E-03 0. -1.
         11   -1    0    0    0    0 -0.00000000000E+00 -0.00000000000E+00 -0.45593999997E+02  0.45594000000E+02  0.51100000000E-03 0.  1.
    9900012    2    1    2    0    0 -0.39146082056E+02  0.20372602176E+02 -0.90362940458E+01  0.46142320186E+02  0.10000022116E+02 0.  0.
         12    1    1    2    0    0  0.39146082056E+02 -0.20372602176E+02  0.90362940458E+01  0.45045679814E+02  0.00000000000E+00 0. -1.
         11    1    3    3    0    0 -0.80464896672E+01  0.32637050507E+01 -0.53647716083E+01  0.10206788980E+02  0.51100000000E-03 0. -1.
        -11    1    3    3    0    0 -0.21616990435E+02  0.13791575953E+02 -0.35682968307E+01  0.25888889224E+02  0.51100000000E-03 0.  1.
        -12    1    3    3    0    0 -0.94826019543E+01  0.33173211726E+01 -0.10322560676E+00  0.10046641982E+02  0.00000000000E+00 0.  1.
</event>
<event>
 7    1  0.2243370E-008  0.4614232E+02  0.7816164E-02  0.1320468E+00
        -11   -1    0    0    0    0  0.00000000000E+00  0.00000000000E+00  0.45593999997E+02  0.45594000000E+02  0.51100000000E-03 0.  1.
         11   -1    0    0    0    0 -0.00000000000E+00 -0.00000000000E+00 -0.45593999997E+02  0.45594000000E+02  0.51100000000E-03 0. -1.
    9900012    2    1    2    0    0 -0.24867635616E+02  0.30833465683E+02  0.21447881666E+02  0.46142317242E+02  0.99999952655E+01 0.  0.
         12    1    1    2    0    0  0.24867635616E+02 -0.30833465683E+02 -0.21447881666E+02  0.45045682758E+02  0.00000000000E+00 0. -1.
         11    1    3    3    0    0 -0.89080991260E+01  0.49302345291E+01  0.48653097173E+01  0.11284178369E+02  0.51100000000E-03 0. -1.
        -11    1    3    3    0    0 -0.99285873401E+01  0.12865108684E+02  0.78582955266E+01  0.18051057500E+02  0.51100000000E-03 0.  1.
         12    1    3    3    0    0 -0.60309491501E+01  0.13038122470E+02  0.87242764222E+01  0.16807081373E+02  0.00000000000E+00 0. -1.
</event>
<event>
 7    1  0.2243370E-008  0.4614232E+02  0.7816164E-02  0.1320468E+00
        -11   -1    0    0    0    0  0.00000000000E+00  0.00000000000E+00  0.45593999997E+02  0.45594000000E+02  0.51100000000E-03 0.  1.
         11   -1    0    0    0    0 -0.00000000000E+00 -0.00000000000E+00 -0.45593999997E+02  0.45594000000E+02  0.51100000000E-03 0. -1.
    9900012    2    1    2    0    0  0.32972216402E+01  0.31125211534E+02  0.32395418824E+02  0.46142316251E+02  0.99999862309E+01 0.  0.
         12    1    1    2    0    0 -0.32972216402E+01 -0.31125211534E+02 -0.32395418824E+02  0.45045683749E+02  0.00000000000E+00 0. -1.
         11    1    3    3    0    0  0.35654600026E+01  0.59126408359E+01  0.85396278318E+01  0.10981669748E+02  0.51100000000E-03 0. -1.
        -11    1    3    3    0    0  0.23480194460E+01  0.60558575432E+01  0.59816812210E+01  0.88298990024E+01  0.51100000000E-03 0.  1.
         12    1    3    3    0    0 -0.26162578084E+01  0.19156713155E+02  0.17874109772E+02  0.26330747501E+02  0.00000000000E+00 0. -1.
</event>
<event>
 7    1  0.2243370E-008  0.4614232E+02  0.7816164E-02  0.1320468E+00
        -11   -1    0    0    0    0  0.00000000000E+00  0.00000000000E+00  0.45593999997E+02  0.45594000000E+02  0.51100000000E-03 0. -1.
         11   -1    0    0    0    0 -0.00000000000E+00 -0.00000000000E+00 -0.45593999997E+02  0.45594000000E+02  0.51100000000E-03 0.  1.
    9900012    2    1    2    0    0 -0.28041627151E+02 -0.35076444234E+02  0.35247288271E+01  0.46142317558E+02  0.99999981465E+01 0.  0.
         12    1    1    2    0    0  0.28041627151E+02  0.35076444234E+02 -0.35247288271E+01  0.45045682442E+02  0.00000000000E+00 0. -1.
         11    1    3    3    0    0 -0.22481782494E+02 -0.28392430722E+02  0.12195602499E+01  0.36236004110E+02  0.51100000000E-03 0.  1.
        -11    1    3    3    0    0 -0.21334552761E+01 -0.47463719041E+01  0.28489089871E+01  0.59326183380E+01  0.51100000000E-03 0. -1.
        -12    1    3    3    0    0 -0.34263893814E+01 -0.19376416080E+01 -0.54374040979E+00  0.39736951100E+01  0.00000000000E+00 0.  1.
</event>
<event>
 7    1  0.2243370E-008  0.4614232E+02  0.7816164E-02  0.1320468E+00
        -11   -1    0    0    0    0  0.00000000000E+00  0.00000000000E+00  0.45593999997E+02  0.45594000000E+02  0.51100000000E-03 0.  1.
         11   -1    0    0    0    0 -0.00000000000E+00 -0.00000000000E+00 -0.45593999997E+02  0.45594000000E+02  0.51100000000E-03 0. -1.
    9900012    2    1    2    0    0  0.33721458214E+02  0.28009720938E+02  0.10364951541E+02  0.46142318391E+02  0.10000005748E+02 0.  0.
         12    1    1    2    0    0 -0.33721458214E+02 -0.28009720938E+02 -0.10364951541E+02  0.45045681609E+02  0.00000000000E+00 0. -1.
         11    1    3    3    0    0  0.23550154262E+02  0.23403880555E+02  0.57548506146E+01  0.33696731246E+02  0.51100000000E-03 0. -1.
        -11    1    3    3    0    0  0.33375270747E+01  0.26961376691E+01  0.27981489120E+01  0.51222927386E+01  0.51100000000E-03 0.  1.
        -12    1    3    3    0    0  0.68337768778E+01  0.19097027139E+01  0.18119520141E+01  0.73232944070E+01  0.00000000000E+00 0.  1.
</event>
<event>
 7    1  0.2243370E-008  0.4614232E+02  0.7816164E-02  0.1320468E+00
        -11   -1    0    0    0    0  0.00000000000E+00  0.00000000000E+00  0.45593999997E+02  0.45594000000E+02  0.51100000000E-03 0.  1.
         11   -1    0    0    0    0 -0.00000000000E+00 -0.00000000000E+00 -0.45593999997E+02  0.45594000000E+02  0.51100000000E-03 0. -1.
    9900012    2    1    2    0    0 -0.10707454098E+02 -0.42097085210E+02  0.11928927615E+02  0.46142317960E+02  0.10000001810E+02 0.  0.
         12    1    1    2    0    0  0.10707454098E+02  0.42097085210E+02 -0.11928927615E+02  0.45045682040E+02  0.00000000000E+00 0. -1.
         11    1    3    3    0    0 -0.16826279081E+01 -0.17204668691E+02  0.50514814381E+01  0.18009700898E+02  0.51100000000E-03 0. -1.
        -11    1    3    3    0    0 -0.19651289780E+01 -0.11988585954E+02  0.66820429046E+00  0.12166939727E+02  0.51100000000E-03 0.  1.
         12    1    3    3    0    0 -0.70596972115E+01 -0.12903830565E+02  0.62092418864E+01  0.15965677335E+02  0.00000000000E+00 0. -1.
</event>
<event>
 7    1  0.2243370E-008  0.4614232E+02  0.7816164E-02  0.1320468E+00
        -11   -1    0    0    0    0  0.00000000000E+00  0.00000000000E+00  0.45593999997E+02  0.45594000000E+02  0.51100000000E-03 0.  1.
         11   -1    0    0    0    0 -0.00000000000E+00 -0.00000000000E+00 -0.45593999997E+02  0.45594000000E+02  0.51100000000E-03 0. -1.
    9900012    2    1    2    0    0  0.35878150026E+02  0.10456258235E+02  0.25150317181E+02  0.46142318300E+02  0.10000004914E+02 0.  0.
         12    1    1    2    0    0 -0.35878150026E+02 -0.10456258235E+02 -0.25150317181E+02  0.45045681700E+02  0.00000000000E+00 0. -1.
         11    1    3    3    0    0  0.82912188305E+01  0.53966130895E+01  0.29101051223E+01  0.10311956876E+02  0.51100000000E-03 0. -1.
        -11    1    3    3    0    0  0.77258197283E+01  0.17856960122E+01  0.55049856432E+01  0.96530755677E+01  0.51100000000E-03 0.  1.
         12    1    3    3    0    0  0.19861111467E+02  0.32739491330E+01  0.16735226415E+02  0.26177285856E+02  0.00000000000E+00 0. -1.
</event>
<event>
 7    1  0.2243370E-008  0.4614232E+02  0.7816164E-02  0.1320468E+00
        -11   -1    0    0    0    0  0.00000000000E+00  0.00000000000E+00  0.45593999997E+02  0.45594000000E+02  0.51100000000E-03 0.  1.
         11   -1    0    0    0    0 -0.00000000000E+00 -0.00000000000E+00 -0.45593999997E+02  0.45594000000E+02  0.51100000000E-03 0. -1.
    9900012    2    1    2    0    0  0.36740508207E+02  0.16700199916E+02  0.20008789420E+02  0.46142320134E+02  0.10000021641E+02 0.  0.
         12    1    1    2    0    0 -0.36740508207E+02 -0.16700199916E+02 -0.20008789420E+02  0.45045679866E+02  0.00000000000E+00 0. -1.
         11    1    3    3    0    0  0.29411213712E+02  0.11649421799E+02  0.12806885575E+02  0.34128358277E+02  0.51100000000E-03 0. -1.
        -11    1    3    3    0    0  0.62656111787E+01  0.44472583670E+01  0.41643143059E+01  0.87394224251E+01  0.51100000000E-03 0.  1.
         12    1    3    3    0    0  0.10636833155E+01  0.60351975001E+00  0.30375895396E+01  0.32745394325E+01  0.00000000000E+00 0. -1.
</event>
<event>
 7    1  0.2243370E-008  0.4614232E+02  0.7816164E-02  0.1320468E+00
        -11   -1    0    0    0    0  0.00000000000E+00  0.00000000000E+00  0.45593999997E+02  0.45594000000E+02  0.51100000000E-03 0.  1.
         11   -1    0    0    0    0 -0.00000000000E+00 -0.00000000000E+00 -0.45593999997E+02  0.45594000000E+02  0.51100000000E-03 0. -1.
    9900012    2    1    2    0    0 -0.37030202271E+02  0.13281124068E+02  0.21942863765E+02  0.46142318665E+02  0.10000008238E+02 0.  0.
         12    1    1    2    0    0  0.37030202271E+02 -0.13281124068E+02 -0.21942863765E+02  0.45045681335E+02  0.00000000000E+00 0. -1.
         11    1    3    3    0    0 -0.12778430052E+02  0.45093923696E+01  0.51571038107E+01  0.14498917688E+02  0.51100000000E-03 0.  1.
        -11    1    3    3    0    0 -0.49564689873E+01  0.20495509888E+01  0.26970521546E+00  0.53702872588E+01  0.51100000000E-03 0. -1.
         12    1    3    3    0    0 -0.19295303232E+02  0.67221807100E+01  0.16516054739E+02  0.26273113718E+02  0.00000000000E+00 0. -1.
</event>
<event>
 7    1  0.2243370E-008  0.4614232E+02  0.7816164E-02  0.1320468E+00
        -11   -1    0    0    0    0  0.00000000000E+00  0.00000000000E+00  0.45593999997E+02  0.45594000000E+02  0.51100000000E-03 0. -1.
         11   -1    0    0    0    0 -0.00000000000E+00 -0.00000000000E+00 -0.45593999997E+02  0.45594000000E+02  0.51100000000E-03 0.  1.
    9900012    2    1    2    0    0  0.13809800535E+02  0.10496849442E+02 -0.41571854019E+02  0.46142317791E+02  0.10000000277E+02 0.  0.
         12    1    1    2    0    0 -0.13809800535E+02 -0.10496849442E+02  0.41571854019E+02  0.45045682209E+02  0.00000000000E+00 0. -1.
         11    1    3    3    0    0  0.70707002583E+01  0.57862772268E+01 -0.23849848353E+02  0.25539989683E+02  0.51100000000E-03 0. -1.
        -11    1    3    3    0    0 -0.30273963794E+00  0.31515799564E+01 -0.69698042310E+01  0.76552125242E+01  0.51100000000E-03 0.  1.
         12    1    3    3    0    0  0.70418399144E+01  0.15589922589E+01 -0.10752201435E+02  0.12947115584E+02  0.00000000000E+00 0. -1.
</event>
<event>
 7    1  0.2243370E-008  0.4614232E+02  0.7816164E-02  0.1320468E+00
        -11   -1    0    0    0    0  0.00000000000E+00  0.00000000000E+00  0.45593999997E+02  0.45594000000E+02  0.51100000000E-03 0.  1.
         11   -1    0    0    0    0 -0.00000000000E+00 -0.00000000000E+00 -0.45593999997E+02  0.45594000000E+02  0.51100000000E-03 0. -1.
    9900012    2    1    2    0    0  0.20019310218E+02 -0.14632661700E+02  0.37606196187E+02  0.46142316947E+02  0.99999925754E+01 0.  0.
         12    1    1    2    0    0 -0.20019310218E+02  0.14632661700E+02 -0.37606196187E+02  0.45045683053E+02  0.00000000000E+00 0. -1.
         11    1    3    3    0    0  0.20403016839E+01 -0.39467865692E+01  0.89466973040E+01  0.99891615311E+01  0.51100000000E-03 0. -1.
        -11    1    3    3    0    0  0.13638545705E+02 -0.71816838321E+01  0.15497024677E+02  0.21857362278E+02  0.51100000000E-03 0.  1.
         12    1    3    3    0    0  0.43404628291E+01 -0.35041912984E+01  0.13162474206E+02  0.14295793138E+02  0.00000000000E+00 0. -1.
</event>
<event>
 7    1  0.2243370E-008  0.4614232E+02  0.7816164E-02  0.1320468E+00
        -11   -1    0    0    0    0  0.00000000000E+00  0.00000000000E+00  0.45593999997E+02  0.45594000000E+02  0.51100000000E-03 0. -1.
         11   -1    0    0    0    0 -0.00000000000E+00 -0.00000000000E+00 -0.45593999997E+02  0.45594000000E+02  0.51100000000E-03 0.  1.
    9900012    2    1    2    0    0  0.14460058600E+02 -0.33140568126E+02 -0.26864901431E+02  0.46142317861E+02  0.10000000915E+02 0.  0.
         12    1    1    2    0    0 -0.14460058600E+02  0.33140568126E+02  0.26864901431E+02  0.45045682139E+02  0.00000000000E+00 0. -1.
         11    1    3    3    0    0  0.10734322034E+01 -0.10550864989E+02 -0.90200641683E+01  0.13922448296E+02  0.51100000000E-03 0. -1.
        -11    1    3    3    0    0  0.11089941873E+01 -0.57435030091E+01 -0.52818910459E+01  0.78813747662E+01  0.51100000000E-03 0.  1.
        -12    1    3    3    0    0  0.12277632210E+02 -0.16846200128E+02 -0.12562946217E+02  0.24338494799E+02  0.00000000000E+00 0.  1.
</event>
<event>
 7    1  0.2243370E-008  0.4614232E+02  0.7816164E-02  0.1320468E+00
        -11   -1    0    0    0    0  0.00000000000E+00  0.00000000000E+00  0.45593999997E+02  0.45594000000E+02  0.51100000000E-03 0. -1.
         11   -1    0    0    0    0 -0.00000000000E+00 -0.00000000000E+00 -0.45593999997E+02  0.45594000000E+02  0.51100000000E-03 0.  1.
    9900012    2    1    2    0    0  0.42622304262E+02 -0.43860082823E+01 -0.13900201052E+02  0.46142317870E+02  0.10000000992E+02 0.  0.
         12    1    1    2    0    0 -0.42622304262E+02  0.43860082823E+01  0.13900201052E+02  0.45045682130E+02  0.00000000000E+00 0. -1.
         11    1    3    3    0    0  0.12272686778E+02 -0.10451308209E+01 -0.73730518773E+01  0.14355244109E+02  0.51100000000E-03 0. -1.
        -11    1    3    3    0    0  0.95203298383E+01 -0.28567617738E+01 -0.43120602381E+01  0.10834741890E+02  0.51100000000E-03 0.  1.
         12    1    3    3    0    0  0.20829287646E+02 -0.48411568755E+00 -0.22150889371E+01  0.20952331871E+02  0.00000000000E+00 0. -1.
</event>
<event>
 7    1  0.2426164E-008  0.4614232E+02  0.7816164E-02  0.1320468E+00
        -11   -1    0    0    0    0  0.00000000000E+00  0.00000000000E+00  0.45593999997E+02  0.45594000000E+02  0.51100000000E-03 0.  1.
         11   -1    0    0    0    0 -0.00000000000E+00 -0.00000000000E+00 -0.45593999997E+02  0.45594000000E+02  0.51100000000E-03 0. -1.
    9900012    2    1    2    0    0  0.42228088884E+02 -0.27866626552E+01 -0.15431664223E+02  0.46142320515E+02  0.10000025114E+02 0.  0.
         12    1    1    2    0    0 -0.42228088884E+02  0.27866626552E+01  0.15431664223E+02  0.45045679485E+02  0.00000000000E+00 0. -1.
         11    1    3    3    0    0  0.26530031829E+01 -0.47794605466E+00  0.89555970401E+00  0.28405784207E+01  0.51100000000E-03 0. -1.
        -11    1    3    3    0    0  0.34719263744E+01 -0.57009896091E+00 -0.34602316995E+01  0.49348241356E+01  0.51100000000E-03 0.  1.
        -12    1    3    3    0    0  0.36103159327E+02 -0.17386176397E+01 -0.12866992228E+02  0.38366917959E+02  0.00000000000E+00 0.  1.
</event>
<event>
 7    1  0.2243370E-008  0.4614232E+02  0.7816164E-02  0.1320468E+00
        -11   -1    0    0    0    0  0.00000000000E+00  0.00000000000E+00  0.45593999997E+02  0.45594000000E+02  0.51100000000E-03 0. -1.
         11   -1    0    0    0    0 -0.00000000000E+00 -0.00000000000E+00 -0.45593999997E+02  0.45594000000E+02  0.51100000000E-03 0.  1.
    9900012    2    1    2    0    0  0.26338260374E+02 -0.27653706849E+02  0.23888950925E+02  0.46142318317E+02  0.10000005069E+02 0.  0.
         12    1    1    2    0    0 -0.26338260374E+02  0.27653706849E+02 -0.23888950925E+02  0.45045681683E+02  0.00000000000E+00 0. -1.
         11    1    3    3    0    0  0.26571942682E+01 -0.12901890464E+01  0.29764317875E+01  0.41933775887E+01  0.51100000000E-03 0.  1.
        -11    1    3    3    0    0  0.63753466867E+01 -0.11453708097E+02  0.46507917404E+01  0.13909073967E+02  0.51100000000E-03 0. -1.
        -12    1    3    3    0    0  0.17305719419E+02 -0.14909809706E+02  0.16261727397E+02  0.28039866761E+02  0.00000000000E+00 0.  1.
</event>
<event>
 7    1  0.2243370E-008  0.4614231E+02  0.7816164E-02  0.1320468E+00
        -11   -1    0    0    0    0  0.00000000000E+00  0.00000000000E+00  0.45593999997E+02  0.45594000000E+02  0.51100000000E-03 0.  1.
         11   -1    0    0    0    0 -0.00000000000E+00 -0.00000000000E+00 -0.45593999997E+02  0.45594000000E+02  0.51100000000E-03 0. -1.
    9900012    2    1    2    0    0 -0.14335365646E+02 -0.38341708597E+02  0.18802250954E+02  0.46142312445E+02  0.99999515229E+01 0.  0.
         12    1    1    2    0    0  0.14335365646E+02  0.38341708597E+02 -0.18802250954E+02  0.45045687555E+02  0.00000000000E+00 0. -1.
         11    1    3    3    0    0 -0.88838501769E+01 -0.12926846627E+02  0.83491189886E+01  0.17768903901E+02  0.51100000000E-03 0. -1.
        -11    1    3    3    0    0 -0.61673628962E+01 -0.24113248814E+02  0.97688749496E+01  0.26737914120E+02  0.51100000000E-03 0.  1.
        -12    1    3    3    0    0  0.71584742700E+00 -0.13016131566E+01  0.68425701551E+00  0.16354944242E+01  0.00000000000E+00 0.  1.
</event>
<event>
 7    1  0.2243370E-008  0.4614232E+02  0.7816164E-02  0.1320468E+00
        -11   -1    0    0    0    0  0.00000000000E+00  0.00000000000E+00  0.45593999997E+02  0.45594000000E+02  0.51100000000E-03 0.  1.
         11   -1    0    0    0    0 -0.00000000000E+00 -0.00000000000E+00 -0.45593999997E+02  0.45594000000E+02  0.51100000000E-03 0. -1.
    9900012    2    1    2    0    0  0.16657916583E+02 -0.27991369297E+02  0.31114475020E+02  0.46142317679E+02  0.99999992504E+01 0.  0.
         12    1    1    2    0    0 -0.16657916583E+02  0.27991369297E+02 -0.31114475020E+02  0.45045682321E+02  0.00000000000E+00 0. -1.
         11    1    3    3    0    0  0.20464530444E+01 -0.98798926535E+00  0.90168797820E+00  0.24448178506E+01  0.51100000000E-03 0. -1.
        -11    1    3    3    0    0  0.69427456882E+01 -0.65864312135E+01  0.70765540174E+01  0.11902117914E+02  0.51100000000E-03 0.  1.
        -12    1    3    3    0    0  0.76687178507E+01 -0.20416948818E+02  0.23136233025E+02  0.31795381914E+02  0.00000000000E+00 0.  1.
</event>
<event>
 7    1  0.2243370E-008  0.4614232E+02  0.7816164E-02  0.1320468E+00
        -11   -1    0    0    0    0  0.00000000000E+00  0.00000000000E+00  0.45593999997E+02  0.45594000000E+02  0.51100000000E-03 0.  1.
         11   -1    0    0    0    0 -0.00000000000E+00 -0.00000000000E+00 -0.45593999997E+02  0.45594000000E+02  0.51100000000E-03 0. -1.
    9900012    2    1    2    0    0  0.39401649595E+02 -0.55222211041E+01  0.21121756400E+02  0.46142317519E+02  0.99999977952E+01 0.  0.
         12    1    1    2    0    0 -0.39401649595E+02  0.55222211041E+01 -0.21121756400E+02  0.45045682481E+02  0.00000000000E+00 0. -1.
         11    1    3    3    0    0  0.61621830160E+01  0.94178990460E+00  0.16814317633E+01  0.64565223443E+01  0.51100000000E-03 0. -1.
        -11    1    3    3    0    0  0.32017442467E+02 -0.59969469025E+01  0.20041744748E+02  0.38245934779E+02  0.51100000000E-03 0.  1.
        -12    1    3    3    0    0  0.12220241119E+01 -0.46706410618E+00 -0.60142011186E+00  0.14398603961E+01  0.00000000000E+00 0.  1.
</event>
<event>
 7    1  0.2243370E-008  0.4614232E+02  0.7816164E-02  0.1320468E+00
        -11   -1    0    0    0    0  0.00000000000E+00  0.00000000000E+00  0.45593999997E+02  0.45594000000E+02  0.51100000000E-03 0.  1.
         11   -1    0    0    0    0 -0.00000000000E+00 -0.00000000000E+00 -0.45593999997E+02  0.45594000000E+02  0.51100000000E-03 0. -1.
    9900012    2    1    2    0    0 -0.91661890681E-01 -0.12244015726E+02  0.43349615530E+02  0.46142317747E+02  0.99999998725E+01 0.  0.
         12    1    1    2    0    0  0.91661890681E-01  0.12244015726E+02 -0.43349615530E+02  0.45045682253E+02  0.00000000000E+00 0. -1.
         11    1    3    3    0    0  0.34110958291E+01 -0.14279580758E+01  0.97831872775E+01  0.10458747181E+02  0.51100000000E-03 0.  1.
        -11    1    3    3    0    0  0.71584605121E+00 -0.38390147137E+01  0.12434509275E+02  0.13033322321E+02  0.51100000000E-03 0. -1.
         12    1    3    3    0    0 -0.42186037710E+01 -0.69770429363E+01  0.21131918978E+02  0.22650248246E+02  0.00000000000E+00 0. -1.
</event>
<event>
 7    1  0.2243370E-008  0.4614232E+02  0.7816164E-02  0.1320468E+00
        -11   -1    0    0    0    0  0.00000000000E+00  0.00000000000E+00  0.45593999997E+02  0.45594000000E+02  0.51100000000E-03 0. -1.
         11   -1    0    0    0    0 -0.00000000000E+00 -0.00000000000E+00 -0.45593999997E+02  0.45594000000E+02  0.51100000000E-03 0.  1.
    9900012    2    1    2    0    0  0.80835016326E+01 -0.44310066187E+02  0.62333182211E+00  0.46142317558E+02  0.99999981485E+01 0.  0.
         12    1    1    2    0    0 -0.80835016326E+01  0.44310066187E+02 -0.62333182211E+00  0.45045682442E+02  0.00000000000E+00 0. -1.
         11    1    3    3    0    0 -0.15827200192E+01 -0.38106977031E+01 -0.71319148498E+00  0.41874887462E+01  0.51100000000E-03 0. -1.
        -11    1    3    3    0    0  0.81574195818E+01 -0.23715218036E+02  0.56472872646E+00  0.25085333953E+02  0.51100000000E-03 0.  1.
         12    1    3    3    0    0  0.15088020701E+01 -0.16784150447E+02  0.77179458063E+00  0.16869494859E+02  0.00000000000E+00 0. -1.
</event>
<event>
 7    1  0.2243370E-008  0.4614232E+02  0.7816164E-02  0.1320468E+00
        -11   -1    0    0    0    0  0.00000000000E+00  0.00000000000E+00  0.45593999997E+02  0.45594000000E+02  0.51100000000E-03 0.  1.
         11   -1    0    0    0    0 -0.00000000000E+00 -0.00000000000E+00 -0.45593999997E+02  0.45594000000E+02  0.51100000000E-03 0. -1.
    9900012    2    1    2    0    0  0.17201890513E+02 -0.50580738858E+01  0.41323409557E+02  0.46142319563E+02  0.10000016432E+02 0.  0.
         12    1    1    2    0    0 -0.17201890513E+02  0.50580738858E+01 -0.41323409557E+02  0.45045680437E+02  0.00000000000E+00 0. -1.
         11    1    3    3    0    0  0.43528485437E+01  0.39816664273E+00  0.35281593057E+01  0.56172711762E+01  0.51100000000E-03 0. -1.
        -11    1    3    3    0    0  0.83248838234E+01 -0.49727840494E+01  0.21112086474E+02  0.23232573414E+02  0.51100000000E-03 0.  1.
         12    1    3    3    0    0  0.45241581456E+01 -0.48345647909E+00  0.16683163776E+02  0.17292474973E+02  0.00000000000E+00 0. -1.
</event>
<event>
 7    1  0.2243370E-008  0.4614232E+02  0.7816164E-02  0.1320468E+00
        -11   -1    0    0    0    0  0.00000000000E+00  0.00000000000E+00  0.45593999997E+02  0.45594000000E+02  0.51100000000E-03 0. -1.
         11   -1    0    0    0    0 -0.00000000000E+00 -0.00000000000E+00 -0.45593999997E+02  0.45594000000E+02  0.51100000000E-03 0.  1.
    9900012    2    1    2    0    0 -0.15134897726E+02  0.25159601593E+01 -0.42352313709E+02  0.46142315842E+02  0.99999825031E+01 0.  0.
         12    1    1    2    0    0  0.15134897726E+02 -0.25159601593E+01  0.42352313709E+02  0.45045684158E+02  0.00000000000E+00 0. -1.
         11    1    3    3    0    0 -0.10736743950E+00  0.94932124913E+00 -0.18389999539E+00  0.97291215972E+00  0.51100000000E-03 0. -1.
        -11    1    3    3    0    0 -0.14445295523E+02  0.80570122403E+00 -0.34071271487E+02  0.37015770399E+02  0.51100000000E-03 0.  1.
         12    1    3    3    0    0 -0.58223476278E+00  0.76093768619E+00 -0.80971422268E+01  0.81536332835E+01  0.00000000000E+00 0. -1.
</event>
<event>
 7    1  0.2243370E-008  0.4614232E+02  0.7816164E-02  0.1320468E+00
        -11   -1    0    0    0    0  0.00000000000E+00  0.00000000000E+00  0.45593999997E+02  0.45594000000E+02  0.51100000000E-03 0.  1.
         11   -1    0    0    0    0 -0.00000000000E+00 -0.00000000000E+00 -0.45593999997E+02  0.45594000000E+02  0.51100000000E-03 0. -1.
    9900012    2    1    2    0    0 -0.11444001368E+01  0.31619154160E+01  0.44919995694E+02  0.46142319031E+02  0.10000011581E+02 0.  0.
         12    1    1    2    0    0  0.11444001368E+01 -0.31619154160E+01 -0.44919995694E+02  0.45045680969E+02  0.00000000000E+00 0. -1.
         11    1    3    3    0    0 -0.44440595335E+01  0.12058881465E+01  0.24808262739E+02  0.25231998172E+02  0.51100000000E-03 0. -1.
        -11    1    3    3    0    0 -0.52066613090E-01 -0.71551823609E+00  0.60564344512E+00  0.93887247383E+00  0.51100000000E-03 0.  1.
        -12    1    3    3    0    0  0.33517260098E+01  0.26715455056E+01  0.19506089510E+02  0.19971448386E+02  0.00000000000E+00 0.  1.
</event>
<event>
 7    1  0.2243370E-008  0.4614231E+02  0.7816164E-02  0.1320468E+00
        -11   -1    0    0    0    0  0.00000000000E+00  0.00000000000E+00  0.45593999997E+02  0.45594000000E+02  0.51100000000E-03 0.  1.
         11   -1    0    0    0    0 -0.00000000000E+00 -0.00000000000E+00 -0.45593999997E+02  0.45594000000E+02  0.51100000000E-03 0. -1.
    9900012    2    1    2    0    0 -0.44553159418E+02  0.13957651435E+01  0.64947374982E+01  0.46142314417E+02  0.99999695056E+01 0.  0.
         12    1    1    2    0    0  0.44553159418E+02 -0.13957651435E+01 -0.64947374982E+01  0.45045685583E+02  0.00000000000E+00 0. -1.
         11    1    3    3    0    0 -0.27823340733E+02  0.54394068058E+00  0.71162651752E+01  0.28724125597E+02  0.51100000000E-03 0. -1.
        -11    1    3    3    0    0 -0.10770200254E+02  0.43077771892E+00  0.18793185500E+01  0.10941417706E+02  0.51100000000E-03 0.  1.
         12    1    3    3    0    0 -0.59596184309E+01  0.42104674395E+00 -0.25008462270E+01  0.64767711132E+01  0.00000000000E+00 0. -1.
</event>
<event>
 7    1  0.2243370E-008  0.4614232E+02  0.7816164E-02  0.1320468E+00
        -11   -1    0    0    0    0  0.00000000000E+00  0.00000000000E+00  0.45593999997E+02  0.45594000000E+02  0.51100000000E-03 0.  1.
         11   -1    0    0    0    0 -0.00000000000E+00 -0.00000000000E+00 -0.45593999997E+02  0.45594000000E+02  0.51100000000E-03 0. -1.
    9900012    2    1    2    0    0 -0.20552720041E+02  0.34661440629E+02  0.20131655563E+02  0.46142319594E+02  0.10000016711E+02 0.  0.
         12    1    1    2    0    0  0.20552720041E+02 -0.34661440629E+02 -0.20131655563E+02  0.45045680406E+02  0.00000000000E+00 0. -1.
         11    1    3    3    0    0 -0.22520287617E+00  0.36670661529E+01  0.38592649561E+01  0.53284159717E+01  0.51100000000E-03 0. -1.
        -11    1    3    3    0    0 -0.25029759321E+01  0.16894364932E+01  0.22148035445E+01  0.37449217860E+01  0.51100000000E-03 0.  1.
        -12    1    3    3    0    0 -0.17824541232E+02  0.29304937983E+02  0.14057587062E+02  0.37068981836E+02  0.00000000000E+00 0.  1.
</event>
<event>
 7    1  0.2243370E-008  0.4614232E+02  0.7816164E-02  0.1320468E+00
        -11   -1    0    0    0    0  0.00000000000E+00  0.00000000000E+00  0.45593999997E+02  0.45594000000E+02  0.51100000000E-03 0. -1.
         11   -1    0    0    0    0 -0.00000000000E+00 -0.00000000000E+00 -0.45593999997E+02  0.45594000000E+02  0.51100000000E-03 0.  1.
    9900012    2    1    2    0    0 -0.23513488509E+02  0.10772503572E+02 -0.36880647003E+02  0.46142322089E+02  0.10000039469E+02 0.  0.
         12    1    1    2    0    0  0.23513488509E+02 -0.10772503572E+02  0.36880647003E+02  0.45045677911E+02  0.00000000000E+00 0. -1.
         11    1    3    3    0    0 -0.36178147621E+01  0.31454478418E+01 -0.25543630898E+01  0.54320527274E+01  0.51100000000E-03 0. -1.
        -11    1    3    3    0    0 -0.18769090005E+02  0.76432768336E+01 -0.33919442903E+02  0.39512365501E+02  0.51100000000E-03 0.  1.
        -12    1    3    3    0    0 -0.11265837426E+01 -0.16221102906E-01 -0.40684100962E+00  0.11979038611E+01  0.00000000000E+00 0.  1.
</event>
<event>
 7    1  0.2243370E-008  0.4614232E+02  0.7816164E-02  0.1320468E+00
        -11   -1    0    0    0    0  0.00000000000E+00  0.00000000000E+00  0.45593999997E+02  0.45594000000E+02  0.51100000000E-03 0.  1.
         11   -1    0    0    0    0 -0.00000000000E+00 -0.00000000000E+00 -0.45593999997E+02  0.45594000000E+02  0.51100000000E-03 0. -1.
    9900012    2    1    2    0    0 -0.31233976111E+01 -0.29179581423E+02  0.34174696265E+02  0.46142318193E+02  0.10000003936E+02 0.  0.
         12    1    1    2    0    0  0.31233976111E+01  0.29179581423E+02 -0.34174696265E+02  0.45045681807E+02  0.00000000000E+00 0. -1.
         11    1    3    3    0    0 -0.24456435099E+00 -0.14160684328E+01  0.67660736947E+00  0.15883511330E+01  0.51100000000E-03 0.  1.
        -11    1    3    3    0    0 -0.16219851397E+00  0.10175358178E+00 -0.48607383557E+00  0.52242720458E+00  0.51100000000E-03 0. -1.
        -12    1    3    3    0    0 -0.27166347461E+01 -0.27865266572E+02  0.33984162731E+02  0.44031539855E+02  0.00000000000E+00 0.  1.
</event>
<event>
 7    1  0.2243370E-008  0.4614232E+02  0.7816164E-02  0.1320468E+00
        -11   -1    0    0    0    0  0.00000000000E+00  0.00000000000E+00  0.45593999997E+02  0.45594000000E+02  0.51100000000E-03 0.  1.
         11   -1    0    0    0    0 -0.00000000000E+00 -0.00000000000E+00 -0.45593999997E+02  0.45594000000E+02  0.51100000000E-03 0. -1.
    9900012    2    1    2    0    0  0.19767712961E+02 -0.63126085912E+01  0.39981273292E+02  0.46142315224E+02  0.99999768619E+01 0.  0.
         12    1    1    2    0    0 -0.19767712961E+02  0.63126085912E+01 -0.39981273292E+02  0.45045684776E+02  0.00000000000E+00 0. -1.
         11    1    3    3    0    0  0.12169497957E+00  0.12919635376E+00  0.81122350215E+00  0.83041266695E+00  0.51100000000E-03 0. -1.
        -11    1    3    3    0    0  0.29482004161E+01 -0.19705377529E+01  0.16090342992E+02  0.16476469361E+02  0.51100000000E-03 0.  1.
        -12    1    3    3    0    0  0.16697817565E+02 -0.44712671920E+01  0.23079706798E+02  0.28835433196E+02  0.00000000000E+00 0.  1.
</event>
<event>
 7    1  0.2243370E-008  0.4614232E+02  0.7816164E-02  0.1320468E+00
        -11   -1    0    0    0    0  0.00000000000E+00  0.00000000000E+00  0.45593999997E+02  0.45594000000E+02  0.51100000000E-03 0.  1.
         11   -1    0    0    0    0 -0.00000000000E+00 -0.00000000000E+00 -0.45593999997E+02  0.45594000000E+02  0.51100000000E-03 0. -1.
    9900012    2    1    2    0    0 -0.27657741834E+02 -0.34095214286E+02  0.10083607148E+02  0.46142318146E+02  0.10000003513E+02 0.  0.
         12    1    1    2    0    0  0.27657741834E+02  0.34095214286E+02 -0.10083607148E+02  0.45045681854E+02  0.00000000000E+00 0. -1.
         11    1    3    3    0    0  0.39872834850E+00 -0.79176184863E+00 -0.47723598784E+00  0.10067897348E+01  0.51100000000E-03 0. -1.
        -11    1    3    3    0    0 -0.20450157884E+02 -0.24739280442E+02  0.10186906109E+02  0.33675124508E+02  0.51100000000E-03 0.  1.
         12    1    3    3    0    0 -0.76063122985E+01 -0.85641719949E+01  0.37393702667E+00  0.11460403904E+02  0.00000000000E+00 0. -1.
</event>
<event>
 7    1  0.2243370E-008  0.4614232E+02  0.7816164E-02  0.1320468E+00
        -11   -1    0    0    0    0  0.00000000000E+00  0.00000000000E+00  0.45593999997E+02  0.45594000000E+02  0.51100000000E-03 0. -1.
         11   -1    0    0    0    0 -0.00000000000E+00 -0.00000000000E+00 -0.45593999997E+02  0.45594000000E+02  0.51100000000E-03 0.  1.
    9900012    2    1    2    0    0 -0.31274882608E+02 -0.13397989740E+02 -0.29520994978E+02  0.46142317014E+02  0.99999931881E+01 0.  0.
         12    1    1    2    0    0  0.31274882608E+02  0.13397989740E+02  0.29520994978E+02  0.45045682986E+02  0.00000000000E+00 0. -1.
         11    1    3    3    0    0 -0.14273664142E+02 -0.63115700354E+01 -0.82183416586E+01  0.17638439393E+02  0.51100000000E-03 0. -1.
        -11    1    3    3    0    0 -0.31023670578E+01 -0.32140725365E+01 -0.58803629338E+01  0.73846876797E+01  0.51100000000E-03 0.  1.
        -12    1    3    3    0    0 -0.13898851408E+02 -0.38723471686E+01 -0.15422290385E+02  0.21119189941E+02  0.00000000000E+00 0.  1.
</event>
<event>
 7    1  0.2243370E-008  0.4614232E+02  0.7816164E-02  0.1320468E+00
        -11   -1    0    0    0    0  0.00000000000E+00  0.00000000000E+00  0.45593999997E+02  0.45594000000E+02  0.51100000000E-03 0. -1.
         11   -1    0    0    0    0 -0.00000000000E+00 -0.00000000000E+00 -0.45593999997E+02  0.45594000000E+02  0.51100000000E-03 0.  1.
    9900012    2    1    2    0    0 -0.10447114484E+02 -0.43816795278E+02  0.24418458967E+00  0.46142319013E+02  0.10000011416E+02 0.  0.
         12    1    1    2    0    0  0.10447114484E+02  0.43816795278E+02 -0.24418458967E+00  0.45045680987E+02  0.00000000000E+00 0. -1.
         11    1    3    3    0    0 -0.61220930952E+00 -0.20255533121E-01 -0.78973999864E+00  0.99944987461E+00  0.51100000000E-03 0. -1.
        -11    1    3    3    0    0 -0.54031718766E+01 -0.19490440182E+02 -0.16393759815E+01  0.20291847591E+02  0.51100000000E-03 0.  1.
         12    1    3    3    0    0 -0.44317332984E+01 -0.24306099563E+02  0.26733005698E+01  0.24851021547E+02  0.00000000000E+00 0. -1.
</event>
<event>
 7    1  0.2243370E-008  0.4614232E+02  0.7816164E-02  0.1320468E+00
        -11   -1    0    0    0    0  0.00000000000E+00  0.00000000000E+00  0.45593999997E+02  0.45594000000E+02  0.51100000000E-03 0.  1.
         11   -1    0    0    0    0 -0.00000000000E+00 -0.00000000000E+00 -0.45593999997E+02  0.45594000000E+02  0.51100000000E-03 0. -1.
    9900012    2    1    2    0    0 -0.35610399982E+02  0.67124114166E+01  0.26757351730E+02  0.46142324009E+02  0.10000056970E+02 0.  0.
         12    1    1    2    0    0  0.35610399982E+02 -0.67124114166E+01 -0.26757351730E+02  0.45045675991E+02  0.00000000000E+00 0. -1.
         11    1    3    3    0    0 -0.46003646288E+01  0.26061887737E+01  0.37007641147E+01  0.64537764089E+01  0.51100000000E-03 0. -1.
        -11    1    3    3    0    0 -0.23324134200E+02  0.53601207856E+01  0.20441096585E+02  0.31473553356E+02  0.51100000000E-03 0.  1.
         12    1    3    3    0    0 -0.76859011534E+01 -0.12538981427E+01  0.26154910307E+01  0.82149942437E+01  0.00000000000E+00 0. -1.
</event>
<event>
 7    1  0.2243370E-008  0.4614232E+02  0.7816164E-02  0.1320468E+00
        -11   -1    0    0    0    0  0.00000000000E+00  0.00000000000E+00  0.45593999997E+02  0.45594000000E+02  0.51100000000E-03 0.  1.
         11   -1    0    0    0    0 -0.00000000000E+00 -0.00000000000E+00 -0.45593999997E+02  0.45594000000E+02  0.51100000000E-03 0. -1.
    9900012    2    1    2    0    0  0.15277243514E+02  0.81510454871E+01  0.41584611719E+02  0.46142316036E+02  0.99999842729E+01 0.  0.
         12    1    1    2    0    0 -0.15277243514E+02 -0.81510454871E+01 -0.41584611719E+02  0.45045683964E+02  0.00000000000E+00 0. -1.
         11    1    3    3    0    0  0.30910006394E+00  0.23698484830E+01  0.12094048917E+02  0.12327925379E+02  0.51100000000E-03 0. -1.
        -11    1    3    3    0    0  0.13535898641E+02  0.45653556724E+01  0.27933707598E+02  0.31374432980E+02  0.51100000000E-03 0.  1.
         12    1    3    3    0    0  0.14322448090E+01  0.12158413317E+01  0.15568552040E+01  0.24399576765E+01  0.00000000000E+00 0. -1.
</event>
<event>
 7    1  0.2243370E-008  0.4614232E+02  0.7816164E-02  0.1320468E+00
        -11   -1    0    0    0    0  0.00000000000E+00  0.00000000000E+00  0.45593999997E+02  0.45594000000E+02  0.51100000000E-03 0.  1.
         11   -1    0    0    0    0 -0.00000000000E+00 -0.00000000000E+00 -0.45593999997E+02  0.45594000000E+02  0.51100000000E-03 0. -1.
    9900012    2    1    2    0    0  0.33870650542E+02  0.27018107839E+02  0.12325353905E+02  0.46142317984E+02  0.10000002037E+02 0.  0.
         12    1    1    2    0    0 -0.33870650542E+02 -0.27018107839E+02 -0.12325353905E+02  0.45045682016E+02  0.00000000000E+00 0. -1.
         11    1    3    3    0    0  0.11999933160E+02  0.14906261883E+02  0.42389409998E+01  0.19600093373E+02  0.51100000000E-03 0. -1.
        -11    1    3    3    0    0  0.58316465617E+01  0.14928135469E+01  0.14291332999E+01  0.61870038110E+01  0.51100000000E-03 0.  1.
        -12    1    3    3    0    0  0.16039070820E+02  0.10619032409E+02  0.66572796054E+01  0.20355220800E+02  0.00000000000E+00 0.  1.
</event>
<event>
 7    1  0.2243370E-008  0.4614232E+02  0.7816164E-02  0.1320468E+00
        -11   -1    0    0    0    0  0.00000000000E+00  0.00000000000E+00  0.45593999997E+02  0.45594000000E+02  0.51100000000E-03 0.  1.
         11   -1    0    0    0    0 -0.00000000000E+00 -0.00000000000E+00 -0.45593999997E+02  0.45594000000E+02  0.51100000000E-03 0. -1.
    9900012    2    1    2    0    0 -0.33390738069E+02 -0.30193487512E+02  0.15891473276E+01  0.46142318008E+02  0.10000002248E+02 0.  0.
         12    1    1    2    0    0  0.33390738069E+02  0.30193487512E+02 -0.15891473276E+01  0.45045681992E+02  0.00000000000E+00 0. -1.
         11    1    3    3    0    0 -0.83145249173E+01 -0.11266278482E+02 -0.24609094077E+01  0.14216765835E+02  0.51100000000E-03 0. -1.
        -11    1    3    3    0    0 -0.12514181092E+02 -0.11747922079E+02  0.14566996022E+01  0.17226153824E+02  0.51100000000E-03 0.  1.
        -12    1    3    3    0    0 -0.12562032059E+02 -0.71792869515E+01  0.25933571330E+01  0.14699398349E+02  0.00000000000E+00 0.  1.
</event>
<event>
 7    1  0.2243370E-008  0.4614232E+02  0.7816164E-02  0.1320468E+00
        -11   -1    0    0    0    0  0.00000000000E+00  0.00000000000E+00  0.45593999997E+02  0.45594000000E+02  0.51100000000E-03 0.  1.
         11   -1    0    0    0    0 -0.00000000000E+00 -0.00000000000E+00 -0.45593999997E+02  0.45594000000E+02  0.51100000000E-03 0. -1.
    9900012    2    1    2    0    0 -0.35584727784E+02 -0.34131900246E+01  0.27407860874E+02  0.46142317018E+02  0.99999932233E+01 0.  0.
         12    1    1    2    0    0  0.35584727784E+02  0.34131900246E+01 -0.27407860874E+02  0.45045682982E+02  0.00000000000E+00 0. -1.
         11    1    3    3    0    0 -0.69242389073E+01 -0.19854105807E+01  0.93471040537E+01  0.11800648036E+02  0.51100000000E-03 0. -1.
        -11    1    3    3    0    0 -0.11613038356E+02 -0.32511370038E+01  0.77606428164E+01  0.14340855234E+02  0.51100000000E-03 0.  1.
         12    1    3    3    0    0 -0.17047450521E+02  0.18233575600E+01  0.10300114004E+02  0.20000813748E+02  0.00000000000E+00 0. -1.
</event>
<event>
 7    1  0.2243370E-008  0.4614232E+02  0.7816164E-02  0.1320468E+00
        -11   -1    0    0    0    0  0.00000000000E+00  0.00000000000E+00  0.45593999997E+02  0.45594000000E+02  0.51100000000E-03 0. -1.
         11   -1    0    0    0    0 -0.00000000000E+00 -0.00000000000E+00 -0.45593999997E+02  0.45594000000E+02  0.51100000000E-03 0.  1.
    9900012    2    1    2    0    0 -0.26766924902E+01 -0.35287452503E+02 -0.27870135315E+02  0.46142318416E+02  0.10000005974E+02 0.  0.
         12    1    1    2    0    0  0.26766924902E+01  0.35287452503E+02  0.27870135315E+02  0.45045681584E+02  0.00000000000E+00 0. -1.
         11    1    3    3    0    0  0.21245835064E+01 -0.80947579555E+01 -0.52249485712E+01  0.98660554056E+01  0.51100000000E-03 0. -1.
        -11    1    3    3    0    0 -0.46804009600E+01 -0.13991505727E+02 -0.89598387968E+01  0.17261144145E+02  0.51100000000E-03 0.  1.
        -12    1    3    3    0    0 -0.12087503663E+00 -0.13201188820E+02 -0.13685347947E+02  0.19015118866E+02  0.00000000000E+00 0.  1.
</event>
<event>
 7    1  0.2243370E-008  0.4614232E+02  0.7816164E-02  0.1320468E+00
        -11   -1    0    0    0    0  0.00000000000E+00  0.00000000000E+00  0.45593999997E+02  0.45594000000E+02  0.51100000000E-03 0.  1.
         11   -1    0    0    0    0 -0.00000000000E+00 -0.00000000000E+00 -0.45593999997E+02  0.45594000000E+02  0.51100000000E-03 0. -1.
    9900012    2    1    2    0    0 -0.12644456249E+02 -0.11892322877E+02  0.41566857454E+02  0.46142320342E+02  0.10000023537E+02 0.  0.
         12    1    1    2    0    0  0.12644456249E+02  0.11892322877E+02 -0.41566857454E+02  0.45045679658E+02  0.00000000000E+00 0. -1.
         11    1    3    3    0    0 -0.36559888888E+01 -0.55829344514E+01  0.19594295818E+02  0.20699561365E+02  0.51100000000E-03 0. -1.
        -11    1    3    3    0    0 -0.26900312924E+01 -0.52899589245E+01  0.14176860694E+02  0.15368907352E+02  0.51100000000E-03 0.  1.
         12    1    3    3    0    0 -0.62984360674E+01 -0.10194295010E+01  0.77957009416E+01  0.10073851625E+02  0.00000000000E+00 0. -1.
</event>
<event>
 7    1  0.2243370E-008  0.4614232E+02  0.7816164E-02  0.1320468E+00
        -11   -1    0    0    0    0  0.00000000000E+00  0.00000000000E+00  0.45593999997E+02  0.45594000000E+02  0.51100000000E-03 0.  1.
         11   -1    0    0    0    0 -0.00000000000E+00 -0.00000000000E+00 -0.45593999997E+02  0.45594000000E+02  0.51100000000E-03 0. -1.
    9900012    2    1    2    0    0  0.42280790322E+02 -0.14602347692E+02  0.53122191281E+01  0.46142318071E+02  0.10000002828E+02 0.  0.
         12    1    1    2    0    0 -0.42280790322E+02  0.14602347692E+02 -0.53122191281E+01  0.45045681929E+02  0.00000000000E+00 0. -1.
         11    1    3    3    0    0  0.10571822383E+01 -0.14309922158E+01 -0.10895591071E+01  0.20862675561E+01  0.51100000000E-03 0. -1.
        -11    1    3    3    0    0  0.25392493391E+02 -0.83191876623E+01  0.13921018946E+01  0.26756785157E+02  0.51100000000E-03 0.  1.
         12    1    3    3    0    0  0.15831114692E+02 -0.48521678138E+01  0.50096763407E+01  0.17299265358E+02  0.00000000000E+00 0. -1.
</event>
<event>
 7    1  0.2243370E-008  0.4614232E+02  0.7816164E-02  0.1320468E+00
        -11   -1    0    0    0    0  0.00000000000E+00  0.00000000000E+00  0.45593999997E+02  0.45594000000E+02  0.51100000000E-03 0. -1.
         11   -1    0    0    0    0 -0.00000000000E+00 -0.00000000000E+00 -0.45593999997E+02  0.45594000000E+02  0.51100000000E-03 0.  1.
    9900012    2    1    2    0    0 -0.71276427180E+01  0.42061416318E+02 -0.14461929769E+02  0.46142318231E+02  0.10000004285E+02 0.  0.
         12    1    1    2    0    0  0.71276427180E+01 -0.42061416318E+02  0.14461929769E+02  0.45045681769E+02  0.00000000000E+00 0. -1.
         11    1    3    3    0    0 -0.55008115210E+01  0.21650702243E+02 -0.10723475605E+02  0.24779119522E+02  0.51100000000E-03 0. -1.
        -11    1    3    3    0    0 -0.39544498966E+00  0.61763729460E+01 -0.34222803825E+01  0.70721964612E+01  0.51100000000E-03 0.  1.
         12    1    3    3    0    0 -0.12313862074E+01  0.14234341129E+02 -0.31617378132E+00  0.14291002247E+02  0.00000000000E+00 0. -1.
</event>
<event>
 7    1  0.2243370E-008  0.4614231E+02  0.7816164E-02  0.1320468E+00
        -11   -1    0    0    0    0  0.00000000000E+00  0.00000000000E+00  0.45593999997E+02  0.45594000000E+02  0.51100000000E-03 0.  1.
         11   -1    0    0    0    0 -0.00000000000E+00 -0.00000000000E+00 -0.45593999997E+02  0.45594000000E+02  0.51100000000E-03 0. -1.
    9900012    2    1    2    0    0 -0.13963481559E+02 -0.36008766014E+02  0.23184126392E+02  0.46142314705E+02  0.99999721352E+01 0.  0.
         12    1    1    2    0    0  0.13963481559E+02  0.36008766014E+02 -0.23184126392E+02  0.45045685295E+02  0.00000000000E+00 0. -1.
         11    1    3    3    0    0 -0.36597091839E+01 -0.66039286194E+01  0.71326296300E+01  0.10386517714E+02  0.51100000000E-03 0. -1.
        -11    1    3    3    0    0 -0.64468185263E+01 -0.11328629208E+02  0.37861972814E+01  0.13573304644E+02  0.51100000000E-03 0.  1.
        -12    1    3    3    0    0 -0.38569538490E+01 -0.18076208186E+02  0.12265299481E+02  0.22182492347E+02  0.00000000000E+00 0.  1.
</event>
<event>
 7    1  0.2243370E-008  0.4614231E+02  0.7816164E-02  0.1320468E+00
        -11   -1    0    0    0    0  0.00000000000E+00  0.00000000000E+00  0.45593999997E+02  0.45594000000E+02  0.51100000000E-03 0.  1.
         11   -1    0    0    0    0 -0.00000000000E+00 -0.00000000000E+00 -0.45593999997E+02  0.45594000000E+02  0.51100000000E-03 0. -1.
    9900012    2    1    2    0    0 -0.43601603378E+02  0.10504941875E+02 -0.42024222389E+01  0.46142312375E+02  0.99999508848E+01 0.  0.
         12    1    1    2    0    0  0.43601603378E+02 -0.10504941875E+02  0.42024222389E+01  0.45045687625E+02  0.00000000000E+00 0. -1.
         11    1    3    3    0    0 -0.82384876824E+01 -0.51555758823E+00 -0.87842553744E-01  0.82550708958E+01  0.51100000000E-03 0. -1.
        -11    1    3    3    0    0 -0.12648611677E+02  0.24836746736E+01  0.15096299685E+01  0.12978251044E+02  0.51100000000E-03 0.  1.
        -12    1    3    3    0    0 -0.22714504018E+02  0.85368247898E+01 -0.56242096537E+01  0.24908990436E+02  0.00000000000E+00 0.  1.
</event>
<event>
 7    1  0.2243370E-008  0.4614232E+02  0.7816164E-02  0.1320468E+00
        -11   -1    0    0    0    0  0.00000000000E+00  0.00000000000E+00  0.45593999997E+02  0.45594000000E+02  0.51100000000E-03 0. -1.
         11   -1    0    0    0    0 -0.00000000000E+00 -0.00000000000E+00 -0.45593999997E+02  0.45594000000E+02  0.51100000000E-03 0.  1.
    9900012    2    1    2    0    0 -0.40955116516E+02  0.18236668395E+02 -0.43836011547E+01  0.46142316499E+02  0.99999884884E+01 0.  0.
         12    1    1    2    0    0  0.40955116516E+02 -0.18236668395E+02  0.43836011547E+01  0.45045683501E+02  0.00000000000E+00 0. -1.
         11    1    3    3    0    0 -0.11944893517E+02  0.55624198790E+01 -0.55309613991E+01  0.14290294969E+02  0.51100000000E-03 0. -1.
        -11    1    3    3    0    0 -0.71467773748E+01  0.18723378682E+01 -0.53816388334E+00  0.74075432205E+01  0.51100000000E-03 0.  1.
         12    1    3    3    0    0 -0.21863445625E+02  0.10801910648E+02  0.16855241277E+01  0.24444478309E+02  0.00000000000E+00 0. -1.
</event>
<event>
 7    1  0.2243370E-008  0.4614232E+02  0.7816164E-02  0.1320468E+00
        -11   -1    0    0    0    0  0.00000000000E+00  0.00000000000E+00  0.45593999997E+02  0.45594000000E+02  0.51100000000E-03 0.  1.
         11   -1    0    0    0    0 -0.00000000000E+00 -0.00000000000E+00 -0.45593999997E+02  0.45594000000E+02  0.51100000000E-03 0. -1.
    9900012    2    1    2    0    0 -0.26622137193E+02  0.12594494104E+02  0.34084513150E+02  0.46142317552E+02  0.99999980968E+01 0.  0.
         12    1    1    2    0    0  0.26622137193E+02 -0.12594494104E+02 -0.34084513150E+02  0.45045682448E+02  0.00000000000E+00 0. -1.
         11    1    3    3    0    0 -0.44334864019E+01  0.41373267421E+01  0.78917003972E+01  0.99524976597E+01  0.51100000000E-03 0. -1.
        -11    1    3    3    0    0 -0.21388706269E+02  0.97008919191E+01  0.24852626300E+02  0.34194109056E+02  0.51100000000E-03 0.  1.
         12    1    3    3    0    0 -0.79994452205E+00 -0.12437245572E+01  0.13401864537E+01  0.19957108366E+01  0.00000000000E+00 0. -1.
</event>
<event>
 7    1  0.2243370E-008  0.4614232E+02  0.7816164E-02  0.1320468E+00
        -11   -1    0    0    0    0  0.00000000000E+00  0.00000000000E+00  0.45593999997E+02  0.45594000000E+02  0.51100000000E-03 0. -1.
         11   -1    0    0    0    0 -0.00000000000E+00 -0.00000000000E+00 -0.45593999997E+02  0.45594000000E+02  0.51100000000E-03 0.  1.
    9900012    2    1    2    0    0  0.25971732324E+02 -0.32120623749E+02 -0.17967974998E+02  0.46142317904E+02  0.10000001304E+02 0.  0.
         12    1    1    2    0    0 -0.25971732324E+02  0.32120623749E+02  0.17967974998E+02  0.45045682096E+02  0.00000000000E+00 0. -1.
         11    1    3    3    0    0  0.21200773785E+02 -0.30099055718E+02 -0.15859396834E+02  0.40086736365E+02  0.51100000000E-03 0. -1.
        -11    1    3    3    0    0 -0.10088237628E+00 -0.25951108145E+00 -0.59720705688E+00  0.65892320125E+00  0.51100000000E-03 0.  1.
         12    1    3    3    0    0  0.48718409145E+01 -0.17620569504E+01 -0.15113711076E+01  0.53966583380E+01  0.00000000000E+00 0. -1.
</event>
<event>
 7    1  0.2243370E-008  0.4614232E+02  0.7816164E-02  0.1320468E+00
        -11   -1    0    0    0    0  0.00000000000E+00  0.00000000000E+00  0.45593999997E+02  0.45594000000E+02  0.51100000000E-03 0.  1.
         11   -1    0    0    0    0 -0.00000000000E+00 -0.00000000000E+00 -0.45593999997E+02  0.45594000000E+02  0.51100000000E-03 0. -1.
    9900012    2    1    2    0    0 -0.19307643299E+02  0.40269655578E+02  0.58892338444E+01  0.46142319570E+02  0.10000016494E+02 0.  0.
         12    1    1    2    0    0  0.19307643299E+02 -0.40269655578E+02 -0.58892338444E+01  0.45045680430E+02  0.00000000000E+00 0. -1.
         11    1    3    3    0    0 -0.11490453362E+01  0.21854027578E+01  0.18267883601E+01  0.30713916020E+01  0.51100000000E-03 0. -1.
        -11    1    3    3    0    0 -0.33301981836E+01  0.13982557760E+02 -0.62571464951E+00  0.14387274257E+02  0.51100000000E-03 0.  1.
        -12    1    3    3    0    0 -0.14828399779E+02  0.24101695060E+02  0.46881601338E+01  0.28683653711E+02  0.00000000000E+00 0.  1.
</event>
<event>
 7    1  0.2243370E-008  0.4614232E+02  0.7816164E-02  0.1320468E+00
        -11   -1    0    0    0    0  0.00000000000E+00  0.00000000000E+00  0.45593999997E+02  0.45594000000E+02  0.51100000000E-03 0.  1.
         11   -1    0    0    0    0 -0.00000000000E+00 -0.00000000000E+00 -0.45593999997E+02  0.45594000000E+02  0.51100000000E-03 0. -1.
    9900012    2    1    2    0    0 -0.32825896587E+02 -0.14528028825E+02  0.27212320002E+02  0.46142317986E+02  0.10000002050E+02 0.  0.
         12    1    1    2    0    0  0.32825896587E+02  0.14528028825E+02 -0.27212320002E+02  0.45045682014E+02  0.00000000000E+00 0. -1.
         11    1    3    3    0    0 -0.11534448447E+02 -0.59769481647E+01  0.95499231195E+01  0.16123536901E+02  0.51100000000E-03 0.  1.
        -11    1    3    3    0    0 -0.88413058893E+01 -0.74326661061E+01  0.10512684254E+02  0.15618250406E+02  0.51100000000E-03 0. -1.
         12    1    3    3    0    0 -0.12450142250E+02 -0.11184145538E+01  0.71497126284E+01  0.14400530679E+02  0.00000000000E+00 0. -1.
</event>
<event>
 7    1  0.2243370E-008  0.4614232E+02  0.7816164E-02  0.1320468E+00
        -11   -1    0    0    0    0  0.00000000000E+00  0.00000000000E+00  0.45593999997E+02  0.45594000000E+02  0.51100000000E-03 0.  1.
         11   -1    0    0    0    0 -0.00000000000E+00 -0.00000000000E+00 -0.45593999997E+02  0.45594000000E+02  0.51100000000E-03 0. -1.
    9900012    2    1    2    0    0 -0.40211597578E+02  0.16919503552E+02  0.11219240747E+02  0.46142317153E+02  0.99999944540E+01 0.  0.
         12    1    1    2    0    0  0.40211597578E+02 -0.16919503552E+02 -0.11219240747E+02  0.45045682847E+02  0.00000000000E+00 0. -1.
         11    1    3    3    0    0 -0.79390452015E+01  0.26455914548E+01 -0.14913546812E+01  0.85001018761E+01  0.51100000000E-03 0. -1.
        -11    1    3    3    0    0 -0.46809619115E+01  0.13978275702E+01  0.27511147433E+01  0.56065995867E+01  0.51100000000E-03 0.  1.
         12    1    3    3    0    0 -0.27591590465E+02  0.12876084527E+02  0.99594806854E+01  0.32035615690E+02  0.00000000000E+00 0. -1.
</event>
<event>
 7    1  0.2243370E-008  0.4614231E+02  0.7816164E-02  0.1320468E+00
        -11   -1    0    0    0    0  0.00000000000E+00  0.00000000000E+00  0.45593999997E+02  0.45594000000E+02  0.51100000000E-03 0.  1.
         11   -1    0    0    0    0 -0.00000000000E+00 -0.00000000000E+00 -0.45593999997E+02  0.45594000000E+02  0.51100000000E-03 0. -1.
    9900012    2    1    2    0    0 -0.30042339204E+02 -0.43267287176E+01  0.33284405576E+02  0.46142307855E+02  0.99999096716E+01 0.  0.
         12    1    1    2    0    0  0.30042339204E+02  0.43267287176E+01 -0.33284405576E+02  0.45045692145E+02  0.00000000000E+00 0. -1.
         11    1    3    3    0    0 -0.65756842367E+01  0.14023922581E+00  0.12518535629E+02  0.14141181873E+02  0.51100000000E-03 0. -1.
        -11    1    3    3    0    0 -0.10997161845E+02 -0.44087831213E+01  0.10923828547E+02  0.16115364334E+02  0.51100000000E-03 0.  1.
        -12    1    3    3    0    0 -0.12469493122E+02 -0.58184822156E-01  0.98420414005E+01  0.15885761648E+02  0.00000000000E+00 0.  1.
</event>
<event>
 7    1  0.2243370E-008  0.4614232E+02  0.7816164E-02  0.1320468E+00
        -11   -1    0    0    0    0  0.00000000000E+00  0.00000000000E+00  0.45593999997E+02  0.45594000000E+02  0.51100000000E-03 0.  1.
         11   -1    0    0    0    0 -0.00000000000E+00 -0.00000000000E+00 -0.45593999997E+02  0.45594000000E+02  0.51100000000E-03 0. -1.
    9900012    2    1    2    0    0 -0.70962108713E+01 -0.44273537085E+02 -0.43140695063E+01  0.46142317738E+02  0.99999997900E+01 0.  0.
         12    1    1    2    0    0  0.70962108713E+01  0.44273537085E+02  0.43140695063E+01  0.45045682262E+02  0.00000000000E+00 0. -1.
         11    1    3    3    0    0 -0.30755846323E+01 -0.96560324264E+01 -0.27354537663E+01  0.10496708561E+02  0.51100000000E-03 0.  1.
        -11    1    3    3    0    0  0.25837693721E+00 -0.38693118524E+01 -0.24532879323E+01  0.45887857646E+01  0.51100000000E-03 0. -1.
        -12    1    3    3    0    0 -0.42790031762E+01 -0.30748192806E+02  0.87467219233E+00  0.31056823412E+02  0.00000000000E+00 0.  1.
</event>
<event>
 7    1  0.2243370E-008  0.4614232E+02  0.7816164E-02  0.1320468E+00
        -11   -1    0    0    0    0  0.00000000000E+00  0.00000000000E+00  0.45593999997E+02  0.45594000000E+02  0.51100000000E-03 0. -1.
         11   -1    0    0    0    0 -0.00000000000E+00 -0.00000000000E+00 -0.45593999997E+02  0.45594000000E+02  0.51100000000E-03 0.  1.
    9900012    2    1    2    0    0  0.11344403208E+02  0.65012911369E+01 -0.43106278804E+02  0.46142317155E+02  0.99999944768E+01 0.  0.
         12    1    1    2    0    0 -0.11344403208E+02 -0.65012911369E+01  0.43106278804E+02  0.45045682845E+02  0.00000000000E+00 0. -1.
         11    1    3    3    0    0  0.35756370418E+01 -0.16737972244E+00 -0.11116089890E+02  0.11678212660E+02  0.51100000000E-03 0. -1.
        -11    1    3    3    0    0  0.21744907951E+01 -0.16964360729E+01 -0.70245455310E+01  0.75465585365E+01  0.51100000000E-03 0.  1.
         12    1    3    3    0    0  0.55942753707E+01  0.83651069323E+01 -0.24965643383E+02  0.26917545959E+02  0.00000000000E+00 0. -1.
</event>
<event>
 7    1  0.2243370E-008  0.4614232E+02  0.7816164E-02  0.1320468E+00
        -11   -1    0    0    0    0  0.00000000000E+00  0.00000000000E+00  0.45593999997E+02  0.45594000000E+02  0.51100000000E-03 0.  1.
         11   -1    0    0    0    0 -0.00000000000E+00 -0.00000000000E+00 -0.45593999997E+02  0.45594000000E+02  0.51100000000E-03 0. -1.
    9900012    2    1    2    0    0 -0.21239231419E+02  0.22130692105E+02  0.32988498600E+02  0.46142317363E+02  0.99999963729E+01 0.  0.
         12    1    1    2    0    0  0.21239231419E+02 -0.22130692105E+02 -0.32988498600E+02  0.45045682637E+02  0.00000000000E+00 0. -1.
         11    1    3    3    0    0 -0.70821063787E+01  0.58555377043E+01  0.61798420059E+01  0.11074023661E+02  0.51100000000E-03 0. -1.
        -11    1    3    3    0    0 -0.12782435275E+02  0.11567642523E+02  0.23528410821E+02  0.29168255367E+02  0.51100000000E-03 0.  1.
        -12    1    3    3    0    0 -0.13746897646E+01  0.47075118780E+01  0.32802457733E+01  0.59000383357E+01  0.00000000000E+00 0.  1.
</event>
<event>
 7    1  0.2243370E-008  0.4614232E+02  0.7816164E-02  0.1320468E+00
        -11   -1    0    0    0    0  0.00000000000E+00  0.00000000000E+00  0.45593999997E+02  0.45594000000E+02  0.51100000000E-03 0.  1.
         11   -1    0    0    0    0 -0.00000000000E+00 -0.00000000000E+00 -0.45593999997E+02  0.45594000000E+02  0.51100000000E-03 0. -1.
    9900012    2    1    2    0    0 -0.75061448728E+00  0.16104043037E+02  0.42061977653E+02  0.46142316652E+02  0.99999898840E+01 0.  0.
         12    1    1    2    0    0  0.75061448728E+00 -0.16104043037E+02 -0.42061977653E+02  0.45045683348E+02  0.00000000000E+00 0. -1.
         11    1    3    3    0    0 -0.11492268507E+00  0.56365217174E+01  0.18907741191E+02  0.19730338606E+02  0.51100000000E-03 0. -1.
        -11    1    3    3    0    0 -0.16257867584E+01  0.20187812847E+01  0.12562855280E+02  0.12827470269E+02  0.51100000000E-03 0.  1.
         12    1    3    3    0    0  0.99009495621E+00  0.84487400349E+01  0.10591381182E+02  0.13584507777E+02  0.00000000000E+00 0. -1.
</event>
<event>
 7    1  0.2243370E-008  0.4614232E+02  0.7816164E-02  0.1320468E+00
        -11   -1    0    0    0    0  0.00000000000E+00  0.00000000000E+00  0.45593999997E+02  0.45594000000E+02  0.51100000000E-03 0.  1.
         11   -1    0    0    0    0 -0.00000000000E+00 -0.00000000000E+00 -0.45593999997E+02  0.45594000000E+02  0.51100000000E-03 0. -1.
    9900012    2    1    2    0    0 -0.62440605895E+01  0.44549215264E+02  0.23436489218E+01  0.46142316927E+02  0.99999923913E+01 0.  0.
         12    1    1    2    0    0  0.62440605895E+01 -0.44549215264E+02 -0.23436489218E+01  0.45045683073E+02  0.00000000000E+00 0. -1.
         11    1    3    3    0    0 -0.20220031672E+01  0.31432568786E+01 -0.92099603642E+00  0.38492589641E+01  0.51100000000E-03 0. -1.
        -11    1    3    3    0    0 -0.25807785179E+01  0.52175844156E+01 -0.64744402766E+00  0.58568582808E+01  0.51100000000E-03 0.  1.
        -12    1    3    3    0    0 -0.16412789045E+01  0.36188373970E+02  0.39120889859E+01  0.36436199682E+02  0.00000000000E+00 0.  1.
</event>
<event>
 7    1  0.2243370E-008  0.4614232E+02  0.7816164E-02  0.1320468E+00
        -11   -1    0    0    0    0  0.00000000000E+00  0.00000000000E+00  0.45593999997E+02  0.45594000000E+02  0.51100000000E-03 0.  1.
         11   -1    0    0    0    0 -0.00000000000E+00 -0.00000000000E+00 -0.45593999997E+02  0.45594000000E+02  0.51100000000E-03 0. -1.
    9900012    2    1    2    0    0 -0.27263846546E+02  0.14885476630E+02  0.32622367049E+02  0.46142316801E+02  0.99999912419E+01 0.  0.
         12    1    1    2    0    0  0.27263846546E+02 -0.14885476630E+02 -0.32622367049E+02  0.45045683199E+02  0.00000000000E+00 0. -1.
         11    1    3    3    0    0 -0.40653427911E+01 -0.27430928456E+00  0.37733781241E+01  0.55534350020E+01  0.51100000000E-03 0. -1.
        -11    1    3    3    0    0 -0.15248106455E+02  0.70453395234E+01  0.13833426624E+02  0.21760175824E+02  0.51100000000E-03 0.  1.
        -12    1    3    3    0    0 -0.79503973002E+01  0.81144463911E+01  0.15015562302E+02  0.18828705975E+02  0.00000000000E+00 0.  1.
</event>
<event>
 7    1  0.2243370E-008  0.4614232E+02  0.7816164E-02  0.1320468E+00
        -11   -1    0    0    0    0  0.00000000000E+00  0.00000000000E+00  0.45593999997E+02  0.45594000000E+02  0.51100000000E-03 0. -1.
         11   -1    0    0    0    0 -0.00000000000E+00 -0.00000000000E+00 -0.45593999997E+02  0.45594000000E+02  0.51100000000E-03 0.  1.
    9900012    2    1    2    0    0  0.31284158773E+01 -0.32261832986E+01 -0.44820957568E+02  0.46142317833E+02  0.10000000659E+02 0.  0.
         12    1    1    2    0    0 -0.31284158773E+01  0.32261832986E+01  0.44820957568E+02  0.45045682167E+02  0.00000000000E+00 0. -1.
         11    1    3    3    0    0  0.10510638765E+00 -0.27031857850E+01 -0.49932882375E+01  0.56790129798E+01  0.51100000000E-03 0. -1.
        -11    1    3    3    0    0  0.40613774227E+01  0.67287263645E+00 -0.14145747919E+02  0.14732607665E+02  0.51100000000E-03 0.  1.
        -12    1    3    3    0    0 -0.10380679331E+01 -0.11958701500E+01 -0.25681921411E+02  0.25730697189E+02  0.00000000000E+00 0.  1.
</event>
<event>
 7    1  0.2243370E-008  0.4614232E+02  0.7816164E-02  0.1320468E+00
        -11   -1    0    0    0    0  0.00000000000E+00  0.00000000000E+00  0.45593999997E+02  0.45594000000E+02  0.51100000000E-03 0.  1.
         11   -1    0    0    0    0 -0.00000000000E+00 -0.00000000000E+00 -0.45593999997E+02  0.45594000000E+02  0.51100000000E-03 0. -1.
    9900012    2    1    2    0    0  0.27509723369E+02  0.33253478226E+02  0.12904838332E+02  0.46142317117E+02  0.99999941308E+01 0.  0.
         12    1    1    2    0    0 -0.27509723369E+02 -0.33253478226E+02 -0.12904838332E+02  0.45045682883E+02  0.00000000000E+00 0. -1.
         11    1    3    3    0    0  0.15024742035E+01 -0.16593207372E-01  0.73290984645E+00  0.16717838289E+01  0.51100000000E-03 0. -1.
        -11    1    3    3    0    0  0.13502494571E+02  0.20097117100E+02  0.39446681518E+01  0.24531039164E+02  0.51100000000E-03 0.  1.
        -12    1    3    3    0    0  0.12504754595E+02  0.13172954333E+02  0.82272603339E+01  0.19939494124E+02  0.00000000000E+00 0.  1.
</event>
<event>
 7    1  0.2243370E-008  0.4614232E+02  0.7816164E-02  0.1320468E+00
        -11   -1    0    0    0    0  0.00000000000E+00  0.00000000000E+00  0.45593999997E+02  0.45594000000E+02  0.51100000000E-03 0.  1.
         11   -1    0    0    0    0 -0.00000000000E+00 -0.00000000000E+00 -0.45593999997E+02  0.45594000000E+02  0.51100000000E-03 0. -1.
    9900012    2    1    2    0    0  0.23492422281E+02  0.97036267715E+01  0.37189500891E+02  0.46142320366E+02  0.10000023757E+02 0.  0.
         12    1    1    2    0    0 -0.23492422281E+02 -0.97036267715E+01 -0.37189500891E+02  0.45045679634E+02  0.00000000000E+00 0. -1.
         11    1    3    3    0    0  0.18383619066E+01  0.35596809192E+00  0.37848243679E+01  0.42226986087E+01  0.51100000000E-03 0. -1.
        -11    1    3    3    0    0  0.12944975226E+02  0.54771157369E+01  0.26992192445E+02  0.30432706644E+02  0.51100000000E-03 0.  1.
        -12    1    3    3    0    0  0.87090851484E+01  0.38705429427E+01  0.64124840774E+01  0.11486915114E+02  0.00000000000E+00 0.  1.
</event>
<event>
 7    1  0.2243370E-008  0.4614232E+02  0.7816164E-02  0.1320468E+00
        -11   -1    0    0    0    0  0.00000000000E+00  0.00000000000E+00  0.45593999997E+02  0.45594000000E+02  0.51100000000E-03 0.  1.
         11   -1    0    0    0    0 -0.00000000000E+00 -0.00000000000E+00 -0.45593999997E+02  0.45594000000E+02  0.51100000000E-03 0. -1.
    9900012    2    1    2    0    0  0.44774422302E+02  0.32070447141E+01 -0.37522547045E+01  0.46142318258E+02  0.10000004530E+02 0.  0.
         12    1    1    2    0    0 -0.44774422302E+02 -0.32070447141E+01  0.37522547045E+01  0.45045681742E+02  0.00000000000E+00 0. -1.
         11    1    3    3    0    0  0.12450462819E+02  0.18703645438E+00  0.14634415916E+01  0.12537570282E+02  0.51100000000E-03 0. -1.
        -11    1    3    3    0    0  0.13744725488E+02  0.47385252101E+01 -0.22051208537E+01  0.14704885520E+02  0.51100000000E-03 0.  1.
         12    1    3    3    0    0  0.18579233995E+02 -0.17185169504E+01 -0.30105754424E+01  0.18899862456E+02  0.00000000000E+00 0. -1.
</event>
<event>
 7    1  0.2243370E-008  0.4614232E+02  0.7816164E-02  0.1320468E+00
        -11   -1    0    0    0    0  0.00000000000E+00  0.00000000000E+00  0.45593999997E+02  0.45594000000E+02  0.51100000000E-03 0. -1.
         11   -1    0    0    0    0 -0.00000000000E+00 -0.00000000000E+00 -0.45593999997E+02  0.45594000000E+02  0.51100000000E-03 0.  1.
    9900012    2    1    2    0    0 -0.18460554567E+02 -0.26327882482E+02 -0.31546216779E+02  0.46142320252E+02  0.10000022712E+02 0.  0.
         12    1    1    2    0    0  0.18460554567E+02  0.26327882482E+02  0.31546216779E+02  0.45045679748E+02  0.00000000000E+00 0. -1.
         11    1    3    3    0    0 -0.79741140296E+01 -0.90281552107E+01 -0.16979702882E+02  0.20818366682E+02  0.51100000000E-03 0.  1.
        -11    1    3    3    0    0 -0.29132676154E+00 -0.37285101647E+01 -0.25225331184E+01  0.45110789091E+01  0.51100000000E-03 0. -1.
        -12    1    3    3    0    0 -0.10195113776E+02 -0.13571217106E+02 -0.12043980779E+02  0.20812874661E+02  0.00000000000E+00 0.  1.
</event>
<event>
 7    1  0.2243370E-008  0.4614232E+02  0.7816164E-02  0.1320468E+00
        -11   -1    0    0    0    0  0.00000000000E+00  0.00000000000E+00  0.45593999997E+02  0.45594000000E+02  0.51100000000E-03 0.  1.
         11   -1    0    0    0    0 -0.00000000000E+00 -0.00000000000E+00 -0.45593999997E+02  0.45594000000E+02  0.51100000000E-03 0. -1.
    9900012    2    1    2    0    0  0.16750468269E+02  0.18985795533E+01  0.41772367226E+02  0.46142318129E+02  0.10000003352E+02 0.  0.
         12    1    1    2    0    0 -0.16750468269E+02 -0.18985795533E+01 -0.41772367226E+02  0.45045681871E+02  0.00000000000E+00 0. -1.
         11    1    3    3    0    0  0.10588056715E+02  0.14060250046E+01  0.17826151531E+02  0.20781133992E+02  0.51100000000E-03 0. -1.
        -11    1    3    3    0    0  0.28231964766E+00  0.20726804434E+01  0.86114319438E+01  0.88618547149E+01  0.51100000000E-03 0.  1.
        -12    1    3    3    0    0  0.58800919065E+01 -0.15801258947E+01  0.15334783751E+02  0.16499329422E+02  0.00000000000E+00 0.  1.
</event>
<event>
 7    1  0.2243370E-008  0.4614232E+02  0.7816164E-02  0.1320468E+00
        -11   -1    0    0    0    0  0.00000000000E+00  0.00000000000E+00  0.45593999997E+02  0.45594000000E+02  0.51100000000E-03 0.  1.
         11   -1    0    0    0    0 -0.00000000000E+00 -0.00000000000E+00 -0.45593999997E+02  0.45594000000E+02  0.51100000000E-03 0. -1.
    9900012    2    1    2    0    0  0.15611781443E+02 -0.31757740489E+02  0.27871701181E+02  0.46142317327E+02  0.99999960380E+01 0.  0.
         12    1    1    2    0    0 -0.15611781443E+02  0.31757740489E+02 -0.27871701181E+02  0.45045682673E+02  0.00000000000E+00 0. -1.
         11    1    3    3    0    0  0.72874544655E+00 -0.21739359784E+01 -0.38491918306E+00  0.23249151819E+01  0.51100000000E-03 0. -1.
        -11    1    3    3    0    0  0.68556663808E+01 -0.18310536270E+02  0.18182258369E+02  0.26699633325E+02  0.51100000000E-03 0.  1.
        -12    1    3    3    0    0  0.80273696152E+01 -0.11273268240E+02  0.10074361995E+02  0.17117768820E+02  0.00000000000E+00 0.  1.
</event>
<event>
 7    1  0.2243370E-008  0.4614232E+02  0.7816164E-02  0.1320468E+00
        -11   -1    0    0    0    0  0.00000000000E+00  0.00000000000E+00  0.45593999997E+02  0.45594000000E+02  0.51100000000E-03 0.  1.
         11   -1    0    0    0    0 -0.00000000000E+00 -0.00000000000E+00 -0.45593999997E+02  0.45594000000E+02  0.51100000000E-03 0. -1.
    9900012    2    1    2    0    0 -0.28881883050E+02 -0.30439254569E+02  0.16382984319E+02  0.46142316939E+02  0.99999924997E+01 0.  0.
         12    1    1    2    0    0  0.28881883050E+02  0.30439254569E+02 -0.16382984319E+02  0.45045683061E+02  0.00000000000E+00 0. -1.
         11    1    3    3    0    0 -0.65743975008E+01 -0.83844447911E+01  0.43754731066E+01  0.11518089343E+02  0.51100000000E-03 0. -1.
        -11    1    3    3    0    0 -0.32316099917E+01 -0.30906071357E+01  0.52377679264E+01  0.68868983380E+01  0.51100000000E-03 0.  1.
         12    1    3    3    0    0 -0.19075875558E+02 -0.18964202643E+02  0.67697432859E+01  0.27737329257E+02  0.00000000000E+00 0. -1.
</event>
<event>
 7    1  0.2243370E-008  0.4614232E+02  0.7816164E-02  0.1320468E+00
        -11   -1    0    0    0    0  0.00000000000E+00  0.00000000000E+00  0.45593999997E+02  0.45594000000E+02  0.51100000000E-03 0.  1.
         11   -1    0    0    0    0 -0.00000000000E+00 -0.00000000000E+00 -0.45593999997E+02  0.45594000000E+02  0.51100000000E-03 0. -1.
    9900012    2    1    2    0    0  0.90808863414E+01  0.43624723262E+02  0.65980683864E+01  0.46142317822E+02  0.10000000556E+02 0.  0.
         12    1    1    2    0    0 -0.90808863414E+01 -0.43624723262E+02 -0.65980683864E+01  0.45045682178E+02  0.00000000000E+00 0. -1.
         11    1    3    3    0    0 -0.27545835982E+00  0.91630404006E-01  0.27371672328E-01  0.29158687985E+00  0.51100000000E-03 0. -1.
        -11    1    3    3    0    0  0.15783403211E+01  0.17651239013E+02 -0.11063425615E+01  0.17756164873E+02  0.51100000000E-03 0.  1.
        -12    1    3    3    0    0  0.77780043802E+01  0.25881853845E+02  0.76770392756E+01  0.28094566069E+02  0.00000000000E+00 0.  1.
</event>
<event>
 7    1  0.2243370E-008  0.4614232E+02  0.7816164E-02  0.1320468E+00
        -11   -1    0    0    0    0  0.00000000000E+00  0.00000000000E+00  0.45593999997E+02  0.45594000000E+02  0.51100000000E-03 0.  1.
         11   -1    0    0    0    0 -0.00000000000E+00 -0.00000000000E+00 -0.45593999997E+02  0.45594000000E+02  0.51100000000E-03 0. -1.
    9900012    2    1    2    0    0  0.14693505715E+02  0.34877586285E+02  0.24428844214E+02  0.46142316912E+02  0.99999922560E+01 0.  0.
         12    1    1    2    0    0 -0.14693505715E+02 -0.34877586285E+02 -0.24428844214E+02  0.45045683088E+02  0.00000000000E+00 0. -1.
         11    1    3    3    0    0  0.11616091010E+02  0.27268738017E+02  0.14497202376E+02  0.32995249967E+02  0.51100000000E-03 0. -1.
        -11    1    3    3    0    0  0.29398633968E+01  0.57750577138E+01  0.61124456700E+01  0.89082030017E+01  0.51100000000E-03 0.  1.
         12    1    3    3    0    0  0.13755130756E+00  0.18337905539E+01  0.38191961680E+01  0.42388639430E+01  0.00000000000E+00 0. -1.
</event>
<event>
 7    1  0.2243370E-008  0.4614231E+02  0.7816164E-02  0.1320468E+00
        -11   -1    0    0    0    0  0.00000000000E+00  0.00000000000E+00  0.45593999997E+02  0.45594000000E+02  0.51100000000E-03 0.  1.
         11   -1    0    0    0    0 -0.00000000000E+00 -0.00000000000E+00 -0.45593999997E+02  0.45594000000E+02  0.51100000000E-03 0. -1.
    9900012    2    1    2    0    0  0.35660512884E+02  0.20255032144E+01  0.27447022499E+02  0.46142313342E+02  0.99999597031E+01 0.  0.
         12    1    1    2    0    0 -0.35660512884E+02 -0.20255032144E+01 -0.27447022499E+02  0.45045686658E+02  0.00000000000E+00 0. -1.
         11    1    3    3    0    0  0.84018113753E+01  0.14875150938E+01  0.60723471147E+01  0.10472656553E+02  0.51100000000E-03 0. -1.
        -11    1    3    3    0    0  0.68173322494E+01 -0.34111674057E+01  0.43590262943E+01  0.87814117637E+01  0.51100000000E-03 0.  1.
        -12    1    3    3    0    0  0.20441369259E+02  0.39491555264E+01  0.17015649090E+02  0.26888245025E+02  0.00000000000E+00 0.  1.
</event>
<event>
 7    1  0.2243370E-008  0.4614232E+02  0.7816164E-02  0.1320468E+00
        -11   -1    0    0    0    0  0.00000000000E+00  0.00000000000E+00  0.45593999997E+02  0.45594000000E+02  0.51100000000E-03 0.  1.
         11   -1    0    0    0    0 -0.00000000000E+00 -0.00000000000E+00 -0.45593999997E+02  0.45594000000E+02  0.51100000000E-03 0. -1.
    9900012    2    1    2    0    0 -0.14728884339E+02  0.15968590844E+02  0.39461088621E+02  0.46142318269E+02  0.10000004635E+02 0.  0.
         12    1    1    2    0    0  0.14728884339E+02 -0.15968590844E+02 -0.39461088621E+02  0.45045681731E+02  0.00000000000E+00 0. -1.
         11    1    3    3    0    0 -0.99916865471E+01  0.69255743522E+01  0.24792262501E+02  0.27612563451E+02  0.51100000000E-03 0. -1.
        -11    1    3    3    0    0 -0.16441720880E+00 -0.45394551730E+00  0.20476212425E-01  0.48323812725E+00  0.51100000000E-03 0.  1.
        -12    1    3    3    0    0 -0.45727805829E+01  0.94969620089E+01  0.14648349908E+02  0.18046516691E+02  0.00000000000E+00 0.  1.
</event>
<event>
 7    1  0.2243370E-008  0.4614232E+02  0.7816164E-02  0.1320468E+00
        -11   -1    0    0    0    0  0.00000000000E+00  0.00000000000E+00  0.45593999997E+02  0.45594000000E+02  0.51100000000E-03 0.  1.
         11   -1    0    0    0    0 -0.00000000000E+00 -0.00000000000E+00 -0.45593999997E+02  0.45594000000E+02  0.51100000000E-03 0. -1.
    9900012    2    1    2    0    0 -0.23063776554E+02 -0.32277246535E+01  0.38558487916E+02  0.46142323340E+02  0.10000050872E+02 0.  0.
         12    1    1    2    0    0  0.23063776554E+02  0.32277246535E+01 -0.38558487916E+02  0.45045676660E+02  0.00000000000E+00 0. -1.
         11    1    3    3    0    0 -0.16217666776E+02 -0.53025828066E+01  0.28896579013E+02  0.33558044922E+02  0.51100000000E-03 0. -1.
        -11    1    3    3    0    0 -0.73119404764E+01  0.18643870868E+01  0.89249552112E+01  0.11687396567E+02  0.51100000000E-03 0.  1.
        -12    1    3    3    0    0  0.46583069850E+00  0.21047106627E+00  0.73695369183E+00  0.89688185024E+00  0.00000000000E+00 0.  1.
</event>
<event>
 7    1  0.2243370E-008  0.4614232E+02  0.7816164E-02  0.1320468E+00
        -11   -1    0    0    0    0  0.00000000000E+00  0.00000000000E+00  0.45593999997E+02  0.45594000000E+02  0.51100000000E-03 0.  1.
         11   -1    0    0    0    0 -0.00000000000E+00 -0.00000000000E+00 -0.45593999997E+02  0.45594000000E+02  0.51100000000E-03 0. -1.
    9900012    2    1    2    0    0 -0.14500923811E+02  0.39670083148E+02 -0.15656351404E+02  0.46142316216E+02  0.99999859083E+01 0.  0.
         12    1    1    2    0    0  0.14500923811E+02 -0.39670083148E+02  0.15656351404E+02  0.45045683784E+02  0.00000000000E+00 0. -1.
         11    1    3    3    0    0 -0.79875579284E+01  0.20388726745E+02 -0.68682485237E+01  0.22949381211E+02  0.51100000000E-03 0. -1.
        -11    1    3    3    0    0 -0.66155679292E+01  0.18889126720E+02 -0.96659664255E+01  0.22226015263E+02  0.51100000000E-03 0.  1.
         12    1    3    3    0    0  0.10220204688E+00  0.39222968287E+00  0.87786354528E+00  0.96691974157E+00  0.00000000000E+00 0. -1.
</event>
<event>
 7    1  0.2243370E-008  0.4614232E+02  0.7816164E-02  0.1320468E+00
        -11   -1    0    0    0    0  0.00000000000E+00  0.00000000000E+00  0.45593999997E+02  0.45594000000E+02  0.51100000000E-03 0. -1.
         11   -1    0    0    0    0 -0.00000000000E+00 -0.00000000000E+00 -0.45593999997E+02  0.45594000000E+02  0.51100000000E-03 0.  1.
    9900012    2    1    2    0    0 -0.52918112880E+01  0.31550002686E+02 -0.31712891267E+02  0.46142318646E+02  0.10000008065E+02 0.  0.
         12    1    1    2    0    0  0.52918112880E+01 -0.31550002686E+02  0.31712891267E+02  0.45045681354E+02  0.00000000000E+00 0. -1.
         11    1    3    3    0    0 -0.55481843959E+00  0.21596462587E+01 -0.47552105664E+01  0.52520399138E+01  0.51100000000E-03 0. -1.
        -11    1    3    3    0    0 -0.11064624957E+01  0.10601422195E+02 -0.14725315203E+02  0.18178265041E+02  0.51100000000E-03 0.  1.
        -12    1    3    3    0    0 -0.36305303527E+01  0.18788934232E+02 -0.12232365497E+02  0.22712013691E+02  0.00000000000E+00 0.  1.
</event>
<event>
 7    1  0.2243370E-008  0.4614232E+02  0.7816164E-02  0.1320468E+00
        -11   -1    0    0    0    0  0.00000000000E+00  0.00000000000E+00  0.45593999997E+02  0.45594000000E+02  0.51100000000E-03 0.  1.
         11   -1    0    0    0    0 -0.00000000000E+00 -0.00000000000E+00 -0.45593999997E+02  0.45594000000E+02  0.51100000000E-03 0. -1.
    9900012    2    1    2    0    0 -0.37922428700E+02 -0.20326811792E+02  0.13335051804E+02  0.46142317823E+02  0.10000000567E+02 0.  0.
         12    1    1    2    0    0  0.37922428700E+02  0.20326811792E+02 -0.13335051804E+02  0.45045682177E+02  0.00000000000E+00 0. -1.
         11    1    3    3    0    0 -0.60104056182E+01 -0.21220514059E+01  0.15414052468E+00  0.63758793454E+01  0.51100000000E-03 0. -1.
        -11    1    3    3    0    0 -0.10541345047E+02 -0.30577016546E+01  0.64127359527E+01  0.12711910850E+02  0.51100000000E-03 0.  1.
         12    1    3    3    0    0 -0.21370678035E+02 -0.15147058732E+02  0.67681753269E+01  0.27054527628E+02  0.00000000000E+00 0. -1.
</event>
<event>
 7    1  0.2243370E-008  0.4614230E+02  0.7816164E-02  0.1320468E+00
        -11   -1    0    0    0    0  0.00000000000E+00  0.00000000000E+00  0.45593999997E+02  0.45594000000E+02  0.51100000000E-03 0.  1.
         11   -1    0    0    0    0 -0.00000000000E+00 -0.00000000000E+00 -0.45593999997E+02  0.45594000000E+02  0.51100000000E-03 0. -1.
    9900012    2    1    2    0    0  0.95625317631E+01  0.24802330168E+02  0.36366430963E+02  0.46142302132E+02  0.99998574785E+01 0.  0.
         12    1    1    2    0    0 -0.95625317631E+01 -0.24802330168E+02 -0.36366430963E+02  0.45045697868E+02  0.00000000000E+00 0. -1.
         11    1    3    3    0    0  0.51633872575E+00 -0.76035978175E+00  0.23969509273E+01  0.25671242055E+01  0.51100000000E-03 0. -1.
        -11    1    3    3    0    0  0.62088753692E+01  0.13608924280E+02  0.19931203146E+02  0.24919988212E+02  0.51100000000E-03 0.  1.
         12    1    3    3    0    0  0.28373176681E+01  0.11953765670E+02  0.14038276889E+02  0.18655189714E+02  0.00000000000E+00 0. -1.
</event>
<event>
 7    1  0.2243370E-008  0.4614232E+02  0.7816164E-02  0.1320468E+00
        -11   -1    0    0    0    0  0.00000000000E+00  0.00000000000E+00  0.45593999997E+02  0.45594000000E+02  0.51100000000E-03 0.  1.
         11   -1    0    0    0    0 -0.00000000000E+00 -0.00000000000E+00 -0.45593999997E+02  0.45594000000E+02  0.51100000000E-03 0. -1.
    9900012    2    1    2    0    0 -0.87967531634E+01  0.32339770012E+02  0.30097671753E+02  0.46142318347E+02  0.10000005339E+02 0.  0.
         12    1    1    2    0    0  0.87967531634E+01 -0.32339770012E+02 -0.30097671753E+02  0.45045681653E+02  0.00000000000E+00 0. -1.
         11    1    3    3    0    0  0.50592423279E+00  0.10388651643E+02  0.61370617197E+01  0.12076571082E+02  0.51100000000E-03 0. -1.
        -11    1    3    3    0    0 -0.34676206827E+00  0.52335236001E+01  0.49210368119E+01  0.71921218545E+01  0.51100000000E-03 0.  1.
         12    1    3    3    0    0 -0.89559153279E+01  0.16717594769E+02  0.19039573222E+02  0.26873625410E+02  0.00000000000E+00 0. -1.
</event>
<event>
 7    1  0.2243370E-008  0.4614232E+02  0.7816164E-02  0.1320468E+00
        -11   -1    0    0    0    0  0.00000000000E+00  0.00000000000E+00  0.45593999997E+02  0.45594000000E+02  0.51100000000E-03 0.  1.
         11   -1    0    0    0    0 -0.00000000000E+00 -0.00000000000E+00 -0.45593999997E+02  0.45594000000E+02  0.51100000000E-03 0. -1.
    9900012    2    1    2    0    0 -0.27075296859E+02  0.16659531149E+02  0.31913974087E+02  0.46142318518E+02  0.10000006905E+02 0.  0.
         12    1    1    2    0    0  0.27075296859E+02 -0.16659531149E+02 -0.31913974087E+02  0.45045681482E+02  0.00000000000E+00 0. -1.
         11    1    3    3    0    0  0.25966246218E-01  0.11235871388E+01  0.20204793385E+01  0.23120249399E+01  0.51100000000E-03 0. -1.
        -11    1    3    3    0    0 -0.12238177605E+02  0.42486583786E+01  0.87749902142E+01  0.15646870059E+02  0.51100000000E-03 0.  1.
        -12    1    3    3    0    0 -0.14863085500E+02  0.11287285632E+02  0.21118504534E+02  0.28183423520E+02  0.00000000000E+00 0.  1.
</event>
<event>
 7    1  0.2243370E-008  0.4614232E+02  0.7816164E-02  0.1320468E+00
        -11   -1    0    0    0    0  0.00000000000E+00  0.00000000000E+00  0.45593999997E+02  0.45594000000E+02  0.51100000000E-03 0.  1.
         11   -1    0    0    0    0 -0.00000000000E+00 -0.00000000000E+00 -0.45593999997E+02  0.45594000000E+02  0.51100000000E-03 0. -1.
    9900012    2    1    2    0    0  0.25784994193E+02 -0.36099255307E+02  0.78160974486E+01  0.46142317204E+02  0.99999949174E+01 0.  0.
         12    1    1    2    0    0 -0.25784994193E+02  0.36099255307E+02 -0.78160974486E+01  0.45045682796E+02  0.00000000000E+00 0. -1.
         11    1    3    3    0    0  0.91110520539E+01 -0.95232987155E+01  0.38481621928E+01  0.13729997832E+02  0.51100000000E-03 0. -1.
        -11    1    3    3    0    0  0.79521164558E+01 -0.98764048798E+01  0.47898303340E+01  0.13554409038E+02  0.51100000000E-03 0.  1.
        -12    1    3    3    0    0  0.87218256829E+01 -0.16699551712E+02 -0.82189507822E+00  0.18857910333E+02  0.00000000000E+00 0.  1.
</event>
<event>
 7    1  0.2243370E-008  0.4614232E+02  0.7816164E-02  0.1320468E+00
        -11   -1    0    0    0    0  0.00000000000E+00  0.00000000000E+00  0.45593999997E+02  0.45594000000E+02  0.51100000000E-03 0.  1.
         11   -1    0    0    0    0 -0.00000000000E+00 -0.00000000000E+00 -0.45593999997E+02  0.45594000000E+02  0.51100000000E-03 0. -1.
    9900012    2    1    2    0    0  0.20684822008E+02  0.22227036059E+02  0.33274772309E+02  0.46142318012E+02  0.10000002292E+02 0.  0.
         12    1    1    2    0    0 -0.20684822008E+02 -0.22227036059E+02 -0.33274772309E+02  0.45045681988E+02  0.00000000000E+00 0. -1.
         11    1    3    3    0    0  0.39521046260E+01  0.77804870758E+01  0.10709475037E+02  0.13814773467E+02  0.51100000000E-03 0. -1.
        -11    1    3    3    0    0  0.10751246025E+02  0.13151645191E+02  0.17429692109E+02  0.24338225687E+02  0.51100000000E-03 0.  1.
         12    1    3    3    0    0  0.59814713573E+01  0.12949037922E+01  0.51356051634E+01  0.79893188585E+01  0.00000000000E+00 0. -1.
</event>
<event>
 7    1  0.2243370E-008  0.4614232E+02  0.7816164E-02  0.1320468E+00
        -11   -1    0    0    0    0  0.00000000000E+00  0.00000000000E+00  0.45593999997E+02  0.45594000000E+02  0.51100000000E-03 0. -1.
         11   -1    0    0    0    0 -0.00000000000E+00 -0.00000000000E+00 -0.45593999997E+02  0.45594000000E+02  0.51100000000E-03 0.  1.
    9900012    2    1    2    0    0  0.14742645458E+02 -0.27280873304E+02 -0.32672952249E+02  0.46142318165E+02  0.10000003681E+02 0.  0.
         12    1    1    2    0    0 -0.14742645458E+02  0.27280873304E+02  0.32672952249E+02  0.45045681835E+02  0.00000000000E+00 0. -1.
         11    1    3    3    0    0  0.39837038882E+01 -0.70664675874E+01 -0.46478098168E+01  0.93491709358E+01  0.51100000000E-03 0. -1.
        -11    1    3    3    0    0  0.32574727063E+01 -0.77070921439E+01 -0.15296377712E+02  0.17435296645E+02  0.51100000000E-03 0.  1.
        -12    1    3    3    0    0  0.75014688632E+01 -0.12507313573E+02 -0.12728764721E+02  0.19357850584E+02  0.00000000000E+00 0.  1.
</event>
<event>
 7    1  0.2243370E-008  0.4614232E+02  0.7816164E-02  0.1320468E+00
        -11   -1    0    0    0    0  0.00000000000E+00  0.00000000000E+00  0.45593999997E+02  0.45594000000E+02  0.51100000000E-03 0.  1.
         11   -1    0    0    0    0 -0.00000000000E+00 -0.00000000000E+00 -0.45593999997E+02  0.45594000000E+02  0.51100000000E-03 0. -1.
    9900012    2    1    2    0    0 -0.29312770076E+02 -0.30810258969E+01  0.34064378355E+02  0.46142322263E+02  0.10000041051E+02 0.  0.
         12    1    1    2    0    0  0.29312770076E+02  0.30810258969E+01 -0.34064378355E+02  0.45045677737E+02  0.00000000000E+00 0. -1.
         11    1    3    3    0    0 -0.69424302284E+01  0.66950102338E+00  0.84494682387E+01  0.10956234886E+02  0.51100000000E-03 0.  1.
        -11    1    3    3    0    0 -0.70695219041E+01  0.24208715095E+01  0.98762140422E+01  0.12384601846E+02  0.51100000000E-03 0. -1.
        -12    1    3    3    0    0 -0.15300817944E+02 -0.61713984297E+01  0.15738696074E+02  0.22801485531E+02  0.00000000000E+00 0.  1.
</event>
<event>
 7    1  0.2243370E-008  0.4614232E+02  0.7816164E-02  0.1320468E+00
        -11   -1    0    0    0    0  0.00000000000E+00  0.00000000000E+00  0.45593999997E+02  0.45594000000E+02  0.51100000000E-03 0.  1.
         11   -1    0    0    0    0 -0.00000000000E+00 -0.00000000000E+00 -0.45593999997E+02  0.45594000000E+02  0.51100000000E-03 0. -1.
    9900012    2    1    2    0    0 -0.26900074880E+02 -0.17033855304E+02  0.31864513471E+02  0.46142317922E+02  0.10000001471E+02 0.  0.
         12    1    1    2    0    0  0.26900074880E+02  0.17033855304E+02 -0.31864513471E+02  0.45045682078E+02  0.00000000000E+00 0. -1.
         11    1    3    3    0    0 -0.65282602511E+01 -0.83186286439E+01  0.74267391589E+01  0.12921850456E+02  0.51100000000E-03 0. -1.
        -11    1    3    3    0    0 -0.36635329766E+01 -0.33219602724E+01  0.52658032630E+01  0.72239586231E+01  0.51100000000E-03 0.  1.
        -12    1    3    3    0    0 -0.16708281653E+02 -0.53932663878E+01  0.19171971049E+02  0.25996508843E+02  0.00000000000E+00 0.  1.
</event>
<event>
 7    1  0.2243370E-008  0.4614232E+02  0.7816164E-02  0.1320468E+00
        -11   -1    0    0    0    0  0.00000000000E+00  0.00000000000E+00  0.45593999997E+02  0.45594000000E+02  0.51100000000E-03 0.  1.
         11   -1    0    0    0    0 -0.00000000000E+00 -0.00000000000E+00 -0.45593999997E+02  0.45594000000E+02  0.51100000000E-03 0. -1.
    9900012    2    1    2    0    0  0.36047572520E+02  0.18429699795E+02  0.19749231373E+02  0.46142318088E+02  0.10000002982E+02 0.  0.
         12    1    1    2    0    0 -0.36047572520E+02 -0.18429699795E+02 -0.19749231373E+02  0.45045681912E+02  0.00000000000E+00 0. -1.
         11    1    3    3    0    0  0.31986293298E+01  0.45020548428E+01  0.34641259598E+01  0.65191944535E+01  0.51100000000E-03 0. -1.
        -11    1    3    3    0    0  0.49101744784E+01  0.10537650413E+00  0.15931326608E+01  0.51632344080E+01  0.51100000000E-03 0.  1.
        -12    1    3    3    0    0  0.27938768712E+02  0.13822268448E+02  0.14691972752E+02  0.34459889227E+02  0.00000000000E+00 0.  1.
</event>
<event>
 7    1  0.2243370E-008  0.4614232E+02  0.7816164E-02  0.1320468E+00
        -11   -1    0    0    0    0  0.00000000000E+00  0.00000000000E+00  0.45593999997E+02  0.45594000000E+02  0.51100000000E-03 0.  1.
         11   -1    0    0    0    0 -0.00000000000E+00 -0.00000000000E+00 -0.45593999997E+02  0.45594000000E+02  0.51100000000E-03 0. -1.
    9900012    2    1    2    0    0  0.24382678902E+02 -0.45637252618E+01  0.37600144567E+02  0.46142317741E+02  0.99999998175E+01 0.  0.
         12    1    1    2    0    0 -0.24382678902E+02  0.45637252618E+01 -0.37600144567E+02  0.45045682259E+02  0.00000000000E+00 0. -1.
         11    1    3    3    0    0  0.95935473691E+01 -0.59666864398E+01  0.12710466059E+02  0.17005688634E+02  0.51100000000E-03 0. -1.
        -11    1    3    3    0    0  0.62039611615E+01 -0.87253197808E+00  0.10140469872E+02  0.11919713740E+02  0.51100000000E-03 0.  1.
        -12    1    3    3    0    0  0.85851703714E+01  0.22754931561E+01  0.14749208636E+02  0.17216915368E+02  0.00000000000E+00 0.  1.
</event>
<event>
 7    1  0.2243370E-008  0.4614232E+02  0.7816164E-02  0.1320468E+00
        -11   -1    0    0    0    0  0.00000000000E+00  0.00000000000E+00  0.45593999997E+02  0.45594000000E+02  0.51100000000E-03 0.  1.
         11   -1    0    0    0    0 -0.00000000000E+00 -0.00000000000E+00 -0.45593999997E+02  0.45594000000E+02  0.51100000000E-03 0. -1.
    9900012    2    1    2    0    0  0.61961311789E+01 -0.29412400776E+01  0.44520451323E+02  0.46142317401E+02  0.99999967188E+01 0.  0.
         12    1    1    2    0    0 -0.61961311789E+01  0.29412400776E+01 -0.44520451323E+02  0.45045682599E+02  0.00000000000E+00 0. -1.
         11    1    3    3    0    0 -0.52044487346E+00 -0.12110440470E+01  0.56603782562E+01  0.58118304186E+01  0.51100000000E-03 0. -1.
        -11    1    3    3    0    0 -0.34540148553E+00 -0.10474550274E+01  0.32800909083E+00  0.11506756474E+01  0.51100000000E-03 0.  1.
        -12    1    3    3    0    0  0.70619775378E+01 -0.68274100324E+00  0.38532063976E+02  0.39179811335E+02  0.00000000000E+00 0.  1.
</event>
<event>
 7    1  0.2243370E-008  0.4614232E+02  0.7816164E-02  0.1320468E+00
        -11   -1    0    0    0    0  0.00000000000E+00  0.00000000000E+00  0.45593999997E+02  0.45594000000E+02  0.51100000000E-03 0. -1.
         11   -1    0    0    0    0 -0.00000000000E+00 -0.00000000000E+00 -0.45593999997E+02  0.45594000000E+02  0.51100000000E-03 0.  1.
    9900012    2    1    2    0    0  0.24035178358E+02  0.34485055083E+02 -0.16192736330E+02  0.46142317270E+02  0.99999955233E+01 0.  0.
         12    1    1    2    0    0 -0.24035178358E+02 -0.34485055083E+02  0.16192736330E+02  0.45045682730E+02  0.00000000000E+00 0. -1.
         11    1    3    3    0    0 -0.46064568815E+00  0.62164505003E+00 -0.15341582662E+01  0.17182196790E+01  0.51100000000E-03 0. -1.
        -11    1    3    3    0    0  0.34830549970E+01  0.69520274945E+01 -0.22308717196E+01  0.80894466613E+01  0.51100000000E-03 0.  1.
         12    1    3    3    0    0  0.21012769049E+02  0.26911382538E+02 -0.12427706344E+02  0.36334650930E+02  0.00000000000E+00 0. -1.
</event>
<event>
 7    1  0.2243370E-008  0.4614232E+02  0.7816164E-02  0.1320468E+00
        -11   -1    0    0    0    0  0.00000000000E+00  0.00000000000E+00  0.45593999997E+02  0.45594000000E+02  0.51100000000E-03 0.  1.
         11   -1    0    0    0    0 -0.00000000000E+00 -0.00000000000E+00 -0.45593999997E+02  0.45594000000E+02  0.51100000000E-03 0. -1.
    9900012    2    1    2    0    0 -0.32795556601E+02 -0.14515339684E+02  0.27255638320E+02  0.46142318307E+02  0.10000004977E+02 0.  0.
         12    1    1    2    0    0  0.32795556601E+02  0.14515339684E+02 -0.27255638320E+02  0.45045681693E+02  0.00000000000E+00 0. -1.
         11    1    3    3    0    0 -0.46818204024E+01 -0.20165666951E+01  0.93457925793E+00  0.51826076608E+01  0.51100000000E-03 0. -1.
        -11    1    3    3    0    0 -0.53725289169E+01 -0.52398436676E+01  0.66627641952E+01  0.10035559556E+02  0.51100000000E-03 0.  1.
         12    1    3    3    0    0 -0.22741207282E+02 -0.72589293218E+01  0.19658294867E+02  0.30924151090E+02  0.00000000000E+00 0. -1.
</event>
<event>
 7    1  0.2243370E-008  0.4614232E+02  0.7816164E-02  0.1320468E+00
        -11   -1    0    0    0    0  0.00000000000E+00  0.00000000000E+00  0.45593999997E+02  0.45594000000E+02  0.51100000000E-03 0.  1.
         11   -1    0    0    0    0 -0.00000000000E+00 -0.00000000000E+00 -0.45593999997E+02  0.45594000000E+02  0.51100000000E-03 0. -1.
    9900012    2    1    2    0    0  0.24571099586E+01 -0.40654912635E+02  0.19241990453E+02  0.46142317551E+02  0.99999980836E+01 0.  0.
         12    1    1    2    0    0 -0.24571099586E+01  0.40654912635E+02 -0.19241990453E+02  0.45045682449E+02  0.00000000000E+00 0. -1.
         11    1    3    3    0    0  0.49049142140E+01 -0.17327175111E+02  0.10182679979E+02  0.20687584503E+02  0.51100000000E-03 0. -1.
        -11    1    3    3    0    0  0.10855394585E+01 -0.57959881837E+01  0.19802182197E+01  0.62203809691E+01  0.51100000000E-03 0.  1.
         12    1    3    3    0    0 -0.35333437139E+01 -0.17531749340E+02  0.70790922551E+01  0.19234352079E+02  0.00000000000E+00 0. -1.
</event>
<event>
 7    1  0.2243370E-008  0.4614232E+02  0.7816164E-02  0.1320468E+00
        -11   -1    0    0    0    0  0.00000000000E+00  0.00000000000E+00  0.45593999997E+02  0.45594000000E+02  0.51100000000E-03 0. -1.
         11   -1    0    0    0    0 -0.00000000000E+00 -0.00000000000E+00 -0.45593999997E+02  0.45594000000E+02  0.51100000000E-03 0.  1.
    9900012    2    1    2    0    0 -0.33078319698E+02 -0.20259885467E+02 -0.22901423554E+02  0.46142318809E+02  0.10000009552E+02 0.  0.
         12    1    1    2    0    0  0.33078319698E+02  0.20259885467E+02  0.22901423554E+02  0.45045681191E+02  0.00000000000E+00 0. -1.
         11    1    3    3    0    0 -0.31613464195E+02 -0.19179273234E+02 -0.23890033934E+02  0.44022600580E+02  0.51100000000E-03 0.  1.
        -11    1    3    3    0    0 -0.99149030852E+00 -0.55594796615E+00  0.41688617275E+00  0.12107541101E+01  0.51100000000E-03 0. -1.
        -12    1    3    3    0    0 -0.47336519476E+00 -0.52466426706E+00  0.57172420689E+00  0.90896411892E+00  0.00000000000E+00 0.  1.
</event>
<event>
 7    1  0.2243370E-008  0.4614232E+02  0.7816164E-02  0.1320468E+00
        -11   -1    0    0    0    0  0.00000000000E+00  0.00000000000E+00  0.45593999997E+02  0.45594000000E+02  0.51100000000E-03 0. -1.
         11   -1    0    0    0    0 -0.00000000000E+00 -0.00000000000E+00 -0.45593999997E+02  0.45594000000E+02  0.51100000000E-03 0.  1.
    9900012    2    1    2    0    0 -0.36656711545E+02 -0.29901466248E+01 -0.26008807164E+02  0.46142317319E+02  0.99999959675E+01 0.  0.
         12    1    1    2    0    0  0.36656711545E+02  0.29901466248E+01  0.26008807164E+02  0.45045682681E+02  0.00000000000E+00 0. -1.
         11    1    3    3    0    0 -0.58613256652E+01  0.25526488181E+01 -0.60506887243E+01  0.88023854064E+01  0.51100000000E-03 0. -1.
        -11    1    3    3    0    0 -0.11468068836E+02 -0.25764585437E+00 -0.82929657837E+01  0.14154725923E+02  0.51100000000E-03 0.  1.
         12    1    3    3    0    0 -0.19327317043E+02 -0.52851495886E+01 -0.11665152656E+02  0.23185205989E+02  0.00000000000E+00 0. -1.
</event>
<event>
 7    1  0.2243370E-008  0.4614232E+02  0.7816164E-02  0.1320468E+00
        -11   -1    0    0    0    0  0.00000000000E+00  0.00000000000E+00  0.45593999997E+02  0.45594000000E+02  0.51100000000E-03 0.  1.
         11   -1    0    0    0    0 -0.00000000000E+00 -0.00000000000E+00 -0.45593999997E+02  0.45594000000E+02  0.51100000000E-03 0. -1.
    9900012    2    1    2    0    0 -0.16438121451E+01 -0.44653120309E+02 -0.57017818975E+01  0.46142316649E+02  0.99999898606E+01 0.  0.
         12    1    1    2    0    0  0.16438121451E+01  0.44653120309E+02  0.57017818975E+01  0.45045683351E+02  0.00000000000E+00 0. -1.
         11    1    3    3    0    0 -0.42114603626E+00 -0.11656226706E+01 -0.10250883162E+01  0.16083676543E+01  0.51100000000E-03 0. -1.
        -11    1    3    3    0    0 -0.28250496787E+01 -0.49014366995E+01 -0.26554669170E+00  0.56635238777E+01  0.51100000000E-03 0.  1.
        -12    1    3    3    0    0  0.16023835698E+01 -0.38586060939E+02 -0.44111468896E+01  0.38870425117E+02  0.00000000000E+00 0.  1.
</event>
<event>
 7    1  0.2243370E-008  0.4614231E+02  0.7816164E-02  0.1320468E+00
        -11   -1    0    0    0    0  0.00000000000E+00  0.00000000000E+00  0.45593999997E+02  0.45594000000E+02  0.51100000000E-03 0.  1.
         11   -1    0    0    0    0 -0.00000000000E+00 -0.00000000000E+00 -0.45593999997E+02  0.45594000000E+02  0.51100000000E-03 0. -1.
    9900012    2    1    2    0    0 -0.19816737730E+02 -0.16734541695E+01  0.40417945892E+02  0.46142313267E+02  0.99999590183E+01 0.  0.
         12    1    1    2    0    0  0.19816737730E+02  0.16734541695E+01 -0.40417945892E+02  0.45045686733E+02  0.00000000000E+00 0. -1.
         11    1    3    3    0    0 -0.21474114865E+01 -0.16163832596E+01  0.51276081110E+01  0.57893381431E+01  0.51100000000E-03 0. -1.
        -11    1    3    3    0    0 -0.15850008588E+02 -0.16088111645E+01  0.23960417535E+02  0.28773471364E+02  0.51100000000E-03 0.  1.
        -12    1    3    3    0    0 -0.18193176555E+01  0.15517402546E+01  0.11329920246E+02  0.11579503760E+02  0.00000000000E+00 0.  1.
</event>
<event>
 7    1  0.2243370E-008  0.4614232E+02  0.7816164E-02  0.1320468E+00
        -11   -1    0    0    0    0  0.00000000000E+00  0.00000000000E+00  0.45593999997E+02  0.45594000000E+02  0.51100000000E-03 0.  1.
         11   -1    0    0    0    0 -0.00000000000E+00 -0.00000000000E+00 -0.45593999997E+02  0.45594000000E+02  0.51100000000E-03 0. -1.
    9900012    2    1    2    0    0 -0.40192572406E+02 -0.20214417122E+02  0.22467695112E+01  0.46142317528E+02  0.99999978719E+01 0.  0.
         12    1    1    2    0    0  0.40192572406E+02  0.20214417122E+02 -0.22467695112E+01  0.45045682472E+02  0.00000000000E+00 0. -1.
         11    1    3    3    0    0 -0.11678153392E+02 -0.96676514519E+01  0.16819160458E+01  0.15253576403E+02  0.51100000000E-03 0. -1.
        -11    1    3    3    0    0 -0.92192763046E+01 -0.59823387127E+01 -0.76337815563E+00  0.11016631905E+02  0.51100000000E-03 0.  1.
         12    1    3    3    0    0 -0.19295142709E+02 -0.45644269573E+01  0.13282316210E+01  0.19872109220E+02  0.00000000000E+00 0. -1.
</event>
<event>
 7    1  0.2243370E-008  0.4614232E+02  0.7816164E-02  0.1320468E+00
        -11   -1    0    0    0    0  0.00000000000E+00  0.00000000000E+00  0.45593999997E+02  0.45594000000E+02  0.51100000000E-03 0.  1.
         11   -1    0    0    0    0 -0.00000000000E+00 -0.00000000000E+00 -0.45593999997E+02  0.45594000000E+02  0.51100000000E-03 0. -1.
    9900012    2    1    2    0    0 -0.17167284329E+02  0.34339314329E+02  0.23562878894E+02  0.46142318503E+02  0.10000006762E+02 0.  0.
         12    1    1    2    0    0  0.17167284329E+02 -0.34339314329E+02 -0.23562878894E+02  0.45045681497E+02  0.00000000000E+00 0. -1.
         11    1    3    3    0    0 -0.22974712378E+00  0.38719898705E+01  0.49889176770E+01  0.63193661982E+01  0.51100000000E-03 0. -1.
        -11    1    3    3    0    0 -0.11078563762E+02  0.21897805944E+02  0.10596316865E+02  0.26730701666E+02  0.51100000000E-03 0.  1.
        -12    1    3    3    0    0 -0.58589734437E+01  0.85695185137E+01  0.79776443516E+01  0.13092250638E+02  0.00000000000E+00 0.  1.
</event>
<event>
 7    1  0.2243370E-008  0.4614231E+02  0.7816164E-02  0.1320468E+00
        -11   -1    0    0    0    0  0.00000000000E+00  0.00000000000E+00  0.45593999997E+02  0.45594000000E+02  0.51100000000E-03 0.  1.
         11   -1    0    0    0    0 -0.00000000000E+00 -0.00000000000E+00 -0.45593999997E+02  0.45594000000E+02  0.51100000000E-03 0. -1.
    9900012    2    1    2    0    0 -0.36446157160E+02 -0.24757584353E+02  0.93730562091E+01  0.46142306117E+02  0.99998938187E+01 0.  0.
         12    1    1    2    0    0  0.36446157160E+02  0.24757584353E+02 -0.93730562091E+01  0.45045693883E+02  0.00000000000E+00 0. -1.
         11    1    3    3    0    0 -0.25381253876E+02 -0.18107141804E+02  0.31621082424E+01  0.31338084840E+02  0.51100000000E-03 0. -1.
        -11    1    3    3    0    0 -0.10301699964E+02 -0.55769217208E+01  0.42903270052E+01  0.12475335030E+02  0.51100000000E-03 0.  1.
         12    1    3    3    0    0 -0.76320331934E+00 -0.10735208285E+01  0.19206209614E+01  0.23288862474E+01  0.00000000000E+00 0. -1.
</event>
<event>
 7    1  0.2243370E-008  0.4614232E+02  0.7816164E-02  0.1320468E+00
        -11   -1    0    0    0    0  0.00000000000E+00  0.00000000000E+00  0.45593999997E+02  0.45594000000E+02  0.51100000000E-03 0.  1.
         11   -1    0    0    0    0 -0.00000000000E+00 -0.00000000000E+00 -0.45593999997E+02  0.45594000000E+02  0.51100000000E-03 0. -1.
    9900012    2    1    2    0    0 -0.92209789740E+01  0.24649514809E+02  0.36558017567E+02  0.46142315612E+02  0.99999804036E+01 0.  0.
         12    1    1    2    0    0  0.92209789740E+01 -0.24649514809E+02 -0.36558017567E+02  0.45045684388E+02  0.00000000000E+00 0. -1.
         11    1    3    3    0    0  0.53446655779E+00  0.19743559976E+01  0.48057882759E+00  0.21011169356E+01  0.51100000000E-03 0. -1.
        -11    1    3    3    0    0 -0.26730397858E+01  0.12470700305E+02  0.16479150065E+02  0.20838087602E+02  0.51100000000E-03 0.  1.
        -12    1    3    3    0    0 -0.70824057460E+01  0.10204458506E+02  0.19598288674E+02  0.23203111074E+02  0.00000000000E+00 0.  1.
</event>
<event>
 7    1  0.2243370E-008  0.4614232E+02  0.7816164E-02  0.1320468E+00
        -11   -1    0    0    0    0  0.00000000000E+00  0.00000000000E+00  0.45593999997E+02  0.45594000000E+02  0.51100000000E-03 0. -1.
         11   -1    0    0    0    0 -0.00000000000E+00 -0.00000000000E+00 -0.45593999997E+02  0.45594000000E+02  0.51100000000E-03 0.  1.
    9900012    2    1    2    0    0 -0.64886807540E+01 -0.26928933232E+02 -0.35522431359E+02  0.46142317048E+02  0.99999934991E+01 0.  0.
         12    1    1    2    0    0  0.64886807540E+01  0.26928933232E+02  0.35522431359E+02  0.45045682952E+02  0.00000000000E+00 0. -1.
         11    1    3    3    0    0 -0.63084387025E+01 -0.11032876133E+02 -0.14121799484E+02  0.18998578251E+02  0.51100000000E-03 0. -1.
        -11    1    3    3    0    0 -0.55830618719E+00 -0.77391554913E+01 -0.14530437211E+02  0.16472396283E+02  0.51100000000E-03 0.  1.
         12    1    3    3    0    0  0.37806413565E+00 -0.81569016076E+01 -0.68701946647E+01  0.10671342514E+02  0.00000000000E+00 0. -1.
</event>
<event>
 7    1  0.2243370E-008  0.4614232E+02  0.7816164E-02  0.1320468E+00
        -11   -1    0    0    0    0  0.00000000000E+00  0.00000000000E+00  0.45593999997E+02  0.45594000000E+02  0.51100000000E-03 0. -1.
         11   -1    0    0    0    0 -0.00000000000E+00 -0.00000000000E+00 -0.45593999997E+02  0.45594000000E+02  0.51100000000E-03 0.  1.
    9900012    2    1    2    0    0 -0.18376629655E+02 -0.35493914772E+02 -0.20774861703E+02  0.46142318941E+02  0.10000010761E+02 0.  0.
         12    1    1    2    0    0  0.18376629655E+02  0.35493914772E+02  0.20774861703E+02  0.45045681059E+02  0.00000000000E+00 0. -1.
         11    1    3    3    0    0 -0.13412783342E+01 -0.91608162585E+00 -0.25633864227E+00  0.16443670137E+01  0.51100000000E-03 0. -1.
        -11    1    3    3    0    0 -0.34898176248E+01 -0.13630395802E+02 -0.10755215512E+02  0.17709917497E+02  0.51100000000E-03 0.  1.
        -12    1    3    3    0    0 -0.13545533696E+02 -0.20947437344E+02 -0.97633075480E+01  0.26788034430E+02  0.00000000000E+00 0.  1.
</event>
<event>
 7    1  0.2243370E-008  0.4614232E+02  0.7816164E-02  0.1320468E+00
        -11   -1    0    0    0    0  0.00000000000E+00  0.00000000000E+00  0.45593999997E+02  0.45594000000E+02  0.51100000000E-03 0.  1.
         11   -1    0    0    0    0 -0.00000000000E+00 -0.00000000000E+00 -0.45593999997E+02  0.45594000000E+02  0.51100000000E-03 0. -1.
    9900012    2    1    2    0    0  0.38130651734E+02 -0.23922567965E+02  0.16963340124E+01  0.46142318644E+02  0.10000008054E+02 0.  0.
         12    1    1    2    0    0 -0.38130651734E+02  0.23922567965E+02 -0.16963340124E+01  0.45045681356E+02  0.00000000000E+00 0. -1.
         11    1    3    3    0    0  0.59092825118E+01 -0.35083088020E+01 -0.30691160652E+01  0.75264416651E+01  0.51100000000E-03 0. -1.
        -11    1    3    3    0    0  0.10309643436E+02 -0.85896649847E+01  0.18978822775E+01  0.13552603061E+02  0.51100000000E-03 0.  1.
         12    1    3    3    0    0  0.21911725787E+02 -0.11824594178E+02  0.28675678001E+01  0.25063273919E+02  0.00000000000E+00 0. -1.
</event>
<event>
 7    1  0.2243370E-008  0.4614232E+02  0.7816164E-02  0.1320468E+00
        -11   -1    0    0    0    0  0.00000000000E+00  0.00000000000E+00  0.45593999997E+02  0.45594000000E+02  0.51100000000E-03 0.  1.
         11   -1    0    0    0    0 -0.00000000000E+00 -0.00000000000E+00 -0.45593999997E+02  0.45594000000E+02  0.51100000000E-03 0. -1.
    9900012    2    1    2    0    0 -0.38382480048E+02 -0.12536086456E+02  0.19968605784E+02  0.46142318130E+02  0.10000003359E+02 0.  0.
         12    1    1    2    0    0  0.38382480048E+02  0.12536086456E+02 -0.19968605784E+02  0.45045681870E+02  0.00000000000E+00 0. -1.
         11    1    3    3    0    0 -0.50580095385E+01 -0.20174206469E+01  0.13774772294E+01  0.56170179221E+01  0.51100000000E-03 0. -1.
        -11    1    3    3    0    0 -0.11460142216E+02 -0.64373524079E+01  0.33567430076E+01  0.13566211318E+02  0.51100000000E-03 0.  1.
         12    1    3    3    0    0 -0.21864328293E+02 -0.40813134012E+01  0.15234385546E+02  0.26959088890E+02  0.00000000000E+00 0. -1.
</event>
<event>
 7    1  0.2243370E-008  0.4614232E+02  0.7816164E-02  0.1320468E+00
        -11   -1    0    0    0    0  0.00000000000E+00  0.00000000000E+00  0.45593999997E+02  0.45594000000E+02  0.51100000000E-03 0.  1.
         11   -1    0    0    0    0 -0.00000000000E+00 -0.00000000000E+00 -0.45593999997E+02  0.45594000000E+02  0.51100000000E-03 0. -1.
    9900012    2    1    2    0    0  0.34114109261E+02 -0.25689841547E+01 -0.29304289387E+02  0.46142317557E+02  0.99999981373E+01 0.  0.
         12    1    1    2    0    0 -0.34114109261E+02  0.25689841547E+01  0.29304289387E+02  0.45045682443E+02  0.00000000000E+00 0. -1.
         11    1    3    3    0    0  0.21278911849E+02  0.47862910058E+00 -0.15585537355E+02  0.26380488058E+02  0.51100000000E-03 0.  1.
        -11    1    3    3    0    0  0.11653822606E+02 -0.42636194087E+01 -0.11141990659E+02  0.16677349547E+02  0.51100000000E-03 0. -1.
         12    1    3    3    0    0  0.11813748061E+01  0.12160061534E+01 -0.25767613733E+01  0.30844799517E+01  0.00000000000E+00 0. -1.
</event>
<event>
 7    1  0.2243370E-008  0.4614232E+02  0.7816164E-02  0.1320468E+00
        -11   -1    0    0    0    0  0.00000000000E+00  0.00000000000E+00  0.45593999997E+02  0.45594000000E+02  0.51100000000E-03 0. -1.
         11   -1    0    0    0    0 -0.00000000000E+00 -0.00000000000E+00 -0.45593999997E+02  0.45594000000E+02  0.51100000000E-03 0.  1.
    9900012    2    1    2    0    0 -0.19921415152E+02  0.34047031757E+02 -0.21749720277E+02  0.46142317795E+02  0.10000000313E+02 0.  0.
         12    1    1    2    0    0  0.19921415152E+02 -0.34047031757E+02  0.21749720277E+02  0.45045682205E+02  0.00000000000E+00 0. -1.
         11    1    3    3    0    0 -0.18487570783E+01  0.43285766600E+01 -0.55261554148E+01  0.72589856430E+01  0.51100000000E-03 0.  1.
        -11    1    3    3    0    0  0.39822246937E+00  0.79119670725E-01 -0.10461059406E+00  0.41926685407E+00  0.51100000000E-03 0. -1.
        -12    1    3    3    0    0 -0.18470880543E+02  0.29639335427E+02 -0.16118954268E+02  0.38464065298E+02  0.00000000000E+00 0.  1.
</event>
<event>
 7    1  0.2243370E-008  0.4614232E+02  0.7816164E-02  0.1320468E+00
        -11   -1    0    0    0    0  0.00000000000E+00  0.00000000000E+00  0.45593999997E+02  0.45594000000E+02  0.51100000000E-03 0.  1.
         11   -1    0    0    0    0 -0.00000000000E+00 -0.00000000000E+00 -0.45593999997E+02  0.45594000000E+02  0.51100000000E-03 0. -1.
    9900012    2    1    2    0    0  0.41686252099E+02  0.13605241223E+02  0.10308606448E+02  0.46142316858E+02  0.99999917663E+01 0.  0.
         12    1    1    2    0    0 -0.41686252099E+02 -0.13605241223E+02 -0.10308606448E+02  0.45045683142E+02  0.00000000000E+00 0. -1.
         11    1    3    3    0    0  0.35469875205E+02  0.88260096911E+01  0.58773099672E+01  0.37020984142E+02  0.51100000000E-03 0. -1.
        -11    1    3    3    0    0  0.50640603381E+01  0.40011883509E+01  0.29710500624E+01  0.71050231570E+01  0.51100000000E-03 0.  1.
         12    1    3    3    0    0  0.11523165560E+01  0.77804318103E+00  0.14602464180E+01  0.20163095591E+01  0.00000000000E+00 0. -1.
</event>
<event>
 7    1  0.2243370E-008  0.4614232E+02  0.7816164E-02  0.1320468E+00
        -11   -1    0    0    0    0  0.00000000000E+00  0.00000000000E+00  0.45593999997E+02  0.45594000000E+02  0.51100000000E-03 0. -1.
         11   -1    0    0    0    0 -0.00000000000E+00 -0.00000000000E+00 -0.45593999997E+02  0.45594000000E+02  0.51100000000E-03 0.  1.
    9900012    2    1    2    0    0 -0.32177568381E+02 -0.15762036747E+01 -0.31483854276E+02  0.46142318686E+02  0.10000008437E+02 0.  0.
         12    1    1    2    0    0  0.32177568381E+02  0.15762036747E+01  0.31483854276E+02  0.45045681314E+02  0.00000000000E+00 0. -1.
         11    1    3    3    0    0 -0.63042621435E+00  0.18011903024E+01 -0.19987260935E+01  0.27634453089E+01  0.51100000000E-03 0. -1.
        -11    1    3    3    0    0 -0.11034230827E+02 -0.21223929002E+01 -0.95340179452E+01  0.14736224076E+02  0.51100000000E-03 0.  1.
        -12    1    3    3    0    0 -0.20512911340E+02 -0.12550010769E+01 -0.19951110237E+02  0.28642649302E+02  0.00000000000E+00 0.  1.
</event>
<event>
 7    1  0.2243370E-008  0.4614232E+02  0.7816164E-02  0.1320468E+00
        -11   -1    0    0    0    0  0.00000000000E+00  0.00000000000E+00  0.45593999997E+02  0.45594000000E+02  0.51100000000E-03 0.  1.
         11   -1    0    0    0    0 -0.00000000000E+00 -0.00000000000E+00 -0.45593999997E+02  0.45594000000E+02  0.51100000000E-03 0. -1.
    9900012    2    1    2    0    0  0.31824630683E+02  0.27187675173E+02  0.16647422526E+02  0.46142317896E+02  0.10000001230E+02 0.  0.
         12    1    1    2    0    0 -0.31824630683E+02 -0.27187675173E+02 -0.16647422526E+02  0.45045682104E+02  0.00000000000E+00 0. -1.
         11    1    3    3    0    0  0.91471580255E+01  0.59273503573E+01  0.78626387755E+01  0.13439682696E+02  0.51100000000E-03 0. -1.
        -11    1    3    3    0    0  0.19550384269E+02  0.15527195726E+02  0.67533302417E+01  0.25863464613E+02  0.51100000000E-03 0.  1.
        -12    1    3    3    0    0  0.31270883885E+01  0.57331290903E+01  0.20314535089E+01  0.68391705867E+01  0.00000000000E+00 0.  1.
</event>
<event>
 7    1  0.2243370E-008  0.4614232E+02  0.7816164E-02  0.1320468E+00
        -11   -1    0    0    0    0  0.00000000000E+00  0.00000000000E+00  0.45593999997E+02  0.45594000000E+02  0.51100000000E-03 0.  1.
         11   -1    0    0    0    0 -0.00000000000E+00 -0.00000000000E+00 -0.45593999997E+02  0.45594000000E+02  0.51100000000E-03 0. -1.
    9900012    2    1    2    0    0 -0.31404669779E+02  0.22259313847E+02  0.23396220373E+02  0.46142318025E+02  0.10000002409E+02 0.  0.
         12    1    1    2    0    0  0.31404669779E+02 -0.22259313847E+02 -0.23396220373E+02  0.45045681975E+02  0.00000000000E+00 0. -1.
         11    1    3    3    0    0 -0.92501883264E+01  0.56978376397E+01  0.34424021105E+01  0.11396555199E+02  0.51100000000E-03 0. -1.
        -11    1    3    3    0    0 -0.34950133642E+01  0.34169585259E+01  0.68884012193E+01  0.84463480631E+01  0.51100000000E-03 0.  1.
        -12    1    3    3    0    0 -0.18659468088E+02  0.13144517681E+02  0.13065417043E+02  0.26299414764E+02  0.00000000000E+00 0.  1.
</event>
<event>
 7    1  0.2243370E-008  0.4614232E+02  0.7816164E-02  0.1320468E+00
        -11   -1    0    0    0    0  0.00000000000E+00  0.00000000000E+00  0.45593999997E+02  0.45594000000E+02  0.51100000000E-03 0.  1.
         11   -1    0    0    0    0 -0.00000000000E+00 -0.00000000000E+00 -0.45593999997E+02  0.45594000000E+02  0.51100000000E-03 0. -1.
    9900012    2    1    2    0    0 -0.30433255785E+02 -0.27467956058E+00  0.33209254719E+02  0.46142322010E+02  0.10000038747E+02 0.  0.
         12    1    1    2    0    0  0.30433255785E+02  0.27467956058E+00 -0.33209254719E+02  0.45045677990E+02  0.00000000000E+00 0. -1.
         11    1    3    3    0    0 -0.55688353212E+01 -0.52544462441E+00  0.51598669309E+01  0.76100095857E+01  0.51100000000E-03 0. -1.
        -11    1    3    3    0    0 -0.17970311375E+02  0.14759710903E+01  0.25168525600E+02  0.30960705139E+02  0.51100000000E-03 0.  1.
         12    1    3    3    0    0 -0.68941090886E+01 -0.12252060265E+01  0.28808621885E+01  0.75716072852E+01  0.00000000000E+00 0. -1.
</event>
<event>
 7    1  0.2243370E-008  0.4614232E+02  0.7816164E-02  0.1320468E+00
        -11   -1    0    0    0    0  0.00000000000E+00  0.00000000000E+00  0.45593999997E+02  0.45594000000E+02  0.51100000000E-03 0.  1.
         11   -1    0    0    0    0 -0.00000000000E+00 -0.00000000000E+00 -0.45593999997E+02  0.45594000000E+02  0.51100000000E-03 0. -1.
    9900012    2    1    2    0    0  0.64453060733E+01 -0.18194936327E+02  0.40700316215E+02  0.46142318539E+02  0.10000007091E+02 0.  0.
         12    1    1    2    0    0 -0.64453060733E+01  0.18194936327E+02 -0.40700316215E+02  0.45045681461E+02  0.00000000000E+00 0. -1.
         11    1    3    3    0    0  0.15204172492E+01 -0.37487954971E+01  0.45574754461E+01  0.60939083512E+01  0.51100000000E-03 0.  1.
        -11    1    3    3    0    0  0.97032596507E+00 -0.11950943074E+01  0.21902551255E+00  0.15549132832E+01  0.51100000000E-03 0. -1.
        -12    1    3    3    0    0  0.39545628591E+01 -0.13251046522E+02  0.35923815256E+02  0.38493496904E+02  0.00000000000E+00 0.  1.
</event>
<event>
 7    1  0.2243370E-008  0.4614232E+02  0.7816164E-02  0.1320468E+00
        -11   -1    0    0    0    0  0.00000000000E+00  0.00000000000E+00  0.45593999997E+02  0.45594000000E+02  0.51100000000E-03 0.  1.
         11   -1    0    0    0    0 -0.00000000000E+00 -0.00000000000E+00 -0.45593999997E+02  0.45594000000E+02  0.51100000000E-03 0. -1.
    9900012    2    1    2    0    0 -0.22999126064E+02 -0.45741893883E+01  0.38460764495E+02  0.46142318588E+02  0.10000007544E+02 0.  0.
         12    1    1    2    0    0  0.22999126064E+02  0.45741893883E+01 -0.38460764495E+02  0.45045681412E+02  0.00000000000E+00 0. -1.
         11    1    3    3    0    0 -0.55945514794E+01 -0.57134981201E+00  0.16975638407E+02  0.17882889768E+02  0.51100000000E-03 0. -1.
        -11    1    3    3    0    0 -0.10656286753E+02 -0.39292756971E+01  0.15656086502E+02  0.19341889765E+02  0.51100000000E-03 0.  1.
        -12    1    3    3    0    0 -0.67482878320E+01 -0.73563879239E-01  0.58290395860E+01  0.89175390553E+01  0.00000000000E+00 0.  1.
</event>
<event>
 7    1  0.2243370E-008  0.4614231E+02  0.7816164E-02  0.1320468E+00
        -11   -1    0    0    0    0  0.00000000000E+00  0.00000000000E+00  0.45593999997E+02  0.45594000000E+02  0.51100000000E-03 0.  1.
         11   -1    0    0    0    0 -0.00000000000E+00 -0.00000000000E+00 -0.45593999997E+02  0.45594000000E+02  0.51100000000E-03 0. -1.
    9900012    2    1    2    0    0 -0.11061854015E+02  0.29711741616E+02  0.31999400335E+02  0.46142314014E+02  0.99999658337E+01 0.  0.
         12    1    1    2    0    0  0.11061854015E+02 -0.29711741616E+02 -0.31999400335E+02  0.45045685986E+02  0.00000000000E+00 0. -1.
         11    1    3    3    0    0  0.26549122085E+00  0.49777109391E+00  0.90222077358E+00  0.10640790552E+01  0.51100000000E-03 0. -1.
        -11    1    3    3    0    0  0.50111699322E+00  0.68631916786E+01  0.10035858690E+02  0.12168524075E+02  0.51100000000E-03 0.  1.
        -12    1    3    3    0    0 -0.11828462229E+02  0.22350778843E+02  0.21061320872E+02  0.32909710884E+02  0.00000000000E+00 0.  1.
</event>
<event>
 7    1  0.2243370E-008  0.4614232E+02  0.7816164E-02  0.1320468E+00
        -11   -1    0    0    0    0  0.00000000000E+00  0.00000000000E+00  0.45593999997E+02  0.45594000000E+02  0.51100000000E-03 0. -1.
         11   -1    0    0    0    0 -0.00000000000E+00 -0.00000000000E+00 -0.45593999997E+02  0.45594000000E+02  0.51100000000E-03 0.  1.
    9900012    2    1    2    0    0  0.26535636740E+02  0.21189822620E+02 -0.29596702749E+02  0.46142318592E+02  0.10000007580E+02 0.  0.
         12    1    1    2    0    0 -0.26535636740E+02 -0.21189822620E+02  0.29596702749E+02  0.45045681408E+02  0.00000000000E+00 0. -1.
         11    1    3    3    0    0  0.60429779675E+01  0.17586722600E+01 -0.31073311263E+01  0.70189755537E+01  0.51100000000E-03 0. -1.
        -11    1    3    3    0    0  0.29365098258E+01  0.44785674983E+01 -0.27235047269E+01  0.60081723554E+01  0.51100000000E-03 0.  1.
        -12    1    3    3    0    0  0.17556148947E+02  0.14952582862E+02 -0.23765866895E+02  0.33115170683E+02  0.00000000000E+00 0.  1.
</event>
<event>
 7    1  0.2243370E-008  0.4614232E+02  0.7816164E-02  0.1320468E+00
        -11   -1    0    0    0    0  0.00000000000E+00  0.00000000000E+00  0.45593999997E+02  0.45594000000E+02  0.51100000000E-03 0.  1.
         11   -1    0    0    0    0 -0.00000000000E+00 -0.00000000000E+00 -0.45593999997E+02  0.45594000000E+02  0.51100000000E-03 0. -1.
    9900012    2    1    2    0    0  0.34888205148E+02 -0.17462962634E+02  0.22516030145E+02  0.46142317234E+02  0.99999951905E+01 0.  0.
         12    1    1    2    0    0 -0.34888205148E+02  0.17462962634E+02 -0.22516030145E+02  0.45045682766E+02  0.00000000000E+00 0. -1.
         11    1    3    3    0    0  0.62984104749E+01 -0.56736401526E+01  0.50349199628E+01  0.98595429095E+01  0.51100000000E-03 0. -1.
        -11    1    3    3    0    0  0.15431502658E+02 -0.94181455322E+01  0.73845060646E+01  0.19528534754E+02  0.51100000000E-03 0.  1.
         12    1    3    3    0    0  0.13158292015E+02 -0.23711769491E+01  0.10096604118E+02  0.16754239570E+02  0.00000000000E+00 0. -1.
</event>
<event>
 7    1  0.2243370E-008  0.4614232E+02  0.7816164E-02  0.1320468E+00
        -11   -1    0    0    0    0  0.00000000000E+00  0.00000000000E+00  0.45593999997E+02  0.45594000000E+02  0.51100000000E-03 0.  1.
         11   -1    0    0    0    0 -0.00000000000E+00 -0.00000000000E+00 -0.45593999997E+02  0.45594000000E+02  0.51100000000E-03 0. -1.
    9900012    2    1    2    0    0 -0.19351188348E+02 -0.80249954092E+01  0.39877870697E+02  0.46142316376E+02  0.99999873738E+01 0.  0.
         12    1    1    2    0    0  0.19351188348E+02  0.80249954092E+01 -0.39877870697E+02  0.45045683624E+02  0.00000000000E+00 0. -1.
         11    1    3    3    0    0 -0.29093571746E+01  0.97390377831E+00  0.24382093337E+01  0.39188917764E+01  0.51100000000E-03 0. -1.
        -11    1    3    3    0    0 -0.88742616876E+01 -0.77739928826E+01  0.21085283475E+02  0.24161470678E+02  0.51100000000E-03 0.  1.
        -12    1    3    3    0    0 -0.75675694858E+01 -0.12249063049E+01  0.16354377888E+02  0.18061953922E+02  0.00000000000E+00 0.  1.
</event>
<event>
 7    1  0.2243370E-008  0.4614232E+02  0.7816164E-02  0.1320468E+00
        -11   -1    0    0    0    0  0.00000000000E+00  0.00000000000E+00  0.45593999997E+02  0.45594000000E+02  0.51100000000E-03 0.  1.
         11   -1    0    0    0    0 -0.00000000000E+00 -0.00000000000E+00 -0.45593999997E+02  0.45594000000E+02  0.51100000000E-03 0. -1.
    9900012    2    1    2    0    0  0.12544989171E+02 -0.12547127673E+02  0.41404182268E+02  0.46142317904E+02  0.10000001307E+02 0.  0.
         12    1    1    2    0    0 -0.12544989171E+02  0.12547127673E+02 -0.41404182268E+02  0.45045682096E+02  0.00000000000E+00 0. -1.
         11    1    3    3    0    0 -0.13212875958E+01 -0.32504503920E+00  0.41144472671E+01  0.43336049385E+01  0.51100000000E-03 0. -1.
        -11    1    3    3    0    0  0.51054545522E+01 -0.38527155203E+01  0.90743359750E+01  0.11101921307E+02  0.51100000000E-03 0.  1.
        -12    1    3    3    0    0  0.87608222151E+01 -0.83693671131E+01  0.28215399026E+02  0.30706791659E+02  0.00000000000E+00 0.  1.
</event>
<event>
 7    1  0.2243370E-008  0.4614231E+02  0.7816164E-02  0.1320468E+00
        -11   -1    0    0    0    0  0.00000000000E+00  0.00000000000E+00  0.45593999997E+02  0.45594000000E+02  0.51100000000E-03 0.  1.
         11   -1    0    0    0    0 -0.00000000000E+00 -0.00000000000E+00 -0.45593999997E+02  0.45594000000E+02  0.51100000000E-03 0. -1.
    9900012    2    1    2    0    0  0.29072313985E+01  0.38963081603E+02  0.22417409838E+02  0.46142312235E+02  0.99999496054E+01 0.  0.
         12    1    1    2    0    0 -0.29072313985E+01 -0.38963081603E+02 -0.22417409838E+02  0.45045687765E+02  0.00000000000E+00 0. -1.
         11    1    3    3    0    0  0.41103017899E+01  0.17668206223E+02  0.10763348453E+02  0.21092884159E+02  0.51100000000E-03 0. -1.
        -11    1    3    3    0    0  0.18610645691E+01  0.30497078058E+01  0.10434182794E+01  0.37219619823E+01  0.51100000000E-03 0.  1.
         12    1    3    3    0    0 -0.30641349606E+01  0.18245167574E+02  0.10610643106E+02  0.21327466094E+02  0.00000000000E+00 0. -1.
</event>
<event>
 7    1  0.2243370E-008  0.4614232E+02  0.7816164E-02  0.1320468E+00
        -11   -1    0    0    0    0  0.00000000000E+00  0.00000000000E+00  0.45593999997E+02  0.45594000000E+02  0.51100000000E-03 0.  1.
         11   -1    0    0    0    0 -0.00000000000E+00 -0.00000000000E+00 -0.45593999997E+02  0.45594000000E+02  0.51100000000E-03 0. -1.
    9900012    2    1    2    0    0 -0.74014084329E+01  0.34262471552E+02  0.28291617611E+02  0.46142318401E+02  0.10000005838E+02 0.  0.
         12    1    1    2    0    0  0.74014084329E+01 -0.34262471552E+02 -0.28291617611E+02  0.45045681599E+02  0.00000000000E+00 0. -1.
         11    1    3    3    0    0  0.18903793067E+00  0.72237424264E+00  0.37418864121E+01  0.38156616815E+01  0.51100000000E-03 0. -1.
        -11    1    3    3    0    0  0.38038695404E-01  0.51417239294E+00  0.74984098545E+00  0.90999008598E+00  0.51100000000E-03 0.  1.
        -12    1    3    3    0    0 -0.76284850590E+01  0.33025924917E+02  0.23799890213E+02  0.41416666634E+02  0.00000000000E+00 0.  1.
</event>
<event>
 7    1  0.2243370E-008  0.4614232E+02  0.7816164E-02  0.1320468E+00
        -11   -1    0    0    0    0  0.00000000000E+00  0.00000000000E+00  0.45593999997E+02  0.45594000000E+02  0.51100000000E-03 0.  1.
         11   -1    0    0    0    0 -0.00000000000E+00 -0.00000000000E+00 -0.45593999997E+02  0.45594000000E+02  0.51100000000E-03 0. -1.
    9900012    2    1    2    0    0  0.19703403114E+02 -0.27463772183E+01  0.40414685130E+02  0.46142318117E+02  0.10000003245E+02 0.  0.
         12    1    1    2    0    0 -0.19703403114E+02  0.27463772183E+01 -0.40414685130E+02  0.45045681883E+02  0.00000000000E+00 0. -1.
         11    1    3    3    0    0  0.32395971022E+01 -0.73486028995E+00  0.95919075526E+01  0.10150847245E+02  0.51100000000E-03 0. -1.
        -11    1    3    3    0    0  0.11731454088E+02  0.49467086011E-01  0.27378671664E+02  0.29786257307E+02  0.51100000000E-03 0.  1.
         12    1    3    3    0    0  0.47323519245E+01 -0.20609840143E+01  0.34441059137E+01  0.62052135651E+01  0.00000000000E+00 0. -1.
</event>
<event>
 7    1  0.2243370E-008  0.4614232E+02  0.7816164E-02  0.1320468E+00
        -11   -1    0    0    0    0  0.00000000000E+00  0.00000000000E+00  0.45593999997E+02  0.45594000000E+02  0.51100000000E-03 0.  1.
         11   -1    0    0    0    0 -0.00000000000E+00 -0.00000000000E+00 -0.45593999997E+02  0.45594000000E+02  0.51100000000E-03 0. -1.
    9900012    2    1    2    0    0  0.32811798190E+02 -0.30422504819E+02  0.51933253306E+01  0.46142317322E+02  0.99999959982E+01 0.  0.
         12    1    1    2    0    0 -0.32811798190E+02  0.30422504819E+02 -0.51933253306E+01  0.45045682678E+02  0.00000000000E+00 0. -1.
         11    1    3    3    0    0  0.23631412913E+01 -0.56754007404E+01  0.20764586033E+01  0.64889360391E+01  0.51100000000E-03 0. -1.
        -11    1    3    3    0    0  0.69069260537E+01 -0.36938936230E+01 -0.58633069007E+00  0.78545694693E+01  0.51100000000E-03 0.  1.
         12    1    3    3    0    0  0.23541730845E+02 -0.21053210456E+02  0.37031974173E+01  0.31798811814E+02  0.00000000000E+00 0. -1.
</event>
<event>
 7    1  0.2243370E-008  0.4614232E+02  0.7816164E-02  0.1320468E+00
        -11   -1    0    0    0    0  0.00000000000E+00  0.00000000000E+00  0.45593999997E+02  0.45594000000E+02  0.51100000000E-03 0.  1.
         11   -1    0    0    0    0 -0.00000000000E+00 -0.00000000000E+00 -0.45593999997E+02  0.45594000000E+02  0.51100000000E-03 0. -1.
    9900012    2    1    2    0    0  0.11404620155E+02  0.33213020977E+02  0.28212469095E+02  0.46142317236E+02  0.99999952085E+01 0.  0.
         12    1    1    2    0    0 -0.11404620155E+02 -0.33213020977E+02 -0.28212469095E+02  0.45045682764E+02  0.00000000000E+00 0. -1.
         11    1    3    3    0    0  0.44126657267E+01  0.97728720193E+01  0.10374279851E+02  0.14919997621E+02  0.51100000000E-03 0. -1.
        -11    1    3    3    0    0  0.33752361943E+01  0.14920620493E+02  0.15275929528E+02  0.21618768662E+02  0.51100000000E-03 0.  1.
         12    1    3    3    0    0  0.36167182344E+01  0.85195284643E+01  0.25622597152E+01  0.96035509520E+01  0.00000000000E+00 0. -1.
</event>
<event>
 7    1  0.2243370E-008  0.4614232E+02  0.7816164E-02  0.1320468E+00
        -11   -1    0    0    0    0  0.00000000000E+00  0.00000000000E+00  0.45593999997E+02  0.45594000000E+02  0.51100000000E-03 0.  1.
         11   -1    0    0    0    0 -0.00000000000E+00 -0.00000000000E+00 -0.45593999997E+02  0.45594000000E+02  0.51100000000E-03 0. -1.
    9900012    2    1    2    0    0  0.19332670632E+02  0.25236215258E+02  0.31913863530E+02  0.46142318745E+02  0.10000008975E+02 0.  0.
         12    1    1    2    0    0 -0.19332670632E+02 -0.25236215258E+02 -0.31913863530E+02  0.45045681255E+02  0.00000000000E+00 0. -1.
         11    1    3    3    0    0  0.27335010889E+01  0.81651448456E+01  0.52209670513E+01  0.10069762448E+02  0.51100000000E-03 0. -1.
        -11    1    3    3    0    0  0.42686295672E+01  0.20956279658E+01  0.39626347086E+01  0.61899377257E+01  0.51100000000E-03 0.  1.
        -12    1    3    3    0    0  0.12330539976E+02  0.14975442446E+02  0.22730261770E+02  0.29882618571E+02  0.00000000000E+00 0.  1.
</event>
<event>
 7    1  0.2243370E-008  0.4614232E+02  0.7816164E-02  0.1320468E+00
        -11   -1    0    0    0    0  0.00000000000E+00  0.00000000000E+00  0.45593999997E+02  0.45594000000E+02  0.51100000000E-03 0. -1.
         11   -1    0    0    0    0 -0.00000000000E+00 -0.00000000000E+00 -0.45593999997E+02  0.45594000000E+02  0.51100000000E-03 0.  1.
    9900012    2    1    2    0    0  0.86309061326E+01  0.40182306101E+02 -0.18439174346E+02  0.46142318577E+02  0.10000007442E+02 0.  0.
         12    1    1    2    0    0 -0.86309061326E+01 -0.40182306101E+02  0.18439174346E+02  0.45045681423E+02  0.00000000000E+00 0. -1.
         11    1    3    3    0    0  0.13055299403E+00  0.65222515652E+01 -0.61360419343E+01  0.89558818909E+01  0.51100000000E-03 0. -1.
        -11    1    3    3    0    0  0.80184036918E+01  0.21963040597E+02 -0.79229757540E+01  0.24686909387E+02  0.51100000000E-03 0.  1.
         12    1    3    3    0    0  0.48194944681E+00  0.11697013939E+02 -0.43801566578E+01  0.12499527299E+02  0.00000000000E+00 0. -1.
</event>
<event>
 7    1  0.2243370E-008  0.4614232E+02  0.7816164E-02  0.1320468E+00
        -11   -1    0    0    0    0  0.00000000000E+00  0.00000000000E+00  0.45593999997E+02  0.45594000000E+02  0.51100000000E-03 0.  1.
         11   -1    0    0    0    0 -0.00000000000E+00 -0.00000000000E+00 -0.45593999997E+02  0.45594000000E+02  0.51100000000E-03 0. -1.
    9900012    2    1    2    0    0 -0.33307094212E+02  0.29909519707E+02  0.50171229159E+01  0.46142318561E+02  0.10000007293E+02 0.  0.
         12    1    1    2    0    0  0.33307094212E+02 -0.29909519707E+02 -0.50171229159E+01  0.45045681439E+02  0.00000000000E+00 0. -1.
         11    1    3    3    0    0 -0.31088346305E+01  0.50412342395E+01 -0.20755394984E+01  0.62758871793E+01  0.51100000000E-03 0. -1.
        -11    1    3    3    0    0 -0.13790821774E+02  0.10330965802E+02  0.18757218222E+01  0.17333030670E+02  0.51100000000E-03 0.  1.
         12    1    3    3    0    0 -0.16407437808E+02  0.14537319665E+02  0.52169405921E+01  0.22533400711E+02  0.00000000000E+00 0. -1.
</event>
<event>
 7    1  0.2243370E-008  0.4614232E+02  0.7816164E-02  0.1320468E+00
        -11   -1    0    0    0    0  0.00000000000E+00  0.00000000000E+00  0.45593999997E+02  0.45594000000E+02  0.51100000000E-03 0.  1.
         11   -1    0    0    0    0 -0.00000000000E+00 -0.00000000000E+00 -0.45593999997E+02  0.45594000000E+02  0.51100000000E-03 0. -1.
    9900012    2    1    2    0    0  0.23989214056E+02  0.15900609328E+02  0.34652583873E+02  0.46142319441E+02  0.10000015315E+02 0.  0.
         12    1    1    2    0    0 -0.23989214056E+02 -0.15900609328E+02 -0.34652583873E+02  0.45045680559E+02  0.00000000000E+00 0. -1.
         11    1    3    3    0    0  0.45049662568E+01  0.40555342424E+01  0.93552934757E+01  0.11147358218E+02  0.51100000000E-03 0.  1.
        -11    1    3    3    0    0  0.17658775067E+02  0.99316834939E+01  0.25219170630E+02  0.32349300478E+02  0.51100000000E-03 0. -1.
         12    1    3    3    0    0  0.18254727318E+01  0.19133915916E+01  0.78119767102E-01  0.26456607446E+01  0.00000000000E+00 0. -1.
</event>
<event>
 7    1  0.2243370E-008  0.4614232E+02  0.7816164E-02  0.1320468E+00
        -11   -1    0    0    0    0  0.00000000000E+00  0.00000000000E+00  0.45593999997E+02  0.45594000000E+02  0.51100000000E-03 0.  1.
         11   -1    0    0    0    0 -0.00000000000E+00 -0.00000000000E+00 -0.45593999997E+02  0.45594000000E+02  0.51100000000E-03 0. -1.
    9900012    2    1    2    0    0  0.11295961124E+00  0.16508477489E+01  0.45015280668E+02  0.46142317057E+02  0.99999935809E+01 0.  0.
         12    1    1    2    0    0 -0.11295961124E+00 -0.16508477489E+01 -0.45015280668E+02  0.45045682943E+02  0.00000000000E+00 0. -1.
         11    1    3    3    0    0 -0.24131216158E+00  0.32317867692E+01  0.65830941835E+01  0.73375613504E+01  0.51100000000E-03 0. -1.
        -11    1    3    3    0    0  0.61634027319E-01  0.15641828002E+01  0.54123611430E+01  0.56341920441E+01  0.51100000000E-03 0.  1.
        -12    1    3    3    0    0  0.29263774550E+00 -0.31451218205E+01  0.33019825342E+02  0.33170563663E+02  0.00000000000E+00 0.  1.
</event>
<event>
 7    1  0.2243370E-008  0.4614232E+02  0.7816164E-02  0.1320468E+00
        -11   -1    0    0    0    0  0.00000000000E+00  0.00000000000E+00  0.45593999997E+02  0.45594000000E+02  0.51100000000E-03 0.  1.
         11   -1    0    0    0    0 -0.00000000000E+00 -0.00000000000E+00 -0.45593999997E+02  0.45594000000E+02  0.51100000000E-03 0. -1.
    9900012    2    1    2    0    0 -0.27349437642E+02 -0.13683952186E+02  0.33073724101E+02  0.46142317492E+02  0.99999975419E+01 0.  0.
         12    1    1    2    0    0  0.27349437642E+02  0.13683952186E+02 -0.33073724101E+02  0.45045682508E+02  0.00000000000E+00 0. -1.
         11    1    3    3    0    0 -0.15298971521E+01 -0.29510594849E+01  0.56555202193E+01  0.65600492827E+01  0.51100000000E-03 0.  1.
        -11    1    3    3    0    0 -0.13807593801E+02 -0.35648141832E+01  0.16698407550E+02  0.21958924421E+02  0.51100000000E-03 0. -1.
        -12    1    3    3    0    0 -0.12011946689E+02 -0.71680785177E+01  0.10719796331E+02  0.17623343788E+02  0.00000000000E+00 0.  1.
</event>
<event>
 7    1  0.2243370E-008  0.4614232E+02  0.7816164E-02  0.1320468E+00
        -11   -1    0    0    0    0  0.00000000000E+00  0.00000000000E+00  0.45593999997E+02  0.45594000000E+02  0.51100000000E-03 0.  1.
         11   -1    0    0    0    0 -0.00000000000E+00 -0.00000000000E+00 -0.45593999997E+02  0.45594000000E+02  0.51100000000E-03 0. -1.
    9900012    2    1    2    0    0  0.28205216579E+02 -0.10411299062E+02  0.33543763683E+02  0.46142317938E+02  0.10000001611E+02 0.  0.
         12    1    1    2    0    0 -0.28205216579E+02  0.10411299062E+02 -0.33543763683E+02  0.45045682062E+02  0.00000000000E+00 0. -1.
         11    1    3    3    0    0 -0.42181212233E+00 -0.30184403512E+00  0.10942788635E+01  0.12109838068E+01  0.51100000000E-03 0. -1.
        -11    1    3    3    0    0  0.25137697551E+02 -0.74443844739E+01  0.24673837342E+02  0.36001679791E+02  0.51100000000E-03 0.  1.
        -12    1    3    3    0    0  0.34893311501E+01 -0.26650705527E+01  0.77756474778E+01  0.89296543396E+01  0.00000000000E+00 0.  1.
</event>
<event>
 7    1  0.2243370E-008  0.4614232E+02  0.7816164E-02  0.1320468E+00
        -11   -1    0    0    0    0  0.00000000000E+00  0.00000000000E+00  0.45593999997E+02  0.45594000000E+02  0.51100000000E-03 0. -1.
         11   -1    0    0    0    0 -0.00000000000E+00 -0.00000000000E+00 -0.45593999997E+02  0.45594000000E+02  0.51100000000E-03 0.  1.
    9900012    2    1    2    0    0 -0.33283052671E+02  0.27475681542E+02 -0.12901113833E+02  0.46142318637E+02  0.10000007989E+02 0.  0.
         12    1    1    2    0    0  0.33283052671E+02 -0.27475681542E+02  0.12901113833E+02  0.45045681363E+02  0.00000000000E+00 0. -1.
         11    1    3    3    0    0 -0.31880890498E+02  0.24559127381E+02 -0.93112288015E+01  0.41306668938E+02  0.51100000000E-03 0. -1.
        -11    1    3    3    0    0 -0.57894571374E+00  0.13779684788E+01 -0.16317859933E+01  0.22128490814E+01  0.51100000000E-03 0.  1.
         12    1    3    3    0    0 -0.82321645955E+00  0.15385856816E+01 -0.19580990382E+01  0.26228006181E+01  0.00000000000E+00 0. -1.
</event>
<event>
 7    1  0.2243370E-008  0.4614232E+02  0.7816164E-02  0.1320468E+00
        -11   -1    0    0    0    0  0.00000000000E+00  0.00000000000E+00  0.45593999997E+02  0.45594000000E+02  0.51100000000E-03 0.  1.
         11   -1    0    0    0    0 -0.00000000000E+00 -0.00000000000E+00 -0.45593999997E+02  0.45594000000E+02  0.51100000000E-03 0. -1.
    9900012    2    1    2    0    0 -0.34011490975E+02 -0.41805686897E+01  0.29237900174E+02  0.46142317859E+02  0.10000000895E+02 0.  0.
         12    1    1    2    0    0  0.34011490975E+02  0.41805686897E+01 -0.29237900174E+02  0.45045682141E+02  0.00000000000E+00 0. -1.
         11    1    3    3    0    0 -0.11568701943E+02 -0.31852276774E+01  0.58481048326E+01  0.13348440748E+02  0.51100000000E-03 0. -1.
        -11    1    3    3    0    0 -0.80218337977E+01 -0.81886360312E+00  0.11800296070E+02  0.14292212659E+02  0.51100000000E-03 0.  1.
        -12    1    3    3    0    0 -0.14420955235E+02 -0.17647740920E+00  0.11589499271E+02  0.18501664452E+02  0.00000000000E+00 0.  1.
</event>
<event>
 7    1  0.2243370E-008  0.4614232E+02  0.7816164E-02  0.1320468E+00
        -11   -1    0    0    0    0  0.00000000000E+00  0.00000000000E+00  0.45593999997E+02  0.45594000000E+02  0.51100000000E-03 0.  1.
         11   -1    0    0    0    0 -0.00000000000E+00 -0.00000000000E+00 -0.45593999997E+02  0.45594000000E+02  0.51100000000E-03 0. -1.
    9900012    2    1    2    0    0 -0.31471091661E+02 -0.92647501351E+01  0.30868241868E+02  0.46142316950E+02  0.99999926015E+01 0.  0.
         12    1    1    2    0    0  0.31471091661E+02  0.92647501351E+01 -0.30868241868E+02  0.45045683050E+02  0.00000000000E+00 0. -1.
         11    1    3    3    0    0 -0.27041338717E+01 -0.15585196624E+01  0.78922074502E+01  0.84869465788E+01  0.51100000000E-03 0. -1.
        -11    1    3    3    0    0 -0.84234091171E+01 -0.17660029675E+01  0.74583175206E+01  0.11388550748E+02  0.51100000000E-03 0.  1.
         12    1    3    3    0    0 -0.20343548672E+02 -0.59402275053E+01  0.15517716898E+02  0.26266819623E+02  0.00000000000E+00 0. -1.
</event>
<event>
 7    1  0.2243370E-008  0.4614232E+02  0.7816164E-02  0.1320468E+00
        -11   -1    0    0    0    0  0.00000000000E+00  0.00000000000E+00  0.45593999997E+02  0.45594000000E+02  0.51100000000E-03 0.  1.
         11   -1    0    0    0    0 -0.00000000000E+00 -0.00000000000E+00 -0.45593999997E+02  0.45594000000E+02  0.51100000000E-03 0. -1.
    9900012    2    1    2    0    0  0.45128579050E+01 -0.44805463244E+02 -0.11036603833E+01  0.46142317751E+02  0.99999999098E+01 0.  0.
         12    1    1    2    0    0 -0.45128579050E+01  0.44805463244E+02  0.11036603833E+01  0.45045682249E+02  0.00000000000E+00 0. -1.
         11    1    3    3    0    0  0.44645802490E+01 -0.91486594976E+01 -0.18753590003E+01  0.10351203749E+02  0.51100000000E-03 0. -1.
        -11    1    3    3    0    0 -0.78851997549E+00 -0.84569863018E+01 -0.81193848262E+00  0.85323868537E+01  0.51100000000E-03 0.  1.
        -12    1    3    3    0    0  0.83679763150E+00 -0.27199817445E+02  0.15836370996E+01  0.27258727149E+02  0.00000000000E+00 0.  1.
</event>
<event>
 7    1  0.2243370E-008  0.4614232E+02  0.7816164E-02  0.1320468E+00
        -11   -1    0    0    0    0  0.00000000000E+00  0.00000000000E+00  0.45593999997E+02  0.45594000000E+02  0.51100000000E-03 0. -1.
         11   -1    0    0    0    0 -0.00000000000E+00 -0.00000000000E+00 -0.45593999997E+02  0.45594000000E+02  0.51100000000E-03 0.  1.
    9900012    2    1    2    0    0  0.41847431284E+02 -0.15156768383E+02 -0.69410632241E+01  0.46142317726E+02  0.99999996789E+01 0.  0.
         12    1    1    2    0    0 -0.41847431284E+02  0.15156768383E+02  0.69410632241E+01  0.45045682274E+02  0.00000000000E+00 0. -1.
         11    1    3    3    0    0  0.14136415163E+02 -0.35276312189E+01  0.19744970959E+01  0.14703096774E+02  0.51100000000E-03 0. -1.
        -11    1    3    3    0    0  0.14466556670E+02 -0.60363057366E+01 -0.33950469728E+01  0.16038846375E+02  0.51100000000E-03 0.  1.
         12    1    3    3    0    0  0.13244459450E+02 -0.55928314273E+01 -0.55205133472E+01  0.15400374577E+02  0.00000000000E+00 0. -1.
</event>
<event>
 7    1  0.2243370E-008  0.4614232E+02  0.7816164E-02  0.1320468E+00
        -11   -1    0    0    0    0  0.00000000000E+00  0.00000000000E+00  0.45593999997E+02  0.45594000000E+02  0.51100000000E-03 0.  1.
         11   -1    0    0    0    0 -0.00000000000E+00 -0.00000000000E+00 -0.45593999997E+02  0.45594000000E+02  0.51100000000E-03 0. -1.
    9900012    2    1    2    0    0 -0.21006810163E+01 -0.50956724139E+01  0.44707209294E+02  0.46142319841E+02  0.10000018970E+02 0.  0.
         12    1    1    2    0    0  0.21006810163E+01  0.50956724139E+01 -0.44707209294E+02  0.45045680159E+02  0.00000000000E+00 0. -1.
         11    1    3    3    0    0 -0.22352320616E+01 -0.20701566214E+01  0.86343642511E+01  0.91560939864E+01  0.51100000000E-03 0.  1.
        -11    1    3    3    0    0  0.30541135113E+01 -0.46257946947E+00  0.26120571202E+02  0.26302582179E+02  0.51100000000E-03 0. -1.
         12    1    3    3    0    0 -0.29195624661E+01 -0.25629363230E+01  0.99522738410E+01  0.10683643676E+02  0.00000000000E+00 0. -1.
</event>
<event>
 7    1  0.2243370E-008  0.4614232E+02  0.7816164E-02  0.1320468E+00
        -11   -1    0    0    0    0  0.00000000000E+00  0.00000000000E+00  0.45593999997E+02  0.45594000000E+02  0.51100000000E-03 0.  1.
         11   -1    0    0    0    0 -0.00000000000E+00 -0.00000000000E+00 -0.45593999997E+02  0.45594000000E+02  0.51100000000E-03 0. -1.
    9900012    2    1    2    0    0 -0.89987873087E+01  0.40809883621E+02  0.16813349844E+02  0.46142317552E+02  0.99999980933E+01 0.  0.
         12    1    1    2    0    0  0.89987873087E+01 -0.40809883621E+02 -0.16813349844E+02  0.45045682448E+02  0.00000000000E+00 0. -1.
         11    1    3    3    0    0 -0.57493918297E+01  0.26705784621E+02  0.10133617393E+02  0.29136654584E+02  0.51100000000E-03 0. -1.
        -11    1    3    3    0    0 -0.23752865304E+01  0.74716441798E+01  0.67043632755E+01  0.10315810198E+02  0.51100000000E-03 0.  1.
         12    1    3    3    0    0 -0.87410894855E+00  0.66324548207E+01 -0.24630824444E-01  0.66898527697E+01  0.00000000000E+00 0. -1.
</event>
<event>
 7    1  0.2243370E-008  0.4614232E+02  0.7816164E-02  0.1320468E+00
        -11   -1    0    0    0    0  0.00000000000E+00  0.00000000000E+00  0.45593999997E+02  0.45594000000E+02  0.51100000000E-03 0. -1.
         11   -1    0    0    0    0 -0.00000000000E+00 -0.00000000000E+00 -0.45593999997E+02  0.45594000000E+02  0.51100000000E-03 0.  1.
    9900012    2    1    2    0    0  0.73548741690E+01 -0.26363529309E+02 -0.35776860052E+02  0.46142316890E+02  0.99999920570E+01 0.  0.
         12    1    1    2    0    0 -0.73548741690E+01  0.26363529309E+02  0.35776860052E+02  0.45045683110E+02  0.00000000000E+00 0. -1.
         11    1    3    3    0    0  0.35850765741E+00 -0.39130018416E+01 -0.32950277010E+01  0.51280911618E+01  0.51100000000E-03 0. -1.
        -11    1    3    3    0    0  0.84863406550E+01 -0.21424758379E+02 -0.31241134106E+02  0.38820699502E+02  0.51100000000E-03 0.  1.
        -12    1    3    3    0    0 -0.14899741435E+01 -0.10257690882E+01 -0.12406982447E+01  0.21935262261E+01  0.00000000000E+00 0.  1.
</event>
<event>
 7    1  0.2243370E-008  0.4614232E+02  0.7816164E-02  0.1320468E+00
        -11   -1    0    0    0    0  0.00000000000E+00  0.00000000000E+00  0.45593999997E+02  0.45594000000E+02  0.51100000000E-03 0. -1.
         11   -1    0    0    0    0 -0.00000000000E+00 -0.00000000000E+00 -0.45593999997E+02  0.45594000000E+02  0.51100000000E-03 0.  1.
    9900012    2    1    2    0    0 -0.37183865735E+02  0.22625766915E+02  0.11599491951E+02  0.46142318598E+02  0.10000007627E+02 0.  0.
         12    1    1    2    0    0  0.37183865735E+02 -0.22625766915E+02 -0.11599491951E+02  0.45045681402E+02  0.00000000000E+00 0. -1.
         11    1    3    3    0    0 -0.23166621499E+02  0.14043911875E+02  0.31609157740E+01  0.27274808913E+02  0.51100000000E-03 0.  1.
        -11    1    3    3    0    0 -0.67828196113E+01  0.54018585362E+01  0.26339302362E+01  0.90622462048E+01  0.51100000000E-03 0. -1.
        -12    1    3    3    0    0 -0.72344246246E+01  0.31799965034E+01  0.58046459410E+01  0.98052634799E+01  0.00000000000E+00 0.  1.
</event>
<event>
 7    1  0.2243370E-008  0.4614232E+02  0.7816164E-02  0.1320468E+00
        -11   -1    0    0    0    0  0.00000000000E+00  0.00000000000E+00  0.45593999997E+02  0.45594000000E+02  0.51100000000E-03 0.  1.
         11   -1    0    0    0    0 -0.00000000000E+00 -0.00000000000E+00 -0.45593999997E+02  0.45594000000E+02  0.51100000000E-03 0. -1.
    9900012    2    1    2    0    0 -0.43572751860E+02  0.42456387860E+01  0.10606742523E+02  0.46142321625E+02  0.10000035230E+02 0.  0.
         12    1    1    2    0    0  0.43572751860E+02 -0.42456387860E+01 -0.10606742523E+02  0.45045678375E+02  0.00000000000E+00 0. -1.
         11    1    3    3    0    0 -0.49398191460E+01 -0.10492132675E+01  0.38240828916E+00  0.50644741125E+01  0.51100000000E-03 0. -1.
        -11    1    3    3    0    0 -0.20351923859E+02  0.56340121574E+01  0.83106182801E+01  0.22693815770E+02  0.51100000000E-03 0.  1.
        -12    1    3    3    0    0 -0.18281008855E+02 -0.33916010394E+00  0.19137159541E+01  0.18384031742E+02  0.00000000000E+00 0.  1.
</event>
<event>
 7    1  0.2243370E-008  0.4614232E+02  0.7816164E-02  0.1320468E+00
        -11   -1    0    0    0    0  0.00000000000E+00  0.00000000000E+00  0.45593999997E+02  0.45594000000E+02  0.51100000000E-03 0.  1.
         11   -1    0    0    0    0 -0.00000000000E+00 -0.00000000000E+00 -0.45593999997E+02  0.45594000000E+02  0.51100000000E-03 0. -1.
    9900012    2    1    2    0    0 -0.21329333852E+02  0.38851298038E+02  0.80467192061E+01  0.46142317280E+02  0.99999956090E+01 0.  0.
         12    1    1    2    0    0  0.21329333852E+02 -0.38851298038E+02 -0.80467192061E+01  0.45045682720E+02  0.00000000000E+00 0. -1.
         11    1    3    3    0    0 -0.16546653142E+02  0.28395528532E+02  0.26261801482E+01  0.32969601048E+02  0.51100000000E-03 0. -1.
        -11    1    3    3    0    0 -0.27354181997E+01  0.24275598061E+01  0.10474921061E+01  0.38043132511E+01  0.51100000000E-03 0.  1.
        -12    1    3    3    0    0 -0.20472625096E+01  0.80282096997E+01  0.43730469518E+01  0.93684029806E+01  0.00000000000E+00 0.  1.
</event>
<event>
 7    1  0.2243370E-008  0.4614232E+02  0.7816164E-02  0.1320468E+00
        -11   -1    0    0    0    0  0.00000000000E+00  0.00000000000E+00  0.45593999997E+02  0.45594000000E+02  0.51100000000E-03 0. -1.
         11   -1    0    0    0    0 -0.00000000000E+00 -0.00000000000E+00 -0.45593999997E+02  0.45594000000E+02  0.51100000000E-03 0.  1.
    9900012    2    1    2    0    0 -0.18801346493E+02 -0.21317378579E+02 -0.34945560613E+02  0.46142318010E+02  0.10000002267E+02 0.  0.
         12    1    1    2    0    0  0.18801346493E+02  0.21317378579E+02  0.34945560613E+02  0.45045681990E+02  0.00000000000E+00 0. -1.
         11    1    3    3    0    0 -0.10723960044E+02 -0.77372264800E+01 -0.22050784875E+02  0.25711964268E+02  0.51100000000E-03 0. -1.
        -11    1    3    3    0    0 -0.12523035072E+01 -0.25017002976E+01 -0.28361297753E+01  0.39837671639E+01  0.51100000000E-03 0.  1.
         12    1    3    3    0    0 -0.68250829421E+01 -0.11078451801E+02 -0.10058645962E+02  0.16446586578E+02  0.00000000000E+00 0. -1.
</event>
<event>
 7    1  0.2243370E-008  0.4614232E+02  0.7816164E-02  0.1320468E+00
        -11   -1    0    0    0    0  0.00000000000E+00  0.00000000000E+00  0.45593999997E+02  0.45594000000E+02  0.51100000000E-03 0.  1.
         11   -1    0    0    0    0 -0.00000000000E+00 -0.00000000000E+00 -0.45593999997E+02  0.45594000000E+02  0.51100000000E-03 0. -1.
    9900012    2    1    2    0    0 -0.30980509178E+02  0.12270021497E+01  0.32677454484E+02  0.46142317468E+02  0.99999973295E+01 0.  0.
         12    1    1    2    0    0  0.30980509178E+02 -0.12270021497E+01 -0.32677454484E+02  0.45045682532E+02  0.00000000000E+00 0. -1.
         11    1    3    3    0    0 -0.11417601379E+01  0.11460912076E+01  0.96736228660E-02  0.16177871024E+01  0.51100000000E-03 0. -1.
        -11    1    3    3    0    0 -0.72879337337E+01 -0.12315776493E+01  0.56230440456E+01  0.92870547653E+01  0.51100000000E-03 0.  1.
         12    1    3    3    0    0 -0.22550815306E+02  0.13124885913E+01  0.27044736815E+02  0.35237475601E+02  0.00000000000E+00 0. -1.
</event>
<event>
 7    1  0.2243370E-008  0.4614232E+02  0.7816164E-02  0.1320468E+00
        -11   -1    0    0    0    0  0.00000000000E+00  0.00000000000E+00  0.45593999997E+02  0.45594000000E+02  0.51100000000E-03 0.  1.
         11   -1    0    0    0    0 -0.00000000000E+00 -0.00000000000E+00 -0.45593999997E+02  0.45594000000E+02  0.51100000000E-03 0. -1.
    9900012    2    1    2    0    0 -0.11979560227E+02 -0.29386526069E+02  0.31969292894E+02  0.46142318011E+02  0.10000002282E+02 0.  0.
         12    1    1    2    0    0  0.11979560227E+02  0.29386526069E+02 -0.31969292894E+02  0.45045681989E+02  0.00000000000E+00 0. -1.
         11    1    3    3    0    0 -0.65556409824E+01 -0.74031686559E+01  0.11085168171E+02  0.14854773256E+02  0.51100000000E-03 0. -1.
        -11    1    3    3    0    0 -0.58135959627E+01 -0.22129557833E+02  0.20479834501E+02  0.30707309380E+02  0.51100000000E-03 0.  1.
        -12    1    3    3    0    0  0.38967671781E+00  0.14620041987E+00  0.40429022205E+00  0.58023537536E+00  0.00000000000E+00 0.  1.
</event>
<event>
 7    1  0.2243370E-008  0.4614232E+02  0.7816164E-02  0.1320468E+00
        -11   -1    0    0    0    0  0.00000000000E+00  0.00000000000E+00  0.45593999997E+02  0.45594000000E+02  0.51100000000E-03 0. -1.
         11   -1    0    0    0    0 -0.00000000000E+00 -0.00000000000E+00 -0.45593999997E+02  0.45594000000E+02  0.51100000000E-03 0.  1.
    9900012    2    1    2    0    0 -0.11562955244E+02 -0.37970384938E+02 -0.21299328381E+02  0.46142318122E+02  0.10000003294E+02 0.  0.
         12    1    1    2    0    0  0.11562955244E+02  0.37970384938E+02  0.21299328381E+02  0.45045681878E+02  0.00000000000E+00 0. -1.
         11    1    3    3    0    0 -0.46982610071E+01 -0.93737230774E+01 -0.57705928153E+01  0.11968294888E+02  0.51100000000E-03 0. -1.
        -11    1    3    3    0    0  0.73951833143E+00 -0.94750153610E+01 -0.25323593079E+01  0.98354281747E+01  0.51100000000E-03 0.  1.
        -12    1    3    3    0    0 -0.76042125686E+01 -0.19121646500E+02 -0.12996376257E+02  0.24338595060E+02  0.00000000000E+00 0.  1.
</event>
<event>
 7    1  0.2243370E-008  0.4614232E+02  0.7816164E-02  0.1320468E+00
        -11   -1    0    0    0    0  0.00000000000E+00  0.00000000000E+00  0.45593999997E+02  0.45594000000E+02  0.51100000000E-03 0. -1.
         11   -1    0    0    0    0 -0.00000000000E+00 -0.00000000000E+00 -0.45593999997E+02  0.45594000000E+02  0.51100000000E-03 0.  1.
    9900012    2    1    2    0    0  0.34515624586E+02  0.28901482413E+02  0.15777986314E+01  0.46142317912E+02  0.10000001380E+02 0.  0.
         12    1    1    2    0    0 -0.34515624586E+02 -0.28901482413E+02 -0.15777986314E+01  0.45045682088E+02  0.00000000000E+00 0. -1.
         11    1    3    3    0    0  0.37193402076E+01  0.30298484346E+01  0.20466129029E+01  0.52155630331E+01  0.51100000000E-03 0. -1.
        -11    1    3    3    0    0  0.25392946909E+02  0.17075320425E+02 -0.44691988260E+00  0.30603399451E+02  0.51100000000E-03 0.  1.
        -12    1    3    3    0    0  0.54033374699E+01  0.87963135528E+01 -0.21894388915E-01  0.10323355428E+02  0.00000000000E+00 0.  1.
</event>
<event>
 7    1  0.2243370E-008  0.4614232E+02  0.7816164E-02  0.1320468E+00
        -11   -1    0    0    0    0  0.00000000000E+00  0.00000000000E+00  0.45593999997E+02  0.45594000000E+02  0.51100000000E-03 0.  1.
         11   -1    0    0    0    0 -0.00000000000E+00 -0.00000000000E+00 -0.45593999997E+02  0.45594000000E+02  0.51100000000E-03 0. -1.
    9900012    2    1    2    0    0  0.25901220825E+02  0.16906262099E+02  0.32747802674E+02  0.46142317428E+02  0.99999969638E+01 0.  0.
         12    1    1    2    0    0 -0.25901220825E+02 -0.16906262099E+02 -0.32747802674E+02  0.45045682572E+02  0.00000000000E+00 0. -1.
         11    1    3    3    0    0  0.43213718673E+01 -0.10900601903E+00  0.25751106404E+01  0.50316331543E+01  0.51100000000E-03 0. -1.
        -11    1    3    3    0    0  0.82052986701E+01  0.87779366698E+01  0.15537479330E+02  0.19641597761E+02  0.51100000000E-03 0.  1.
        -12    1    3    3    0    0  0.13374550288E+02  0.82373314482E+01  0.14635212704E+02  0.21469086512E+02  0.00000000000E+00 0.  1.
</event>
<event>
 7    1  0.2243370E-008  0.4614232E+02  0.7816164E-02  0.1320468E+00
        -11   -1    0    0    0    0  0.00000000000E+00  0.00000000000E+00  0.45593999997E+02  0.45594000000E+02  0.51100000000E-03 0.  1.
         11   -1    0    0    0    0 -0.00000000000E+00 -0.00000000000E+00 -0.45593999997E+02  0.45594000000E+02  0.51100000000E-03 0. -1.
    9900012    2    1    2    0    0  0.26918331601E+02  0.35836487950E+02  0.45014573480E+01  0.46142316932E+02  0.99999924426E+01 0.  0.
         12    1    1    2    0    0 -0.26918331601E+02 -0.35836487950E+02 -0.45014573480E+01  0.45045683068E+02  0.00000000000E+00 0. -1.
         11    1    3    3    0    0  0.17673260748E+02  0.21132981667E+02 -0.90402255152E+00  0.27563822605E+02  0.51100000000E-03 0. -1.
        -11    1    3    3    0    0  0.69487166659E+01  0.86192464322E+01  0.47329102570E+01  0.12040619258E+02  0.51100000000E-03 0.  1.
        -12    1    3    3    0    0  0.22963541873E+01  0.60842598509E+01  0.67256964254E+00  0.65378750685E+01  0.00000000000E+00 0.  1.
</event>
<event>
 7    1  0.2243370E-008  0.4614232E+02  0.7816164E-02  0.1320468E+00
        -11   -1    0    0    0    0  0.00000000000E+00  0.00000000000E+00  0.45593999997E+02  0.45594000000E+02  0.51100000000E-03 0. -1.
         11   -1    0    0    0    0 -0.00000000000E+00 -0.00000000000E+00 -0.45593999997E+02  0.45594000000E+02  0.51100000000E-03 0.  1.
    9900012    2    1    2    0    0  0.30761330524E+02  0.32347714253E+02  0.60398217708E+01  0.46142317410E+02  0.99999967954E+01 0.  0.
         12    1    1    2    0    0 -0.30761330524E+02 -0.32347714253E+02 -0.60398217708E+01  0.45045682590E+02  0.00000000000E+00 0. -1.
         11    1    3    3    0    0  0.99188814664E+01  0.15009139543E+02  0.23815958215E+01  0.18147464790E+02  0.51100000000E-03 0. -1.
        -11    1    3    3    0    0  0.19032210716E+02  0.16751686386E+02  0.47579582135E+01  0.25796941837E+02  0.51100000000E-03 0.  1.
         12    1    3    3    0    0  0.18102383412E+01  0.58688832369E+00 -0.10997322641E+01  0.21979107828E+01  0.00000000000E+00 0. -1.
</event>
<event>
 7    1  0.2243370E-008  0.4614232E+02  0.7816164E-02  0.1320468E+00
        -11   -1    0    0    0    0  0.00000000000E+00  0.00000000000E+00  0.45593999997E+02  0.45594000000E+02  0.51100000000E-03 0.  1.
         11   -1    0    0    0    0 -0.00000000000E+00 -0.00000000000E+00 -0.45593999997E+02  0.45594000000E+02  0.51100000000E-03 0. -1.
    9900012    2    1    2    0    0  0.26990037445E+02  0.28193139471E+02  0.22489953760E+02  0.46142320355E+02  0.10000023656E+02 0.  0.
         12    1    1    2    0    0 -0.26990037445E+02 -0.28193139471E+02 -0.22489953760E+02  0.45045679645E+02  0.00000000000E+00 0. -1.
         11    1    3    3    0    0  0.46632170326E+01  0.22013697517E+01  0.80561640419E+00  0.52192566453E+01  0.51100000000E-03 0. -1.
        -11    1    3    3    0    0  0.11536857242E+00  0.18862327887E+01  0.76917684643E+00  0.20402983416E+01  0.51100000000E-03 0.  1.
        -12    1    3    3    0    0  0.22211451840E+02  0.24105536931E+02  0.20915160509E+02  0.38882765368E+02  0.00000000000E+00 0.  1.
</event>
<event>
 7    1  0.2243370E-008  0.4614232E+02  0.7816164E-02  0.1320468E+00
        -11   -1    0    0    0    0  0.00000000000E+00  0.00000000000E+00  0.45593999997E+02  0.45594000000E+02  0.51100000000E-03 0.  1.
         11   -1    0    0    0    0 -0.00000000000E+00 -0.00000000000E+00 -0.45593999997E+02  0.45594000000E+02  0.51100000000E-03 0. -1.
    9900012    2    1    2    0    0 -0.10674746163E+02  0.37189965680E+02  0.23066628966E+02  0.46142321797E+02  0.10000036804E+02 0.  0.
         12    1    1    2    0    0  0.10674746163E+02 -0.37189965680E+02 -0.23066628966E+02  0.45045678203E+02  0.00000000000E+00 0. -1.
         11    1    3    3    0    0 -0.25116575122E+01  0.10585961368E+02  0.61578550043E+01  0.12501607099E+02  0.51100000000E-03 0. -1.
        -11    1    3    3    0    0 -0.61059491940E+01  0.19384492037E+02  0.76369456835E+01  0.21710920909E+02  0.51100000000E-03 0.  1.
         12    1    3    3    0    0 -0.20571394564E+01  0.72195122751E+01  0.92718282783E+01  0.11929793789E+02  0.00000000000E+00 0. -1.
</event>
<event>
 7    1  0.2243370E-008  0.4614232E+02  0.7816164E-02  0.1320468E+00
        -11   -1    0    0    0    0  0.00000000000E+00  0.00000000000E+00  0.45593999997E+02  0.45594000000E+02  0.51100000000E-03 0.  1.
         11   -1    0    0    0    0 -0.00000000000E+00 -0.00000000000E+00 -0.45593999997E+02  0.45594000000E+02  0.51100000000E-03 0. -1.
    9900012    2    1    2    0    0  0.18545358609E+01  0.35520325351E+01  0.44867106759E+02  0.46142317551E+02  0.99999980838E+01 0.  0.
         12    1    1    2    0    0 -0.18545358609E+01 -0.35520325351E+01 -0.44867106759E+02  0.45045682449E+02  0.00000000000E+00 0. -1.
         11    1    3    3    0    0 -0.81767929629E+00  0.64635400685E+00  0.16660451928E+01  0.19652174890E+01  0.51100000000E-03 0. -1.
        -11    1    3    3    0    0 -0.12091962616E+01  0.47224988471E+01  0.25762602890E+02  0.26219760848E+02  0.51100000000E-03 0.  1.
         12    1    3    3    0    0  0.38814114188E+01 -0.18168203188E+01  0.17438458676E+02  0.17957339214E+02  0.00000000000E+00 0. -1.
</event>
<event>
 7    1  0.2243370E-008  0.4614232E+02  0.7816164E-02  0.1320468E+00
        -11   -1    0    0    0    0  0.00000000000E+00  0.00000000000E+00  0.45593999997E+02  0.45594000000E+02  0.51100000000E-03 0.  1.
         11   -1    0    0    0    0 -0.00000000000E+00 -0.00000000000E+00 -0.45593999997E+02  0.45594000000E+02  0.51100000000E-03 0. -1.
    9900012    2    1    2    0    0  0.32210179360E+01 -0.41283780676E+02  0.17730990070E+02  0.46142317495E+02  0.99999975727E+01 0.  0.
         12    1    1    2    0    0 -0.32210179360E+01  0.41283780676E+02 -0.17730990070E+02  0.45045682505E+02  0.00000000000E+00 0. -1.
         11    1    3    3    0    0 -0.24154604796E+00 -0.14996645281E+02  0.54300252421E+01  0.15951266049E+02  0.51100000000E-03 0. -1.
        -11    1    3    3    0    0 -0.18209853038E+01 -0.14841137162E+02  0.62222034710E+01  0.16195405399E+02  0.51100000000E-03 0.  1.
        -12    1    3    3    0    0  0.52835492877E+01 -0.11445998233E+02  0.60787613569E+01  0.13995646046E+02  0.00000000000E+00 0.  1.
</event>
<event>
 7    1  0.2243370E-008  0.4614232E+02  0.7816164E-02  0.1320468E+00
        -11   -1    0    0    0    0  0.00000000000E+00  0.00000000000E+00  0.45593999997E+02  0.45594000000E+02  0.51100000000E-03 0. -1.
         11   -1    0    0    0    0 -0.00000000000E+00 -0.00000000000E+00 -0.45593999997E+02  0.45594000000E+02  0.51100000000E-03 0.  1.
    9900012    2    1    2    0    0  0.11784022201E+02 -0.29672542341E+02 -0.31777201878E+02  0.46142317549E+02  0.99999980701E+01 0.  0.
         12    1    1    2    0    0 -0.11784022201E+02  0.29672542341E+02  0.31777201878E+02  0.45045682451E+02  0.00000000000E+00 0. -1.
         11    1    3    3    0    0 -0.67532063159E+00 -0.41437925112E+01 -0.20992161221E+01  0.46940156498E+01  0.51100000000E-03 0. -1.
        -11    1    3    3    0    0  0.11782391434E+02 -0.22491003075E+02 -0.23818979614E+02  0.34813987955E+02  0.51100000000E-03 0.  1.
         12    1    3    3    0    0  0.67695139892E+00 -0.30377467547E+01 -0.58590061419E+01  0.66343139444E+01  0.00000000000E+00 0. -1.
</event>
<event>
 7    1  0.2243370E-008  0.4614232E+02  0.7816164E-02  0.1320468E+00
        -11   -1    0    0    0    0  0.00000000000E+00  0.00000000000E+00  0.45593999997E+02  0.45594000000E+02  0.51100000000E-03 0. -1.
         11   -1    0    0    0    0 -0.00000000000E+00 -0.00000000000E+00 -0.45593999997E+02  0.45594000000E+02  0.51100000000E-03 0.  1.
    9900012    2    1    2    0    0  0.83999478825E+01  0.29536088211E+02 -0.32957145787E+02  0.46142322187E+02  0.10000040359E+02 0.  0.
         12    1    1    2    0    0 -0.83999478825E+01 -0.29536088211E+02  0.32957145787E+02  0.45045677813E+02  0.00000000000E+00 0. -1.
         11    1    3    3    0    0 -0.74794027964E+00  0.39455323382E+01 -0.11272980303E+01  0.41710239995E+01  0.51100000000E-03 0. -1.
        -11    1    3    3    0    0 -0.22589752361E+00  0.36412368215E+00 -0.32991184944E+00  0.54079370983E+00  0.51100000000E-03 0.  1.
        -12    1    3    3    0    0  0.93737856858E+01  0.25226432190E+02 -0.31499935907E+02  0.41430504478E+02  0.00000000000E+00 0.  1.
</event>
<event>
 7    1  0.2243370E-008  0.4614232E+02  0.7816164E-02  0.1320468E+00
        -11   -1    0    0    0    0  0.00000000000E+00  0.00000000000E+00  0.45593999997E+02  0.45594000000E+02  0.51100000000E-03 0. -1.
         11   -1    0    0    0    0 -0.00000000000E+00 -0.00000000000E+00 -0.45593999997E+02  0.45594000000E+02  0.51100000000E-03 0.  1.
    9900012    2    1    2    0    0  0.43857164277E+02  0.86170681633E+01  0.56043222673E+01  0.46142321514E+02  0.10000034225E+02 0.  0.
         12    1    1    2    0    0 -0.43857164277E+02 -0.86170681633E+01 -0.56043222673E+01  0.45045678486E+02  0.00000000000E+00 0. -1.
         11    1    3    3    0    0  0.12043455460E+02  0.51445869260E+01 -0.37032475005E+00  0.13101478342E+02  0.51100000000E-03 0. -1.
        -11    1    3    3    0    0  0.20302394363E+02  0.16335958841E+01  0.10768232879E+01  0.20396455600E+02  0.51100000000E-03 0.  1.
         12    1    3    3    0    0  0.11511314454E+02  0.18388853532E+01  0.48978237294E+01  0.12644387572E+02  0.00000000000E+00 0. -1.
</event>
<event>
 7    1  0.2243370E-008  0.4614232E+02  0.7816164E-02  0.1320468E+00
        -11   -1    0    0    0    0  0.00000000000E+00  0.00000000000E+00  0.45593999997E+02  0.45594000000E+02  0.51100000000E-03 0.  1.
         11   -1    0    0    0    0 -0.00000000000E+00 -0.00000000000E+00 -0.45593999997E+02  0.45594000000E+02  0.51100000000E-03 0. -1.
    9900012    2    1    2    0    0  0.25833043915E+02 -0.36245083422E+02  0.69326236687E+01  0.46142317619E+02  0.99999987054E+01 0.  0.
         12    1    1    2    0    0 -0.25833043915E+02  0.36245083422E+02 -0.69326236687E+01  0.45045682381E+02  0.00000000000E+00 0. -1.
         11    1    3    3    0    0  0.73456252223E+00 -0.38922768205E+00  0.10276729540E+01  0.13218139994E+01  0.51100000000E-03 0. -1.
        -11    1    3    3    0    0  0.16476723110E+01 -0.42956892021E+01  0.27845461209E+01  0.53778682697E+01  0.51100000000E-03 0.  1.
        -12    1    3    3    0    0  0.23450809082E+02 -0.31560166538E+02  0.31204045937E+01  0.39442635350E+02  0.00000000000E+00 0.  1.
</event>
<event>
 7    1  0.2243370E-008  0.4614232E+02  0.7816164E-02  0.1320468E+00
        -11   -1    0    0    0    0  0.00000000000E+00  0.00000000000E+00  0.45593999997E+02  0.45594000000E+02  0.51100000000E-03 0.  1.
         11   -1    0    0    0    0 -0.00000000000E+00 -0.00000000000E+00 -0.45593999997E+02  0.45594000000E+02  0.51100000000E-03 0. -1.
    9900012    2    1    2    0    0  0.16511274524E+02 -0.41910178260E+02 -0.16793413882E+00  0.46142318408E+02  0.10000005898E+02 0.  0.
         12    1    1    2    0    0 -0.16511274524E+02  0.41910178260E+02  0.16793413882E+00  0.45045681592E+02  0.00000000000E+00 0. -1.
         11    1    3    3    0    0  0.38018835118E+01 -0.44561168155E+01 -0.16643101465E+01  0.60894354283E+01  0.51100000000E-03 0. -1.
        -11    1    3    3    0    0  0.38861114931E+01 -0.98289821367E+01 -0.22672186056E+01  0.10809765624E+02  0.51100000000E-03 0.  1.
        -12    1    3    3    0    0  0.88232795190E+01 -0.27625079308E+02  0.37635946132E+01  0.29243117355E+02  0.00000000000E+00 0.  1.
</event>
<event>
 7    1  0.2243370E-008  0.4614232E+02  0.7816164E-02  0.1320468E+00
        -11   -1    0    0    0    0  0.00000000000E+00  0.00000000000E+00  0.45593999997E+02  0.45594000000E+02  0.51100000000E-03 0.  1.
         11   -1    0    0    0    0 -0.00000000000E+00 -0.00000000000E+00 -0.45593999997E+02  0.45594000000E+02  0.51100000000E-03 0. -1.
    9900012    2    1    2    0    0  0.32855898392E+02  0.18156133580E+02  0.24898961723E+02  0.46142317181E+02  0.99999947103E+01 0.  0.
         12    1    1    2    0    0 -0.32855898392E+02 -0.18156133580E+02 -0.24898961723E+02  0.45045682819E+02  0.00000000000E+00 0. -1.
         11    1    3    3    0    0  0.25072641268E+01  0.31052651209E+01  0.15201471370E+01  0.42708187098E+01  0.51100000000E-03 0. -1.
        -11    1    3    3    0    0  0.27417426644E+02  0.13036309150E+02  0.17616480188E+02  0.35099872001E+02  0.51100000000E-03 0.  1.
         12    1    3    3    0    0  0.29312076214E+01  0.20145593098E+01  0.57623343987E+01  0.67716264704E+01  0.00000000000E+00 0. -1.
</event>
<event>
 7    1  0.2243370E-008  0.4614232E+02  0.7816164E-02  0.1320468E+00
        -11   -1    0    0    0    0  0.00000000000E+00  0.00000000000E+00  0.45593999997E+02  0.45594000000E+02  0.51100000000E-03 0.  1.
         11   -1    0    0    0    0 -0.00000000000E+00 -0.00000000000E+00 -0.45593999997E+02  0.45594000000E+02  0.51100000000E-03 0. -1.
    9900012    2    1    2    0    0  0.29919626752E+02 -0.32946554046E+02  0.69608902493E+01  0.46142317837E+02  0.10000000690E+02 0.  0.
         12    1    1    2    0    0 -0.29919626752E+02  0.32946554046E+02 -0.69608902493E+01  0.45045682163E+02  0.00000000000E+00 0. -1.
         11    1    3    3    0    0 -0.17513003411E+00 -0.15851404387E+00 -0.30187135019E+00  0.38330641025E+00  0.51100000000E-03 0. -1.
        -11    1    3    3    0    0  0.16004716967E+02 -0.20531374373E+02  0.74695489766E+01  0.27082881328E+02  0.51100000000E-03 0.  1.
         12    1    3    3    0    0  0.14090039819E+02 -0.12256665629E+02 -0.20678737713E+00  0.18676130098E+02  0.00000000000E+00 0. -1.
</event>
<event>
 7    1  0.2243370E-008  0.4614233E+02  0.7816164E-02  0.1320468E+00
        -11   -1    0    0    0    0  0.00000000000E+00  0.00000000000E+00  0.45593999997E+02  0.45594000000E+02  0.51100000000E-03 0.  1.
         11   -1    0    0    0    0 -0.00000000000E+00 -0.00000000000E+00 -0.45593999997E+02  0.45594000000E+02  0.51100000000E-03 0. -1.
    9900012    2    1    2    0    0 -0.31142578803E+02 -0.11064249786E+02  0.30607759817E+02  0.46142325415E+02  0.10000069792E+02 0.  0.
         12    1    1    2    0    0  0.31142578803E+02  0.11064249786E+02 -0.30607759817E+02  0.45045674585E+02  0.00000000000E+00 0. -1.
         11    1    3    3    0    0 -0.53236998677E+01 -0.53348517884E+01  0.63790303913E+01  0.98739279357E+01  0.51100000000E-03 0. -1.
        -11    1    3    3    0    0 -0.25870073082E+02 -0.61119858593E+01  0.23696770513E+02  0.35611149735E+02  0.51100000000E-03 0.  1.
         12    1    3    3    0    0  0.51194147111E-01  0.38258786143E+00  0.53195891310E+00  0.65724774449E+00  0.00000000000E+00 0. -1.
</event>
<event>
 7    1  0.2243370E-008  0.4614232E+02  0.7816164E-02  0.1320468E+00
        -11   -1    0    0    0    0  0.00000000000E+00  0.00000000000E+00  0.45593999997E+02  0.45594000000E+02  0.51100000000E-03 0.  1.
         11   -1    0    0    0    0 -0.00000000000E+00 -0.00000000000E+00 -0.45593999997E+02  0.45594000000E+02  0.51100000000E-03 0. -1.
    9900012    2    1    2    0    0  0.11230382714E+02 -0.29016784042E+01  0.43526680918E+02  0.46142321126E+02  0.10000030682E+02 0.  0.
         12    1    1    2    0    0 -0.11230382714E+02  0.29016784042E+01 -0.43526680918E+02  0.45045678874E+02  0.00000000000E+00 0. -1.
         11    1    3    3    0    0  0.43777049326E+01  0.21281065874E+01  0.73982795835E+01  0.88559403330E+01  0.51100000000E-03 0. -1.
        -11    1    3    3    0    0  0.35299082990E+01 -0.47124990109E+00  0.12863122864E+02  0.13346994386E+02  0.51100000000E-03 0.  1.
        -12    1    3    3    0    0  0.33227694825E+01 -0.45585350905E+01  0.23265278471E+02  0.23939386407E+02  0.00000000000E+00 0.  1.
</event>
<event>
 7    1  0.2243370E-008  0.4614232E+02  0.7816164E-02  0.1320468E+00
        -11   -1    0    0    0    0  0.00000000000E+00  0.00000000000E+00  0.45593999997E+02  0.45594000000E+02  0.51100000000E-03 0. -1.
         11   -1    0    0    0    0 -0.00000000000E+00 -0.00000000000E+00 -0.45593999997E+02  0.45594000000E+02  0.51100000000E-03 0.  1.
    9900012    2    1    2    0    0  0.32906139932E+02 -0.15109404927E+02 -0.26795625686E+02  0.46142315208E+02  0.99999767194E+01 0.  0.
         12    1    1    2    0    0 -0.32906139932E+02  0.15109404927E+02  0.26795625686E+02  0.45045684792E+02  0.00000000000E+00 0. -1.
         11    1    3    3    0    0  0.10593484893E+02 -0.61006274003E-01 -0.76461265787E+01  0.13064796051E+02  0.51100000000E-03 0. -1.
        -11    1    3    3    0    0  0.12655529396E+02 -0.85929307220E+01 -0.98090396356E+01  0.18171905280E+02  0.51100000000E-03 0.  1.
         12    1    3    3    0    0  0.96571256437E+01 -0.64554679310E+01 -0.93404594716E+01  0.14905613877E+02  0.00000000000E+00 0. -1.
</event>
<event>
 7    1  0.2243370E-008  0.4614232E+02  0.7816164E-02  0.1320468E+00
        -11   -1    0    0    0    0  0.00000000000E+00  0.00000000000E+00  0.45593999997E+02  0.45594000000E+02  0.51100000000E-03 0.  1.
         11   -1    0    0    0    0 -0.00000000000E+00 -0.00000000000E+00 -0.45593999997E+02  0.45594000000E+02  0.51100000000E-03 0. -1.
    9900012    2    1    2    0    0 -0.38720590628E+01  0.26828288912E+02  0.35977265990E+02  0.46142316572E+02  0.99999891589E+01 0.  0.
         12    1    1    2    0    0  0.38720590628E+01 -0.26828288912E+02 -0.35977265990E+02  0.45045683428E+02  0.00000000000E+00 0. -1.
         11    1    3    3    0    0  0.19557002600E+01  0.99509669742E+01  0.81471349865E+01  0.13008547804E+02  0.51100000000E-03 0. -1.
        -11    1    3    3    0    0 -0.85674586759E+00  0.53866410222E+01  0.88803215130E+01  0.10421613379E+02  0.51100000000E-03 0.  1.
         12    1    3    3    0    0 -0.49710134552E+01  0.11490680916E+02  0.18949809491E+02  0.22712155389E+02  0.00000000000E+00 0. -1.
</event>
<event>
 7    1  0.2243370E-008  0.4614232E+02  0.7816164E-02  0.1320468E+00
        -11   -1    0    0    0    0  0.00000000000E+00  0.00000000000E+00  0.45593999997E+02  0.45594000000E+02  0.51100000000E-03 0. -1.
         11   -1    0    0    0    0 -0.00000000000E+00 -0.00000000000E+00 -0.45593999997E+02  0.45594000000E+02  0.51100000000E-03 0.  1.
    9900012    2    1    2    0    0  0.38908700252E+02 -0.11960652733E+02 -0.19291685737E+02  0.46142319767E+02  0.10000018290E+02 0.  0.
         12    1    1    2    0    0 -0.38908700252E+02  0.11960652733E+02  0.19291685737E+02  0.45045680233E+02  0.00000000000E+00 0. -1.
         11    1    3    3    0    0  0.47616643583E+01 -0.12970808575E+01 -0.11101581556E-01  0.49351787930E+01  0.51100000000E-03 0. -1.
        -11    1    3    3    0    0  0.75526809533E+01 -0.27720703249E+01 -0.13016340104E+01  0.81499456947E+01  0.51100000000E-03 0.  1.
        -12    1    3    3    0    0  0.26594354940E+02 -0.78915015505E+01 -0.17978950145E+02  0.33057195279E+02  0.00000000000E+00 0.  1.
</event>
<event>
 7    1  0.2243370E-008  0.4614231E+02  0.7816164E-02  0.1320468E+00
        -11   -1    0    0    0    0  0.00000000000E+00  0.00000000000E+00  0.45593999997E+02  0.45594000000E+02  0.51100000000E-03 0. -1.
         11   -1    0    0    0    0 -0.00000000000E+00 -0.00000000000E+00 -0.45593999997E+02  0.45594000000E+02  0.51100000000E-03 0.  1.
    9900012    2    1    2    0    0 -0.12506975106E+02 -0.42146904695E+02 -0.98146787118E+01  0.46142312971E+02  0.99999563204E+01 0.  0.
         12    1    1    2    0    0  0.12506975106E+02  0.42146904695E+02  0.98146787118E+01  0.45045687029E+02  0.00000000000E+00 0. -1.
         11    1    3    3    0    0 -0.26693127503E+00 -0.11150405171E+02 -0.42775497619E+01  0.11945719736E+02  0.51100000000E-03 0. -1.
        -11    1    3    3    0    0 -0.71347476171E+01 -0.11246587952E+02 -0.28621506543E+01  0.13622858392E+02  0.51100000000E-03 0.  1.
         12    1    3    3    0    0 -0.51052962141E+01 -0.19749911572E+02 -0.26749782957E+01  0.20573734843E+02  0.00000000000E+00 0. -1.
</event>
<event>
 7    1  0.2243370E-008  0.4614232E+02  0.7816164E-02  0.1320468E+00
        -11   -1    0    0    0    0  0.00000000000E+00  0.00000000000E+00  0.45593999997E+02  0.45594000000E+02  0.51100000000E-03 0.  1.
         11   -1    0    0    0    0 -0.00000000000E+00 -0.00000000000E+00 -0.45593999997E+02  0.45594000000E+02  0.51100000000E-03 0. -1.
    9900012    2    1    2    0    0 -0.10348831703E+02 -0.38800757200E+02  0.20408734399E+02  0.46142317447E+02  0.99999971374E+01 0.  0.
         12    1    1    2    0    0  0.10348831703E+02  0.38800757200E+02 -0.20408734399E+02  0.45045682553E+02  0.00000000000E+00 0. -1.
         11    1    3    3    0    0 -0.87926276416E+00 -0.73639835090E+01  0.32011978976E+01  0.80776868205E+01  0.51100000000E-03 0. -1.
        -11    1    3    3    0    0 -0.31514843028E+01 -0.21823766042E+02  0.14012296267E+02  0.26125716536E+02  0.51100000000E-03 0.  1.
        -12    1    3    3    0    0 -0.63180846358E+01 -0.96130076486E+01  0.31952402345E+01  0.11938914091E+02  0.00000000000E+00 0.  1.
</event>
<event>
 7    1  0.2243370E-008  0.4614232E+02  0.7816164E-02  0.1320468E+00
        -11   -1    0    0    0    0  0.00000000000E+00  0.00000000000E+00  0.45593999997E+02  0.45594000000E+02  0.51100000000E-03 0.  1.
         11   -1    0    0    0    0 -0.00000000000E+00 -0.00000000000E+00 -0.45593999997E+02  0.45594000000E+02  0.51100000000E-03 0. -1.
    9900012    2    1    2    0    0  0.41891698028E+02 -0.60254943567E+01 -0.15423764502E+02  0.46142318106E+02  0.10000003143E+02 0.  0.
         12    1    1    2    0    0 -0.41891698028E+02  0.60254943567E+01  0.15423764502E+02  0.45045681894E+02  0.00000000000E+00 0. -1.
         11    1    3    3    0    0  0.51264277917E+01 -0.13754342079E+01  0.54732948975E+00  0.53358833379E+01  0.51100000000E-03 0. -1.
        -11    1    3    3    0    0  0.22371498467E+02 -0.10136925672E+00 -0.10867727923E+02  0.24871705407E+02  0.51100000000E-03 0.  1.
        -12    1    3    3    0    0  0.14393771770E+02 -0.45486908921E+01 -0.51033660689E+01  0.15934729361E+02  0.00000000000E+00 0.  1.
</event>
<event>
 7    1  0.2243370E-008  0.4614232E+02  0.7816164E-02  0.1320468E+00
        -11   -1    0    0    0    0  0.00000000000E+00  0.00000000000E+00  0.45593999997E+02  0.45594000000E+02  0.51100000000E-03 0. -1.
         11   -1    0    0    0    0 -0.00000000000E+00 -0.00000000000E+00 -0.45593999997E+02  0.45594000000E+02  0.51100000000E-03 0.  1.
    9900012    2    1    2    0    0 -0.35869268153E+02 -0.75652451293E+01 -0.26177779691E+02  0.46142317840E+02  0.10000000720E+02 0.  0.
         12    1    1    2    0    0  0.35869268153E+02  0.75652451293E+01  0.26177779691E+02  0.45045682160E+02  0.00000000000E+00 0. -1.
         11    1    3    3    0    0 -0.22288810890E+02 -0.48372498879E+01 -0.20383208513E+02  0.30588646046E+02  0.51100000000E-03 0. -1.
        -11    1    3    3    0    0 -0.21209290049E+01 -0.18223521717E+01 -0.29879021788E+00  0.28122203216E+01  0.51100000000E-03 0.  1.
         12    1    3    3    0    0 -0.11459528258E+02 -0.90564306974E+00 -0.54957809595E+01  0.12741451472E+02  0.00000000000E+00 0. -1.
</event>
<event>
 7    1  0.2243370E-008  0.4614232E+02  0.7816164E-02  0.1320468E+00
        -11   -1    0    0    0    0  0.00000000000E+00  0.00000000000E+00  0.45593999997E+02  0.45594000000E+02  0.51100000000E-03 0.  1.
         11   -1    0    0    0    0 -0.00000000000E+00 -0.00000000000E+00 -0.45593999997E+02  0.45594000000E+02  0.51100000000E-03 0. -1.
    9900012    2    1    2    0    0 -0.23056430049E+02 -0.22883874888E+02  0.31206457674E+02  0.46142315444E+02  0.99999788734E+01 0.  0.
         12    1    1    2    0    0  0.23056430049E+02  0.22883874888E+02 -0.31206457674E+02  0.45045684556E+02  0.00000000000E+00 0. -1.
         11    1    3    3    0    0 -0.97510516205E+00 -0.32777892042E-01  0.26997197850E+00  0.10123189209E+01  0.51100000000E-03 0. -1.
        -11    1    3    3    0    0 -0.19813102749E+02 -0.17690837252E+02  0.21652800471E+02  0.34269060853E+02  0.51100000000E-03 0.  1.
        -12    1    3    3    0    0 -0.22682221383E+01 -0.51602597444E+01  0.92836852245E+01  0.10860935671E+02  0.00000000000E+00 0.  1.
</event>
<event>
 7    1  0.2243370E-008  0.4614232E+02  0.7816164E-02  0.1320468E+00
        -11   -1    0    0    0    0  0.00000000000E+00  0.00000000000E+00  0.45593999997E+02  0.45594000000E+02  0.51100000000E-03 0.  1.
         11   -1    0    0    0    0 -0.00000000000E+00 -0.00000000000E+00 -0.45593999997E+02  0.45594000000E+02  0.51100000000E-03 0. -1.
    9900012    2    1    2    0    0 -0.18446108822E+02  0.11043578856E+02  0.39584012035E+02  0.46142316817E+02  0.99999913908E+01 0.  0.
         12    1    1    2    0    0  0.18446108822E+02 -0.11043578856E+02 -0.39584012035E+02  0.45045683183E+02  0.00000000000E+00 0. -1.
         11    1    3    3    0    0 -0.39806600396E+01  0.72365759377E+01  0.12046384513E+02  0.14605788776E+02  0.51100000000E-03 0.  1.
        -11    1    3    3    0    0 -0.23339480375E+01  0.81027151117E+00  0.77423743726E+01  0.81270052634E+01  0.51100000000E-03 0. -1.
        -12    1    3    3    0    0 -0.12131500745E+02  0.29967314069E+01  0.19795253149E+02  0.23409522778E+02  0.00000000000E+00 0.  1.
</event>
<event>
 7    1  0.2243370E-008  0.4614232E+02  0.7816164E-02  0.1320468E+00
        -11   -1    0    0    0    0  0.00000000000E+00  0.00000000000E+00  0.45593999997E+02  0.45594000000E+02  0.51100000000E-03 0.  1.
         11   -1    0    0    0    0 -0.00000000000E+00 -0.00000000000E+00 -0.45593999997E+02  0.45594000000E+02  0.51100000000E-03 0. -1.
    9900012    2    1    2    0    0  0.16952699526E+02  0.23135300434E+02  0.34734382516E+02  0.46142317897E+02  0.10000001235E+02 0.  0.
         12    1    1    2    0    0 -0.16952699526E+02 -0.23135300434E+02 -0.34734382516E+02  0.45045682103E+02  0.00000000000E+00 0. -1.
         11    1    3    3    0    0  0.45686628359E+01  0.72183486060E+01  0.71945935356E+01  0.11168680007E+02  0.51100000000E-03 0. -1.
        -11    1    3    3    0    0  0.13139292052E+02  0.14071162730E+02  0.26407837755E+02  0.32680460697E+02  0.51100000000E-03 0.  1.
         12    1    3    3    0    0 -0.75525536249E+00  0.18457890980E+01  0.11319512252E+01  0.22931771919E+01  0.00000000000E+00 0. -1.
</event>
<event>
 7    1  0.2243370E-008  0.4614232E+02  0.7816164E-02  0.1320468E+00
        -11   -1    0    0    0    0  0.00000000000E+00  0.00000000000E+00  0.45593999997E+02  0.45594000000E+02  0.51100000000E-03 0. -1.
         11   -1    0    0    0    0 -0.00000000000E+00 -0.00000000000E+00 -0.45593999997E+02  0.45594000000E+02  0.51100000000E-03 0.  1.
    9900012    2    1    2    0    0  0.11776938961E+02  0.36158840795E+02 -0.24144465093E+02  0.46142320367E+02  0.10000023764E+02 0.  0.
         12    1    1    2    0    0 -0.11776938961E+02 -0.36158840795E+02  0.24144465093E+02  0.45045679633E+02  0.00000000000E+00 0. -1.
         11    1    3    3    0    0  0.35887242524E+01  0.72138639115E+01 -0.60506862553E+01  0.10076188700E+02  0.51100000000E-03 0. -1.
        -11    1    3    3    0    0  0.46744277374E+01  0.18562803819E+02 -0.15908091617E+02  0.24889663305E+02  0.51100000000E-03 0.  1.
         12    1    3    3    0    0  0.35137869715E+01  0.10382173064E+02 -0.21856872213E+01  0.11176468362E+02  0.00000000000E+00 0. -1.
</event>
<event>
 7    1  0.2243370E-008  0.4614232E+02  0.7816164E-02  0.1320468E+00
        -11   -1    0    0    0    0  0.00000000000E+00  0.00000000000E+00  0.45593999997E+02  0.45594000000E+02  0.51100000000E-03 0.  1.
         11   -1    0    0    0    0 -0.00000000000E+00 -0.00000000000E+00 -0.45593999997E+02  0.45594000000E+02  0.51100000000E-03 0. -1.
    9900012    2    1    2    0    0 -0.36579948797E+01  0.69811742087E+01  0.44350825608E+02  0.46142318164E+02  0.10000003678E+02 0.  0.
         12    1    1    2    0    0  0.36579948797E+01 -0.69811742087E+01 -0.44350825608E+02  0.45045681836E+02  0.00000000000E+00 0. -1.
         11    1    3    3    0    0 -0.91364721690E-01 -0.26853314108E+00 -0.20121320278E+00  0.34777086468E+00  0.51100000000E-03 0. -1.
        -11    1    3    3    0    0 -0.55725208242E+01  0.48934479473E+01  0.28653857602E+02  0.29598013057E+02  0.51100000000E-03 0.  1.
        -12    1    3    3    0    0  0.20058906661E+01  0.23562594025E+01  0.15898181209E+02  0.16196534243E+02  0.00000000000E+00 0.  1.
</event>
<event>
 7    1  0.2243370E-008  0.4614232E+02  0.7816164E-02  0.1320468E+00
        -11   -1    0    0    0    0  0.00000000000E+00  0.00000000000E+00  0.45593999997E+02  0.45594000000E+02  0.51100000000E-03 0. -1.
         11   -1    0    0    0    0 -0.00000000000E+00 -0.00000000000E+00 -0.45593999997E+02  0.45594000000E+02  0.51100000000E-03 0.  1.
    9900012    2    1    2    0    0 -0.15483850886E+02 -0.39982794793E+02 -0.13810863627E+02  0.46142317944E+02  0.10000001670E+02 0.  0.
         12    1    1    2    0    0  0.15483850886E+02  0.39982794793E+02  0.13810863627E+02  0.45045682056E+02  0.00000000000E+00 0. -1.
         11    1    3    3    0    0 -0.17243180248E+01 -0.10003721015E+02 -0.67947090577E+00  0.10173956348E+02  0.51100000000E-03 0. -1.
        -11    1    3    3    0    0 -0.10184249941E+01 -0.79889872910E+01 -0.26668129543E+01  0.84836901758E+01  0.51100000000E-03 0.  1.
        -12    1    3    3    0    0 -0.12741107867E+02 -0.21990086488E+02 -0.10464579767E+02  0.27484671421E+02  0.00000000000E+00 0.  1.
</event>
<event>
 7    1  0.2243370E-008  0.4614232E+02  0.7816164E-02  0.1320468E+00
        -11   -1    0    0    0    0  0.00000000000E+00  0.00000000000E+00  0.45593999997E+02  0.45594000000E+02  0.51100000000E-03 0. -1.
         11   -1    0    0    0    0 -0.00000000000E+00 -0.00000000000E+00 -0.45593999997E+02  0.45594000000E+02  0.51100000000E-03 0.  1.
    9900012    2    1    2    0    0 -0.22129976846E+02 -0.39230759405E+02  0.57009371874E+00  0.46142319124E+02  0.10000012428E+02 0.  0.
         12    1    1    2    0    0  0.22129976846E+02  0.39230759405E+02 -0.57009371874E+00  0.45045680876E+02  0.00000000000E+00 0. -1.
         11    1    3    3    0    0 -0.30357167758E+01 -0.77526865164E+01  0.21618572563E+01  0.86019388293E+01  0.51100000000E-03 0. -1.
        -11    1    3    3    0    0 -0.11361134443E+02 -0.22130749239E+02 -0.39313336897E+01  0.25185329511E+02  0.51100000000E-03 0.  1.
         12    1    3    3    0    0 -0.77331256272E+01 -0.93473236498E+01  0.23395701521E+01  0.12355050784E+02  0.00000000000E+00 0. -1.
</event>
<event>
 7    1  0.2243370E-008  0.4614232E+02  0.7816164E-02  0.1320468E+00
        -11   -1    0    0    0    0  0.00000000000E+00  0.00000000000E+00  0.45593999997E+02  0.45594000000E+02  0.51100000000E-03 0.  1.
         11   -1    0    0    0    0 -0.00000000000E+00 -0.00000000000E+00 -0.45593999997E+02  0.45594000000E+02  0.51100000000E-03 0. -1.
    9900012    2    1    2    0    0  0.38840729430E+02  0.19660626401E+02 -0.11574584279E+02  0.46142317695E+02  0.99999993931E+01 0.  0.
         12    1    1    2    0    0 -0.38840729430E+02 -0.19660626401E+02  0.11574584279E+02  0.45045682305E+02  0.00000000000E+00 0. -1.
         11    1    3    3    0    0  0.18255877514E+02  0.71570033352E+01 -0.45314384268E+01  0.20125448940E+02  0.51100000000E-03 0. -1.
        -11    1    3    3    0    0  0.15447466259E+02  0.10412917114E+02 -0.81947362647E+01  0.20352070149E+02  0.51100000000E-03 0.  1.
        -12    1    3    3    0    0  0.51373856568E+01  0.20907059521E+01  0.11515904126E+01  0.56647986058E+01  0.00000000000E+00 0.  1.
</event>
<event>
 7    1  0.2243370E-008  0.4614232E+02  0.7816164E-02  0.1320468E+00
        -11   -1    0    0    0    0  0.00000000000E+00  0.00000000000E+00  0.45593999997E+02  0.45594000000E+02  0.51100000000E-03 0.  1.
         11   -1    0    0    0    0 -0.00000000000E+00 -0.00000000000E+00 -0.45593999997E+02  0.45594000000E+02  0.51100000000E-03 0. -1.
    9900012    2    1    2    0    0  0.17483501175E+02 -0.17778677053E+02  0.37514788648E+02  0.46142317206E+02  0.99999949378E+01 0.  0.
         12    1    1    2    0    0 -0.17483501175E+02  0.17778677053E+02 -0.37514788648E+02  0.45045682794E+02  0.00000000000E+00 0. -1.
         11    1    3    3    0    0 -0.40891381123E+00 -0.15246012905E+01  0.23886635802E+01  0.28630985943E+01  0.51100000000E-03 0. -1.
        -11    1    3    3    0    0  0.69413045106E+01 -0.10702266070E+02  0.14862191860E+02  0.19585835557E+02  0.51100000000E-03 0.  1.
         12    1    3    3    0    0  0.10951110475E+02 -0.55518096926E+01  0.20263933208E+02  0.23693383055E+02  0.00000000000E+00 0. -1.
</event>
<event>
 7    1  0.2243370E-008  0.4614232E+02  0.7816164E-02  0.1320468E+00
        -11   -1    0    0    0    0  0.00000000000E+00  0.00000000000E+00  0.45593999997E+02  0.45594000000E+02  0.51100000000E-03 0.  1.
         11   -1    0    0    0    0 -0.00000000000E+00 -0.00000000000E+00 -0.45593999997E+02  0.45594000000E+02  0.51100000000E-03 0. -1.
    9900012    2    1    2    0    0  0.78505408456E+01  0.27045929433E+02  0.35156792905E+02  0.46142318988E+02  0.10000011184E+02 0.  0.
         12    1    1    2    0    0 -0.78505408456E+01 -0.27045929433E+02 -0.35156792905E+02  0.45045681012E+02  0.00000000000E+00 0. -1.
         11    1    3    3    0    0  0.43077762665E+01  0.62569492521E+01  0.67476297829E+01  0.10160554033E+02  0.51100000000E-03 0. -1.
        -11    1    3    3    0    0  0.16572264765E+01  0.19855816424E+02  0.24904104286E+02  0.31893796513E+02  0.51100000000E-03 0.  1.
         12    1    3    3    0    0  0.18855381025E+01  0.93316375691E+00  0.35050588362E+01  0.40879684414E+01  0.00000000000E+00 0. -1.
</event>
<event>
 7    1  0.2243370E-008  0.4614232E+02  0.7816164E-02  0.1320468E+00
        -11   -1    0    0    0    0  0.00000000000E+00  0.00000000000E+00  0.45593999997E+02  0.45594000000E+02  0.51100000000E-03 0.  1.
         11   -1    0    0    0    0 -0.00000000000E+00 -0.00000000000E+00 -0.45593999997E+02  0.45594000000E+02  0.51100000000E-03 0. -1.
    9900012    2    1    2    0    0 -0.46540516371E+01 -0.63659774849E+01  0.44350059742E+02  0.46142315799E+02  0.99999821116E+01 0.  0.
         12    1    1    2    0    0  0.46540516371E+01  0.63659774849E+01 -0.44350059742E+02  0.45045684201E+02  0.00000000000E+00 0. -1.
         11    1    3    3    0    0 -0.50298999017E+01 -0.24244489238E+01  0.24145595223E+02  0.24782808851E+02  0.51100000000E-03 0. -1.
        -11    1    3    3    0    0 -0.24036999302E+01 -0.61757934364E+00  0.93073296737E+01  0.96325263310E+01  0.51100000000E-03 0.  1.
         12    1    3    3    0    0  0.27795481948E+01 -0.33239492175E+01  0.10897134845E+02  0.11726980617E+02  0.00000000000E+00 0. -1.
</event>
<event>
 7    1  0.2243370E-008  0.4614232E+02  0.7816164E-02  0.1320468E+00
        -11   -1    0    0    0    0  0.00000000000E+00  0.00000000000E+00  0.45593999997E+02  0.45594000000E+02  0.51100000000E-03 0. -1.
         11   -1    0    0    0    0 -0.00000000000E+00 -0.00000000000E+00 -0.45593999997E+02  0.45594000000E+02  0.51100000000E-03 0.  1.
    9900012    2    1    2    0    0 -0.23556532063E+02 -0.38260091609E+02 -0.32200315604E+01  0.46142318564E+02  0.10000007325E+02 0.  0.
         12    1    1    2    0    0  0.23556532063E+02  0.38260091609E+02  0.32200315604E+01  0.45045681436E+02  0.00000000000E+00 0. -1.
         11    1    3    3    0    0 -0.36402914801E+00 -0.42378716359E+01 -0.17322934136E+01  0.45927022498E+01  0.51100000000E-03 0. -1.
        -11    1    3    3    0    0 -0.90334431949E+01 -0.17991916179E+02 -0.95083881218E+00  0.20154806832E+02  0.51100000000E-03 0.  1.
         12    1    3    3    0    0 -0.14159059720E+02 -0.16030303794E+02 -0.53689933461E+00  0.21394809482E+02  0.00000000000E+00 0. -1.
</event>
<event>
 7    1  0.2243370E-008  0.4614232E+02  0.7816164E-02  0.1320468E+00
        -11   -1    0    0    0    0  0.00000000000E+00  0.00000000000E+00  0.45593999997E+02  0.45594000000E+02  0.51100000000E-03 0.  1.
         11   -1    0    0    0    0 -0.00000000000E+00 -0.00000000000E+00 -0.45593999997E+02  0.45594000000E+02  0.51100000000E-03 0. -1.
    9900012    2    1    2    0    0 -0.72842612983E+01 -0.35598822465E+02  0.26622865054E+02  0.46142316885E+02  0.99999920146E+01 0.  0.
         12    1    1    2    0    0  0.72842612983E+01  0.35598822465E+02 -0.26622865054E+02  0.45045683115E+02  0.00000000000E+00 0. -1.
         11    1    3    3    0    0  0.56295419445E-01 -0.62420806678E+01  0.20041928862E+01  0.65561825496E+01  0.51100000000E-03 0. -1.
        -11    1    3    3    0    0 -0.63924194548E+01 -0.14789440430E+02  0.10207946207E+02  0.19073351586E+02  0.51100000000E-03 0.  1.
        -12    1    3    3    0    0 -0.94813726297E+00 -0.14567301368E+02  0.14410725961E+02  0.20512782749E+02  0.00000000000E+00 0.  1.
</event>
<event>
 7    1  0.2243370E-008  0.4614232E+02  0.7816164E-02  0.1320468E+00
        -11   -1    0    0    0    0  0.00000000000E+00  0.00000000000E+00  0.45593999997E+02  0.45594000000E+02  0.51100000000E-03 0. -1.
         11   -1    0    0    0    0 -0.00000000000E+00 -0.00000000000E+00 -0.45593999997E+02  0.45594000000E+02  0.51100000000E-03 0.  1.
    9900012    2    1    2    0    0  0.26059823746E+02 -0.93894820194E+01 -0.35522333339E+02  0.46142323713E+02  0.10000054278E+02 0.  0.
         12    1    1    2    0    0 -0.26059823746E+02  0.93894820194E+01  0.35522333339E+02  0.45045676287E+02  0.00000000000E+00 0. -1.
         11    1    3    3    0    0  0.13091199604E+02 -0.77017797655E+01 -0.15519446025E+02  0.21715204899E+02  0.51100000000E-03 0. -1.
        -11    1    3    3    0    0  0.85520600055E+00 -0.15096203015E+01 -0.39637926640E+01  0.43268907200E+01  0.51100000000E-03 0.  1.
        -12    1    3    3    0    0  0.12113418141E+02 -0.17808195242E+00 -0.16039094650E+02  0.20100228094E+02  0.00000000000E+00 0.  1.
</event>
<event>
 7    1  0.2243370E-008  0.4614232E+02  0.7816164E-02  0.1320468E+00
        -11   -1    0    0    0    0  0.00000000000E+00  0.00000000000E+00  0.45593999997E+02  0.45594000000E+02  0.51100000000E-03 0.  1.
         11   -1    0    0    0    0 -0.00000000000E+00 -0.00000000000E+00 -0.45593999997E+02  0.45594000000E+02  0.51100000000E-03 0. -1.
    9900012    2    1    2    0    0 -0.10003489639E+02 -0.80145357518E+00  0.43913567377E+02  0.46142317271E+02  0.99999955266E+01 0.  0.
         12    1    1    2    0    0  0.10003489639E+02  0.80145357518E+00 -0.43913567377E+02  0.45045682729E+02  0.00000000000E+00 0. -1.
         11    1    3    3    0    0  0.70325325772E+00  0.20632076788E+00  0.85540159246E+00  0.11264304458E+01  0.51100000000E-03 0. -1.
        -11    1    3    3    0    0 -0.10729008132E+02 -0.11055899851E+01  0.43368571204E+02  0.44689673452E+02  0.51100000000E-03 0.  1.
        -12    1    3    3    0    0  0.22265235111E-01  0.97815642028E-01 -0.31040541915E+00  0.32621337305E+00  0.00000000000E+00 0.  1.
</event>
<event>
 7    1  0.2243370E-008  0.4614233E+02  0.7816164E-02  0.1320468E+00
        -11   -1    0    0    0    0  0.00000000000E+00  0.00000000000E+00  0.45593999997E+02  0.45594000000E+02  0.51100000000E-03 0. -1.
         11   -1    0    0    0    0 -0.00000000000E+00 -0.00000000000E+00 -0.45593999997E+02  0.45594000000E+02  0.51100000000E-03 0.  1.
    9900012    2    1    2    0    0  0.78721198872E+01  0.33658437651E+02 -0.28883420483E+02  0.46142326784E+02  0.10000082279E+02 0.  0.
         12    1    1    2    0    0 -0.78721198872E+01 -0.33658437651E+02  0.28883420483E+02  0.45045673216E+02  0.00000000000E+00 0. -1.
         11    1    3    3    0    0 -0.79165029800E+00  0.88015690761E+01 -0.50681525705E+01  0.10187271427E+02  0.51100000000E-03 0. -1.
        -11    1    3    3    0    0  0.34467461902E+01  0.10940286922E+02 -0.66856169527E+01  0.13276573787E+02  0.51100000000E-03 0.  1.
        -12    1    3    3    0    0  0.52170239950E+01  0.13916581654E+02 -0.17129650960E+02  0.22678481570E+02  0.00000000000E+00 0.  1.
</event>
<event>
 7    1  0.2243370E-008  0.4614232E+02  0.7816164E-02  0.1320468E+00
        -11   -1    0    0    0    0  0.00000000000E+00  0.00000000000E+00  0.45593999997E+02  0.45594000000E+02  0.51100000000E-03 0.  1.
         11   -1    0    0    0    0 -0.00000000000E+00 -0.00000000000E+00 -0.45593999997E+02  0.45594000000E+02  0.51100000000E-03 0. -1.
    9900012    2    1    2    0    0 -0.38402382123E+02 -0.68403454534E+01  0.22529540491E+02  0.46142317928E+02  0.10000001518E+02 0.  0.
         12    1    1    2    0    0  0.38402382123E+02  0.68403454534E+01 -0.22529540491E+02  0.45045682072E+02  0.00000000000E+00 0. -1.
         11    1    3    3    0    0 -0.95958373838E+01 -0.69082010689E+00  0.34254123711E+01  0.10212285625E+02  0.51100000000E-03 0. -1.
        -11    1    3    3    0    0 -0.22573349294E+02 -0.24520890200E+01  0.11600101634E+02  0.25497670425E+02  0.51100000000E-03 0.  1.
         12    1    3    3    0    0 -0.62331954448E+01 -0.36974363265E+01  0.75040264859E+01  0.10432361878E+02  0.00000000000E+00 0. -1.
</event>
<event>
 7    1  0.2243370E-008  0.4614232E+02  0.7816164E-02  0.1320468E+00
        -11   -1    0    0    0    0  0.00000000000E+00  0.00000000000E+00  0.45593999997E+02  0.45594000000E+02  0.51100000000E-03 0.  1.
         11   -1    0    0    0    0 -0.00000000000E+00 -0.00000000000E+00 -0.45593999997E+02  0.45594000000E+02  0.51100000000E-03 0. -1.
    9900012    2    1    2    0    0  0.20039584010E+02 -0.40208894499E+02 -0.32822749841E+01  0.46142318151E+02  0.10000003558E+02 0.  0.
         12    1    1    2    0    0 -0.20039584010E+02  0.40208894499E+02  0.32822749841E+01  0.45045681849E+02  0.00000000000E+00 0. -1.
         11    1    3    3    0    0  0.14993331415E+02 -0.27993596765E+02  0.75769825299E+00  0.31765005173E+02  0.51100000000E-03 0.  1.
        -11    1    3    3    0    0  0.25927769285E+01 -0.91906096978E+01 -0.13506697448E+01  0.96443821907E+01  0.51100000000E-03 0. -1.
         12    1    3    3    0    0  0.24534756667E+01 -0.30246880362E+01 -0.26893034923E+01  0.47329307873E+01  0.00000000000E+00 0. -1.
</event>
<event>
 7    1  0.2243370E-008  0.4614232E+02  0.7816164E-02  0.1320468E+00
        -11   -1    0    0    0    0  0.00000000000E+00  0.00000000000E+00  0.45593999997E+02  0.45594000000E+02  0.51100000000E-03 0.  1.
         11   -1    0    0    0    0 -0.00000000000E+00 -0.00000000000E+00 -0.45593999997E+02  0.45594000000E+02  0.51100000000E-03 0. -1.
    9900012    2    1    2    0    0  0.37920311155E+02  0.16852161224E+02  0.17526214170E+02  0.46142317419E+02  0.99999968808E+01 0.  0.
         12    1    1    2    0    0 -0.37920311155E+02 -0.16852161224E+02 -0.17526214170E+02  0.45045682581E+02  0.00000000000E+00 0. -1.
         11    1    3    3    0    0  0.10844482721E+01  0.18690884192E+01  0.31221752274E+01  0.37970380543E+01  0.51100000000E-03 0. -1.
        -11    1    3    3    0    0  0.22478261635E+02  0.81489728079E+01  0.82027703947E+01  0.25277726289E+02  0.51100000000E-03 0.  1.
         12    1    3    3    0    0  0.14357601248E+02  0.68340999966E+01  0.62012685482E+01  0.17067553075E+02  0.00000000000E+00 0. -1.
</event>
<event>
 7    1  0.2243370E-008  0.4614232E+02  0.7816164E-02  0.1320468E+00
        -11   -1    0    0    0    0  0.00000000000E+00  0.00000000000E+00  0.45593999997E+02  0.45594000000E+02  0.51100000000E-03 0.  1.
         11   -1    0    0    0    0 -0.00000000000E+00 -0.00000000000E+00 -0.45593999997E+02  0.45594000000E+02  0.51100000000E-03 0. -1.
    9900012    2    1    2    0    0  0.13484813258E+02 -0.14112445837E+02  0.40596947788E+02  0.46142317789E+02  0.10000000257E+02 0.  0.
         12    1    1    2    0    0 -0.13484813258E+02  0.14112445837E+02 -0.40596947788E+02  0.45045682211E+02  0.00000000000E+00 0. -1.
         11    1    3    3    0    0 -0.39881896132E+00 -0.48390738668E-01 -0.33355962216E+00  0.52216904365E+00  0.51100000000E-03 0. -1.
        -11    1    3    3    0    0  0.73328479130E+00  0.17044139752E+00  0.18907459446E+01  0.20351111378E+01  0.51100000000E-03 0.  1.
        -12    1    3    3    0    0  0.13150347428E+02 -0.14234496495E+02  0.39039761466E+02  0.43585037608E+02  0.00000000000E+00 0.  1.
</event>
<event>
 7    1  0.2243370E-008  0.4614232E+02  0.7816164E-02  0.1320468E+00
        -11   -1    0    0    0    0  0.00000000000E+00  0.00000000000E+00  0.45593999997E+02  0.45594000000E+02  0.51100000000E-03 0.  1.
         11   -1    0    0    0    0 -0.00000000000E+00 -0.00000000000E+00 -0.45593999997E+02  0.45594000000E+02  0.51100000000E-03 0. -1.
    9900012    2    1    2    0    0 -0.30980008214E+02 -0.20368530826E+02  0.25582717293E+02  0.46142318952E+02  0.10000010862E+02 0.  0.
         12    1    1    2    0    0  0.30980008214E+02  0.20368530826E+02 -0.25582717293E+02  0.45045681048E+02  0.00000000000E+00 0. -1.
         11    1    3    3    0    0 -0.10277190046E+02 -0.81675468683E+01  0.12934712783E+02  0.18429222776E+02  0.51100000000E-03 0. -1.
        -11    1    3    3    0    0 -0.23523199144E+01 -0.61013798284E+00 -0.28606640227E+00  0.24469392280E+01  0.51100000000E-03 0.  1.
        -12    1    3    3    0    0 -0.18350498253E+02 -0.11590845975E+02  0.12934070912E+02  0.25266156948E+02  0.00000000000E+00 0.  1.
</event>
<event>
 7    1  0.2243370E-008  0.4614232E+02  0.7816164E-02  0.1320468E+00
        -11   -1    0    0    0    0  0.00000000000E+00  0.00000000000E+00  0.45593999997E+02  0.45594000000E+02  0.51100000000E-03 0.  1.
         11   -1    0    0    0    0 -0.00000000000E+00 -0.00000000000E+00 -0.45593999997E+02  0.45594000000E+02  0.51100000000E-03 0. -1.
    9900012    2    1    2    0    0  0.14125356126E+02 -0.18778473462E+02  0.38431195174E+02  0.46142317479E+02  0.99999974310E+01 0.  0.
         12    1    1    2    0    0 -0.14125356126E+02  0.18778473462E+02 -0.38431195174E+02  0.45045682521E+02  0.00000000000E+00 0. -1.
         11    1    3    3    0    0 -0.10418296760E+01 -0.32529680002E+01  0.34818040198E+01  0.48775167224E+01  0.51100000000E-03 0. -1.
        -11    1    3    3    0    0  0.50004080478E+01 -0.68258873474E+01  0.15460114457E+02  0.17624186733E+02  0.51100000000E-03 0.  1.
         12    1    3    3    0    0  0.10166777754E+02 -0.86996181146E+01  0.19489276697E+02  0.23640614024E+02  0.00000000000E+00 0. -1.
</event>
<event>
 7    1  0.2243370E-008  0.4614232E+02  0.7816164E-02  0.1320468E+00
        -11   -1    0    0    0    0  0.00000000000E+00  0.00000000000E+00  0.45593999997E+02  0.45594000000E+02  0.51100000000E-03 0.  1.
         11   -1    0    0    0    0 -0.00000000000E+00 -0.00000000000E+00 -0.45593999997E+02  0.45594000000E+02  0.51100000000E-03 0. -1.
    9900012    2    1    2    0    0  0.30508358811E+02 -0.30924429749E+02  0.11917766685E+02  0.46142317905E+02  0.10000001312E+02 0.  0.
         12    1    1    2    0    0 -0.30508358811E+02  0.30924429749E+02 -0.11917766685E+02  0.45045682095E+02  0.00000000000E+00 0. -1.
         11    1    3    3    0    0  0.83755676971E+00 -0.33883665689E+01  0.13139810628E+01  0.37294873431E+01  0.51100000000E-03 0. -1.
        -11    1    3    3    0    0  0.16907247549E+02 -0.19811238873E+02  0.52984679822E+01  0.26578449326E+02  0.51100000000E-03 0.  1.
        -12    1    3    3    0    0  0.12763554493E+02 -0.77248243071E+01  0.53053176398E+01  0.15834381236E+02  0.00000000000E+00 0.  1.
</event>
<event>
 7    1  0.2243370E-008  0.4614232E+02  0.7816164E-02  0.1320468E+00
        -11   -1    0    0    0    0  0.00000000000E+00  0.00000000000E+00  0.45593999997E+02  0.45594000000E+02  0.51100000000E-03 0.  1.
         11   -1    0    0    0    0 -0.00000000000E+00 -0.00000000000E+00 -0.45593999997E+02  0.45594000000E+02  0.51100000000E-03 0. -1.
    9900012    2    1    2    0    0  0.17642940290E+02  0.37438503913E+02  0.17781972872E+02  0.46142317892E+02  0.10000001195E+02 0.  0.
         12    1    1    2    0    0 -0.17642940290E+02 -0.37438503913E+02 -0.17781972872E+02  0.45045682108E+02  0.00000000000E+00 0. -1.
         11    1    3    3    0    0  0.15676552557E+01  0.14408416742E+01  0.64405539190E+00  0.22244944009E+01  0.51100000000E-03 0. -1.
        -11    1    3    3    0    0  0.12377546796E+02  0.26544244048E+02  0.82557462908E+01  0.30429556419E+02  0.51100000000E-03 0.  1.
         12    1    3    3    0    0  0.36977382382E+01  0.94534181906E+01  0.88821711894E+01  0.13488267072E+02  0.00000000000E+00 0. -1.
</event>
<event>
 7    1  0.2243370E-008  0.4614232E+02  0.7816164E-02  0.1320468E+00
        -11   -1    0    0    0    0  0.00000000000E+00  0.00000000000E+00  0.45593999997E+02  0.45594000000E+02  0.51100000000E-03 0.  1.
         11   -1    0    0    0    0 -0.00000000000E+00 -0.00000000000E+00 -0.45593999997E+02  0.45594000000E+02  0.51100000000E-03 0. -1.
    9900012    2    1    2    0    0  0.96049287272E+01  0.37886023415E+02  0.22394375659E+02  0.46142317774E+02  0.10000000116E+02 0.  0.
         12    1    1    2    0    0 -0.96049287272E+01 -0.37886023415E+02 -0.22394375659E+02  0.45045682226E+02  0.00000000000E+00 0. -1.
         11    1    3    3    0    0  0.42717383601E+01  0.68713312351E+01  0.62043930790E+01  0.10195951908E+02  0.51100000000E-03 0. -1.
        -11    1    3    3    0    0  0.17234145988E+01  0.86006173913E+01  0.78150246257E+01  0.11747995044E+02  0.51100000000E-03 0.  1.
        -12    1    3    3    0    0  0.36097757683E+01  0.22414074788E+02  0.83749579547E+01  0.24198370823E+02  0.00000000000E+00 0.  1.
</event>
<event>
 7    1  0.2243370E-008  0.4614232E+02  0.7816164E-02  0.1320468E+00
        -11   -1    0    0    0    0  0.00000000000E+00  0.00000000000E+00  0.45593999997E+02  0.45594000000E+02  0.51100000000E-03 0. -1.
         11   -1    0    0    0    0 -0.00000000000E+00 -0.00000000000E+00 -0.45593999997E+02  0.45594000000E+02  0.51100000000E-03 0.  1.
    9900012    2    1    2    0    0  0.22354058923E+02 -0.38019867001E+02 -0.91596198083E+01  0.46142324601E+02  0.10000062368E+02 0.  0.
         12    1    1    2    0    0 -0.22354058923E+02  0.38019867001E+02  0.91596198083E+01  0.45045675399E+02  0.00000000000E+00 0. -1.
         11    1    3    3    0    0  0.73080942511E+00 -0.81802666600E+00 -0.11552640720E+01  0.15930741914E+01  0.51100000000E-03 0.  1.
        -11    1    3    3    0    0  0.12114574828E+02 -0.12808464959E+02 -0.37546380587E+01  0.18025454365E+02  0.51100000000E-03 0. -1.
         12    1    3    3    0    0  0.95086746706E+01 -0.24393375377E+02 -0.42497176776E+01  0.26523796044E+02  0.00000000000E+00 0. -1.
</event>
<event>
 7    1  0.2243370E-008  0.4614232E+02  0.7816164E-02  0.1320468E+00
        -11   -1    0    0    0    0  0.00000000000E+00  0.00000000000E+00  0.45593999997E+02  0.45594000000E+02  0.51100000000E-03 0.  1.
         11   -1    0    0    0    0 -0.00000000000E+00 -0.00000000000E+00 -0.45593999997E+02  0.45594000000E+02  0.51100000000E-03 0. -1.
    9900012    2    1    2    0    0 -0.91651685733E+01 -0.44098372854E+02 -0.66834076003E+00  0.46142317823E+02  0.10000000568E+02 0.  0.
         12    1    1    2    0    0  0.91651685733E+01  0.44098372854E+02  0.66834076003E+00  0.45045682177E+02  0.00000000000E+00 0. -1.
         11    1    3    3    0    0 -0.51780930570E+01 -0.10208550627E+02 -0.24959634757E+01  0.11715672731E+02  0.51100000000E-03 0. -1.
        -11    1    3    3    0    0 -0.27192551967E+01 -0.31823496575E+02  0.14428780077E+01  0.31972037475E+02  0.51100000000E-03 0.  1.
        -12    1    3    3    0    0 -0.12678203196E+01 -0.20663256524E+01  0.38474470795E+00  0.24546076173E+01  0.00000000000E+00 0.  1.
</event>
<event>
 7    1  0.2243370E-008  0.4614232E+02  0.7816164E-02  0.1320468E+00
        -11   -1    0    0    0    0  0.00000000000E+00  0.00000000000E+00  0.45593999997E+02  0.45594000000E+02  0.51100000000E-03 0.  1.
         11   -1    0    0    0    0 -0.00000000000E+00 -0.00000000000E+00 -0.45593999997E+02  0.45594000000E+02  0.51100000000E-03 0. -1.
    9900012    2    1    2    0    0  0.24705283816E+02  0.71377383080E+01  0.36983985709E+02  0.46142317016E+02  0.99999932044E+01 0.  0.
         12    1    1    2    0    0 -0.24705283816E+02 -0.71377383080E+01 -0.36983985709E+02  0.45045682984E+02  0.00000000000E+00 0. -1.
         11    1    3    3    0    0  0.17560997788E+02  0.63993490425E+01  0.24045309092E+02  0.30455167067E+02  0.51100000000E-03 0. -1.
        -11    1    3    3    0    0  0.51782978023E+01  0.27760435572E+01  0.10054941203E+02  0.11645730068E+02  0.51100000000E-03 0.  1.
         12    1    3    3    0    0  0.19659882253E+01 -0.20376542917E+01  0.28837354137E+01  0.40414198806E+01  0.00000000000E+00 0. -1.
</event>
<event>
 7    1  0.2243370E-008  0.4614232E+02  0.7816164E-02  0.1320468E+00
        -11   -1    0    0    0    0  0.00000000000E+00  0.00000000000E+00  0.45593999997E+02  0.45594000000E+02  0.51100000000E-03 0. -1.
         11   -1    0    0    0    0 -0.00000000000E+00 -0.00000000000E+00 -0.45593999997E+02  0.45594000000E+02  0.51100000000E-03 0.  1.
    9900012    2    1    2    0    0  0.37246811420E+02 -0.10493580228E+02 -0.23058037367E+02  0.46142320138E+02  0.10000021677E+02 0.  0.
         12    1    1    2    0    0 -0.37246811420E+02  0.10493580228E+02  0.23058037367E+02  0.45045679862E+02  0.00000000000E+00 0. -1.
         11    1    3    3    0    0  0.12093804439E+02 -0.18775981506E+01 -0.87137242992E+01  0.15023796859E+02  0.51100000000E-03 0. -1.
        -11    1    3    3    0    0  0.11253066390E+02 -0.28263285474E+00 -0.74979146103E+01  0.13525165739E+02  0.51100000000E-03 0.  1.
         12    1    3    3    0    0  0.13899940591E+02 -0.83333492229E+01 -0.68463984575E+01  0.17593357540E+02  0.00000000000E+00 0. -1.
</event>
<event>
 7    1  0.2243370E-008  0.4614232E+02  0.7816164E-02  0.1320468E+00
        -11   -1    0    0    0    0  0.00000000000E+00  0.00000000000E+00  0.45593999997E+02  0.45594000000E+02  0.51100000000E-03 0.  1.
         11   -1    0    0    0    0 -0.00000000000E+00 -0.00000000000E+00 -0.45593999997E+02  0.45594000000E+02  0.51100000000E-03 0. -1.
    9900012    2    1    2    0    0 -0.13540099930E+02  0.42556037673E+02  0.58959987556E+01  0.46142318189E+02  0.10000003899E+02 0.  0.
         12    1    1    2    0    0  0.13540099930E+02 -0.42556037673E+02 -0.58959987556E+01  0.45045681811E+02  0.00000000000E+00 0. -1.
         11    1    3    3    0    0  0.40364083956E+00  0.26307517435E+01 -0.10097291281E+01  0.28466355292E+01  0.51100000000E-03 0. -1.
        -11    1    3    3    0    0 -0.28059650014E+01  0.12842954517E+02  0.45777104204E+01  0.13920141998E+02  0.51100000000E-03 0.  1.
         12    1    3    3    0    0 -0.11137775768E+02  0.27082331413E+02  0.23280174633E+01  0.29375540661E+02  0.00000000000E+00 0. -1.
</event>
<event>
 7    1  0.2243370E-008  0.4614232E+02  0.7816164E-02  0.1320468E+00
        -11   -1    0    0    0    0  0.00000000000E+00  0.00000000000E+00  0.45593999997E+02  0.45594000000E+02  0.51100000000E-03 0. -1.
         11   -1    0    0    0    0 -0.00000000000E+00 -0.00000000000E+00 -0.45593999997E+02  0.45594000000E+02  0.51100000000E-03 0.  1.
    9900012    2    1    2    0    0 -0.38659356325E+02 -0.61353363634E+01  0.22291822235E+02  0.46142317385E+02  0.99999965660E+01 0.  0.
         12    1    1    2    0    0  0.38659356325E+02  0.61353363634E+01 -0.22291822235E+02  0.45045682615E+02  0.00000000000E+00 0. -1.
         11    1    3    3    0    0 -0.16420962615E+02  0.10087353663E+01  0.63206698583E+01  0.17624313545E+02  0.51100000000E-03 0.  1.
        -11    1    3    3    0    0 -0.17678006525E+02 -0.41749617202E+01  0.12778335924E+02  0.22208739030E+02  0.51100000000E-03 0. -1.
        -12    1    3    3    0    0 -0.45603871848E+01 -0.29691100096E+01  0.31928164529E+01  0.63092648086E+01  0.00000000000E+00 0.  1.
</event>
<event>
 7    1  0.2243370E-008  0.4614231E+02  0.7816164E-02  0.1320468E+00
        -11   -1    0    0    0    0  0.00000000000E+00  0.00000000000E+00  0.45593999997E+02  0.45594000000E+02  0.51100000000E-03 0.  1.
         11   -1    0    0    0    0 -0.00000000000E+00 -0.00000000000E+00 -0.45593999997E+02  0.45594000000E+02  0.51100000000E-03 0. -1.
    9900012    2    1    2    0    0  0.16731840005E+02  0.28417263662E+02  0.30685801399E+02  0.46142314840E+02  0.99999733655E+01 0.  0.
         12    1    1    2    0    0 -0.16731840005E+02 -0.28417263662E+02 -0.30685801399E+02  0.45045685160E+02  0.00000000000E+00 0. -1.
         11    1    3    3    0    0  0.95923489535E+01  0.10453591476E+02  0.13225559648E+02  0.19396034684E+02  0.51100000000E-03 0. -1.
        -11    1    3    3    0    0  0.53857675636E+00  0.36665662918E+01  0.67547341878E+01  0.77045575800E+01  0.51100000000E-03 0.  1.
         12    1    3    3    0    0  0.66009142953E+01  0.14297105894E+02  0.10705507563E+02  0.19041722576E+02  0.00000000000E+00 0. -1.
</event>
<event>
 7    1  0.2243370E-008  0.4614232E+02  0.7816164E-02  0.1320468E+00
        -11   -1    0    0    0    0  0.00000000000E+00  0.00000000000E+00  0.45593999997E+02  0.45594000000E+02  0.51100000000E-03 0.  1.
         11   -1    0    0    0    0 -0.00000000000E+00 -0.00000000000E+00 -0.45593999997E+02  0.45594000000E+02  0.51100000000E-03 0. -1.
    9900012    2    1    2    0    0 -0.94742299829E+01 -0.37406239653E+02  0.23240600637E+02  0.46142319667E+02  0.10000017379E+02 0.  0.
         12    1    1    2    0    0  0.94742299829E+01  0.37406239653E+02 -0.23240600637E+02  0.45045680333E+02  0.00000000000E+00 0. -1.
         11    1    3    3    0    0 -0.87045894070E+00 -0.12542558049E+02  0.92554747513E+01  0.15612087443E+02  0.51100000000E-03 0. -1.
        -11    1    3    3    0    0 -0.59329272634E+01 -0.17756677418E+02  0.13179362891E+02  0.22895301381E+02  0.51100000000E-03 0.  1.
         12    1    3    3    0    0 -0.26708437787E+01 -0.71070041857E+01  0.80576299404E+00  0.76349308437E+01  0.00000000000E+00 0. -1.
</event>
<event>
 7    1  0.2243370E-008  0.4614232E+02  0.7816164E-02  0.1320468E+00
        -11   -1    0    0    0    0  0.00000000000E+00  0.00000000000E+00  0.45593999997E+02  0.45594000000E+02  0.51100000000E-03 0.  1.
         11   -1    0    0    0    0 -0.00000000000E+00 -0.00000000000E+00 -0.45593999997E+02  0.45594000000E+02  0.51100000000E-03 0. -1.
    9900012    2    1    2    0    0 -0.46595281271E+01 -0.88623123217E+00  0.44795275973E+02  0.46142319212E+02  0.10000013231E+02 0.  0.
         12    1    1    2    0    0  0.46595281271E+01  0.88623123217E+00 -0.44795275973E+02  0.45045680788E+02  0.00000000000E+00 0. -1.
         11    1    3    3    0    0  0.98710569247E+00 -0.63437395048E+00  0.30228390156E+02  0.30251155013E+02  0.51100000000E-03 0. -1.
        -11    1    3    3    0    0 -0.23934459938E+01 -0.10648539539E+01  0.91747742886E+01  0.95414349643E+01  0.51100000000E-03 0.  1.
         12    1    3    3    0    0 -0.32531878258E+01  0.81299667226E+00  0.53921115280E+01  0.63497292344E+01  0.00000000000E+00 0. -1.
</event>
<event>
 7    1  0.2243370E-008  0.4614232E+02  0.7816164E-02  0.1320468E+00
        -11   -1    0    0    0    0  0.00000000000E+00  0.00000000000E+00  0.45593999997E+02  0.45594000000E+02  0.51100000000E-03 0.  1.
         11   -1    0    0    0    0 -0.00000000000E+00 -0.00000000000E+00 -0.45593999997E+02  0.45594000000E+02  0.51100000000E-03 0. -1.
    9900012    2    1    2    0    0  0.38520601976E+02  0.20063255864E+02  0.11947479141E+02  0.46142320181E+02  0.10000022069E+02 0.  0.
         12    1    1    2    0    0 -0.38520601976E+02 -0.20063255864E+02 -0.11947479141E+02  0.45045679819E+02  0.00000000000E+00 0. -1.
         11    1    3    3    0    0  0.21867338097E+02  0.72348009955E+01  0.83884931526E+01  0.24513050371E+02  0.51100000000E-03 0. -1.
        -11    1    3    3    0    0  0.15769673436E+02  0.11658667662E+02  0.41550450444E+01  0.20046733687E+02  0.51100000000E-03 0.  1.
         12    1    3    3    0    0  0.88359044343E+00  0.11697872074E+01 -0.59605905605E+00  0.15825361230E+01  0.00000000000E+00 0. -1.
</event>
<event>
 7    1  0.2243370E-008  0.4614232E+02  0.7816164E-02  0.1320468E+00
        -11   -1    0    0    0    0  0.00000000000E+00  0.00000000000E+00  0.45593999997E+02  0.45594000000E+02  0.51100000000E-03 0.  1.
         11   -1    0    0    0    0 -0.00000000000E+00 -0.00000000000E+00 -0.45593999997E+02  0.45594000000E+02  0.51100000000E-03 0. -1.
    9900012    2    1    2    0    0 -0.15009271980E+02 -0.42082087220E+02 -0.57387375750E+01  0.46142318530E+02  0.10000007009E+02 0.  0.
         12    1    1    2    0    0  0.15009271980E+02  0.42082087220E+02  0.57387375750E+01  0.45045681470E+02  0.00000000000E+00 0. -1.
         11    1    3    3    0    0 -0.48987849871E+01 -0.10482605856E+02 -0.41566682729E+01  0.12294755438E+02  0.51100000000E-03 0. -1.
        -11    1    3    3    0    0 -0.78910169306E+01 -0.14715286763E+02 -0.19724884599E+01  0.16813641000E+02  0.51100000000E-03 0.  1.
        -12    1    3    3    0    0 -0.22194700619E+01 -0.16884194602E+02  0.39041915785E+00  0.17033922092E+02  0.00000000000E+00 0.  1.
</event>
<event>
 7    1  0.2243370E-008  0.4614232E+02  0.7816164E-02  0.1320468E+00
        -11   -1    0    0    0    0  0.00000000000E+00  0.00000000000E+00  0.45593999997E+02  0.45594000000E+02  0.51100000000E-03 0.  1.
         11   -1    0    0    0    0 -0.00000000000E+00 -0.00000000000E+00 -0.45593999997E+02  0.45594000000E+02  0.51100000000E-03 0. -1.
    9900012    2    1    2    0    0 -0.87405976238E+01  0.19459437608E+02  0.39674245272E+02  0.46142317668E+02  0.99999991526E+01 0.  0.
         12    1    1    2    0    0  0.87405976238E+01 -0.19459437608E+02 -0.39674245272E+02  0.45045682332E+02  0.00000000000E+00 0. -1.
         11    1    3    3    0    0 -0.16377687143E+01  0.50478818363E+01  0.78923421908E+01  0.95106499732E+01  0.51100000000E-03 0.  1.
        -11    1    3    3    0    0 -0.87971101780E+01  0.91747529414E+01  0.22257470086E+02  0.25631235122E+02  0.51100000000E-03 0. -1.
        -12    1    3    3    0    0  0.16942812685E+01  0.52368028304E+01  0.95244329956E+01  0.11000432573E+02  0.00000000000E+00 0.  1.
</event>
<event>
 7    1  0.2243370E-008  0.4614232E+02  0.7816164E-02  0.1320468E+00
        -11   -1    0    0    0    0  0.00000000000E+00  0.00000000000E+00  0.45593999997E+02  0.45594000000E+02  0.51100000000E-03 0. -1.
         11   -1    0    0    0    0 -0.00000000000E+00 -0.00000000000E+00 -0.45593999997E+02  0.45594000000E+02  0.51100000000E-03 0.  1.
    9900012    2    1    2    0    0  0.39921510747E+01 -0.41352199789E+02 -0.17411827350E+02  0.46142318417E+02  0.10000005982E+02 0.  0.
         12    1    1    2    0    0 -0.39921510747E+01  0.41352199789E+02  0.17411827350E+02  0.45045681583E+02  0.00000000000E+00 0. -1.
         11    1    3    3    0    0 -0.11710529194E+01 -0.16086261476E+02 -0.54663708476E+01  0.17029984842E+02  0.51100000000E-03 0. -1.
        -11    1    3    3    0    0  0.21254969570E+01 -0.64691666664E+01 -0.34907655695E+00  0.68183362615E+01  0.51100000000E-03 0.  1.
        -12    1    3    3    0    0  0.30377070370E+01 -0.18796771647E+02 -0.11596379945E+02  0.22293997314E+02  0.00000000000E+00 0.  1.
</event>
<event>
 7    1  0.2243370E-008  0.4614232E+02  0.7816164E-02  0.1320468E+00
        -11   -1    0    0    0    0  0.00000000000E+00  0.00000000000E+00  0.45593999997E+02  0.45594000000E+02  0.51100000000E-03 0.  1.
         11   -1    0    0    0    0 -0.00000000000E+00 -0.00000000000E+00 -0.45593999997E+02  0.45594000000E+02  0.51100000000E-03 0. -1.
    9900012    2    1    2    0    0  0.20406260040E+01 -0.41913743844E+01  0.44803813595E+02  0.46142317783E+02  0.10000000203E+02 0.  0.
         12    1    1    2    0    0 -0.20406260040E+01  0.41913743844E+01 -0.44803813595E+02  0.45045682217E+02  0.00000000000E+00 0. -1.
         11    1    3    3    0    0  0.39097569611E+01 -0.11432894949E+01  0.17303046172E+02  0.17776071486E+02  0.51100000000E-03 0. -1.
        -11    1    3    3    0    0  0.13821261974E+01  0.10561705048E+00  0.15111537905E+02  0.15174979602E+02  0.51100000000E-03 0.  1.
         12    1    3    3    0    0 -0.32512571545E+01 -0.31537019400E+01  0.12389229517E+02  0.13191266696E+02  0.00000000000E+00 0. -1.
</event>
<event>
 7    1  0.2243370E-008  0.4614232E+02  0.7816164E-02  0.1320468E+00
        -11   -1    0    0    0    0  0.00000000000E+00  0.00000000000E+00  0.45593999997E+02  0.45594000000E+02  0.51100000000E-03 0.  1.
         11   -1    0    0    0    0 -0.00000000000E+00 -0.00000000000E+00 -0.45593999997E+02  0.45594000000E+02  0.51100000000E-03 0. -1.
    9900012    2    1    2    0    0  0.31899597561E+02  0.30936124261E+02 -0.73814188098E+01  0.46142318159E+02  0.10000003628E+02 0.  0.
         12    1    1    2    0    0 -0.31899597561E+02 -0.30936124261E+02  0.73814188098E+01  0.45045681841E+02  0.00000000000E+00 0. -1.
         11    1    3    3    0    0  0.71512816787E+01  0.24618313825E+01 -0.14853161911E+00  0.75646219540E+01  0.51100000000E-03 0. -1.
        -11    1    3    3    0    0  0.12279716190E+02  0.13231618986E+02 -0.17530362100E+01  0.18136711579E+02  0.51100000000E-03 0.  1.
         12    1    3    3    0    0  0.12468599693E+02  0.15242673892E+02 -0.54798509808E+01  0.20440984626E+02  0.00000000000E+00 0. -1.
</event>
<event>
 7    1  0.2243370E-008  0.4614232E+02  0.7816164E-02  0.1320468E+00
        -11   -1    0    0    0    0  0.00000000000E+00  0.00000000000E+00  0.45593999997E+02  0.45594000000E+02  0.51100000000E-03 0.  1.
         11   -1    0    0    0    0 -0.00000000000E+00 -0.00000000000E+00 -0.45593999997E+02  0.45594000000E+02  0.51100000000E-03 0. -1.
    9900012    2    1    2    0    0 -0.41152211270E+02  0.63726621432E+01 -0.17175509743E+02  0.46142318185E+02  0.10000003867E+02 0.  0.
         12    1    1    2    0    0  0.41152211270E+02 -0.63726621432E+01  0.17175509743E+02  0.45045681815E+02  0.00000000000E+00 0. -1.
         11    1    3    3    0    0 -0.16998400138E+02  0.18481486875E+01 -0.34949702282E+01  0.17452108124E+02  0.51100000000E-03 0. -1.
        -11    1    3    3    0    0 -0.14548941287E+02  0.29909043305E+01 -0.50544462368E+01  0.15689634422E+02  0.51100000000E-03 0.  1.
         12    1    3    3    0    0 -0.96048698452E+01  0.15336091252E+01 -0.86260932779E+01  0.13000575639E+02  0.00000000000E+00 0. -1.
</event>
<event>
 7    1  0.2243370E-008  0.4614232E+02  0.7816164E-02  0.1320468E+00
        -11   -1    0    0    0    0  0.00000000000E+00  0.00000000000E+00  0.45593999997E+02  0.45594000000E+02  0.51100000000E-03 0. -1.
         11   -1    0    0    0    0 -0.00000000000E+00 -0.00000000000E+00 -0.45593999997E+02  0.45594000000E+02  0.51100000000E-03 0.  1.
    9900012    2    1    2    0    0 -0.84095295028E+01 -0.37784499544E+02 -0.23037467333E+02  0.46142317706E+02  0.99999994945E+01 0.  0.
         12    1    1    2    0    0  0.84095295028E+01  0.37784499544E+02  0.23037467333E+02  0.45045682294E+02  0.00000000000E+00 0. -1.
         11    1    3    3    0    0  0.71089520363E+00 -0.32517219073E+01 -0.12426098677E+01  0.35529068236E+01  0.51100000000E-03 0. -1.
        -11    1    3    3    0    0 -0.46815804524E+00 -0.13349148735E+02 -0.10926224887E+02  0.17256921349E+02  0.51100000000E-03 0.  1.
        -12    1    3    3    0    0 -0.86522666612E+01 -0.21183628902E+02 -0.10868632578E+02  0.25332489533E+02  0.00000000000E+00 0.  1.
</event>
<event>
 7    1  0.2243370E-008  0.4614231E+02  0.7816164E-02  0.1320468E+00
        -11   -1    0    0    0    0  0.00000000000E+00  0.00000000000E+00  0.45593999997E+02  0.45594000000E+02  0.51100000000E-03 0.  1.
         11   -1    0    0    0    0 -0.00000000000E+00 -0.00000000000E+00 -0.45593999997E+02  0.45594000000E+02  0.51100000000E-03 0. -1.
    9900012    2    1    2    0    0 -0.28811651898E+02  0.33103283359E+02 -0.10157515701E+02  0.46142314530E+02  0.99999705367E+01 0.  0.
         12    1    1    2    0    0  0.28811651898E+02 -0.33103283359E+02  0.10157515701E+02  0.45045685470E+02  0.00000000000E+00 0. -1.
         11    1    3    3    0    0 -0.49933103341E+01  0.89855780638E+01  0.46331313060E+00  0.10290209937E+02  0.51100000000E-03 0. -1.
        -11    1    3    3    0    0 -0.14542827034E+01  0.29396247401E+00  0.30206715169E-01  0.14840029731E+01  0.51100000000E-03 0.  1.
        -12    1    3    3    0    0 -0.22364058861E+02  0.23823742821E+02 -0.10651035546E+02  0.34368101620E+02  0.00000000000E+00 0.  1.
</event>
<event>
 7    1  0.2243370E-008  0.4614232E+02  0.7816164E-02  0.1320468E+00
        -11   -1    0    0    0    0  0.00000000000E+00  0.00000000000E+00  0.45593999997E+02  0.45594000000E+02  0.51100000000E-03 0. -1.
         11   -1    0    0    0    0 -0.00000000000E+00 -0.00000000000E+00 -0.45593999997E+02  0.45594000000E+02  0.51100000000E-03 0.  1.
    9900012    2    1    2    0    0 -0.32004407757E+02  0.16450539016E+02 -0.27096330352E+02  0.46142317983E+02  0.10000002027E+02 0.  0.
         12    1    1    2    0    0  0.32004407757E+02 -0.16450539016E+02  0.27096330352E+02  0.45045682017E+02  0.00000000000E+00 0. -1.
         11    1    3    3    0    0 -0.21315818467E+02  0.10835632260E+02 -0.20021564007E+02  0.31187145893E+02  0.51100000000E-03 0. -1.
        -11    1    3    3    0    0 -0.96329494555E+01  0.54566030784E+01 -0.41188385580E+01  0.11812411426E+02  0.51100000000E-03 0.  1.
         12    1    3    3    0    0 -0.10556398348E+01  0.15830367755E+00 -0.29559277868E+01  0.31427606648E+01  0.00000000000E+00 0. -1.
</event>
<event>
 7    1  0.2243370E-008  0.4614232E+02  0.7816164E-02  0.1320468E+00
        -11   -1    0    0    0    0  0.00000000000E+00  0.00000000000E+00  0.45593999997E+02  0.45594000000E+02  0.51100000000E-03 0.  1.
         11   -1    0    0    0    0 -0.00000000000E+00 -0.00000000000E+00 -0.45593999997E+02  0.45594000000E+02  0.51100000000E-03 0. -1.
    9900012    2    1    2    0    0  0.25078818405E+02  0.34232096404E+02  0.15110590773E+02  0.46142317518E+02  0.99999977825E+01 0.  0.
         12    1    1    2    0    0 -0.25078818405E+02 -0.34232096404E+02 -0.15110590773E+02  0.45045682482E+02  0.00000000000E+00 0. -1.
         11    1    3    3    0    0  0.90715278151E+01  0.71040906846E+01  0.22786317915E+01  0.11745334583E+02  0.51100000000E-03 0. -1.
        -11    1    3    3    0    0  0.94445076798E+00  0.48190206347E+00  0.13240784350E+01  0.16962903098E+01  0.51100000000E-03 0.  1.
        -12    1    3    3    0    0  0.15062839822E+02  0.26646103656E+02  0.11507880546E+02  0.32700692626E+02  0.00000000000E+00 0.  1.
</event>
<event>
 7    1  0.2243370E-008  0.4614232E+02  0.7816164E-02  0.1320468E+00
        -11   -1    0    0    0    0  0.00000000000E+00  0.00000000000E+00  0.45593999997E+02  0.45594000000E+02  0.51100000000E-03 0.  1.
         11   -1    0    0    0    0 -0.00000000000E+00 -0.00000000000E+00 -0.45593999997E+02  0.45594000000E+02  0.51100000000E-03 0. -1.
    9900012    2    1    2    0    0 -0.21032206350E+01  0.37202227058E+02  0.25311743672E+02  0.46142316490E+02  0.99999884103E+01 0.  0.
         12    1    1    2    0    0  0.21032206350E+01 -0.37202227058E+02 -0.25311743672E+02  0.45045683510E+02  0.00000000000E+00 0. -1.
         11    1    3    3    0    0 -0.30260429846E+01  0.43560386466E+01  0.30753429799E+01  0.61310475076E+01  0.51100000000E-03 0. -1.
        -11    1    3    3    0    0 -0.46842999632E-01  0.21282333807E+02  0.11445065997E+02  0.24164632472E+02  0.51100000000E-03 0.  1.
        -12    1    3    3    0    0  0.96966534918E+00  0.11563854604E+02  0.10791334695E+02  0.15846636511E+02  0.00000000000E+00 0.  1.
</event>
<event>
 7    1  0.2243370E-008  0.4614232E+02  0.7816164E-02  0.1320468E+00
        -11   -1    0    0    0    0  0.00000000000E+00  0.00000000000E+00  0.45593999997E+02  0.45594000000E+02  0.51100000000E-03 0.  1.
         11   -1    0    0    0    0 -0.00000000000E+00 -0.00000000000E+00 -0.45593999997E+02  0.45594000000E+02  0.51100000000E-03 0. -1.
    9900012    2    1    2    0    0 -0.44542395776E+02  0.36385761754E+01  0.56435093603E+01  0.46142318121E+02  0.10000003278E+02 0.  0.
         12    1    1    2    0    0  0.44542395776E+02 -0.36385761754E+01 -0.56435093603E+01  0.45045681879E+02  0.00000000000E+00 0. -1.
         11    1    3    3    0    0 -0.11368274700E+02 -0.24515270547E+01  0.91720742274E+00  0.11665715764E+02  0.51100000000E-03 0. -1.
        -11    1    3    3    0    0 -0.54464630545E+01  0.87570264736E-02  0.25289444580E+01  0.60049643481E+01  0.51100000000E-03 0.  1.
         12    1    3    3    0    0 -0.27727658022E+02  0.60813462037E+01  0.21973574795E+01  0.28471638009E+02  0.00000000000E+00 0. -1.
</event>
<event>
 7    1  0.2243370E-008  0.4614232E+02  0.7816164E-02  0.1320468E+00
        -11   -1    0    0    0    0  0.00000000000E+00  0.00000000000E+00  0.45593999997E+02  0.45594000000E+02  0.51100000000E-03 0.  1.
         11   -1    0    0    0    0 -0.00000000000E+00 -0.00000000000E+00 -0.45593999997E+02  0.45594000000E+02  0.51100000000E-03 0. -1.
    9900012    2    1    2    0    0 -0.32280042402E+02  0.31281367062E+02 -0.29305990159E+01  0.46142317928E+02  0.10000001523E+02 0.  0.
         12    1    1    2    0    0  0.32280042402E+02 -0.31281367062E+02  0.29305990159E+01  0.45045682072E+02  0.00000000000E+00 0. -1.
         11    1    3    3    0    0 -0.67923769043E+01  0.41984620103E+01  0.16365518674E+01  0.81511820945E+01  0.51100000000E-03 0. -1.
        -11    1    3    3    0    0 -0.12315822289E+02  0.86076234841E+01 -0.18289849482E+01  0.15136573156E+02  0.51100000000E-03 0.  1.
        -12    1    3    3    0    0 -0.13171843209E+02  0.18475281567E+02 -0.27381659352E+01  0.22854562678E+02  0.00000000000E+00 0.  1.
</event>
<event>
 7    1  0.2243370E-008  0.4614232E+02  0.7816164E-02  0.1320468E+00
        -11   -1    0    0    0    0  0.00000000000E+00  0.00000000000E+00  0.45593999997E+02  0.45594000000E+02  0.51100000000E-03 0.  1.
         11   -1    0    0    0    0 -0.00000000000E+00 -0.00000000000E+00 -0.45593999997E+02  0.45594000000E+02  0.51100000000E-03 0. -1.
    9900012    2    1    2    0    0 -0.32561905152E+01 -0.41236114602E+02  0.17835177337E+02  0.46142317912E+02  0.10000001375E+02 0.  0.
         12    1    1    2    0    0  0.32561905152E+01  0.41236114602E+02 -0.17835177337E+02  0.45045682088E+02  0.00000000000E+00 0. -1.
         11    1    3    3    0    0  0.25963553261E+00 -0.18856957386E+02  0.10252478861E+02  0.21465450741E+02  0.51100000000E-03 0. -1.
        -11    1    3    3    0    0  0.48391620870E+00 -0.14360786413E+02  0.60292044973E+01  0.15582607883E+02  0.51100000000E-03 0.  1.
         12    1    3    3    0    0 -0.39997422565E+01 -0.80183708033E+01  0.15534939788E+01  0.90942592881E+01  0.00000000000E+00 0. -1.
</event>
<event>
 7    1  0.2243370E-008  0.4614232E+02  0.7816164E-02  0.1320468E+00
        -11   -1    0    0    0    0  0.00000000000E+00  0.00000000000E+00  0.45593999997E+02  0.45594000000E+02  0.51100000000E-03 0.  1.
         11   -1    0    0    0    0 -0.00000000000E+00 -0.00000000000E+00 -0.45593999997E+02  0.45594000000E+02  0.51100000000E-03 0. -1.
    9900012    2    1    2    0    0  0.29333985510E+02 -0.11562317676E+02  0.32170538922E+02  0.46142317960E+02  0.10000001816E+02 0.  0.
         12    1    1    2    0    0 -0.29333985510E+02  0.11562317676E+02 -0.32170538922E+02  0.45045682040E+02  0.00000000000E+00 0. -1.
         11    1    3    3    0    0 -0.11232451373E+00 -0.56066666259E+00  0.19117653858E+01  0.19954475825E+01  0.51100000000E-03 0. -1.
        -11    1    3    3    0    0  0.20948787809E+02 -0.44650088105E+01  0.19772932900E+02  0.29150589876E+02  0.51100000000E-03 0.  1.
         12    1    3    3    0    0  0.84975222142E+01 -0.65366422028E+01  0.10485840635E+02  0.14996280502E+02  0.00000000000E+00 0. -1.
</event>
<event>
 7    1  0.2243370E-008  0.4614232E+02  0.7816164E-02  0.1320468E+00
        -11   -1    0    0    0    0  0.00000000000E+00  0.00000000000E+00  0.45593999997E+02  0.45594000000E+02  0.51100000000E-03 0.  1.
         11   -1    0    0    0    0 -0.00000000000E+00 -0.00000000000E+00 -0.45593999997E+02  0.45594000000E+02  0.51100000000E-03 0. -1.
    9900012    2    1    2    0    0 -0.24371016386E+02  0.37860099367E+02 -0.13341241722E+01  0.46142318175E+02  0.10000003776E+02 0.  0.
         12    1    1    2    0    0  0.24371016386E+02 -0.37860099367E+02  0.13341241722E+01  0.45045681825E+02  0.00000000000E+00 0. -1.
         11    1    3    3    0    0 -0.88114084934E+01  0.16062917380E+02  0.40783184629E+00  0.18325516677E+02  0.51100000000E-03 0.  1.
        -11    1    3    3    0    0 -0.71419991554E+01  0.58939996881E+01  0.19137072654E+01  0.94556681423E+01  0.51100000000E-03 0. -1.
         12    1    3    3    0    0 -0.84176087377E+01  0.15903182298E+02 -0.36556632839E+01  0.18361133356E+02  0.00000000000E+00 0. -1.
</event>
<event>
 7    1  0.2243370E-008  0.4614232E+02  0.7816164E-02  0.1320468E+00
        -11   -1    0    0    0    0  0.00000000000E+00  0.00000000000E+00  0.45593999997E+02  0.45594000000E+02  0.51100000000E-03 0.  1.
         11   -1    0    0    0    0 -0.00000000000E+00 -0.00000000000E+00 -0.45593999997E+02  0.45594000000E+02  0.51100000000E-03 0. -1.
    9900012    2    1    2    0    0  0.80508120757E+01  0.12242818555E+02  0.42595907034E+02  0.46142317884E+02  0.10000001119E+02 0.  0.
         12    1    1    2    0    0 -0.80508120757E+01 -0.12242818555E+02 -0.42595907034E+02  0.45045682116E+02  0.00000000000E+00 0. -1.
         11    1    3    3    0    0 -0.15679903471E+01  0.14179345587E+01  0.10293524770E+02  0.10508367361E+02  0.51100000000E-03 0. -1.
        -11    1    3    3    0    0  0.39455764371E+01  0.71229502511E+01  0.15302927762E+02  0.17334462555E+02  0.51100000000E-03 0.  1.
         12    1    3    3    0    0  0.56732259857E+01  0.37019337450E+01  0.16999454502E+02  0.18299487969E+02  0.00000000000E+00 0. -1.
</event>
<event>
 7    1  0.2243370E-008  0.4614232E+02  0.7816164E-02  0.1320468E+00
        -11   -1    0    0    0    0  0.00000000000E+00  0.00000000000E+00  0.45593999997E+02  0.45594000000E+02  0.51100000000E-03 0.  1.
         11   -1    0    0    0    0 -0.00000000000E+00 -0.00000000000E+00 -0.45593999997E+02  0.45594000000E+02  0.51100000000E-03 0. -1.
    9900012    2    1    2    0    0  0.41291753016E+02  0.11809399261E+02  0.13588331331E+02  0.46142317339E+02  0.99999961474E+01 0.  0.
         12    1    1    2    0    0 -0.41291753016E+02 -0.11809399261E+02 -0.13588331331E+02  0.45045682661E+02  0.00000000000E+00 0. -1.
         11    1    3    3    0    0  0.16795029569E+02  0.91189597935E+01  0.74152340846E+01  0.20499125414E+02  0.51100000000E-03 0. -1.
        -11    1    3    3    0    0  0.34673592243E+01  0.78374687689E+00 -0.27370517587E+00  0.35653546726E+01  0.51100000000E-03 0.  1.
         12    1    3    3    0    0  0.21029364223E+02  0.19066925903E+01  0.64468024226E+01  0.22077837252E+02  0.00000000000E+00 0. -1.
</event>
<event>
 7    1  0.2243370E-008  0.4614232E+02  0.7816164E-02  0.1320468E+00
        -11   -1    0    0    0    0  0.00000000000E+00  0.00000000000E+00  0.45593999997E+02  0.45594000000E+02  0.51100000000E-03 0.  1.
         11   -1    0    0    0    0 -0.00000000000E+00 -0.00000000000E+00 -0.45593999997E+02  0.45594000000E+02  0.51100000000E-03 0. -1.
    9900012    2    1    2    0    0  0.15415626040E+02 -0.21806554639E+02  0.36275972006E+02  0.46142317672E+02  0.99999991869E+01 0.  0.
         12    1    1    2    0    0 -0.15415626040E+02  0.21806554639E+02 -0.36275972006E+02  0.45045682328E+02  0.00000000000E+00 0. -1.
         11    1    3    3    0    0  0.52529728351E+00 -0.28248483872E+01  0.24794230935E+01  0.37951607060E+01  0.51100000000E-03 0. -1.
        -11    1    3    3    0    0  0.11982401171E+02 -0.93501420454E+01  0.17333762375E+02  0.23053468555E+02  0.51100000000E-03 0.  1.
        -12    1    3    3    0    0  0.29079275849E+01 -0.96315642062E+01  0.16462786538E+02  0.19293688411E+02  0.00000000000E+00 0.  1.
</event>
<event>
 7    1  0.2243370E-008  0.4614232E+02  0.7816164E-02  0.1320468E+00
        -11   -1    0    0    0    0  0.00000000000E+00  0.00000000000E+00  0.45593999997E+02  0.45594000000E+02  0.51100000000E-03 0.  1.
         11   -1    0    0    0    0 -0.00000000000E+00 -0.00000000000E+00 -0.45593999997E+02  0.45594000000E+02  0.51100000000E-03 0. -1.
    9900012    2    1    2    0    0  0.16942279407E+02 -0.19641753477E+02  0.36827629582E+02  0.46142316391E+02  0.99999875022E+01 0.  0.
         12    1    1    2    0    0 -0.16942279407E+02  0.19641753477E+02 -0.36827629582E+02  0.45045683609E+02  0.00000000000E+00 0. -1.
         11    1    3    3    0    0  0.19193261127E+00 -0.22251437743E+01  0.98294569712E+00  0.24401404566E+01  0.51100000000E-03 0. -1.
        -11    1    3    3    0    0  0.25303415357E+01 -0.21479061575E+00  0.52515223987E+01  0.58332881860E+01  0.51100000000E-03 0.  1.
        -12    1    3    3    0    0  0.14220005260E+02 -0.17201819087E+02  0.30593161487E+02  0.37868887748E+02  0.00000000000E+00 0.  1.
</event>
<event>
 7    1  0.2243370E-008  0.4614232E+02  0.7816164E-02  0.1320468E+00
        -11   -1    0    0    0    0  0.00000000000E+00  0.00000000000E+00  0.45593999997E+02  0.45594000000E+02  0.51100000000E-03 0.  1.
         11   -1    0    0    0    0 -0.00000000000E+00 -0.00000000000E+00 -0.45593999997E+02  0.45594000000E+02  0.51100000000E-03 0. -1.
    9900012    2    1    2    0    0 -0.68040959362E+01 -0.91325650415E+01  0.43582267491E+02  0.46142317572E+02  0.99999982777E+01 0.  0.
         12    1    1    2    0    0  0.68040959362E+01  0.91325650415E+01 -0.43582267491E+02  0.45045682428E+02  0.00000000000E+00 0. -1.
         11    1    3    3    0    0 -0.48823162165E+00  0.64045872227E+00  0.49745502217E+00  0.94658293431E+00  0.51100000000E-03 0. -1.
        -11    1    3    3    0    0 -0.66079983192E+01 -0.38098509745E+01  0.26125627562E+02  0.27216337410E+02  0.51100000000E-03 0.  1.
         12    1    3    3    0    0  0.29213400465E+00 -0.59631727892E+01  0.16959184907E+02  0.17979397228E+02  0.00000000000E+00 0. -1.
</event>
<event>
 7    1  0.2243370E-008  0.4614232E+02  0.7816164E-02  0.1320468E+00
        -11   -1    0    0    0    0  0.00000000000E+00  0.00000000000E+00  0.45593999997E+02  0.45594000000E+02  0.51100000000E-03 0. -1.
         11   -1    0    0    0    0 -0.00000000000E+00 -0.00000000000E+00 -0.45593999997E+02  0.45594000000E+02  0.51100000000E-03 0.  1.
    9900012    2    1    2    0    0  0.25655995387E+02 -0.33938226252E+02  0.14801358534E+02  0.46142317467E+02  0.99999973179E+01 0.  0.
         12    1    1    2    0    0 -0.25655995387E+02  0.33938226252E+02 -0.14801358534E+02  0.45045682533E+02  0.00000000000E+00 0. -1.
         11    1    3    3    0    0  0.55822475155E+01 -0.11988385547E+02  0.66351226292E+01  0.14795530674E+02  0.51100000000E-03 0. -1.
        -11    1    3    3    0    0  0.21444884940E+01 -0.37863099617E+01 -0.53071878525E+00  0.43836784459E+01  0.51100000000E-03 0.  1.
        -12    1    3    3    0    0  0.17929259377E+02 -0.18163530743E+02  0.86969546904E+01  0.26963108347E+02  0.00000000000E+00 0.  1.
</event>
<event>
 7    1  0.2243370E-008  0.4614232E+02  0.7816164E-02  0.1320468E+00
        -11   -1    0    0    0    0  0.00000000000E+00  0.00000000000E+00  0.45593999997E+02  0.45594000000E+02  0.51100000000E-03 0. -1.
         11   -1    0    0    0    0 -0.00000000000E+00 -0.00000000000E+00 -0.45593999997E+02  0.45594000000E+02  0.51100000000E-03 0.  1.
    9900012    2    1    2    0    0 -0.20480941828E+02 -0.20453451333E+02  0.34515225907E+02  0.46142317976E+02  0.10000001960E+02 0.  0.
         12    1    1    2    0    0  0.20480941828E+02  0.20453451333E+02 -0.34515225907E+02  0.45045682024E+02  0.00000000000E+00 0. -1.
         11    1    3    3    0    0  0.53726086042E+00  0.14729069099E+00  0.12936404597E+00  0.57190829449E+00  0.51100000000E-03 0. -1.
        -11    1    3    3    0    0 -0.36887988404E+01 -0.14852986102E+01  0.61295901855E+01  0.73065193458E+01  0.51100000000E-03 0.  1.
        -12    1    3    3    0    0 -0.17329403848E+02 -0.19115443414E+02  0.28256271675E+02  0.38263890336E+02  0.00000000000E+00 0.  1.
</event>
<event>
 7    1  0.2243370E-008  0.4614232E+02  0.7816164E-02  0.1320468E+00
        -11   -1    0    0    0    0  0.00000000000E+00  0.00000000000E+00  0.45593999997E+02  0.45594000000E+02  0.51100000000E-03 0.  1.
         11   -1    0    0    0    0 -0.00000000000E+00 -0.00000000000E+00 -0.45593999997E+02  0.45594000000E+02  0.51100000000E-03 0. -1.
    9900012    2    1    2    0    0 -0.33896333467E+02  0.57549345894E+01  0.29103828594E+02  0.46142317261E+02  0.99999954379E+01 0.  0.
         12    1    1    2    0    0  0.33896333467E+02 -0.57549345894E+01 -0.29103828594E+02  0.45045682739E+02  0.00000000000E+00 0. -1.
         11    1    3    3    0    0 -0.12562739806E+02  0.38834613019E+01  0.84496232371E+01  0.15630093929E+02  0.51100000000E-03 0. -1.
        -11    1    3    3    0    0 -0.98236947973E+01  0.40523317098E+01  0.82729152376E+01  0.13467275097E+02  0.51100000000E-03 0.  1.
        -12    1    3    3    0    0 -0.11509898864E+02 -0.21808584223E+01  0.12381290119E+02  0.17044948235E+02  0.00000000000E+00 0.  1.
</event>
<event>
 7    1  0.2243370E-008  0.4614232E+02  0.7816164E-02  0.1320468E+00
        -11   -1    0    0    0    0  0.00000000000E+00  0.00000000000E+00  0.45593999997E+02  0.45594000000E+02  0.51100000000E-03 0.  1.
         11   -1    0    0    0    0 -0.00000000000E+00 -0.00000000000E+00 -0.45593999997E+02  0.45594000000E+02  0.51100000000E-03 0. -1.
    9900012    2    1    2    0    0  0.34365688574E+01 -0.11410462718E+02  0.43440822248E+02  0.46142315384E+02  0.99999783232E+01 0.  0.
         12    1    1    2    0    0 -0.34365688574E+01  0.11410462718E+02 -0.43440822248E+02  0.45045684616E+02  0.00000000000E+00 0. -1.
         11    1    3    3    0    0 -0.28748994402E+01 -0.33714436179E+01  0.86222442831E+01  0.96940587784E+01  0.51100000000E-03 0. -1.
        -11    1    3    3    0    0  0.27682884979E+01 -0.50070349489E+01  0.14207997325E+02  0.15316690518E+02  0.51100000000E-03 0.  1.
         12    1    3    3    0    0  0.35431797998E+01 -0.30319841513E+01  0.20610580640E+02  0.21131566087E+02  0.00000000000E+00 0. -1.
</event>
<event>
 7    1  0.2243370E-008  0.4614232E+02  0.7816164E-02  0.1320468E+00
        -11   -1    0    0    0    0  0.00000000000E+00  0.00000000000E+00  0.45593999997E+02  0.45594000000E+02  0.51100000000E-03 0.  1.
         11   -1    0    0    0    0 -0.00000000000E+00 -0.00000000000E+00 -0.45593999997E+02  0.45594000000E+02  0.51100000000E-03 0. -1.
    9900012    2    1    2    0    0  0.26892230690E+02  0.66146163329E+01  0.35527007541E+02  0.46142317793E+02  0.10000000290E+02 0.  0.
         12    1    1    2    0    0 -0.26892230690E+02 -0.66146163329E+01 -0.35527007541E+02  0.45045682207E+02  0.00000000000E+00 0. -1.
         11    1    3    3    0    0  0.10238731822E+02  0.50676565363E+01  0.87939399912E+01  0.14416870427E+02  0.51100000000E-03 0. -1.
        -11    1    3    3    0    0  0.40679339282E+01 -0.40501492786E+00  0.90780419089E+01  0.99560518629E+01  0.51100000000E-03 0.  1.
        -12    1    3    3    0    0  0.12585564940E+02  0.19519747245E+01  0.17655025641E+02  0.21769395503E+02  0.00000000000E+00 0.  1.
</event>
<event>
 7    1  0.2243370E-008  0.4614232E+02  0.7816164E-02  0.1320468E+00
        -11   -1    0    0    0    0  0.00000000000E+00  0.00000000000E+00  0.45593999997E+02  0.45594000000E+02  0.51100000000E-03 0.  1.
         11   -1    0    0    0    0 -0.00000000000E+00 -0.00000000000E+00 -0.45593999997E+02  0.45594000000E+02  0.51100000000E-03 0. -1.
    9900012    2    1    2    0    0  0.31317489347E+02 -0.96406754141E+01  0.30909313774E+02  0.46142318305E+02  0.10000004959E+02 0.  0.
         12    1    1    2    0    0 -0.31317489347E+02  0.96406754141E+01 -0.30909313774E+02  0.45045681695E+02  0.00000000000E+00 0. -1.
         11    1    3    3    0    0  0.87788289860E+01  0.14392408833E+00  0.52041057578E+01  0.10206432751E+02  0.51100000000E-03 0. -1.
        -11    1    3    3    0    0  0.14544326367E+02 -0.52785979752E+01  0.12690806330E+02  0.20011436521E+02  0.51100000000E-03 0.  1.
         12    1    3    3    0    0  0.79943339941E+01 -0.45060015273E+01  0.13014401685E+02  0.15924449033E+02  0.00000000000E+00 0. -1.
</event>
<event>
 7    1  0.2243370E-008  0.4614232E+02  0.7816164E-02  0.1320468E+00
        -11   -1    0    0    0    0  0.00000000000E+00  0.00000000000E+00  0.45593999997E+02  0.45594000000E+02  0.51100000000E-03 0.  1.
         11   -1    0    0    0    0 -0.00000000000E+00 -0.00000000000E+00 -0.45593999997E+02  0.45594000000E+02  0.51100000000E-03 0. -1.
    9900012    2    1    2    0    0 -0.35212285416E+02 -0.18776171058E+02  0.20896503683E+02  0.46142317521E+02  0.99999978108E+01 0.  0.
         12    1    1    2    0    0  0.35212285416E+02  0.18776171058E+02 -0.20896503683E+02  0.45045682479E+02  0.00000000000E+00 0. -1.
         11    1    3    3    0    0 -0.55711134021E+01 -0.59108141013E+01  0.44640942006E+01  0.92683960410E+01  0.51100000000E-03 0. -1.
        -11    1    3    3    0    0 -0.20192412913E+02 -0.95027307728E+01  0.77979589749E+01  0.23639873007E+02  0.51100000000E-03 0.  1.
         12    1    3    3    0    0 -0.94487591010E+01 -0.33626261842E+01  0.86344505077E+01  0.13234048473E+02  0.00000000000E+00 0. -1.
</event>
<event>
 7    1  0.2243370E-008  0.4614232E+02  0.7816164E-02  0.1320468E+00
        -11   -1    0    0    0    0  0.00000000000E+00  0.00000000000E+00  0.45593999997E+02  0.45594000000E+02  0.51100000000E-03 0. -1.
         11   -1    0    0    0    0 -0.00000000000E+00 -0.00000000000E+00 -0.45593999997E+02  0.45594000000E+02  0.51100000000E-03 0.  1.
    9900012    2    1    2    0    0 -0.26536138588E+02  0.80981257844E+01 -0.35487564248E+02  0.46142317536E+02  0.99999979445E+01 0.  0.
         12    1    1    2    0    0  0.26536138588E+02 -0.80981257844E+01  0.35487564248E+02  0.45045682464E+02  0.00000000000E+00 0. -1.
         11    1    3    3    0    0 -0.45703118610E+01  0.21142166688E+01 -0.33125923665E+01  0.60275145024E+01  0.51100000000E-03 0. -1.
        -11    1    3    3    0    0 -0.11586460635E+02  0.69316294621E+01 -0.19203479971E+02  0.23474820559E+02  0.51100000000E-03 0.  1.
        -12    1    3    3    0    0 -0.10379366092E+02 -0.94772034657E+00 -0.12971491911E+02  0.16639982474E+02  0.00000000000E+00 0.  1.
</event>
<event>
 7    1  0.2243370E-008  0.4614232E+02  0.7816164E-02  0.1320468E+00
        -11   -1    0    0    0    0  0.00000000000E+00  0.00000000000E+00  0.45593999997E+02  0.45594000000E+02  0.51100000000E-03 0.  1.
         11   -1    0    0    0    0 -0.00000000000E+00 -0.00000000000E+00 -0.45593999997E+02  0.45594000000E+02  0.51100000000E-03 0. -1.
    9900012    2    1    2    0    0 -0.26785647502E+02 -0.30387128241E+02  0.19704441564E+02  0.46142317719E+02  0.99999996118E+01 0.  0.
         12    1    1    2    0    0  0.26785647502E+02  0.30387128241E+02 -0.19704441564E+02  0.45045682281E+02  0.00000000000E+00 0. -1.
         11    1    3    3    0    0 -0.10238707261E+01 -0.68549975871E-01  0.22824426623E+01  0.25025097664E+01  0.51100000000E-03 0. -1.
        -11    1    3    3    0    0 -0.14785123464E+02 -0.16436571252E+02  0.74683203889E+01  0.23335307156E+02  0.51100000000E-03 0.  1.
         12    1    3    3    0    0 -0.10976653312E+02 -0.13882007013E+02  0.99536785126E+01  0.20304500796E+02  0.00000000000E+00 0. -1.
</event>
<event>
 7    1  0.2243370E-008  0.4614232E+02  0.7816164E-02  0.1320468E+00
        -11   -1    0    0    0    0  0.00000000000E+00  0.00000000000E+00  0.45593999997E+02  0.45594000000E+02  0.51100000000E-03 0.  1.
         11   -1    0    0    0    0 -0.00000000000E+00 -0.00000000000E+00 -0.45593999997E+02  0.45594000000E+02  0.51100000000E-03 0. -1.
    9900012    2    1    2    0    0 -0.31197563373E+01 -0.11464412880E+01  0.44922893559E+02  0.46142316822E+02  0.99999914388E+01 0.  0.
         12    1    1    2    0    0  0.31197563373E+01  0.11464412880E+01 -0.44922893559E+02  0.45045683178E+02  0.00000000000E+00 0. -1.
         11    1    3    3    0    0  0.82335373955E+00 -0.14114410117E+01  0.28461090841E+02  0.28507959752E+02  0.51100000000E-03 0. -1.
        -11    1    3    3    0    0 -0.19072832734E+01  0.20425777489E+01  0.12690894030E+02  0.12994946898E+02  0.51100000000E-03 0.  1.
         12    1    3    3    0    0 -0.20358268035E+01 -0.17775780252E+01  0.37709086880E+01  0.46394101718E+01  0.00000000000E+00 0. -1.
</event>
<event>
 7    1  0.2243370E-008  0.4614232E+02  0.7816164E-02  0.1320468E+00
        -11   -1    0    0    0    0  0.00000000000E+00  0.00000000000E+00  0.45593999997E+02  0.45594000000E+02  0.51100000000E-03 0.  1.
         11   -1    0    0    0    0 -0.00000000000E+00 -0.00000000000E+00 -0.45593999997E+02  0.45594000000E+02  0.51100000000E-03 0. -1.
    9900012    2    1    2    0    0 -0.36614507580E+02 -0.23721479770E+02  0.11215286315E+02  0.46142318576E+02  0.10000007434E+02 0.  0.
         12    1    1    2    0    0  0.36614507580E+02  0.23721479770E+02 -0.11215286315E+02  0.45045681424E+02  0.00000000000E+00 0. -1.
         11    1    3    3    0    0 -0.55329018545E+01 -0.67839153060E+01  0.43771513655E+00  0.87650501774E+01  0.51100000000E-03 0. -1.
        -11    1    3    3    0    0 -0.17668945888E+02 -0.93547467568E+01  0.33449063923E+01  0.20270454724E+02  0.51100000000E-03 0.  1.
         12    1    3    3    0    0 -0.13412659838E+02 -0.75828177069E+01  0.74326647863E+01  0.17106813675E+02  0.00000000000E+00 0. -1.
</event>
<event>
 7    1  0.2243370E-008  0.4614232E+02  0.7816164E-02  0.1320468E+00
        -11   -1    0    0    0    0  0.00000000000E+00  0.00000000000E+00  0.45593999997E+02  0.45594000000E+02  0.51100000000E-03 0.  1.
         11   -1    0    0    0    0 -0.00000000000E+00 -0.00000000000E+00 -0.45593999997E+02  0.45594000000E+02  0.51100000000E-03 0. -1.
    9900012    2    1    2    0    0  0.27960969203E+02  0.18903219029E+02  0.29832298838E+02  0.46142317162E+02  0.99999945342E+01 0.  0.
         12    1    1    2    0    0 -0.27960969203E+02 -0.18903219029E+02 -0.29832298838E+02  0.45045682838E+02  0.00000000000E+00 0. -1.
         11    1    3    3    0    0  0.28494797964E+01  0.17206559728E+01  0.10398969130E+01  0.34873453998E+01  0.51100000000E-03 0. -1.
        -11    1    3    3    0    0  0.25305267476E+02  0.17453370511E+02  0.29001435788E+02  0.42261802875E+02  0.51100000000E-03 0.  1.
        -12    1    3    3    0    0 -0.19377806989E+00 -0.27080745433E+00 -0.20903386308E+00  0.39316888688E+00  0.00000000000E+00 0.  1.
</event>
<event>
 7    1  0.2243370E-008  0.4614232E+02  0.7816164E-02  0.1320468E+00
        -11   -1    0    0    0    0  0.00000000000E+00  0.00000000000E+00  0.45593999997E+02  0.45594000000E+02  0.51100000000E-03 0. -1.
         11   -1    0    0    0    0 -0.00000000000E+00 -0.00000000000E+00 -0.45593999997E+02  0.45594000000E+02  0.51100000000E-03 0.  1.
    9900012    2    1    2    0    0  0.35158719170E+02  0.26664988273E+02 -0.90529743641E+01  0.46142317875E+02  0.10000001038E+02 0.  0.
         12    1    1    2    0    0 -0.35158719170E+02 -0.26664988273E+02  0.90529743641E+01  0.45045682125E+02  0.00000000000E+00 0. -1.
         11    1    3    3    0    0  0.29953216130E+02  0.18841427834E+02 -0.52005918682E+01  0.35766474740E+02  0.51100000000E-03 0. -1.
        -11    1    3    3    0    0  0.45014935665E+01  0.59541542864E+01 -0.21952700810E+01  0.77803989991E+01  0.51100000000E-03 0.  1.
         12    1    3    3    0    0  0.70400947385E+00  0.18694061530E+01 -0.16571124149E+01  0.25954441354E+01  0.00000000000E+00 0. -1.
</event>
<event>
 7    1  0.2243370E-008  0.4614232E+02  0.7816164E-02  0.1320468E+00
        -11   -1    0    0    0    0  0.00000000000E+00  0.00000000000E+00  0.45593999997E+02  0.45594000000E+02  0.51100000000E-03 0.  1.
         11   -1    0    0    0    0 -0.00000000000E+00 -0.00000000000E+00 -0.45593999997E+02  0.45594000000E+02  0.51100000000E-03 0. -1.
    9900012    2    1    2    0    0 -0.21620846727E+02  0.39414844434E+02 -0.28500097075E+01  0.46142317296E+02  0.99999957544E+01 0.  0.
         12    1    1    2    0    0  0.21620846727E+02 -0.39414844434E+02  0.28500097075E+01  0.45045682704E+02  0.00000000000E+00 0. -1.
         11    1    3    3    0    0 -0.89535305835E+00  0.52130848776E+00  0.43690912187E-01  0.10369806148E+01  0.51100000000E-03 0. -1.
        -11    1    3    3    0    0 -0.20518405790E+02  0.31647291792E+02 -0.31789918045E+01  0.37850522362E+02  0.51100000000E-03 0.  1.
        -12    1    3    3    0    0 -0.20708787884E+00  0.72462441550E+01  0.28529118478E+00  0.72548143190E+01  0.00000000000E+00 0.  1.
</event>
<event>
 7    1  0.2243370E-008  0.4614232E+02  0.7816164E-02  0.1320468E+00
        -11   -1    0    0    0    0  0.00000000000E+00  0.00000000000E+00  0.45593999997E+02  0.45594000000E+02  0.51100000000E-03 0.  1.
         11   -1    0    0    0    0 -0.00000000000E+00 -0.00000000000E+00 -0.45593999997E+02  0.45594000000E+02  0.51100000000E-03 0. -1.
    9900012    2    1    2    0    0  0.37096225372E+02  0.23419320875E+02 -0.10223463192E+02  0.46142315115E+02  0.99999758699E+01 0.  0.
         12    1    1    2    0    0 -0.37096225372E+02 -0.23419320875E+02  0.10223463192E+02  0.45045684885E+02  0.00000000000E+00 0. -1.
         11    1    3    3    0    0  0.10898135592E+01 -0.31763191425E+00 -0.10015381028E+01  0.15138237874E+01  0.51100000000E-03 0. -1.
        -11    1    3    3    0    0  0.10868190907E+02  0.69094443923E+01 -0.59974093206E+01  0.14206579962E+02  0.51100000000E-03 0.  1.
        -12    1    3    3    0    0  0.25138220906E+02  0.16827508397E+02 -0.32245157685E+01  0.30421911366E+02  0.00000000000E+00 0.  1.
</event>
<event>
 7    1  0.2243370E-008  0.4614232E+02  0.7816164E-02  0.1320468E+00
        -11   -1    0    0    0    0  0.00000000000E+00  0.00000000000E+00  0.45593999997E+02  0.45594000000E+02  0.51100000000E-03 0.  1.
         11   -1    0    0    0    0 -0.00000000000E+00 -0.00000000000E+00 -0.45593999997E+02  0.45594000000E+02  0.51100000000E-03 0. -1.
    9900012    2    1    2    0    0 -0.24951545653E+02  0.37029398675E+02 -0.59462250476E+01  0.46142316643E+02  0.99999898087E+01 0.  0.
         12    1    1    2    0    0  0.24951545653E+02 -0.37029398675E+02  0.59462250476E+01  0.45045683357E+02  0.00000000000E+00 0. -1.
         11    1    3    3    0    0 -0.31924757692E+00  0.32669737526E+01  0.83993867993E+00  0.33882936359E+01  0.51100000000E-03 0. -1.
        -11    1    3    3    0    0 -0.23593920480E+02  0.31294064542E+02 -0.49409174668E+01  0.39501952165E+02  0.51100000000E-03 0.  1.
        -12    1    3    3    0    0 -0.10383775958E+01  0.24683603804E+01 -0.18452462608E+01  0.32520708421E+01  0.00000000000E+00 0.  1.
</event>
<event>
 7    1  0.2243370E-008  0.4614232E+02  0.7816164E-02  0.1320468E+00
        -11   -1    0    0    0    0  0.00000000000E+00  0.00000000000E+00  0.45593999997E+02  0.45594000000E+02  0.51100000000E-03 0. -1.
         11   -1    0    0    0    0 -0.00000000000E+00 -0.00000000000E+00 -0.45593999997E+02  0.45594000000E+02  0.51100000000E-03 0.  1.
    9900012    2    1    2    0    0  0.51011041203E+01  0.28281620824E+02 -0.34687781613E+02  0.46142317267E+02  0.99999954941E+01 0.  0.
         12    1    1    2    0    0 -0.51011041203E+01 -0.28281620824E+02  0.34687781613E+02  0.45045682733E+02  0.00000000000E+00 0. -1.
         11    1    3    3    0    0 -0.75248591295E+00  0.75155978876E+01 -0.68012880243E+01  0.10164052622E+02  0.51100000000E-03 0.  1.
        -11    1    3    3    0    0  0.64187715237E+01  0.18256415802E+02 -0.20661265552E+02  0.28308748476E+02  0.51100000000E-03 0. -1.
         12    1    3    3    0    0 -0.56518149042E+00  0.25096071346E+01 -0.72252280361E+01  0.76695161686E+01  0.00000000000E+00 0. -1.
</event>
<event>
 7    1  0.2243370E-008  0.4614232E+02  0.7816164E-02  0.1320468E+00
        -11   -1    0    0    0    0  0.00000000000E+00  0.00000000000E+00  0.45593999997E+02  0.45594000000E+02  0.51100000000E-03 0. -1.
         11   -1    0    0    0    0 -0.00000000000E+00 -0.00000000000E+00 -0.45593999997E+02  0.45594000000E+02  0.51100000000E-03 0.  1.
    9900012    2    1    2    0    0 -0.16929341028E+02 -0.29099351569E+02 -0.29928892690E+02  0.46142317998E+02  0.10000002162E+02 0.  0.
         12    1    1    2    0    0  0.16929341028E+02  0.29099351569E+02  0.29928892690E+02  0.45045682002E+02  0.00000000000E+00 0. -1.
         11    1    3    3    0    0 -0.33554270027E+01 -0.13680914859E+01 -0.31504067388E+01  0.48016275954E+01  0.51100000000E-03 0. -1.
        -11    1    3    3    0    0 -0.42996140960E+01 -0.38179464253E+01 -0.62101101397E+01  0.84633837494E+01  0.51100000000E-03 0.  1.
        -12    1    3    3    0    0 -0.92742999291E+01 -0.23913313658E+02 -0.20568375812E+02  0.32877306653E+02  0.00000000000E+00 0.  1.
</event>
<event>
 7    1  0.2243370E-008  0.4614232E+02  0.7816164E-02  0.1320468E+00
        -11   -1    0    0    0    0  0.00000000000E+00  0.00000000000E+00  0.45593999997E+02  0.45594000000E+02  0.51100000000E-03 0.  1.
         11   -1    0    0    0    0 -0.00000000000E+00 -0.00000000000E+00 -0.45593999997E+02  0.45594000000E+02  0.51100000000E-03 0. -1.
    9900012    2    1    2    0    0 -0.21588934310E+01  0.44392849332E+02  0.73299184480E+01  0.46142316554E+02  0.99999889953E+01 0.  0.
         12    1    1    2    0    0  0.21588934310E+01 -0.44392849332E+02 -0.73299184480E+01  0.45045683446E+02  0.00000000000E+00 0. -1.
         11    1    3    3    0    0  0.74349792009E+00  0.37284613042E+02  0.85082582300E+01  0.38250302184E+02  0.51100000000E-03 0.  1.
        -11    1    3    3    0    0 -0.91481919504E+00  0.17783152394E+01  0.28069223779E+00  0.20194275535E+01  0.51100000000E-03 0. -1.
        -12    1    3    3    0    0 -0.19875721560E+01  0.53299210505E+01 -0.14590320198E+01  0.58725868163E+01  0.00000000000E+00 0.  1.
</event>
<event>
 7    1  0.2243370E-008  0.4614232E+02  0.7816164E-02  0.1320468E+00
        -11   -1    0    0    0    0  0.00000000000E+00  0.00000000000E+00  0.45593999997E+02  0.45594000000E+02  0.51100000000E-03 0.  1.
         11   -1    0    0    0    0 -0.00000000000E+00 -0.00000000000E+00 -0.45593999997E+02  0.45594000000E+02  0.51100000000E-03 0. -1.
    9900012    2    1    2    0    0  0.16708815000E+02 -0.36160297594E+02  0.21032397803E+02  0.46142318984E+02  0.10000011154E+02 0.  0.
         12    1    1    2    0    0 -0.16708815000E+02  0.36160297594E+02 -0.21032397803E+02  0.45045681016E+02  0.00000000000E+00 0. -1.
         11    1    3    3    0    0  0.52679362244E+01 -0.11630483691E+02  0.23900557297E+01  0.12989675501E+02  0.51100000000E-03 0. -1.
        -11    1    3    3    0    0  0.10200857264E+02 -0.22132818396E+02  0.18203329088E+02  0.30418420886E+02  0.51100000000E-03 0.  1.
        -12    1    3    3    0    0  0.12400215118E+01 -0.23969955072E+01  0.43901298518E+00  0.27342225975E+01  0.00000000000E+00 0.  1.
</event>
<event>
 7    1  0.2243370E-008  0.4614232E+02  0.7816164E-02  0.1320468E+00
        -11   -1    0    0    0    0  0.00000000000E+00  0.00000000000E+00  0.45593999997E+02  0.45594000000E+02  0.51100000000E-03 0.  1.
         11   -1    0    0    0    0 -0.00000000000E+00 -0.00000000000E+00 -0.45593999997E+02  0.45594000000E+02  0.51100000000E-03 0. -1.
    9900012    2    1    2    0    0 -0.11486834657E+02 -0.34867298886E+02  0.26104362281E+02  0.46142316165E+02  0.99999854464E+01 0.  0.
         12    1    1    2    0    0  0.11486834657E+02  0.34867298886E+02 -0.26104362281E+02  0.45045683835E+02  0.00000000000E+00 0. -1.
         11    1    3    3    0    0 -0.61457069630E+01 -0.11755537376E+02  0.98644668580E+01  0.16530882606E+02  0.51100000000E-03 0. -1.
        -11    1    3    3    0    0 -0.27041995394E+00 -0.12919314517E+02  0.57962902262E+01  0.14162584340E+02  0.51100000000E-03 0.  1.
         12    1    3    3    0    0 -0.50707077400E+01 -0.10192446993E+02  0.10443605197E+02  0.15448849219E+02  0.00000000000E+00 0. -1.
</event>
<event>
 7    1  0.2243370E-008  0.4614232E+02  0.7816164E-02  0.1320468E+00
        -11   -1    0    0    0    0  0.00000000000E+00  0.00000000000E+00  0.45593999997E+02  0.45594000000E+02  0.51100000000E-03 0. -1.
         11   -1    0    0    0    0 -0.00000000000E+00 -0.00000000000E+00 -0.45593999997E+02  0.45594000000E+02  0.51100000000E-03 0.  1.
    9900012    2    1    2    0    0  0.18128935619E+02 -0.24647659815E+02 -0.33059762118E+02  0.46142319715E+02  0.10000017818E+02 0.  0.
         12    1    1    2    0    0 -0.18128935619E+02  0.24647659815E+02  0.33059762118E+02  0.45045680285E+02  0.00000000000E+00 0. -1.
         11    1    3    3    0    0  0.71492387216E+01 -0.12196365684E+02 -0.11911524881E+02  0.18486410562E+02  0.51100000000E-03 0.  1.
        -11    1    3    3    0    0  0.78423324491E+01 -0.12260915950E+02 -0.16048197482E+02  0.21665107451E+02  0.51100000000E-03 0. -1.
         12    1    3    3    0    0  0.31373644485E+01 -0.19037818004E+00 -0.51000397553E+01  0.59908017026E+01  0.00000000000E+00 0. -1.
</event>
<event>
 7    1  0.2243370E-008  0.4614232E+02  0.7816164E-02  0.1320468E+00
        -11   -1    0    0    0    0  0.00000000000E+00  0.00000000000E+00  0.45593999997E+02  0.45594000000E+02  0.51100000000E-03 0. -1.
         11   -1    0    0    0    0 -0.00000000000E+00 -0.00000000000E+00 -0.45593999997E+02  0.45594000000E+02  0.51100000000E-03 0.  1.
    9900012    2    1    2    0    0 -0.26016791440E+02 -0.12981018618E+02 -0.34405425190E+02  0.46142316925E+02  0.99999923760E+01 0.  0.
         12    1    1    2    0    0  0.26016791440E+02  0.12981018618E+02  0.34405425190E+02  0.45045683075E+02  0.00000000000E+00 0. -1.
         11    1    3    3    0    0 -0.15449936337E-01 -0.19566643286E+01 -0.12904613611E+01  0.23439421454E+01  0.51100000000E-03 0. -1.
        -11    1    3    3    0    0 -0.25423008843E+01 -0.21602426946E+01 -0.22237977678E+01  0.40093913577E+01  0.51100000000E-03 0.  1.
         12    1    3    3    0    0 -0.23459040619E+02 -0.88641115951E+01 -0.30891166061E+02  0.39788983422E+02  0.00000000000E+00 0. -1.
</event>
<event>
 7    1  0.2243370E-008  0.4614233E+02  0.7816164E-02  0.1320468E+00
        -11   -1    0    0    0    0  0.00000000000E+00  0.00000000000E+00  0.45593999997E+02  0.45594000000E+02  0.51100000000E-03 0. -1.
         11   -1    0    0    0    0 -0.00000000000E+00 -0.00000000000E+00 -0.45593999997E+02  0.45594000000E+02  0.51100000000E-03 0.  1.
    9900012    2    1    2    0    0  0.36015973538E+02 -0.54083863946E+01 -0.26508711053E+02  0.46142325902E+02  0.10000074232E+02 0.  0.
         12    1    1    2    0    0 -0.36015973538E+02  0.54083863946E+01  0.26508711053E+02  0.45045674098E+02  0.00000000000E+00 0. -1.
         11    1    3    3    0    0  0.86202992990E-01 -0.26356517780E+00 -0.24586149794E+00  0.37060180280E+00  0.51100000000E-03 0. -1.
        -11    1    3    3    0    0  0.20809530151E+02 -0.23633178891E+01 -0.94106980457E+01  0.22960467211E+02  0.51100000000E-03 0.  1.
         12    1    3    3    0    0  0.15120240393E+02 -0.27815033277E+01 -0.16852151510E+02  0.22811256888E+02  0.00000000000E+00 0. -1.
</event>
<event>
 7    1  0.2243370E-008  0.4614232E+02  0.7816164E-02  0.1320468E+00
        -11   -1    0    0    0    0  0.00000000000E+00  0.00000000000E+00  0.45593999997E+02  0.45594000000E+02  0.51100000000E-03 0. -1.
         11   -1    0    0    0    0 -0.00000000000E+00 -0.00000000000E+00 -0.45593999997E+02  0.45594000000E+02  0.51100000000E-03 0.  1.
    9900012    2    1    2    0    0  0.33660170432E+02  0.27988808902E+02 -0.10617581296E+02  0.46142317301E+02  0.99999958005E+01 0.  0.
         12    1    1    2    0    0 -0.33660170432E+02 -0.27988808902E+02  0.10617581296E+02  0.45045682699E+02  0.00000000000E+00 0. -1.
         11    1    3    3    0    0  0.69767595086E+01  0.25189819491E+01 -0.20678575800E+01  0.77004206725E+01  0.51100000000E-03 0. -1.
        -11    1    3    3    0    0  0.18371543859E+02  0.13051681654E+02 -0.52010876354E+01  0.23128150177E+02  0.51100000000E-03 0.  1.
         12    1    3    3    0    0  0.83118670649E+01  0.12418145299E+02 -0.33486360801E+01  0.15313746451E+02  0.00000000000E+00 0. -1.
</event>
<event>
 7    1  0.2243370E-008  0.4614232E+02  0.7816164E-02  0.1320468E+00
        -11   -1    0    0    0    0  0.00000000000E+00  0.00000000000E+00  0.45593999997E+02  0.45594000000E+02  0.51100000000E-03 0. -1.
         11   -1    0    0    0    0 -0.00000000000E+00 -0.00000000000E+00 -0.45593999997E+02  0.45594000000E+02  0.51100000000E-03 0.  1.
    9900012    2    1    2    0    0 -0.13692865039E+02 -0.31022353473E+02 -0.29651856262E+02  0.46142317102E+02  0.99999939875E+01 0.  0.
         12    1    1    2    0    0  0.13692865039E+02  0.31022353473E+02  0.29651856262E+02  0.45045682898E+02  0.00000000000E+00 0. -1.
         11    1    3    3    0    0 -0.32665286093E+01 -0.19416694053E+01 -0.18660788557E+01  0.42335020718E+01  0.51100000000E-03 0. -1.
        -11    1    3    3    0    0 -0.50079450871E+01 -0.18485610330E+02 -0.14160551048E+02  0.23818448931E+02  0.51100000000E-03 0.  1.
        -12    1    3    3    0    0 -0.54183913428E+01 -0.10595073738E+02 -0.13625226359E+02  0.18090366099E+02  0.00000000000E+00 0.  1.
</event>
<event>
 7    1  0.2243370E-008  0.4614232E+02  0.7816164E-02  0.1320468E+00
        -11   -1    0    0    0    0  0.00000000000E+00  0.00000000000E+00  0.45593999997E+02  0.45594000000E+02  0.51100000000E-03 0.  1.
         11   -1    0    0    0    0 -0.00000000000E+00 -0.00000000000E+00 -0.45593999997E+02  0.45594000000E+02  0.51100000000E-03 0. -1.
    9900012    2    1    2    0    0 -0.14252791271E+02 -0.41223401266E+02  0.11251780881E+02  0.46142318254E+02  0.10000004495E+02 0.  0.
         12    1    1    2    0    0  0.14252791271E+02  0.41223401266E+02 -0.11251780881E+02  0.45045681746E+02  0.00000000000E+00 0. -1.
         11    1    3    3    0    0 -0.93487208996E-01 -0.64543089893E+01  0.19161744451E+01  0.67333920985E+01  0.51100000000E-03 0. -1.
        -11    1    3    3    0    0 -0.28107120943E+01 -0.50633199574E+01 -0.11906593291E+01  0.59122737899E+01  0.51100000000E-03 0.  1.
        -12    1    3    3    0    0 -0.11348591967E+02 -0.29705772320E+02  0.10526265765E+02  0.33496652366E+02  0.00000000000E+00 0.  1.
</event>
<event>
 7    1  0.2243370E-008  0.4614232E+02  0.7816164E-02  0.1320468E+00
        -11   -1    0    0    0    0  0.00000000000E+00  0.00000000000E+00  0.45593999997E+02  0.45594000000E+02  0.51100000000E-03 0. -1.
         11   -1    0    0    0    0 -0.00000000000E+00 -0.00000000000E+00 -0.45593999997E+02  0.45594000000E+02  0.51100000000E-03 0.  1.
    9900012    2    1    2    0    0  0.40420659024E+02 -0.17912703663E+02 -0.86266346709E+01  0.46142318140E+02  0.10000003460E+02 0.  0.
         12    1    1    2    0    0 -0.40420659024E+02  0.17912703663E+02  0.86266346709E+01  0.45045681860E+02  0.00000000000E+00 0. -1.
         11    1    3    3    0    0  0.14389012810E+02 -0.90491010469E+01 -0.55525393712E+01  0.17881851502E+02  0.51100000000E-03 0. -1.
        -11    1    3    3    0    0  0.40727426844E+00  0.19548740481E+00 -0.88527953115E+00  0.99388518681E+00  0.51100000000E-03 0.  1.
         12    1    3    3    0    0  0.25624371945E+02 -0.90590900210E+01 -0.21888157685E+01  0.27266581452E+02  0.00000000000E+00 0. -1.
</event>
<event>
 7    1  0.2243370E-008  0.4614232E+02  0.7816164E-02  0.1320468E+00
        -11   -1    0    0    0    0  0.00000000000E+00  0.00000000000E+00  0.45593999997E+02  0.45594000000E+02  0.51100000000E-03 0.  1.
         11   -1    0    0    0    0 -0.00000000000E+00 -0.00000000000E+00 -0.45593999997E+02  0.45594000000E+02  0.51100000000E-03 0. -1.
    9900012    2    1    2    0    0  0.20739262870E+02  0.17972029443E+02  0.35721179254E+02  0.46142317477E+02  0.99999974097E+01 0.  0.
         12    1    1    2    0    0 -0.20739262870E+02 -0.17972029443E+02 -0.35721179254E+02  0.45045682523E+02  0.00000000000E+00 0. -1.
         11    1    3    3    0    0  0.59973598668E+01  0.50455064092E+01  0.72899257522E+01  0.10703666569E+02  0.51100000000E-03 0. -1.
        -11    1    3    3    0    0  0.59570519780E+00 -0.83109953935E+00  0.34819232038E+01  0.36289641202E+01  0.51100000000E-03 0.  1.
        -12    1    3    3    0    0  0.14146197805E+02  0.13757622573E+02  0.24949330298E+02  0.31809686787E+02  0.00000000000E+00 0.  1.
</event>
<event>
 7    1  0.2243370E-008  0.4614232E+02  0.7816164E-02  0.1320468E+00
        -11   -1    0    0    0    0  0.00000000000E+00  0.00000000000E+00  0.45593999997E+02  0.45594000000E+02  0.51100000000E-03 0.  1.
         11   -1    0    0    0    0 -0.00000000000E+00 -0.00000000000E+00 -0.45593999997E+02  0.45594000000E+02  0.51100000000E-03 0. -1.
    9900012    2    1    2    0    0 -0.14239865077E+02 -0.34581256045E+01  0.42595552402E+02  0.46142317915E+02  0.10000001400E+02 0.  0.
         12    1    1    2    0    0  0.14239865077E+02  0.34581256045E+01 -0.42595552402E+02  0.45045682085E+02  0.00000000000E+00 0. -1.
         11    1    3    3    0    0 -0.95790041490E+01 -0.26007114684E+01  0.23135417598E+02  0.25174760542E+02  0.51100000000E-03 0.  1.
        -11    1    3    3    0    0 -0.18365327788E+01 -0.34870236789E+01  0.94063355099E+01  0.10198594745E+02  0.51100000000E-03 0. -1.
         12    1    3    3    0    0 -0.28243281496E+01  0.26296095428E+01  0.10053799293E+02  0.10768962628E+02  0.00000000000E+00 0. -1.
</event>
<event>
 7    1  0.2243370E-008  0.4614231E+02  0.7816164E-02  0.1320468E+00
        -11   -1    0    0    0    0  0.00000000000E+00  0.00000000000E+00  0.45593999997E+02  0.45594000000E+02  0.51100000000E-03 0. -1.
         11   -1    0    0    0    0 -0.00000000000E+00 -0.00000000000E+00 -0.45593999997E+02  0.45594000000E+02  0.51100000000E-03 0.  1.
    9900012    2    1    2    0    0  0.12684564762E+02  0.28399894074E+02 -0.32583149130E+02  0.46142314592E+02  0.99999711060E+01 0.  0.
         12    1    1    2    0    0 -0.12684564762E+02 -0.28399894074E+02  0.32583149130E+02  0.45045685408E+02  0.00000000000E+00 0. -1.
         11    1    3    3    0    0  0.91031824923E+01  0.13186206928E+02 -0.17150062516E+02  0.23470590730E+02  0.51100000000E-03 0. -1.
        -11    1    3    3    0    0  0.42941237932E+01  0.11698436502E+02 -0.92348207407E+01  0.15510474851E+02  0.51100000000E-03 0.  1.
         12    1    3    3    0    0 -0.71274152364E+00  0.35152506440E+01 -0.61982658729E+01  0.71612490112E+01  0.00000000000E+00 0. -1.
</event>
<event>
 7    1  0.2243370E-008  0.4614232E+02  0.7816164E-02  0.1320468E+00
        -11   -1    0    0    0    0  0.00000000000E+00  0.00000000000E+00  0.45593999997E+02  0.45594000000E+02  0.51100000000E-03 0. -1.
         11   -1    0    0    0    0 -0.00000000000E+00 -0.00000000000E+00 -0.45593999997E+02  0.45594000000E+02  0.51100000000E-03 0.  1.
    9900012    2    1    2    0    0  0.40832705499E+02 -0.18325926074E+02 -0.50954973751E+01  0.46142317650E+02  0.99999989886E+01 0.  0.
         12    1    1    2    0    0 -0.40832705499E+02  0.18325926074E+02  0.50954973751E+01  0.45045682350E+02  0.00000000000E+00 0. -1.
         11    1    3    3    0    0  0.21712992363E+02 -0.12402467036E+02 -0.16222316330E+01  0.25058069792E+02  0.51100000000E-03 0.  1.
        -11    1    3    3    0    0  0.14516810964E+02 -0.59792217781E+01 -0.71148542293E+00  0.15716077927E+02  0.51100000000E-03 0. -1.
        -12    1    3    3    0    0  0.46029021722E+01  0.55762739415E-01 -0.27617803191E+01  0.53681699322E+01  0.00000000000E+00 0.  1.
</event>
<event>
 7    1  0.2243370E-008  0.4614231E+02  0.7816164E-02  0.1320468E+00
        -11   -1    0    0    0    0  0.00000000000E+00  0.00000000000E+00  0.45593999997E+02  0.45594000000E+02  0.51100000000E-03 0.  1.
         11   -1    0    0    0    0 -0.00000000000E+00 -0.00000000000E+00 -0.45593999997E+02  0.45594000000E+02  0.51100000000E-03 0. -1.
    9900012    2    1    2    0    0  0.40921514208E+02  0.15282419386E+02  0.10999608678E+02  0.46142311434E+02  0.99999423008E+01 0.  0.
         12    1    1    2    0    0 -0.40921514208E+02 -0.15282419386E+02 -0.10999608678E+02  0.45045688566E+02  0.00000000000E+00 0. -1.
         11    1    3    3    0    0  0.34357973847E+01  0.23050480580E+01  0.25362571486E+01  0.48528909738E+01  0.51100000000E-03 0. -1.
        -11    1    3    3    0    0  0.48788162073E+01 -0.48529414916E+00  0.25297758916E+01  0.55170757036E+01  0.51100000000E-03 0.  1.
        -12    1    3    3    0    0  0.32606900616E+02  0.13462665477E+02  0.59335756383E+01  0.35772344756E+02  0.00000000000E+00 0.  1.
</event>
<event>
 7    1  0.2243370E-008  0.4614232E+02  0.7816164E-02  0.1320468E+00
        -11   -1    0    0    0    0  0.00000000000E+00  0.00000000000E+00  0.45593999997E+02  0.45594000000E+02  0.51100000000E-03 0.  1.
         11   -1    0    0    0    0 -0.00000000000E+00 -0.00000000000E+00 -0.45593999997E+02  0.45594000000E+02  0.51100000000E-03 0. -1.
    9900012    2    1    2    0    0 -0.14112990943E+02 -0.27771462824E+02  0.32537406661E+02  0.46142317711E+02  0.99999995388E+01 0.  0.
         12    1    1    2    0    0  0.14112990943E+02  0.27771462824E+02 -0.32537406661E+02  0.45045682289E+02  0.00000000000E+00 0. -1.
         11    1    3    3    0    0 -0.38535658915E+01 -0.83333473511E+01  0.11311810651E+02  0.14568860924E+02  0.51100000000E-03 0.  1.
        -11    1    3    3    0    0 -0.88840878473E+00  0.70687710899E+00  0.13382476757E+01  0.17549508593E+01  0.51100000000E-03 0. -1.
         12    1    3    3    0    0 -0.93710162667E+01 -0.20144992581E+02  0.19887348334E+02  0.29818505927E+02  0.00000000000E+00 0. -1.
</event>
<event>
 7    1  0.2243370E-008  0.4614232E+02  0.7816164E-02  0.1320468E+00
        -11   -1    0    0    0    0  0.00000000000E+00  0.00000000000E+00  0.45593999997E+02  0.45594000000E+02  0.51100000000E-03 0.  1.
         11   -1    0    0    0    0 -0.00000000000E+00 -0.00000000000E+00 -0.45593999997E+02  0.45594000000E+02  0.51100000000E-03 0. -1.
    9900012    2    1    2    0    0  0.15267094025E+02  0.17057068634E+02  0.38795434438E+02  0.46142317814E+02  0.10000000482E+02 0.  0.
         12    1    1    2    0    0 -0.15267094025E+02 -0.17057068634E+02 -0.38795434438E+02  0.45045682186E+02  0.00000000000E+00 0. -1.
         11    1    3    3    0    0  0.19791320735E+01  0.85306674232E+01  0.13560728726E+02  0.16142571489E+02  0.51100000000E-03 0. -1.
        -11    1    3    3    0    0  0.31588833929E+01  0.28178795962E+01  0.41861322873E+01  0.59533766466E+01  0.51100000000E-03 0.  1.
         12    1    3    3    0    0  0.10129078558E+02  0.57085216151E+01  0.21048573425E+02  0.24046369678E+02  0.00000000000E+00 0. -1.
</event>
<event>
 7    1  0.2243370E-008  0.4614232E+02  0.7816164E-02  0.1320468E+00
        -11   -1    0    0    0    0  0.00000000000E+00  0.00000000000E+00  0.45593999997E+02  0.45594000000E+02  0.51100000000E-03 0.  1.
         11   -1    0    0    0    0 -0.00000000000E+00 -0.00000000000E+00 -0.45593999997E+02  0.45594000000E+02  0.51100000000E-03 0. -1.
    9900012    2    1    2    0    0  0.15206430140E+02 -0.42288282761E+02  0.30950288962E+01  0.46142316741E+02  0.99999906944E+01 0.  0.
         12    1    1    2    0    0 -0.15206430140E+02  0.42288282761E+02 -0.30950288962E+01  0.45045683259E+02  0.00000000000E+00 0. -1.
         11    1    3    3    0    0  0.16952477255E+01 -0.24882330397E+01  0.20847759319E+01  0.36621659518E+01  0.51100000000E-03 0. -1.
        -11    1    3    3    0    0  0.74346615740E+01 -0.16589148128E+02  0.29165410736E+01  0.18411416035E+02  0.51100000000E-03 0.  1.
        -12    1    3    3    0    0  0.60765208401E+01 -0.23210901593E+02 -0.19062881093E+01  0.24068734754E+02  0.00000000000E+00 0.  1.
</event>
<event>
 7    1  0.2243370E-008  0.4614232E+02  0.7816164E-02  0.1320468E+00
        -11   -1    0    0    0    0  0.00000000000E+00  0.00000000000E+00  0.45593999997E+02  0.45594000000E+02  0.51100000000E-03 0.  1.
         11   -1    0    0    0    0 -0.00000000000E+00 -0.00000000000E+00 -0.45593999997E+02  0.45594000000E+02  0.51100000000E-03 0. -1.
    9900012    2    1    2    0    0 -0.21993024207E+02  0.60595665918E+01  0.38842014043E+02  0.46142317455E+02  0.99999972052E+01 0.  0.
         12    1    1    2    0    0  0.21993024207E+02 -0.60595665918E+01 -0.38842014043E+02  0.45045682545E+02  0.00000000000E+00 0. -1.
         11    1    3    3    0    0 -0.12413280901E+01 -0.70850646135E+00  0.59187547088E+00  0.15469950444E+01  0.51100000000E-03 0. -1.
        -11    1    3    3    0    0 -0.13255317905E+02  0.37878656166E+01  0.30204816642E+02  0.33202143415E+02  0.51100000000E-03 0.  1.
        -12    1    3    3    0    0 -0.74963782121E+01  0.29802074365E+01  0.80453219300E+01  0.11393178995E+02  0.00000000000E+00 0.  1.
</event>
<event>
 7    1  0.2243370E-008  0.4614232E+02  0.7816164E-02  0.1320468E+00
        -11   -1    0    0    0    0  0.00000000000E+00  0.00000000000E+00  0.45593999997E+02  0.45594000000E+02  0.51100000000E-03 0. -1.
         11   -1    0    0    0    0 -0.00000000000E+00 -0.00000000000E+00 -0.45593999997E+02  0.45594000000E+02  0.51100000000E-03 0.  1.
    9900012    2    1    2    0    0  0.15119915795E+02  0.38350631850E+02  0.18158487863E+02  0.46142317649E+02  0.99999989788E+01 0.  0.
         12    1    1    2    0    0 -0.15119915795E+02 -0.38350631850E+02 -0.18158487863E+02  0.45045682351E+02  0.00000000000E+00 0. -1.
         11    1    3    3    0    0  0.68592937301E+01  0.25986539292E+02  0.10051607975E+02  0.28694685187E+02  0.51100000000E-03 0. -1.
        -11    1    3    3    0    0  0.81522010859E+01  0.11649415262E+02  0.63971399529E+01  0.15591364864E+02  0.51100000000E-03 0.  1.
         12    1    3    3    0    0  0.10842097902E+00  0.71467729624E+00  0.17097399357E+01  0.18562675976E+01  0.00000000000E+00 0. -1.
</event>
<event>
 7    1  0.2243370E-008  0.4614232E+02  0.7816164E-02  0.1320468E+00
        -11   -1    0    0    0    0  0.00000000000E+00  0.00000000000E+00  0.45593999997E+02  0.45594000000E+02  0.51100000000E-03 0. -1.
         11   -1    0    0    0    0 -0.00000000000E+00 -0.00000000000E+00 -0.45593999997E+02  0.45594000000E+02  0.51100000000E-03 0.  1.
    9900012    2    1    2    0    0  0.26042208795E+01 -0.38622399747E+02  0.23035663130E+02  0.46142317582E+02  0.99999983701E+01 0.  0.
         12    1    1    2    0    0 -0.26042208795E+01  0.38622399747E+02 -0.23035663130E+02  0.45045682418E+02  0.00000000000E+00 0. -1.
         11    1    3    3    0    0 -0.72061644621E+00 -0.10847534961E+02  0.80019494834E+01  0.13498870271E+02  0.51100000000E-03 0. -1.
        -11    1    3    3    0    0  0.53144560630E+01 -0.24403731973E+02  0.13824307212E+02  0.28546401658E+02  0.51100000000E-03 0.  1.
         12    1    3    3    0    0 -0.19896187373E+01 -0.33711328133E+01  0.12094064345E+01  0.40970456537E+01  0.00000000000E+00 0. -1.
</event>
<event>
 7    1  0.2243370E-008  0.4614232E+02  0.7816164E-02  0.1320468E+00
        -11   -1    0    0    0    0  0.00000000000E+00  0.00000000000E+00  0.45593999997E+02  0.45594000000E+02  0.51100000000E-03 0.  1.
         11   -1    0    0    0    0 -0.00000000000E+00 -0.00000000000E+00 -0.45593999997E+02  0.45594000000E+02  0.51100000000E-03 0. -1.
    9900012    2    1    2    0    0  0.30880909721E+02 -0.21582194597E+02  0.24691937336E+02  0.46142317874E+02  0.10000001029E+02 0.  0.
         12    1    1    2    0    0 -0.30880909721E+02  0.21582194597E+02 -0.24691937336E+02  0.45045682126E+02  0.00000000000E+00 0. -1.
         11    1    3    3    0    0  0.80841220643E+01 -0.21424503471E+01  0.45443497348E+01  0.95181005360E+01  0.51100000000E-03 0. -1.
        -11    1    3    3    0    0  0.68733164554E+01 -0.24997625386E+01  0.42416989856E+01  0.84547798547E+01  0.51100000000E-03 0.  1.
         12    1    3    3    0    0  0.15923471201E+02 -0.16939981711E+02  0.15905888616E+02  0.28169437483E+02  0.00000000000E+00 0. -1.
</event>
<event>
 7    1  0.2243370E-008  0.4614232E+02  0.7816164E-02  0.1320468E+00
        -11   -1    0    0    0    0  0.00000000000E+00  0.00000000000E+00  0.45593999997E+02  0.45594000000E+02  0.51100000000E-03 0.  1.
         11   -1    0    0    0    0 -0.00000000000E+00 -0.00000000000E+00 -0.45593999997E+02  0.45594000000E+02  0.51100000000E-03 0. -1.
    9900012    2    1    2    0    0  0.26039532605E+02 -0.26323763163E+00  0.36755774532E+02  0.46142317479E+02  0.99999974263E+01 0.  0.
         12    1    1    2    0    0 -0.26039532605E+02  0.26323763163E+00 -0.36755774532E+02  0.45045682521E+02  0.00000000000E+00 0. -1.
         11    1    3    3    0    0  0.41563945756E+01  0.31228222083E+01  0.73494885310E+01  0.90023672632E+01  0.51100000000E-03 0. -1.
        -11    1    3    3    0    0  0.18816569389E+02 -0.12354255688E+01  0.25646390419E+02  0.31832796008E+02  0.51100000000E-03 0.  1.
         12    1    3    3    0    0  0.30665686403E+01 -0.21506342711E+01  0.37598955819E+01  0.53071542073E+01  0.00000000000E+00 0. -1.
</event>
<event>
 7    1  0.2243370E-008  0.4614232E+02  0.7816164E-02  0.1320468E+00
        -11   -1    0    0    0    0  0.00000000000E+00  0.00000000000E+00  0.45593999997E+02  0.45594000000E+02  0.51100000000E-03 0.  1.
         11   -1    0    0    0    0 -0.00000000000E+00 -0.00000000000E+00 -0.45593999997E+02  0.45594000000E+02  0.51100000000E-03 0. -1.
    9900012    2    1    2    0    0  0.20408591285E+02 -0.14710003057E+02  0.37366011926E+02  0.46142316129E+02  0.99999851135E+01 0.  0.
         12    1    1    2    0    0 -0.20408591285E+02  0.14710003057E+02 -0.37366011926E+02  0.45045683871E+02  0.00000000000E+00 0. -1.
         11    1    3    3    0    0  0.78574953724E+01 -0.74212102469E+01  0.15667994670E+02  0.19034196917E+02  0.51100000000E-03 0. -1.
        -11    1    3    3    0    0  0.49508064368E+01 -0.45374198406E+01  0.15596264207E+02  0.16980639584E+02  0.51100000000E-03 0.  1.
         12    1    3    3    0    0  0.76002894761E+01 -0.27513729697E+01  0.61017530489E+01  0.10127479628E+02  0.00000000000E+00 0. -1.
</event>
<event>
 7    1  0.2243370E-008  0.4614232E+02  0.7816164E-02  0.1320468E+00
        -11   -1    0    0    0    0  0.00000000000E+00  0.00000000000E+00  0.45593999997E+02  0.45594000000E+02  0.51100000000E-03 0.  1.
         11   -1    0    0    0    0 -0.00000000000E+00 -0.00000000000E+00 -0.45593999997E+02  0.45594000000E+02  0.51100000000E-03 0. -1.
    9900012    2    1    2    0    0  0.63467985219E+01 -0.11441576132E+02  0.43103618172E+02  0.46142318571E+02  0.10000007384E+02 0.  0.
         12    1    1    2    0    0 -0.63467985219E+01  0.11441576132E+02 -0.43103618172E+02  0.45045681429E+02  0.00000000000E+00 0. -1.
         11    1    3    3    0    0  0.28287384255E+01 -0.55958733553E+01  0.11704737626E+02  0.13278420194E+02  0.51100000000E-03 0. -1.
        -11    1    3    3    0    0  0.42985516007E+01 -0.15057731515E+01  0.96284319523E+01  0.10651366146E+02  0.51100000000E-03 0.  1.
        -12    1    3    3    0    0 -0.78049150426E+00 -0.43399296251E+01  0.21770448594E+02  0.22212532232E+02  0.00000000000E+00 0.  1.
</event>
<event>
 7    1  0.2243370E-008  0.4614232E+02  0.7816164E-02  0.1320468E+00
        -11   -1    0    0    0    0  0.00000000000E+00  0.00000000000E+00  0.45593999997E+02  0.45594000000E+02  0.51100000000E-03 0.  1.
         11   -1    0    0    0    0 -0.00000000000E+00 -0.00000000000E+00 -0.45593999997E+02  0.45594000000E+02  0.51100000000E-03 0. -1.
    9900012    2    1    2    0    0 -0.17038052129E+02  0.50335706706E+01  0.41394219057E+02  0.46142318460E+02  0.10000006376E+02 0.  0.
         12    1    1    2    0    0  0.17038052129E+02 -0.50335706706E+01 -0.41394219057E+02  0.45045681540E+02  0.00000000000E+00 0. -1.
         11    1    3    3    0    0 -0.61019981343E+01  0.67740877142E+00  0.14031785788E+02  0.15316144311E+02  0.51100000000E-03 0. -1.
        -11    1    3    3    0    0 -0.10418826692E+02  0.24069508488E+01  0.26602265100E+02  0.28670993543E+02  0.51100000000E-03 0.  1.
         12    1    3    3    0    0 -0.51722730247E+00  0.19492110504E+01  0.76016816810E+00  0.21551806062E+01  0.00000000000E+00 0. -1.
</event>
<event>
 7    1  0.2243370E-008  0.4614232E+02  0.7816164E-02  0.1320468E+00
        -11   -1    0    0    0    0  0.00000000000E+00  0.00000000000E+00  0.45593999997E+02  0.45594000000E+02  0.51100000000E-03 0.  1.
         11   -1    0    0    0    0 -0.00000000000E+00 -0.00000000000E+00 -0.45593999997E+02  0.45594000000E+02  0.51100000000E-03 0. -1.
    9900012    2    1    2    0    0 -0.13223276175E+02  0.42445731101E+02  0.72538507845E+01  0.46142317935E+02  0.10000001585E+02 0.  0.
         12    1    1    2    0    0  0.13223276175E+02 -0.42445731101E+02 -0.72538507845E+01  0.45045682065E+02  0.00000000000E+00 0. -1.
         11    1    3    3    0    0 -0.47265029150E+01  0.15299131075E+02  0.74437726401E+01  0.17658227341E+02  0.51100000000E-03 0. -1.
        -11    1    3    3    0    0 -0.14046991065E+01  0.64076844301E+01  0.19358839237E+00  0.65627034112E+01  0.51100000000E-03 0.  1.
         12    1    3    3    0    0 -0.70920741530E+01  0.20738915596E+02 -0.38351024796E+00  0.21921387182E+02  0.00000000000E+00 0. -1.
</event>
<event>
 7    1  0.2243370E-008  0.4614232E+02  0.7816164E-02  0.1320468E+00
        -11   -1    0    0    0    0  0.00000000000E+00  0.00000000000E+00  0.45593999997E+02  0.45594000000E+02  0.51100000000E-03 0. -1.
         11   -1    0    0    0    0 -0.00000000000E+00 -0.00000000000E+00 -0.45593999997E+02  0.45594000000E+02  0.51100000000E-03 0.  1.
    9900012    2    1    2    0    0 -0.39571950338E+02 -0.18904904468E+02 -0.10284882814E+02  0.46142317843E+02  0.10000000743E+02 0.  0.
         12    1    1    2    0    0  0.39571950338E+02  0.18904904468E+02  0.10284882814E+02  0.45045682157E+02  0.00000000000E+00 0. -1.
         11    1    3    3    0    0 -0.64647784013E+01 -0.62080263904E+01 -0.14438660767E+01  0.90784195183E+01  0.51100000000E-03 0.  1.
        -11    1    3    3    0    0 -0.16876987037E+02 -0.54956637373E+01 -0.74633084846E+01  0.19254505580E+02  0.51100000000E-03 0. -1.
         12    1    3    3    0    0 -0.16230184900E+02 -0.72012143404E+01 -0.13777082528E+01  0.17809392744E+02  0.00000000000E+00 0. -1.
</event>
<event>
 7    1  0.2243370E-008  0.4614232E+02  0.7816164E-02  0.1320468E+00
        -11   -1    0    0    0    0  0.00000000000E+00  0.00000000000E+00  0.45593999997E+02  0.45594000000E+02  0.51100000000E-03 0.  1.
         11   -1    0    0    0    0 -0.00000000000E+00 -0.00000000000E+00 -0.45593999997E+02  0.45594000000E+02  0.51100000000E-03 0. -1.
    9900012    2    1    2    0    0  0.20157850562E+02 -0.21880496203E+02  0.33823341273E+02  0.46142317984E+02  0.10000002037E+02 0.  0.
         12    1    1    2    0    0 -0.20157850562E+02  0.21880496203E+02 -0.33823341273E+02  0.45045682016E+02  0.00000000000E+00 0. -1.
         11    1    3    3    0    0  0.65214461707E+01 -0.49071786982E+01  0.13165943688E+02  0.15490375606E+02  0.51100000000E-03 0. -1.
        -11    1    3    3    0    0 -0.24709282533E+00 -0.22893011138E+01  0.32317612541E+01  0.39681526582E+01  0.51100000000E-03 0.  1.
        -12    1    3    3    0    0  0.13883497217E+02 -0.14684016391E+02  0.17425636331E+02  0.26683789721E+02  0.00000000000E+00 0.  1.
</event>
<event>
 7    1  0.2243370E-008  0.4614232E+02  0.7816164E-02  0.1320468E+00
        -11   -1    0    0    0    0  0.00000000000E+00  0.00000000000E+00  0.45593999997E+02  0.45594000000E+02  0.51100000000E-03 0. -1.
         11   -1    0    0    0    0 -0.00000000000E+00 -0.00000000000E+00 -0.45593999997E+02  0.45594000000E+02  0.51100000000E-03 0.  1.
    9900012    2    1    2    0    0 -0.14103712208E+02 -0.25810796452E+02 -0.34117468609E+02  0.46142316790E+02  0.99999911472E+01 0.  0.
         12    1    1    2    0    0  0.14103712208E+02  0.25810796452E+02  0.34117468609E+02  0.45045683210E+02  0.00000000000E+00 0. -1.
         11    1    3    3    0    0 -0.24043515469E+01 -0.77919957185E+00 -0.31699216403E+01  0.40541906468E+01  0.51100000000E-03 0. -1.
        -11    1    3    3    0    0 -0.21017238976E+01 -0.13729808076E+01 -0.92006211265E+00  0.26737303888E+01  0.51100000000E-03 0.  1.
        -12    1    3    3    0    0 -0.95976367634E+01 -0.23658616073E+02 -0.30027484856E+02  0.39414395755E+02  0.00000000000E+00 0.  1.
</event>
<event>
 7    1  0.2243370E-008  0.4614231E+02  0.7816164E-02  0.1320468E+00
        -11   -1    0    0    0    0  0.00000000000E+00  0.00000000000E+00  0.45593999997E+02  0.45594000000E+02  0.51100000000E-03 0.  1.
         11   -1    0    0    0    0 -0.00000000000E+00 -0.00000000000E+00 -0.45593999997E+02  0.45594000000E+02  0.51100000000E-03 0. -1.
    9900012    2    1    2    0    0  0.30496224319E+02 -0.25199362092E+02  0.21542663884E+02  0.46142313029E+02  0.99999568446E+01 0.  0.
         12    1    1    2    0    0 -0.30496224319E+02  0.25199362092E+02 -0.21542663884E+02  0.45045686971E+02  0.00000000000E+00 0. -1.
         11    1    3    3    0    0  0.59752563644E+01 -0.66457768189E+01  0.26826066136E+01  0.93309386801E+01  0.51100000000E-03 0. -1.
        -11    1    3    3    0    0  0.12804810962E+02 -0.14098870018E+02  0.10551741158E+02  0.21773391130E+02  0.51100000000E-03 0.  1.
         12    1    3    3    0    0  0.11716156992E+02 -0.44547152542E+01  0.83083161119E+01  0.15037983218E+02  0.00000000000E+00 0. -1.
</event>
<event>
 7    1  0.2243370E-008  0.4614232E+02  0.7816164E-02  0.1320468E+00
        -11   -1    0    0    0    0  0.00000000000E+00  0.00000000000E+00  0.45593999997E+02  0.45594000000E+02  0.51100000000E-03 0.  1.
         11   -1    0    0    0    0 -0.00000000000E+00 -0.00000000000E+00 -0.45593999997E+02  0.45594000000E+02  0.51100000000E-03 0. -1.
    9900012    2    1    2    0    0 -0.32376910134E+01 -0.17346782989E+02  0.41445384287E+02  0.46142318721E+02  0.10000008753E+02 0.  0.
         12    1    1    2    0    0  0.32376910134E+01  0.17346782989E+02 -0.41445384287E+02  0.45045681279E+02  0.00000000000E+00 0. -1.
         11    1    3    3    0    0 -0.11453868796E+01 -0.39515901559E+01  0.20637030276E+02  0.21043146028E+02  0.51100000000E-03 0. -1.
        -11    1    3    3    0    0 -0.22466999594E+01 -0.41596935944E+01  0.82683905852E+01  0.95245469518E+01  0.51100000000E-03 0.  1.
         12    1    3    3    0    0  0.15439582560E+00 -0.92354992390E+01  0.12539963426E+02  0.15574625741E+02  0.00000000000E+00 0. -1.
</event>
<event>
 7    1  0.2243370E-008  0.4614231E+02  0.7816164E-02  0.1320468E+00
        -11   -1    0    0    0    0  0.00000000000E+00  0.00000000000E+00  0.45593999997E+02  0.45594000000E+02  0.51100000000E-03 0.  1.
         11   -1    0    0    0    0 -0.00000000000E+00 -0.00000000000E+00 -0.45593999997E+02  0.45594000000E+02  0.51100000000E-03 0. -1.
    9900012    2    1    2    0    0 -0.77431739395E+01  0.16189505935E+02  0.41316548876E+02  0.46142311460E+02  0.99999425371E+01 0.  0.
         12    1    1    2    0    0  0.77431739395E+01 -0.16189505935E+02 -0.41316548876E+02  0.45045688540E+02  0.00000000000E+00 0. -1.
         11    1    3    3    0    0 -0.51016130292E+01  0.96341776191E+01  0.23735475178E+02  0.26119276714E+02  0.51100000000E-03 0.  1.
        -11    1    3    3    0    0 -0.38257168500E+01  0.60832167691E+01  0.98793076391E+01  0.12216478845E+02  0.51100000000E-03 0. -1.
        -12    1    3    3    0    0  0.11841559397E+01  0.47211154686E+00  0.77017660591E+01  0.78065559007E+01  0.00000000000E+00 0.  1.
</event>
<event>
 7    1  0.2243370E-008  0.4614232E+02  0.7816164E-02  0.1320468E+00
        -11   -1    0    0    0    0  0.00000000000E+00  0.00000000000E+00  0.45593999997E+02  0.45594000000E+02  0.51100000000E-03 0. -1.
         11   -1    0    0    0    0 -0.00000000000E+00 -0.00000000000E+00 -0.45593999997E+02  0.45594000000E+02  0.51100000000E-03 0.  1.
    9900012    2    1    2    0    0 -0.42786922354E+02  0.13610283749E+02  0.36266904679E+01  0.46142318387E+02  0.10000005706E+02 0.  0.
         12    1    1    2    0    0  0.42786922354E+02 -0.13610283749E+02 -0.36266904679E+01  0.45045681613E+02  0.00000000000E+00 0. -1.
         11    1    3    3    0    0 -0.62181693153E+01  0.75016097180E+00  0.15169480477E+01  0.64443388147E+01  0.51100000000E-03 0. -1.
        -11    1    3    3    0    0 -0.10789223395E+02  0.34098638016E-01  0.15381364185E+01  0.10898365386E+02  0.51100000000E-03 0.  1.
        -12    1    3    3    0    0 -0.25779529644E+02  0.12826024139E+02  0.57160600170E+00  0.28799614187E+02  0.00000000000E+00 0.  1.
</event>
<event>
 7    1  0.2243370E-008  0.4614232E+02  0.7816164E-02  0.1320468E+00
        -11   -1    0    0    0    0  0.00000000000E+00  0.00000000000E+00  0.45593999997E+02  0.45594000000E+02  0.51100000000E-03 0.  1.
         11   -1    0    0    0    0 -0.00000000000E+00 -0.00000000000E+00 -0.45593999997E+02  0.45594000000E+02  0.51100000000E-03 0. -1.
    9900012    2    1    2    0    0  0.13337106912E+02  0.41674139468E+02  0.10700521796E+02  0.46142317766E+02  0.10000000048E+02 0.  0.
         12    1    1    2    0    0 -0.13337106912E+02 -0.41674139468E+02 -0.10700521796E+02  0.45045682234E+02  0.00000000000E+00 0. -1.
         11    1    3    3    0    0  0.43159953914E+01  0.47660891202E+01  0.95194484873E+00  0.64999708443E+01  0.51100000000E-03 0. -1.
        -11    1    3    3    0    0  0.23184687625E+01  0.87466241074E+01  0.49025740908E+01  0.10291450999E+02  0.51100000000E-03 0.  1.
        -12    1    3    3    0    0  0.67026427585E+01  0.28161426240E+02  0.48460028569E+01  0.29350895924E+02  0.00000000000E+00 0.  1.
</event>
<event>
 7    1  0.2243370E-008  0.4614232E+02  0.7816164E-02  0.1320468E+00
        -11   -1    0    0    0    0  0.00000000000E+00  0.00000000000E+00  0.45593999997E+02  0.45594000000E+02  0.51100000000E-03 0. -1.
         11   -1    0    0    0    0 -0.00000000000E+00 -0.00000000000E+00 -0.45593999997E+02  0.45594000000E+02  0.51100000000E-03 0.  1.
    9900012    2    1    2    0    0 -0.22701225572E+02 -0.19183425198E+02 -0.33849137149E+02  0.46142317293E+02  0.99999957287E+01 0.  0.
         12    1    1    2    0    0  0.22701225572E+02  0.19183425198E+02  0.33849137149E+02  0.45045682707E+02  0.00000000000E+00 0. -1.
         11    1    3    3    0    0 -0.26725965214E+01 -0.51470931519E+01 -0.49285974937E+01  0.76109403884E+01  0.51100000000E-03 0. -1.
        -11    1    3    3    0    0 -0.10805145460E+01 -0.37229285131E+01 -0.39979615482E+01  0.55687884859E+01  0.51100000000E-03 0.  1.
         12    1    3    3    0    0 -0.18948114505E+02 -0.10313403533E+02 -0.24922578107E+02  0.32962588418E+02  0.00000000000E+00 0. -1.
</event>
<event>
 7    1  0.2243370E-008  0.4614231E+02  0.7816164E-02  0.1320468E+00
        -11   -1    0    0    0    0  0.00000000000E+00  0.00000000000E+00  0.45593999997E+02  0.45594000000E+02  0.51100000000E-03 0.  1.
         11   -1    0    0    0    0 -0.00000000000E+00 -0.00000000000E+00 -0.45593999997E+02  0.45594000000E+02  0.51100000000E-03 0. -1.
    9900012    2    1    2    0    0 -0.37812443712E+02 -0.49610290273E+01  0.23973341723E+02  0.46142314060E+02  0.99999662509E+01 0.  0.
         12    1    1    2    0    0  0.37812443712E+02  0.49610290273E+01 -0.23973341723E+02  0.45045685940E+02  0.00000000000E+00 0. -1.
         11    1    3    3    0    0 -0.42620251479E+01 -0.17418427913E+01  0.58063863183E+01  0.74103304251E+01  0.51100000000E-03 0. -1.
        -11    1    3    3    0    0 -0.16750996185E+02 -0.44160127837E+01  0.82538153254E+01  0.19189124779E+02  0.51100000000E-03 0.  1.
        -12    1    3    3    0    0 -0.16799422379E+02  0.11968265476E+01  0.99131400789E+01  0.19542858856E+02  0.00000000000E+00 0.  1.
</event>
<event>
 7    1  0.2243370E-008  0.4614232E+02  0.7816164E-02  0.1320468E+00
        -11   -1    0    0    0    0  0.00000000000E+00  0.00000000000E+00  0.45593999997E+02  0.45594000000E+02  0.51100000000E-03 0.  1.
         11   -1    0    0    0    0 -0.00000000000E+00 -0.00000000000E+00 -0.45593999997E+02  0.45594000000E+02  0.51100000000E-03 0. -1.
    9900012    2    1    2    0    0 -0.15591518022E+02  0.77907596443E+01  0.41536998123E+02  0.46142316709E+02  0.99999904038E+01 0.  0.
         12    1    1    2    0    0  0.15591518022E+02 -0.77907596443E+01 -0.41536998123E+02  0.45045683291E+02  0.00000000000E+00 0. -1.
         11    1    3    3    0    0  0.43736452429E+00  0.21773329217E+01  0.72851871372E+01  0.76161682140E+01  0.51100000000E-03 0. -1.
        -11    1    3    3    0    0 -0.98158512276E+01  0.14695173439E+01  0.22640453092E+02  0.24720447670E+02  0.51100000000E-03 0.  1.
        -12    1    3    3    0    0 -0.62130313188E+01  0.41439093787E+01  0.11611357894E+02  0.13805700825E+02  0.00000000000E+00 0.  1.
</event>
<event>
 7    1  0.2243370E-008  0.4614232E+02  0.7816164E-02  0.1320468E+00
        -11   -1    0    0    0    0  0.00000000000E+00  0.00000000000E+00  0.45593999997E+02  0.45594000000E+02  0.51100000000E-03 0.  1.
         11   -1    0    0    0    0 -0.00000000000E+00 -0.00000000000E+00 -0.45593999997E+02  0.45594000000E+02  0.51100000000E-03 0. -1.
    9900012    2    1    2    0    0  0.17828459643E+00 -0.44906657236E+02  0.35317730847E+01  0.46142322398E+02  0.10000042283E+02 0.  0.
         12    1    1    2    0    0 -0.17828459643E+00  0.44906657236E+02 -0.35317730847E+01  0.45045677602E+02  0.00000000000E+00 0. -1.
         11    1    3    3    0    0  0.39086652772E+01 -0.10860709557E+02 -0.54396376464E-01  0.11542774170E+02  0.51100000000E-03 0.  1.
        -11    1    3    3    0    0 -0.80437760945E+00 -0.12854317918E+01  0.29031953101E+00  0.15439054120E+01  0.51100000000E-03 0. -1.
        -12    1    3    3    0    0 -0.29260030714E+01 -0.32760515888E+02  0.32958499302E+01  0.33055642816E+02  0.00000000000E+00 0.  1.
</event>
<event>
 7    1  0.2243370E-008  0.4614232E+02  0.7816164E-02  0.1320468E+00
        -11   -1    0    0    0    0  0.00000000000E+00  0.00000000000E+00  0.45593999997E+02  0.45594000000E+02  0.51100000000E-03 0.  1.
         11   -1    0    0    0    0 -0.00000000000E+00 -0.00000000000E+00 -0.45593999997E+02  0.45594000000E+02  0.51100000000E-03 0. -1.
    9900012    2    1    2    0    0 -0.24944236047E+02 -0.22348026186E+02  0.30124147955E+02  0.46142317894E+02  0.10000001213E+02 0.  0.
         12    1    1    2    0    0  0.24944236047E+02  0.22348026186E+02 -0.30124147955E+02  0.45045682106E+02  0.00000000000E+00 0. -1.
         11    1    3    3    0    0 -0.13767389167E+02 -0.13651755266E+02  0.15398171976E+02  0.24759142287E+02  0.51100000000E-03 0.  1.
        -11    1    3    3    0    0 -0.84535055317E+00 -0.21643987996E+01  0.57991332323E+01  0.62473343298E+01  0.51100000000E-03 0. -1.
         12    1    3    3    0    0 -0.10331496328E+02 -0.65318721203E+01  0.89268427459E+01  0.15135841277E+02  0.00000000000E+00 0. -1.
</event>
<event>
 7    1  0.2243370E-008  0.4614232E+02  0.7816164E-02  0.1320468E+00
        -11   -1    0    0    0    0  0.00000000000E+00  0.00000000000E+00  0.45593999997E+02  0.45594000000E+02  0.51100000000E-03 0. -1.
         11   -1    0    0    0    0 -0.00000000000E+00 -0.00000000000E+00 -0.45593999997E+02  0.45594000000E+02  0.51100000000E-03 0.  1.
    9900012    2    1    2    0    0  0.18558744894E+02  0.32088392961E+02 -0.25593387687E+02  0.46142317985E+02  0.10000002044E+02 0.  0.
         12    1    1    2    0    0 -0.18558744894E+02 -0.32088392961E+02  0.25593387687E+02  0.45045682015E+02  0.00000000000E+00 0. -1.
         11    1    3    3    0    0  0.47818510338E+00  0.84802347693E+01 -0.63298975250E+01  0.10592952642E+02  0.51100000000E-03 0. -1.
        -11    1    3    3    0    0  0.24104276125E+01  0.48192354318E+01 -0.29450635760E+01  0.61407321347E+01  0.51100000000E-03 0.  1.
        -12    1    3    3    0    0  0.15670132178E+02  0.18788922760E+02 -0.16318426586E+02  0.29408633209E+02  0.00000000000E+00 0.  1.
</event>
<event>
 7    1  0.2243370E-008  0.4614232E+02  0.7816164E-02  0.1320468E+00
        -11   -1    0    0    0    0  0.00000000000E+00  0.00000000000E+00  0.45593999997E+02  0.45594000000E+02  0.51100000000E-03 0.  1.
         11   -1    0    0    0    0 -0.00000000000E+00 -0.00000000000E+00 -0.45593999997E+02  0.45594000000E+02  0.51100000000E-03 0. -1.
    9900012    2    1    2    0    0  0.35554435835E+02  0.25608716602E+02  0.10449364279E+02  0.46142317772E+02  0.10000000097E+02 0.  0.
         12    1    1    2    0    0 -0.35554435835E+02 -0.25608716602E+02 -0.10449364279E+02  0.45045682228E+02  0.00000000000E+00 0. -1.
         11    1    3    3    0    0  0.22107240531E+02  0.17752649946E+02  0.39128584596E+01  0.28621619898E+02  0.51100000000E-03 0. -1.
        -11    1    3    3    0    0  0.28059658879E+01  0.91795288526E+00 -0.50682498720E+00  0.29954889237E+01  0.51100000000E-03 0.  1.
         12    1    3    3    0    0  0.10641229416E+02  0.69381137711E+01  0.70433308068E+01  0.14525208950E+02  0.00000000000E+00 0. -1.
</event>
<event>
 7    1  0.2243370E-008  0.4614232E+02  0.7816164E-02  0.1320468E+00
        -11   -1    0    0    0    0  0.00000000000E+00  0.00000000000E+00  0.45593999997E+02  0.45594000000E+02  0.51100000000E-03 0. -1.
         11   -1    0    0    0    0 -0.00000000000E+00 -0.00000000000E+00 -0.45593999997E+02  0.45594000000E+02  0.51100000000E-03 0.  1.
    9900012    2    1    2    0    0  0.19762921907E+02 -0.39665399150E+02 -0.80744352051E+01  0.46142317899E+02  0.10000001260E+02 0.  0.
         12    1    1    2    0    0 -0.19762921907E+02  0.39665399150E+02  0.80744352051E+01  0.45045682101E+02  0.00000000000E+00 0. -1.
         11    1    3    3    0    0  0.15154313254E+01 -0.11278795906E+02 -0.12133424565E+01  0.11444648067E+02  0.51100000000E-03 0. -1.
        -11    1    3    3    0    0  0.46817934300E+01 -0.10571872602E+02 -0.33049870413E+01  0.12025249255E+02  0.51100000000E-03 0.  1.
        -12    1    3    3    0    0  0.13565697151E+02 -0.17814730642E+02 -0.35561057072E+01  0.22672420577E+02  0.00000000000E+00 0.  1.
</event>
<event>
 7    1  0.2243370E-008  0.4614232E+02  0.7816164E-02  0.1320468E+00
        -11   -1    0    0    0    0  0.00000000000E+00  0.00000000000E+00  0.45593999997E+02  0.45594000000E+02  0.51100000000E-03 0. -1.
         11   -1    0    0    0    0 -0.00000000000E+00 -0.00000000000E+00 -0.45593999997E+02  0.45594000000E+02  0.51100000000E-03 0.  1.
    9900012    2    1    2    0    0 -0.74760363999E+01  0.44389874547E+02 -0.16617327299E+01  0.46142318318E+02  0.10000005077E+02 0.  0.
         12    1    1    2    0    0  0.74760363999E+01 -0.44389874547E+02  0.16617327299E+01  0.45045681682E+02  0.00000000000E+00 0. -1.
         11    1    3    3    0    0  0.68057017430E+00  0.36506519688E+01 -0.22387180543E+01  0.43361612455E+01  0.51100000000E-03 0. -1.
        -11    1    3    3    0    0 -0.79044490777E+01  0.40246346322E+02  0.11202182265E+01  0.41030520306E+02  0.51100000000E-03 0.  1.
        -12    1    3    3    0    0 -0.25215749652E+00  0.49287625658E+00 -0.54323290206E+00  0.77563676629E+00  0.00000000000E+00 0.  1.
</event>
<event>
 7    1  0.2243370E-008  0.4614232E+02  0.7816164E-02  0.1320468E+00
        -11   -1    0    0    0    0  0.00000000000E+00  0.00000000000E+00  0.45593999997E+02  0.45594000000E+02  0.51100000000E-03 0. -1.
         11   -1    0    0    0    0 -0.00000000000E+00 -0.00000000000E+00 -0.45593999997E+02  0.45594000000E+02  0.51100000000E-03 0.  1.
    9900012    2    1    2    0    0 -0.39077534834E+02 -0.21787182280E+02 -0.52324323047E+01  0.46142318872E+02  0.10000010134E+02 0.  0.
         12    1    1    2    0    0  0.39077534834E+02  0.21787182280E+02  0.52324323047E+01  0.45045681128E+02  0.00000000000E+00 0. -1.
         11    1    3    3    0    0 -0.10439778689E+02 -0.34166209141E+01 -0.90589117439E+00  0.11021928898E+02  0.51100000000E-03 0. -1.
        -11    1    3    3    0    0 -0.16460082807E+02 -0.14017127566E+02 -0.49267777402E+01  0.22174023775E+02  0.51100000000E-03 0.  1.
        -12    1    3    3    0    0 -0.12177673338E+02 -0.43534337994E+01  0.60023660984E+00  0.12946366199E+02  0.00000000000E+00 0.  1.
</event>
<event>
 7    1  0.2243370E-008  0.4614232E+02  0.7816164E-02  0.1320468E+00
        -11   -1    0    0    0    0  0.00000000000E+00  0.00000000000E+00  0.45593999997E+02  0.45594000000E+02  0.51100000000E-03 0.  1.
         11   -1    0    0    0    0 -0.00000000000E+00 -0.00000000000E+00 -0.45593999997E+02  0.45594000000E+02  0.51100000000E-03 0. -1.
    9900012    2    1    2    0    0  0.86316402961E+01 -0.15338616045E+02  0.41464862950E+02  0.46142320786E+02  0.10000027583E+02 0.  0.
         12    1    1    2    0    0 -0.86316402961E+01  0.15338616045E+02 -0.41464862950E+02  0.45045679214E+02  0.00000000000E+00 0. -1.
         11    1    3    3    0    0  0.14993466181E+01 -0.45445572547E+00  0.13142358676E+02  0.13235413182E+02  0.51100000000E-03 0. -1.
        -11    1    3    3    0    0  0.22080251713E+01 -0.36562731072E+01  0.51486963906E+01  0.66897520862E+01  0.51100000000E-03 0.  1.
        -12    1    3    3    0    0  0.49242685066E+01 -0.11227887213E+02  0.23173807884E+02  0.26217155517E+02  0.00000000000E+00 0.  1.
</event>
<event>
 7    1  0.2243370E-008  0.4614232E+02  0.7816164E-02  0.1320468E+00
        -11   -1    0    0    0    0  0.00000000000E+00  0.00000000000E+00  0.45593999997E+02  0.45594000000E+02  0.51100000000E-03 0.  1.
         11   -1    0    0    0    0 -0.00000000000E+00 -0.00000000000E+00 -0.45593999997E+02  0.45594000000E+02  0.51100000000E-03 0. -1.
    9900012    2    1    2    0    0 -0.93659508209E+01  0.35510942220E+00  0.44059804634E+02  0.46142317389E+02  0.99999966087E+01 0.  0.
         12    1    1    2    0    0  0.93659508209E+01 -0.35510942220E+00 -0.44059804634E+02  0.45045682611E+02  0.00000000000E+00 0. -1.
         11    1    3    3    0    0 -0.20372022626E+01 -0.50176748632E-01  0.13648698320E+01  0.24526680746E+01  0.51100000000E-03 0. -1.
        -11    1    3    3    0    0 -0.18408201431E+01 -0.18969739816E+01  0.66390828165E+01  0.71459464028E+01  0.51100000000E-03 0.  1.
        -12    1    3    3    0    0 -0.54879284152E+01  0.23022601525E+01  0.36055851986E+02  0.36543702912E+02  0.00000000000E+00 0.  1.
</event>
<event>
 7    1  0.2243370E-008  0.4614232E+02  0.7816164E-02  0.1320468E+00
        -11   -1    0    0    0    0  0.00000000000E+00  0.00000000000E+00  0.45593999997E+02  0.45594000000E+02  0.51100000000E-03 0.  1.
         11   -1    0    0    0    0 -0.00000000000E+00 -0.00000000000E+00 -0.45593999997E+02  0.45594000000E+02  0.51100000000E-03 0. -1.
    9900012    2    1    2    0    0 -0.20422743739E+02  0.28350161036E+02  0.28430498574E+02  0.46142319389E+02  0.10000014840E+02 0.  0.
         12    1    1    2    0    0  0.20422743739E+02 -0.28350161036E+02 -0.28430498574E+02  0.45045680611E+02  0.00000000000E+00 0. -1.
         11    1    3    3    0    0  0.68281891929E+00  0.19208059402E+01  0.12486906063E+01  0.23905994286E+01  0.51100000000E-03 0. -1.
        -11    1    3    3    0    0 -0.69741777813E+00  0.32076124240E+01  0.35803177874E+01  0.48573495591E+01  0.51100000000E-03 0.  1.
        -12    1    3    3    0    0 -0.20408144880E+02  0.23221742672E+02  0.23601490180E+02  0.38894370401E+02  0.00000000000E+00 0.  1.
</event>
<event>
 7    1  0.2243370E-008  0.4614232E+02  0.7816164E-02  0.1320468E+00
        -11   -1    0    0    0    0  0.00000000000E+00  0.00000000000E+00  0.45593999997E+02  0.45594000000E+02  0.51100000000E-03 0.  1.
         11   -1    0    0    0    0 -0.00000000000E+00 -0.00000000000E+00 -0.45593999997E+02  0.45594000000E+02  0.51100000000E-03 0. -1.
    9900012    2    1    2    0    0 -0.15402476084E+02 -0.21665594259E+02  0.36365907206E+02  0.46142318176E+02  0.10000003782E+02 0.  0.
         12    1    1    2    0    0  0.15402476084E+02  0.21665594259E+02 -0.36365907206E+02  0.45045681824E+02  0.00000000000E+00 0. -1.
         11    1    3    3    0    0 -0.61543762906E+01 -0.94794913869E+01  0.20601581580E+02  0.23498133294E+02  0.51100000000E-03 0.  1.
        -11    1    3    3    0    0 -0.34476214498E+01 -0.62127999229E+01  0.10869371366E+02  0.12985692538E+02  0.51100000000E-03 0. -1.
         12    1    3    3    0    0 -0.58004783434E+01 -0.59733029491E+01  0.48949542601E+01  0.96584923431E+01  0.00000000000E+00 0. -1.
</event>
<event>
 7    1  0.2243370E-008  0.4614232E+02  0.7816164E-02  0.1320468E+00
        -11   -1    0    0    0    0  0.00000000000E+00  0.00000000000E+00  0.45593999997E+02  0.45594000000E+02  0.51100000000E-03 0.  1.
         11   -1    0    0    0    0 -0.00000000000E+00 -0.00000000000E+00 -0.45593999997E+02  0.45594000000E+02  0.51100000000E-03 0. -1.
    9900012    2    1    2    0    0  0.22395095899E+02 -0.35567292736E+02  0.16203103884E+02  0.46142320869E+02  0.10000028339E+02 0.  0.
         12    1    1    2    0    0 -0.22395095899E+02  0.35567292736E+02 -0.16203103884E+02  0.45045679131E+02  0.00000000000E+00 0. -1.
         11    1    3    3    0    0  0.24176452757E+01 -0.99547755801E+01  0.55904394447E+01  0.11670286156E+02  0.51100000000E-03 0. -1.
        -11    1    3    3    0    0  0.79584197831E+01 -0.13445737509E+02  0.39353676110E+01  0.16112461671E+02  0.51100000000E-03 0.  1.
        -12    1    3    3    0    0  0.12019030841E+02 -0.12166779647E+02  0.66772968281E+01  0.18359573041E+02  0.00000000000E+00 0.  1.
</event>
<event>
 7    1  0.2243370E-008  0.4614232E+02  0.7816164E-02  0.1320468E+00
        -11   -1    0    0    0    0  0.00000000000E+00  0.00000000000E+00  0.45593999997E+02  0.45594000000E+02  0.51100000000E-03 0. -1.
         11   -1    0    0    0    0 -0.00000000000E+00 -0.00000000000E+00 -0.45593999997E+02  0.45594000000E+02  0.51100000000E-03 0.  1.
    9900012    2    1    2    0    0  0.26854567063E+02 -0.35516363502E+02 -0.68215635417E+01  0.46142316770E+02  0.99999909617E+01 0.  0.
         12    1    1    2    0    0 -0.26854567063E+02  0.35516363502E+02  0.68215635417E+01  0.45045683230E+02  0.00000000000E+00 0. -1.
         11    1    3    3    0    0  0.13278033790E+01 -0.51883196055E+01 -0.95492525855E+00  0.54400004276E+01  0.51100000000E-03 0. -1.
        -11    1    3    3    0    0  0.40003531187E+01 -0.27228310116E+01 -0.27295897314E+01  0.55558342447E+01  0.51100000000E-03 0.  1.
         12    1    3    3    0    0  0.21526410565E+02 -0.27605212885E+02 -0.31370485517E+01  0.35146482098E+02  0.00000000000E+00 0. -1.
</event>
<event>
 7    1  0.2243370E-008  0.4614232E+02  0.7816164E-02  0.1320468E+00
        -11   -1    0    0    0    0  0.00000000000E+00  0.00000000000E+00  0.45593999997E+02  0.45594000000E+02  0.51100000000E-03 0. -1.
         11   -1    0    0    0    0 -0.00000000000E+00 -0.00000000000E+00 -0.45593999997E+02  0.45594000000E+02  0.51100000000E-03 0.  1.
    9900012    2    1    2    0    0 -0.82679935764E+01 -0.20765769547E+02 -0.39109288681E+02  0.46142319144E+02  0.10000012607E+02 0.  0.
         12    1    1    2    0    0  0.82679935764E+01  0.20765769547E+02  0.39109288681E+02  0.45045680856E+02  0.00000000000E+00 0. -1.
         11    1    3    3    0    0 -0.83547066876E+00 -0.46747488898E+01 -0.36528591435E+01  0.59912159537E+01  0.51100000000E-03 0. -1.
        -11    1    3    3    0    0  0.90141017513E+00 -0.14268489036E+01 -0.57240101114E+01  0.59676402467E+01  0.51100000000E-03 0.  1.
        -12    1    3    3    0    0 -0.83339330827E+01 -0.14664171753E+02 -0.29732419426E+02  0.34183462943E+02  0.00000000000E+00 0.  1.
</event>
<event>
 7    1  0.2243370E-008  0.4614232E+02  0.7816164E-02  0.1320468E+00
        -11   -1    0    0    0    0  0.00000000000E+00  0.00000000000E+00  0.45593999997E+02  0.45594000000E+02  0.51100000000E-03 0. -1.
         11   -1    0    0    0    0 -0.00000000000E+00 -0.00000000000E+00 -0.45593999997E+02  0.45594000000E+02  0.51100000000E-03 0.  1.
    9900012    2    1    2    0    0 -0.18428828196E+02  0.38316302704E+02 -0.14877927388E+02  0.46142317799E+02  0.10000000349E+02 0.  0.
         12    1    1    2    0    0  0.18428828196E+02 -0.38316302704E+02  0.14877927388E+02  0.45045682201E+02  0.00000000000E+00 0. -1.
         11    1    3    3    0    0 -0.30501502261E+00  0.34603211965E+01 -0.22925872473E+01  0.41620684154E+01  0.51100000000E-03 0. -1.
        -11    1    3    3    0    0 -0.10896601690E+02  0.13831436002E+02 -0.34415495397E+01  0.17941260094E+02  0.51100000000E-03 0.  1.
        -12    1    3    3    0    0 -0.72272114834E+01  0.21024545506E+02 -0.91437906006E+01  0.24038989290E+02  0.00000000000E+00 0.  1.
</event>
<event>
 7    1  0.2243370E-008  0.4614232E+02  0.7816164E-02  0.1320468E+00
        -11   -1    0    0    0    0  0.00000000000E+00  0.00000000000E+00  0.45593999997E+02  0.45594000000E+02  0.51100000000E-03 0.  1.
         11   -1    0    0    0    0 -0.00000000000E+00 -0.00000000000E+00 -0.45593999997E+02  0.45594000000E+02  0.51100000000E-03 0. -1.
    9900012    2    1    2    0    0  0.39316280175E+02 -0.16763228052E+01  0.21921076878E+02  0.46142317006E+02  0.99999931120E+01 0.  0.
         12    1    1    2    0    0 -0.39316280175E+02  0.16763228052E+01 -0.21921076878E+02  0.45045682994E+02  0.00000000000E+00 0. -1.
         11    1    3    3    0    0  0.49414136864E+01 -0.20308969025E+01  0.59733811387E+01  0.80139499585E+01  0.51100000000E-03 0. -1.
        -11    1    3    3    0    0  0.24801809339E+01  0.30933081741E+00  0.70690226208E-01  0.25003960463E+01  0.51100000000E-03 0.  1.
        -12    1    3    3    0    0  0.31894685555E+02  0.45243279932E-01  0.15877005513E+02  0.35627971001E+02  0.00000000000E+00 0.  1.
</event>
<event>
 7    1  0.2243370E-008  0.4614232E+02  0.7816164E-02  0.1320468E+00
        -11   -1    0    0    0    0  0.00000000000E+00  0.00000000000E+00  0.45593999997E+02  0.45594000000E+02  0.51100000000E-03 0. -1.
         11   -1    0    0    0    0 -0.00000000000E+00 -0.00000000000E+00 -0.45593999997E+02  0.45594000000E+02  0.51100000000E-03 0.  1.
    9900012    2    1    2    0    0 -0.38663547762E+02  0.13670883953E+02 -0.18637337653E+02  0.46142319314E+02  0.10000014164E+02 0.  0.
         12    1    1    2    0    0  0.38663547762E+02 -0.13670883953E+02  0.18637337653E+02  0.45045680686E+02  0.00000000000E+00 0. -1.
         11    1    3    3    0    0 -0.89457720400E+01  0.37258884759E+01 -0.15473839858E+01  0.98134336390E+01  0.51100000000E-03 0. -1.
        -11    1    3    3    0    0 -0.66411836374E+01  0.53279468793E+01 -0.41437184955E+01  0.94690412021E+01  0.51100000000E-03 0.  1.
        -12    1    3    3    0    0 -0.23076592085E+02  0.46170485982E+01 -0.12946235172E+02  0.26859844473E+02  0.00000000000E+00 0.  1.
</event>
<event>
 7    1  0.2243370E-008  0.4614232E+02  0.7816164E-02  0.1320468E+00
        -11   -1    0    0    0    0  0.00000000000E+00  0.00000000000E+00  0.45593999997E+02  0.45594000000E+02  0.51100000000E-03 0.  1.
         11   -1    0    0    0    0 -0.00000000000E+00 -0.00000000000E+00 -0.45593999997E+02  0.45594000000E+02  0.51100000000E-03 0. -1.
    9900012    2    1    2    0    0  0.41945538720E+02  0.14493886718E+02  0.77209157894E+01  0.46142317506E+02  0.99999976748E+01 0.  0.
         12    1    1    2    0    0 -0.41945538720E+02 -0.14493886718E+02 -0.77209157894E+01  0.45045682494E+02  0.00000000000E+00 0. -1.
         11    1    3    3    0    0  0.71524662296E+01 -0.57900875813E-01  0.35370913741E+01  0.79794825225E+01  0.51100000000E-03 0. -1.
        -11    1    3    3    0    0  0.11428546842E+02  0.31887660119E+01  0.25112913815E+01  0.12127922174E+02  0.51100000000E-03 0.  1.
        -12    1    3    3    0    0  0.23364525649E+02  0.11363021582E+02  0.16725330338E+01  0.26034912810E+02  0.00000000000E+00 0.  1.
</event>
<event>
 7    1  0.2243370E-008  0.4614232E+02  0.7816164E-02  0.1320468E+00
        -11   -1    0    0    0    0  0.00000000000E+00  0.00000000000E+00  0.45593999997E+02  0.45594000000E+02  0.51100000000E-03 0.  1.
         11   -1    0    0    0    0 -0.00000000000E+00 -0.00000000000E+00 -0.45593999997E+02  0.45594000000E+02  0.51100000000E-03 0. -1.
    9900012    2    1    2    0    0 -0.17353922661E+02 -0.10031390427E+02  0.40340130093E+02  0.46142317393E+02  0.99999966433E+01 0.  0.
         12    1    1    2    0    0  0.17353922661E+02  0.10031390427E+02 -0.40340130093E+02  0.45045682607E+02  0.00000000000E+00 0. -1.
         11    1    3    3    0    0 -0.18905995264E+01 -0.53753148798E+00  0.49819846205E+01  0.53556958175E+01  0.51100000000E-03 0. -1.
        -11    1    3    3    0    0 -0.14369096968E+02 -0.54759390039E+01  0.22355863234E+02  0.27133770045E+02  0.51100000000E-03 0.  1.
         12    1    3    3    0    0 -0.10942261666E+01 -0.40179199350E+01  0.13002282239E+02  0.13652851531E+02  0.00000000000E+00 0. -1.
</event>
<event>
 7    1  0.2243370E-008  0.4614232E+02  0.7816164E-02  0.1320468E+00
        -11   -1    0    0    0    0  0.00000000000E+00  0.00000000000E+00  0.45593999997E+02  0.45594000000E+02  0.51100000000E-03 0. -1.
         11   -1    0    0    0    0 -0.00000000000E+00 -0.00000000000E+00 -0.45593999997E+02  0.45594000000E+02  0.51100000000E-03 0.  1.
    9900012    2    1    2    0    0  0.20494296260E+02 -0.26148129755E+02 -0.30419937936E+02  0.46142317711E+02  0.99999995417E+01 0.  0.
         12    1    1    2    0    0 -0.20494296260E+02  0.26148129755E+02  0.30419937936E+02  0.45045682289E+02  0.00000000000E+00 0. -1.
         11    1    3    3    0    0  0.30188237008E+01 -0.71557156780E+01 -0.11926031631E+02  0.14231928687E+02  0.51100000000E-03 0. -1.
        -11    1    3    3    0    0  0.31000395908E+01 -0.22343692616E+01 -0.37976901478E+01  0.53874949821E+01  0.51100000000E-03 0.  1.
         12    1    3    3    0    0  0.14375432968E+02 -0.16758044815E+02 -0.14696216157E+02  0.26522894042E+02  0.00000000000E+00 0. -1.
</event>
<event>
 7    1  0.2243370E-008  0.4614232E+02  0.7816164E-02  0.1320468E+00
        -11   -1    0    0    0    0  0.00000000000E+00  0.00000000000E+00  0.45593999997E+02  0.45594000000E+02  0.51100000000E-03 0.  1.
         11   -1    0    0    0    0 -0.00000000000E+00 -0.00000000000E+00 -0.45593999997E+02  0.45594000000E+02  0.51100000000E-03 0. -1.
    9900012    2    1    2    0    0 -0.44489146939E+02 -0.18115502199E+01  0.68225790630E+01  0.46142317692E+02  0.99999993653E+01 0.  0.
         12    1    1    2    0    0  0.44489146939E+02  0.18115502199E+01 -0.68225790630E+01  0.45045682308E+02  0.00000000000E+00 0. -1.
         11    1    3    3    0    0 -0.38630087159E+01 -0.12296926908E+00 -0.10134385610E+00  0.38662939126E+01  0.51100000000E-03 0. -1.
        -11    1    3    3    0    0 -0.38136373269E+02 -0.33178141538E+01  0.47138232120E+01  0.38569560360E+02  0.51100000000E-03 0.  1.
        -12    1    3    3    0    0 -0.24897649543E+01  0.16292332029E+01  0.22100997071E+01  0.37064634185E+01  0.00000000000E+00 0.  1.
</event>
<event>
 7    1  0.2243370E-008  0.4614231E+02  0.7816164E-02  0.1320468E+00
        -11   -1    0    0    0    0  0.00000000000E+00  0.00000000000E+00  0.45593999997E+02  0.45594000000E+02  0.51100000000E-03 0. -1.
         11   -1    0    0    0    0 -0.00000000000E+00 -0.00000000000E+00 -0.45593999997E+02  0.45594000000E+02  0.51100000000E-03 0.  1.
    9900012    2    1    2    0    0 -0.20210584442E+02 -0.11421872246E+02 -0.38602940734E+02  0.46142312944E+02  0.99999560703E+01 0.  0.
         12    1    1    2    0    0  0.20210584442E+02  0.11421872246E+02  0.38602940734E+02  0.45045687056E+02  0.00000000000E+00 0. -1.
         11    1    3    3    0    0 -0.89918121445E+01 -0.86070564960E+01 -0.24439559906E+02  0.27426742348E+02  0.51100000000E-03 0. -1.
        -11    1    3    3    0    0 -0.38199078962E+01 -0.60225682307E+00 -0.78115663402E+01  0.87163626913E+01  0.51100000000E-03 0.  1.
         12    1    3    3    0    0 -0.73988644009E+01 -0.22125589275E+01 -0.63518144876E+01  0.99992079044E+01  0.00000000000E+00 0. -1.
</event>
<event>
 7    1  0.2243370E-008  0.4614232E+02  0.7816164E-02  0.1320468E+00
        -11   -1    0    0    0    0  0.00000000000E+00  0.00000000000E+00  0.45593999997E+02  0.45594000000E+02  0.51100000000E-03 0.  1.
         11   -1    0    0    0    0 -0.00000000000E+00 -0.00000000000E+00 -0.45593999997E+02  0.45594000000E+02  0.51100000000E-03 0. -1.
    9900012    2    1    2    0    0  0.92294792056E+01 -0.13876989384E+02  0.41849245893E+02  0.46142317603E+02  0.99999985571E+01 0.  0.
         12    1    1    2    0    0 -0.92294792056E+01  0.13876989384E+02 -0.41849245893E+02  0.45045682397E+02  0.00000000000E+00 0. -1.
         11    1    3    3    0    0  0.27888146471E+01 -0.76231656387E+01  0.18763511651E+02  0.20444058091E+02  0.51100000000E-03 0. -1.
        -11    1    3    3    0    0  0.95222427301E+00 -0.29773357514E+01  0.15341738896E+02  0.15656954105E+02  0.51100000000E-03 0.  1.
        -12    1    3    3    0    0  0.54884402855E+01 -0.32764879941E+01  0.77439953469E+01  0.10041305407E+02  0.00000000000E+00 0.  1.
</event>
<event>
 7    1  0.2243370E-008  0.4614232E+02  0.7816164E-02  0.1320468E+00
        -11   -1    0    0    0    0  0.00000000000E+00  0.00000000000E+00  0.45593999997E+02  0.45594000000E+02  0.51100000000E-03 0.  1.
         11   -1    0    0    0    0 -0.00000000000E+00 -0.00000000000E+00 -0.45593999997E+02  0.45594000000E+02  0.51100000000E-03 0. -1.
    9900012    2    1    2    0    0 -0.65923413529E+01 -0.15894749371E+02  0.41629454144E+02  0.46142317916E+02  0.10000001413E+02 0.  0.
         12    1    1    2    0    0  0.65923413529E+01  0.15894749371E+02 -0.41629454144E+02  0.45045682084E+02  0.00000000000E+00 0. -1.
         11    1    3    3    0    0 -0.83646272545E+01 -0.12020345504E+02  0.36697723119E+02  0.39511752397E+02  0.51100000000E-03 0. -1.
        -11    1    3    3    0    0  0.14749829484E+00 -0.14948173138E+01  0.21717656007E+01  0.26406061112E+01  0.51100000000E-03 0.  1.
         12    1    3    3    0    0  0.16247876068E+01 -0.23795865526E+01  0.27599654248E+01  0.39899594077E+01  0.00000000000E+00 0. -1.
</event>
<event>
 7    1  0.2243370E-008  0.4614232E+02  0.7816164E-02  0.1320468E+00
        -11   -1    0    0    0    0  0.00000000000E+00  0.00000000000E+00  0.45593999997E+02  0.45594000000E+02  0.51100000000E-03 0.  1.
         11   -1    0    0    0    0 -0.00000000000E+00 -0.00000000000E+00 -0.45593999997E+02  0.45594000000E+02  0.51100000000E-03 0. -1.
    9900012    2    1    2    0    0  0.28802061305E+00 -0.43334079702E+02 -0.12295858782E+02  0.46142316937E+02  0.99999924824E+01 0.  0.
         12    1    1    2    0    0 -0.28802061305E+00  0.43334079702E+02  0.12295858782E+02  0.45045683063E+02  0.00000000000E+00 0. -1.
         11    1    3    3    0    0 -0.14704402556E+01 -0.13784808201E+02 -0.29889794438E+01  0.14181577135E+02  0.51100000000E-03 0. -1.
        -11    1    3    3    0    0  0.43680435939E+00 -0.81971468730E+01  0.89925956329E+00  0.82578861054E+01  0.51100000000E-03 0.  1.
        -12    1    3    3    0    0  0.13216565092E+01 -0.21352124628E+02 -0.10206138901E+02  0.23702853696E+02  0.00000000000E+00 0.  1.
</event>
<event>
 7    1  0.2243370E-008  0.4614232E+02  0.7816164E-02  0.1320468E+00
        -11   -1    0    0    0    0  0.00000000000E+00  0.00000000000E+00  0.45593999997E+02  0.45594000000E+02  0.51100000000E-03 0. -1.
         11   -1    0    0    0    0 -0.00000000000E+00 -0.00000000000E+00 -0.45593999997E+02  0.45594000000E+02  0.51100000000E-03 0.  1.
    9900012    2    1    2    0    0 -0.16391733761E+02 -0.37759561017E+02  0.18293169293E+02  0.46142318446E+02  0.10000006242E+02 0.  0.
         12    1    1    2    0    0  0.16391733761E+02  0.37759561017E+02 -0.18293169293E+02  0.45045681554E+02  0.00000000000E+00 0. -1.
         11    1    3    3    0    0 -0.36292797763E+01 -0.59103263531E+01  0.41471525769E+01  0.80809964764E+01  0.51100000000E-03 0. -1.
        -11    1    3    3    0    0 -0.91820115269E+01 -0.19471855067E+02  0.12945494600E+02  0.25120674874E+02  0.51100000000E-03 0.  1.
         12    1    3    3    0    0 -0.35804424576E+01 -0.12377379597E+02  0.12005221161E+01  0.12940647095E+02  0.00000000000E+00 0. -1.
</event>
<event>
 7    1  0.2243370E-008  0.4614232E+02  0.7816164E-02  0.1320468E+00
        -11   -1    0    0    0    0  0.00000000000E+00  0.00000000000E+00  0.45593999997E+02  0.45594000000E+02  0.51100000000E-03 0.  1.
         11   -1    0    0    0    0 -0.00000000000E+00 -0.00000000000E+00 -0.45593999997E+02  0.45594000000E+02  0.51100000000E-03 0. -1.
    9900012    2    1    2    0    0 -0.32959198028E+02  0.16219266601E+02  0.26071823710E+02  0.46142319460E+02  0.10000015491E+02 0.  0.
         12    1    1    2    0    0  0.32959198028E+02 -0.16219266601E+02 -0.26071823710E+02  0.45045680540E+02  0.00000000000E+00 0. -1.
         11    1    3    3    0    0 -0.78961976769E+01  0.64825459058E+01  0.34056305854E+01  0.10769013842E+02  0.51100000000E-03 0. -1.
        -11    1    3    3    0    0 -0.76408723029E+01  0.34902674280E+01  0.93708698997E+01  0.12584836082E+02  0.51100000000E-03 0.  1.
        -12    1    3    3    0    0 -0.17422128048E+02  0.62464532673E+01  0.13295323225E+02  0.22788469537E+02  0.00000000000E+00 0.  1.
</event>
<event>
 7    1  0.2243370E-008  0.4614232E+02  0.7816164E-02  0.1320468E+00
        -11   -1    0    0    0    0  0.00000000000E+00  0.00000000000E+00  0.45593999997E+02  0.45594000000E+02  0.51100000000E-03 0. -1.
         11   -1    0    0    0    0 -0.00000000000E+00 -0.00000000000E+00 -0.45593999997E+02  0.45594000000E+02  0.51100000000E-03 0.  1.
    9900012    2    1    2    0    0  0.23270611619E+02  0.29457160154E+02 -0.24897148038E+02  0.46142316190E+02  0.99999856755E+01 0.  0.
         12    1    1    2    0    0 -0.23270611619E+02 -0.29457160154E+02  0.24897148038E+02  0.45045683810E+02  0.00000000000E+00 0. -1.
         11    1    3    3    0    0  0.84205989659E+01  0.60086333506E+01 -0.85101073412E+01  0.13395226348E+02  0.51100000000E-03 0.  1.
        -11    1    3    3    0    0  0.29053107723E+00  0.37361820115E+01 -0.12871941913E+01  0.39623646321E+01  0.51100000000E-03 0. -1.
         12    1    3    3    0    0  0.14559481575E+02  0.19712344792E+02 -0.15099846506E+02  0.28784725210E+02  0.00000000000E+00 0. -1.
</event>
<event>
 7    1  0.2243370E-008  0.4614232E+02  0.7816164E-02  0.1320468E+00
        -11   -1    0    0    0    0  0.00000000000E+00  0.00000000000E+00  0.45593999997E+02  0.45594000000E+02  0.51100000000E-03 0.  1.
         11   -1    0    0    0    0 -0.00000000000E+00 -0.00000000000E+00 -0.45593999997E+02  0.45594000000E+02  0.51100000000E-03 0. -1.
    9900012    2    1    2    0    0 -0.15365715695E+02  0.42031025218E+02  0.51382109238E+01  0.46142317508E+02  0.99999976902E+01 0.  0.
         12    1    1    2    0    0  0.15365715695E+02 -0.42031025218E+02 -0.51382109238E+01  0.45045682492E+02  0.00000000000E+00 0. -1.
         11    1    3    3    0    0 -0.35819277248E+00  0.77600130751E+01  0.13373557297E+01  0.78825519724E+01  0.51100000000E-03 0. -1.
        -11    1    3    3    0    0 -0.48777134112E+00  0.14058387499E+01  0.17135643203E+01  0.22694947484E+01  0.51100000000E-03 0.  1.
        -12    1    3    3    0    0 -0.14519751582E+02  0.32865173393E+02  0.20872908738E+01  0.35990270787E+02  0.00000000000E+00 0.  1.
</event>
<event>
 7    1  0.2243370E-008  0.4614231E+02  0.7816164E-02  0.1320468E+00
        -11   -1    0    0    0    0  0.00000000000E+00  0.00000000000E+00  0.45593999997E+02  0.45594000000E+02  0.51100000000E-03 0.  1.
         11   -1    0    0    0    0 -0.00000000000E+00 -0.00000000000E+00 -0.45593999997E+02  0.45594000000E+02  0.51100000000E-03 0. -1.
    9900012    2    1    2    0    0  0.29409130205E+02 -0.95175496347E+01  0.32766340394E+02  0.46142314821E+02  0.99999731889E+01 0.  0.
         12    1    1    2    0    0 -0.29409130205E+02  0.95175496347E+01 -0.32766340394E+02  0.45045685179E+02  0.00000000000E+00 0. -1.
         11    1    3    3    0    0  0.11974858948E+02 -0.13731509160E+01  0.80850046577E+01  0.14513789679E+02  0.51100000000E-03 0. -1.
        -11    1    3    3    0    0  0.84726391656E+01 -0.62914943258E+01  0.14578573865E+02  0.17997314563E+02  0.51100000000E-03 0.  1.
         12    1    3    3    0    0  0.89616320908E+01 -0.18529043930E+01  0.10102761871E+02  0.13631210579E+02  0.00000000000E+00 0. -1.
</event>
<event>
 7    1  0.2243370E-008  0.4614232E+02  0.7816164E-02  0.1320468E+00
        -11   -1    0    0    0    0  0.00000000000E+00  0.00000000000E+00  0.45593999997E+02  0.45594000000E+02  0.51100000000E-03 0. -1.
         11   -1    0    0    0    0 -0.00000000000E+00 -0.00000000000E+00 -0.45593999997E+02  0.45594000000E+02  0.51100000000E-03 0.  1.
    9900012    2    1    2    0    0 -0.21069282646E+02  0.38546357477E+02  0.99688049351E+01  0.46142318544E+02  0.10000007143E+02 0.  0.
         12    1    1    2    0    0  0.21069282646E+02 -0.38546357477E+02 -0.99688049351E+01  0.45045681456E+02  0.00000000000E+00 0. -1.
         11    1    3    3    0    0 -0.32734105207E+01  0.74014190459E+01  0.55466669572E+01  0.98113064841E+01  0.51100000000E-03 0. -1.
        -11    1    3    3    0    0 -0.46368613043E+01  0.11113362521E+02  0.56195633692E+00  0.12055003296E+02  0.51100000000E-03 0.  1.
        -12    1    3    3    0    0 -0.13159010821E+02  0.20031575910E+02  0.38601816410E+01  0.24276008764E+02  0.00000000000E+00 0.  1.
</event>
<event>
 7    1  0.2243370E-008  0.4614231E+02  0.7816164E-02  0.1320468E+00
        -11   -1    0    0    0    0  0.00000000000E+00  0.00000000000E+00  0.45593999997E+02  0.45594000000E+02  0.51100000000E-03 0.  1.
         11   -1    0    0    0    0 -0.00000000000E+00 -0.00000000000E+00 -0.45593999997E+02  0.45594000000E+02  0.51100000000E-03 0. -1.
    9900012    2    1    2    0    0 -0.44661072994E+02  0.18893550792E+01 -0.55617897837E+01  0.46142305320E+02  0.99998865543E+01 0.  0.
         12    1    1    2    0    0  0.44661072994E+02 -0.18893550792E+01  0.55617897837E+01  0.45045694680E+02  0.00000000000E+00 0. -1.
         11    1    3    3    0    0 -0.16355133660E+02  0.62172420171E+00 -0.46718384154E+01  0.17020664278E+02  0.51100000000E-03 0. -1.
        -11    1    3    3    0    0 -0.16593634384E+02  0.26682001469E+01 -0.31817788756E+01  0.17105312367E+02  0.51100000000E-03 0.  1.
         12    1    3    3    0    0 -0.11712304950E+02 -0.14005692694E+01  0.22918275073E+01  0.12016328676E+02  0.00000000000E+00 0. -1.
</event>
<event>
 7    1  0.2243370E-008  0.4614232E+02  0.7816164E-02  0.1320468E+00
        -11   -1    0    0    0    0  0.00000000000E+00  0.00000000000E+00  0.45593999997E+02  0.45594000000E+02  0.51100000000E-03 0.  1.
         11   -1    0    0    0    0 -0.00000000000E+00 -0.00000000000E+00 -0.45593999997E+02  0.45594000000E+02  0.51100000000E-03 0. -1.
    9900012    2    1    2    0    0 -0.22967037023E+02  0.99927228448E+01  0.37440274358E+02  0.46142318259E+02  0.10000004544E+02 0.  0.
         12    1    1    2    0    0  0.22967037023E+02 -0.99927228448E+01 -0.37440274358E+02  0.45045681741E+02  0.00000000000E+00 0. -1.
         11    1    3    3    0    0 -0.99184325115E+01  0.20753876187E+01  0.10389660003E+02  0.14513013901E+02  0.51100000000E-03 0. -1.
        -11    1    3    3    0    0 -0.97567546462E+01  0.75580060501E+01  0.16724661048E+02  0.20785379576E+02  0.51100000000E-03 0.  1.
         12    1    3    3    0    0 -0.32918498654E+01  0.35932917599E+00  0.10325953306E+02  0.10843924782E+02  0.00000000000E+00 0. -1.
</event>
<event>
 7    1  0.2243370E-008  0.4614232E+02  0.7816164E-02  0.1320468E+00
        -11   -1    0    0    0    0  0.00000000000E+00  0.00000000000E+00  0.45593999997E+02  0.45594000000E+02  0.51100000000E-03 0.  1.
         11   -1    0    0    0    0 -0.00000000000E+00 -0.00000000000E+00 -0.45593999997E+02  0.45594000000E+02  0.51100000000E-03 0. -1.
    9900012    2    1    2    0    0  0.24975460066E+02  0.53237800463E+01  0.37107915446E+02  0.46142316208E+02  0.99999858416E+01 0.  0.
         12    1    1    2    0    0 -0.24975460066E+02 -0.53237800463E+01 -0.37107915446E+02  0.45045683792E+02  0.00000000000E+00 0. -1.
         11    1    3    3    0    0 -0.38853963884E+00 -0.26975616957E+00  0.83890519042E+00  0.96306470271E+00  0.51100000000E-03 0. -1.
        -11    1    3    3    0    0  0.12998169487E+02 -0.23084278740E+00  0.14498500396E+02  0.19473371880E+02  0.51100000000E-03 0.  1.
        -12    1    3    3    0    0  0.12365830218E+02  0.58243790033E+01  0.21770509860E+02  0.25705879625E+02  0.00000000000E+00 0.  1.
</event>
<event>
 7    1  0.2243370E-008  0.4614232E+02  0.7816164E-02  0.1320468E+00
        -11   -1    0    0    0    0  0.00000000000E+00  0.00000000000E+00  0.45593999997E+02  0.45594000000E+02  0.51100000000E-03 0.  1.
         11   -1    0    0    0    0 -0.00000000000E+00 -0.00000000000E+00 -0.45593999997E+02  0.45594000000E+02  0.51100000000E-03 0. -1.
    9900012    2    1    2    0    0  0.24438568413E+02 -0.13138258603E+02  0.35485997721E+02  0.46142317638E+02  0.99999988779E+01 0.  0.
         12    1    1    2    0    0 -0.24438568413E+02  0.13138258603E+02 -0.35485997721E+02  0.45045682362E+02  0.00000000000E+00 0. -1.
         11    1    3    3    0    0  0.16909454213E+01 -0.18570680562E+01  0.97734992331E+00  0.26950345669E+01  0.51100000000E-03 0. -1.
        -11    1    3    3    0    0  0.55985922577E+01 -0.45666444086E+01  0.14822612610E+02  0.16489642849E+02  0.51100000000E-03 0.  1.
        -12    1    3    3    0    0  0.17149030734E+02 -0.67145461386E+01  0.19686035187E+02  0.26957640222E+02  0.00000000000E+00 0.  1.
</event>
<event>
 7    1  0.2243370E-008  0.4614232E+02  0.7816164E-02  0.1320468E+00
        -11   -1    0    0    0    0  0.00000000000E+00  0.00000000000E+00  0.45593999997E+02  0.45594000000E+02  0.51100000000E-03 0. -1.
         11   -1    0    0    0    0 -0.00000000000E+00 -0.00000000000E+00 -0.45593999997E+02  0.45594000000E+02  0.51100000000E-03 0.  1.
    9900012    2    1    2    0    0  0.30712926001E+02  0.31833144371E+02 -0.85135635840E+01  0.46142315757E+02  0.99999817214E+01 0.  0.
         12    1    1    2    0    0 -0.30712926001E+02 -0.31833144371E+02  0.85135635840E+01  0.45045684243E+02  0.00000000000E+00 0. -1.
         11    1    3    3    0    0  0.54377709471E+01  0.57507326676E+01 -0.87030143063E+00  0.79622675118E+01  0.51100000000E-03 0. -1.
        -11    1    3    3    0    0  0.13372075685E+02  0.19922895298E+02 -0.44725011059E+01  0.24407733028E+02  0.51100000000E-03 0.  1.
         12    1    3    3    0    0  0.11903079369E+02  0.61595164054E+01 -0.31707610475E+01  0.13772315217E+02  0.00000000000E+00 0. -1.
</event>
<event>
 7    1  0.2243370E-008  0.4614232E+02  0.7816164E-02  0.1320468E+00
        -11   -1    0    0    0    0  0.00000000000E+00  0.00000000000E+00  0.45593999997E+02  0.45594000000E+02  0.51100000000E-03 0.  1.
         11   -1    0    0    0    0 -0.00000000000E+00 -0.00000000000E+00 -0.45593999997E+02  0.45594000000E+02  0.51100000000E-03 0. -1.
    9900012    2    1    2    0    0  0.23639549485E+02 -0.29482550258E+02  0.24516615043E+02  0.46142317823E+02  0.10000000569E+02 0.  0.
         12    1    1    2    0    0 -0.23639549485E+02  0.29482550258E+02 -0.24516615043E+02  0.45045682177E+02  0.00000000000E+00 0. -1.
         11    1    3    3    0    0  0.84611807659E+01 -0.15921741382E+02  0.14878091370E+02  0.23376292086E+02  0.51100000000E-03 0. -1.
        -11    1    3    3    0    0  0.87824278597E+01 -0.82724012442E+01  0.74625891644E+01  0.14186398372E+02  0.51100000000E-03 0.  1.
         12    1    3    3    0    0  0.63959408594E+01 -0.52884076323E+01  0.21759345079E+01  0.85796273663E+01  0.00000000000E+00 0. -1.
</event>
<event>
 7    1  0.2243370E-008  0.4614231E+02  0.7816164E-02  0.1320468E+00
        -11   -1    0    0    0    0  0.00000000000E+00  0.00000000000E+00  0.45593999997E+02  0.45594000000E+02  0.51100000000E-03 0.  1.
         11   -1    0    0    0    0 -0.00000000000E+00 -0.00000000000E+00 -0.45593999997E+02  0.45594000000E+02  0.51100000000E-03 0. -1.
    9900012    2    1    2    0    0 -0.46748272853E+01  0.33533941137E+02  0.29710850376E+02  0.46142313765E+02  0.99999635599E+01 0.  0.
         12    1    1    2    0    0  0.46748272853E+01 -0.33533941137E+02 -0.29710850376E+02  0.45045686235E+02  0.00000000000E+00 0. -1.
         11    1    3    3    0    0  0.60700430378E+00 -0.43106708445E+00  0.46018434426E+00  0.87523879480E+00  0.51100000000E-03 0. -1.
        -11    1    3    3    0    0 -0.19921490263E+01  0.52905945225E+01  0.55237374306E+01  0.79038423319E+01  0.51100000000E-03 0.  1.
        -12    1    3    3    0    0 -0.32896825628E+01  0.28674413699E+02  0.23726928601E+02  0.37363232638E+02  0.00000000000E+00 0.  1.
</event>
<event>
 7    1  0.2243370E-008  0.4614232E+02  0.7816164E-02  0.1320468E+00
        -11   -1    0    0    0    0  0.00000000000E+00  0.00000000000E+00  0.45593999997E+02  0.45594000000E+02  0.51100000000E-03 0. -1.
         11   -1    0    0    0    0 -0.00000000000E+00 -0.00000000000E+00 -0.45593999997E+02  0.45594000000E+02  0.51100000000E-03 0.  1.
    9900012    2    1    2    0    0 -0.16563026796E+02  0.36917456759E+02  0.19795988122E+02  0.46142316345E+02  0.99999870893E+01 0.  0.
         12    1    1    2    0    0  0.16563026796E+02 -0.36917456759E+02 -0.19795988122E+02  0.45045683655E+02  0.00000000000E+00 0. -1.
         11    1    3    3    0    0 -0.27149359729E+01  0.82695999145E+01  0.80362197550E+01  0.11846433569E+02  0.51100000000E-03 0. -1.
        -11    1    3    3    0    0  0.32960596497E+00  0.66840569467E+00  0.73921837597E+00  0.10496905893E+01  0.51100000000E-03 0.  1.
        -12    1    3    3    0    0 -0.14177696788E+02  0.27979451149E+02  0.11020549991E+02  0.33246192187E+02  0.00000000000E+00 0.  1.
</event>
<event>
 7    1  0.2243370E-008  0.4614232E+02  0.7816164E-02  0.1320468E+00
        -11   -1    0    0    0    0  0.00000000000E+00  0.00000000000E+00  0.45593999997E+02  0.45594000000E+02  0.51100000000E-03 0. -1.
         11   -1    0    0    0    0 -0.00000000000E+00 -0.00000000000E+00 -0.45593999997E+02  0.45594000000E+02  0.51100000000E-03 0.  1.
    9900012    2    1    2    0    0 -0.19955940915E+02 -0.19149699451E+02 -0.35555066490E+02  0.46142319630E+02  0.10000017043E+02 0.  0.
         12    1    1    2    0    0  0.19955940915E+02  0.19149699451E+02  0.35555066490E+02  0.45045680370E+02  0.00000000000E+00 0. -1.
         11    1    3    3    0    0 -0.60739910444E+01 -0.11614663022E+02 -0.18150715872E+02  0.22388440125E+02  0.51100000000E-03 0. -1.
        -11    1    3    3    0    0 -0.83882444800E+01 -0.53219358568E+01 -0.13059320860E+02  0.16408275604E+02  0.51100000000E-03 0.  1.
         12    1    3    3    0    0 -0.54937053909E+01 -0.22131005725E+01 -0.43450297580E+01  0.73456039006E+01  0.00000000000E+00 0. -1.
</event>
<event>
 7    1  0.2243370E-008  0.4614233E+02  0.7816164E-02  0.1320468E+00
        -11   -1    0    0    0    0  0.00000000000E+00  0.00000000000E+00  0.45593999997E+02  0.45594000000E+02  0.51100000000E-03 0.  1.
         11   -1    0    0    0    0 -0.00000000000E+00 -0.00000000000E+00 -0.45593999997E+02  0.45594000000E+02  0.51100000000E-03 0. -1.
    9900012    2    1    2    0    0  0.34675109929E+02  0.13205139119E+02  0.25541607698E+02  0.46142326828E+02  0.10000082675E+02 0.  0.
         12    1    1    2    0    0 -0.34675109929E+02 -0.13205139119E+02 -0.25541607698E+02  0.45045673172E+02  0.00000000000E+00 0. -1.
         11    1    3    3    0    0  0.96345681741E+01  0.14110208249E+01  0.72179718416E+01  0.12120849865E+02  0.51100000000E-03 0. -1.
        -11    1    3    3    0    0  0.24247234874E+02  0.10264851200E+02  0.15065404095E+02  0.30335819917E+02  0.51100000000E-03 0.  1.
        -12    1    3    3    0    0  0.79330688044E+00  0.15292670943E+01  0.32582317611E+01  0.36856570461E+01  0.00000000000E+00 0.  1.
</event>
<event>
 7    1  0.2243370E-008  0.4614232E+02  0.7816164E-02  0.1320468E+00
        -11   -1    0    0    0    0  0.00000000000E+00  0.00000000000E+00  0.45593999997E+02  0.45594000000E+02  0.51100000000E-03 0.  1.
         11   -1    0    0    0    0 -0.00000000000E+00 -0.00000000000E+00 -0.45593999997E+02  0.45594000000E+02  0.51100000000E-03 0. -1.
    9900012    2    1    2    0    0  0.39161592663E+01 -0.20220704115E+02  0.40061206583E+02  0.46142318173E+02  0.10000003760E+02 0.  0.
         12    1    1    2    0    0 -0.39161592663E+01  0.20220704115E+02 -0.40061206583E+02  0.45045681827E+02  0.00000000000E+00 0. -1.
         11    1    3    3    0    0  0.19570064173E+01 -0.15826013407E+01  0.26685828677E+01  0.36682197186E+01  0.51100000000E-03 0. -1.
        -11    1    3    3    0    0 -0.15536625503E+01 -0.23634215593E+01  0.23497434667E+01  0.36770808269E+01  0.51100000000E-03 0.  1.
        -12    1    3    3    0    0  0.35128153993E+01 -0.16274681216E+02  0.35042880249E+02  0.38797017628E+02  0.00000000000E+00 0.  1.
</event>
<event>
 7    1  0.2243370E-008  0.4614232E+02  0.7816164E-02  0.1320468E+00
        -11   -1    0    0    0    0  0.00000000000E+00  0.00000000000E+00  0.45593999997E+02  0.45594000000E+02  0.51100000000E-03 0. -1.
         11   -1    0    0    0    0 -0.00000000000E+00 -0.00000000000E+00 -0.45593999997E+02  0.45594000000E+02  0.51100000000E-03 0.  1.
    9900012    2    1    2    0    0  0.23668787010E+02 -0.36428676689E+02 -0.11910228352E+02  0.46142317596E+02  0.99999984982E+01 0.  0.
         12    1    1    2    0    0 -0.23668787010E+02  0.36428676689E+02  0.11910228352E+02  0.45045682404E+02  0.00000000000E+00 0. -1.
         11    1    3    3    0    0  0.67251133590E+01 -0.10716268434E+02 -0.70467025341E+01  0.14481767009E+02  0.51100000000E-03 0. -1.
        -11    1    3    3    0    0  0.54625670063E+01 -0.10496879068E+02 -0.43026122137E+01  0.12591131029E+02  0.51100000000E-03 0.  1.
        -12    1    3    3    0    0  0.11481106645E+02 -0.15215529187E+02 -0.56091360391E+00  0.19069419558E+02  0.00000000000E+00 0.  1.
</event>
<event>
 7    1  0.2243370E-008  0.4614232E+02  0.7816164E-02  0.1320468E+00
        -11   -1    0    0    0    0  0.00000000000E+00  0.00000000000E+00  0.45593999997E+02  0.45594000000E+02  0.51100000000E-03 0. -1.
         11   -1    0    0    0    0 -0.00000000000E+00 -0.00000000000E+00 -0.45593999997E+02  0.45594000000E+02  0.51100000000E-03 0.  1.
    9900012    2    1    2    0    0 -0.64240581675E+01  0.23436607632E+02  0.37928489636E+02  0.46142318445E+02  0.10000006238E+02 0.  0.
         12    1    1    2    0    0  0.64240581675E+01 -0.23436607632E+02 -0.37928489636E+02  0.45045681555E+02  0.00000000000E+00 0. -1.
         11    1    3    3    0    0 -0.19373009526E+01  0.47438975176E+01  0.36141688038E+01  0.62705593883E+01  0.51100000000E-03 0. -1.
        -11    1    3    3    0    0 -0.53472963396E+01  0.12064677758E+02  0.26386456746E+02  0.29502459684E+02  0.51100000000E-03 0.  1.
        -12    1    3    3    0    0  0.86053912474E+00  0.66280323566E+01  0.79278640863E+01  0.10369299372E+02  0.00000000000E+00 0.  1.
</event>
<event>
 7    1  0.2243370E-008  0.4614232E+02  0.7816164E-02  0.1320468E+00
        -11   -1    0    0    0    0  0.00000000000E+00  0.00000000000E+00  0.45593999997E+02  0.45594000000E+02  0.51100000000E-03 0. -1.
         11   -1    0    0    0    0 -0.00000000000E+00 -0.00000000000E+00 -0.45593999997E+02  0.45594000000E+02  0.51100000000E-03 0.  1.
    9900012    2    1    2    0    0  0.41156314218E+02 -0.18300155961E+02  0.61275548496E+00  0.46142318992E+02  0.10000011222E+02 0.  0.
         12    1    1    2    0    0 -0.41156314218E+02  0.18300155961E+02 -0.61275548496E+00  0.45045681008E+02  0.00000000000E+00 0. -1.
         11    1    3    3    0    0  0.13238304534E+02 -0.20141976863E+01  0.36061759757E+00  0.13395512106E+02  0.51100000000E-03 0. -1.
        -11    1    3    3    0    0  0.95144385231E+01 -0.44132926863E+01  0.23416803339E+01  0.10746402179E+02  0.51100000000E-03 0.  1.
         12    1    3    3    0    0  0.18403571161E+02 -0.11872665589E+02 -0.20895424466E+01  0.22000404707E+02  0.00000000000E+00 0. -1.
</event>
<event>
 7    1  0.2243370E-008  0.4614232E+02  0.7816164E-02  0.1320468E+00
        -11   -1    0    0    0    0  0.00000000000E+00  0.00000000000E+00  0.45593999997E+02  0.45594000000E+02  0.51100000000E-03 0.  1.
         11   -1    0    0    0    0 -0.00000000000E+00 -0.00000000000E+00 -0.45593999997E+02  0.45594000000E+02  0.51100000000E-03 0. -1.
    9900012    2    1    2    0    0 -0.14620054096E+02  0.37866340371E+02  0.19532221876E+02  0.46142318672E+02  0.10000008306E+02 0.  0.
         12    1    1    2    0    0  0.14620054096E+02 -0.37866340371E+02 -0.19532221876E+02  0.45045681328E+02  0.00000000000E+00 0. -1.
         11    1    3    3    0    0 -0.13285530267E+02  0.24882108629E+02  0.14332138777E+02  0.31639134730E+02  0.51100000000E-03 0.  1.
        -11    1    3    3    0    0  0.24094994023E+00  0.32965542176E+00  0.99493131876E+00  0.10754618361E+01  0.51100000000E-03 0. -1.
        -12    1    3    3    0    0 -0.15754737698E+01  0.12654576320E+02  0.42051517806E+01  0.13427722106E+02  0.00000000000E+00 0.  1.
</event>
<event>
 7    1  0.2243370E-008  0.4614232E+02  0.7816164E-02  0.1320468E+00
        -11   -1    0    0    0    0  0.00000000000E+00  0.00000000000E+00  0.45593999997E+02  0.45594000000E+02  0.51100000000E-03 0. -1.
         11   -1    0    0    0    0 -0.00000000000E+00 -0.00000000000E+00 -0.45593999997E+02  0.45594000000E+02  0.51100000000E-03 0.  1.
    9900012    2    1    2    0    0  0.41312130870E+02 -0.10067752465E+02  0.14868148632E+02  0.46142316073E+02  0.99999846069E+01 0.  0.
         12    1    1    2    0    0 -0.41312130870E+02  0.10067752465E+02 -0.14868148632E+02  0.45045683927E+02  0.00000000000E+00 0. -1.
         11    1    3    3    0    0  0.20362503225E+02 -0.68816037376E+01  0.72412656848E+01  0.22680915690E+02  0.51100000000E-03 0. -1.
        -11    1    3    3    0    0  0.21321120630E+02 -0.35668095540E+01  0.72183396362E+01  0.22790716151E+02  0.51100000000E-03 0.  1.
        -12    1    3    3    0    0 -0.37149298436E+00  0.38066082646E+00  0.40854331081E+00  0.67068423199E+00  0.00000000000E+00 0.  1.
</event>
<event>
 7    1  0.2243370E-008  0.4614232E+02  0.7816164E-02  0.1320468E+00
        -11   -1    0    0    0    0  0.00000000000E+00  0.00000000000E+00  0.45593999997E+02  0.45594000000E+02  0.51100000000E-03 0.  1.
         11   -1    0    0    0    0 -0.00000000000E+00 -0.00000000000E+00 -0.45593999997E+02  0.45594000000E+02  0.51100000000E-03 0. -1.
    9900012    2    1    2    0    0  0.31558520763E+02 -0.28373868242E+02  0.15102876776E+02  0.46142317425E+02  0.99999969309E+01 0.  0.
         12    1    1    2    0    0 -0.31558520763E+02  0.28373868242E+02 -0.15102876776E+02  0.45045682575E+02  0.00000000000E+00 0. -1.
         11    1    3    3    0    0  0.14172532484E+02 -0.12241798208E+02  0.58289478713E+01  0.19613743496E+02  0.51100000000E-03 0. -1.
        -11    1    3    3    0    0  0.17931510129E+02 -0.14292904979E+02  0.87053188466E+01  0.24527714217E+02  0.51100000000E-03 0.  1.
         12    1    3    3    0    0 -0.54552184911E+00 -0.18391650554E+01  0.56861005772E+00  0.20008597119E+01  0.00000000000E+00 0. -1.
</event>
<event>
 7    1  0.2243370E-008  0.4614232E+02  0.7816164E-02  0.1320468E+00
        -11   -1    0    0    0    0  0.00000000000E+00  0.00000000000E+00  0.45593999997E+02  0.45594000000E+02  0.51100000000E-03 0.  1.
         11   -1    0    0    0    0 -0.00000000000E+00 -0.00000000000E+00 -0.45593999997E+02  0.45594000000E+02  0.51100000000E-03 0. -1.
    9900012    2    1    2    0    0  0.28753734502E+01  0.65464529631E+00  0.44949051318E+02  0.46142317107E+02  0.99999940337E+01 0.  0.
         12    1    1    2    0    0 -0.28753734502E+01 -0.65464529631E+00 -0.44949051318E+02  0.45045682893E+02  0.00000000000E+00 0. -1.
         11    1    3    3    0    0  0.48043475720E+01  0.13057933679E+01  0.35761965468E+02  0.36106855669E+02  0.51100000000E-03 0.  1.
        -11    1    3    3    0    0 -0.26061014263E+01 -0.17999478841E+00  0.86859035856E+01  0.90702306546E+01  0.51100000000E-03 0. -1.
        -12    1    3    3    0    0  0.67712730439E+00 -0.47115328321E+00  0.50118226403E+00  0.96523078298E+00  0.00000000000E+00 0.  1.
</event>
<event>
 7    1  0.2243370E-008  0.4614232E+02  0.7816164E-02  0.1320468E+00
        -11   -1    0    0    0    0  0.00000000000E+00  0.00000000000E+00  0.45593999997E+02  0.45594000000E+02  0.51100000000E-03 0.  1.
         11   -1    0    0    0    0 -0.00000000000E+00 -0.00000000000E+00 -0.45593999997E+02  0.45594000000E+02  0.51100000000E-03 0. -1.
    9900012    2    1    2    0    0 -0.16147461348E+02 -0.41736966369E+02  0.51379535291E+01  0.46142318341E+02  0.10000005292E+02 0.  0.
         12    1    1    2    0    0  0.16147461348E+02  0.41736966369E+02 -0.51379535291E+01  0.45045681659E+02  0.00000000000E+00 0. -1.
         11    1    3    3    0    0 -0.34560901249E+00 -0.93167130964E+01  0.93734166303E+00  0.93701226334E+01  0.51100000000E-03 0. -1.
        -11    1    3    3    0    0 -0.14545683705E+01 -0.50900602066E+01 -0.12201893563E+01  0.54326185562E+01  0.51100000000E-03 0.  1.
        -12    1    3    3    0    0 -0.14347283965E+02 -0.27330193066E+02  0.54208012224E+01  0.31339577152E+02  0.00000000000E+00 0.  1.
</event>
<event>
 7    1  0.2243370E-008  0.4614232E+02  0.7816164E-02  0.1320468E+00
        -11   -1    0    0    0    0  0.00000000000E+00  0.00000000000E+00  0.45593999997E+02  0.45594000000E+02  0.51100000000E-03 0. -1.
         11   -1    0    0    0    0 -0.00000000000E+00 -0.00000000000E+00 -0.45593999997E+02  0.45594000000E+02  0.51100000000E-03 0.  1.
    9900012    2    1    2    0    0 -0.44784210044E+02 -0.45884304487E+01 -0.15602714265E+01  0.46142316409E+02  0.99999876703E+01 0.  0.
         12    1    1    2    0    0  0.44784210044E+02  0.45884304487E+01  0.15602714265E+01  0.45045683591E+02  0.00000000000E+00 0. -1.
         11    1    3    3    0    0 -0.16873024134E+02 -0.91226537692E+00  0.15829585830E+01  0.16971650765E+02  0.51100000000E-03 0.  1.
        -11    1    3    3    0    0  0.36042570950E+00  0.23953334683E+00 -0.20337284116E+00  0.47816701052E+00  0.51100000000E-03 0. -1.
        -12    1    3    3    0    0 -0.28271611620E+02 -0.39156984186E+01 -0.29398571683E+01  0.28692498634E+02  0.00000000000E+00 0.  1.
</event>
<event>
 7    1  0.2243370E-008  0.4614232E+02  0.7816164E-02  0.1320468E+00
        -11   -1    0    0    0    0  0.00000000000E+00  0.00000000000E+00  0.45593999997E+02  0.45594000000E+02  0.51100000000E-03 0.  1.
         11   -1    0    0    0    0 -0.00000000000E+00 -0.00000000000E+00 -0.45593999997E+02  0.45594000000E+02  0.51100000000E-03 0. -1.
    9900012    2    1    2    0    0  0.22389736390E+02  0.34866514418E+02  0.17667465948E+02  0.46142317895E+02  0.10000001222E+02 0.  0.
         12    1    1    2    0    0 -0.22389736390E+02 -0.34866514418E+02 -0.17667465948E+02  0.45045682105E+02  0.00000000000E+00 0. -1.
         11    1    3    3    0    0  0.80604457097E+01  0.11166367846E+02  0.76508177774E+01  0.15754160366E+02  0.51100000000E-03 0. -1.
        -11    1    3    3    0    0  0.10400783595E+02  0.99888131700E+01  0.53529805861E+01  0.15382037880E+02  0.51100000000E-03 0.  1.
         12    1    3    3    0    0  0.39285070857E+01  0.13711333402E+02  0.46636675844E+01  0.15006119649E+02  0.00000000000E+00 0. -1.
</event>
<event>
 7    1  0.2243370E-008  0.4614232E+02  0.7816164E-02  0.1320468E+00
        -11   -1    0    0    0    0  0.00000000000E+00  0.00000000000E+00  0.45593999997E+02  0.45594000000E+02  0.51100000000E-03 0.  1.
         11   -1    0    0    0    0 -0.00000000000E+00 -0.00000000000E+00 -0.45593999997E+02  0.45594000000E+02  0.51100000000E-03 0. -1.
    9900012    2    1    2    0    0  0.24839390137E+01 -0.25044055343E+02  0.37359590915E+02  0.46142315474E+02  0.99999791457E+01 0.  0.
         12    1    1    2    0    0 -0.24839390137E+01  0.25044055343E+02 -0.37359590915E+02  0.45045684526E+02  0.00000000000E+00 0. -1.
         11    1    3    3    0    0  0.44354402929E+00 -0.24267693936E+02  0.34776175512E+02  0.42408726505E+02  0.51100000000E-03 0. -1.
        -11    1    3    3    0    0 -0.22332216521E+00 -0.15904547359E+00  0.60584357734E+00  0.66499244617E+00  0.51100000000E-03 0.  1.
         12    1    3    3    0    0  0.22637171496E+01 -0.61731593400E+00  0.19775718255E+01  0.30685965230E+01  0.00000000000E+00 0. -1.
</event>
<event>
 7    1  0.2243370E-008  0.4614232E+02  0.7816164E-02  0.1320468E+00
        -11   -1    0    0    0    0  0.00000000000E+00  0.00000000000E+00  0.45593999997E+02  0.45594000000E+02  0.51100000000E-03 0.  1.
         11   -1    0    0    0    0 -0.00000000000E+00 -0.00000000000E+00 -0.45593999997E+02  0.45594000000E+02  0.51100000000E-03 0. -1.
    9900012    2    1    2    0    0 -0.32687693098E+02  0.28784578902E+02  0.11492439053E+02  0.46142318541E+02  0.10000007116E+02 0.  0.
         12    1    1    2    0    0  0.32687693098E+02 -0.28784578902E+02 -0.11492439053E+02  0.45045681459E+02  0.00000000000E+00 0. -1.
         11    1    3    3    0    0 -0.19955226915E+02  0.16278509676E+02  0.32388978703E+01  0.25955566228E+02  0.51100000000E-03 0. -1.
        -11    1    3    3    0    0 -0.76449109310E+01  0.45750180025E+01  0.30133972472E+01  0.94051058525E+01  0.51100000000E-03 0.  1.
         12    1    3    3    0    0 -0.50875552522E+01  0.79310512233E+01  0.52401439358E+01  0.10781646461E+02  0.00000000000E+00 0. -1.
</event>
<event>
 7    1  0.2243370E-008  0.4614232E+02  0.7816164E-02  0.1320468E+00
        -11   -1    0    0    0    0  0.00000000000E+00  0.00000000000E+00  0.45593999997E+02  0.45594000000E+02  0.51100000000E-03 0.  1.
         11   -1    0    0    0    0 -0.00000000000E+00 -0.00000000000E+00 -0.45593999997E+02  0.45594000000E+02  0.51100000000E-03 0. -1.
    9900012    2    1    2    0    0 -0.31226125307E+02  0.32458081962E+02  0.71800138068E+00  0.46142317495E+02  0.99999975742E+01 0.  0.
         12    1    1    2    0    0  0.31226125307E+02 -0.32458081962E+02 -0.71800138068E+00  0.45045682505E+02  0.00000000000E+00 0. -1.
         11    1    3    3    0    0 -0.23001310546E+00  0.31825253372E+01 -0.16557078011E+00  0.31951193241E+01  0.51100000000E-03 0. -1.
        -11    1    3    3    0    0 -0.27393607695E+02  0.26092768561E+02  0.23966369827E+01  0.37907600594E+02  0.51100000000E-03 0.  1.
        -12    1    3    3    0    0 -0.36025045070E+01  0.31827880632E+01 -0.15130648219E+01  0.50395975765E+01  0.00000000000E+00 0.  1.
</event>
<event>
 7    1  0.2243370E-008  0.4614232E+02  0.7816164E-02  0.1320468E+00
        -11   -1    0    0    0    0  0.00000000000E+00  0.00000000000E+00  0.45593999997E+02  0.45594000000E+02  0.51100000000E-03 0.  1.
         11   -1    0    0    0    0 -0.00000000000E+00 -0.00000000000E+00 -0.45593999997E+02  0.45594000000E+02  0.51100000000E-03 0. -1.
    9900012    2    1    2    0    0  0.80426709586E+01 -0.10625442179E+02  0.43029395821E+02  0.46142317828E+02  0.10000000611E+02 0.  0.
         12    1    1    2    0    0 -0.80426709586E+01  0.10625442179E+02 -0.43029395821E+02  0.45045682172E+02  0.00000000000E+00 0. -1.
         11    1    3    3    0    0  0.49933461160E+01 -0.81790492548E+01  0.19400446800E+02  0.21638107322E+02  0.51100000000E-03 0.  1.
        -11    1    3    3    0    0  0.16263475408E+01 -0.12688363923E+01  0.21825470623E+02  0.21922730676E+02  0.51100000000E-03 0. -1.
         12    1    3    3    0    0  0.14229773018E+01 -0.11775565315E+01  0.18034783973E+01  0.25814798306E+01  0.00000000000E+00 0. -1.
</event>
<event>
 7    1  0.2243370E-008  0.4614232E+02  0.7816164E-02  0.1320468E+00
        -11   -1    0    0    0    0  0.00000000000E+00  0.00000000000E+00  0.45593999997E+02  0.45594000000E+02  0.51100000000E-03 0.  1.
         11   -1    0    0    0    0 -0.00000000000E+00 -0.00000000000E+00 -0.45593999997E+02  0.45594000000E+02  0.51100000000E-03 0. -1.
    9900012    2    1    2    0    0  0.37700507702E+02  0.20387778289E+02 -0.13860869602E+02  0.46142317735E+02  0.99999997643E+01 0.  0.
         12    1    1    2    0    0 -0.37700507702E+02 -0.20387778289E+02  0.13860869602E+02  0.45045682265E+02  0.00000000000E+00 0. -1.
         11    1    3    3    0    0  0.24677662539E+02  0.14486768261E+02 -0.68768961736E+01  0.29430344617E+02  0.51100000000E-03 0. -1.
        -11    1    3    3    0    0  0.63888158163E+01  0.54947580167E+01 -0.29034950824E+01  0.89128905049E+01  0.51100000000E-03 0.  1.
         12    1    3    3    0    0  0.66340293467E+01  0.40625201091E+00 -0.40804783464E+01  0.77990826131E+01  0.00000000000E+00 0. -1.
</event>
<event>
 7    1  0.2243370E-008  0.4614232E+02  0.7816164E-02  0.1320468E+00
        -11   -1    0    0    0    0  0.00000000000E+00  0.00000000000E+00  0.45593999997E+02  0.45594000000E+02  0.51100000000E-03 0. -1.
         11   -1    0    0    0    0 -0.00000000000E+00 -0.00000000000E+00 -0.45593999997E+02  0.45594000000E+02  0.51100000000E-03 0.  1.
    9900012    2    1    2    0    0 -0.43356448593E+02  0.12216596086E+02 -0.29450887766E+00  0.46142316633E+02  0.99999897124E+01 0.  0.
         12    1    1    2    0    0  0.43356448593E+02 -0.12216596086E+02  0.29450887766E+00  0.45045683367E+02  0.00000000000E+00 0. -1.
         11    1    3    3    0    0 -0.73720649986E+01  0.27135271481E+01 -0.13382910763E+01  0.79687888160E+01  0.51100000000E-03 0. -1.
        -11    1    3    3    0    0 -0.28381411928E+02  0.82861760142E+01 -0.25506828554E+01  0.29676105527E+02  0.51100000000E-03 0.  1.
        -12    1    3    3    0    0 -0.76029716668E+01  0.12168929232E+01  0.35944650540E+01  0.84974222902E+01  0.00000000000E+00 0.  1.
</event>
<event>
 7    1  0.2243370E-008  0.4614232E+02  0.7816164E-02  0.1320468E+00
        -11   -1    0    0    0    0  0.00000000000E+00  0.00000000000E+00  0.45593999997E+02  0.45594000000E+02  0.51100000000E-03 0. -1.
         11   -1    0    0    0    0 -0.00000000000E+00 -0.00000000000E+00 -0.45593999997E+02  0.45594000000E+02  0.51100000000E-03 0.  1.
    9900012    2    1    2    0    0 -0.37142212244E+02  0.22686515210E+02 -0.11614284646E+02  0.46142317514E+02  0.99999977467E+01 0.  0.
         12    1    1    2    0    0  0.37142212244E+02 -0.22686515210E+02  0.11614284646E+02  0.45045682486E+02  0.00000000000E+00 0. -1.
         11    1    3    3    0    0 -0.29854917196E+01  0.26236153958E+01 -0.36484882267E+01  0.53951816609E+01  0.51100000000E-03 0. -1.
        -11    1    3    3    0    0 -0.23280135629E+02  0.14593802157E+02 -0.78377581509E+01  0.28572263288E+02  0.51100000000E-03 0.  1.
         12    1    3    3    0    0 -0.10876584895E+02  0.54690976573E+01 -0.12803826886E+00  0.12174872565E+02  0.00000000000E+00 0. -1.
</event>
<event>
 7    1  0.2243370E-008  0.4614232E+02  0.7816164E-02  0.1320468E+00
        -11   -1    0    0    0    0  0.00000000000E+00  0.00000000000E+00  0.45593999997E+02  0.45594000000E+02  0.51100000000E-03 0. -1.
         11   -1    0    0    0    0 -0.00000000000E+00 -0.00000000000E+00 -0.45593999997E+02  0.45594000000E+02  0.51100000000E-03 0.  1.
    9900012    2    1    2    0    0 -0.18844636267E+02  0.39110474196E+02  0.12015161242E+02  0.46142316438E+02  0.99999879384E+01 0.  0.
         12    1    1    2    0    0  0.18844636267E+02 -0.39110474196E+02 -0.12015161242E+02  0.45045683562E+02  0.00000000000E+00 0. -1.
         11    1    3    3    0    0 -0.51085449947E+01  0.37010767321E+01  0.18351340031E+01  0.65698491619E+01  0.51100000000E-03 0. -1.
        -11    1    3    3    0    0 -0.44883468341E+01  0.16861606305E+02  0.58168560801E+01  0.18392793138E+02  0.51100000000E-03 0.  1.
        -12    1    3    3    0    0 -0.92477444385E+01  0.18547791159E+02  0.43631711583E+01  0.21179674139E+02  0.00000000000E+00 0.  1.
</event>
<event>
 7    1  0.2243370E-008  0.4614232E+02  0.7816164E-02  0.1320468E+00
        -11   -1    0    0    0    0  0.00000000000E+00  0.00000000000E+00  0.45593999997E+02  0.45594000000E+02  0.51100000000E-03 0.  1.
         11   -1    0    0    0    0 -0.00000000000E+00 -0.00000000000E+00 -0.45593999997E+02  0.45594000000E+02  0.51100000000E-03 0. -1.
    9900012    2    1    2    0    0  0.30564539499E+02  0.39947982372E+01  0.32847587908E+02  0.46142317420E+02  0.99999968855E+01 0.  0.
         12    1    1    2    0    0 -0.30564539499E+02 -0.39947982372E+01 -0.32847587908E+02  0.45045682580E+02  0.00000000000E+00 0. -1.
         11    1    3    3    0    0  0.22788320479E+01 -0.48113051854E+00  0.56368396917E+00  0.23963100710E+01  0.51100000000E-03 0. -1.
        -11    1    3    3    0    0  0.26352829431E+02  0.52959088749E+01  0.27177472369E+02  0.38224773047E+02  0.51100000000E-03 0.  1.
        -12    1    3    3    0    0  0.19328780200E+01 -0.81998011911E+00  0.51064315701E+01  0.55212343019E+01  0.00000000000E+00 0.  1.
</event>
<event>
 7    1  0.2243370E-008  0.4614232E+02  0.7816164E-02  0.1320468E+00
        -11   -1    0    0    0    0  0.00000000000E+00  0.00000000000E+00  0.45593999997E+02  0.45594000000E+02  0.51100000000E-03 0. -1.
         11   -1    0    0    0    0 -0.00000000000E+00 -0.00000000000E+00 -0.45593999997E+02  0.45594000000E+02  0.51100000000E-03 0.  1.
    9900012    2    1    2    0    0 -0.16918003417E+02  0.38025746289E+02 -0.17231871820E+02  0.46142316224E+02  0.99999859822E+01 0.  0.
         12    1    1    2    0    0  0.16918003417E+02 -0.38025746289E+02  0.17231871820E+02  0.45045683776E+02  0.00000000000E+00 0. -1.
         11    1    3    3    0    0 -0.28408983439E+01  0.91671814191E+01 -0.17785620587E+01  0.97606967902E+01  0.51100000000E-03 0. -1.
        -11    1    3    3    0    0 -0.24235055490E+01  0.53543803853E+01  0.10939375682E+00  0.58783276288E+01  0.51100000000E-03 0.  1.
         12    1    3    3    0    0 -0.11653599524E+02  0.23504184485E+02 -0.15562703518E+02  0.30503291805E+02  0.00000000000E+00 0. -1.
</event>
<event>
 7    1  0.2243370E-008  0.4614231E+02  0.7816164E-02  0.1320468E+00
        -11   -1    0    0    0    0  0.00000000000E+00  0.00000000000E+00  0.45593999997E+02  0.45594000000E+02  0.51100000000E-03 0.  1.
         11   -1    0    0    0    0 -0.00000000000E+00 -0.00000000000E+00 -0.45593999997E+02  0.45594000000E+02  0.51100000000E-03 0. -1.
    9900012    2    1    2    0    0  0.40375320078E+02  0.82434664233E+01  0.18193202752E+02  0.46142313897E+02  0.99999647635E+01 0.  0.
         12    1    1    2    0    0 -0.40375320078E+02 -0.82434664233E+01 -0.18193202752E+02  0.45045686103E+02  0.00000000000E+00 0. -1.
         11    1    3    3    0    0  0.36808731702E+01  0.19756324041E+01  0.41195287989E+01  0.58670664285E+01  0.51100000000E-03 0. -1.
        -11    1    3    3    0    0  0.24351056423E+02  0.47869693830E+01  0.12363537960E+02  0.27726270862E+02  0.51100000000E-03 0.  1.
         12    1    3    3    0    0  0.12343390485E+02  0.14808646362E+01  0.17101359937E+01  0.12548976606E+02  0.00000000000E+00 0. -1.
</event>
<event>
 7    1  0.2243370E-008  0.4614232E+02  0.7816164E-02  0.1320468E+00
        -11   -1    0    0    0    0  0.00000000000E+00  0.00000000000E+00  0.45593999997E+02  0.45594000000E+02  0.51100000000E-03 0. -1.
         11   -1    0    0    0    0 -0.00000000000E+00 -0.00000000000E+00 -0.45593999997E+02  0.45594000000E+02  0.51100000000E-03 0.  1.
    9900012    2    1    2    0    0 -0.10874740617E+02 -0.29575487228E+02 -0.32189193515E+02  0.46142316440E+02  0.99999879497E+01 0.  0.
         12    1    1    2    0    0  0.10874740617E+02  0.29575487228E+02  0.32189193515E+02  0.45045683560E+02  0.00000000000E+00 0. -1.
         11    1    3    3    0    0 -0.58393353575E+01 -0.90496195214E+01 -0.81967878774E+01  0.13534429529E+02  0.51100000000E-03 0. -1.
        -11    1    3    3    0    0 -0.46693673382E+01 -0.63051450444E+01 -0.90300588873E+01  0.11962433245E+02  0.51100000000E-03 0.  1.
         12    1    3    3    0    0 -0.36603792164E+00 -0.14220722662E+02 -0.14962346751E+02  0.20645453666E+02  0.00000000000E+00 0. -1.
</event>
<event>
 7    1  0.2243370E-008  0.4614232E+02  0.7816164E-02  0.1320468E+00
        -11   -1    0    0    0    0  0.00000000000E+00  0.00000000000E+00  0.45593999997E+02  0.45594000000E+02  0.51100000000E-03 0. -1.
         11   -1    0    0    0    0 -0.00000000000E+00 -0.00000000000E+00 -0.45593999997E+02  0.45594000000E+02  0.51100000000E-03 0.  1.
    9900012    2    1    2    0    0 -0.15812238579E+02  0.40047977253E+02 -0.13238057700E+02  0.46142317160E+02  0.99999945146E+01 0.  0.
         12    1    1    2    0    0  0.15812238579E+02 -0.40047977253E+02  0.13238057700E+02  0.45045682840E+02  0.00000000000E+00 0. -1.
         11    1    3    3    0    0 -0.29951117900E+01  0.61554159662E+01 -0.52128213792E+01  0.86042633237E+01  0.51100000000E-03 0. -1.
        -11    1    3    3    0    0 -0.83420077659E+01  0.26159094679E+02 -0.80156321753E+01  0.28603106255E+02  0.51100000000E-03 0.  1.
         12    1    3    3    0    0 -0.44751190228E+01  0.77334666073E+01 -0.96041453890E-02  0.89349475810E+01  0.00000000000E+00 0. -1.
</event>
<event>
 7    1  0.2243370E-008  0.4614232E+02  0.7816164E-02  0.1320468E+00
        -11   -1    0    0    0    0  0.00000000000E+00  0.00000000000E+00  0.45593999997E+02  0.45594000000E+02  0.51100000000E-03 0.  1.
         11   -1    0    0    0    0 -0.00000000000E+00 -0.00000000000E+00 -0.45593999997E+02  0.45594000000E+02  0.51100000000E-03 0. -1.
    9900012    2    1    2    0    0 -0.17823660405E+02  0.33312379995E+02  0.24529899942E+02  0.46142317384E+02  0.99999965650E+01 0.  0.
         12    1    1    2    0    0  0.17823660405E+02 -0.33312379995E+02 -0.24529899942E+02  0.45045682616E+02  0.00000000000E+00 0. -1.
         11    1    3    3    0    0 -0.87132015148E+01  0.11672082551E+02  0.67045016212E+01  0.16034579320E+02  0.51100000000E-03 0. -1.
        -11    1    3    3    0    0 -0.81534118447E+01  0.17696918931E+02  0.11599371930E+02  0.22676077566E+02  0.51100000000E-03 0.  1.
        -12    1    3    3    0    0 -0.95704704514E+00  0.39433785128E+01  0.62260263910E+01  0.74316604984E+01  0.00000000000E+00 0.  1.
</event>
<event>
 7    1  0.2243370E-008  0.4614232E+02  0.7816164E-02  0.1320468E+00
        -11   -1    0    0    0    0  0.00000000000E+00  0.00000000000E+00  0.45593999997E+02  0.45594000000E+02  0.51100000000E-03 0. -1.
         11   -1    0    0    0    0 -0.00000000000E+00 -0.00000000000E+00 -0.45593999997E+02  0.45594000000E+02  0.51100000000E-03 0.  1.
    9900012    2    1    2    0    0 -0.44942661904E+01 -0.42492102644E+02 -0.14259602329E+02  0.46142317917E+02  0.10000001423E+02 0.  0.
         12    1    1    2    0    0  0.44942661904E+01  0.42492102644E+02  0.14259602329E+02  0.45045682083E+02  0.00000000000E+00 0. -1.
         11    1    3    3    0    0  0.21189283760E+01 -0.49136997315E+01 -0.36768870478E+01  0.64925958705E+01  0.51100000000E-03 0. -1.
        -11    1    3    3    0    0 -0.24422485447E+01 -0.89070000886E+01 -0.23686543386E+01  0.95346605691E+01  0.51100000000E-03 0.  1.
        -12    1    3    3    0    0 -0.41709460217E+01 -0.28671402824E+02 -0.82140609427E+01  0.30115061478E+02  0.00000000000E+00 0.  1.
</event>
<event>
 7    1  0.2243370E-008  0.4614232E+02  0.7816164E-02  0.1320468E+00
        -11   -1    0    0    0    0  0.00000000000E+00  0.00000000000E+00  0.45593999997E+02  0.45594000000E+02  0.51100000000E-03 0. -1.
         11   -1    0    0    0    0 -0.00000000000E+00 -0.00000000000E+00 -0.45593999997E+02  0.45594000000E+02  0.51100000000E-03 0.  1.
    9900012    2    1    2    0    0  0.13671868083E+02 -0.24686934694E+02 -0.35110522858E+02  0.46142317224E+02  0.99999950982E+01 0.  0.
         12    1    1    2    0    0 -0.13671868083E+02  0.24686934694E+02  0.35110522858E+02  0.45045682776E+02  0.00000000000E+00 0. -1.
         11    1    3    3    0    0  0.72293684858E+01 -0.16207681082E+02 -0.15722327193E+02  0.23709581763E+02  0.51100000000E-03 0. -1.
        -11    1    3    3    0    0  0.47050720788E+01 -0.78726713218E+01 -0.13979502600E+02  0.16719543959E+02  0.51100000000E-03 0.  1.
         12    1    3    3    0    0  0.17374275184E+01 -0.60658228993E+00 -0.54086930657E+01  0.57131915017E+01  0.00000000000E+00 0. -1.
</event>
<event>
 7    1  0.2243370E-008  0.4614232E+02  0.7816164E-02  0.1320468E+00
        -11   -1    0    0    0    0  0.00000000000E+00  0.00000000000E+00  0.45593999997E+02  0.45594000000E+02  0.51100000000E-03 0.  1.
         11   -1    0    0    0    0 -0.00000000000E+00 -0.00000000000E+00 -0.45593999997E+02  0.45594000000E+02  0.51100000000E-03 0. -1.
    9900012    2    1    2    0    0 -0.26059811224E+02  0.32488309521E+02  0.17161278181E+02  0.46142317794E+02  0.10000000299E+02 0.  0.
         12    1    1    2    0    0  0.26059811224E+02 -0.32488309521E+02 -0.17161278181E+02  0.45045682206E+02  0.00000000000E+00 0. -1.
         11    1    3    3    0    0 -0.94503685181E+01  0.81389912079E+01  0.86298994865E+01  0.15166667677E+02  0.51100000000E-03 0. -1.
        -11    1    3    3    0    0 -0.10509312885E+02  0.11816756330E+02  0.51716629418E+01  0.16638133469E+02  0.51100000000E-03 0.  1.
         12    1    3    3    0    0 -0.61001298212E+01  0.12532561984E+02  0.33597157528E+01  0.14337516649E+02  0.00000000000E+00 0. -1.
</event>
<event>
 7    1  0.2243370E-008  0.4614232E+02  0.7816164E-02  0.1320468E+00
        -11   -1    0    0    0    0  0.00000000000E+00  0.00000000000E+00  0.45593999997E+02  0.45594000000E+02  0.51100000000E-03 0.  1.
         11   -1    0    0    0    0 -0.00000000000E+00 -0.00000000000E+00 -0.45593999997E+02  0.45594000000E+02  0.51100000000E-03 0. -1.
    9900012    2    1    2    0    0  0.22714303572E+02 -0.34752887433E+02  0.17476007522E+02  0.46142316405E+02  0.99999876303E+01 0.  0.
         12    1    1    2    0    0 -0.22714303572E+02  0.34752887433E+02 -0.17476007522E+02  0.45045683595E+02  0.00000000000E+00 0. -1.
         11    1    3    3    0    0  0.21606473707E+01 -0.56021094736E+01  0.54833040166E+00  0.60293195391E+01  0.51100000000E-03 0. -1.
        -11    1    3    3    0    0  0.72052657049E+01 -0.12069588837E+02  0.30824771283E+01  0.14390708602E+02  0.51100000000E-03 0.  1.
        -12    1    3    3    0    0  0.13348390496E+02 -0.17081189122E+02  0.13845199992E+02  0.25722288263E+02  0.00000000000E+00 0.  1.
</event>
<event>
 7    1  0.2243370E-008  0.4614232E+02  0.7816164E-02  0.1320468E+00
        -11   -1    0    0    0    0  0.00000000000E+00  0.00000000000E+00  0.45593999997E+02  0.45594000000E+02  0.51100000000E-03 0.  1.
         11   -1    0    0    0    0 -0.00000000000E+00 -0.00000000000E+00 -0.45593999997E+02  0.45594000000E+02  0.51100000000E-03 0. -1.
    9900012    2    1    2    0    0 -0.43176922362E+02 -0.78738300088E+01  0.10142469328E+02  0.46142317546E+02  0.99999980403E+01 0.  0.
         12    1    1    2    0    0  0.43176922362E+02  0.78738300088E+01 -0.10142469328E+02  0.45045682454E+02  0.00000000000E+00 0. -1.
         11    1    3    3    0    0 -0.14729350853E+02 -0.10211126255E+01  0.62402885097E+01  0.16029274734E+02  0.51100000000E-03 0.  1.
        -11    1    3    3    0    0 -0.16982440730E+02 -0.16438224310E+01  0.50218207574E+00  0.17069201282E+02  0.51100000000E-03 0. -1.
         12    1    3    3    0    0 -0.11465130779E+02 -0.52088949524E+01  0.33999987424E+01  0.13043841530E+02  0.00000000000E+00 0. -1.
</event>
<event>
 7    1  0.2243370E-008  0.4614232E+02  0.7816164E-02  0.1320468E+00
        -11   -1    0    0    0    0  0.00000000000E+00  0.00000000000E+00  0.45593999997E+02  0.45594000000E+02  0.51100000000E-03 0. -1.
         11   -1    0    0    0    0 -0.00000000000E+00 -0.00000000000E+00 -0.45593999997E+02  0.45594000000E+02  0.51100000000E-03 0.  1.
    9900012    2    1    2    0    0  0.28783883933E+02 -0.25054883330E+02 -0.23934375634E+02  0.46142317743E+02  0.99999998385E+01 0.  0.
         12    1    1    2    0    0 -0.28783883933E+02  0.25054883330E+02  0.23934375634E+02  0.45045682257E+02  0.00000000000E+00 0. -1.
         11    1    3    3    0    0  0.78515029270E+00 -0.19870793607E+01 -0.16600840196E+01  0.27057022344E+01  0.51100000000E-03 0. -1.
        -11    1    3    3    0    0  0.27628976198E+00  0.70122356358E+00 -0.66261910481E+00  0.10035511237E+01  0.51100000000E-03 0.  1.
        -12    1    3    3    0    0  0.27722443878E+02 -0.23769027533E+02 -0.21611672510E+02  0.42433064385E+02  0.00000000000E+00 0.  1.
</event>
<event>
 7    1  0.2243370E-008  0.4614232E+02  0.7816164E-02  0.1320468E+00
        -11   -1    0    0    0    0  0.00000000000E+00  0.00000000000E+00  0.45593999997E+02  0.45594000000E+02  0.51100000000E-03 0.  1.
         11   -1    0    0    0    0 -0.00000000000E+00 -0.00000000000E+00 -0.45593999997E+02  0.45594000000E+02  0.51100000000E-03 0. -1.
    9900012    2    1    2    0    0 -0.53640234644E+01 -0.29365563155E+02  0.33734321740E+02  0.46142317517E+02  0.99999977723E+01 0.  0.
         12    1    1    2    0    0  0.53640234644E+01  0.29365563155E+02 -0.33734321740E+02  0.45045682483E+02  0.00000000000E+00 0. -1.
         11    1    3    3    0    0 -0.11337482448E+01 -0.28041432640E+01  0.41568983335E+00  0.30530972514E+01  0.51100000000E-03 0. -1.
        -11    1    3    3    0    0 -0.30532904403E+01 -0.12000110643E+02  0.18654633896E+02  0.22390189906E+02  0.51100000000E-03 0.  1.
         12    1    3    3    0    0 -0.11769847793E+01 -0.14561309248E+02  0.14663998010E+02  0.20699030359E+02  0.00000000000E+00 0. -1.
</event>
<event>
 7    1  0.2243370E-008  0.4614232E+02  0.7816164E-02  0.1320468E+00
        -11   -1    0    0    0    0  0.00000000000E+00  0.00000000000E+00  0.45593999997E+02  0.45594000000E+02  0.51100000000E-03 0. -1.
         11   -1    0    0    0    0 -0.00000000000E+00 -0.00000000000E+00 -0.45593999997E+02  0.45594000000E+02  0.51100000000E-03 0.  1.
    9900012    2    1    2    0    0  0.19309301794E+02 -0.23376752361E+01 -0.40630032447E+02  0.46142318765E+02  0.10000009152E+02 0.  0.
         12    1    1    2    0    0 -0.19309301794E+02  0.23376752361E+01  0.40630032447E+02  0.45045681235E+02  0.00000000000E+00 0. -1.
         11    1    3    3    0    0  0.13290222124E+02 -0.31247480230E+01 -0.22759817282E+02  0.26540597908E+02  0.51100000000E-03 0.  1.
        -11    1    3    3    0    0  0.60430689967E+01  0.10304586548E+01 -0.10012027552E+02  0.11739728443E+02  0.51100000000E-03 0. -1.
         12    1    3    3    0    0 -0.23989326781E-01 -0.24338586791E+00 -0.78581876127E+01  0.78619924144E+01  0.00000000000E+00 0. -1.
</event>
<event>
 7    1  0.2243370E-008  0.4614232E+02  0.7816164E-02  0.1320468E+00
        -11   -1    0    0    0    0  0.00000000000E+00  0.00000000000E+00  0.45593999997E+02  0.45594000000E+02  0.51100000000E-03 0. -1.
         11   -1    0    0    0    0 -0.00000000000E+00 -0.00000000000E+00 -0.45593999997E+02  0.45594000000E+02  0.51100000000E-03 0.  1.
    9900012    2    1    2    0    0 -0.22468084927E+02 -0.35563684446E+02 -0.16109711208E+02  0.46142319998E+02  0.10000020393E+02 0.  0.
         12    1    1    2    0    0  0.22468084927E+02  0.35563684446E+02  0.16109711208E+02  0.45045680002E+02  0.00000000000E+00 0. -1.
         11    1    3    3    0    0 -0.38870996261E+01 -0.65463011152E+01 -0.64949068231E+01  0.10007368120E+02  0.51100000000E-03 0.  1.
        -11    1    3    3    0    0 -0.11666630759E+02 -0.14286608345E+02 -0.36451078188E+01  0.18801709032E+02  0.51100000000E-03 0. -1.
         12    1    3    3    0    0 -0.69143545422E+01 -0.14730774986E+02 -0.59696965663E+01  0.17333242845E+02  0.00000000000E+00 0. -1.
</event>
<event>
 7    1  0.2243370E-008  0.4614232E+02  0.7816164E-02  0.1320468E+00
        -11   -1    0    0    0    0  0.00000000000E+00  0.00000000000E+00  0.45593999997E+02  0.45594000000E+02  0.51100000000E-03 0.  1.
         11   -1    0    0    0    0 -0.00000000000E+00 -0.00000000000E+00 -0.45593999997E+02  0.45594000000E+02  0.51100000000E-03 0. -1.
    9900012    2    1    2    0    0 -0.35799223217E+02  0.26664345731E+02  0.60449798872E+01  0.46142317654E+02  0.99999990233E+01 0.  0.
         12    1    1    2    0    0  0.35799223217E+02 -0.26664345731E+02 -0.60449798872E+01  0.45045682346E+02  0.00000000000E+00 0. -1.
         11    1    3    3    0    0 -0.13512554408E+02  0.82343447973E+01  0.33849380742E+01  0.16181822113E+02  0.51100000000E-03 0. -1.
        -11    1    3    3    0    0 -0.13431777242E+02  0.14801982300E+02  0.37256572477E+01  0.20332039792E+02  0.51100000000E-03 0.  1.
         12    1    3    3    0    0 -0.88548915668E+01  0.36280186330E+01 -0.10656154347E+01  0.96284557492E+01  0.00000000000E+00 0. -1.
</event>
<event>
 7    1  0.2243370E-008  0.4614232E+02  0.7816164E-02  0.1320468E+00
        -11   -1    0    0    0    0  0.00000000000E+00  0.00000000000E+00  0.45593999997E+02  0.45594000000E+02  0.51100000000E-03 0.  1.
         11   -1    0    0    0    0 -0.00000000000E+00 -0.00000000000E+00 -0.45593999997E+02  0.45594000000E+02  0.51100000000E-03 0. -1.
    9900012    2    1    2    0    0 -0.17436413662E+01  0.31714826084E+02  0.31941242883E+02  0.46142317902E+02  0.10000001285E+02 0.  0.
         12    1    1    2    0    0  0.17436413662E+01 -0.31714826084E+02 -0.31941242883E+02  0.45045682098E+02  0.00000000000E+00 0. -1.
         11    1    3    3    0    0  0.11056363320E+01  0.34271378034E+01  0.83643407124E+01  0.91065855861E+01  0.51100000000E-03 0. -1.
        -11    1    3    3    0    0 -0.76106278709E+00  0.13401154603E+02  0.12723583947E+02  0.18494857393E+02  0.51100000000E-03 0.  1.
         12    1    3    3    0    0 -0.20882149111E+01  0.14886533678E+02  0.10853318223E+02  0.18540874923E+02  0.00000000000E+00 0. -1.
</event>
<event>
 7    1  0.2243370E-008  0.4614232E+02  0.7816164E-02  0.1320468E+00
        -11   -1    0    0    0    0  0.00000000000E+00  0.00000000000E+00  0.45593999997E+02  0.45594000000E+02  0.51100000000E-03 0.  1.
         11   -1    0    0    0    0 -0.00000000000E+00 -0.00000000000E+00 -0.45593999997E+02  0.45594000000E+02  0.51100000000E-03 0. -1.
    9900012    2    1    2    0    0 -0.22149774851E+02 -0.25793291720E+02  0.29550076352E+02  0.46142318341E+02  0.10000005287E+02 0.  0.
         12    1    1    2    0    0  0.22149774851E+02  0.25793291720E+02 -0.29550076352E+02  0.45045681659E+02  0.00000000000E+00 0. -1.
         11    1    3    3    0    0 -0.46245462899E+01 -0.63540967934E+01  0.55755052695E+01  0.96357269429E+01  0.51100000000E-03 0.  1.
        -11    1    3    3    0    0 -0.17473274552E+02 -0.19844980487E+02  0.24354488526E+02  0.35948291833E+02  0.51100000000E-03 0. -1.
         12    1    3    3    0    0 -0.51954008726E-01  0.40578556040E+00 -0.37991744329E+00  0.55829956454E+00  0.00000000000E+00 0. -1.
</event>
<event>
 7    1  0.2243370E-008  0.4614232E+02  0.7816164E-02  0.1320468E+00
        -11   -1    0    0    0    0  0.00000000000E+00  0.00000000000E+00  0.45593999997E+02  0.45594000000E+02  0.51100000000E-03 0. -1.
         11   -1    0    0    0    0 -0.00000000000E+00 -0.00000000000E+00 -0.45593999997E+02  0.45594000000E+02  0.51100000000E-03 0.  1.
    9900012    2    1    2    0    0  0.10000435659E+02  0.37490645453E+02 -0.22881352592E+02  0.46142317562E+02  0.99999981856E+01 0.  0.
         12    1    1    2    0    0 -0.10000435659E+02 -0.37490645453E+02  0.22881352592E+02  0.45045682438E+02  0.00000000000E+00 0. -1.
         11    1    3    3    0    0  0.16030079280E+01  0.14381630722E+01 -0.13541304620E+01  0.25439373044E+01  0.51100000000E-03 0. -1.
        -11    1    3    3    0    0 -0.47443983141E+00  0.10089526881E+02 -0.31690547525E+01  0.10586149164E+02  0.51100000000E-03 0.  1.
        -12    1    3    3    0    0  0.88718675621E+01  0.25962955500E+02 -0.18358167377E+02  0.33012231094E+02  0.00000000000E+00 0.  1.
</event>
<event>
 7    1  0.2243370E-008  0.4614232E+02  0.7816164E-02  0.1320468E+00
        -11   -1    0    0    0    0  0.00000000000E+00  0.00000000000E+00  0.45593999997E+02  0.45594000000E+02  0.51100000000E-03 0.  1.
         11   -1    0    0    0    0 -0.00000000000E+00 -0.00000000000E+00 -0.45593999997E+02  0.45594000000E+02  0.51100000000E-03 0. -1.
    9900012    2    1    2    0    0 -0.41052198300E+02 -0.18362557474E+02  0.25781699484E+01  0.46142318048E+02  0.10000002620E+02 0.  0.
         12    1    1    2    0    0  0.41052198300E+02  0.18362557474E+02 -0.25781699484E+01  0.45045681952E+02  0.00000000000E+00 0. -1.
         11    1    3    3    0    0 -0.79783126419E+01 -0.11575246906E+01 -0.11351030474E+01  0.81413632280E+01  0.51100000000E-03 0. -1.
        -11    1    3    3    0    0 -0.10783185954E+02 -0.38962683432E+01  0.36728957661E+01  0.12039442258E+02  0.51100000000E-03 0.  1.
        -12    1    3    3    0    0 -0.22290699704E+02 -0.13308764440E+02  0.40377229752E-01  0.25961512562E+02  0.00000000000E+00 0.  1.
</event>
<event>
 7    1  0.2243370E-008  0.4614232E+02  0.7816164E-02  0.1320468E+00
        -11   -1    0    0    0    0  0.00000000000E+00  0.00000000000E+00  0.45593999997E+02  0.45594000000E+02  0.51100000000E-03 0.  1.
         11   -1    0    0    0    0 -0.00000000000E+00 -0.00000000000E+00 -0.45593999997E+02  0.45594000000E+02  0.51100000000E-03 0. -1.
    9900012    2    1    2    0    0  0.17250948362E+02 -0.18412622536E+02  0.37316130960E+02  0.46142317434E+02  0.99999970131E+01 0.  0.
         12    1    1    2    0    0 -0.17250948362E+02  0.18412622536E+02 -0.37316130960E+02  0.45045682566E+02  0.00000000000E+00 0. -1.
         11    1    3    3    0    0  0.34890098222E+01 -0.22409495302E+01  0.24174408776E+01  0.47999026025E+01  0.51100000000E-03 0.  1.
        -11    1    3    3    0    0  0.14359062118E+02 -0.15699217420E+02  0.32666665063E+02  0.38984087768E+02  0.51100000000E-03 0. -1.
         12    1    3    3    0    0 -0.59712357827E+00 -0.47245558632E+00  0.22320250195E+01  0.23583270631E+01  0.00000000000E+00 0. -1.
</event>
<event>
 7    1  0.2243370E-008  0.4614232E+02  0.7816164E-02  0.1320468E+00
        -11   -1    0    0    0    0  0.00000000000E+00  0.00000000000E+00  0.45593999997E+02  0.45594000000E+02  0.51100000000E-03 0. -1.
         11   -1    0    0    0    0 -0.00000000000E+00 -0.00000000000E+00 -0.45593999997E+02  0.45594000000E+02  0.51100000000E-03 0.  1.
    9900012    2    1    2    0    0 -0.43854761427E+02  0.68510373412E+01  0.76770248545E+01  0.46142317376E+02  0.99999964889E+01 0.  0.
         12    1    1    2    0    0  0.43854761427E+02 -0.68510373412E+01 -0.76770248545E+01  0.45045682624E+02  0.00000000000E+00 0. -1.
         11    1    3    3    0    0 -0.24654223646E+01 -0.17145560986E+01  0.60192709787E+00  0.30627318758E+01  0.51100000000E-03 0. -1.
        -11    1    3    3    0    0 -0.18172901595E+02  0.25000408373E+01  0.12478457207E+01  0.18386453595E+02  0.51100000000E-03 0.  1.
         12    1    3    3    0    0 -0.23216437467E+02  0.60655526025E+01  0.58272520359E+01  0.24693131906E+02  0.00000000000E+00 0. -1.
</event>
<event>
 7    1  0.2243370E-008  0.4614232E+02  0.7816164E-02  0.1320468E+00
        -11   -1    0    0    0    0  0.00000000000E+00  0.00000000000E+00  0.45593999997E+02  0.45594000000E+02  0.51100000000E-03 0. -1.
         11   -1    0    0    0    0 -0.00000000000E+00 -0.00000000000E+00 -0.45593999997E+02  0.45594000000E+02  0.51100000000E-03 0.  1.
    9900012    2    1    2    0    0 -0.18404936640E+02  0.40070791763E+02 -0.92034487547E+01  0.46142317475E+02  0.99999973871E+01 0.  0.
         12    1    1    2    0    0  0.18404936640E+02 -0.40070791763E+02  0.92034487547E+01  0.45045682525E+02  0.00000000000E+00 0. -1.
         11    1    3    3    0    0 -0.51002242611E+01  0.66082437500E+01 -0.63153007062E+00  0.83713800215E+01  0.51100000000E-03 0. -1.
        -11    1    3    3    0    0 -0.10229569862E+02  0.16006884605E+02 -0.33166444220E+01  0.19283790727E+02  0.51100000000E-03 0.  1.
        -12    1    3    3    0    0 -0.30751425167E+01  0.17455663408E+02 -0.52552742621E+01  0.18487146726E+02  0.00000000000E+00 0.  1.
</event>
<event>
 7    1  0.2243370E-008  0.4614232E+02  0.7816164E-02  0.1320468E+00
        -11   -1    0    0    0    0  0.00000000000E+00  0.00000000000E+00  0.45593999997E+02  0.45594000000E+02  0.51100000000E-03 0. -1.
         11   -1    0    0    0    0 -0.00000000000E+00 -0.00000000000E+00 -0.45593999997E+02  0.45594000000E+02  0.51100000000E-03 0.  1.
    9900012    2    1    2    0    0  0.37447785711E+02 -0.25033250155E+02  0.33647557025E+00  0.46142317812E+02  0.10000000461E+02 0.  0.
         12    1    1    2    0    0 -0.37447785711E+02  0.25033250155E+02 -0.33647557025E+00  0.45045682188E+02  0.00000000000E+00 0. -1.
         11    1    3    3    0    0  0.89243374721E+01 -0.46977405548E+01 -0.16663895956E+01  0.10222006661E+02  0.51100000000E-03 0. -1.
        -11    1    3    3    0    0  0.21244060744E+02 -0.14626770693E+02  0.48430353524E+01  0.26243237786E+02  0.51100000000E-03 0.  1.
        -12    1    3    3    0    0  0.72793874952E+01 -0.57087389071E+01 -0.28401701866E+01  0.96770733646E+01  0.00000000000E+00 0.  1.
</event>
<event>
 7    1  0.2243370E-008  0.4614232E+02  0.7816164E-02  0.1320468E+00
        -11   -1    0    0    0    0  0.00000000000E+00  0.00000000000E+00  0.45593999997E+02  0.45594000000E+02  0.51100000000E-03 0.  1.
         11   -1    0    0    0    0 -0.00000000000E+00 -0.00000000000E+00 -0.45593999997E+02  0.45594000000E+02  0.51100000000E-03 0. -1.
    9900012    2    1    2    0    0 -0.17334991200E+02 -0.12649728994E+01  0.41557326695E+02  0.46142317872E+02  0.10000001011E+02 0.  0.
         12    1    1    2    0    0  0.17334991200E+02  0.12649728994E+01 -0.41557326695E+02  0.45045682128E+02  0.00000000000E+00 0. -1.
         11    1    3    3    0    0 -0.18389063105E+01 -0.56024007598E+00  0.64544536307E+00  0.20278178763E+01  0.51100000000E-03 0. -1.
        -11    1    3    3    0    0 -0.10772373775E+02  0.19053418461E+01  0.24324679130E+02  0.26671415023E+02  0.51100000000E-03 0.  1.
         12    1    3    3    0    0 -0.47237111147E+01 -0.26100746695E+01  0.16587202202E+02  0.17443084973E+02  0.00000000000E+00 0. -1.
</event>
<event>
 7    1  0.2243370E-008  0.4614232E+02  0.7816164E-02  0.1320468E+00
        -11   -1    0    0    0    0  0.00000000000E+00  0.00000000000E+00  0.45593999997E+02  0.45594000000E+02  0.51100000000E-03 0.  1.
         11   -1    0    0    0    0 -0.00000000000E+00 -0.00000000000E+00 -0.45593999997E+02  0.45594000000E+02  0.51100000000E-03 0. -1.
    9900012    2    1    2    0    0  0.25447917022E+02 -0.36472217214E+02  0.71620161524E+01  0.46142316692E+02  0.99999902552E+01 0.  0.
         12    1    1    2    0    0 -0.25447917022E+02  0.36472217214E+02 -0.71620161524E+01  0.45045683308E+02  0.00000000000E+00 0. -1.
         11    1    3    3    0    0  0.14139717812E+02 -0.22366079555E+02  0.51313839234E+01  0.26953742518E+02  0.51100000000E-03 0. -1.
        -11    1    3    3    0    0  0.49978720147E+01 -0.96574278182E+01  0.33007695888E+01  0.11363965720E+02  0.51100000000E-03 0.  1.
         12    1    3    3    0    0  0.63103271961E+01 -0.44487098402E+01 -0.12701373598E+01  0.78246084552E+01  0.00000000000E+00 0. -1.
</event>
<event>
 7    1  0.2243370E-008  0.4614232E+02  0.7816164E-02  0.1320468E+00
        -11   -1    0    0    0    0  0.00000000000E+00  0.00000000000E+00  0.45593999997E+02  0.45594000000E+02  0.51100000000E-03 0. -1.
         11   -1    0    0    0    0 -0.00000000000E+00 -0.00000000000E+00 -0.45593999997E+02  0.45594000000E+02  0.51100000000E-03 0.  1.
    9900012    2    1    2    0    0 -0.84377304740E+01 -0.32276210234E+01 -0.44130493395E+02  0.46142320071E+02  0.10000021060E+02 0.  0.
         12    1    1    2    0    0  0.84377304740E+01  0.32276210234E+01  0.44130493395E+02  0.45045679929E+02  0.00000000000E+00 0. -1.
         11    1    3    3    0    0 -0.23818859847E+01 -0.18679120205E+01 -0.59690468101E+01  0.66926822905E+01  0.51100000000E-03 0. -1.
        -11    1    3    3    0    0 -0.23123279947E+01 -0.44990744765E+01 -0.21469622564E+02  0.22057498163E+02  0.51100000000E-03 0.  1.
        -12    1    3    3    0    0 -0.37435164946E+01  0.31393654735E+01 -0.16691824021E+02  0.17392139617E+02  0.00000000000E+00 0.  1.
</event>
<event>
 7    1  0.2243370E-008  0.4614232E+02  0.7816164E-02  0.1320468E+00
        -11   -1    0    0    0    0  0.00000000000E+00  0.00000000000E+00  0.45593999997E+02  0.45594000000E+02  0.51100000000E-03 0. -1.
         11   -1    0    0    0    0 -0.00000000000E+00 -0.00000000000E+00 -0.45593999997E+02  0.45594000000E+02  0.51100000000E-03 0.  1.
    9900012    2    1    2    0    0  0.31861049448E+02  0.18616007851E+02  0.25834690692E+02  0.46142318038E+02  0.10000002527E+02 0.  0.
         12    1    1    2    0    0 -0.31861049448E+02 -0.18616007851E+02 -0.25834690692E+02  0.45045681962E+02  0.00000000000E+00 0. -1.
         11    1    3    3    0    0  0.15739416257E+02  0.96200771765E+01  0.14952351621E+02  0.23745482270E+02  0.51100000000E-03 0. -1.
        -11    1    3    3    0    0  0.16222440680E+02  0.90715438502E+01  0.11440023420E+02  0.21825091651E+02  0.51100000000E-03 0.  1.
         12    1    3    3    0    0 -0.10080748866E+00 -0.75613175250E-01 -0.55768434946E+00  0.57174411731E+00  0.00000000000E+00 0. -1.
</event>
<event>
 7    1  0.2243370E-008  0.4614232E+02  0.7816164E-02  0.1320468E+00
        -11   -1    0    0    0    0  0.00000000000E+00  0.00000000000E+00  0.45593999997E+02  0.45594000000E+02  0.51100000000E-03 0. -1.
         11   -1    0    0    0    0 -0.00000000000E+00 -0.00000000000E+00 -0.45593999997E+02  0.45594000000E+02  0.51100000000E-03 0.  1.
    9900012    2    1    2    0    0 -0.35452398171E+02  0.13139292272E+02 -0.24486728826E+02  0.46142318452E+02  0.10000006303E+02 0.  0.
         12    1    1    2    0    0  0.35452398171E+02 -0.13139292272E+02  0.24486728826E+02  0.45045681548E+02  0.00000000000E+00 0. -1.
         11    1    3    3    0    0 -0.17639612547E+02  0.27284320631E+01 -0.81969528871E+01  0.19641545490E+02  0.51100000000E-03 0. -1.
        -11    1    3    3    0    0 -0.62105277401E+01  0.18808292749E+01 -0.46249305650E+01  0.79685730569E+01  0.51100000000E-03 0.  1.
        -12    1    3    3    0    0 -0.11602257884E+02  0.85300309339E+01 -0.11664845374E+02  0.18532199906E+02  0.00000000000E+00 0.  1.
</event>
<event>
 7    1  0.2243370E-008  0.4614232E+02  0.7816164E-02  0.1320468E+00
        -11   -1    0    0    0    0  0.00000000000E+00  0.00000000000E+00  0.45593999997E+02  0.45594000000E+02  0.51100000000E-03 0. -1.
         11   -1    0    0    0    0 -0.00000000000E+00 -0.00000000000E+00 -0.45593999997E+02  0.45594000000E+02  0.51100000000E-03 0.  1.
    9900012    2    1    2    0    0 -0.11052192954E+02  0.30958394532E+02 -0.30798382442E+02  0.46142317386E+02  0.99999965803E+01 0.  0.
         12    1    1    2    0    0  0.11052192954E+02 -0.30958394532E+02  0.30798382442E+02  0.45045682614E+02  0.00000000000E+00 0. -1.
         11    1    3    3    0    0  0.56926283407E+00  0.82375572701E+00 -0.28579550729E+01  0.30282901333E+01  0.51100000000E-03 0. -1.
        -11    1    3    3    0    0 -0.80486232929E+01  0.14269259596E+02 -0.11706218339E+02  0.20135234153E+02  0.51100000000E-03 0.  1.
        -12    1    3    3    0    0 -0.35728324947E+01  0.15865379210E+02 -0.16234209030E+02  0.22978793100E+02  0.00000000000E+00 0.  1.
</event>
<event>
 7    1  0.2243370E-008  0.4614232E+02  0.7816164E-02  0.1320468E+00
        -11   -1    0    0    0    0  0.00000000000E+00  0.00000000000E+00  0.45593999997E+02  0.45594000000E+02  0.51100000000E-03 0.  1.
         11   -1    0    0    0    0 -0.00000000000E+00 -0.00000000000E+00 -0.45593999997E+02  0.45594000000E+02  0.51100000000E-03 0. -1.
    9900012    2    1    2    0    0  0.41975367873E+02  0.16196910508E+02  0.22004680327E+01  0.46142317880E+02  0.10000001085E+02 0.  0.
         12    1    1    2    0    0 -0.41975367873E+02 -0.16196910508E+02 -0.22004680327E+01  0.45045682120E+02  0.00000000000E+00 0. -1.
         11    1    3    3    0    0  0.17827058097E+02  0.57835407932E+01  0.21686817628E+01  0.18866810153E+02  0.51100000000E-03 0.  1.
        -11    1    3    3    0    0  0.14343159124E+02  0.95650577796E+01  0.15819385622E+01  0.17312396537E+02  0.51100000000E-03 0. -1.
         12    1    3    3    0    0  0.98051506523E+01  0.84831193481E+00 -0.15501522924E+01  0.99631111899E+01  0.00000000000E+00 0. -1.
</event>
<event>
 7    1  0.2243370E-008  0.4614232E+02  0.7816164E-02  0.1320468E+00
        -11   -1    0    0    0    0  0.00000000000E+00  0.00000000000E+00  0.45593999997E+02  0.45594000000E+02  0.51100000000E-03 0.  1.
         11   -1    0    0    0    0 -0.00000000000E+00 -0.00000000000E+00 -0.45593999997E+02  0.45594000000E+02  0.51100000000E-03 0. -1.
    9900012    2    1    2    0    0 -0.10571552488E+02  0.28886040912E+02  0.32908243764E+02  0.46142316642E+02  0.99999897958E+01 0.  0.
         12    1    1    2    0    0  0.10571552488E+02 -0.28886040912E+02 -0.32908243764E+02  0.45045683358E+02  0.00000000000E+00 0. -1.
         11    1    3    3    0    0 -0.98391404239E+01  0.26543241797E+02  0.27724192894E+02  0.39623014035E+02  0.51100000000E-03 0. -1.
        -11    1    3    3    0    0 -0.38154953375E+00  0.30944698994E+01  0.39481688822E+01  0.50308410617E+01  0.51100000000E-03 0.  1.
         12    1    3    3    0    0 -0.35086252992E+00 -0.75167078444E+00  0.12358819877E+01  0.14884615449E+01  0.00000000000E+00 0. -1.
</event>
<event>
 7    1  0.2243370E-008  0.4614232E+02  0.7816164E-02  0.1320468E+00
        -11   -1    0    0    0    0  0.00000000000E+00  0.00000000000E+00  0.45593999997E+02  0.45594000000E+02  0.51100000000E-03 0.  1.
         11   -1    0    0    0    0 -0.00000000000E+00 -0.00000000000E+00 -0.45593999997E+02  0.45594000000E+02  0.51100000000E-03 0. -1.
    9900012    2    1    2    0    0 -0.86482005605E+01 -0.30528364832E+02  0.31974069411E+02  0.46142317111E+02  0.99999940740E+01 0.  0.
         12    1    1    2    0    0  0.86482005605E+01  0.30528364832E+02 -0.31974069411E+02  0.45045682889E+02  0.00000000000E+00 0. -1.
         11    1    3    3    0    0 -0.55724824573E+01 -0.93918295527E+01  0.13143067034E+02  0.17087985089E+02  0.51100000000E-03 0. -1.
        -11    1    3    3    0    0 -0.41984938592E+01 -0.10060565089E+02  0.79977271063E+01  0.13520575421E+02  0.51100000000E-03 0.  1.
         12    1    3    3    0    0  0.11227757560E+01 -0.11075970190E+02  0.10833275270E+02  0.15533756601E+02  0.00000000000E+00 0. -1.
</event>
<event>
 7    1  0.2243370E-008  0.4614232E+02  0.7816164E-02  0.1320468E+00
        -11   -1    0    0    0    0  0.00000000000E+00  0.00000000000E+00  0.45593999997E+02  0.45594000000E+02  0.51100000000E-03 0. -1.
         11   -1    0    0    0    0 -0.00000000000E+00 -0.00000000000E+00 -0.45593999997E+02  0.45594000000E+02  0.51100000000E-03 0.  1.
    9900012    2    1    2    0    0 -0.30957357043E+02 -0.25775105429E+02 -0.20159350982E+02  0.46142318221E+02  0.10000004193E+02 0.  0.
         12    1    1    2    0    0  0.30957357043E+02  0.25775105429E+02  0.20159350982E+02  0.45045681779E+02  0.00000000000E+00 0. -1.
         11    1    3    3    0    0 -0.54582724410E+01 -0.34853233064E+01 -0.64042694032E+01  0.91079571496E+01  0.51100000000E-03 0. -1.
        -11    1    3    3    0    0 -0.53953316383E+01 -0.59362934008E+01 -0.58900045686E+01  0.99519514120E+01  0.51100000000E-03 0.  1.
         12    1    3    3    0    0 -0.20103752963E+02 -0.16353488722E+02 -0.78650770099E+01  0.27082409659E+02  0.00000000000E+00 0. -1.
</event>
<event>
 7    1  0.2243370E-008  0.4614232E+02  0.7816164E-02  0.1320468E+00
        -11   -1    0    0    0    0  0.00000000000E+00  0.00000000000E+00  0.45593999997E+02  0.45594000000E+02  0.51100000000E-03 0. -1.
         11   -1    0    0    0    0 -0.00000000000E+00 -0.00000000000E+00 -0.45593999997E+02  0.45594000000E+02  0.51100000000E-03 0.  1.
    9900012    2    1    2    0    0  0.38561942289E+02 -0.62869149424E+01 -0.22417956491E+02  0.46142318011E+02  0.10000002280E+02 0.  0.
         12    1    1    2    0    0 -0.38561942289E+02  0.62869149424E+01  0.22417956491E+02  0.45045681989E+02  0.00000000000E+00 0. -1.
         11    1    3    3    0    0  0.87751660990E+01 -0.41743049991E+00 -0.19028271828E+01  0.89888008008E+01  0.51100000000E-03 0. -1.
        -11    1    3    3    0    0  0.24557008331E+02 -0.24376935004E+01 -0.15562072047E+02  0.29174768112E+02  0.51100000000E-03 0.  1.
        -12    1    3    3    0    0  0.52297678596E+01 -0.34317909421E+01 -0.49530572613E+01  0.79787490980E+01  0.00000000000E+00 0.  1.
</event>
<event>
 7    1  0.2243370E-008  0.4614232E+02  0.7816164E-02  0.1320468E+00
        -11   -1    0    0    0    0  0.00000000000E+00  0.00000000000E+00  0.45593999997E+02  0.45594000000E+02  0.51100000000E-03 0. -1.
         11   -1    0    0    0    0 -0.00000000000E+00 -0.00000000000E+00 -0.45593999997E+02  0.45594000000E+02  0.51100000000E-03 0.  1.
    9900012    2    1    2    0    0  0.19756881417E+02 -0.10249424706E+02 -0.39162844750E+02  0.46142317864E+02  0.10000000941E+02 0.  0.
         12    1    1    2    0    0 -0.19756881417E+02  0.10249424706E+02  0.39162844750E+02  0.45045682136E+02  0.00000000000E+00 0. -1.
         11    1    3    3    0    0  0.47294720143E+01 -0.15774924280E+01 -0.11415914176E+02  0.12457105789E+02  0.51100000000E-03 0. -1.
        -11    1    3    3    0    0  0.63245185273E+01 -0.66568213086E+01 -0.19382049096E+02  0.21447065812E+02  0.51100000000E-03 0.  1.
         12    1    3    3    0    0  0.87028908758E+01 -0.20151109691E+01 -0.83648814779E+01  0.12238146263E+02  0.00000000000E+00 0. -1.
</event>
<event>
 7    1  0.2243370E-008  0.4614232E+02  0.7816164E-02  0.1320468E+00
        -11   -1    0    0    0    0  0.00000000000E+00  0.00000000000E+00  0.45593999997E+02  0.45594000000E+02  0.51100000000E-03 0.  1.
         11   -1    0    0    0    0 -0.00000000000E+00 -0.00000000000E+00 -0.45593999997E+02  0.45594000000E+02  0.51100000000E-03 0. -1.
    9900012    2    1    2    0    0 -0.15823910619E+02 -0.26177913243E+02  0.33067116697E+02  0.46142317680E+02  0.99999992584E+01 0.  0.
         12    1    1    2    0    0  0.15823910619E+02  0.26177913243E+02 -0.33067116697E+02  0.45045682320E+02  0.00000000000E+00 0. -1.
         11    1    3    3    0    0 -0.64347766882E+01 -0.93065226839E+01  0.85010749810E+01  0.14152243341E+02  0.51100000000E-03 0.  1.
        -11    1    3    3    0    0  0.11210298646E+00  0.59022364200E+00  0.90962791320E+00  0.10901166125E+01  0.51100000000E-03 0. -1.
         12    1    3    3    0    0 -0.95012369168E+01 -0.17461614201E+02  0.23656413803E+02  0.30899957726E+02  0.00000000000E+00 0. -1.
</event>
<event>
 7    1  0.2243370E-008  0.4614232E+02  0.7816164E-02  0.1320468E+00
        -11   -1    0    0    0    0  0.00000000000E+00  0.00000000000E+00  0.45593999997E+02  0.45594000000E+02  0.51100000000E-03 0.  1.
         11   -1    0    0    0    0 -0.00000000000E+00 -0.00000000000E+00 -0.45593999997E+02  0.45594000000E+02  0.51100000000E-03 0. -1.
    9900012    2    1    2    0    0 -0.36062247990E+02  0.47915589010E+01  0.26564424911E+02  0.46142318324E+02  0.10000005131E+02 0.  0.
         12    1    1    2    0    0  0.36062247990E+02 -0.47915589010E+01 -0.26564424911E+02  0.45045681676E+02  0.00000000000E+00 0. -1.
         11    1    3    3    0    0 -0.13880523730E+02  0.33406296429E+00  0.68262526785E+01  0.15471853896E+02  0.51100000000E-03 0. -1.
        -11    1    3    3    0    0 -0.12020470908E+02  0.49377411391E+01  0.85844147466E+01  0.15574504333E+02  0.51100000000E-03 0.  1.
         12    1    3    3    0    0 -0.10161253352E+02 -0.48024520243E+00  0.11153757486E+02  0.15095960095E+02  0.00000000000E+00 0. -1.
</event>
<event>
 7    1  0.2243370E-008  0.4614232E+02  0.7816164E-02  0.1320468E+00
        -11   -1    0    0    0    0  0.00000000000E+00  0.00000000000E+00  0.45593999997E+02  0.45594000000E+02  0.51100000000E-03 0.  1.
         11   -1    0    0    0    0 -0.00000000000E+00 -0.00000000000E+00 -0.45593999997E+02  0.45594000000E+02  0.51100000000E-03 0. -1.
    9900012    2    1    2    0    0 -0.46926447997E+01 -0.19570080710E+02  0.40300180129E+02  0.46142317713E+02  0.99999995647E+01 0.  0.
         12    1    1    2    0    0  0.46926447997E+01  0.19570080710E+02 -0.40300180129E+02  0.45045682287E+02  0.00000000000E+00 0. -1.
         11    1    3    3    0    0 -0.32237896038E+01 -0.62994162336E+01  0.21211687423E+02  0.22360929048E+02  0.51100000000E-03 0. -1.
        -11    1    3    3    0    0 -0.29552533371E+01 -0.10645383339E+02  0.16170340926E+02  0.19584116897E+02  0.51100000000E-03 0.  1.
         12    1    3    3    0    0  0.14863981413E+01 -0.26252811373E+01  0.29181517813E+01  0.41972717690E+01  0.00000000000E+00 0. -1.
</event>
<event>
 7    1  0.2243370E-008  0.4614232E+02  0.7816164E-02  0.1320468E+00
        -11   -1    0    0    0    0  0.00000000000E+00  0.00000000000E+00  0.45593999997E+02  0.45594000000E+02  0.51100000000E-03 0.  1.
         11   -1    0    0    0    0 -0.00000000000E+00 -0.00000000000E+00 -0.45593999997E+02  0.45594000000E+02  0.51100000000E-03 0. -1.
    9900012    2    1    2    0    0 -0.26028026794E+02  0.34084687341E+02  0.13780035485E+02  0.46142317989E+02  0.10000002074E+02 0.  0.
         12    1    1    2    0    0  0.26028026794E+02 -0.34084687341E+02 -0.13780035485E+02  0.45045682011E+02  0.00000000000E+00 0. -1.
         11    1    3    3    0    0 -0.66877547773E+01  0.92239196368E+01  0.14488784947E+01  0.11485034026E+02  0.51100000000E-03 0. -1.
        -11    1    3    3    0    0 -0.18510805914E+02  0.22932542116E+02  0.13314560016E+02  0.32339278474E+02  0.51100000000E-03 0.  1.
        -12    1    3    3    0    0 -0.82946610171E+00  0.19282255879E+01 -0.98340302644E+00  0.23180054884E+01  0.00000000000E+00 0.  1.
</event>
<event>
 7    1  0.2243370E-008  0.4614232E+02  0.7816164E-02  0.1320468E+00
        -11   -1    0    0    0    0  0.00000000000E+00  0.00000000000E+00  0.45593999997E+02  0.45594000000E+02  0.51100000000E-03 0.  1.
         11   -1    0    0    0    0 -0.00000000000E+00 -0.00000000000E+00 -0.45593999997E+02  0.45594000000E+02  0.51100000000E-03 0. -1.
    9900012    2    1    2    0    0 -0.33751904064E+02  0.27023790762E+02  0.12634762506E+02  0.46142317425E+02  0.99999969306E+01 0.  0.
         12    1    1    2    0    0  0.33751904064E+02 -0.27023790762E+02 -0.12634762506E+02  0.45045682575E+02  0.00000000000E+00 0. -1.
         11    1    3    3    0    0 -0.19013891405E+01  0.14733966159E+01  0.31727919837E+01  0.39815559125E+01  0.51100000000E-03 0. -1.
        -11    1    3    3    0    0 -0.15975894869E+02  0.10147038260E+02  0.52903091566E+01  0.19651436933E+02  0.51100000000E-03 0.  1.
         12    1    3    3    0    0 -0.15874620055E+02  0.15403355886E+02  0.41716613661E+01  0.22509324579E+02  0.00000000000E+00 0. -1.
</event>
<event>
 7    1  0.2243370E-008  0.4614232E+02  0.7816164E-02  0.1320468E+00
        -11   -1    0    0    0    0  0.00000000000E+00  0.00000000000E+00  0.45593999997E+02  0.45594000000E+02  0.51100000000E-03 0.  1.
         11   -1    0    0    0    0 -0.00000000000E+00 -0.00000000000E+00 -0.45593999997E+02  0.45594000000E+02  0.51100000000E-03 0. -1.
    9900012    2    1    2    0    0 -0.20074741100E+02 -0.33105298180E+02  0.23025148577E+02  0.46142318022E+02  0.10000002382E+02 0.  0.
         12    1    1    2    0    0  0.20074741100E+02  0.33105298180E+02 -0.23025148577E+02  0.45045681978E+02  0.00000000000E+00 0. -1.
         11    1    3    3    0    0 -0.22869940309E+01 -0.42957688457E+01  0.63237318698E+00  0.49075317403E+01  0.51100000000E-03 0. -1.
        -11    1    3    3    0    0  0.49213209215E+00 -0.26002903498E+00 -0.79920850523E-01  0.56231370126E+00  0.51100000000E-03 0.  1.
        -12    1    3    3    0    0 -0.18279879161E+02 -0.28549500300E+02  0.22472696241E+02  0.40672472581E+02  0.00000000000E+00 0.  1.
</event>
<event>
 7    1  0.2243370E-008  0.4614232E+02  0.7816164E-02  0.1320468E+00
        -11   -1    0    0    0    0  0.00000000000E+00  0.00000000000E+00  0.45593999997E+02  0.45594000000E+02  0.51100000000E-03 0.  1.
         11   -1    0    0    0    0 -0.00000000000E+00 -0.00000000000E+00 -0.45593999997E+02  0.45594000000E+02  0.51100000000E-03 0. -1.
    9900012    2    1    2    0    0 -0.26878030601E+02 -0.30877116333E+02  0.18795972713E+02  0.46142318384E+02  0.10000005677E+02 0.  0.
         12    1    1    2    0    0  0.26878030601E+02  0.30877116333E+02 -0.18795972713E+02  0.45045681616E+02  0.00000000000E+00 0. -1.
         11    1    3    3    0    0 -0.57326434312E+01 -0.36080818861E+01  0.19523776501E+01  0.70493428315E+01  0.51100000000E-03 0. -1.
        -11    1    3    3    0    0 -0.26649770717E+01 -0.47313410186E+00  0.16604185941E+01  0.31753659379E+01  0.51100000000E-03 0.  1.
        -12    1    3    3    0    0 -0.18480410098E+02 -0.26795900345E+02  0.15183176469E+02  0.35917609614E+02  0.00000000000E+00 0.  1.
</event>
<event>
 7    1  0.2243370E-008  0.4614232E+02  0.7816164E-02  0.1320468E+00
        -11   -1    0    0    0    0  0.00000000000E+00  0.00000000000E+00  0.45593999997E+02  0.45594000000E+02  0.51100000000E-03 0.  1.
         11   -1    0    0    0    0 -0.00000000000E+00 -0.00000000000E+00 -0.45593999997E+02  0.45594000000E+02  0.51100000000E-03 0. -1.
    9900012    2    1    2    0    0  0.16612234667E+02 -0.29562172576E+02  0.29651730254E+02  0.46142317686E+02  0.99999993186E+01 0.  0.
         12    1    1    2    0    0 -0.16612234667E+02  0.29562172576E+02 -0.29651730254E+02  0.45045682314E+02  0.00000000000E+00 0. -1.
         11    1    3    3    0    0  0.12975179637E+01 -0.74497600455E+00  0.19782702132E+01  0.24803417932E+01  0.51100000000E-03 0. -1.
        -11    1    3    3    0    0  0.49892118005E+01 -0.84910641382E+01  0.35466215438E+01  0.10467517816E+02  0.51100000000E-03 0.  1.
         12    1    3    3    0    0  0.10325504903E+02 -0.20326132434E+02  0.24126838497E+02  0.33194458077E+02  0.00000000000E+00 0. -1.
</event>
<event>
 7    1  0.2243370E-008  0.4614232E+02  0.7816164E-02  0.1320468E+00
        -11   -1    0    0    0    0  0.00000000000E+00  0.00000000000E+00  0.45593999997E+02  0.45594000000E+02  0.51100000000E-03 0.  1.
         11   -1    0    0    0    0 -0.00000000000E+00 -0.00000000000E+00 -0.45593999997E+02  0.45594000000E+02  0.51100000000E-03 0. -1.
    9900012    2    1    2    0    0  0.21169966858E+02  0.16464944651E+02  0.36191872802E+02  0.46142317010E+02  0.99999931547E+01 0.  0.
         12    1    1    2    0    0 -0.21169966858E+02 -0.16464944651E+02 -0.36191872802E+02  0.45045682990E+02  0.00000000000E+00 0. -1.
         11    1    3    3    0    0  0.49054194912E+01  0.63885174426E+01  0.80620689535E+01  0.11396194609E+02  0.51100000000E-03 0. -1.
        -11    1    3    3    0    0  0.14934190083E+02  0.11129119812E+02  0.24866045067E+02  0.31067789408E+02  0.51100000000E-03 0.  1.
        -12    1    3    3    0    0  0.13303572839E+01 -0.10526926040E+01  0.32637587816E+01  0.36783329927E+01  0.00000000000E+00 0.  1.
</event>
<event>
 7    1  0.2243370E-008  0.4614232E+02  0.7816164E-02  0.1320468E+00
        -11   -1    0    0    0    0  0.00000000000E+00  0.00000000000E+00  0.45593999997E+02  0.45594000000E+02  0.51100000000E-03 0. -1.
         11   -1    0    0    0    0 -0.00000000000E+00 -0.00000000000E+00 -0.45593999997E+02  0.45594000000E+02  0.51100000000E-03 0.  1.
    9900012    2    1    2    0    0  0.14740507251E+02 -0.18762832483E+02 -0.38207159316E+02  0.46142318078E+02  0.10000002890E+02 0.  0.
         12    1    1    2    0    0 -0.14740507251E+02  0.18762832483E+02  0.38207159316E+02  0.45045681922E+02  0.00000000000E+00 0. -1.
         11    1    3    3    0    0  0.40622475031E+01 -0.67836927413E+01 -0.93755414077E+01  0.12264628773E+02  0.51100000000E-03 0. -1.
        -11    1    3    3    0    0  0.50377337205E+01 -0.10661492074E+02 -0.16810962915E+02  0.20534231144E+02  0.51100000000E-03 0.  1.
         12    1    3    3    0    0  0.56405260271E+01 -0.13176476686E+01 -0.12020654993E+02  0.13343458161E+02  0.00000000000E+00 0. -1.
</event>
<event>
 7    1  0.2243370E-008  0.4614232E+02  0.7816164E-02  0.1320468E+00
        -11   -1    0    0    0    0  0.00000000000E+00  0.00000000000E+00  0.45593999997E+02  0.45594000000E+02  0.51100000000E-03 0. -1.
         11   -1    0    0    0    0 -0.00000000000E+00 -0.00000000000E+00 -0.45593999997E+02  0.45594000000E+02  0.51100000000E-03 0.  1.
    9900012    2    1    2    0    0  0.26200633943E+02 -0.63592076179E+01 -0.36086017476E+02  0.46142318766E+02  0.10000009165E+02 0.  0.
         12    1    1    2    0    0 -0.26200633943E+02  0.63592076179E+01  0.36086017476E+02  0.45045681234E+02  0.00000000000E+00 0. -1.
         11    1    3    3    0    0  0.46803534256E+01 -0.17973501908E+01 -0.11168755231E+02  0.12242437240E+02  0.51100000000E-03 0. -1.
        -11    1    3    3    0    0  0.31230626149E+01 -0.27371608914E+01 -0.70933346215E+01  0.82195478073E+01  0.51100000000E-03 0.  1.
         12    1    3    3    0    0  0.18397217903E+02 -0.18246965356E+01 -0.17823927623E+02  0.25680333719E+02  0.00000000000E+00 0. -1.
</event>
<event>
 7    1  0.2243370E-008  0.4614232E+02  0.7816164E-02  0.1320468E+00
        -11   -1    0    0    0    0  0.00000000000E+00  0.00000000000E+00  0.45593999997E+02  0.45594000000E+02  0.51100000000E-03 0.  1.
         11   -1    0    0    0    0 -0.00000000000E+00 -0.00000000000E+00 -0.45593999997E+02  0.45594000000E+02  0.51100000000E-03 0. -1.
    9900012    2    1    2    0    0 -0.28087206667E+02 -0.25163716520E+02  0.24637569286E+02  0.46142316214E+02  0.99999858939E+01 0.  0.
         12    1    1    2    0    0  0.28087206667E+02  0.25163716520E+02 -0.24637569286E+02  0.45045683786E+02  0.00000000000E+00 0. -1.
         11    1    3    3    0    0 -0.54688455785E+01 -0.62227223005E+01  0.27619220101E+01  0.87326260794E+01  0.51100000000E-03 0. -1.
        -11    1    3    3    0    0 -0.15351354669E+02 -0.10683054584E+02  0.17363010179E+02  0.25519911210E+02  0.51100000000E-03 0.  1.
        -12    1    3    3    0    0 -0.72670064193E+01 -0.82579396357E+01  0.45126370963E+01  0.11889778925E+02  0.00000000000E+00 0.  1.
</event>
<event>
 7    1  0.2243370E-008  0.4614232E+02  0.7816164E-02  0.1320468E+00
        -11   -1    0    0    0    0  0.00000000000E+00  0.00000000000E+00  0.45593999997E+02  0.45594000000E+02  0.51100000000E-03 0.  1.
         11   -1    0    0    0    0 -0.00000000000E+00 -0.00000000000E+00 -0.45593999997E+02  0.45594000000E+02  0.51100000000E-03 0. -1.
    9900012    2    1    2    0    0 -0.10025737667E+02  0.40847520496E+02  0.16126941768E+02  0.46142316553E+02  0.99999889843E+01 0.  0.
         12    1    1    2    0    0  0.10025737667E+02 -0.40847520496E+02 -0.16126941768E+02  0.45045683447E+02  0.00000000000E+00 0. -1.
         11    1    3    3    0    0  0.39539673725E+00 -0.39835276057E+00  0.21433337093E-01  0.56167886799E+00  0.51100000000E-03 0. -1.
        -11    1    3    3    0    0 -0.29325530848E+01  0.17040952910E+02  0.70675473654E+01  0.18680047369E+02  0.51100000000E-03 0.  1.
         12    1    3    3    0    0 -0.74885813192E+01  0.24204920346E+02  0.90379610650E+01  0.26900590316E+02  0.00000000000E+00 0. -1.
</event>
<event>
 7    1  0.2243370E-008  0.4614232E+02  0.7816164E-02  0.1320468E+00
        -11   -1    0    0    0    0  0.00000000000E+00  0.00000000000E+00  0.45593999997E+02  0.45594000000E+02  0.51100000000E-03 0.  1.
         11   -1    0    0    0    0 -0.00000000000E+00 -0.00000000000E+00 -0.45593999997E+02  0.45594000000E+02  0.51100000000E-03 0. -1.
    9900012    2    1    2    0    0 -0.34851249521E+02  0.25820558123E+02  0.12157410242E+02  0.46142318312E+02  0.10000005027E+02 0.  0.
         12    1    1    2    0    0  0.34851249521E+02 -0.25820558123E+02 -0.12157410242E+02  0.45045681688E+02  0.00000000000E+00 0. -1.
         11    1    3    3    0    0 -0.10740731492E+02  0.31825858784E+01  0.42898452400E+01  0.11995621630E+02  0.51100000000E-03 0. -1.
        -11    1    3    3    0    0 -0.12475602185E+01  0.20258049004E+01  0.11364640985E+01  0.26366347684E+01  0.51100000000E-03 0.  1.
        -12    1    3    3    0    0 -0.22862957811E+02  0.20612167344E+02  0.67311009033E+01  0.31510061914E+02  0.00000000000E+00 0.  1.
</event>
<event>
 7    1  0.2243370E-008  0.4614232E+02  0.7816164E-02  0.1320468E+00
        -11   -1    0    0    0    0  0.00000000000E+00  0.00000000000E+00  0.45593999997E+02  0.45594000000E+02  0.51100000000E-03 0. -1.
         11   -1    0    0    0    0 -0.00000000000E+00 -0.00000000000E+00 -0.45593999997E+02  0.45594000000E+02  0.51100000000E-03 0.  1.
    9900012    2    1    2    0    0  0.89404336418E+01 -0.20091396928E+02 -0.39313076777E+02  0.46142316634E+02  0.99999897236E+01 0.  0.
         12    1    1    2    0    0 -0.89404336418E+01  0.20091396928E+02  0.39313076777E+02  0.45045683366E+02  0.00000000000E+00 0. -1.
         11    1    3    3    0    0 -0.10193241774E+01  0.44287509037E+00 -0.82977788365E+00  0.13869721416E+01  0.51100000000E-03 0. -1.
        -11    1    3    3    0    0  0.15570432670E+01 -0.38019906344E+01 -0.62818777206E+01  0.75060978196E+01  0.51100000000E-03 0.  1.
         12    1    3    3    0    0  0.84027145522E+01 -0.16732281384E+02 -0.32201421173E+02  0.37249246673E+02  0.00000000000E+00 0. -1.
</event>
<event>
 7    1  0.2243370E-008  0.4614231E+02  0.7816164E-02  0.1320468E+00
        -11   -1    0    0    0    0  0.00000000000E+00  0.00000000000E+00  0.45593999997E+02  0.45594000000E+02  0.51100000000E-03 0. -1.
         11   -1    0    0    0    0 -0.00000000000E+00 -0.00000000000E+00 -0.45593999997E+02  0.45594000000E+02  0.51100000000E-03 0.  1.
    9900012    2    1    2    0    0  0.22561240493E+02 -0.36864502419E+02 -0.12693019352E+02  0.46142313731E+02  0.99999632477E+01 0.  0.
         12    1    1    2    0    0 -0.22561240493E+02  0.36864502419E+02  0.12693019352E+02  0.45045686269E+02  0.00000000000E+00 0. -1.
         11    1    3    3    0    0  0.15038588359E+02 -0.17318662600E+02 -0.60691457678E+01  0.23726140535E+02  0.51100000000E-03 0. -1.
        -11    1    3    3    0    0  0.64476824831E+01 -0.15811590710E+02 -0.71162870059E+01  0.18499204069E+02  0.51100000000E-03 0.  1.
         12    1    3    3    0    0  0.10749696512E+01 -0.37342491092E+01  0.49241342152E+00  0.39169691265E+01  0.00000000000E+00 0. -1.
</event>
<event>
 7    1  0.2243370E-008  0.4614232E+02  0.7816164E-02  0.1320468E+00
        -11   -1    0    0    0    0  0.00000000000E+00  0.00000000000E+00  0.45593999997E+02  0.45594000000E+02  0.51100000000E-03 0. -1.
         11   -1    0    0    0    0 -0.00000000000E+00 -0.00000000000E+00 -0.45593999997E+02  0.45594000000E+02  0.51100000000E-03 0.  1.
    9900012    2    1    2    0    0 -0.34774453935E+02 -0.19365719621E+02 -0.21090749778E+02  0.46142317975E+02  0.10000001951E+02 0.  0.
         12    1    1    2    0    0  0.34774453935E+02  0.19365719621E+02  0.21090749778E+02  0.45045682025E+02  0.00000000000E+00 0. -1.
         11    1    3    3    0    0 -0.73336229679E+01 -0.43179972804E+01 -0.38272896286E+01  0.93314132108E+01  0.51100000000E-03 0. -1.
        -11    1    3    3    0    0 -0.14287576847E+02 -0.10060968855E+02 -0.50706635887E+01  0.18195317418E+02  0.51100000000E-03 0.  1.
         12    1    3    3    0    0 -0.13153254120E+02 -0.49867534858E+01 -0.12192796561E+02  0.18615587346E+02  0.00000000000E+00 0. -1.
</event>
<event>
 7    1  0.2243370E-008  0.4614232E+02  0.7816164E-02  0.1320468E+00
        -11   -1    0    0    0    0  0.00000000000E+00  0.00000000000E+00  0.45593999997E+02  0.45594000000E+02  0.51100000000E-03 0. -1.
         11   -1    0    0    0    0 -0.00000000000E+00 -0.00000000000E+00 -0.45593999997E+02  0.45594000000E+02  0.51100000000E-03 0.  1.
    9900012    2    1    2    0    0 -0.43829630780E+02  0.71127928444E+01  0.75818907365E+01  0.46142318482E+02  0.10000006570E+02 0.  0.
         12    1    1    2    0    0  0.43829630780E+02 -0.71127928444E+01 -0.75818907365E+01  0.45045681518E+02  0.00000000000E+00 0. -1.
         11    1    3    3    0    0 -0.15682590373E+02 -0.66617480707E-01  0.62247756145E+01  0.16872934256E+02  0.51100000000E-03 0. -1.
        -11    1    3    3    0    0 -0.15974073993E+02  0.32072664518E+01 -0.66305103361E+00  0.16306355661E+02  0.51100000000E-03 0.  1.
         12    1    3    3    0    0 -0.12172966413E+02  0.39721438733E+01  0.20201661556E+01  0.12963028564E+02  0.00000000000E+00 0. -1.
</event>
<event>
 7    1  0.2243370E-008  0.4614232E+02  0.7816164E-02  0.1320468E+00
        -11   -1    0    0    0    0  0.00000000000E+00  0.00000000000E+00  0.45593999997E+02  0.45594000000E+02  0.51100000000E-03 0.  1.
         11   -1    0    0    0    0 -0.00000000000E+00 -0.00000000000E+00 -0.45593999997E+02  0.45594000000E+02  0.51100000000E-03 0. -1.
    9900012    2    1    2    0    0  0.10104212379E+02  0.17710088920E+02  0.40166791699E+02  0.46142317490E+02  0.99999975318E+01 0.  0.
         12    1    1    2    0    0 -0.10104212379E+02 -0.17710088920E+02 -0.40166791699E+02  0.45045682510E+02  0.00000000000E+00 0. -1.
         11    1    3    3    0    0  0.85987995219E+01  0.69672120073E+01  0.18636542837E+02  0.21674919275E+02  0.51100000000E-03 0. -1.
        -11    1    3    3    0    0  0.17488346555E+01  0.14790136116E+01  0.32998757559E+01  0.40168500322E+01  0.51100000000E-03 0.  1.
         12    1    3    3    0    0 -0.24342179837E+00  0.92638633012E+01  0.18230373106E+02  0.20450548184E+02  0.00000000000E+00 0. -1.
</event>
<event>
 7    1  0.2243370E-008  0.4614232E+02  0.7816164E-02  0.1320468E+00
        -11   -1    0    0    0    0  0.00000000000E+00  0.00000000000E+00  0.45593999997E+02  0.45594000000E+02  0.51100000000E-03 0. -1.
         11   -1    0    0    0    0 -0.00000000000E+00 -0.00000000000E+00 -0.45593999997E+02  0.45594000000E+02  0.51100000000E-03 0.  1.
    9900012    2    1    2    0    0 -0.16229275070E+02 -0.92262636284E+01 -0.40995123436E+02  0.46142318128E+02  0.10000003344E+02 0.  0.
         12    1    1    2    0    0  0.16229275070E+02  0.92262636284E+01  0.40995123436E+02  0.45045681872E+02  0.00000000000E+00 0. -1.
         11    1    3    3    0    0 -0.34848146343E+01 -0.39987920727E+01 -0.14596677131E+02  0.15530526540E+02  0.51100000000E-03 0. -1.
        -11    1    3    3    0    0 -0.10755097445E+02 -0.36586244916E+01 -0.14363442440E+02  0.18313004484E+02  0.51100000000E-03 0.  1.
        -12    1    3    3    0    0 -0.19893629902E+01 -0.15688470641E+01 -0.12035003865E+02  0.12298787104E+02  0.00000000000E+00 0.  1.
</event>
<event>
 7    1  0.2243370E-008  0.4614232E+02  0.7816164E-02  0.1320468E+00
        -11   -1    0    0    0    0  0.00000000000E+00  0.00000000000E+00  0.45593999997E+02  0.45594000000E+02  0.51100000000E-03 0.  1.
         11   -1    0    0    0    0 -0.00000000000E+00 -0.00000000000E+00 -0.45593999997E+02  0.45594000000E+02  0.51100000000E-03 0. -1.
    9900012    2    1    2    0    0  0.26782144707E+02  0.36184469302E+02 -0.15856999735E+01  0.46142317208E+02  0.99999949562E+01 0.  0.
         12    1    1    2    0    0 -0.26782144707E+02 -0.36184469302E+02  0.15856999735E+01  0.45045682792E+02  0.00000000000E+00 0. -1.
         11    1    3    3    0    0  0.31132073680E+01  0.30521641667E+01 -0.25477273233E+00  0.43672274527E+01  0.51100000000E-03 0.  1.
        -11    1    3    3    0    0  0.22199427531E+02  0.24897140803E+02 -0.17158116766E+01  0.33400991195E+02  0.51100000000E-03 0. -1.
         12    1    3    3    0    0  0.14695098079E+01  0.82351643329E+01  0.38488443542E+00  0.83740985601E+01  0.00000000000E+00 0. -1.
</event>
<event>
 7    1  0.2243370E-008  0.4614232E+02  0.7816164E-02  0.1320468E+00
        -11   -1    0    0    0    0  0.00000000000E+00  0.00000000000E+00  0.45593999997E+02  0.45594000000E+02  0.51100000000E-03 0.  1.
         11   -1    0    0    0    0 -0.00000000000E+00 -0.00000000000E+00 -0.45593999997E+02  0.45594000000E+02  0.51100000000E-03 0. -1.
    9900012    2    1    2    0    0 -0.37195937291E+02  0.12795464246E+02  0.21951123548E+02  0.46142317840E+02  0.10000000719E+02 0.  0.
         12    1    1    2    0    0  0.37195937291E+02 -0.12795464246E+02 -0.21951123548E+02  0.45045682160E+02  0.00000000000E+00 0. -1.
         11    1    3    3    0    0 -0.14794158259E+02  0.82153337552E+01  0.74484258285E+01  0.18488858129E+02  0.51100000000E-03 0. -1.
        -11    1    3    3    0    0 -0.16586942785E+02  0.58234176887E+01  0.11321816747E+02  0.20909863683E+02  0.51100000000E-03 0.  1.
         12    1    3    3    0    0 -0.58148362469E+01 -0.12432871977E+01  0.31808809725E+01  0.67435960285E+01  0.00000000000E+00 0. -1.
</event>
<event>
 7    1  0.2243370E-008  0.4614232E+02  0.7816164E-02  0.1320468E+00
        -11   -1    0    0    0    0  0.00000000000E+00  0.00000000000E+00  0.45593999997E+02  0.45594000000E+02  0.51100000000E-03 0. -1.
         11   -1    0    0    0    0 -0.00000000000E+00 -0.00000000000E+00 -0.45593999997E+02  0.45594000000E+02  0.51100000000E-03 0.  1.
    9900012    2    1    2    0    0  0.29529709781E+02  0.21165756820E+01 -0.33950402064E+02  0.46142318157E+02  0.10000003610E+02 0.  0.
         12    1    1    2    0    0 -0.29529709781E+02 -0.21165756820E+01  0.33950402064E+02  0.45045681843E+02  0.00000000000E+00 0. -1.
         11    1    3    3    0    0  0.15424284016E+02 -0.11263434917E+01 -0.20285341218E+02  0.25508278179E+02  0.51100000000E-03 0. -1.
        -11    1    3    3    0    0  0.14267564120E+02  0.22416921879E+01 -0.12653354538E+02  0.19201457004E+02  0.51100000000E-03 0.  1.
        -12    1    3    3    0    0 -0.16213835385E+00  0.10012269857E+01 -0.10117063080E+01  0.14325829736E+01  0.00000000000E+00 0.  1.
</event>
<event>
 7    1  0.2243370E-008  0.4614232E+02  0.7816164E-02  0.1320468E+00
        -11   -1    0    0    0    0  0.00000000000E+00  0.00000000000E+00  0.45593999997E+02  0.45594000000E+02  0.51100000000E-03 0. -1.
         11   -1    0    0    0    0 -0.00000000000E+00 -0.00000000000E+00 -0.45593999997E+02  0.45594000000E+02  0.51100000000E-03 0.  1.
    9900012    2    1    2    0    0 -0.10998504997E+02 -0.29630011769E+02 -0.32096866092E+02  0.46142317382E+02  0.99999965392E+01 0.  0.
         12    1    1    2    0    0  0.10998504997E+02  0.29630011769E+02  0.32096866092E+02  0.45045682618E+02  0.00000000000E+00 0. -1.
         11    1    3    3    0    0 -0.69721772873E+00 -0.50329117921E+01 -0.11469894708E+01  0.52088289255E+01  0.51100000000E-03 0. -1.
        -11    1    3    3    0    0 -0.82247634354E+00 -0.28180017102E+01 -0.23771260445E+01  0.37773442347E+01  0.51100000000E-03 0.  1.
         12    1    3    3    0    0 -0.94788109245E+01 -0.21779098267E+02 -0.28572750577E+02  0.37156144221E+02  0.00000000000E+00 0. -1.
</event>
<event>
 7    1  0.2243370E-008  0.4614232E+02  0.7816164E-02  0.1320468E+00
        -11   -1    0    0    0    0  0.00000000000E+00  0.00000000000E+00  0.45593999997E+02  0.45594000000E+02  0.51100000000E-03 0.  1.
         11   -1    0    0    0    0 -0.00000000000E+00 -0.00000000000E+00 -0.45593999997E+02  0.45594000000E+02  0.51100000000E-03 0. -1.
    9900012    2    1    2    0    0  0.10699678999E+02  0.39404754766E+01  0.43578698475E+02  0.46142318316E+02  0.10000005055E+02 0.  0.
         12    1    1    2    0    0 -0.10699678999E+02 -0.39404754766E+01 -0.43578698475E+02  0.45045681684E+02  0.00000000000E+00 0. -1.
         11    1    3    3    0    0  0.22523676313E+01 -0.18752654800E+01  0.13693015495E+02  0.14003158721E+02  0.51100000000E-03 0. -1.
        -11    1    3    3    0    0  0.77527334922E+01  0.69044159762E+01  0.24657348546E+02  0.26753703933E+02  0.51100000000E-03 0.  1.
        -12    1    3    3    0    0  0.69457787594E+00 -0.10886750196E+01  0.52283344343E+01  0.53854556614E+01  0.00000000000E+00 0.  1.
</event>
<event>
 7    1  0.2243370E-008  0.4614232E+02  0.7816164E-02  0.1320468E+00
        -11   -1    0    0    0    0  0.00000000000E+00  0.00000000000E+00  0.45593999997E+02  0.45594000000E+02  0.51100000000E-03 0. -1.
         11   -1    0    0    0    0 -0.00000000000E+00 -0.00000000000E+00 -0.45593999997E+02  0.45594000000E+02  0.51100000000E-03 0.  1.
    9900012    2    1    2    0    0  0.10137971322E+02 -0.24153640318E+02 -0.36646098192E+02  0.46142319676E+02  0.10000017464E+02 0.  0.
         12    1    1    2    0    0 -0.10137971322E+02  0.24153640318E+02  0.36646098192E+02  0.45045680324E+02  0.00000000000E+00 0. -1.
         11    1    3    3    0    0  0.60035399569E+01 -0.14130457363E+02 -0.16138283934E+02  0.22274571284E+02  0.51100000000E-03 0. -1.
        -11    1    3    3    0    0 -0.92289289771E+00 -0.42481372434E+01 -0.54995660148E+01  0.70102516326E+01  0.51100000000E-03 0.  1.
        -12    1    3    3    0    0  0.50573242633E+01 -0.57750457118E+01 -0.15008248243E+02  0.16857496759E+02  0.00000000000E+00 0.  1.
</event>
<event>
 7    1  0.2243370E-008  0.4614232E+02  0.7816164E-02  0.1320468E+00
        -11   -1    0    0    0    0  0.00000000000E+00  0.00000000000E+00  0.45593999997E+02  0.45594000000E+02  0.51100000000E-03 0. -1.
         11   -1    0    0    0    0 -0.00000000000E+00 -0.00000000000E+00 -0.45593999997E+02  0.45594000000E+02  0.51100000000E-03 0.  1.
    9900012    2    1    2    0    0  0.33317657229E+02 -0.20204814198E+02 -0.22601153524E+02  0.46142323841E+02  0.10000055444E+02 0.  0.
         12    1    1    2    0    0 -0.33317657229E+02  0.20204814198E+02  0.22601153524E+02  0.45045676159E+02  0.00000000000E+00 0. -1.
         11    1    3    3    0    0  0.21103328747E+01 -0.12664469880E+01  0.17908608723E+00  0.24676841174E+01  0.51100000000E-03 0. -1.
        -11    1    3    3    0    0  0.19321111566E+02 -0.15668548203E+02 -0.16380272710E+02  0.29784594831E+02  0.51100000000E-03 0.  1.
         12    1    3    3    0    0  0.11886212789E+02 -0.32698190061E+01 -0.63999669008E+01  0.13890044893E+02  0.00000000000E+00 0. -1.
</event>
<event>
 7    1  0.2243370E-008  0.4614232E+02  0.7816164E-02  0.1320468E+00
        -11   -1    0    0    0    0  0.00000000000E+00  0.00000000000E+00  0.45593999997E+02  0.45594000000E+02  0.51100000000E-03 0.  1.
         11   -1    0    0    0    0 -0.00000000000E+00 -0.00000000000E+00 -0.45593999997E+02  0.45594000000E+02  0.51100000000E-03 0. -1.
    9900012    2    1    2    0    0 -0.12078802468E+02  0.43396024274E+02 -0.34837203690E-01  0.46142316461E+02  0.99999881427E+01 0.  0.
         12    1    1    2    0    0  0.12078802468E+02 -0.43396024274E+02  0.34837203690E-01  0.45045683539E+02  0.00000000000E+00 0. -1.
         11    1    3    3    0    0 -0.20006431958E+00  0.23179059066E+00 -0.41624164580E+00  0.51673008302E+00  0.51100000000E-03 0. -1.
        -11    1    3    3    0    0 -0.13163182061E+02  0.41359469110E+02  0.21479153907E+00  0.43404160892E+02  0.51100000000E-03 0.  1.
        -12    1    3    3    0    0  0.12844439126E+01  0.18047645736E+01  0.16661290304E+00  0.22214254861E+01  0.00000000000E+00 0.  1.
</event>
<event>
 7    1  0.2243370E-008  0.4614232E+02  0.7816164E-02  0.1320468E+00
        -11   -1    0    0    0    0  0.00000000000E+00  0.00000000000E+00  0.45593999997E+02  0.45594000000E+02  0.51100000000E-03 0.  1.
         11   -1    0    0    0    0 -0.00000000000E+00 -0.00000000000E+00 -0.45593999997E+02  0.45594000000E+02  0.51100000000E-03 0. -1.
    9900012    2    1    2    0    0  0.17462263202E+02 -0.12537343688E+02  0.39585323925E+02  0.46142317708E+02  0.99999995157E+01 0.  0.
         12    1    1    2    0    0 -0.17462263202E+02  0.12537343688E+02 -0.39585323925E+02  0.45045682292E+02  0.00000000000E+00 0. -1.
         11    1    3    3    0    0  0.89201437971E+01 -0.10523538751E+02  0.21424950520E+02  0.25482196496E+02  0.51100000000E-03 0.  1.
        -11    1    3    3    0    0 -0.30861513375E+00 -0.20933648091E+00 -0.49184037976E-02  0.37294706707E+00  0.51100000000E-03 0. -1.
        -12    1    3    3    0    0  0.88507345383E+01 -0.18044684555E+01  0.18165291809E+02  0.20287174145E+02  0.00000000000E+00 0.  1.
</event>
<event>
 7    1  0.2243370E-008  0.4614232E+02  0.7816164E-02  0.1320468E+00
        -11   -1    0    0    0    0  0.00000000000E+00  0.00000000000E+00  0.45593999997E+02  0.45594000000E+02  0.51100000000E-03 0. -1.
         11   -1    0    0    0    0 -0.00000000000E+00 -0.00000000000E+00 -0.45593999997E+02  0.45594000000E+02  0.51100000000E-03 0.  1.
    9900012    2    1    2    0    0 -0.22000310795E+02  0.21619711313E+02 -0.32828156241E+02  0.46142318359E+02  0.10000005454E+02 0.  0.
         12    1    1    2    0    0  0.22000310795E+02 -0.21619711313E+02  0.32828156241E+02  0.45045681641E+02  0.00000000000E+00 0. -1.
         11    1    3    3    0    0 -0.69333509969E+00 -0.27850190671E-01  0.78651121657E-01  0.69833763585E+00  0.51100000000E-03 0. -1.
        -11    1    3    3    0    0 -0.20541680035E-01  0.31208766589E+01 -0.33864702769E+01  0.46052659291E+01  0.51100000000E-03 0.  1.
        -12    1    3    3    0    0 -0.21286434015E+02  0.18526684844E+02 -0.29520337086E+02  0.40838714794E+02  0.00000000000E+00 0.  1.
</event>
<event>
 7    1  0.2243370E-008  0.4614232E+02  0.7816164E-02  0.1320468E+00
        -11   -1    0    0    0    0  0.00000000000E+00  0.00000000000E+00  0.45593999997E+02  0.45594000000E+02  0.51100000000E-03 0.  1.
         11   -1    0    0    0    0 -0.00000000000E+00 -0.00000000000E+00 -0.45593999997E+02  0.45594000000E+02  0.51100000000E-03 0. -1.
    9900012    2    1    2    0    0  0.11920518926E+02  0.13962003540E+02  0.41134865453E+02  0.46142317963E+02  0.10000001842E+02 0.  0.
         12    1    1    2    0    0 -0.11920518926E+02 -0.13962003540E+02 -0.41134865453E+02  0.45045682037E+02  0.00000000000E+00 0. -1.
         11    1    3    3    0    0  0.71637810161E+01  0.46992332127E+01  0.13814797224E+02  0.16255804312E+02  0.51100000000E-03 0. -1.
        -11    1    3    3    0    0  0.12083006075E+01 -0.36492045028E+00  0.91815843693E+00  0.15608242917E+01  0.51100000000E-03 0.  1.
        -12    1    3    3    0    0  0.35484373023E+01  0.96276907773E+01  0.26401909793E+02  0.28325689360E+02  0.00000000000E+00 0.  1.
</event>
<event>
 7    1  0.2243370E-008  0.4614232E+02  0.7816164E-02  0.1320468E+00
        -11   -1    0    0    0    0  0.00000000000E+00  0.00000000000E+00  0.45593999997E+02  0.45594000000E+02  0.51100000000E-03 0.  1.
         11   -1    0    0    0    0 -0.00000000000E+00 -0.00000000000E+00 -0.45593999997E+02  0.45594000000E+02  0.51100000000E-03 0. -1.
    9900012    2    1    2    0    0 -0.41387023352E+02  0.39646323587E+01  0.17335210046E+02  0.46142317421E+02  0.99999968978E+01 0.  0.
         12    1    1    2    0    0  0.41387023352E+02 -0.39646323587E+01 -0.17335210046E+02  0.45045682579E+02  0.00000000000E+00 0. -1.
         11    1    3    3    0    0 -0.86006505826E+01  0.25507669446E+01  0.73563986284E+01  0.11601474195E+02  0.51100000000E-03 0. -1.
        -11    1    3    3    0    0 -0.26248973185E+02 -0.32786425230E+00  0.87036563358E+01  0.27656278168E+02  0.51100000000E-03 0.  1.
         12    1    3    3    0    0 -0.65373995845E+01  0.17417296664E+01  0.12751550815E+01  0.68845650582E+01  0.00000000000E+00 0. -1.
</event>
<event>
 7    1  0.2243370E-008  0.4614232E+02  0.7816164E-02  0.1320468E+00
        -11   -1    0    0    0    0  0.00000000000E+00  0.00000000000E+00  0.45593999997E+02  0.45594000000E+02  0.51100000000E-03 0.  1.
         11   -1    0    0    0    0 -0.00000000000E+00 -0.00000000000E+00 -0.45593999997E+02  0.45594000000E+02  0.51100000000E-03 0. -1.
    9900012    2    1    2    0    0 -0.27727230103E+02 -0.20140742420E+02  0.29234649209E+02  0.46142317534E+02  0.99999979311E+01 0.  0.
         12    1    1    2    0    0  0.27727230103E+02  0.20140742420E+02 -0.29234649209E+02  0.45045682466E+02  0.00000000000E+00 0. -1.
         11    1    3    3    0    0 -0.10074837255E+02 -0.46591497213E+01  0.92111166741E+01  0.14424101098E+02  0.51100000000E-03 0. -1.
        -11    1    3    3    0    0 -0.12684842912E+02 -0.13967629013E+02  0.12714389360E+02  0.22752045996E+02  0.51100000000E-03 0.  1.
         12    1    3    3    0    0 -0.49675499357E+01 -0.15139636862E+01  0.73091431755E+01  0.89661704404E+01  0.00000000000E+00 0. -1.
</event>
<event>
 7    1  0.2243370E-008  0.4614232E+02  0.7816164E-02  0.1320468E+00
        -11   -1    0    0    0    0  0.00000000000E+00  0.00000000000E+00  0.45593999997E+02  0.45594000000E+02  0.51100000000E-03 0.  1.
         11   -1    0    0    0    0 -0.00000000000E+00 -0.00000000000E+00 -0.45593999997E+02  0.45594000000E+02  0.51100000000E-03 0. -1.
    9900012    2    1    2    0    0  0.81251763630E+01 -0.19014890506E+02  0.40019107001E+02  0.46142317887E+02  0.10000001145E+02 0.  0.
         12    1    1    2    0    0 -0.81251763630E+01  0.19014890506E+02 -0.40019107001E+02  0.45045682113E+02  0.00000000000E+00 0. -1.
         11    1    3    3    0    0  0.16684025472E+01 -0.71844180129E+01  0.86676912941E+01  0.11381050122E+02  0.51100000000E-03 0. -1.
        -11    1    3    3    0    0  0.45311957049E+00  0.33666287756E+00  0.58324072538E+01  0.58596615835E+01  0.51100000000E-03 0.  1.
         12    1    3    3    0    0  0.60036542452E+01 -0.12167135370E+02  0.25519008453E+02  0.28901606181E+02  0.00000000000E+00 0. -1.
</event>
<event>
 7    1  0.2243370E-008  0.4614232E+02  0.7816164E-02  0.1320468E+00
        -11   -1    0    0    0    0  0.00000000000E+00  0.00000000000E+00  0.45593999997E+02  0.45594000000E+02  0.51100000000E-03 0.  1.
         11   -1    0    0    0    0 -0.00000000000E+00 -0.00000000000E+00 -0.45593999997E+02  0.45594000000E+02  0.51100000000E-03 0. -1.
    9900012    2    1    2    0    0 -0.61665917462E+01  0.37506516747E+02  0.24173286691E+02  0.46142318279E+02  0.10000004719E+02 0.  0.
         12    1    1    2    0    0  0.61665917462E+01 -0.37506516747E+02 -0.24173286691E+02  0.45045681721E+02  0.00000000000E+00 0. -1.
         11    1    3    3    0    0 -0.19260934569E+01  0.95059442509E+00  0.13827142812E+01  0.25544793619E+01  0.51100000000E-03 0. -1.
        -11    1    3    3    0    0 -0.16629972148E+01  0.49057922861E+01  0.49482897606E+01  0.71636533631E+01  0.51100000000E-03 0.  1.
        -12    1    3    3    0    0 -0.25775010746E+01  0.31650130036E+02  0.17842282650E+02  0.36424185554E+02  0.00000000000E+00 0.  1.
</event>
<event>
 7    1  0.2243370E-008  0.4614232E+02  0.7816164E-02  0.1320468E+00
        -11   -1    0    0    0    0  0.00000000000E+00  0.00000000000E+00  0.45593999997E+02  0.45594000000E+02  0.51100000000E-03 0.  1.
         11   -1    0    0    0    0 -0.00000000000E+00 -0.00000000000E+00 -0.45593999997E+02  0.45594000000E+02  0.51100000000E-03 0. -1.
    9900012    2    1    2    0    0 -0.44522185867E+02 -0.68417293857E+01  0.28140116380E+00  0.46142317832E+02  0.10000000650E+02 0.  0.
         12    1    1    2    0    0  0.44522185867E+02  0.68417293857E+01 -0.28140116380E+00  0.45045682168E+02  0.00000000000E+00 0. -1.
         11    1    3    3    0    0 -0.19219324227E+02 -0.44743610818E+01 -0.15380517062E+01  0.19793128458E+02  0.51100000000E-03 0. -1.
        -11    1    3    3    0    0 -0.35536010520E+01 -0.26173632817E+01  0.12660011010E+01  0.45914518438E+01  0.51100000000E-03 0.  1.
         12    1    3    3    0    0 -0.21749260588E+02  0.24999497783E+00  0.55345176902E+00  0.21757737531E+02  0.00000000000E+00 0. -1.
</event>
<event>
 7    1  0.2243370E-008  0.4614232E+02  0.7816164E-02  0.1320468E+00
        -11   -1    0    0    0    0  0.00000000000E+00  0.00000000000E+00  0.45593999997E+02  0.45594000000E+02  0.51100000000E-03 0.  1.
         11   -1    0    0    0    0 -0.00000000000E+00 -0.00000000000E+00 -0.45593999997E+02  0.45594000000E+02  0.51100000000E-03 0. -1.
    9900012    2    1    2    0    0  0.95905659529E+01  0.20075805389E+02  0.39167544537E+02  0.46142318050E+02  0.10000002630E+02 0.  0.
         12    1    1    2    0    0 -0.95905659529E+01 -0.20075805389E+02 -0.39167544537E+02  0.45045681950E+02  0.00000000000E+00 0. -1.
         11    1    3    3    0    0 -0.36274967138E+00  0.57135986983E+01  0.14060517184E+02  0.15181401159E+02  0.51100000000E-03 0. -1.
        -11    1    3    3    0    0  0.17058392560E+01  0.14565315356E+01  0.64127154530E+01  0.67936949758E+01  0.51100000000E-03 0.  1.
         12    1    3    3    0    0  0.82474763683E+01  0.12905675155E+02  0.18694311900E+02  0.24167221915E+02  0.00000000000E+00 0. -1.
</event>
<event>
 7    1  0.2243370E-008  0.4614232E+02  0.7816164E-02  0.1320468E+00
        -11   -1    0    0    0    0  0.00000000000E+00  0.00000000000E+00  0.45593999997E+02  0.45594000000E+02  0.51100000000E-03 0.  1.
         11   -1    0    0    0    0 -0.00000000000E+00 -0.00000000000E+00 -0.45593999997E+02  0.45594000000E+02  0.51100000000E-03 0. -1.
    9900012    2    1    2    0    0 -0.31851654210E+02 -0.25321240855E+01  0.31751752735E+02  0.46142319518E+02  0.10000016023E+02 0.  0.
         12    1    1    2    0    0  0.31851654210E+02  0.25321240855E+01 -0.31751752735E+02  0.45045680482E+02  0.00000000000E+00 0. -1.
         11    1    3    3    0    0 -0.25597368406E+02 -0.20571107708E+01  0.24493296816E+02  0.35487724120E+02  0.51100000000E-03 0. -1.
        -11    1    3    3    0    0 -0.61860314582E+01 -0.14824411136E+01  0.47150927355E+01  0.79181258276E+01  0.51100000000E-03 0.  1.
         12    1    3    3    0    0 -0.68254345746E-01  0.10074277989E+01  0.25433631841E+01  0.27364695708E+01  0.00000000000E+00 0. -1.
</event>
<event>
 7    1  0.2243370E-008  0.4614232E+02  0.7816164E-02  0.1320468E+00
        -11   -1    0    0    0    0  0.00000000000E+00  0.00000000000E+00  0.45593999997E+02  0.45594000000E+02  0.51100000000E-03 0.  1.
         11   -1    0    0    0    0 -0.00000000000E+00 -0.00000000000E+00 -0.45593999997E+02  0.45594000000E+02  0.51100000000E-03 0. -1.
    9900012    2    1    2    0    0 -0.22533783542E+02  0.38780388400E+02  0.41740892934E+01  0.46142323775E+02  0.10000054838E+02 0.  0.
         12    1    1    2    0    0  0.22533783542E+02 -0.38780388400E+02 -0.41740892934E+01  0.45045676225E+02  0.00000000000E+00 0. -1.
         11    1    3    3    0    0 -0.53464591552E+01  0.63292524930E+01  0.40277189995E+01  0.92123060750E+01  0.51100000000E-03 0. -1.
        -11    1    3    3    0    0 -0.10450805677E+02  0.15550563671E+02  0.68158729716E-01  0.18736168650E+02  0.51100000000E-03 0.  1.
        -12    1    3    3    0    0 -0.67365187092E+01  0.16900572236E+02  0.78211564097E-01  0.18193849050E+02  0.00000000000E+00 0.  1.
</event>
<event>
 7    1  0.2243370E-008  0.4614232E+02  0.7816164E-02  0.1320468E+00
        -11   -1    0    0    0    0  0.00000000000E+00  0.00000000000E+00  0.45593999997E+02  0.45594000000E+02  0.51100000000E-03 0. -1.
         11   -1    0    0    0    0 -0.00000000000E+00 -0.00000000000E+00 -0.45593999997E+02  0.45594000000E+02  0.51100000000E-03 0.  1.
    9900012    2    1    2    0    0  0.43993488770E+02  0.64375988614E+00  0.96577491292E+01  0.46142316531E+02  0.99999887856E+01 0.  0.
         12    1    1    2    0    0 -0.43993488770E+02 -0.64375988614E+00 -0.96577491292E+01  0.45045683469E+02  0.00000000000E+00 0. -1.
         11    1    3    3    0    0  0.15072612695E+02  0.12730310035E+01  0.89248101537E+00  0.15152583410E+02  0.51100000000E-03 0. -1.
        -11    1    3    3    0    0  0.23025260732E+02  0.17584073866E+01  0.51009211112E+01  0.23648975131E+02  0.51100000000E-03 0.  1.
         12    1    3    3    0    0  0.58956153432E+01 -0.23876785039E+01  0.36643470026E+01  0.73407579900E+01  0.00000000000E+00 0. -1.
</event>
<event>
 7    1  0.2243370E-008  0.4614232E+02  0.7816164E-02  0.1320468E+00
        -11   -1    0    0    0    0  0.00000000000E+00  0.00000000000E+00  0.45593999997E+02  0.45594000000E+02  0.51100000000E-03 0.  1.
         11   -1    0    0    0    0 -0.00000000000E+00 -0.00000000000E+00 -0.45593999997E+02  0.45594000000E+02  0.51100000000E-03 0. -1.
    9900012    2    1    2    0    0  0.25180603449E+01 -0.27338647377E+02  0.35712340834E+02  0.46142317008E+02  0.99999931370E+01 0.  0.
         12    1    1    2    0    0 -0.25180603449E+01  0.27338647377E+02 -0.35712340834E+02  0.45045682992E+02  0.00000000000E+00 0. -1.
         11    1    3    3    0    0  0.19642358870E+01 -0.51712112736E+01  0.32688296359E+01  0.64253323732E+01  0.51100000000E-03 0. -1.
        -11    1    3    3    0    0  0.21811470534E-01 -0.74596518223E+00  0.41946716064E+01  0.42605410384E+01  0.51100000000E-03 0.  1.
        -12    1    3    3    0    0  0.53201298734E+00 -0.21421470921E+02  0.28248839592E+02  0.35456443597E+02  0.00000000000E+00 0.  1.
</event>
<event>
 7    1  0.2243370E-008  0.4614232E+02  0.7816164E-02  0.1320468E+00
        -11   -1    0    0    0    0  0.00000000000E+00  0.00000000000E+00  0.45593999997E+02  0.45594000000E+02  0.51100000000E-03 0.  1.
         11   -1    0    0    0    0 -0.00000000000E+00 -0.00000000000E+00 -0.45593999997E+02  0.45594000000E+02  0.51100000000E-03 0. -1.
    9900012    2    1    2    0    0 -0.24729848009E+01  0.73223578626E+01  0.44377708607E+02  0.46142316525E+02  0.99999887272E+01 0.  0.
         12    1    1    2    0    0  0.24729848009E+01 -0.73223578626E+01 -0.44377708607E+02  0.45045683475E+02  0.00000000000E+00 0. -1.
         11    1    3    3    0    0 -0.31577906492E+01  0.10093699089E+01  0.40285872765E+01  0.52172775566E+01  0.51100000000E-03 0. -1.
        -11    1    3    3    0    0  0.11402064957E+00  0.61853007932E+01  0.34842052437E+02  0.35386997116E+02  0.51100000000E-03 0.  1.
        -12    1    3    3    0    0  0.57078519875E+00  0.12768716055E+00  0.55070688938E+01  0.55380418521E+01  0.00000000000E+00 0.  1.
</event>
<event>
 7    1  0.2243370E-008  0.4614232E+02  0.7816164E-02  0.1320468E+00
        -11   -1    0    0    0    0  0.00000000000E+00  0.00000000000E+00  0.45593999997E+02  0.45594000000E+02  0.51100000000E-03 0.  1.
         11   -1    0    0    0    0 -0.00000000000E+00 -0.00000000000E+00 -0.45593999997E+02  0.45594000000E+02  0.51100000000E-03 0. -1.
    9900012    2    1    2    0    0 -0.71410858847E+01 -0.98561873456E+01  0.43370196654E+02  0.46142317694E+02  0.99999993926E+01 0.  0.
         12    1    1    2    0    0  0.71410858847E+01  0.98561873456E+01 -0.43370196654E+02  0.45045682306E+02  0.00000000000E+00 0. -1.
         11    1    3    3    0    0 -0.37749523452E+01 -0.17402798548E+01  0.12131035116E+02  0.12823449318E+02  0.51100000000E-03 0. -1.
        -11    1    3    3    0    0 -0.52079344939E+01 -0.62938537998E+01  0.17184392638E+02  0.19027310056E+02  0.51100000000E-03 0.  1.
         12    1    3    3    0    0  0.18418009544E+01 -0.18220536909E+01  0.14054768899E+02  0.14291558320E+02  0.00000000000E+00 0. -1.
</event>
<event>
 7    1  0.2243370E-008  0.4614232E+02  0.7816164E-02  0.1320468E+00
        -11   -1    0    0    0    0  0.00000000000E+00  0.00000000000E+00  0.45593999997E+02  0.45594000000E+02  0.51100000000E-03 0.  1.
         11   -1    0    0    0    0 -0.00000000000E+00 -0.00000000000E+00 -0.45593999997E+02  0.45594000000E+02  0.51100000000E-03 0. -1.
    9900012    2    1    2    0    0  0.27068964832E+02  0.18071864631E+02  0.31141490136E+02  0.46142317008E+02  0.99999931351E+01 0.  0.
         12    1    1    2    0    0 -0.27068964832E+02 -0.18071864631E+02 -0.31141490136E+02  0.45045682992E+02  0.00000000000E+00 0. -1.
         11    1    3    3    0    0  0.38394979884E+01  0.41893897967E+01  0.87778314493E+01  0.10456723047E+02  0.51100000000E-03 0. -1.
        -11    1    3    3    0    0  0.17333493610E+02  0.13180800093E+02  0.18742546752E+02  0.28730933692E+02  0.51100000000E-03 0.  1.
        -12    1    3    3    0    0  0.58959732337E+01  0.70167474164E+00  0.36211119346E+01  0.69546602691E+01  0.00000000000E+00 0.  1.
</event>
<event>
 7    1  0.2243370E-008  0.4614231E+02  0.7816164E-02  0.1320468E+00
        -11   -1    0    0    0    0  0.00000000000E+00  0.00000000000E+00  0.45593999997E+02  0.45594000000E+02  0.51100000000E-03 0. -1.
         11   -1    0    0    0    0 -0.00000000000E+00 -0.00000000000E+00 -0.45593999997E+02  0.45594000000E+02  0.51100000000E-03 0.  1.
    9900012    2    1    2    0    0 -0.41993745519E+02 -0.93375009493E+01 -0.13358529064E+02  0.46142313353E+02  0.99999598062E+01 0.  0.
         12    1    1    2    0    0  0.41993745519E+02  0.93375009493E+01  0.13358529064E+02  0.45045686647E+02  0.00000000000E+00 0. -1.
         11    1    3    3    0    0 -0.24112562228E+02 -0.21257298316E+01 -0.78580515822E+01  0.25449623955E+02  0.51100000000E-03 0. -1.
        -11    1    3    3    0    0 -0.73473150972E+01 -0.34860544524E+00 -0.15818932858E+01  0.75237591351E+01  0.51100000000E-03 0.  1.
        -12    1    3    3    0    0 -0.10533868194E+02 -0.68631656725E+01 -0.39185841963E+01  0.13168930263E+02  0.00000000000E+00 0.  1.
</event>
<event>
 7    1  0.2243370E-008  0.4614232E+02  0.7816164E-02  0.1320468E+00
        -11   -1    0    0    0    0  0.00000000000E+00  0.00000000000E+00  0.45593999997E+02  0.45594000000E+02  0.51100000000E-03 0. -1.
         11   -1    0    0    0    0 -0.00000000000E+00 -0.00000000000E+00 -0.45593999997E+02  0.45594000000E+02  0.51100000000E-03 0.  1.
    9900012    2    1    2    0    0  0.21612667376E-01  0.42753541554E+02 -0.14186184789E+02  0.46142316285E+02  0.99999865371E+01 0.  0.
         12    1    1    2    0    0 -0.21612667376E-01 -0.42753541554E+02  0.14186184789E+02  0.45045683715E+02  0.00000000000E+00 0. -1.
         11    1    3    3    0    0  0.36264362896E+01  0.33141701866E+02 -0.88063502339E+01  0.34482970397E+02  0.51100000000E-03 0. -1.
        -11    1    3    3    0    0 -0.11974664412E+01  0.29949139493E+01 -0.10438761436E+01  0.33901494223E+01  0.51100000000E-03 0.  1.
         12    1    3    3    0    0 -0.24073571810E+01  0.66169257391E+01 -0.43359584118E+01  0.82691964653E+01  0.00000000000E+00 0. -1.
</event>
<event>
 7    1  0.2243370E-008  0.4614232E+02  0.7816164E-02  0.1320468E+00
        -11   -1    0    0    0    0  0.00000000000E+00  0.00000000000E+00  0.45593999997E+02  0.45594000000E+02  0.51100000000E-03 0.  1.
         11   -1    0    0    0    0 -0.00000000000E+00 -0.00000000000E+00 -0.45593999997E+02  0.45594000000E+02  0.51100000000E-03 0. -1.
    9900012    2    1    2    0    0  0.20504761946E+02  0.39957532669E+02 -0.34733043217E+01  0.46142317384E+02  0.99999965614E+01 0.  0.
         12    1    1    2    0    0 -0.20504761946E+02 -0.39957532669E+02  0.34733043217E+01  0.45045682616E+02  0.00000000000E+00 0. -1.
         11    1    3    3    0    0  0.15124315775E+02  0.22176611979E+02 -0.55789231268E-01  0.26843065385E+02  0.51100000000E-03 0. -1.
        -11    1    3    3    0    0  0.59465048635E+01  0.15588484074E+02 -0.25672179979E+01  0.16880532110E+02  0.51100000000E-03 0.  1.
         12    1    3    3    0    0 -0.56605869267E+00  0.21924366160E+01 -0.85029709252E+00  0.24187198895E+01  0.00000000000E+00 0. -1.
</event>
<event>
 7    1  0.2243370E-008  0.4614232E+02  0.7816164E-02  0.1320468E+00
        -11   -1    0    0    0    0  0.00000000000E+00  0.00000000000E+00  0.45593999997E+02  0.45594000000E+02  0.51100000000E-03 0. -1.
         11   -1    0    0    0    0 -0.00000000000E+00 -0.00000000000E+00 -0.45593999997E+02  0.45594000000E+02  0.51100000000E-03 0.  1.
    9900012    2    1    2    0    0 -0.56694719957E+01 -0.42260489537E+02  0.14526583547E+02  0.46142317430E+02  0.99999969837E+01 0.  0.
         12    1    1    2    0    0  0.56694719957E+01  0.42260489537E+02 -0.14526583547E+02  0.45045682570E+02  0.00000000000E+00 0. -1.
         11    1    3    3    0    0 -0.17672369620E+01 -0.71255571708E+01  0.59088389159E+01  0.94239624930E+01  0.51100000000E-03 0. -1.
        -11    1    3    3    0    0 -0.84135478840E+00 -0.26780483555E+02  0.63220539851E+01  0.27529448672E+02  0.51100000000E-03 0.  1.
         12    1    3    3    0    0 -0.30608802453E+01 -0.83544488112E+01  0.22956906463E+01  0.91889062656E+01  0.00000000000E+00 0. -1.
</event>
<event>
 7    1  0.2243370E-008  0.4614232E+02  0.7816164E-02  0.1320468E+00
        -11   -1    0    0    0    0  0.00000000000E+00  0.00000000000E+00  0.45593999997E+02  0.45594000000E+02  0.51100000000E-03 0.  1.
         11   -1    0    0    0    0 -0.00000000000E+00 -0.00000000000E+00 -0.45593999997E+02  0.45594000000E+02  0.51100000000E-03 0. -1.
    9900012    2    1    2    0    0  0.93018765237E-01  0.44714424334E+02  0.54520649140E+01  0.46142318655E+02  0.10000008148E+02 0.  0.
         12    1    1    2    0    0 -0.93018765237E-01 -0.44714424334E+02 -0.54520649140E+01  0.45045681345E+02  0.00000000000E+00 0. -1.
         11    1    3    3    0    0 -0.45628510133E+00  0.69465529511E+01 -0.16138878765E+01  0.71461477969E+01  0.51100000000E-03 0. -1.
        -11    1    3    3    0    0 -0.25100871235E+01  0.11914888536E+02  0.70421875104E+00  0.12196763116E+02  0.51100000000E-03 0.  1.
        -12    1    3    3    0    0  0.30593909901E+01  0.25852982847E+02  0.63617340394E+01  0.26799407742E+02  0.00000000000E+00 0.  1.
</event>
<event>
 7    1  0.2243370E-008  0.4614232E+02  0.7816164E-02  0.1320468E+00
        -11   -1    0    0    0    0  0.00000000000E+00  0.00000000000E+00  0.45593999997E+02  0.45594000000E+02  0.51100000000E-03 0.  1.
         11   -1    0    0    0    0 -0.00000000000E+00 -0.00000000000E+00 -0.45593999997E+02  0.45594000000E+02  0.51100000000E-03 0. -1.
    9900012    2    1    2    0    0 -0.54862591749E+01 -0.81970130759E+01  0.43952512908E+02  0.46142318143E+02  0.10000003478E+02 0.  0.
         12    1    1    2    0    0  0.54862591749E+01  0.81970130759E+01 -0.43952512908E+02  0.45045681857E+02  0.00000000000E+00 0. -1.
         11    1    3    3    0    0 -0.28712642406E+01 -0.36302401583E+01  0.26193815078E+02  0.26599600572E+02  0.51100000000E-03 0. -1.
        -11    1    3    3    0    0 -0.16661256292E+01 -0.47672221773E+01  0.17866922210E+02  0.18566886961E+02  0.51100000000E-03 0.  1.
         12    1    3    3    0    0 -0.94886930505E+00  0.20044925969E+00 -0.10822438026E+00  0.97583061044E+00  0.00000000000E+00 0. -1.
</event>
<event>
 7    1  0.2243370E-008  0.4614232E+02  0.7816164E-02  0.1320468E+00
        -11   -1    0    0    0    0  0.00000000000E+00  0.00000000000E+00  0.45593999997E+02  0.45594000000E+02  0.51100000000E-03 0.  1.
         11   -1    0    0    0    0 -0.00000000000E+00 -0.00000000000E+00 -0.45593999997E+02  0.45594000000E+02  0.51100000000E-03 0. -1.
    9900012    2    1    2    0    0  0.28948729853E+02 -0.25829883738E+02  0.22888895254E+02  0.46142318964E+02  0.10000010969E+02 0.  0.
         12    1    1    2    0    0 -0.28948729853E+02  0.25829883738E+02 -0.22888895254E+02  0.45045681036E+02  0.00000000000E+00 0. -1.
         11    1    3    3    0    0 -0.80765603074E-01 -0.20953844201E+00  0.22158541905E+00  0.31548343915E+00  0.51100000000E-03 0. -1.
        -11    1    3    3    0    0  0.27116870069E+02 -0.25437687842E+02  0.19158457183E+02  0.41826392230E+02  0.51100000000E-03 0.  1.
        -12    1    3    3    0    0  0.19126253866E+01 -0.18265745415E+00  0.35088526528E+01  0.40004432947E+01  0.00000000000E+00 0.  1.
</event>
<event>
 7    1  0.2243370E-008  0.4614232E+02  0.7816164E-02  0.1320468E+00
        -11   -1    0    0    0    0  0.00000000000E+00  0.00000000000E+00  0.45593999997E+02  0.45594000000E+02  0.51100000000E-03 0.  1.
         11   -1    0    0    0    0 -0.00000000000E+00 -0.00000000000E+00 -0.45593999997E+02  0.45594000000E+02  0.51100000000E-03 0. -1.
    9900012    2    1    2    0    0  0.39057059778E+02  0.80701487647E+00  0.22427845394E+02  0.46142318293E+02  0.10000004847E+02 0.  0.
         12    1    1    2    0    0 -0.39057059778E+02 -0.80701487647E+00 -0.22427845394E+02  0.45045681707E+02  0.00000000000E+00 0. -1.
         11    1    3    3    0    0  0.11837957642E+01  0.38571680856E+00 -0.23911527447E+00  0.12678037086E+01  0.51100000000E-03 0. -1.
        -11    1    3    3    0    0  0.29098979875E+02  0.10837294178E+01  0.13268012386E+02  0.31999457060E+02  0.51100000000E-03 0.  1.
         12    1    3    3    0    0  0.87742841387E+01 -0.66243134988E+00  0.93989482819E+01  0.12875057524E+02  0.00000000000E+00 0. -1.
</event>
<event>
 7    1  0.2243370E-008  0.4614232E+02  0.7816164E-02  0.1320468E+00
        -11   -1    0    0    0    0  0.00000000000E+00  0.00000000000E+00  0.45593999997E+02  0.45594000000E+02  0.51100000000E-03 0.  1.
         11   -1    0    0    0    0 -0.00000000000E+00 -0.00000000000E+00 -0.45593999997E+02  0.45594000000E+02  0.51100000000E-03 0. -1.
    9900012    2    1    2    0    0  0.55416478237E-01  0.38015747559E+02  0.24164299996E+02  0.46142317324E+02  0.99999960161E+01 0.  0.
         12    1    1    2    0    0 -0.55416478237E-01 -0.38015747559E+02 -0.24164299996E+02  0.45045682676E+02  0.00000000000E+00 0. -1.
         11    1    3    3    0    0 -0.89398899371E+00  0.23718085507E+02  0.10956613849E+02  0.26141809114E+02  0.51100000000E-03 0. -1.
        -11    1    3    3    0    0 -0.20926872074E+00  0.76114685966E+01  0.41159874040E+01  0.86556109066E+01  0.51100000000E-03 0.  1.
         12    1    3    3    0    0  0.11586741927E+01  0.66861934552E+01  0.90916987431E+01  0.11344897304E+02  0.00000000000E+00 0. -1.
</event>
<event>
 7    1  0.2243370E-008  0.4614232E+02  0.7816164E-02  0.1320468E+00
        -11   -1    0    0    0    0  0.00000000000E+00  0.00000000000E+00  0.45593999997E+02  0.45594000000E+02  0.51100000000E-03 0.  1.
         11   -1    0    0    0    0 -0.00000000000E+00 -0.00000000000E+00 -0.45593999997E+02  0.45594000000E+02  0.51100000000E-03 0. -1.
    9900012    2    1    2    0    0  0.14537632436E+02 -0.17712967298E+02  0.38781716384E+02  0.46142317710E+02  0.99999995318E+01 0.  0.
         12    1    1    2    0    0 -0.14537632436E+02  0.17712967298E+02 -0.38781716384E+02  0.45045682290E+02  0.00000000000E+00 0. -1.
         11    1    3    3    0    0  0.18036971714E+01 -0.50717152160E+00  0.64775633838E+01  0.67430982560E+01  0.51100000000E-03 0. -1.
        -11    1    3    3    0    0  0.12153610883E+02 -0.17499273593E+02  0.32362627787E+02  0.38746283839E+02  0.51100000000E-03 0.  1.
        -12    1    3    3    0    0  0.58032438128E+00  0.29347781717E+00 -0.58474786775E-01  0.65293561503E+00  0.00000000000E+00 0.  1.
</event>
<event>
 7    1  0.2243370E-008  0.4614232E+02  0.7816164E-02  0.1320468E+00
        -11   -1    0    0    0    0  0.00000000000E+00  0.00000000000E+00  0.45593999997E+02  0.45594000000E+02  0.51100000000E-03 0.  1.
         11   -1    0    0    0    0 -0.00000000000E+00 -0.00000000000E+00 -0.45593999997E+02  0.45594000000E+02  0.51100000000E-03 0. -1.
    9900012    2    1    2    0    0  0.40540600671E+02  0.49891038197E+01  0.18991631419E+02  0.46142317370E+02  0.99999964337E+01 0.  0.
         12    1    1    2    0    0 -0.40540600671E+02 -0.49891038197E+01 -0.18991631419E+02  0.45045682630E+02  0.00000000000E+00 0. -1.
         11    1    3    3    0    0  0.20153515241E+02  0.24591126603E+01  0.74930711192E+01  0.21641569414E+02  0.51100000000E-03 0. -1.
        -11    1    3    3    0    0  0.38844794930E+01 -0.22037778432E+01  0.24547995760E+01  0.50962593078E+01  0.51100000000E-03 0.  1.
         12    1    3    3    0    0  0.16502605936E+02  0.47337690025E+01  0.90437607235E+01  0.19404488648E+02  0.00000000000E+00 0. -1.
</event>
<event>
 7    1  0.2243370E-008  0.4614232E+02  0.7816164E-02  0.1320468E+00
        -11   -1    0    0    0    0  0.00000000000E+00  0.00000000000E+00  0.45593999997E+02  0.45594000000E+02  0.51100000000E-03 0. -1.
         11   -1    0    0    0    0 -0.00000000000E+00 -0.00000000000E+00 -0.45593999997E+02  0.45594000000E+02  0.51100000000E-03 0.  1.
    9900012    2    1    2    0    0  0.33770303988E+02  0.20025067164E+02 -0.22083404122E+02  0.46142317809E+02  0.10000000441E+02 0.  0.
         12    1    1    2    0    0 -0.33770303988E+02 -0.20025067164E+02  0.22083404122E+02  0.45045682191E+02  0.00000000000E+00 0. -1.
         11    1    3    3    0    0  0.18380554183E+02  0.14418596703E+02 -0.97065621366E+01  0.25297392192E+02  0.51100000000E-03 0. -1.
        -11    1    3    3    0    0  0.60622683777E+01  0.37608302436E+01 -0.66029822791E+01  0.97208187538E+01  0.51100000000E-03 0.  1.
         12    1    3    3    0    0  0.93274814276E+01  0.18456402170E+01 -0.57738597067E+01  0.11124106863E+02  0.00000000000E+00 0. -1.
</event>
<event>
 7    1  0.2243370E-008  0.4614232E+02  0.7816164E-02  0.1320468E+00
        -11   -1    0    0    0    0  0.00000000000E+00  0.00000000000E+00  0.45593999997E+02  0.45594000000E+02  0.51100000000E-03 0.  1.
         11   -1    0    0    0    0 -0.00000000000E+00 -0.00000000000E+00 -0.45593999997E+02  0.45594000000E+02  0.51100000000E-03 0. -1.
    9900012    2    1    2    0    0  0.28284060529E+01  0.27291391501E+02  0.35725250504E+02  0.46142318138E+02  0.10000003433E+02 0.  0.
         12    1    1    2    0    0 -0.28284060529E+01 -0.27291391501E+02 -0.35725250504E+02  0.45045681862E+02  0.00000000000E+00 0. -1.
         11    1    3    3    0    0 -0.17008252583E+01  0.17861705427E+01  0.25793732898E+01  0.35688063265E+01  0.51100000000E-03 0. -1.
        -11    1    3    3    0    0 -0.99313538622E+00  0.11011630603E+02  0.16059620574E+02  0.19497531630E+02  0.51100000000E-03 0.  1.
        -12    1    3    3    0    0  0.55223666973E+01  0.14493590355E+02  0.17086256640E+02  0.23075980181E+02  0.00000000000E+00 0.  1.
</event>
<event>
 7    1  0.2243370E-008  0.4614232E+02  0.7816164E-02  0.1320468E+00
        -11   -1    0    0    0    0  0.00000000000E+00  0.00000000000E+00  0.45593999997E+02  0.45594000000E+02  0.51100000000E-03 0. -1.
         11   -1    0    0    0    0 -0.00000000000E+00 -0.00000000000E+00 -0.45593999997E+02  0.45594000000E+02  0.51100000000E-03 0.  1.
    9900012    2    1    2    0    0  0.89383652950E+01  0.46347461935E+01 -0.43906014936E+02  0.46142318809E+02  0.10000009556E+02 0.  0.
         12    1    1    2    0    0 -0.89383652950E+01 -0.46347461935E+01  0.43906014936E+02  0.45045681191E+02  0.00000000000E+00 0. -1.
         11    1    3    3    0    0  0.48375328977E+01  0.40467871017E+01 -0.28859860597E+02  0.29540984485E+02  0.51100000000E-03 0.  1.
        -11    1    3    3    0    0 -0.12475636773E+01 -0.77404318907E+00 -0.25890519022E+01  0.29763648972E+01  0.51100000000E-03 0. -1.
         12    1    3    3    0    0  0.53483960746E+01  0.13620022809E+01 -0.12457102436E+02  0.13624969427E+02  0.00000000000E+00 0. -1.
</event>
<event>
 7    1  0.2243370E-008  0.4614232E+02  0.7816164E-02  0.1320468E+00
        -11   -1    0    0    0    0  0.00000000000E+00  0.00000000000E+00  0.45593999997E+02  0.45594000000E+02  0.51100000000E-03 0.  1.
         11   -1    0    0    0    0 -0.00000000000E+00 -0.00000000000E+00 -0.45593999997E+02  0.45594000000E+02  0.51100000000E-03 0. -1.
    9900012    2    1    2    0    0 -0.38781894566E+02 -0.73005857312E+01  0.21720487556E+02  0.46142317878E+02  0.10000001067E+02 0.  0.
         12    1    1    2    0    0  0.38781894566E+02  0.73005857312E+01 -0.21720487556E+02  0.45045682122E+02  0.00000000000E+00 0. -1.
         11    1    3    3    0    0 -0.79549698680E+01  0.18074353536E+01  0.44831384325E+01  0.93084315877E+01  0.51100000000E-03 0. -1.
        -11    1    3    3    0    0 -0.30498176263E+02 -0.85767637161E+01  0.16102823771E+02  0.35538719235E+02  0.51100000000E-03 0.  1.
        -12    1    3    3    0    0 -0.32874843488E+00 -0.53125736868E+00  0.11345253523E+01  0.12951670550E+01  0.00000000000E+00 0.  1.
</event>
<event>
 7    1  0.2243370E-008  0.4614231E+02  0.7816164E-02  0.1320468E+00
        -11   -1    0    0    0    0  0.00000000000E+00  0.00000000000E+00  0.45593999997E+02  0.45594000000E+02  0.51100000000E-03 0.  1.
         11   -1    0    0    0    0 -0.00000000000E+00 -0.00000000000E+00 -0.45593999997E+02  0.45594000000E+02  0.51100000000E-03 0. -1.
    9900012    2    1    2    0    0 -0.83190148533E+01  0.48580522940E+01  0.44003490786E+02  0.46142313397E+02  0.99999602030E+01 0.  0.
         12    1    1    2    0    0  0.83190148533E+01 -0.48580522940E+01 -0.44003490786E+02  0.45045686603E+02  0.00000000000E+00 0. -1.
         11    1    3    3    0    0 -0.25881783262E+00  0.40113930645E+00  0.21489128353E+02  0.21494430373E+02  0.51100000000E-03 0. -1.
        -11    1    3    3    0    0 -0.64653706721E+00  0.20307647799E+01  0.35309178092E+01  0.41242449741E+01  0.51100000000E-03 0.  1.
         12    1    3    3    0    0 -0.74136599534E+01  0.24261482076E+01  0.18983444623E+02  0.20523638050E+02  0.00000000000E+00 0. -1.
</event>
<event>
 7    1  0.2243370E-008  0.4614232E+02  0.7816164E-02  0.1320468E+00
        -11   -1    0    0    0    0  0.00000000000E+00  0.00000000000E+00  0.45593999997E+02  0.45594000000E+02  0.51100000000E-03 0.  1.
         11   -1    0    0    0    0 -0.00000000000E+00 -0.00000000000E+00 -0.45593999997E+02  0.45594000000E+02  0.51100000000E-03 0. -1.
    9900012    2    1    2    0    0  0.46941920382E+01 -0.19339680576E+02  0.40411072598E+02  0.46142317940E+02  0.10000001635E+02 0.  0.
         12    1    1    2    0    0 -0.46941920382E+01  0.19339680576E+02 -0.40411072598E+02  0.45045682060E+02  0.00000000000E+00 0. -1.
         11    1    3    3    0    0 -0.11523122903E+00 -0.34221009153E+01  0.11414770607E+02  0.11917258124E+02  0.51100000000E-03 0. -1.
        -11    1    3    3    0    0  0.41925050176E+01 -0.16651798704E+02  0.26809515778E+02  0.31837236609E+02  0.51100000000E-03 0.  1.
        -12    1    3    3    0    0  0.61691824962E+00  0.73421904271E+00  0.21867862123E+01  0.23878232069E+01  0.00000000000E+00 0.  1.
</event>
<event>
 7    1  0.2243370E-008  0.4614232E+02  0.7816164E-02  0.1320468E+00
        -11   -1    0    0    0    0  0.00000000000E+00  0.00000000000E+00  0.45593999997E+02  0.45594000000E+02  0.51100000000E-03 0.  1.
         11   -1    0    0    0    0 -0.00000000000E+00 -0.00000000000E+00 -0.45593999997E+02  0.45594000000E+02  0.51100000000E-03 0. -1.
    9900012    2    1    2    0    0  0.27514344162E+01  0.44785696198E+02  0.39729721607E+01  0.46142317820E+02  0.10000000537E+02 0.  0.
         12    1    1    2    0    0 -0.27514344162E+01 -0.44785696198E+02 -0.39729721607E+01  0.45045682180E+02  0.00000000000E+00 0. -1.
         11    1    3    3    0    0  0.17314408003E+01  0.14652212414E+01  0.51067045966E+00  0.23249828195E+01  0.51100000000E-03 0. -1.
        -11    1    3    3    0    0  0.10815973064E+01  0.19607894108E+02  0.42469794149E+01  0.20091694765E+02  0.51100000000E-03 0.  1.
        -12    1    3    3    0    0 -0.61603690486E-01  0.23712580848E+02 -0.78467771384E+00  0.23725640236E+02  0.00000000000E+00 0.  1.
</event>
<event>
 7    1  0.2243370E-008  0.4614232E+02  0.7816164E-02  0.1320468E+00
        -11   -1    0    0    0    0  0.00000000000E+00  0.00000000000E+00  0.45593999997E+02  0.45594000000E+02  0.51100000000E-03 0.  1.
         11   -1    0    0    0    0 -0.00000000000E+00 -0.00000000000E+00 -0.45593999997E+02  0.45594000000E+02  0.51100000000E-03 0. -1.
    9900012    2    1    2    0    0 -0.48665554461E+01 -0.51039012318E+00  0.44779121338E+02  0.46142316880E+02  0.99999919618E+01 0.  0.
         12    1    1    2    0    0  0.48665554461E+01  0.51039012318E+00 -0.44779121338E+02  0.45045683120E+02  0.00000000000E+00 0. -1.
         11    1    3    3    0    0  0.14791009537E+01  0.28532844128E+00  0.10453722950E+02  0.10561698524E+02  0.51100000000E-03 0. -1.
        -11    1    3    3    0    0 -0.39835460171E+01 -0.14605109968E+01  0.72954275204E+01  0.84394901629E+01  0.51100000000E-03 0.  1.
        -12    1    3    3    0    0 -0.23621103826E+01  0.66479243238E+00  0.27029970868E+02  0.27141128192E+02  0.00000000000E+00 0.  1.
</event>
<event>
 7    1  0.2243370E-008  0.4614232E+02  0.7816164E-02  0.1320468E+00
        -11   -1    0    0    0    0  0.00000000000E+00  0.00000000000E+00  0.45593999997E+02  0.45594000000E+02  0.51100000000E-03 0.  1.
         11   -1    0    0    0    0 -0.00000000000E+00 -0.00000000000E+00 -0.45593999997E+02  0.45594000000E+02  0.51100000000E-03 0. -1.
    9900012    2    1    2    0    0  0.43150037363E+02  0.12264781772E+02 -0.40942286565E+01  0.46142319801E+02  0.10000018597E+02 0.  0.
         12    1    1    2    0    0 -0.43150037363E+02 -0.12264781772E+02  0.40942286565E+01  0.45045680199E+02  0.00000000000E+00 0. -1.
         11    1    3    3    0    0  0.21920862545E+02  0.52993274817E+01 -0.27005104424E+01  0.22713428701E+02  0.51100000000E-03 0. -1.
        -11    1    3    3    0    0  0.50376543279E+01  0.30108375566E+01 -0.31645098399E+01  0.66676252674E+01  0.51100000000E-03 0.  1.
        -12    1    3    3    0    0  0.16191520490E+02  0.39546167337E+01  0.17707916257E+01  0.16761265832E+02  0.00000000000E+00 0.  1.
</event>
<event>
 7    1  0.2243370E-008  0.4614232E+02  0.7816164E-02  0.1320468E+00
        -11   -1    0    0    0    0  0.00000000000E+00  0.00000000000E+00  0.45593999997E+02  0.45594000000E+02  0.51100000000E-03 0.  1.
         11   -1    0    0    0    0 -0.00000000000E+00 -0.00000000000E+00 -0.45593999997E+02  0.45594000000E+02  0.51100000000E-03 0. -1.
    9900012    2    1    2    0    0 -0.34882495636E+02  0.28339322337E+02 -0.30344299553E+01  0.46142318104E+02  0.10000003124E+02 0.  0.
         12    1    1    2    0    0  0.34882495636E+02 -0.28339322337E+02  0.30344299553E+01  0.45045681896E+02  0.00000000000E+00 0. -1.
         11    1    3    3    0    0 -0.67827502210E+00  0.20179487499E+01 -0.11676194784E+01  0.24280670646E+01  0.51100000000E-03 0. -1.
        -11    1    3    3    0    0 -0.19654276815E+02  0.10915598655E+02 -0.11607018600E+01  0.22511955050E+02  0.51100000000E-03 0.  1.
        -12    1    3    3    0    0 -0.14549943799E+02  0.15405774932E+02 -0.70610861691E+00  0.21202295989E+02  0.00000000000E+00 0.  1.
</event>
<event>
 7    1  0.2243370E-008  0.4614232E+02  0.7816164E-02  0.1320468E+00
        -11   -1    0    0    0    0  0.00000000000E+00  0.00000000000E+00  0.45593999997E+02  0.45594000000E+02  0.51100000000E-03 0.  1.
         11   -1    0    0    0    0 -0.00000000000E+00 -0.00000000000E+00 -0.45593999997E+02  0.45594000000E+02  0.51100000000E-03 0. -1.
    9900012    2    1    2    0    0  0.16264196170E+02 -0.22475771625E+02  0.35488436768E+02  0.46142317283E+02  0.99999956444E+01 0.  0.
         12    1    1    2    0    0 -0.16264196170E+02  0.22475771625E+02 -0.35488436768E+02  0.45045682717E+02  0.00000000000E+00 0. -1.
         11    1    3    3    0    0  0.14391751261E+02 -0.13721993382E+02  0.21082711431E+02  0.28980964930E+02  0.51100000000E-03 0. -1.
        -11    1    3    3    0    0  0.43346712613E-01 -0.81730978000E+00  0.32341992798E+01  0.33361533923E+01  0.51100000000E-03 0.  1.
        -12    1    3    3    0    0  0.18290981961E+01 -0.79364684630E+01  0.11171526057E+02  0.13825198961E+02  0.00000000000E+00 0.  1.
</event>
<event>
 7    1  0.2243370E-008  0.4614231E+02  0.7816164E-02  0.1320468E+00
        -11   -1    0    0    0    0  0.00000000000E+00  0.00000000000E+00  0.45593999997E+02  0.45594000000E+02  0.51100000000E-03 0.  1.
         11   -1    0    0    0    0 -0.00000000000E+00 -0.00000000000E+00 -0.45593999997E+02  0.45594000000E+02  0.51100000000E-03 0. -1.
    9900012    2    1    2    0    0 -0.41510112371E+02  0.35188594354E+01  0.17135983737E+02  0.46142314974E+02  0.99999745845E+01 0.  0.
         12    1    1    2    0    0  0.41510112371E+02 -0.35188594354E+01 -0.17135983737E+02  0.45045685026E+02  0.00000000000E+00 0. -1.
         11    1    3    3    0    0 -0.10189080952E+02  0.85035379922E+00  0.21990541472E+01  0.10458313039E+02  0.51100000000E-03 0. -1.
        -11    1    3    3    0    0 -0.10256402977E+02 -0.27280494179E+01  0.58319739688E+01  0.12109829738E+02  0.51100000000E-03 0.  1.
        -12    1    3    3    0    0 -0.21064628443E+02  0.53965550541E+01  0.91049556214E+01  0.23574172197E+02  0.00000000000E+00 0.  1.
</event>
<event>
 7    1  0.2243370E-008  0.4614232E+02  0.7816164E-02  0.1320468E+00
        -11   -1    0    0    0    0  0.00000000000E+00  0.00000000000E+00  0.45593999997E+02  0.45594000000E+02  0.51100000000E-03 0.  1.
         11   -1    0    0    0    0 -0.00000000000E+00 -0.00000000000E+00 -0.45593999997E+02  0.45594000000E+02  0.51100000000E-03 0. -1.
    9900012    2    1    2    0    0  0.17778580138E+02 -0.34375934553E+02  0.23050613696E+02  0.46142316746E+02  0.99999907396E+01 0.  0.
         12    1    1    2    0    0 -0.17778580138E+02  0.34375934553E+02 -0.23050613696E+02  0.45045683254E+02  0.00000000000E+00 0. -1.
         11    1    3    3    0    0  0.30413145224E+01 -0.12657833973E+02  0.68654618912E+01  0.14717503938E+02  0.51100000000E-03 0. -1.
        -11    1    3    3    0    0  0.12575970430E+02 -0.15974546398E+02  0.98025118080E+01  0.22570564966E+02  0.51100000000E-03 0.  1.
         12    1    3    3    0    0  0.21612951855E+01 -0.57435541819E+01  0.63826399970E+01  0.88542478421E+01  0.00000000000E+00 0. -1.
</event>
<event>
 7    1  0.2243370E-008  0.4614232E+02  0.7816164E-02  0.1320468E+00
        -11   -1    0    0    0    0  0.00000000000E+00  0.00000000000E+00  0.45593999997E+02  0.45594000000E+02  0.51100000000E-03 0.  1.
         11   -1    0    0    0    0 -0.00000000000E+00 -0.00000000000E+00 -0.45593999997E+02  0.45594000000E+02  0.51100000000E-03 0. -1.
    9900012    2    1    2    0    0  0.33560451634E+02 -0.21707910757E+02  0.20774413767E+02  0.46142316848E+02  0.99999916704E+01 0.  0.
         12    1    1    2    0    0 -0.33560451634E+02  0.21707910757E+02 -0.20774413767E+02  0.45045683152E+02  0.00000000000E+00 0. -1.
         11    1    3    3    0    0  0.11815762525E+02 -0.80125144021E+01  0.39682383954E+01  0.14817541878E+02  0.51100000000E-03 0. -1.
        -11    1    3    3    0    0  0.17130492170E+02 -0.11630002591E+02  0.10418836629E+02  0.23178931796E+02  0.51100000000E-03 0.  1.
        -12    1    3    3    0    0  0.46141969386E+01 -0.20653937643E+01  0.63873387423E+01  0.81458431730E+01  0.00000000000E+00 0.  1.
</event>
<event>
 7    1  0.2243370E-008  0.4614232E+02  0.7816164E-02  0.1320468E+00
        -11   -1    0    0    0    0  0.00000000000E+00  0.00000000000E+00  0.45593999997E+02  0.45594000000E+02  0.51100000000E-03 0.  1.
         11   -1    0    0    0    0 -0.00000000000E+00 -0.00000000000E+00 -0.45593999997E+02  0.45594000000E+02  0.51100000000E-03 0. -1.
    9900012    2    1    2    0    0  0.29139730848E+02 -0.12113994069E+01  0.34329611434E+02  0.46142316260E+02  0.99999863082E+01 0.  0.
         12    1    1    2    0    0 -0.29139730848E+02  0.12113994069E+01 -0.34329611434E+02  0.45045683740E+02  0.00000000000E+00 0. -1.
         11    1    3    3    0    0  0.15954635042E+02 -0.24489602172E+01  0.19605588745E+02  0.25395410920E+02  0.51100000000E-03 0. -1.
        -11    1    3    3    0    0  0.12624928521E+02  0.19101955680E+01  0.15116563412E+02  0.19787575822E+02  0.51100000000E-03 0.  1.
         12    1    3    3    0    0  0.56016728427E+00 -0.67263475762E+00 -0.39254072309E+00  0.95932951732E+00  0.00000000000E+00 0. -1.
</event>
<event>
 7    1  0.2243370E-008  0.4614232E+02  0.7816164E-02  0.1320468E+00
        -11   -1    0    0    0    0  0.00000000000E+00  0.00000000000E+00  0.45593999997E+02  0.45594000000E+02  0.51100000000E-03 0. -1.
         11   -1    0    0    0    0 -0.00000000000E+00 -0.00000000000E+00 -0.45593999997E+02  0.45594000000E+02  0.51100000000E-03 0.  1.
    9900012    2    1    2    0    0 -0.25594402658E+02 -0.17306630994E+00 -0.37067633554E+02  0.46142324773E+02  0.10000063936E+02 0.  0.
         12    1    1    2    0    0  0.25594402658E+02  0.17306630994E+00  0.37067633554E+02  0.45045675227E+02  0.00000000000E+00 0. -1.
         11    1    3    3    0    0 -0.66565826149E+01 -0.17630219736E+01 -0.65432919840E+01  0.94991056862E+01  0.51100000000E-03 0. -1.
        -11    1    3    3    0    0 -0.44211184631E+01  0.91644551544E+00 -0.13630828471E+02  0.14359165920E+02  0.51100000000E-03 0.  1.
        -12    1    3    3    0    0 -0.14516701581E+02  0.67351014819E+00 -0.16893513099E+02  0.22284053166E+02  0.00000000000E+00 0.  1.
</event>
<event>
 7    1  0.2243370E-008  0.4614232E+02  0.7816164E-02  0.1320468E+00
        -11   -1    0    0    0    0  0.00000000000E+00  0.00000000000E+00  0.45593999997E+02  0.45594000000E+02  0.51100000000E-03 0. -1.
         11   -1    0    0    0    0 -0.00000000000E+00 -0.00000000000E+00 -0.45593999997E+02  0.45594000000E+02  0.51100000000E-03 0.  1.
    9900012    2    1    2    0    0  0.26897283835E+02  0.17288260400E+01 -0.36092392704E+02  0.46142317319E+02  0.99999959645E+01 0.  0.
         12    1    1    2    0    0 -0.26897283835E+02 -0.17288260400E+01  0.36092392704E+02  0.45045682681E+02  0.00000000000E+00 0. -1.
         11    1    3    3    0    0  0.96141398329E+01 -0.52374761045E+00 -0.12028370811E+02  0.15407391113E+02  0.51100000000E-03 0.  1.
        -11    1    3    3    0    0  0.10230378296E+02  0.17153324737E+01 -0.77344228185E+01  0.12939254313E+02  0.51100000000E-03 0. -1.
         12    1    3    3    0    0  0.70527657055E+01  0.53724117672E+00 -0.16329599074E+02  0.17795671892E+02  0.00000000000E+00 0. -1.
</event>
<event>
 7    1  0.2243370E-008  0.4614232E+02  0.7816164E-02  0.1320468E+00
        -11   -1    0    0    0    0  0.00000000000E+00  0.00000000000E+00  0.45593999997E+02  0.45594000000E+02  0.51100000000E-03 0. -1.
         11   -1    0    0    0    0 -0.00000000000E+00 -0.00000000000E+00 -0.45593999997E+02  0.45594000000E+02  0.51100000000E-03 0.  1.
    9900012    2    1    2    0    0  0.12755653717E+01 -0.19216860992E+01 -0.44986592525E+02  0.46142318170E+02  0.10000003731E+02 0.  0.
         12    1    1    2    0    0 -0.12755653717E+01  0.19216860992E+01  0.44986592525E+02  0.45045681830E+02  0.00000000000E+00 0. -1.
         11    1    3    3    0    0 -0.14617233544E+01 -0.20577456813E+01 -0.24810448285E+02  0.24938510317E+02  0.51100000000E-03 0. -1.
        -11    1    3    3    0    0 -0.97419766745E+00 -0.20044051822E+01 -0.64130418588E+01  0.67892420323E+01  0.51100000000E-03 0.  1.
         12    1    3    3    0    0  0.37114863936E+01  0.21404647643E+01 -0.13763102381E+02  0.14414565821E+02  0.00000000000E+00 0. -1.
</event>
<event>
 7    1  0.2243370E-008  0.4614232E+02  0.7816164E-02  0.1320468E+00
        -11   -1    0    0    0    0  0.00000000000E+00  0.00000000000E+00  0.45593999997E+02  0.45594000000E+02  0.51100000000E-03 0. -1.
         11   -1    0    0    0    0 -0.00000000000E+00 -0.00000000000E+00 -0.45593999997E+02  0.45594000000E+02  0.51100000000E-03 0.  1.
    9900012    2    1    2    0    0  0.15766256484E+02  0.96341817021E+01 -0.41081883340E+02  0.46142318306E+02  0.10000004965E+02 0.  0.
         12    1    1    2    0    0 -0.15766256484E+02 -0.96341817021E+01  0.41081883340E+02  0.45045681694E+02  0.00000000000E+00 0. -1.
         11    1    3    3    0    0  0.29461088630E+01  0.30202475429E+01 -0.58642560592E+01  0.72243305601E+01  0.51100000000E-03 0. -1.
        -11    1    3    3    0    0  0.80531660005E+01  0.77050554951E+01 -0.19537850084E+02  0.22493308983E+02  0.51100000000E-03 0.  1.
         12    1    3    3    0    0  0.47669816200E+01 -0.10911213359E+01 -0.15679777196E+02  0.16424678763E+02  0.00000000000E+00 0. -1.
</event>
<event>
 7    1  0.2243370E-008  0.4614232E+02  0.7816164E-02  0.1320468E+00
        -11   -1    0    0    0    0  0.00000000000E+00  0.00000000000E+00  0.45593999997E+02  0.45594000000E+02  0.51100000000E-03 0.  1.
         11   -1    0    0    0    0 -0.00000000000E+00 -0.00000000000E+00 -0.45593999997E+02  0.45594000000E+02  0.51100000000E-03 0. -1.
    9900012    2    1    2    0    0 -0.12066013742E+02 -0.23898190413E+02  0.36227079897E+02  0.46142317516E+02  0.99999977606E+01 0.  0.
         12    1    1    2    0    0  0.12066013742E+02  0.23898190413E+02 -0.36227079897E+02  0.45045682484E+02  0.00000000000E+00 0. -1.
         11    1    3    3    0    0 -0.98102192155E+00 -0.52656893730E+01  0.94581335358E+01  0.10869506834E+02  0.51100000000E-03 0. -1.
        -11    1    3    3    0    0 -0.10937185216E+01 -0.25987780308E+01  0.41946687391E+00  0.28505824277E+01  0.51100000000E-03 0.  1.
        -12    1    3    3    0    0 -0.99912732984E+01 -0.16033723010E+02  0.26349479487E+02  0.32422228253E+02  0.00000000000E+00 0.  1.
</event>
<event>
 7    1  0.2243370E-008  0.4614232E+02  0.7816164E-02  0.1320468E+00
        -11   -1    0    0    0    0  0.00000000000E+00  0.00000000000E+00  0.45593999997E+02  0.45594000000E+02  0.51100000000E-03 0.  1.
         11   -1    0    0    0    0 -0.00000000000E+00 -0.00000000000E+00 -0.45593999997E+02  0.45594000000E+02  0.51100000000E-03 0. -1.
    9900012    2    1    2    0    0  0.35545581413E+02  0.23518644698E+02  0.14577324590E+02  0.46142318757E+02  0.10000009081E+02 0.  0.
         12    1    1    2    0    0 -0.35545581413E+02 -0.23518644698E+02 -0.14577324590E+02  0.45045681243E+02  0.00000000000E+00 0. -1.
         11    1    3    3    0    0  0.27805548492E+01  0.61038130823E+00  0.23988291469E+01  0.37226915193E+01  0.51100000000E-03 0. -1.
        -11    1    3    3    0    0  0.23918263009E+02  0.15813422559E+02  0.11986538182E+02  0.31077720898E+02  0.51100000000E-03 0.  1.
        -12    1    3    3    0    0  0.88467635555E+01  0.70948408310E+01  0.19195726104E+00  0.11341906340E+02  0.00000000000E+00 0.  1.
</event>
<event>
 7    1  0.2243370E-008  0.4614232E+02  0.7816164E-02  0.1320468E+00
        -11   -1    0    0    0    0  0.00000000000E+00  0.00000000000E+00  0.45593999997E+02  0.45594000000E+02  0.51100000000E-03 0. -1.
         11   -1    0    0    0    0 -0.00000000000E+00 -0.00000000000E+00 -0.45593999997E+02  0.45594000000E+02  0.51100000000E-03 0.  1.
    9900012    2    1    2    0    0  0.20129088217E+02 -0.23915699004E+02 -0.32434129021E+02  0.46142316781E+02  0.99999910650E+01 0.  0.
         12    1    1    2    0    0 -0.20129088217E+02  0.23915699004E+02  0.32434129021E+02  0.45045683219E+02  0.00000000000E+00 0. -1.
         11    1    3    3    0    0  0.81159172510E+01 -0.10487748474E+02 -0.98548506772E+01  0.16522078048E+02  0.51100000000E-03 0. -1.
        -11    1    3    3    0    0  0.11791945465E+02 -0.14073049278E+02 -0.22293502515E+02  0.28880805883E+02  0.51100000000E-03 0.  1.
         12    1    3    3    0    0  0.22122550048E+00  0.64509874751E+00 -0.28577582929E+00  0.73943285071E+00  0.00000000000E+00 0. -1.
</event>
<event>
 7    1  0.2243370E-008  0.4614232E+02  0.7816164E-02  0.1320468E+00
        -11   -1    0    0    0    0  0.00000000000E+00  0.00000000000E+00  0.45593999997E+02  0.45594000000E+02  0.51100000000E-03 0. -1.
         11   -1    0    0    0    0 -0.00000000000E+00 -0.00000000000E+00 -0.45593999997E+02  0.45594000000E+02  0.51100000000E-03 0.  1.
    9900012    2    1    2    0    0 -0.21016096022E+02 -0.20910868761E+02 -0.33914197615E+02  0.46142317363E+02  0.99999963693E+01 0.  0.
         12    1    1    2    0    0  0.21016096022E+02  0.20910868761E+02  0.33914197615E+02  0.45045682637E+02  0.00000000000E+00 0. -1.
         11    1    3    3    0    0 -0.94635431138E+00 -0.18916720573E+01 -0.59586261365E+00  0.21975127236E+01  0.51100000000E-03 0. -1.
        -11    1    3    3    0    0 -0.14562639946E+02 -0.10358297799E+02 -0.25017098289E+02  0.30744430757E+02  0.51100000000E-03 0.  1.
        -12    1    3    3    0    0 -0.55071017641E+01 -0.86608989044E+01 -0.83012367129E+01  0.13200373882E+02  0.00000000000E+00 0.  1.
</event>
<event>
 7    1  0.2243370E-008  0.4614232E+02  0.7816164E-02  0.1320468E+00
        -11   -1    0    0    0    0  0.00000000000E+00  0.00000000000E+00  0.45593999997E+02  0.45594000000E+02  0.51100000000E-03 0.  1.
         11   -1    0    0    0    0 -0.00000000000E+00 -0.00000000000E+00 -0.45593999997E+02  0.45594000000E+02  0.51100000000E-03 0. -1.
    9900012    2    1    2    0    0 -0.43074298401E+02  0.12138730046E+02 -0.51351345868E+01  0.46142316998E+02  0.99999930430E+01 0.  0.
         12    1    1    2    0    0  0.43074298401E+02 -0.12138730046E+02  0.51351345868E+01  0.45045683002E+02  0.00000000000E+00 0. -1.
         11    1    3    3    0    0 -0.12980340497E+02  0.72647380801E+01  0.25973464979E+00  0.14877268605E+02  0.51100000000E-03 0. -1.
        -11    1    3    3    0    0 -0.26937155735E+02  0.56741082707E+01 -0.50819277473E+01  0.27993425186E+02  0.51100000000E-03 0.  1.
         12    1    3    3    0    0 -0.31568021689E+01 -0.80011630436E+00 -0.31294148926E+00  0.32716232072E+01  0.00000000000E+00 0. -1.
</event>
<event>
 7    1  0.2243370E-008  0.4614232E+02  0.7816164E-02  0.1320468E+00
        -11   -1    0    0    0    0  0.00000000000E+00  0.00000000000E+00  0.45593999997E+02  0.45594000000E+02  0.51100000000E-03 0. -1.
         11   -1    0    0    0    0 -0.00000000000E+00 -0.00000000000E+00 -0.45593999997E+02  0.45594000000E+02  0.51100000000E-03 0.  1.
    9900012    2    1    2    0    0 -0.86430193415E+01  0.13255952160E+02 -0.42174534864E+02  0.46142318276E+02  0.10000004696E+02 0.  0.
         12    1    1    2    0    0  0.86430193415E+01 -0.13255952160E+02  0.42174534864E+02  0.45045681724E+02  0.00000000000E+00 0. -1.
         11    1    3    3    0    0 -0.11161378605E+00  0.34541438515E+01 -0.36535372405E+01  0.50291054883E+01  0.51100000000E-03 0. -1.
        -11    1    3    3    0    0 -0.42900446388E+01  0.62084934990E+01 -0.13346518761E+02  0.15332300474E+02  0.51100000000E-03 0.  1.
        -12    1    3    3    0    0 -0.42413609166E+01  0.35933148097E+01 -0.25174478862E+02  0.25780912313E+02  0.00000000000E+00 0.  1.
</event>
<event>
 7    1  0.2243370E-008  0.4614232E+02  0.7816164E-02  0.1320468E+00
        -11   -1    0    0    0    0  0.00000000000E+00  0.00000000000E+00  0.45593999997E+02  0.45594000000E+02  0.51100000000E-03 0. -1.
         11   -1    0    0    0    0 -0.00000000000E+00 -0.00000000000E+00 -0.45593999997E+02  0.45594000000E+02  0.51100000000E-03 0.  1.
    9900012    2    1    2    0    0 -0.15142817181E+02 -0.42338025388E+02 -0.27018878616E+01  0.46142317588E+02  0.99999984211E+01 0.  0.
         12    1    1    2    0    0  0.15142817181E+02  0.42338025388E+02  0.27018878616E+01  0.45045682412E+02  0.00000000000E+00 0. -1.
         11    1    3    3    0    0  0.50710787360E+00 -0.46842017893E+01  0.10764185436E+01  0.48329682329E+01  0.51100000000E-03 0. -1.
        -11    1    3    3    0    0 -0.23590512809E+01 -0.34986295622E+01  0.10346289444E+01  0.43446506273E+01  0.51100000000E-03 0.  1.
        -12    1    3    3    0    0 -0.13290873774E+02 -0.34155194037E+02 -0.48129353496E+01  0.36964698728E+02  0.00000000000E+00 0.  1.
</event>
<event>
 7    1  0.2243370E-008  0.4614232E+02  0.7816164E-02  0.1320468E+00
        -11   -1    0    0    0    0  0.00000000000E+00  0.00000000000E+00  0.45593999997E+02  0.45594000000E+02  0.51100000000E-03 0.  1.
         11   -1    0    0    0    0 -0.00000000000E+00 -0.00000000000E+00 -0.45593999997E+02  0.45594000000E+02  0.51100000000E-03 0. -1.
    9900012    2    1    2    0    0 -0.31983820471E+02 -0.15845379555E+02  0.27478584706E+02  0.46142318269E+02  0.10000004628E+02 0.  0.
         12    1    1    2    0    0  0.31983820471E+02  0.15845379555E+02 -0.27478584706E+02  0.45045681731E+02  0.00000000000E+00 0. -1.
         11    1    3    3    0    0 -0.45408271570E+01 -0.36569622886E+01  0.37197045053E+01  0.69158286790E+01  0.51100000000E-03 0. -1.
        -11    1    3    3    0    0 -0.55351474777E+01 -0.65370703913E+01  0.71895315199E+01  0.11183045678E+02  0.51100000000E-03 0.  1.
         12    1    3    3    0    0 -0.21907845837E+02 -0.56513468752E+01  0.16569348681E+02  0.28043443912E+02  0.00000000000E+00 0. -1.
</event>
<event>
 7    1  0.2243370E-008  0.4614232E+02  0.7816164E-02  0.1320468E+00
        -11   -1    0    0    0    0  0.00000000000E+00  0.00000000000E+00  0.45593999997E+02  0.45594000000E+02  0.51100000000E-03 0.  1.
         11   -1    0    0    0    0 -0.00000000000E+00 -0.00000000000E+00 -0.45593999997E+02  0.45594000000E+02  0.51100000000E-03 0. -1.
    9900012    2    1    2    0    0  0.38870874006E+02  0.22763046130E+02 -0.11139783727E+00  0.46142317359E+02  0.99999963290E+01 0.  0.
         12    1    1    2    0    0 -0.38870874006E+02 -0.22763046130E+02  0.11139783727E+00  0.45045682641E+02  0.00000000000E+00 0. -1.
         11    1    3    3    0    0  0.17618628410E+02  0.10519290231E+02 -0.17891297093E+01  0.20597876575E+02  0.51100000000E-03 0.  1.
        -11    1    3    3    0    0  0.16514368771E+02  0.72373017584E+01 -0.12098217534E+01  0.18071153300E+02  0.51100000000E-03 0. -1.
        -12    1    3    3    0    0  0.47378768254E+01  0.50064541406E+01  0.28875536254E+01  0.74732874837E+01  0.00000000000E+00 0.  1.
</event>
<event>
 7    1  0.2243370E-008  0.4614232E+02  0.7816164E-02  0.1320468E+00
        -11   -1    0    0    0    0  0.00000000000E+00  0.00000000000E+00  0.45593999997E+02  0.45594000000E+02  0.51100000000E-03 0. -1.
         11   -1    0    0    0    0 -0.00000000000E+00 -0.00000000000E+00 -0.45593999997E+02  0.45594000000E+02  0.51100000000E-03 0.  1.
    9900012    2    1    2    0    0  0.16967770659E+02  0.16093521059E+02 -0.38499439221E+02  0.46142317837E+02  0.10000000694E+02 0.  0.
         12    1    1    2    0    0 -0.16967770659E+02 -0.16093521059E+02  0.38499439221E+02  0.45045682163E+02  0.00000000000E+00 0. -1.
         11    1    3    3    0    0  0.27991580292E+01 -0.37550919033E+00 -0.80720161066E+01  0.85518265365E+01  0.51100000000E-03 0. -1.
        -11    1    3    3    0    0  0.42439420816E+01  0.31146349455E+01 -0.94315419995E+01  0.10801202710E+02  0.51100000000E-03 0.  1.
         12    1    3    3    0    0  0.99246705479E+01  0.13354395303E+02 -0.20995881115E+02  0.26789288591E+02  0.00000000000E+00 0. -1.
</event>
<event>
 7    1  0.2243370E-008  0.4614232E+02  0.7816164E-02  0.1320468E+00
        -11   -1    0    0    0    0  0.00000000000E+00  0.00000000000E+00  0.45593999997E+02  0.45594000000E+02  0.51100000000E-03 0.  1.
         11   -1    0    0    0    0 -0.00000000000E+00 -0.00000000000E+00 -0.45593999997E+02  0.45594000000E+02  0.51100000000E-03 0. -1.
    9900012    2    1    2    0    0 -0.26318736542E+02  0.34435208688E+02 -0.12274120670E+02  0.46142317312E+02  0.99999959089E+01 0.  0.
         12    1    1    2    0    0  0.26318736542E+02 -0.34435208688E+02  0.12274120670E+02  0.45045682688E+02  0.00000000000E+00 0. -1.
         11    1    3    3    0    0 -0.33853266561E+01  0.34983540356E+01 -0.41942418960E+01  0.64257748848E+01  0.51100000000E-03 0. -1.
        -11    1    3    3    0    0 -0.10134012185E+02  0.10140009273E+02 -0.14280064314E+01  0.14406845375E+02  0.51100000000E-03 0.  1.
        -12    1    3    3    0    0 -0.12799397700E+02  0.20796845379E+02 -0.66518723428E+01  0.25309697053E+02  0.00000000000E+00 0.  1.
</event>
<event>
 7    1  0.2243370E-008  0.4614232E+02  0.7816164E-02  0.1320468E+00
        -11   -1    0    0    0    0  0.00000000000E+00  0.00000000000E+00  0.45593999997E+02  0.45594000000E+02  0.51100000000E-03 0.  1.
         11   -1    0    0    0    0 -0.00000000000E+00 -0.00000000000E+00 -0.45593999997E+02  0.45594000000E+02  0.51100000000E-03 0. -1.
    9900012    2    1    2    0    0  0.31412135382E+02 -0.11676611022E+02  0.30100631439E+02  0.46142317552E+02  0.99999980939E+01 0.  0.
         12    1    1    2    0    0 -0.31412135382E+02  0.11676611022E+02 -0.30100631439E+02  0.45045682448E+02  0.00000000000E+00 0. -1.
         11    1    3    3    0    0  0.15929064146E+02 -0.17399703092E+01  0.17175746742E+02  0.23489760698E+02  0.51100000000E-03 0. -1.
        -11    1    3    3    0    0  0.12061827150E+02 -0.62914842167E+01  0.94862318603E+01  0.16584904070E+02  0.51100000000E-03 0.  1.
         12    1    3    3    0    0  0.34212440855E+01 -0.36451564965E+01  0.34386528358E+01  0.60676527836E+01  0.00000000000E+00 0. -1.
</event>
<event>
 7    1  0.2243370E-008  0.4614232E+02  0.7816164E-02  0.1320468E+00
        -11   -1    0    0    0    0  0.00000000000E+00  0.00000000000E+00  0.45593999997E+02  0.45594000000E+02  0.51100000000E-03 0. -1.
         11   -1    0    0    0    0 -0.00000000000E+00 -0.00000000000E+00 -0.45593999997E+02  0.45594000000E+02  0.51100000000E-03 0.  1.
    9900012    2    1    2    0    0  0.64515721475E+01  0.33172850029E+02 -0.29783429969E+02  0.46142318043E+02  0.10000002574E+02 0.  0.
         12    1    1    2    0    0 -0.64515721475E+01 -0.33172850029E+02  0.29783429969E+02  0.45045681957E+02  0.00000000000E+00 0. -1.
         11    1    3    3    0    0  0.49089485889E+00  0.24221580854E+01 -0.49198336361E+01  0.55056871343E+01  0.51100000000E-03 0. -1.
        -11    1    3    3    0    0  0.42220294400E+01  0.25803619195E+02 -0.23646573177E+02  0.35253549033E+02  0.51100000000E-03 0.  1.
        -12    1    3    3    0    0  0.17386478486E+01  0.49470727484E+01 -0.12170231557E+01  0.53830818757E+01  0.00000000000E+00 0.  1.
</event>
<event>
 7    1  0.2243370E-008  0.4614232E+02  0.7816164E-02  0.1320468E+00
        -11   -1    0    0    0    0  0.00000000000E+00  0.00000000000E+00  0.45593999997E+02  0.45594000000E+02  0.51100000000E-03 0.  1.
         11   -1    0    0    0    0 -0.00000000000E+00 -0.00000000000E+00 -0.45593999997E+02  0.45594000000E+02  0.51100000000E-03 0. -1.
    9900012    2    1    2    0    0  0.46410790328E+01 -0.18254194549E+02  0.40918923351E+02  0.46142317394E+02  0.99999966565E+01 0.  0.
         12    1    1    2    0    0 -0.46410790328E+01  0.18254194549E+02 -0.40918923351E+02  0.45045682606E+02  0.00000000000E+00 0. -1.
         11    1    3    3    0    0  0.62987509493E+00 -0.53040933981E+01  0.66510353359E+01  0.85303235995E+01  0.51100000000E-03 0. -1.
        -11    1    3    3    0    0  0.21060966289E+01 -0.95207013976E+01  0.14600526649E+02  0.17557185902E+02  0.51100000000E-03 0.  1.
        -12    1    3    3    0    0  0.19051073090E+01 -0.34293997534E+01  0.19667361366E+02  0.20054807893E+02  0.00000000000E+00 0.  1.
</event>
<event>
 7    1  0.2243370E-008  0.4614232E+02  0.7816164E-02  0.1320468E+00
        -11   -1    0    0    0    0  0.00000000000E+00  0.00000000000E+00  0.45593999997E+02  0.45594000000E+02  0.51100000000E-03 0.  1.
         11   -1    0    0    0    0 -0.00000000000E+00 -0.00000000000E+00 -0.45593999997E+02  0.45594000000E+02  0.51100000000E-03 0. -1.
    9900012    2    1    2    0    0  0.32988387180E+02  0.71364949753E+01  0.29832030064E+02  0.46142320218E+02  0.10000022408E+02 0.  0.
         12    1    1    2    0    0 -0.32988387180E+02 -0.71364949753E+01 -0.29832030064E+02  0.45045679782E+02  0.00000000000E+00 0. -1.
         11    1    3    3    0    0  0.38908563109E+01 -0.27257939600E+00  0.12402602584E+01  0.40928361962E+01  0.51100000000E-03 0. -1.
        -11    1    3    3    0    0  0.21230582097E+02  0.21076489739E+01  0.19257943102E+02  0.28741053794E+02  0.51100000000E-03 0.  1.
         12    1    3    3    0    0  0.78669487712E+01  0.53014253974E+01  0.93338267037E+01  0.13308430229E+02  0.00000000000E+00 0. -1.
</event>
<event>
 7    1  0.2243370E-008  0.4614232E+02  0.7816164E-02  0.1320468E+00
        -11   -1    0    0    0    0  0.00000000000E+00  0.00000000000E+00  0.45593999997E+02  0.45594000000E+02  0.51100000000E-03 0. -1.
         11   -1    0    0    0    0 -0.00000000000E+00 -0.00000000000E+00 -0.45593999997E+02  0.45594000000E+02  0.51100000000E-03 0.  1.
    9900012    2    1    2    0    0  0.62791566232E+01  0.16024705598E+02 -0.41628049296E+02  0.46142317792E+02  0.10000000284E+02 0.  0.
         12    1    1    2    0    0 -0.62791566232E+01 -0.16024705598E+02  0.41628049296E+02  0.45045682208E+02  0.00000000000E+00 0. -1.
         11    1    3    3    0    0  0.14598592370E+01  0.62427032335E+01 -0.68676670283E+01  0.93950722895E+01  0.51100000000E-03 0. -1.
        -11    1    3    3    0    0  0.13523226843E+01  0.26245947375E+01 -0.39771150385E+01  0.49532533218E+01  0.51100000000E-03 0.  1.
        -12    1    3    3    0    0  0.34669747019E+01  0.71574076267E+01 -0.30783267229E+02  0.31793992181E+02  0.00000000000E+00 0.  1.
</event>
<event>
 7    1  0.2243370E-008  0.4614232E+02  0.7816164E-02  0.1320468E+00
        -11   -1    0    0    0    0  0.00000000000E+00  0.00000000000E+00  0.45593999997E+02  0.45594000000E+02  0.51100000000E-03 0.  1.
         11   -1    0    0    0    0 -0.00000000000E+00 -0.00000000000E+00 -0.45593999997E+02  0.45594000000E+02  0.51100000000E-03 0. -1.
    9900012    2    1    2    0    0  0.29563718482E+02 -0.18292515181E+02  0.28644088121E+02  0.46142319337E+02  0.10000014368E+02 0.  0.
         12    1    1    2    0    0 -0.29563718482E+02  0.18292515181E+02 -0.28644088121E+02  0.45045680663E+02  0.00000000000E+00 0. -1.
         11    1    3    3    0    0  0.11768663503E+02 -0.64032550977E+01  0.88431759296E+01  0.16053189007E+02  0.51100000000E-03 0. -1.
        -11    1    3    3    0    0  0.69240800090E+01 -0.38849755745E+01  0.28866666891E+01  0.84480035523E+01  0.51100000000E-03 0.  1.
        -12    1    3    3    0    0  0.10870974970E+02 -0.80042845086E+01  0.16914245503E+02  0.21641126778E+02  0.00000000000E+00 0.  1.
</event>
<event>
 7    1  0.2243370E-008  0.4614231E+02  0.7816164E-02  0.1320468E+00
        -11   -1    0    0    0    0  0.00000000000E+00  0.00000000000E+00  0.45593999997E+02  0.45594000000E+02  0.51100000000E-03 0. -1.
         11   -1    0    0    0    0 -0.00000000000E+00 -0.00000000000E+00 -0.45593999997E+02  0.45594000000E+02  0.51100000000E-03 0.  1.
    9900012    2    1    2    0    0 -0.40274652683E+02  0.27965964337E+01 -0.19981122695E+02  0.46142313587E+02  0.99999619333E+01 0.  0.
         12    1    1    2    0    0  0.40274652683E+02 -0.27965964337E+01  0.19981122695E+02  0.45045686413E+02  0.00000000000E+00 0. -1.
         11    1    3    3    0    0 -0.42433190320E+00  0.65917276440E+00 -0.18908024626E+01  0.20468757928E+01  0.51100000000E-03 0. -1.
        -11    1    3    3    0    0 -0.15570307683E+02 -0.14429362669E+01 -0.79300038433E+01  0.17532869350E+02  0.51100000000E-03 0.  1.
        -12    1    3    3    0    0 -0.24280013096E+02  0.35803599362E+01 -0.10160316389E+02  0.26562568444E+02  0.00000000000E+00 0.  1.
</event>
<event>
 7    1  0.2243370E-008  0.4614232E+02  0.7816164E-02  0.1320468E+00
        -11   -1    0    0    0    0  0.00000000000E+00  0.00000000000E+00  0.45593999997E+02  0.45594000000E+02  0.51100000000E-03 0.  1.
         11   -1    0    0    0    0 -0.00000000000E+00 -0.00000000000E+00 -0.45593999997E+02  0.45594000000E+02  0.51100000000E-03 0. -1.
    9900012    2    1    2    0    0  0.38469956820E+02  0.21902471199E+02  0.83341308703E+01  0.46142316969E+02  0.99999927777E+01 0.  0.
         12    1    1    2    0    0 -0.38469956820E+02 -0.21902471199E+02 -0.83341308703E+01  0.45045683031E+02  0.00000000000E+00 0. -1.
         11    1    3    3    0    0  0.10429139977E+02  0.60687942458E+01  0.33659620565E+01  0.12527047741E+02  0.51100000000E-03 0. -1.
        -11    1    3    3    0    0  0.26479264481E+02  0.16816804515E+02  0.50308524205E+01  0.31768944551E+02  0.51100000000E-03 0.  1.
         12    1    3    3    0    0  0.15615523612E+01 -0.98312756164E+00 -0.62683606669E-01  0.18463246772E+01  0.00000000000E+00 0. -1.
</event>
<event>
 7    1  0.2243370E-008  0.4614232E+02  0.7816164E-02  0.1320468E+00
        -11   -1    0    0    0    0  0.00000000000E+00  0.00000000000E+00  0.45593999997E+02  0.45594000000E+02  0.51100000000E-03 0.  1.
         11   -1    0    0    0    0 -0.00000000000E+00 -0.00000000000E+00 -0.45593999997E+02  0.45594000000E+02  0.51100000000E-03 0. -1.
    9900012    2    1    2    0    0  0.36647597547E+01  0.18193947710E+02  0.41044650048E+02  0.46142317688E+02  0.99999993349E+01 0.  0.
         12    1    1    2    0    0 -0.36647597547E+01 -0.18193947710E+02 -0.41044650048E+02  0.45045682312E+02  0.00000000000E+00 0. -1.
         11    1    3    3    0    0 -0.11350133865E+01  0.56469637563E+01  0.57690878870E+01  0.81522285518E+01  0.51100000000E-03 0. -1.
        -11    1    3    3    0    0  0.31753682611E+00 -0.80002662550E-01  0.33612660773E+01  0.33771792913E+01  0.51100000000E-03 0.  1.
        -12    1    3    3    0    0  0.44822363151E+01  0.12626986617E+02  0.31914296084E+02  0.34612909845E+02  0.00000000000E+00 0.  1.
</event>
<event>
 7    1  0.2243370E-008  0.4614232E+02  0.7816164E-02  0.1320468E+00
        -11   -1    0    0    0    0  0.00000000000E+00  0.00000000000E+00  0.45593999997E+02  0.45594000000E+02  0.51100000000E-03 0.  1.
         11   -1    0    0    0    0 -0.00000000000E+00 -0.00000000000E+00 -0.45593999997E+02  0.45594000000E+02  0.51100000000E-03 0. -1.
    9900012    2    1    2    0    0  0.21976130087E+01  0.38426899906E+02  0.23402077050E+02  0.46142319302E+02  0.10000014050E+02 0.  0.
         12    1    1    2    0    0 -0.21976130087E+01 -0.38426899906E+02 -0.23402077050E+02  0.45045680698E+02  0.00000000000E+00 0. -1.
         11    1    3    3    0    0 -0.49855909561E+00  0.15750076558E+02  0.78172156214E+01  0.17590404574E+02  0.51100000000E-03 0. -1.
        -11    1    3    3    0    0 -0.62299728434E+00  0.17508728542E+02  0.96068354672E+01  0.19980865565E+02  0.51100000000E-03 0.  1.
         12    1    3    3    0    0  0.33191693886E+01  0.51680948055E+01  0.59780259610E+01  0.85710491621E+01  0.00000000000E+00 0. -1.
</event>
<event>
 7    1  0.2243370E-008  0.4614232E+02  0.7816164E-02  0.1320468E+00
        -11   -1    0    0    0    0  0.00000000000E+00  0.00000000000E+00  0.45593999997E+02  0.45594000000E+02  0.51100000000E-03 0. -1.
         11   -1    0    0    0    0 -0.00000000000E+00 -0.00000000000E+00 -0.45593999997E+02  0.45594000000E+02  0.51100000000E-03 0.  1.
    9900012    2    1    2    0    0 -0.33356242685E+02 -0.10897843253E+02 -0.28243782082E+02  0.46142321629E+02  0.10000035266E+02 0.  0.
         12    1    1    2    0    0  0.33356242685E+02  0.10897843253E+02  0.28243782082E+02  0.45045678371E+02  0.00000000000E+00 0. -1.
         11    1    3    3    0    0 -0.12330431635E+01 -0.16546698294E+01 -0.11975140155E+01  0.23858683463E+01  0.51100000000E-03 0. -1.
        -11    1    3    3    0    0 -0.19748013406E+02 -0.61847733608E+01 -0.11578768624E+02  0.23712936092E+02  0.51100000000E-03 0.  1.
        -12    1    3    3    0    0 -0.12375186116E+02 -0.30584000626E+01 -0.15467499442E+02  0.20043517190E+02  0.00000000000E+00 0.  1.
</event>
<event>
 7    1  0.2243370E-008  0.4614232E+02  0.7816164E-02  0.1320468E+00
        -11   -1    0    0    0    0  0.00000000000E+00  0.00000000000E+00  0.45593999997E+02  0.45594000000E+02  0.51100000000E-03 0.  1.
         11   -1    0    0    0    0 -0.00000000000E+00 -0.00000000000E+00 -0.45593999997E+02  0.45594000000E+02  0.51100000000E-03 0. -1.
    9900012    2    1    2    0    0 -0.21297013737E+02  0.12442077024E+02  0.37692776706E+02  0.46142317737E+02  0.99999997799E+01 0.  0.
         12    1    1    2    0    0  0.21297013737E+02 -0.12442077024E+02 -0.37692776706E+02  0.45045682263E+02  0.00000000000E+00 0. -1.
         11    1    3    3    0    0 -0.10570414051E+01  0.22982202819E+01  0.15588350281E+01  0.29713834997E+01  0.51100000000E-03 0. -1.
        -11    1    3    3    0    0 -0.11630667674E+02  0.74447152089E+01  0.27031495465E+02  0.30354537757E+02  0.51100000000E-03 0.  1.
        -12    1    3    3    0    0 -0.86093046571E+01  0.26991415332E+01  0.91024462128E+01  0.12816396481E+02  0.00000000000E+00 0.  1.
</event>
<event>
 7    1  0.2243370E-008  0.4614232E+02  0.7816164E-02  0.1320468E+00
        -11   -1    0    0    0    0  0.00000000000E+00  0.00000000000E+00  0.45593999997E+02  0.45594000000E+02  0.51100000000E-03 0.  1.
         11   -1    0    0    0    0 -0.00000000000E+00 -0.00000000000E+00 -0.45593999997E+02  0.45594000000E+02  0.51100000000E-03 0. -1.
    9900012    2    1    2    0    0 -0.33417301516E+01 -0.36566331858E+02  0.26093096270E+02  0.46142318088E+02  0.10000002985E+02 0.  0.
         12    1    1    2    0    0  0.33417301516E+01  0.36566331858E+02 -0.26093096270E+02  0.45045681912E+02  0.00000000000E+00 0. -1.
         11    1    3    3    0    0  0.34424854050E+00 -0.64595966882E+01  0.61303145290E+01  0.89121070975E+01  0.51100000000E-03 0. -1.
        -11    1    3    3    0    0 -0.15447393132E+01 -0.28852638200E+02  0.18927506577E+02  0.34541445484E+02  0.51100000000E-03 0.  1.
        -12    1    3    3    0    0 -0.21412393788E+01 -0.12540969699E+01  0.10352751636E+01  0.26887655070E+01  0.00000000000E+00 0.  1.
</event>
<event>
 7    1  0.2243370E-008  0.4614232E+02  0.7816164E-02  0.1320468E+00
        -11   -1    0    0    0    0  0.00000000000E+00  0.00000000000E+00  0.45593999997E+02  0.45594000000E+02  0.51100000000E-03 0.  1.
         11   -1    0    0    0    0 -0.00000000000E+00 -0.00000000000E+00 -0.45593999997E+02  0.45594000000E+02  0.51100000000E-03 0. -1.
    9900012    2    1    2    0    0  0.40167305396E+02 -0.56689476580E+01  0.19584794112E+02  0.46142317069E+02  0.99999936871E+01 0.  0.
         12    1    1    2    0    0 -0.40167305396E+02  0.56689476580E+01 -0.19584794112E+02  0.45045682931E+02  0.00000000000E+00 0. -1.
         11    1    3    3    0    0  0.66801230994E+00 -0.41747332889E+00 -0.90786512923E+00  0.12019749501E+01  0.51100000000E-03 0. -1.
        -11    1    3    3    0    0  0.23643876577E+02 -0.17902300214E+01  0.10996123976E+02  0.26137187413E+02  0.51100000000E-03 0.  1.
        -12    1    3    3    0    0  0.15855416509E+02 -0.34612443078E+01  0.94965352657E+01  0.18803154706E+02  0.00000000000E+00 0.  1.
</event>
<event>
 7    1  0.2243370E-008  0.4614232E+02  0.7816164E-02  0.1320468E+00
        -11   -1    0    0    0    0  0.00000000000E+00  0.00000000000E+00  0.45593999997E+02  0.45594000000E+02  0.51100000000E-03 0.  1.
         11   -1    0    0    0    0 -0.00000000000E+00 -0.00000000000E+00 -0.45593999997E+02  0.45594000000E+02  0.51100000000E-03 0. -1.
    9900012    2    1    2    0    0 -0.53921571464E+01 -0.34376255541E+02  0.28606138302E+02  0.46142318161E+02  0.10000003651E+02 0.  0.
         12    1    1    2    0    0  0.53921571464E+01  0.34376255541E+02 -0.28606138302E+02  0.45045681839E+02  0.00000000000E+00 0. -1.
         11    1    3    3    0    0  0.12014638472E+01 -0.81212006014E+01  0.91443996621E+01  0.12288916145E+02  0.51100000000E-03 0. -1.
        -11    1    3    3    0    0 -0.66457506819E+01 -0.14935444839E+02  0.12307863515E+02  0.20462576066E+02  0.51100000000E-03 0.  1.
        -12    1    3    3    0    0  0.52129688258E-01 -0.11319610100E+02  0.71538751251E+01  0.13390825950E+02  0.00000000000E+00 0.  1.
</event>
<event>
 7    1  0.2243370E-008  0.4614232E+02  0.7816164E-02  0.1320468E+00
        -11   -1    0    0    0    0  0.00000000000E+00  0.00000000000E+00  0.45593999997E+02  0.45594000000E+02  0.51100000000E-03 0.  1.
         11   -1    0    0    0    0 -0.00000000000E+00 -0.00000000000E+00 -0.45593999997E+02  0.45594000000E+02  0.51100000000E-03 0. -1.
    9900012    2    1    2    0    0 -0.60711531092E+01  0.44591664163E+02  0.19591438588E+01  0.46142315883E+02  0.99999828722E+01 0.  0.
         12    1    1    2    0    0  0.60711531092E+01 -0.44591664163E+02 -0.19591438588E+01  0.45045684117E+02  0.00000000000E+00 0. -1.
         11    1    3    3    0    0 -0.22755258929E+01  0.30238252333E+02  0.22717923681E+01  0.30408731691E+02  0.51100000000E-03 0.  1.
        -11    1    3    3    0    0 -0.76358230872E+00  0.11048990404E+02  0.82753810115E+00  0.11106217468E+02  0.51100000000E-03 0. -1.
        -12    1    3    3    0    0 -0.30320449076E+01  0.33044214269E+01 -0.11401866105E+01  0.46273667236E+01  0.00000000000E+00 0.  1.
</event>
<event>
 7    1  0.2243370E-008  0.4614232E+02  0.7816164E-02  0.1320468E+00
        -11   -1    0    0    0    0  0.00000000000E+00  0.00000000000E+00  0.45593999997E+02  0.45594000000E+02  0.51100000000E-03 0.  1.
         11   -1    0    0    0    0 -0.00000000000E+00 -0.00000000000E+00 -0.45593999997E+02  0.45594000000E+02  0.51100000000E-03 0. -1.
    9900012    2    1    2    0    0  0.10142171331E+02 -0.14483424976E+02  0.41430426529E+02  0.46142317846E+02  0.10000000778E+02 0.  0.
         12    1    1    2    0    0 -0.10142171331E+02  0.14483424976E+02 -0.41430426529E+02  0.45045682154E+02  0.00000000000E+00 0. -1.
         11    1    3    3    0    0  0.10274943435E+02 -0.13144113257E+02  0.28981682267E+02  0.33440695016E+02  0.51100000000E-03 0. -1.
        -11    1    3    3    0    0  0.87068829146E+00 -0.12288938219E+01  0.70069049070E+01  0.71669376140E+01  0.51100000000E-03 0.  1.
         12    1    3    3    0    0 -0.10034603956E+01 -0.11041789723E+00  0.54418393547E+01  0.55346852160E+01  0.00000000000E+00 0. -1.
</event>
<event>
 7    1  0.2243370E-008  0.4614232E+02  0.7816164E-02  0.1320468E+00
        -11   -1    0    0    0    0  0.00000000000E+00  0.00000000000E+00  0.45593999997E+02  0.45594000000E+02  0.51100000000E-03 0.  1.
         11   -1    0    0    0    0 -0.00000000000E+00 -0.00000000000E+00 -0.45593999997E+02  0.45594000000E+02  0.51100000000E-03 0. -1.
    9900012    2    1    2    0    0 -0.19410161349E+02 -0.21577201987E+02  0.34449724361E+02  0.46142317435E+02  0.99999970234E+01 0.  0.
         12    1    1    2    0    0  0.19410161349E+02  0.21577201987E+02 -0.34449724361E+02  0.45045682565E+02  0.00000000000E+00 0. -1.
         11    1    3    3    0    0 -0.30314378434E+01 -0.64043963630E+01  0.88508096397E+01  0.11337669060E+02  0.51100000000E-03 0. -1.
        -11    1    3    3    0    0 -0.16683918751E+02 -0.15609772270E+02  0.25540320748E+02  0.34268442033E+02  0.51100000000E-03 0.  1.
         12    1    3    3    0    0  0.30519524473E+00  0.43696664601E+00  0.58593973731E-01  0.53620634171E+00  0.00000000000E+00 0. -1.
</event>
<event>
 7    1  0.2243370E-008  0.4614231E+02  0.7816164E-02  0.1320468E+00
        -11   -1    0    0    0    0  0.00000000000E+00  0.00000000000E+00  0.45593999997E+02  0.45594000000E+02  0.51100000000E-03 0.  1.
         11   -1    0    0    0    0 -0.00000000000E+00 -0.00000000000E+00 -0.45593999997E+02  0.45594000000E+02  0.51100000000E-03 0. -1.
    9900012    2    1    2    0    0 -0.33427262900E+02  0.78629886326E+01  0.29153136328E+02  0.46142313713E+02  0.99999630887E+01 0.  0.
         12    1    1    2    0    0  0.33427262900E+02 -0.78629886326E+01 -0.29153136328E+02  0.45045686287E+02  0.00000000000E+00 0. -1.
         11    1    3    3    0    0 -0.77059359856E+00 -0.11341607224E+01  0.10017255077E+01  0.16981134509E+01  0.51100000000E-03 0. -1.
        -11    1    3    3    0    0 -0.31703877179E+02  0.74426094970E+01  0.26779258773E+02  0.42162269448E+02  0.51100000000E-03 0.  1.
        -12    1    3    3    0    0 -0.95279212263E+00  0.15545398579E+01  0.13721520481E+01  0.22819308145E+01  0.00000000000E+00 0.  1.
</event>
<event>
 7    1  0.2243370E-008  0.4614232E+02  0.7816164E-02  0.1320468E+00
        -11   -1    0    0    0    0  0.00000000000E+00  0.00000000000E+00  0.45593999997E+02  0.45594000000E+02  0.51100000000E-03 0. -1.
         11   -1    0    0    0    0 -0.00000000000E+00 -0.00000000000E+00 -0.45593999997E+02  0.45594000000E+02  0.51100000000E-03 0.  1.
    9900012    2    1    2    0    0  0.18300021196E+01  0.41339889216E+01 -0.44818241296E+02  0.46142317354E+02  0.99999962909E+01 0.  0.
         12    1    1    2    0    0 -0.18300021196E+01 -0.41339889216E+01  0.44818241296E+02  0.45045682646E+02  0.00000000000E+00 0. -1.
         11    1    3    3    0    0 -0.14830999729E+01  0.38380128517E+01 -0.99758416974E+01  0.10791077148E+02  0.51100000000E-03 0. -1.
        -11    1    3    3    0    0  0.31070120453E+01  0.16825275643E+01 -0.13238446575E+02  0.13701857204E+02  0.51100000000E-03 0.  1.
        -12    1    3    3    0    0  0.20609004722E+00 -0.13865514944E+01 -0.21603953024E+02  0.21649383003E+02  0.00000000000E+00 0.  1.
</event>
<event>
 7    1  0.2243370E-008  0.4614232E+02  0.7816164E-02  0.1320468E+00
        -11   -1    0    0    0    0  0.00000000000E+00  0.00000000000E+00  0.45593999997E+02  0.45594000000E+02  0.51100000000E-03 0. -1.
         11   -1    0    0    0    0 -0.00000000000E+00 -0.00000000000E+00 -0.45593999997E+02  0.45594000000E+02  0.51100000000E-03 0.  1.
    9900012    2    1    2    0    0  0.20337291854E+02  0.76251278439E+01 -0.39463470369E+02  0.46142317542E+02  0.99999979980E+01 0.  0.
         12    1    1    2    0    0 -0.20337291854E+02 -0.76251278439E+01  0.39463470369E+02  0.45045682458E+02  0.00000000000E+00 0. -1.
         11    1    3    3    0    0  0.13967854488E+02  0.32631803944E+01 -0.17451617836E+02  0.22590003777E+02  0.51100000000E-03 0.  1.
        -11    1    3    3    0    0  0.55479793081E+01  0.26329156065E+01 -0.13550189033E+02  0.14876825673E+02  0.51100000000E-03 0. -1.
         12    1    3    3    0    0  0.82145805767E+00  0.17290318430E+01 -0.84616634990E+01  0.86754880915E+01  0.00000000000E+00 0. -1.
</event>
<event>
 7    1  0.2243370E-008  0.4614232E+02  0.7816164E-02  0.1320468E+00
        -11   -1    0    0    0    0  0.00000000000E+00  0.00000000000E+00  0.45593999997E+02  0.45594000000E+02  0.51100000000E-03 0.  1.
         11   -1    0    0    0    0 -0.00000000000E+00 -0.00000000000E+00 -0.45593999997E+02  0.45594000000E+02  0.51100000000E-03 0. -1.
    9900012    2    1    2    0    0  0.33091103899E+02 -0.21508727235E+02  0.21713290285E+02  0.46142317859E+02  0.10000000897E+02 0.  0.
         12    1    1    2    0    0 -0.33091103899E+02  0.21508727235E+02 -0.21713290285E+02  0.45045682141E+02  0.00000000000E+00 0. -1.
         11    1    3    3    0    0  0.22613136582E+01 -0.40947523827E+01  0.12364406154E+01  0.48383181161E+01  0.51100000000E-03 0. -1.
        -11    1    3    3    0    0  0.19024494507E+02 -0.75075543540E+01  0.11258759746E+02  0.23346400898E+02  0.51100000000E-03 0.  1.
        -12    1    3    3    0    0  0.11805295734E+02 -0.99064204978E+01  0.92180899231E+01  0.17957598845E+02  0.00000000000E+00 0.  1.
</event>
<event>
 7    1  0.2243370E-008  0.4614232E+02  0.7816164E-02  0.1320468E+00
        -11   -1    0    0    0    0  0.00000000000E+00  0.00000000000E+00  0.45593999997E+02  0.45594000000E+02  0.51100000000E-03 0.  1.
         11   -1    0    0    0    0 -0.00000000000E+00 -0.00000000000E+00 -0.45593999997E+02  0.45594000000E+02  0.51100000000E-03 0. -1.
    9900012    2    1    2    0    0  0.38948063968E+02  0.13924348664E+01  0.22588108772E+02  0.46142320744E+02  0.10000027199E+02 0.  0.
         12    1    1    2    0    0 -0.38948063968E+02 -0.13924348664E+01 -0.22588108772E+02  0.45045679256E+02  0.00000000000E+00 0. -1.
         11    1    3    3    0    0  0.21208925563E+01  0.19186526813E+01  0.10745882040E+01  0.30551846779E+01  0.51100000000E-03 0. -1.
        -11    1    3    3    0    0  0.25148057699E+02 -0.31975881919E+01  0.14492656725E+02  0.29200795802E+02  0.51100000000E-03 0.  1.
        -12    1    3    3    0    0  0.11679113713E+02  0.26713703771E+01  0.70208638436E+01  0.13886340264E+02  0.00000000000E+00 0.  1.
</event>
<event>
 7    1  0.2243370E-008  0.4614232E+02  0.7816164E-02  0.1320468E+00
        -11   -1    0    0    0    0  0.00000000000E+00  0.00000000000E+00  0.45593999997E+02  0.45594000000E+02  0.51100000000E-03 0.  1.
         11   -1    0    0    0    0 -0.00000000000E+00 -0.00000000000E+00 -0.45593999997E+02  0.45594000000E+02  0.51100000000E-03 0. -1.
    9900012    2    1    2    0    0  0.35765042096E+02 -0.14492313124E+02  0.23236785682E+02  0.46142316693E+02  0.99999902583E+01 0.  0.
         12    1    1    2    0    0 -0.35765042096E+02  0.14492313124E+02 -0.23236785682E+02  0.45045683307E+02  0.00000000000E+00 0. -1.
         11    1    3    3    0    0  0.17488297416E+01 -0.22112182462E+01 -0.32479550338E+00  0.28378484768E+01  0.51100000000E-03 0. -1.
        -11    1    3    3    0    0  0.65375364569E+01 -0.13829871067E+01  0.55673337910E+01  0.86975423002E+01  0.51100000000E-03 0.  1.
         12    1    3    3    0    0  0.27478675897E+02 -0.10898107771E+02  0.17994247394E+02  0.34606925916E+02  0.00000000000E+00 0. -1.
</event>
<event>
 7    1  0.2243370E-008  0.4614232E+02  0.7816164E-02  0.1320468E+00
        -11   -1    0    0    0    0  0.00000000000E+00  0.00000000000E+00  0.45593999997E+02  0.45594000000E+02  0.51100000000E-03 0.  1.
         11   -1    0    0    0    0 -0.00000000000E+00 -0.00000000000E+00 -0.45593999997E+02  0.45594000000E+02  0.51100000000E-03 0. -1.
    9900012    2    1    2    0    0  0.12240115415E+02  0.42447478794E+02 -0.88036686656E+01  0.46142318039E+02  0.10000002537E+02 0.  0.
         12    1    1    2    0    0 -0.12240115415E+02 -0.42447478794E+02  0.88036686656E+01  0.45045681961E+02  0.00000000000E+00 0. -1.
         11    1    3    3    0    0  0.13858036472E+01  0.17348199735E+01  0.89406457859E+00  0.23936173087E+01  0.51100000000E-03 0. -1.
        -11    1    3    3    0    0  0.93488718423E+01  0.25757678463E+02 -0.40862965420E+01  0.27704823122E+02  0.51100000000E-03 0.  1.
        -12    1    3    3    0    0  0.15054399259E+01  0.14954980357E+02 -0.56114367022E+01  0.16043877608E+02  0.00000000000E+00 0.  1.
</event>
<event>
 7    1  0.2243370E-008  0.4614232E+02  0.7816164E-02  0.1320468E+00
        -11   -1    0    0    0    0  0.00000000000E+00  0.00000000000E+00  0.45593999997E+02  0.45594000000E+02  0.51100000000E-03 0.  1.
         11   -1    0    0    0    0 -0.00000000000E+00 -0.00000000000E+00 -0.45593999997E+02  0.45594000000E+02  0.51100000000E-03 0. -1.
    9900012    2    1    2    0    0 -0.17776311061E+02 -0.34805997515E+02 -0.22397739088E+02  0.46142318585E+02  0.10000007511E+02 0.  0.
         12    1    1    2    0    0  0.17776311061E+02  0.34805997515E+02  0.22397739088E+02  0.45045681415E+02  0.00000000000E+00 0. -1.
         11    1    3    3    0    0 -0.23957028379E+01 -0.34822251278E+01  0.15547857884E+00  0.42295930984E+01  0.51100000000E-03 0. -1.
        -11    1    3    3    0    0 -0.78663242081E+01 -0.13428669915E+02 -0.71128117647E+01  0.17111409168E+02  0.51100000000E-03 0.  1.
         12    1    3    3    0    0 -0.75142840145E+01 -0.17895102471E+02 -0.15440405902E+02  0.24801316319E+02  0.00000000000E+00 0. -1.
</event>
<event>
 7    1  0.2243370E-008  0.4614232E+02  0.7816164E-02  0.1320468E+00
        -11   -1    0    0    0    0  0.00000000000E+00  0.00000000000E+00  0.45593999997E+02  0.45594000000E+02  0.51100000000E-03 0.  1.
         11   -1    0    0    0    0 -0.00000000000E+00 -0.00000000000E+00 -0.45593999997E+02  0.45594000000E+02  0.51100000000E-03 0. -1.
    9900012    2    1    2    0    0 -0.71556056194E+01 -0.20632396095E+02  0.39398160850E+02  0.46142317202E+02  0.99999949028E+01 0.  0.
         12    1    1    2    0    0  0.71556056194E+01  0.20632396095E+02 -0.39398160850E+02  0.45045682798E+02  0.00000000000E+00 0. -1.
         11    1    3    3    0    0 -0.22704126608E+01 -0.74021730086E+01  0.10106203814E+02  0.12731154492E+02  0.51100000000E-03 0. -1.
        -11    1    3    3    0    0 -0.19602562707E+01 -0.22915028069E+01  0.14323574683E+01  0.33384484328E+01  0.51100000000E-03 0.  1.
        -12    1    3    3    0    0 -0.29249366880E+01 -0.10938720279E+02  0.27859599567E+02  0.30072714277E+02  0.00000000000E+00 0.  1.
</event>
<event>
 7    1  0.2243370E-008  0.4614232E+02  0.7816164E-02  0.1320468E+00
        -11   -1    0    0    0    0  0.00000000000E+00  0.00000000000E+00  0.45593999997E+02  0.45594000000E+02  0.51100000000E-03 0. -1.
         11   -1    0    0    0    0 -0.00000000000E+00 -0.00000000000E+00 -0.45593999997E+02  0.45594000000E+02  0.51100000000E-03 0.  1.
    9900012    2    1    2    0    0 -0.43731253372E+02 -0.84986864650E+01 -0.66680860490E+01  0.46142316914E+02  0.99999922737E+01 0.  0.
         12    1    1    2    0    0  0.43731253372E+02  0.84986864650E+01  0.66680860490E+01  0.45045683086E+02  0.00000000000E+00 0. -1.
         11    1    3    3    0    0 -0.30175965294E+01 -0.10873919660E+01  0.62912424408E+00  0.32686553317E+01  0.51100000000E-03 0. -1.
        -11    1    3    3    0    0 -0.47276114563E+01  0.51302316041E+00 -0.33452507234E+01  0.58141384150E+01  0.51100000000E-03 0.  1.
        -12    1    3    3    0    0 -0.35986045387E+02 -0.79243176594E+01 -0.39519595697E+01  0.37059523167E+02  0.00000000000E+00 0.  1.
</event>
<event>
 7    1  0.2243370E-008  0.4614232E+02  0.7816164E-02  0.1320468E+00
        -11   -1    0    0    0    0  0.00000000000E+00  0.00000000000E+00  0.45593999997E+02  0.45594000000E+02  0.51100000000E-03 0. -1.
         11   -1    0    0    0    0 -0.00000000000E+00 -0.00000000000E+00 -0.45593999997E+02  0.45594000000E+02  0.51100000000E-03 0.  1.
    9900012    2    1    2    0    0 -0.42161299109E+02 -0.14245948104E+02  0.69707486797E+01  0.46142317442E+02  0.99999970931E+01 0.  0.
         12    1    1    2    0    0  0.42161299109E+02  0.14245948104E+02 -0.69707486797E+01  0.45045682558E+02  0.00000000000E+00 0. -1.
         11    1    3    3    0    0 -0.97716462507E+01 -0.64646582920E+01  0.31155281179E+01  0.12123670772E+02  0.51100000000E-03 0. -1.
        -11    1    3    3    0    0 -0.10085242414E+02 -0.27369960904E+01 -0.14319533662E+01  0.10547689455E+02  0.51100000000E-03 0.  1.
        -12    1    3    3    0    0 -0.22304410445E+02 -0.50442937211E+01  0.52871739281E+01  0.23470957215E+02  0.00000000000E+00 0.  1.
</event>
<event>
 7    1  0.2243370E-008  0.4614232E+02  0.7816164E-02  0.1320468E+00
        -11   -1    0    0    0    0  0.00000000000E+00  0.00000000000E+00  0.45593999997E+02  0.45594000000E+02  0.51100000000E-03 0.  1.
         11   -1    0    0    0    0 -0.00000000000E+00 -0.00000000000E+00 -0.45593999997E+02  0.45594000000E+02  0.51100000000E-03 0. -1.
    9900012    2    1    2    0    0  0.17810980159E+02 -0.29214782550E+02  0.29298103287E+02  0.46142318854E+02  0.10000009966E+02 0.  0.
         12    1    1    2    0    0 -0.17810980159E+02  0.29214782550E+02 -0.29298103287E+02  0.45045681146E+02  0.00000000000E+00 0. -1.
         11    1    3    3    0    0  0.98568283240E+00  0.48481920685E+00  0.89500212780E+00  0.14169154454E+01  0.51100000000E-03 0. -1.
        -11    1    3    3    0    0  0.44043208037E+01 -0.55720224915E+01  0.84723828621E+01  0.11055620652E+02  0.51100000000E-03 0.  1.
        -12    1    3    3    0    0  0.12420976523E+02 -0.24127579266E+02  0.19930718297E+02  0.33669782756E+02  0.00000000000E+00 0.  1.
</event>
<event>
 7    1  0.2243370E-008  0.4614232E+02  0.7816164E-02  0.1320468E+00
        -11   -1    0    0    0    0  0.00000000000E+00  0.00000000000E+00  0.45593999997E+02  0.45594000000E+02  0.51100000000E-03 0.  1.
         11   -1    0    0    0    0 -0.00000000000E+00 -0.00000000000E+00 -0.45593999997E+02  0.45594000000E+02  0.51100000000E-03 0. -1.
    9900012    2    1    2    0    0  0.12742537442E+02 -0.40790528559E+02  0.14243381189E+02  0.46142318872E+02  0.10000010128E+02 0.  0.
         12    1    1    2    0    0 -0.12742537442E+02  0.40790528559E+02 -0.14243381189E+02  0.45045681128E+02  0.00000000000E+00 0. -1.
         11    1    3    3    0    0  0.71651620188E+01 -0.21602618545E+02  0.78127807986E+01  0.24063503876E+02  0.51100000000E-03 0. -1.
        -11    1    3    3    0    0  0.64305039431E+01 -0.18042014933E+02  0.44967539586E+01  0.19674513469E+02  0.51100000000E-03 0.  1.
         12    1    3    3    0    0 -0.85312851959E+00 -0.11458950816E+01  0.19338464321E+01  0.24043015268E+01  0.00000000000E+00 0. -1.
</event>
<event>
 7    1  0.2243370E-008  0.4614232E+02  0.7816164E-02  0.1320468E+00
        -11   -1    0    0    0    0  0.00000000000E+00  0.00000000000E+00  0.45593999997E+02  0.45594000000E+02  0.51100000000E-03 0.  1.
         11   -1    0    0    0    0 -0.00000000000E+00 -0.00000000000E+00 -0.45593999997E+02  0.45594000000E+02  0.51100000000E-03 0. -1.
    9900012    2    1    2    0    0 -0.18384242673E+02  0.33575364202E+02  0.23745063434E+02  0.46142317661E+02  0.99999990858E+01 0.  0.
         12    1    1    2    0    0  0.18384242673E+02 -0.33575364202E+02 -0.23745063434E+02  0.45045682339E+02  0.00000000000E+00 0. -1.
         11    1    3    3    0    0  0.15958564115E+00  0.33477807870E+01  0.24289249894E+01  0.41391763238E+01  0.51100000000E-03 0. -1.
        -11    1    3    3    0    0 -0.11340620834E+02  0.24142408751E+02  0.17021516728E+02  0.31641706862E+02  0.51100000000E-03 0.  1.
         12    1    3    3    0    0 -0.72032074794E+01  0.60851746642E+01  0.42946217170E+01  0.10361434475E+02  0.00000000000E+00 0. -1.
</event>
<event>
 7    1  0.2243370E-008  0.4614232E+02  0.7816164E-02  0.1320468E+00
        -11   -1    0    0    0    0  0.00000000000E+00  0.00000000000E+00  0.45593999997E+02  0.45594000000E+02  0.51100000000E-03 0. -1.
         11   -1    0    0    0    0 -0.00000000000E+00 -0.00000000000E+00 -0.45593999997E+02  0.45594000000E+02  0.51100000000E-03 0.  1.
    9900012    2    1    2    0    0 -0.28028883591E+02 -0.32662635800E+02 -0.13290875970E+02  0.46142317889E+02  0.10000001170E+02 0.  0.
         12    1    1    2    0    0  0.28028883591E+02  0.32662635800E+02  0.13290875970E+02  0.45045682111E+02  0.00000000000E+00 0. -1.
         11    1    3    3    0    0 -0.32857559865E+01 -0.33569795376E+01 -0.62444574841E+00  0.47387167854E+01  0.51100000000E-03 0. -1.
        -11    1    3    3    0    0 -0.87001792373E+01 -0.54017872072E+01 -0.59439661934E+01  0.11840741453E+02  0.51100000000E-03 0.  1.
         12    1    3    3    0    0 -0.16042948368E+02 -0.23903869055E+02 -0.67224640279E+01  0.29562859651E+02  0.00000000000E+00 0. -1.
</event>
<event>
 7    1  0.2243370E-008  0.4614232E+02  0.7816164E-02  0.1320468E+00
        -11   -1    0    0    0    0  0.00000000000E+00  0.00000000000E+00  0.45593999997E+02  0.45594000000E+02  0.51100000000E-03 0.  1.
         11   -1    0    0    0    0 -0.00000000000E+00 -0.00000000000E+00 -0.45593999997E+02  0.45594000000E+02  0.51100000000E-03 0. -1.
    9900012    2    1    2    0    0  0.14317344042E+02 -0.28789294591E+02  0.31548430215E+02  0.46142320158E+02  0.10000021852E+02 0.  0.
         12    1    1    2    0    0 -0.14317344042E+02  0.28789294591E+02 -0.31548430215E+02  0.45045679842E+02  0.00000000000E+00 0. -1.
         11    1    3    3    0    0  0.11157399466E+02 -0.19773984925E+02  0.19267106317E+02  0.29777834521E+02  0.51100000000E-03 0. -1.
        -11    1    3    3    0    0  0.45632149012E+01 -0.68785251963E+01  0.91815638877E+01  0.12346584742E+02  0.51100000000E-03 0.  1.
         12    1    3    3    0    0 -0.14032703258E+01 -0.21367844695E+01  0.30997600101E+01  0.40179008944E+01  0.00000000000E+00 0. -1.
</event>
<event>
 7    1  0.2243370E-008  0.4614232E+02  0.7816164E-02  0.1320468E+00
        -11   -1    0    0    0    0  0.00000000000E+00  0.00000000000E+00  0.45593999997E+02  0.45594000000E+02  0.51100000000E-03 0.  1.
         11   -1    0    0    0    0 -0.00000000000E+00 -0.00000000000E+00 -0.45593999997E+02  0.45594000000E+02  0.51100000000E-03 0. -1.
    9900012    2    1    2    0    0 -0.26867165081E+02 -0.97714451004E+01  0.34810740584E+02  0.46142319199E+02  0.10000013113E+02 0.  0.
         12    1    1    2    0    0  0.26867165081E+02  0.97714451004E+01 -0.34810740584E+02  0.45045680801E+02  0.00000000000E+00 0. -1.
         11    1    3    3    0    0 -0.14334537107E+02 -0.94095304319E+01  0.18624274736E+02  0.25315643913E+02  0.51100000000E-03 0. -1.
        -11    1    3    3    0    0 -0.89476072134E+01 -0.19894228134E+01  0.11490290630E+02  0.14698444033E+02  0.51100000000E-03 0.  1.
         12    1    3    3    0    0 -0.35850207599E+01  0.16275081449E+01  0.46961752178E+01  0.61282312527E+01  0.00000000000E+00 0. -1.
</event>
<event>
 7    1  0.2243370E-008  0.4614232E+02  0.7816164E-02  0.1320468E+00
        -11   -1    0    0    0    0  0.00000000000E+00  0.00000000000E+00  0.45593999997E+02  0.45594000000E+02  0.51100000000E-03 0.  1.
         11   -1    0    0    0    0 -0.00000000000E+00 -0.00000000000E+00 -0.45593999997E+02  0.45594000000E+02  0.51100000000E-03 0. -1.
    9900012    2    1    2    0    0  0.29357787433E+02  0.20887744514E+02  0.27035825249E+02  0.46142318734E+02  0.10000008872E+02 0.  0.
         12    1    1    2    0    0 -0.29357787433E+02 -0.20887744514E+02 -0.27035825249E+02  0.45045681266E+02  0.00000000000E+00 0. -1.
         11    1    3    3    0    0  0.14153112392E+01  0.20869243076E+01  0.23062275252E+01  0.34171690957E+01  0.51100000000E-03 0. -1.
        -11    1    3    3    0    0  0.10660023855E+02  0.90230298213E+01  0.15388044442E+02  0.20780834626E+02  0.51100000000E-03 0.  1.
         12    1    3    3    0    0  0.17282452339E+02  0.97777903855E+01  0.93415532818E+01  0.21944315013E+02  0.00000000000E+00 0. -1.
</event>
<event>
 7    1  0.2243370E-008  0.4614232E+02  0.7816164E-02  0.1320468E+00
        -11   -1    0    0    0    0  0.00000000000E+00  0.00000000000E+00  0.45593999997E+02  0.45594000000E+02  0.51100000000E-03 0.  1.
         11   -1    0    0    0    0 -0.00000000000E+00 -0.00000000000E+00 -0.45593999997E+02  0.45594000000E+02  0.51100000000E-03 0. -1.
    9900012    2    1    2    0    0  0.27870185751E+02 -0.12919747409E+02  0.32946112525E+02  0.46142318105E+02  0.10000003136E+02 0.  0.
         12    1    1    2    0    0 -0.27870185751E+02  0.12919747409E+02 -0.32946112525E+02  0.45045681895E+02  0.00000000000E+00 0. -1.
         11    1    3    3    0    0  0.21477665800E+01  0.52557616013E+00  0.24193091822E+01  0.32775278431E+01  0.51100000000E-03 0. -1.
        -11    1    3    3    0    0  0.20640884123E+01 -0.39003284397E+01  0.62315287282E+01  0.76357693433E+01  0.51100000000E-03 0.  1.
        -12    1    3    3    0    0  0.23658330759E+02 -0.95449951292E+01  0.24295274614E+02  0.35229020919E+02  0.00000000000E+00 0.  1.
</event>
<event>
 7    1  0.2243370E-008  0.4614232E+02  0.7816164E-02  0.1320468E+00
        -11   -1    0    0    0    0  0.00000000000E+00  0.00000000000E+00  0.45593999997E+02  0.45594000000E+02  0.51100000000E-03 0. -1.
         11   -1    0    0    0    0 -0.00000000000E+00 -0.00000000000E+00 -0.45593999997E+02  0.45594000000E+02  0.51100000000E-03 0.  1.
    9900012    2    1    2    0    0 -0.42570917158E+02  0.14329889230E+02  0.33889239886E+01  0.46142317423E+02  0.99999969148E+01 0.  0.
         12    1    1    2    0    0  0.42570917158E+02 -0.14329889230E+02 -0.33889239886E+01  0.45045682577E+02  0.00000000000E+00 0. -1.
         11    1    3    3    0    0 -0.28950484193E+02  0.61625975760E+01  0.35226823834E+01  0.29808009584E+02  0.51100000000E-03 0. -1.
        -11    1    3    3    0    0 -0.94984353040E+01  0.39249782609E+01  0.94823618152E+00  0.10321089075E+02  0.51100000000E-03 0.  1.
         12    1    3    3    0    0 -0.41219976610E+01  0.42423133931E+01 -0.10819945763E+01  0.60132187642E+01  0.00000000000E+00 0. -1.
</event>
<event>
 7    1  0.2243370E-008  0.4614232E+02  0.7816164E-02  0.1320468E+00
        -11   -1    0    0    0    0  0.00000000000E+00  0.00000000000E+00  0.45593999997E+02  0.45594000000E+02  0.51100000000E-03 0.  1.
         11   -1    0    0    0    0 -0.00000000000E+00 -0.00000000000E+00 -0.45593999997E+02  0.45594000000E+02  0.51100000000E-03 0. -1.
    9900012    2    1    2    0    0 -0.43884984297E+02  0.36919103697E+01 -0.94652717638E+01  0.46142318537E+02  0.10000007072E+02 0.  0.
         12    1    1    2    0    0  0.43884984297E+02 -0.36919103697E+01  0.94652717638E+01  0.45045681463E+02  0.00000000000E+00 0. -1.
         11    1    3    3    0    0 -0.10194484134E+02 -0.39200305405E+00 -0.26043727396E+00  0.10205341787E+02  0.51100000000E-03 0. -1.
        -11    1    3    3    0    0 -0.16431045182E+01  0.20243423895E+01 -0.39529705875E+00  0.26370465665E+01  0.51100000000E-03 0.  1.
        -12    1    3    3    0    0 -0.32047395644E+02  0.20595710342E+01 -0.88095374311E+01  0.33299930183E+02  0.00000000000E+00 0.  1.
</event>
<event>
 7    1  0.2243370E-008  0.4614232E+02  0.7816164E-02  0.1320468E+00
        -11   -1    0    0    0    0  0.00000000000E+00  0.00000000000E+00  0.45593999997E+02  0.45594000000E+02  0.51100000000E-03 0.  1.
         11   -1    0    0    0    0 -0.00000000000E+00 -0.00000000000E+00 -0.45593999997E+02  0.45594000000E+02  0.51100000000E-03 0. -1.
    9900012    2    1    2    0    0  0.21053655546E+02 -0.20212008178E+02  0.34312267246E+02  0.46142319075E+02  0.10000011985E+02 0.  0.
         12    1    1    2    0    0 -0.21053655546E+02  0.20212008178E+02 -0.34312267246E+02  0.45045680925E+02  0.00000000000E+00 0. -1.
         11    1    3    3    0    0  0.12024827779E+02 -0.10382132119E+02  0.23987722178E+02  0.28771443585E+02  0.51100000000E-03 0. -1.
        -11    1    3    3    0    0  0.22129885667E+01 -0.54074754311E+01  0.41737483826E+01  0.71804097903E+01  0.51100000000E-03 0.  1.
         12    1    3    3    0    0  0.68158392000E+01 -0.44224006276E+01  0.61507966854E+01  0.10190465700E+02  0.00000000000E+00 0. -1.
</event>
<event>
 7    1  0.2243370E-008  0.4614232E+02  0.7816164E-02  0.1320468E+00
        -11   -1    0    0    0    0  0.00000000000E+00  0.00000000000E+00  0.45593999997E+02  0.45594000000E+02  0.51100000000E-03 0. -1.
         11   -1    0    0    0    0 -0.00000000000E+00 -0.00000000000E+00 -0.45593999997E+02  0.45594000000E+02  0.51100000000E-03 0.  1.
    9900012    2    1    2    0    0 -0.22225207076E+02 -0.38237172271E+02 -0.85482329572E+01  0.46142318081E+02  0.10000002918E+02 0.  0.
         12    1    1    2    0    0  0.22225207076E+02  0.38237172271E+02  0.85482329572E+01  0.45045681919E+02  0.00000000000E+00 0. -1.
         11    1    3    3    0    0 -0.20475960360E+01 -0.64619611623E+01  0.41964104567E+00  0.67915896856E+01  0.51100000000E-03 0. -1.
        -11    1    3    3    0    0 -0.58356975104E+01 -0.40951950394E+01 -0.20395796091E+01  0.74152459896E+01  0.51100000000E-03 0.  1.
         12    1    3    3    0    0 -0.14341913530E+02 -0.27680016069E+02 -0.69282943937E+01  0.31935482406E+02  0.00000000000E+00 0. -1.
</event>
<event>
 7    1  0.2243370E-008  0.4614232E+02  0.7816164E-02  0.1320468E+00
        -11   -1    0    0    0    0  0.00000000000E+00  0.00000000000E+00  0.45593999997E+02  0.45594000000E+02  0.51100000000E-03 0.  1.
         11   -1    0    0    0    0 -0.00000000000E+00 -0.00000000000E+00 -0.45593999997E+02  0.45594000000E+02  0.51100000000E-03 0. -1.
    9900012    2    1    2    0    0 -0.36121385719E+02 -0.72278266365E+00  0.26904210725E+02  0.46142317901E+02  0.10000001279E+02 0.  0.
         12    1    1    2    0    0  0.36121385719E+02  0.72278266365E+00 -0.26904210725E+02  0.45045682099E+02  0.00000000000E+00 0. -1.
         11    1    3    3    0    0 -0.84002890212E+01 -0.16516466558E+01  0.53686501094E+01  0.10105206409E+02  0.51100000000E-03 0. -1.
        -11    1    3    3    0    0 -0.12799150179E+02  0.34927420198E+01  0.67949196094E+01  0.14905986210E+02  0.51100000000E-03 0.  1.
         12    1    3    3    0    0 -0.14921946518E+02 -0.25638780276E+01  0.14740641006E+02  0.21131125282E+02  0.00000000000E+00 0. -1.
</event>
<event>
 7    1  0.2243370E-008  0.4614232E+02  0.7816164E-02  0.1320468E+00
        -11   -1    0    0    0    0  0.00000000000E+00  0.00000000000E+00  0.45593999997E+02  0.45594000000E+02  0.51100000000E-03 0. -1.
         11   -1    0    0    0    0 -0.00000000000E+00 -0.00000000000E+00 -0.45593999997E+02  0.45594000000E+02  0.51100000000E-03 0.  1.
    9900012    2    1    2    0    0 -0.28207249700E+02 -0.35117310795E+02 -0.48883978967E+00  0.46142318548E+02  0.10000007179E+02 0.  0.
         12    1    1    2    0    0  0.28207249700E+02  0.35117310795E+02  0.48883978967E+00  0.45045681452E+02  0.00000000000E+00 0. -1.
         11    1    3    3    0    0 -0.35111530233E+01 -0.30189120849E+01  0.17217640238E+01  0.49402932448E+01  0.51100000000E-03 0. -1.
        -11    1    3    3    0    0 -0.15845949360E+02 -0.20405775381E+02 -0.48910955288E+01  0.26294725626E+02  0.51100000000E-03 0.  1.
        -12    1    3    3    0    0 -0.88501473175E+01 -0.11692623328E+02  0.26804917154E+01  0.14907299678E+02  0.00000000000E+00 0.  1.
</event>
<event>
 7    1  0.2243370E-008  0.4614232E+02  0.7816164E-02  0.1320468E+00
        -11   -1    0    0    0    0  0.00000000000E+00  0.00000000000E+00  0.45593999997E+02  0.45594000000E+02  0.51100000000E-03 0.  1.
         11   -1    0    0    0    0 -0.00000000000E+00 -0.00000000000E+00 -0.45593999997E+02  0.45594000000E+02  0.51100000000E-03 0. -1.
    9900012    2    1    2    0    0  0.98678492068E+01  0.43822564141E+02  0.33648093857E+01  0.46142317431E+02  0.99999969931E+01 0.  0.
         12    1    1    2    0    0 -0.98678492068E+01 -0.43822564141E+02 -0.33648093857E+01  0.45045682569E+02  0.00000000000E+00 0. -1.
         11    1    3    3    0    0  0.26837408519E+01  0.11355728046E+02  0.32453730296E+01  0.12111460307E+02  0.51100000000E-03 0. -1.
        -11    1    3    3    0    0  0.85300026553E+01  0.26450035331E+02  0.96171414176E+00  0.27808096099E+02  0.51100000000E-03 0.  1.
         12    1    3    3    0    0 -0.13458943004E+01  0.60168007644E+01 -0.84227778568E+00  0.62227610251E+01  0.00000000000E+00 0. -1.
</event>
<event>
 7    1  0.2243370E-008  0.4614232E+02  0.7816164E-02  0.1320468E+00
        -11   -1    0    0    0    0  0.00000000000E+00  0.00000000000E+00  0.45593999997E+02  0.45594000000E+02  0.51100000000E-03 0.  1.
         11   -1    0    0    0    0 -0.00000000000E+00 -0.00000000000E+00 -0.45593999997E+02  0.45594000000E+02  0.51100000000E-03 0. -1.
    9900012    2    1    2    0    0  0.27050519335E+02 -0.33111944399E+02 -0.14176799774E+02  0.46142321961E+02  0.10000038298E+02 0.  0.
         12    1    1    2    0    0 -0.27050519335E+02  0.33111944399E+02  0.14176799774E+02  0.45045678039E+02  0.00000000000E+00 0. -1.
         11    1    3    3    0    0  0.18973670601E+02 -0.16228051633E+02 -0.65906356196E+01  0.25822205832E+02  0.51100000000E-03 0. -1.
        -11    1    3    3    0    0  0.97533866827E+00 -0.42081656741E+01 -0.18548071772E+01  0.47010907015E+01  0.51100000000E-03 0.  1.
         12    1    3    3    0    0  0.71015100652E+01 -0.12675727092E+02 -0.57313569777E+01  0.15619025428E+02  0.00000000000E+00 0. -1.
</event>
<event>
 7    1  0.2243370E-008  0.4614232E+02  0.7816164E-02  0.1320468E+00
        -11   -1    0    0    0    0  0.00000000000E+00  0.00000000000E+00  0.45593999997E+02  0.45594000000E+02  0.51100000000E-03 0. -1.
         11   -1    0    0    0    0 -0.00000000000E+00 -0.00000000000E+00 -0.45593999997E+02  0.45594000000E+02  0.51100000000E-03 0.  1.
    9900012    2    1    2    0    0 -0.40811349081E+02  0.18990152227E+02  0.17092156454E+01  0.46142317482E+02  0.99999974519E+01 0.  0.
         12    1    1    2    0    0  0.40811349081E+02 -0.18990152227E+02 -0.17092156454E+01  0.45045682518E+02  0.00000000000E+00 0. -1.
         11    1    3    3    0    0 -0.98781822507E+01  0.67092833891E+01  0.40470206899E+01  0.12608383913E+02  0.51100000000E-03 0. -1.
        -11    1    3    3    0    0 -0.15440726508E+02  0.63880609686E+01  0.49997983998E+00  0.16717456090E+02  0.51100000000E-03 0.  1.
         12    1    3    3    0    0 -0.15492440322E+02  0.58928078697E+01 -0.28377848845E+01  0.16816477478E+02  0.00000000000E+00 0. -1.
</event>
<event>
 7    1  0.2243370E-008  0.4614232E+02  0.7816164E-02  0.1320468E+00
        -11   -1    0    0    0    0  0.00000000000E+00  0.00000000000E+00  0.45593999997E+02  0.45594000000E+02  0.51100000000E-03 0. -1.
         11   -1    0    0    0    0 -0.00000000000E+00 -0.00000000000E+00 -0.45593999997E+02  0.45594000000E+02  0.51100000000E-03 0.  1.
    9900012    2    1    2    0    0 -0.53383171118E+01  0.31271425539E+02 -0.31979896085E+02  0.46142318315E+02  0.10000005054E+02 0.  0.
         12    1    1    2    0    0  0.53383171118E+01 -0.31271425539E+02  0.31979896085E+02  0.45045681685E+02  0.00000000000E+00 0. -1.
         11    1    3    3    0    0  0.18977347717E+01  0.42535171817E+01 -0.60838299803E+01  0.76620358371E+01  0.51100000000E-03 0. -1.
        -11    1    3    3    0    0 -0.45737441114E+01  0.18478138793E+02 -0.20756812089E+02  0.28163913024E+02  0.51100000000E-03 0.  1.
        -12    1    3    3    0    0 -0.26623077721E+01  0.85397695638E+01 -0.51392540156E+01  0.10316369454E+02  0.00000000000E+00 0.  1.
</event>
<event>
 7    1  0.2243370E-008  0.4614232E+02  0.7816164E-02  0.1320468E+00
        -11   -1    0    0    0    0  0.00000000000E+00  0.00000000000E+00  0.45593999997E+02  0.45594000000E+02  0.51100000000E-03 0. -1.
         11   -1    0    0    0    0 -0.00000000000E+00 -0.00000000000E+00 -0.45593999997E+02  0.45594000000E+02  0.51100000000E-03 0.  1.
    9900012    2    1    2    0    0 -0.40877886327E+02  0.17203919036E+02 -0.78827028133E+01  0.46142318471E+02  0.10000006474E+02 0.  0.
         12    1    1    2    0    0  0.40877886327E+02 -0.17203919036E+02  0.78827028133E+01  0.45045681529E+02  0.00000000000E+00 0. -1.
         11    1    3    3    0    0 -0.97424170117E+01  0.56110234481E+01 -0.67739628580E+00  0.11263087470E+02  0.51100000000E-03 0. -1.
        -11    1    3    3    0    0 -0.10400349758E+02  0.64605816044E+01  0.27437337143E+00  0.12246700403E+02  0.51100000000E-03 0.  1.
        -12    1    3    3    0    0 -0.20735119557E+02  0.51323139839E+01 -0.74796798989E+01  0.22632530598E+02  0.00000000000E+00 0.  1.
</event>
<event>
 7    1  0.2243370E-008  0.4614232E+02  0.7816164E-02  0.1320468E+00
        -11   -1    0    0    0    0  0.00000000000E+00  0.00000000000E+00  0.45593999997E+02  0.45594000000E+02  0.51100000000E-03 0. -1.
         11   -1    0    0    0    0 -0.00000000000E+00 -0.00000000000E+00 -0.45593999997E+02  0.45594000000E+02  0.51100000000E-03 0.  1.
    9900012    2    1    2    0    0 -0.40675911157E+02 -0.16717111554E+02  0.97530473766E+01  0.46142317629E+02  0.99999987930E+01 0.  0.
         12    1    1    2    0    0  0.40675911157E+02  0.16717111554E+02 -0.97530473766E+01  0.45045682371E+02  0.00000000000E+00 0. -1.
         11    1    3    3    0    0 -0.26202252733E+02 -0.98653135961E+01  0.84330406238E+01  0.29240359694E+02  0.51100000000E-03 0. -1.
        -11    1    3    3    0    0 -0.26101426102E+01 -0.37072290101E+01  0.89498516099E+00  0.46214056388E+01  0.51100000000E-03 0.  1.
        -12    1    3    3    0    0 -0.11863515814E+02 -0.31445689482E+01  0.42502159178E+00  0.12280552296E+02  0.00000000000E+00 0.  1.
</event>
<event>
 7    1  0.2243370E-008  0.4614232E+02  0.7816164E-02  0.1320468E+00
        -11   -1    0    0    0    0  0.00000000000E+00  0.00000000000E+00  0.45593999997E+02  0.45594000000E+02  0.51100000000E-03 0.  1.
         11   -1    0    0    0    0 -0.00000000000E+00 -0.00000000000E+00 -0.45593999997E+02  0.45594000000E+02  0.51100000000E-03 0. -1.
    9900012    2    1    2    0    0 -0.11330032768E+02 -0.37031531901E+02  0.23008898279E+02  0.46142318770E+02  0.10000009200E+02 0.  0.
         12    1    1    2    0    0  0.11330032768E+02  0.37031531901E+02 -0.23008898279E+02  0.45045681230E+02  0.00000000000E+00 0. -1.
         11    1    3    3    0    0 -0.22182898265E+01 -0.28951273718E+01  0.70939195340E+00  0.37156169686E+01  0.51100000000E-03 0. -1.
        -11    1    3    3    0    0 -0.27866223454E+01 -0.23707114240E+02  0.13991701756E+02  0.27668759422E+02  0.51100000000E-03 0.  1.
        -12    1    3    3    0    0 -0.63251205965E+01 -0.10429290289E+02  0.83078045697E+01  0.14757942379E+02  0.00000000000E+00 0.  1.
</event>
<event>
 7    1  0.2243370E-008  0.4614232E+02  0.7816164E-02  0.1320468E+00
        -11   -1    0    0    0    0  0.00000000000E+00  0.00000000000E+00  0.45593999997E+02  0.45594000000E+02  0.51100000000E-03 0.  1.
         11   -1    0    0    0    0 -0.00000000000E+00 -0.00000000000E+00 -0.45593999997E+02  0.45594000000E+02  0.51100000000E-03 0. -1.
    9900012    2    1    2    0    0  0.37619868286E+02  0.18153891942E+02  0.16861058306E+02  0.46142316859E+02  0.99999917696E+01 0.  0.
         12    1    1    2    0    0 -0.37619868286E+02 -0.18153891942E+02 -0.16861058306E+02  0.45045683141E+02  0.00000000000E+00 0. -1.
         11    1    3    3    0    0 -0.47507870591E+00  0.10980780811E+00  0.63367596495E+00  0.79956426959E+00  0.51100000000E-03 0. -1.
        -11    1    3    3    0    0  0.54550886913E+01  0.12623243347E+01  0.14990493853E+01  0.57964303392E+01  0.51100000000E-03 0.  1.
        -12    1    3    3    0    0  0.32639858300E+02  0.16781759799E+02  0.14728332956E+02  0.39546322250E+02  0.00000000000E+00 0.  1.
</event>
<event>
 7    1  0.2243370E-008  0.4614232E+02  0.7816164E-02  0.1320468E+00
        -11   -1    0    0    0    0  0.00000000000E+00  0.00000000000E+00  0.45593999997E+02  0.45594000000E+02  0.51100000000E-03 0.  1.
         11   -1    0    0    0    0 -0.00000000000E+00 -0.00000000000E+00 -0.45593999997E+02  0.45594000000E+02  0.51100000000E-03 0. -1.
    9900012    2    1    2    0    0 -0.69902510146E+01 -0.32988432190E+02  0.29866591117E+02  0.46142317271E+02  0.99999955287E+01 0.  0.
         12    1    1    2    0    0  0.69902510146E+01  0.32988432190E+02 -0.29866591117E+02  0.45045682729E+02  0.00000000000E+00 0. -1.
         11    1    3    3    0    0 -0.13995284151E+01 -0.12263171876E+02  0.97153650001E+01  0.15707717262E+02  0.51100000000E-03 0. -1.
        -11    1    3    3    0    0 -0.49403459099E+01 -0.20794324792E+02  0.17265245930E+02  0.27475437731E+02  0.51100000000E-03 0.  1.
         12    1    3    3    0    0 -0.65037668954E+00  0.69064477999E-01  0.28859801876E+01  0.29591622773E+01  0.00000000000E+00 0. -1.
</event>
<event>
 7    1  0.2243370E-008  0.4614232E+02  0.7816164E-02  0.1320468E+00
        -11   -1    0    0    0    0  0.00000000000E+00  0.00000000000E+00  0.45593999997E+02  0.45594000000E+02  0.51100000000E-03 0.  1.
         11   -1    0    0    0    0 -0.00000000000E+00 -0.00000000000E+00 -0.45593999997E+02  0.45594000000E+02  0.51100000000E-03 0. -1.
    9900012    2    1    2    0    0 -0.11172396989E+02 -0.39644592759E+02  0.18237248267E+02  0.46142318588E+02  0.10000007544E+02 0.  0.
         12    1    1    2    0    0  0.11172396989E+02  0.39644592759E+02 -0.18237248267E+02  0.45045681412E+02  0.00000000000E+00 0. -1.
         11    1    3    3    0    0 -0.13649967978E+01 -0.80696919020E+01  0.45993601259E+01  0.93881445175E+01  0.51100000000E-03 0. -1.
        -11    1    3    3    0    0 -0.10725379390E+02 -0.22786328731E+02  0.87829660535E+01  0.26671914687E+02  0.51100000000E-03 0.  1.
         12    1    3    3    0    0  0.91797919859E+00 -0.87885721253E+01  0.48549220875E+01  0.10082259384E+02  0.00000000000E+00 0. -1.
</event>
<event>
 7    1  0.2243370E-008  0.4614232E+02  0.7816164E-02  0.1320468E+00
        -11   -1    0    0    0    0  0.00000000000E+00  0.00000000000E+00  0.45593999997E+02  0.45594000000E+02  0.51100000000E-03 0. -1.
         11   -1    0    0    0    0 -0.00000000000E+00 -0.00000000000E+00 -0.45593999997E+02  0.45594000000E+02  0.51100000000E-03 0.  1.
    9900012    2    1    2    0    0  0.30958383348E+02  0.17206769860E+02  0.27831976085E+02  0.46142319615E+02  0.10000016906E+02 0.  0.
         12    1    1    2    0    0 -0.30958383348E+02 -0.17206769860E+02 -0.27831976085E+02  0.45045680385E+02  0.00000000000E+00 0. -1.
         11    1    3    3    0    0  0.22511981035E+02  0.12046105301E+02  0.24129733289E+02  0.35130356842E+02  0.51100000000E-03 0. -1.
        -11    1    3    3    0    0  0.60917557372E+01  0.36234970405E+01  0.40742250408E+01  0.81754833929E+01  0.51100000000E-03 0.  1.
         12    1    3    3    0    0  0.23546465765E+01  0.15371675191E+01 -0.37198224493E+00  0.28364793799E+01  0.00000000000E+00 0. -1.
</event>
<event>
 7    1  0.2243370E-008  0.4614232E+02  0.7816164E-02  0.1320468E+00
        -11   -1    0    0    0    0  0.00000000000E+00  0.00000000000E+00  0.45593999997E+02  0.45594000000E+02  0.51100000000E-03 0.  1.
         11   -1    0    0    0    0 -0.00000000000E+00 -0.00000000000E+00 -0.45593999997E+02  0.45594000000E+02  0.51100000000E-03 0. -1.
    9900012    2    1    2    0    0  0.31797158776E+02  0.31906267451E+02  0.21038858408E+00  0.46142317941E+02  0.10000001637E+02 0.  0.
         12    1    1    2    0    0 -0.31797158776E+02 -0.31906267451E+02 -0.21038858408E+00  0.45045682059E+02  0.00000000000E+00 0. -1.
         11    1    3    3    0    0  0.25934589720E+00  0.30605656286E+01  0.90346776011E+00  0.32016521541E+01  0.51100000000E-03 0. -1.
        -11    1    3    3    0    0  0.19265130509E+02  0.14875844650E+02 -0.41358971755E+00  0.24343522019E+02  0.51100000000E-03 0.  1.
        -12    1    3    3    0    0  0.12272682370E+02  0.13969857172E+02 -0.27948945849E+00  0.18597143768E+02  0.00000000000E+00 0.  1.
</event>
<event>
 7    1  0.2243370E-008  0.4614232E+02  0.7816164E-02  0.1320468E+00
        -11   -1    0    0    0    0  0.00000000000E+00  0.00000000000E+00  0.45593999997E+02  0.45594000000E+02  0.51100000000E-03 0.  1.
         11   -1    0    0    0    0 -0.00000000000E+00 -0.00000000000E+00 -0.45593999997E+02  0.45594000000E+02  0.51100000000E-03 0. -1.
    9900012    2    1    2    0    0  0.96448987217E+01 -0.40799565974E+02  0.16476796849E+02  0.46142317750E+02  0.99999998975E+01 0.  0.
         12    1    1    2    0    0 -0.96448987217E+01  0.40799565974E+02 -0.16476796849E+02  0.45045682250E+02  0.00000000000E+00 0. -1.
         11    1    3    3    0    0  0.38833041450E+01 -0.56347066830E+01  0.17584747126E+01  0.70655646669E+01  0.51100000000E-03 0. -1.
        -11    1    3    3    0    0  0.27163713026E+01 -0.23101086100E+02  0.12605886128E+02  0.26456515594E+02  0.51100000000E-03 0.  1.
         12    1    3    3    0    0  0.30452232741E+01 -0.12063773191E+02  0.21124360080E+01  0.12620237489E+02  0.00000000000E+00 0. -1.
</event>
<event>
 7    1  0.2243370E-008  0.4614232E+02  0.7816164E-02  0.1320468E+00
        -11   -1    0    0    0    0  0.00000000000E+00  0.00000000000E+00  0.45593999997E+02  0.45594000000E+02  0.51100000000E-03 0.  1.
         11   -1    0    0    0    0 -0.00000000000E+00 -0.00000000000E+00 -0.45593999997E+02  0.45594000000E+02  0.51100000000E-03 0. -1.
    9900012    2    1    2    0    0  0.39133557575E+02 -0.39307442793E+01  0.21959674585E+02  0.46142318887E+02  0.10000010266E+02 0.  0.
         12    1    1    2    0    0 -0.39133557575E+02  0.39307442793E+01 -0.21959674585E+02  0.45045681113E+02  0.00000000000E+00 0. -1.
         11    1    3    3    0    0  0.90950461187E+01 -0.39337212795E+01  0.53160577446E+01  0.11245198852E+02  0.51100000000E-03 0. -1.
        -11    1    3    3    0    0  0.14167464181E+02 -0.30901907165E+01  0.76590674090E+01  0.16399013197E+02  0.51100000000E-03 0.  1.
         12    1    3    3    0    0  0.15871047275E+02  0.30931677166E+01  0.89845494309E+01  0.18498106839E+02  0.00000000000E+00 0. -1.
</event>
<event>
 7    1  0.2243370E-008  0.4614232E+02  0.7816164E-02  0.1320468E+00
        -11   -1    0    0    0    0  0.00000000000E+00  0.00000000000E+00  0.45593999997E+02  0.45594000000E+02  0.51100000000E-03 0. -1.
         11   -1    0    0    0    0 -0.00000000000E+00 -0.00000000000E+00 -0.45593999997E+02  0.45594000000E+02  0.51100000000E-03 0.  1.
    9900012    2    1    2    0    0  0.19130457663E+02 -0.24593263624E+02 -0.32531682438E+02  0.46142318872E+02  0.10000010130E+02 0.  0.
         12    1    1    2    0    0 -0.19130457663E+02  0.24593263624E+02  0.32531682438E+02  0.45045681128E+02  0.00000000000E+00 0. -1.
         11    1    3    3    0    0  0.78098606603E+00 -0.98524874383E+00 -0.58876194190E+01  0.60203585446E+01  0.51100000000E-03 0. -1.
        -11    1    3    3    0    0  0.65654421253E+01 -0.10216243065E+02 -0.11428030791E+02  0.16675627145E+02  0.51100000000E-03 0.  1.
         12    1    3    3    0    0  0.11784029472E+02 -0.13391771815E+02 -0.15216032228E+02  0.23446333182E+02  0.00000000000E+00 0. -1.
</event>
<event>
 7    1  0.2243370E-008  0.4614232E+02  0.7816164E-02  0.1320468E+00
        -11   -1    0    0    0    0  0.00000000000E+00  0.00000000000E+00  0.45593999997E+02  0.45594000000E+02  0.51100000000E-03 0.  1.
         11   -1    0    0    0    0 -0.00000000000E+00 -0.00000000000E+00 -0.45593999997E+02  0.45594000000E+02  0.51100000000E-03 0. -1.
    9900012    2    1    2    0    0 -0.24439968076E+02  0.22986551307E+02  0.30056943509E+02  0.46142318368E+02  0.10000005538E+02 0.  0.
         12    1    1    2    0    0  0.24439968076E+02 -0.22986551307E+02 -0.30056943509E+02  0.45045681632E+02  0.00000000000E+00 0. -1.
         11    1    3    3    0    0 -0.20134492012E+01  0.37521273503E+01  0.55200815260E+01  0.69716380897E+01  0.51100000000E-03 0. -1.
        -11    1    3    3    0    0 -0.98240284508E+01  0.13445320044E+02  0.12821210750E+02  0.21015984666E+02  0.51100000000E-03 0.  1.
         12    1    3    3    0    0 -0.12602490425E+02  0.57891039124E+01  0.11715651232E+02  0.18154695613E+02  0.00000000000E+00 0. -1.
</event>
<event>
 7    1  0.2243370E-008  0.4614231E+02  0.7816164E-02  0.1320468E+00
        -11   -1    0    0    0    0  0.00000000000E+00  0.00000000000E+00  0.45593999997E+02  0.45594000000E+02  0.51100000000E-03 0.  1.
         11   -1    0    0    0    0 -0.00000000000E+00 -0.00000000000E+00 -0.45593999997E+02  0.45594000000E+02  0.51100000000E-03 0. -1.
    9900012    2    1    2    0    0  0.29311977151E+02 -0.34040459098E+02  0.33420135214E+01  0.46142313031E+02  0.99999568704E+01 0.  0.
         12    1    1    2    0    0 -0.29311977151E+02  0.34040459098E+02 -0.33420135214E+01  0.45045686969E+02  0.00000000000E+00 0. -1.
         11    1    3    3    0    0  0.18588842943E+02 -0.18908791634E+02  0.18502165425E+01  0.26580270588E+02  0.51100000000E-03 0. -1.
        -11    1    3    3    0    0  0.80063248474E+01 -0.65773838525E+01 -0.47970381490E+00  0.10372720565E+02  0.51100000000E-03 0.  1.
         12    1    3    3    0    0  0.27168093607E+01 -0.85542836116E+01  0.19715007938E+01  0.91893218787E+01  0.00000000000E+00 0. -1.
</event>
<event>
 7    1  0.2243370E-008  0.4614232E+02  0.7816164E-02  0.1320468E+00
        -11   -1    0    0    0    0  0.00000000000E+00  0.00000000000E+00  0.45593999997E+02  0.45594000000E+02  0.51100000000E-03 0. -1.
         11   -1    0    0    0    0 -0.00000000000E+00 -0.00000000000E+00 -0.45593999997E+02  0.45594000000E+02  0.51100000000E-03 0.  1.
    9900012    2    1    2    0    0  0.14475454153E+02  0.30821016809E+00 -0.42655362022E+02  0.46142315682E+02  0.99999810419E+01 0.  0.
         12    1    1    2    0    0 -0.14475454153E+02 -0.30821016809E+00  0.42655362022E+02  0.45045684318E+02  0.00000000000E+00 0. -1.
         11    1    3    3    0    0  0.59326629328E+01  0.87138009028E+00 -0.11965275637E+02  0.13383707038E+02  0.51100000000E-03 0. -1.
        -11    1    3    3    0    0  0.63750651931E+01  0.17755187078E+01 -0.11196922319E+02  0.13006344320E+02  0.51100000000E-03 0.  1.
        -12    1    3    3    0    0  0.21677260272E+01 -0.23386886300E+01 -0.19493164066E+02  0.19752264324E+02  0.00000000000E+00 0.  1.
</event>
<event>
 7    1  0.2243370E-008  0.4614232E+02  0.7816164E-02  0.1320468E+00
        -11   -1    0    0    0    0  0.00000000000E+00  0.00000000000E+00  0.45593999997E+02  0.45594000000E+02  0.51100000000E-03 0. -1.
         11   -1    0    0    0    0 -0.00000000000E+00 -0.00000000000E+00 -0.45593999997E+02  0.45594000000E+02  0.51100000000E-03 0.  1.
    9900012    2    1    2    0    0 -0.40039643912E+02 -0.20561650908E+02  0.17773801904E+01  0.46142315934E+02  0.99999833403E+01 0.  0.
         12    1    1    2    0    0  0.40039643912E+02  0.20561650908E+02 -0.17773801904E+01  0.45045684066E+02  0.00000000000E+00 0. -1.
         11    1    3    3    0    0 -0.14760085949E+01  0.25794643633E+00 -0.12178939625E+00  0.15033198776E+01  0.51100000000E-03 0. -1.
        -11    1    3    3    0    0 -0.16755542171E+02 -0.11922378168E+02 -0.23753627588E+01  0.20701054154E+02  0.51100000000E-03 0.  1.
        -12    1    3    3    0    0 -0.21808093146E+02 -0.88972191763E+01  0.42745323454E+01  0.23937941902E+02  0.00000000000E+00 0.  1.
</event>
<event>
 7    1  0.2243370E-008  0.4614232E+02  0.7816164E-02  0.1320468E+00
        -11   -1    0    0    0    0  0.00000000000E+00  0.00000000000E+00  0.45593999997E+02  0.45594000000E+02  0.51100000000E-03 0.  1.
         11   -1    0    0    0    0 -0.00000000000E+00 -0.00000000000E+00 -0.45593999997E+02  0.45594000000E+02  0.51100000000E-03 0. -1.
    9900012    2    1    2    0    0 -0.17194065128E+02 -0.29372803246E+02  0.29507897348E+02  0.46142318164E+02  0.10000003678E+02 0.  0.
         12    1    1    2    0    0  0.17194065128E+02  0.29372803246E+02 -0.29507897348E+02  0.45045681836E+02  0.00000000000E+00 0. -1.
         11    1    3    3    0    0 -0.85311401656E+01 -0.15530938594E+02  0.12993757754E+02  0.21973350836E+02  0.51100000000E-03 0.  1.
        -11    1    3    3    0    0 -0.12228620468E+01 -0.14550421990E+01  0.60141528350E+01  0.63073428613E+01  0.51100000000E-03 0. -1.
         12    1    3    3    0    0 -0.74400629155E+01 -0.12386822453E+02  0.10499986759E+02  0.17861624467E+02  0.00000000000E+00 0. -1.
</event>
<event>
 7    1  0.2243370E-008  0.4614231E+02  0.7816164E-02  0.1320468E+00
        -11   -1    0    0    0    0  0.00000000000E+00  0.00000000000E+00  0.45593999997E+02  0.45594000000E+02  0.51100000000E-03 0. -1.
         11   -1    0    0    0    0 -0.00000000000E+00 -0.00000000000E+00 -0.45593999997E+02  0.45594000000E+02  0.51100000000E-03 0.  1.
    9900012    2    1    2    0    0  0.39766482261E+02  0.83842168475E+01 -0.19427957525E+02  0.46142314999E+02  0.99999748156E+01 0.  0.
         12    1    1    2    0    0 -0.39766482261E+02 -0.83842168475E+01  0.19427957525E+02  0.45045685001E+02  0.00000000000E+00 0. -1.
         11    1    3    3    0    0  0.21255659300E+02  0.77399639397E+01 -0.13386847747E+02  0.26285315043E+02  0.51100000000E-03 0. -1.
        -11    1    3    3    0    0  0.15277951151E+02  0.17084714636E+01 -0.58482826266E+01  0.16448011310E+02  0.51100000000E-03 0.  1.
        -12    1    3    3    0    0  0.32328718106E+01 -0.10642185558E+01 -0.19282715111E+00  0.34089886460E+01  0.00000000000E+00 0.  1.
</event>
<event>
 7    1  0.2243370E-008  0.4614232E+02  0.7816164E-02  0.1320468E+00
        -11   -1    0    0    0    0  0.00000000000E+00  0.00000000000E+00  0.45593999997E+02  0.45594000000E+02  0.51100000000E-03 0.  1.
         11   -1    0    0    0    0 -0.00000000000E+00 -0.00000000000E+00 -0.45593999997E+02  0.45594000000E+02  0.51100000000E-03 0. -1.
    9900012    2    1    2    0    0 -0.29888896219E+02  0.33395001019E+02  0.45322487005E+01  0.46142317760E+02  0.99999999863E+01 0.  0.
         12    1    1    2    0    0  0.29888896219E+02 -0.33395001019E+02 -0.45322487005E+01  0.45045682240E+02  0.00000000000E+00 0. -1.
         11    1    3    3    0    0 -0.14282685686E+02  0.15670245802E+02  0.11178982114E+01  0.21232084461E+02  0.51100000000E-03 0. -1.
        -11    1    3    3    0    0 -0.33223595364E+01  0.43071396662E+01  0.39313060596E+01  0.67115342946E+01  0.51100000000E-03 0.  1.
        -12    1    3    3    0    0 -0.12283850997E+02  0.13417615550E+02 -0.51695557042E+00  0.18198699004E+02  0.00000000000E+00 0.  1.
</event>
<event>
 7    1  0.2243370E-008  0.4614232E+02  0.7816164E-02  0.1320468E+00
        -11   -1    0    0    0    0  0.00000000000E+00  0.00000000000E+00  0.45593999997E+02  0.45594000000E+02  0.51100000000E-03 0.  1.
         11   -1    0    0    0    0 -0.00000000000E+00 -0.00000000000E+00 -0.45593999997E+02  0.45594000000E+02  0.51100000000E-03 0. -1.
    9900012    2    1    2    0    0  0.64512148548E+01 -0.16075358131E+02  0.41582185679E+02  0.46142317876E+02  0.10000001051E+02 0.  0.
         12    1    1    2    0    0 -0.64512148548E+01  0.16075358131E+02 -0.41582185679E+02  0.45045682124E+02  0.00000000000E+00 0. -1.
         11    1    3    3    0    0  0.51892194298E-01 -0.75839746077E+01  0.11355667896E+02  0.13655422266E+02  0.51100000000E-03 0. -1.
        -11    1    3    3    0    0  0.41443657661E+01 -0.82548734218E+01  0.20268139209E+02  0.22273665393E+02  0.51100000000E-03 0.  1.
        -12    1    3    3    0    0  0.22549568945E+01 -0.23651010105E+00  0.99583785746E+01  0.10213230217E+02  0.00000000000E+00 0.  1.
</event>
<event>
 7    1  0.2243370E-008  0.4614232E+02  0.7816164E-02  0.1320468E+00
        -11   -1    0    0    0    0  0.00000000000E+00  0.00000000000E+00  0.45593999997E+02  0.45594000000E+02  0.51100000000E-03 0.  1.
         11   -1    0    0    0    0 -0.00000000000E+00 -0.00000000000E+00 -0.45593999997E+02  0.45594000000E+02  0.51100000000E-03 0. -1.
    9900012    2    1    2    0    0 -0.88493792186E+01 -0.27355895745E+02  0.34676460472E+02  0.46142318126E+02  0.10000003330E+02 0.  0.
         12    1    1    2    0    0  0.88493792186E+01  0.27355895745E+02 -0.34676460472E+02  0.45045681874E+02  0.00000000000E+00 0. -1.
         11    1    3    3    0    0 -0.71289417742E+01 -0.17380182972E+02  0.17744547093E+02  0.25841082074E+02  0.51100000000E-03 0. -1.
        -11    1    3    3    0    0 -0.26635869989E+01 -0.77715915624E+01  0.98600915276E+01  0.12834084942E+02  0.51100000000E-03 0.  1.
         12    1    3    3    0    0  0.94314955450E+00 -0.22041212103E+01  0.70718218515E+01  0.74671511094E+01  0.00000000000E+00 0. -1.
</event>
<event>
 7    1  0.2243370E-008  0.4614232E+02  0.7816164E-02  0.1320468E+00
        -11   -1    0    0    0    0  0.00000000000E+00  0.00000000000E+00  0.45593999997E+02  0.45594000000E+02  0.51100000000E-03 0.  1.
         11   -1    0    0    0    0 -0.00000000000E+00 -0.00000000000E+00 -0.45593999997E+02  0.45594000000E+02  0.51100000000E-03 0. -1.
    9900012    2    1    2    0    0 -0.26549049783E+02  0.34026313703E+02  0.12902377522E+02  0.46142318583E+02  0.10000007492E+02 0.  0.
         12    1    1    2    0    0  0.26549049783E+02 -0.34026313703E+02 -0.12902377522E+02  0.45045681417E+02  0.00000000000E+00 0. -1.
         11    1    3    3    0    0 -0.12858911210E+02  0.11860505305E+02  0.83450193617E+01  0.19382015685E+02  0.51100000000E-03 0. -1.
        -11    1    3    3    0    0 -0.11731059972E+02  0.15610514802E+02  0.32989541129E+01  0.19803763252E+02  0.51100000000E-03 0.  1.
         12    1    3    3    0    0 -0.19590786011E+01  0.65552935957E+01  0.12584040478E+01  0.69565396454E+01  0.00000000000E+00 0. -1.
</event>
<event>
 7    1  0.2243370E-008  0.4614232E+02  0.7816164E-02  0.1320468E+00
        -11   -1    0    0    0    0  0.00000000000E+00  0.00000000000E+00  0.45593999997E+02  0.45594000000E+02  0.51100000000E-03 0. -1.
         11   -1    0    0    0    0 -0.00000000000E+00 -0.00000000000E+00 -0.45593999997E+02  0.45594000000E+02  0.51100000000E-03 0.  1.
    9900012    2    1    2    0    0 -0.16568308833E+02 -0.38938490779E+02 -0.15440159941E+02  0.46142318068E+02  0.10000002795E+02 0.  0.
         12    1    1    2    0    0  0.16568308833E+02  0.38938490779E+02  0.15440159941E+02  0.45045681932E+02  0.00000000000E+00 0. -1.
         11    1    3    3    0    0 -0.10520627076E+00  0.17632958907E+00 -0.48233787958E+00  0.52422378292E+00  0.51100000000E-03 0. -1.
        -11    1    3    3    0    0 -0.10185669692E+02 -0.14678622714E+02 -0.62296448340E+01  0.18921371696E+02  0.51100000000E-03 0.  1.
         12    1    3    3    0    0 -0.62774328705E+01 -0.24436197655E+02 -0.87281772270E+01  0.26696722589E+02  0.00000000000E+00 0. -1.
</event>
<event>
 7    1  0.2243370E-008  0.4614232E+02  0.7816164E-02  0.1320468E+00
        -11   -1    0    0    0    0  0.00000000000E+00  0.00000000000E+00  0.45593999997E+02  0.45594000000E+02  0.51100000000E-03 0.  1.
         11   -1    0    0    0    0 -0.00000000000E+00 -0.00000000000E+00 -0.45593999997E+02  0.45594000000E+02  0.51100000000E-03 0. -1.
    9900012    2    1    2    0    0 -0.17308373981E+02  0.22169395665E+02  0.35185956677E+02  0.46142318061E+02  0.10000002734E+02 0.  0.
         12    1    1    2    0    0  0.17308373981E+02 -0.22169395665E+02 -0.35185956677E+02  0.45045681939E+02  0.00000000000E+00 0. -1.
         11    1    3    3    0    0 -0.10081368813E+02  0.17780036727E+02  0.26797933203E+02  0.33703010658E+02  0.51100000000E-03 0.  1.
        -11    1    3    3    0    0 -0.35459085478E+01  0.30868651986E+01  0.23684506931E+01  0.52641963423E+01  0.51100000000E-03 0. -1.
        -12    1    3    3    0    0 -0.36810966202E+01  0.13024937396E+01  0.60195727813E+01  0.71751110610E+01  0.00000000000E+00 0.  1.
</event>
<event>
 7    1  0.2243370E-008  0.4614232E+02  0.7816164E-02  0.1320468E+00
        -11   -1    0    0    0    0  0.00000000000E+00  0.00000000000E+00  0.45593999997E+02  0.45594000000E+02  0.51100000000E-03 0.  1.
         11   -1    0    0    0    0 -0.00000000000E+00 -0.00000000000E+00 -0.45593999997E+02  0.45594000000E+02  0.51100000000E-03 0. -1.
    9900012    2    1    2    0    0  0.23965631817E+02  0.24636892453E+02  0.29116757528E+02  0.46142317109E+02  0.99999940561E+01 0.  0.
         12    1    1    2    0    0 -0.23965631817E+02 -0.24636892453E+02 -0.29116757528E+02  0.45045682891E+02  0.00000000000E+00 0. -1.
         11    1    3    3    0    0  0.13325938828E+01 -0.27627679237E-01  0.18351534396E+00  0.13454545283E+01  0.51100000000E-03 0. -1.
        -11    1    3    3    0    0  0.42369289701E+01  0.28223500628E+01  0.17849541781E+01  0.53947463939E+01  0.51100000000E-03 0.  1.
         12    1    3    3    0    0  0.18396108964E+02  0.21842170070E+02  0.27148288006E+02  0.39402116187E+02  0.00000000000E+00 0. -1.
</event>
<event>
 7    1  0.2243370E-008  0.4614232E+02  0.7816164E-02  0.1320468E+00
        -11   -1    0    0    0    0  0.00000000000E+00  0.00000000000E+00  0.45593999997E+02  0.45594000000E+02  0.51100000000E-03 0. -1.
         11   -1    0    0    0    0 -0.00000000000E+00 -0.00000000000E+00 -0.45593999997E+02  0.45594000000E+02  0.51100000000E-03 0.  1.
    9900012    2    1    2    0    0 -0.34627938452E+02  0.44280240061E+01 -0.28467734054E+02  0.46142318740E+02  0.10000008923E+02 0.  0.
         12    1    1    2    0    0  0.34627938452E+02 -0.44280240061E+01  0.28467734054E+02  0.45045681260E+02  0.00000000000E+00 0. -1.
         11    1    3    3    0    0 -0.62203203022E+00  0.13966401673E+01 -0.15117455816E+01  0.21500936185E+01  0.51100000000E-03 0.  1.
        -11    1    3    3    0    0 -0.25307240073E+02  0.33069039764E+01 -0.16514703499E+02  0.30399464566E+02  0.51100000000E-03 0. -1.
         12    1    3    3    0    0 -0.86986663494E+01 -0.27552013765E+00 -0.10441284973E+02  0.13592760555E+02  0.00000000000E+00 0. -1.
</event>
<event>
 7    1  0.2243370E-008  0.4614232E+02  0.7816164E-02  0.1320468E+00
        -11   -1    0    0    0    0  0.00000000000E+00  0.00000000000E+00  0.45593999997E+02  0.45594000000E+02  0.51100000000E-03 0.  1.
         11   -1    0    0    0    0 -0.00000000000E+00 -0.00000000000E+00 -0.45593999997E+02  0.45594000000E+02  0.51100000000E-03 0. -1.
    9900012    2    1    2    0    0 -0.24558235076E+01 -0.35502736942E+02  0.27615893817E+02  0.46142323284E+02  0.10000050366E+02 0.  0.
         12    1    1    2    0    0  0.24558235076E+01  0.35502736942E+02 -0.27615893817E+02  0.45045676716E+02  0.00000000000E+00 0. -1.
         11    1    3    3    0    0  0.52401062182E+00 -0.96667260764E+01  0.74025067118E+01  0.12186766841E+02  0.51100000000E-03 0. -1.
        -11    1    3    3    0    0  0.47249807064E+00 -0.22425571550E+02  0.16680960495E+02  0.27953245913E+02  0.51100000000E-03 0.  1.
         12    1    3    3    0    0 -0.34523322001E+01 -0.34104393150E+01  0.35324266099E+01  0.60023105297E+01  0.00000000000E+00 0. -1.
</event>
<event>
 7    1  0.2243370E-008  0.4614232E+02  0.7816164E-02  0.1320468E+00
        -11   -1    0    0    0    0  0.00000000000E+00  0.00000000000E+00  0.45593999997E+02  0.45594000000E+02  0.51100000000E-03 0.  1.
         11   -1    0    0    0    0 -0.00000000000E+00 -0.00000000000E+00 -0.45593999997E+02  0.45594000000E+02  0.51100000000E-03 0. -1.
    9900012    2    1    2    0    0 -0.26528516690E+02  0.82398179355E+01  0.35460637563E+02  0.46142316369E+02  0.99999873097E+01 0.  0.
         12    1    1    2    0    0  0.26528516690E+02 -0.82398179355E+01 -0.35460637563E+02  0.45045683631E+02  0.00000000000E+00 0. -1.
         11    1    3    3    0    0 -0.11454642703E+02  0.57320947044E+01  0.22227096827E+02  0.25653646579E+02  0.51100000000E-03 0.  1.
        -11    1    3    3    0    0 -0.95537204137E+01  0.47553652921E+00  0.97175661924E+01  0.13635644528E+02  0.51100000000E-03 0. -1.
        -12    1    3    3    0    0 -0.55201535729E+01  0.20321867019E+01  0.35159745433E+01  0.68530252625E+01  0.00000000000E+00 0.  1.
</event>
<event>
 7    1  0.2243370E-008  0.4614232E+02  0.7816164E-02  0.1320468E+00
        -11   -1    0    0    0    0  0.00000000000E+00  0.00000000000E+00  0.45593999997E+02  0.45594000000E+02  0.51100000000E-03 0.  1.
         11   -1    0    0    0    0 -0.00000000000E+00 -0.00000000000E+00 -0.45593999997E+02  0.45594000000E+02  0.51100000000E-03 0. -1.
    9900012    2    1    2    0    0  0.30133643033E+02 -0.27753448871E+02  0.18730272290E+02  0.46142318001E+02  0.10000002188E+02 0.  0.
         12    1    1    2    0    0 -0.30133643033E+02  0.27753448871E+02 -0.18730272290E+02  0.45045681999E+02  0.00000000000E+00 0. -1.
         11    1    3    3    0    0  0.72928763656E+01 -0.55656146985E+01  0.70175244837E+01  0.11550227824E+02  0.51100000000E-03 0. -1.
        -11    1    3    3    0    0  0.12790616233E+02 -0.15045087337E+02  0.43148556738E+01  0.20213176306E+02  0.51100000000E-03 0.  1.
        -12    1    3    3    0    0  0.10050150434E+02 -0.71427468354E+01  0.73978921324E+01  0.14378913871E+02  0.00000000000E+00 0.  1.
</event>
<event>
 7    1  0.2243370E-008  0.4614232E+02  0.7816164E-02  0.1320468E+00
        -11   -1    0    0    0    0  0.00000000000E+00  0.00000000000E+00  0.45593999997E+02  0.45594000000E+02  0.51100000000E-03 0.  1.
         11   -1    0    0    0    0 -0.00000000000E+00 -0.00000000000E+00 -0.45593999997E+02  0.45594000000E+02  0.51100000000E-03 0. -1.
    9900012    2    1    2    0    0  0.34264117949E+02  0.69550328148E+01  0.28402662152E+02  0.46142317881E+02  0.10000001089E+02 0.  0.
         12    1    1    2    0    0 -0.34264117949E+02 -0.69550328148E+01 -0.28402662152E+02  0.45045682119E+02  0.00000000000E+00 0. -1.
         11    1    3    3    0    0  0.94240337633E+01  0.34785372790E+01  0.84848246268E+01  0.13149330142E+02  0.51100000000E-03 0.  1.
        -11    1    3    3    0    0  0.59294289215E+00  0.19197425767E+00 -0.74193012366E+00  0.96896643826E+00  0.51100000000E-03 0. -1.
         12    1    3    3    0    0  0.24247141294E+02  0.32845212781E+01  0.20659767649E+02  0.32024021300E+02  0.00000000000E+00 0. -1.
</event>
<event>
 7    1  0.2243370E-008  0.4614232E+02  0.7816164E-02  0.1320468E+00
        -11   -1    0    0    0    0  0.00000000000E+00  0.00000000000E+00  0.45593999997E+02  0.45594000000E+02  0.51100000000E-03 0.  1.
         11   -1    0    0    0    0 -0.00000000000E+00 -0.00000000000E+00 -0.45593999997E+02  0.45594000000E+02  0.51100000000E-03 0. -1.
    9900012    2    1    2    0    0  0.48717945812E+01 -0.26135750294E+02  0.36363467360E+02  0.46142316696E+02  0.99999902841E+01 0.  0.
         12    1    1    2    0    0 -0.48717945812E+01  0.26135750294E+02 -0.36363467360E+02  0.45045683304E+02  0.00000000000E+00 0. -1.
         11    1    3    3    0    0 -0.24850562766E+01 -0.48074576316E+01  0.99439562588E+01  0.11321193396E+02  0.51100000000E-03 0. -1.
        -11    1    3    3    0    0  0.42307988935E+01 -0.10954445001E+02  0.15411100722E+02  0.19375281941E+02  0.51100000000E-03 0.  1.
         12    1    3    3    0    0  0.31260519643E+01 -0.10373847662E+02  0.11008410380E+02  0.15445841359E+02  0.00000000000E+00 0. -1.
</event>
<event>
 7    1  0.2243370E-008  0.4614232E+02  0.7816164E-02  0.1320468E+00
        -11   -1    0    0    0    0  0.00000000000E+00  0.00000000000E+00  0.45593999997E+02  0.45594000000E+02  0.51100000000E-03 0.  1.
         11   -1    0    0    0    0 -0.00000000000E+00 -0.00000000000E+00 -0.45593999997E+02  0.45594000000E+02  0.51100000000E-03 0. -1.
    9900012    2    1    2    0    0 -0.33379393217E+02 -0.15888320469E+02  0.25738898322E+02  0.46142317569E+02  0.99999982441E+01 0.  0.
         12    1    1    2    0    0  0.33379393217E+02  0.15888320469E+02 -0.25738898322E+02  0.45045682431E+02  0.00000000000E+00 0. -1.
         11    1    3    3    0    0 -0.16846672026E+02 -0.70502193254E+01  0.10191036004E+02  0.20913468530E+02  0.51100000000E-03 0. -1.
        -11    1    3    3    0    0 -0.51142292965E+01 -0.59794855753E+01  0.81386693976E+01  0.11320226538E+02  0.51100000000E-03 0.  1.
         12    1    3    3    0    0 -0.11418491895E+02 -0.28586155688E+01  0.74091929201E+01  0.13908622500E+02  0.00000000000E+00 0. -1.
</event>
<event>
 7    1  0.2243370E-008  0.4614232E+02  0.7816164E-02  0.1320468E+00
        -11   -1    0    0    0    0  0.00000000000E+00  0.00000000000E+00  0.45593999997E+02  0.45594000000E+02  0.51100000000E-03 0.  1.
         11   -1    0    0    0    0 -0.00000000000E+00 -0.00000000000E+00 -0.45593999997E+02  0.45594000000E+02  0.51100000000E-03 0. -1.
    9900012    2    1    2    0    0 -0.37355775198E+01  0.33634442721E+02  0.29730175118E+02  0.46142316642E+02  0.99999897986E+01 0.  0.
         12    1    1    2    0    0  0.37355775198E+01 -0.33634442721E+02 -0.29730175118E+02  0.45045683358E+02  0.00000000000E+00 0. -1.
         11    1    3    3    0    0 -0.30590462317E+01  0.60364312726E+01  0.87809132573E+01  0.11086059004E+02  0.51100000000E-03 0. -1.
        -11    1    3    3    0    0  0.20572400998E+00  0.23539848965E+02  0.19764429114E+02  0.30737590506E+02  0.51100000000E-03 0.  1.
         12    1    3    3    0    0 -0.88225529802E+00  0.40581624839E+01  0.11848327470E+01  0.43186671318E+01  0.00000000000E+00 0. -1.
</event>
<event>
 7    1  0.2243370E-008  0.4614232E+02  0.7816164E-02  0.1320468E+00
        -11   -1    0    0    0    0  0.00000000000E+00  0.00000000000E+00  0.45593999997E+02  0.45594000000E+02  0.51100000000E-03 0. -1.
         11   -1    0    0    0    0 -0.00000000000E+00 -0.00000000000E+00 -0.45593999997E+02  0.45594000000E+02  0.51100000000E-03 0.  1.
    9900012    2    1    2    0    0  0.43064376419E+02 -0.72612925836E+01 -0.11038416383E+02  0.46142317381E+02  0.99999965359E+01 0.  0.
         12    1    1    2    0    0 -0.43064376419E+02  0.72612925836E+01  0.11038416383E+02  0.45045682619E+02  0.00000000000E+00 0. -1.
         11    1    3    3    0    0  0.73436656080E+01 -0.25205139598E+01 -0.42739290511E+01  0.88627808829E+01  0.51100000000E-03 0. -1.
        -11    1    3    3    0    0  0.17142573628E+02 -0.37652562852E+01 -0.63706376102E+01  0.18671636493E+02  0.51100000000E-03 0.  1.
        -12    1    3    3    0    0  0.18578137183E+02 -0.97552233862E+00 -0.39384972169E+00  0.18607900006E+02  0.00000000000E+00 0.  1.
</event>
<event>
 7    1  0.2243370E-008  0.4614232E+02  0.7816164E-02  0.1320468E+00
        -11   -1    0    0    0    0  0.00000000000E+00  0.00000000000E+00  0.45593999997E+02  0.45594000000E+02  0.51100000000E-03 0. -1.
         11   -1    0    0    0    0 -0.00000000000E+00 -0.00000000000E+00 -0.45593999997E+02  0.45594000000E+02  0.51100000000E-03 0.  1.
    9900012    2    1    2    0    0  0.38070783911E+02 -0.60482051249E+01 -0.23305538500E+02  0.46142317659E+02  0.99999990654E+01 0.  0.
         12    1    1    2    0    0 -0.38070783911E+02  0.60482051249E+01  0.23305538500E+02  0.45045682341E+02  0.00000000000E+00 0. -1.
         11    1    3    3    0    0  0.95282615995E+01 -0.17869698247E+01 -0.56779952123E+01  0.11234796845E+02  0.51100000000E-03 0. -1.
        -11    1    3    3    0    0  0.21158645873E+02 -0.19093826551E+01 -0.16856932528E+02  0.27119922784E+02  0.51100000000E-03 0.  1.
         12    1    3    3    0    0  0.73838764381E+01 -0.23518526450E+01 -0.77061075967E+00  0.77875980290E+01  0.00000000000E+00 0. -1.
</event>
<event>
 7    1  0.2243370E-008  0.4614232E+02  0.7816164E-02  0.1320468E+00
        -11   -1    0    0    0    0  0.00000000000E+00  0.00000000000E+00  0.45593999997E+02  0.45594000000E+02  0.51100000000E-03 0.  1.
         11   -1    0    0    0    0 -0.00000000000E+00 -0.00000000000E+00 -0.45593999997E+02  0.45594000000E+02  0.51100000000E-03 0. -1.
    9900012    2    1    2    0    0 -0.26540108363E+02 -0.14255346295E+02  0.33489121032E+02  0.46142317883E+02  0.10000001111E+02 0.  0.
         12    1    1    2    0    0  0.26540108363E+02  0.14255346295E+02 -0.33489121032E+02  0.45045682117E+02  0.00000000000E+00 0. -1.
         11    1    3    3    0    0 -0.24567082362E+01 -0.38202972123E+01  0.87352774710E+01  0.98455654437E+01  0.51100000000E-03 0. -1.
        -11    1    3    3    0    0 -0.12691779159E+02 -0.58384117655E+01  0.15832919165E+02  0.21115151899E+02  0.51100000000E-03 0.  1.
        -12    1    3    3    0    0 -0.11391620967E+02 -0.45966373169E+01  0.89209243957E+01  0.15181600540E+02  0.00000000000E+00 0.  1.
</event>
<event>
 7    1  0.2243370E-008  0.4614232E+02  0.7816164E-02  0.1320468E+00
        -11   -1    0    0    0    0  0.00000000000E+00  0.00000000000E+00  0.45593999997E+02  0.45594000000E+02  0.51100000000E-03 0. -1.
         11   -1    0    0    0    0 -0.00000000000E+00 -0.00000000000E+00 -0.45593999997E+02  0.45594000000E+02  0.51100000000E-03 0.  1.
    9900012    2    1    2    0    0 -0.37422617655E+02 -0.24002599165E+02  0.72482038504E+01  0.46142317211E+02  0.99999949860E+01 0.  0.
         12    1    1    2    0    0  0.37422617655E+02  0.24002599165E+02 -0.72482038504E+01  0.45045682789E+02  0.00000000000E+00 0. -1.
         11    1    3    3    0    0 -0.57334122438E+01 -0.54819489987E+01  0.38425904210E+01  0.88141523805E+01  0.51100000000E-03 0. -1.
        -11    1    3    3    0    0 -0.29621160680E+02 -0.15816450647E+02  0.41751856163E+01  0.33837929107E+02  0.51100000000E-03 0.  1.
         12    1    3    3    0    0 -0.20680447316E+01 -0.27041995200E+01 -0.76957218688E+00  0.34902357236E+01  0.00000000000E+00 0. -1.
</event>
<event>
 7    1  0.2243370E-008  0.4614232E+02  0.7816164E-02  0.1320468E+00
        -11   -1    0    0    0    0  0.00000000000E+00  0.00000000000E+00  0.45593999997E+02  0.45594000000E+02  0.51100000000E-03 0. -1.
         11   -1    0    0    0    0 -0.00000000000E+00 -0.00000000000E+00 -0.45593999997E+02  0.45594000000E+02  0.51100000000E-03 0.  1.
    9900012    2    1    2    0    0  0.31220844332E+02  0.17000278266E+01 -0.32426565417E+02  0.46142319185E+02  0.10000012980E+02 0.  0.
         12    1    1    2    0    0 -0.31220844332E+02 -0.17000278266E+01  0.32426565417E+02  0.45045680815E+02  0.00000000000E+00 0. -1.
         11    1    3    3    0    0  0.15407282403E+02  0.17436247881E+01 -0.11184907510E+02  0.19118753482E+02  0.51100000000E-03 0. -1.
        -11    1    3    3    0    0  0.15057753882E+02  0.45437900428E+00 -0.17122736913E+02  0.22806370424E+02  0.51100000000E-03 0.  1.
        -12    1    3    3    0    0  0.75580804693E+00 -0.49797596581E+00 -0.41189209936E+01  0.42171952786E+01  0.00000000000E+00 0.  1.
</event>
<event>
 7    1  0.2243370E-008  0.4614232E+02  0.7816164E-02  0.1320468E+00
        -11   -1    0    0    0    0  0.00000000000E+00  0.00000000000E+00  0.45593999997E+02  0.45594000000E+02  0.51100000000E-03 0. -1.
         11   -1    0    0    0    0 -0.00000000000E+00 -0.00000000000E+00 -0.45593999997E+02  0.45594000000E+02  0.51100000000E-03 0.  1.
    9900012    2    1    2    0    0  0.37766038023E+02 -0.96086190432E+01 -0.22594566016E+02  0.46142316507E+02  0.99999885636E+01 0.  0.
         12    1    1    2    0    0 -0.37766038023E+02  0.96086190432E+01  0.22594566016E+02  0.45045683493E+02  0.00000000000E+00 0. -1.
         11    1    3    3    0    0  0.13133772449E+02 -0.75815987815E+01 -0.95590880408E+01  0.17926315384E+02  0.51100000000E-03 0. -1.
        -11    1    3    3    0    0  0.17572734895E+02 -0.32181263930E+01 -0.93391536749E+01  0.20158798099E+02  0.51100000000E-03 0.  1.
        -12    1    3    3    0    0  0.70595306797E+01  0.11911061313E+01 -0.36963243003E+01  0.80572030238E+01  0.00000000000E+00 0.  1.
</event>
<event>
 7    1  0.2243370E-008  0.4614232E+02  0.7816164E-02  0.1320468E+00
        -11   -1    0    0    0    0  0.00000000000E+00  0.00000000000E+00  0.45593999997E+02  0.45594000000E+02  0.51100000000E-03 0.  1.
         11   -1    0    0    0    0 -0.00000000000E+00 -0.00000000000E+00 -0.45593999997E+02  0.45594000000E+02  0.51100000000E-03 0. -1.
    9900012    2    1    2    0    0 -0.38170268538E+02 -0.23908791978E+02 -0.71685554927E+00  0.46142316345E+02  0.99999870874E+01 0.  0.
         12    1    1    2    0    0  0.38170268538E+02  0.23908791978E+02  0.71685554927E+00  0.45045683655E+02  0.00000000000E+00 0. -1.
         11    1    3    3    0    0 -0.26296659619E+02 -0.19207979629E+02 -0.28320939245E+01  0.32687635963E+02  0.51100000000E-03 0. -1.
        -11    1    3    3    0    0 -0.53516839098E+01 -0.90093753169E+00 -0.53846543336E+00  0.54536368041E+01  0.51100000000E-03 0.  1.
         12    1    3    3    0    0 -0.65219250084E+01 -0.37998748170E+01  0.26537038086E+01  0.80010435784E+01  0.00000000000E+00 0. -1.
</event>
<event>
 7    1  0.2243370E-008  0.4614232E+02  0.7816164E-02  0.1320468E+00
        -11   -1    0    0    0    0  0.00000000000E+00  0.00000000000E+00  0.45593999997E+02  0.45594000000E+02  0.51100000000E-03 0.  1.
         11   -1    0    0    0    0 -0.00000000000E+00 -0.00000000000E+00 -0.45593999997E+02  0.45594000000E+02  0.51100000000E-03 0. -1.
    9900012    2    1    2    0    0  0.33346432340E+02  0.80192137474E+01  0.29203102179E+02  0.46142317457E+02  0.99999972242E+01 0.  0.
         12    1    1    2    0    0 -0.33346432340E+02 -0.80192137474E+01 -0.29203102179E+02  0.45045682543E+02  0.00000000000E+00 0. -1.
         11    1    3    3    0    0  0.74299974248E+00  0.13954214195E+01 -0.29485061139E+00  0.16081625227E+01  0.51100000000E-03 0. -1.
        -11    1    3    3    0    0  0.93679019636E+01  0.30713466578E+01  0.87355689512E+01  0.13171974896E+02  0.51100000000E-03 0.  1.
         12    1    3    3    0    0  0.23235530634E+02  0.35524456702E+01  0.20762383839E+02  0.31362180038E+02  0.00000000000E+00 0. -1.
</event>
<event>
 7    1  0.2243370E-008  0.4614232E+02  0.7816164E-02  0.1320468E+00
        -11   -1    0    0    0    0  0.00000000000E+00  0.00000000000E+00  0.45593999997E+02  0.45594000000E+02  0.51100000000E-03 0.  1.
         11   -1    0    0    0    0 -0.00000000000E+00 -0.00000000000E+00 -0.45593999997E+02  0.45594000000E+02  0.51100000000E-03 0. -1.
    9900012    2    1    2    0    0 -0.12768265511E+02 -0.16860011162E+02  0.39772162483E+02  0.46142317753E+02  0.99999999242E+01 0.  0.
         12    1    1    2    0    0  0.12768265511E+02  0.16860011162E+02 -0.39772162483E+02  0.45045682247E+02  0.00000000000E+00 0. -1.
         11    1    3    3    0    0 -0.35180471773E+01 -0.59671704153E+01  0.18181446885E+02  0.19456330327E+02  0.51100000000E-03 0. -1.
        -11    1    3    3    0    0 -0.51352248101E+01 -0.29217971374E+01  0.12934459567E+02  0.14219974575E+02  0.51100000000E-03 0.  1.
         12    1    3    3    0    0 -0.41149935236E+01 -0.79710436090E+01  0.86562560312E+01  0.12466012851E+02  0.00000000000E+00 0. -1.
</event>
<event>
 7    1  0.2243370E-008  0.4614232E+02  0.7816164E-02  0.1320468E+00
        -11   -1    0    0    0    0  0.00000000000E+00  0.00000000000E+00  0.45593999997E+02  0.45594000000E+02  0.51100000000E-03 0.  1.
         11   -1    0    0    0    0 -0.00000000000E+00 -0.00000000000E+00 -0.45593999997E+02  0.45594000000E+02  0.51100000000E-03 0. -1.
    9900012    2    1    2    0    0 -0.16077579825E+02  0.76919517699E+00  0.42071762719E+02  0.46142318159E+02  0.10000003629E+02 0.  0.
         12    1    1    2    0    0  0.16077579825E+02 -0.76919517699E+00 -0.42071762719E+02  0.45045681841E+02  0.00000000000E+00 0. -1.
         11    1    3    3    0    0 -0.53390358986E+01 -0.11655287706E+01  0.89155104021E+01  0.10457059225E+02  0.51100000000E-03 0.  1.
        -11    1    3    3    0    0 -0.11794549538E+02  0.17263624800E+01  0.31753013367E+02  0.33916744896E+02  0.51100000000E-03 0. -1.
         12    1    3    3    0    0  0.10560056115E+01  0.20836146752E+00  0.14032389497E+01  0.17685140380E+01  0.00000000000E+00 0. -1.
</event>
<event>
 7    1  0.2243370E-008  0.4614232E+02  0.7816164E-02  0.1320468E+00
        -11   -1    0    0    0    0  0.00000000000E+00  0.00000000000E+00  0.45593999997E+02  0.45594000000E+02  0.51100000000E-03 0.  1.
         11   -1    0    0    0    0 -0.00000000000E+00 -0.00000000000E+00 -0.45593999997E+02  0.45594000000E+02  0.51100000000E-03 0. -1.
    9900012    2    1    2    0    0 -0.40305088029E+02 -0.19077783993E+02  0.63758352912E+01  0.46142320531E+02  0.10000025262E+02 0.  0.
         12    1    1    2    0    0  0.40305088029E+02  0.19077783993E+02 -0.63758352912E+01  0.45045679469E+02  0.00000000000E+00 0. -1.
         11    1    3    3    0    0 -0.40181013494E+01 -0.14873922870E+01 -0.15525402160E+01  0.45571762806E+01  0.51100000000E-03 0. -1.
        -11    1    3    3    0    0 -0.14079721911E+01 -0.19183580511E+01 -0.49413816817E+00  0.24303613093E+01  0.51100000000E-03 0.  1.
        -12    1    3    3    0    0 -0.34879014489E+02 -0.15672033655E+02  0.84225136753E+01  0.39154782942E+02  0.00000000000E+00 0.  1.
</event>
<event>
 7    1  0.2243370E-008  0.4614232E+02  0.7816164E-02  0.1320468E+00
        -11   -1    0    0    0    0  0.00000000000E+00  0.00000000000E+00  0.45593999997E+02  0.45594000000E+02  0.51100000000E-03 0.  1.
         11   -1    0    0    0    0 -0.00000000000E+00 -0.00000000000E+00 -0.45593999997E+02  0.45594000000E+02  0.51100000000E-03 0. -1.
    9900012    2    1    2    0    0  0.23842530090E+02 -0.13871002680E+02  0.35612393675E+02  0.46142317191E+02  0.99999947998E+01 0.  0.
         12    1    1    2    0    0 -0.23842530090E+02  0.13871002680E+02 -0.35612393675E+02  0.45045682809E+02  0.00000000000E+00 0. -1.
         11    1    3    3    0    0  0.37888241984E+01  0.94598398764E+00  0.55065588786E+01  0.67507233283E+01  0.51100000000E-03 0. -1.
        -11    1    3    3    0    0  0.68732675465E+00 -0.98934799609E+00  0.28120279927E+00  0.12370540815E+01  0.51100000000E-03 0.  1.
        -12    1    3    3    0    0  0.19366379137E+02 -0.13827638671E+02  0.29824631998E+02  0.38154539781E+02  0.00000000000E+00 0.  1.
</event>
<event>
 7    1  0.2243370E-008  0.4614232E+02  0.7816164E-02  0.1320468E+00
        -11   -1    0    0    0    0  0.00000000000E+00  0.00000000000E+00  0.45593999997E+02  0.45594000000E+02  0.51100000000E-03 0.  1.
         11   -1    0    0    0    0 -0.00000000000E+00 -0.00000000000E+00 -0.45593999997E+02  0.45594000000E+02  0.51100000000E-03 0. -1.
    9900012    2    1    2    0    0 -0.28973255615E+02  0.26958233925E+02  0.21515518540E+02  0.46142318127E+02  0.10000003338E+02 0.  0.
         12    1    1    2    0    0  0.28973255615E+02 -0.26958233925E+02 -0.21515518540E+02  0.45045681873E+02  0.00000000000E+00 0. -1.
         11    1    3    3    0    0 -0.66173024516E+01  0.93071473177E+01  0.91869973680E+01  0.14656486749E+02  0.51100000000E-03 0. -1.
        -11    1    3    3    0    0 -0.10376604447E+02  0.11340543432E+02  0.75678096227E+01  0.17133405614E+02  0.51100000000E-03 0.  1.
        -12    1    3    3    0    0 -0.11979348717E+02  0.63105431753E+01  0.47607115495E+01  0.14352425764E+02  0.00000000000E+00 0.  1.
</event>
<event>
 7    1  0.2243370E-008  0.4614232E+02  0.7816164E-02  0.1320468E+00
        -11   -1    0    0    0    0  0.00000000000E+00  0.00000000000E+00  0.45593999997E+02  0.45594000000E+02  0.51100000000E-03 0.  1.
         11   -1    0    0    0    0 -0.00000000000E+00 -0.00000000000E+00 -0.45593999997E+02  0.45594000000E+02  0.51100000000E-03 0. -1.
    9900012    2    1    2    0    0 -0.15085857072E+01  0.19848036505E+02  0.40409073291E+02  0.46142316653E+02  0.99999898961E+01 0.  0.
         12    1    1    2    0    0  0.15085857072E+01 -0.19848036505E+02 -0.40409073291E+02  0.45045683347E+02  0.00000000000E+00 0. -1.
         11    1    3    3    0    0 -0.78285478796E+00  0.13742451791E+01  0.25780391813E+00  0.16024589082E+01  0.51100000000E-03 0. -1.
        -11    1    3    3    0    0 -0.42941568655E+00  0.12221447751E+02  0.20035560652E+02  0.23472790074E+02  0.51100000000E-03 0.  1.
        -12    1    3    3    0    0 -0.29631523267E+00  0.62523435753E+01  0.20115708721E+02  0.21067067671E+02  0.00000000000E+00 0.  1.
</event>
<event>
 7    1  0.2243370E-008  0.4614232E+02  0.7816164E-02  0.1320468E+00
        -11   -1    0    0    0    0  0.00000000000E+00  0.00000000000E+00  0.45593999997E+02  0.45594000000E+02  0.51100000000E-03 0. -1.
         11   -1    0    0    0    0 -0.00000000000E+00 -0.00000000000E+00 -0.45593999997E+02  0.45594000000E+02  0.51100000000E-03 0.  1.
    9900012    2    1    2    0    0 -0.20323155069E+02 -0.32363942342E+02 -0.23846555371E+02  0.46142316534E+02  0.99999888077E+01 0.  0.
         12    1    1    2    0    0  0.20323155069E+02  0.32363942342E+02  0.23846555371E+02  0.45045683466E+02  0.00000000000E+00 0. -1.
         11    1    3    3    0    0 -0.36294248711E+01 -0.96203408093E+01 -0.31047168001E+01  0.10740714541E+02  0.51100000000E-03 0. -1.
        -11    1    3    3    0    0 -0.49645508758E+01 -0.38279267074E+01 -0.61877633098E+01  0.88084166179E+01  0.51100000000E-03 0.  1.
        -12    1    3    3    0    0 -0.11729179322E+02 -0.18915674826E+02 -0.14554075261E+02  0.26593185375E+02  0.00000000000E+00 0.  1.
</event>
<event>
 7    1  0.2243370E-008  0.4614232E+02  0.7816164E-02  0.1320468E+00
        -11   -1    0    0    0    0  0.00000000000E+00  0.00000000000E+00  0.45593999997E+02  0.45594000000E+02  0.51100000000E-03 0. -1.
         11   -1    0    0    0    0 -0.00000000000E+00 -0.00000000000E+00 -0.45593999997E+02  0.45594000000E+02  0.51100000000E-03 0.  1.
    9900012    2    1    2    0    0  0.94223770663E+00  0.44874539612E+02  0.38080700099E+01  0.46142317471E+02  0.99999973525E+01 0.  0.
         12    1    1    2    0    0 -0.94223770663E+00 -0.44874539612E+02 -0.38080700099E+01  0.45045682529E+02  0.00000000000E+00 0. -1.
         11    1    3    3    0    0 -0.12816979165E+00  0.50110756495E+00  0.13855518357E+01  0.14789490990E+01  0.51100000000E-03 0. -1.
        -11    1    3    3    0    0  0.23942482097E+01  0.25905757416E+02  0.26154557523E+01  0.26147300068E+02  0.51100000000E-03 0.  1.
         12    1    3    3    0    0 -0.13238407115E+01  0.18467674631E+02 -0.19293757805E+00  0.18516068304E+02  0.00000000000E+00 0. -1.
</event>
<event>
 7    1  0.2243370E-008  0.4614232E+02  0.7816164E-02  0.1320468E+00
        -11   -1    0    0    0    0  0.00000000000E+00  0.00000000000E+00  0.45593999997E+02  0.45594000000E+02  0.51100000000E-03 0. -1.
         11   -1    0    0    0    0 -0.00000000000E+00 -0.00000000000E+00 -0.45593999997E+02  0.45594000000E+02  0.51100000000E-03 0.  1.
    9900012    2    1    2    0    0 -0.16848110002E+02  0.34045932026E+02  0.24210106142E+02  0.46142317215E+02  0.99999950234E+01 0.  0.
         12    1    1    2    0    0  0.16848110002E+02 -0.34045932026E+02 -0.24210106142E+02  0.45045682785E+02  0.00000000000E+00 0. -1.
         11    1    3    3    0    0 -0.11701260101E+02  0.16612703962E+02  0.10230649619E+02  0.22750112368E+02  0.51100000000E-03 0. -1.
        -11    1    3    3    0    0 -0.50882529557E+01  0.10523708084E+02  0.10214108491E+02  0.15523104152E+02  0.51100000000E-03 0.  1.
         12    1    3    3    0    0 -0.58596945310E-01  0.69095199803E+01  0.37653480311E+01  0.78691006954E+01  0.00000000000E+00 0. -1.
</event>
<event>
 7    1  0.2243370E-008  0.4614232E+02  0.7816164E-02  0.1320468E+00
        -11   -1    0    0    0    0  0.00000000000E+00  0.00000000000E+00  0.45593999997E+02  0.45594000000E+02  0.51100000000E-03 0.  1.
         11   -1    0    0    0    0 -0.00000000000E+00 -0.00000000000E+00 -0.45593999997E+02  0.45594000000E+02  0.51100000000E-03 0. -1.
    9900012    2    1    2    0    0 -0.34964180423E+02  0.22822835902E+02  0.16903773697E+02  0.46142319669E+02  0.10000017398E+02 0.  0.
         12    1    1    2    0    0  0.34964180423E+02 -0.22822835902E+02 -0.16903773697E+02  0.45045680331E+02  0.00000000000E+00 0. -1.
         11    1    3    3    0    0 -0.79339429429E+01  0.85050172951E+01  0.75909821523E+01  0.13889052527E+02  0.51100000000E-03 0.  1.
        -11    1    3    3    0    0 -0.11809122237E+02  0.82514696343E+01  0.55712387280E+01  0.15446061646E+02  0.51100000000E-03 0. -1.
         12    1    3    3    0    0 -0.15221115243E+02  0.60663489722E+01  0.37415528170E+01  0.16807205496E+02  0.00000000000E+00 0. -1.
</event>
<event>
 7    1  0.2243370E-008  0.4614232E+02  0.7816164E-02  0.1320468E+00
        -11   -1    0    0    0    0  0.00000000000E+00  0.00000000000E+00  0.45593999997E+02  0.45594000000E+02  0.51100000000E-03 0.  1.
         11   -1    0    0    0    0 -0.00000000000E+00 -0.00000000000E+00 -0.45593999997E+02  0.45594000000E+02  0.51100000000E-03 0. -1.
    9900012    2    1    2    0    0 -0.15486363005E+02  0.37644141461E+02  0.19292602671E+02  0.46142319371E+02  0.10000014684E+02 0.  0.
         12    1    1    2    0    0  0.15486363005E+02 -0.37644141461E+02 -0.19292602671E+02  0.45045680629E+02  0.00000000000E+00 0. -1.
         11    1    3    3    0    0 -0.52985496910E+01  0.15309353875E+02  0.54673632373E+01  0.17098040997E+02  0.51100000000E-03 0. -1.
        -11    1    3    3    0    0 -0.20360959345E+01  0.86637183861E+01  0.17619171425E+01  0.90724889202E+01  0.51100000000E-03 0.  1.
         12    1    3    3    0    0 -0.81517173795E+01  0.13671069200E+02  0.12063322291E+02  0.19971789454E+02  0.00000000000E+00 0. -1.
</event>
<event>
 7    1  0.2243370E-008  0.4614232E+02  0.7816164E-02  0.1320468E+00
        -11   -1    0    0    0    0  0.00000000000E+00  0.00000000000E+00  0.45593999997E+02  0.45594000000E+02  0.51100000000E-03 0.  1.
         11   -1    0    0    0    0 -0.00000000000E+00 -0.00000000000E+00 -0.45593999997E+02  0.45594000000E+02  0.51100000000E-03 0. -1.
    9900012    2    1    2    0    0 -0.28463891450E+02 -0.19778324221E+02  0.28770439734E+02  0.46142318431E+02  0.10000006112E+02 0.  0.
         12    1    1    2    0    0  0.28463891450E+02  0.19778324221E+02 -0.28770439734E+02  0.45045681569E+02  0.00000000000E+00 0. -1.
         11    1    3    3    0    0  0.21180742342E+00 -0.77792350916E+00  0.16535491489E+01  0.18396337732E+01  0.51100000000E-03 0.  1.
        -11    1    3    3    0    0 -0.82810813054E+01 -0.71483853394E+01  0.52348601099E+01  0.12127632959E+02  0.51100000000E-03 0. -1.
        -12    1    3    3    0    0 -0.20394617568E+02 -0.11852015372E+02  0.21882030475E+02  0.32175051700E+02  0.00000000000E+00 0.  1.
</event>
<event>
 7    1  0.2243370E-008  0.4614232E+02  0.7816164E-02  0.1320468E+00
        -11   -1    0    0    0    0  0.00000000000E+00  0.00000000000E+00  0.45593999997E+02  0.45594000000E+02  0.51100000000E-03 0. -1.
         11   -1    0    0    0    0 -0.00000000000E+00 -0.00000000000E+00 -0.45593999997E+02  0.45594000000E+02  0.51100000000E-03 0.  1.
    9900012    2    1    2    0    0 -0.13641880323E+01 -0.43722797064E+02  0.10750321517E+02  0.46142318688E+02  0.10000008456E+02 0.  0.
         12    1    1    2    0    0  0.13641880323E+01  0.43722797064E+02 -0.10750321517E+02  0.45045681312E+02  0.00000000000E+00 0. -1.
         11    1    3    3    0    0 -0.46796448583E+01 -0.17703208227E+02  0.55064785477E+01  0.19121296080E+02  0.51100000000E-03 0. -1.
        -11    1    3    3    0    0  0.44074454760E+00 -0.15944765257E+02  0.21384888412E+01  0.16093567959E+02  0.51100000000E-03 0.  1.
         12    1    3    3    0    0  0.28747122784E+01 -0.10074823580E+02  0.31053541278E+01  0.10927454650E+02  0.00000000000E+00 0. -1.
</event>
<event>
 7    1  0.2243370E-008  0.4614232E+02  0.7816164E-02  0.1320468E+00
        -11   -1    0    0    0    0  0.00000000000E+00  0.00000000000E+00  0.45593999997E+02  0.45594000000E+02  0.51100000000E-03 0. -1.
         11   -1    0    0    0    0 -0.00000000000E+00 -0.00000000000E+00 -0.45593999997E+02  0.45594000000E+02  0.51100000000E-03 0.  1.
    9900012    2    1    2    0    0 -0.19487348613E+02  0.37234033313E+02 -0.16216751765E+02  0.46142322843E+02  0.10000046341E+02 0.  0.
         12    1    1    2    0    0  0.19487348613E+02 -0.37234033313E+02  0.16216751765E+02  0.45045677157E+02  0.00000000000E+00 0. -1.
         11    1    3    3    0    0 -0.19049829163E+01  0.68029080933E+01 -0.23575167765E+01  0.74475770590E+01  0.51100000000E-03 0. -1.
        -11    1    3    3    0    0 -0.17747584178E+02  0.30849086957E+02 -0.13339643803E+02  0.38007749306E+02  0.51100000000E-03 0.  1.
         12    1    3    3    0    0  0.16521848163E+00 -0.41796173727E+00 -0.51959118609E+00  0.68699647827E+00  0.00000000000E+00 0. -1.
</event>
<event>
 7    1  0.2243370E-008  0.4614232E+02  0.7816164E-02  0.1320468E+00
        -11   -1    0    0    0    0  0.00000000000E+00  0.00000000000E+00  0.45593999997E+02  0.45594000000E+02  0.51100000000E-03 0. -1.
         11   -1    0    0    0    0 -0.00000000000E+00 -0.00000000000E+00 -0.45593999997E+02  0.45594000000E+02  0.51100000000E-03 0.  1.
    9900012    2    1    2    0    0 -0.10031395334E+02  0.36730515512E+02 -0.24069770549E+02  0.46142317449E+02  0.99999971563E+01 0.  0.
         12    1    1    2    0    0  0.10031395334E+02 -0.36730515512E+02  0.24069770549E+02  0.45045682551E+02  0.00000000000E+00 0. -1.
         11    1    3    3    0    0 -0.57561948320E+01  0.27729538009E+02 -0.20752301953E+02  0.35110099597E+02  0.51100000000E-03 0. -1.
        -11    1    3    3    0    0 -0.47443469946E+01  0.69358159583E+01 -0.26965266098E+01  0.88252834193E+01  0.51100000000E-03 0.  1.
        -12    1    3    3    0    0  0.46914649249E+00  0.20651615450E+01 -0.62094198702E+00  0.22069344325E+01  0.00000000000E+00 0.  1.
</event>
<event>
 7    1  0.2243370E-008  0.4614232E+02  0.7816164E-02  0.1320468E+00
        -11   -1    0    0    0    0  0.00000000000E+00  0.00000000000E+00  0.45593999997E+02  0.45594000000E+02  0.51100000000E-03 0. -1.
         11   -1    0    0    0    0 -0.00000000000E+00 -0.00000000000E+00 -0.45593999997E+02  0.45594000000E+02  0.51100000000E-03 0.  1.
    9900012    2    1    2    0    0 -0.86147840664E+01  0.26968697224E+02 -0.35036957171E+02  0.46142317607E+02  0.99999985959E+01 0.  0.
         12    1    1    2    0    0  0.86147840664E+01 -0.26968697224E+02  0.35036957171E+02  0.45045682393E+02  0.00000000000E+00 0. -1.
         11    1    3    3    0    0  0.19104683255E+01  0.68672819334E+01 -0.84506500104E+01  0.11055448260E+02  0.51100000000E-03 0. -1.
        -11    1    3    3    0    0 -0.83258052181E+01  0.17072340194E+02 -0.23625200378E+02  0.30313922962E+02  0.51100000000E-03 0.  1.
        -12    1    3    3    0    0 -0.21994471738E+01  0.30290750967E+01 -0.29611067824E+01  0.47729463845E+01  0.00000000000E+00 0.  1.
</event>
<event>
 7    1  0.2243370E-008  0.4614232E+02  0.7816164E-02  0.1320468E+00
        -11   -1    0    0    0    0  0.00000000000E+00  0.00000000000E+00  0.45593999997E+02  0.45594000000E+02  0.51100000000E-03 0. -1.
         11   -1    0    0    0    0 -0.00000000000E+00 -0.00000000000E+00 -0.45593999997E+02  0.45594000000E+02  0.51100000000E-03 0.  1.
    9900012    2    1    2    0    0  0.35882212482E+02 -0.27117516259E+02 -0.24941085170E+01  0.46142318321E+02  0.10000005105E+02 0.  0.
         12    1    1    2    0    0 -0.35882212482E+02  0.27117516259E+02  0.24941085170E+01  0.45045681679E+02  0.00000000000E+00 0. -1.
         11    1    3    3    0    0  0.65051656835E+01 -0.19481761728E+01 -0.13933731874E+01  0.69321035819E+01  0.51100000000E-03 0. -1.
        -11    1    3    3    0    0  0.14618175777E+02 -0.84196502758E+01 -0.60317124102E+00  0.16880325519E+02  0.51100000000E-03 0.  1.
        -12    1    3    3    0    0  0.14758871022E+02 -0.16749689810E+02 -0.49756408864E+00  0.22329889220E+02  0.00000000000E+00 0.  1.
</event>
<event>
 7    1  0.2243370E-008  0.4614232E+02  0.7816164E-02  0.1320468E+00
        -11   -1    0    0    0    0  0.00000000000E+00  0.00000000000E+00  0.45593999997E+02  0.45594000000E+02  0.51100000000E-03 0.  1.
         11   -1    0    0    0    0 -0.00000000000E+00 -0.00000000000E+00 -0.45593999997E+02  0.45594000000E+02  0.51100000000E-03 0. -1.
    9900012    2    1    2    0    0 -0.32776361672E+02 -0.26358195448E+01  0.30787597307E+02  0.46142316777E+02  0.99999910228E+01 0.  0.
         12    1    1    2    0    0  0.32776361672E+02  0.26358195448E+01 -0.30787597307E+02  0.45045683223E+02  0.00000000000E+00 0. -1.
         11    1    3    3    0    0 -0.42720068071E+00  0.38578088407E+00 -0.30214778353E+00  0.65009295976E+00  0.51100000000E-03 0. -1.
        -11    1    3    3    0    0 -0.17822123910E+02 -0.68026032175E+00  0.12479552440E+02  0.21767638460E+02  0.51100000000E-03 0.  1.
         12    1    3    3    0    0 -0.14527037081E+02 -0.23413401071E+01  0.18610192651E+02  0.23724585357E+02  0.00000000000E+00 0. -1.
</event>
<event>
 7    1  0.2243370E-008  0.4614232E+02  0.7816164E-02  0.1320468E+00
        -11   -1    0    0    0    0  0.00000000000E+00  0.00000000000E+00  0.45593999997E+02  0.45594000000E+02  0.51100000000E-03 0. -1.
         11   -1    0    0    0    0 -0.00000000000E+00 -0.00000000000E+00 -0.45593999997E+02  0.45594000000E+02  0.51100000000E-03 0.  1.
    9900012    2    1    2    0    0  0.28234742818E+02 -0.20458487080E+02 -0.28519521619E+02  0.46142317533E+02  0.99999979160E+01 0.  0.
         12    1    1    2    0    0 -0.28234742818E+02  0.20458487080E+02  0.28519521619E+02  0.45045682467E+02  0.00000000000E+00 0. -1.
         11    1    3    3    0    0  0.14125860102E+01  0.36835924577E+00 -0.13887044112E+01  0.20148419226E+01  0.51100000000E-03 0. -1.
        -11    1    3    3    0    0  0.20347401102E+02 -0.11360242096E+02 -0.17332674980E+02  0.29042958773E+02  0.51100000000E-03 0.  1.
        -12    1    3    3    0    0  0.64747557060E+01 -0.94666042290E+01 -0.97981422280E+01  0.15084516837E+02  0.00000000000E+00 0.  1.
</event>
<event>
 7    1  0.2243370E-008  0.4614232E+02  0.7816164E-02  0.1320468E+00
        -11   -1    0    0    0    0  0.00000000000E+00  0.00000000000E+00  0.45593999997E+02  0.45594000000E+02  0.51100000000E-03 0.  1.
         11   -1    0    0    0    0 -0.00000000000E+00 -0.00000000000E+00 -0.45593999997E+02  0.45594000000E+02  0.51100000000E-03 0. -1.
    9900012    2    1    2    0    0 -0.33706161765E+02  0.10935126446E+02  0.27810630240E+02  0.46142317792E+02  0.10000000278E+02 0.  0.
         12    1    1    2    0    0  0.33706161765E+02 -0.10935126446E+02 -0.27810630240E+02  0.45045682208E+02  0.00000000000E+00 0. -1.
         11    1    3    3    0    0 -0.13515866580E+02  0.52153722849E+01  0.70330443323E+01  0.16104113459E+02  0.51100000000E-03 0. -1.
        -11    1    3    3    0    0 -0.10393795874E+02  0.57868429888E+01  0.11439662055E+02  0.16504072608E+02  0.51100000000E-03 0.  1.
        -12    1    3    3    0    0 -0.97964993108E+01 -0.67088828189E-01  0.93379238521E+01  0.13534131724E+02  0.00000000000E+00 0.  1.
</event>
<event>
 7    1  0.2243370E-008  0.4614232E+02  0.7816164E-02  0.1320468E+00
        -11   -1    0    0    0    0  0.00000000000E+00  0.00000000000E+00  0.45593999997E+02  0.45594000000E+02  0.51100000000E-03 0. -1.
         11   -1    0    0    0    0 -0.00000000000E+00 -0.00000000000E+00 -0.45593999997E+02  0.45594000000E+02  0.51100000000E-03 0.  1.
    9900012    2    1    2    0    0 -0.15890026146E+02 -0.16354416197E+02 -0.38847824549E+02  0.46142319494E+02  0.10000015801E+02 0.  0.
         12    1    1    2    0    0  0.15890026146E+02  0.16354416197E+02  0.38847824549E+02  0.45045680506E+02  0.00000000000E+00 0. -1.
         11    1    3    3    0    0 -0.88252343832E+01 -0.69247995812E+01 -0.19341136585E+02  0.22358827693E+02  0.51100000000E-03 0. -1.
        -11    1    3    3    0    0 -0.37665656140E+01 -0.95626570401E+01 -0.14087898935E+02  0.17438472492E+02  0.51100000000E-03 0.  1.
         12    1    3    3    0    0 -0.32982261489E+01  0.13304042465E+00 -0.54187890288E+01  0.63450193082E+01  0.00000000000E+00 0. -1.
</event>
<event>
 7    1  0.2243370E-008  0.4614232E+02  0.7816164E-02  0.1320468E+00
        -11   -1    0    0    0    0  0.00000000000E+00  0.00000000000E+00  0.45593999997E+02  0.45594000000E+02  0.51100000000E-03 0.  1.
         11   -1    0    0    0    0 -0.00000000000E+00 -0.00000000000E+00 -0.45593999997E+02  0.45594000000E+02  0.51100000000E-03 0. -1.
    9900012    2    1    2    0    0  0.56220471444E+00  0.16480430013E+01  0.45012012545E+02  0.46142318817E+02  0.10000009627E+02 0.  0.
         12    1    1    2    0    0 -0.56220471444E+00 -0.16480430013E+01 -0.45012012545E+02  0.45045681183E+02  0.00000000000E+00 0. -1.
         11    1    3    3    0    0 -0.20962475603E+01 -0.10702877336E+01  0.33946373113E+01  0.41307786679E+01  0.51100000000E-03 0. -1.
        -11    1    3    3    0    0 -0.31254274525E+00  0.38474253298E+00  0.23463468593E+02  0.23468704022E+02  0.51100000000E-03 0.  1.
         12    1    3    3    0    0  0.29709950200E+01  0.23335882020E+01  0.18153906641E+02  0.18542836127E+02  0.00000000000E+00 0. -1.
</event>
<event>
 7    1  0.2243370E-008  0.4614232E+02  0.7816164E-02  0.1320468E+00
        -11   -1    0    0    0    0  0.00000000000E+00  0.00000000000E+00  0.45593999997E+02  0.45594000000E+02  0.51100000000E-03 0.  1.
         11   -1    0    0    0    0 -0.00000000000E+00 -0.00000000000E+00 -0.45593999997E+02  0.45594000000E+02  0.51100000000E-03 0. -1.
    9900012    2    1    2    0    0  0.12241001750E+01  0.32409935770E+02  0.31260379252E+02  0.46142315758E+02  0.99999817370E+01 0.  0.
         12    1    1    2    0    0 -0.12241001750E+01 -0.32409935770E+02 -0.31260379252E+02  0.45045684242E+02  0.00000000000E+00 0. -1.
         11    1    3    3    0    0  0.82051297201E+00  0.63048341048E+00  0.10676353628E+01  0.14868074513E+01  0.51100000000E-03 0. -1.
        -11    1    3    3    0    0 -0.20034705662E+01  0.16161865982E+02  0.10377464476E+02  0.19310918558E+02  0.51100000000E-03 0.  1.
        -12    1    3    3    0    0  0.24070577692E+01  0.15617586377E+02  0.19815279413E+02  0.25344589749E+02  0.00000000000E+00 0.  1.
</event>
<event>
 7    1  0.2243370E-008  0.4614232E+02  0.7816164E-02  0.1320468E+00
        -11   -1    0    0    0    0  0.00000000000E+00  0.00000000000E+00  0.45593999997E+02  0.45594000000E+02  0.51100000000E-03 0. -1.
         11   -1    0    0    0    0 -0.00000000000E+00 -0.00000000000E+00 -0.45593999997E+02  0.45594000000E+02  0.51100000000E-03 0.  1.
    9900012    2    1    2    0    0 -0.43260182966E+02  0.60254864462E+01  0.11016515519E+02  0.46142317285E+02  0.99999956548E+01 0.  0.
         12    1    1    2    0    0  0.43260182966E+02 -0.60254864462E+01 -0.11016515519E+02  0.45045682715E+02  0.00000000000E+00 0. -1.
         11    1    3    3    0    0 -0.33505606331E+01 -0.19546487533E+00  0.36181575689E+01  0.49351319667E+01  0.51100000000E-03 0. -1.
        -11    1    3    3    0    0 -0.37724174466E+01  0.11754577146E+01 -0.11909598269E+00  0.39531023696E+01  0.51100000000E-03 0.  1.
        -12    1    3    3    0    0 -0.36137204886E+02  0.50454936069E+01  0.75174539325E+01  0.37254082948E+02  0.00000000000E+00 0.  1.
</event>
<event>
 7    1  0.2243370E-008  0.4614232E+02  0.7816164E-02  0.1320468E+00
        -11   -1    0    0    0    0  0.00000000000E+00  0.00000000000E+00  0.45593999997E+02  0.45594000000E+02  0.51100000000E-03 0.  1.
         11   -1    0    0    0    0 -0.00000000000E+00 -0.00000000000E+00 -0.45593999997E+02  0.45594000000E+02  0.51100000000E-03 0. -1.
    9900012    2    1    2    0    0  0.21935122073E+02 -0.21717193449E+01  0.39284191494E+02  0.46142316004E+02  0.99999839816E+01 0.  0.
         12    1    1    2    0    0 -0.21935122073E+02  0.21717193449E+01 -0.39284191494E+02  0.45045683996E+02  0.00000000000E+00 0. -1.
         11    1    3    3    0    0  0.69727242743E+01 -0.23427457450E+01  0.14845735992E+02  0.16568138665E+02  0.51100000000E-03 0. -1.
        -11    1    3    3    0    0  0.13796810119E+02 -0.86429164261E+00  0.24365024187E+02  0.28013449866E+02  0.51100000000E-03 0.  1.
         12    1    3    3    0    0  0.11655876797E+01  0.10353180427E+01  0.73431315865E-01  0.15607274736E+01  0.00000000000E+00 0. -1.
</event>
<event>
 7    1  0.2243370E-008  0.4614233E+02  0.7816164E-02  0.1320468E+00
        -11   -1    0    0    0    0  0.00000000000E+00  0.00000000000E+00  0.45593999997E+02  0.45594000000E+02  0.51100000000E-03 0. -1.
         11   -1    0    0    0    0 -0.00000000000E+00 -0.00000000000E+00 -0.45593999997E+02  0.45594000000E+02  0.51100000000E-03 0.  1.
    9900012    2    1    2    0    0  0.16539612120E+02 -0.28078652715E+02 -0.31098924952E+02  0.46142327172E+02  0.10000085820E+02 0.  0.
         12    1    1    2    0    0 -0.16539612120E+02  0.28078652715E+02  0.31098924952E+02  0.45045672828E+02  0.00000000000E+00 0. -1.
         11    1    3    3    0    0  0.61760093997E+00 -0.10414735939E+01 -0.27477031581E+00  0.12416107101E+01  0.51100000000E-03 0. -1.
        -11    1    3    3    0    0  0.16169141234E+02 -0.21417918377E+02 -0.23537492788E+02  0.35695684933E+02  0.51100000000E-03 0.  1.
        -12    1    3    3    0    0 -0.24713005421E+00 -0.56192607439E+01 -0.72866618478E+01  0.92050315293E+01  0.00000000000E+00 0.  1.
</event>
<event>
 7    1  0.2243370E-008  0.4614232E+02  0.7816164E-02  0.1320468E+00
        -11   -1    0    0    0    0  0.00000000000E+00  0.00000000000E+00  0.45593999997E+02  0.45594000000E+02  0.51100000000E-03 0.  1.
         11   -1    0    0    0    0 -0.00000000000E+00 -0.00000000000E+00 -0.45593999997E+02  0.45594000000E+02  0.51100000000E-03 0. -1.
    9900012    2    1    2    0    0  0.28266742249E+02  0.18504680613E+02  0.29793986879E+02  0.46142316787E+02  0.99999911180E+01 0.  0.
         12    1    1    2    0    0 -0.28266742249E+02 -0.18504680613E+02 -0.29793986879E+02  0.45045683213E+02  0.00000000000E+00 0. -1.
         11    1    3    3    0    0  0.19638730780E+01  0.19844960033E+01  0.23664132476E+00  0.28019673859E+01  0.51100000000E-03 0. -1.
        -11    1    3    3    0    0  0.70633564821E+01  0.54093524310E+01  0.12438780251E+02  0.15292983781E+02  0.51100000000E-03 0.  1.
         12    1    3    3    0    0  0.19239512689E+02  0.11110832179E+02  0.17118565303E+02  0.28047365620E+02  0.00000000000E+00 0. -1.
</event>
<event>
 7    1  0.2243370E-008  0.4614232E+02  0.7816164E-02  0.1320468E+00
        -11   -1    0    0    0    0  0.00000000000E+00  0.00000000000E+00  0.45593999997E+02  0.45594000000E+02  0.51100000000E-03 0. -1.
         11   -1    0    0    0    0 -0.00000000000E+00 -0.00000000000E+00 -0.45593999997E+02  0.45594000000E+02  0.51100000000E-03 0.  1.
    9900012    2    1    2    0    0  0.28567338917E+02 -0.28113958113E+02 -0.20557873402E+02  0.46142315941E+02  0.99999834043E+01 0.  0.
         12    1    1    2    0    0 -0.28567338917E+02  0.28113958113E+02  0.20557873402E+02  0.45045684059E+02  0.00000000000E+00 0. -1.
         11    1    3    3    0    0  0.62336574973E+00 -0.10329210052E+01  0.88502878266E-01  0.12096874313E+01  0.51100000000E-03 0. -1.
        -11    1    3    3    0    0  0.18720375501E+02 -0.22802072613E+02 -0.13150905595E+02  0.32300670157E+02  0.51100000000E-03 0.  1.
         12    1    3    3    0    0  0.92235976657E+01 -0.42789644942E+01 -0.74954706846E+01  0.12631958353E+02  0.00000000000E+00 0. -1.
</event>
<event>
 7    1  0.2243370E-008  0.4614232E+02  0.7816164E-02  0.1320468E+00
        -11   -1    0    0    0    0  0.00000000000E+00  0.00000000000E+00  0.45593999997E+02  0.45594000000E+02  0.51100000000E-03 0.  1.
         11   -1    0    0    0    0 -0.00000000000E+00 -0.00000000000E+00 -0.45593999997E+02  0.45594000000E+02  0.51100000000E-03 0. -1.
    9900012    2    1    2    0    0  0.62566446077E+01  0.15029217615E+02  0.42001077686E+02  0.46142317513E+02  0.99999977415E+01 0.  0.
         12    1    1    2    0    0 -0.62566446077E+01 -0.15029217615E+02 -0.42001077686E+02  0.45045682487E+02  0.00000000000E+00 0. -1.
         11    1    3    3    0    0  0.35862703777E-01  0.66723295589E+00 -0.20124591819E+00  0.69784391640E+00  0.51100000000E-03 0. -1.
        -11    1    3    3    0    0  0.19038974119E+01  0.37149823679E+00  0.81544984004E+01  0.83820451393E+01  0.51100000000E-03 0.  1.
        -12    1    3    3    0    0  0.43168844920E+01  0.13990486422E+02  0.34047825204E+02  0.37062428458E+02  0.00000000000E+00 0.  1.
</event>
<event>
 7    1  0.2243370E-008  0.4614232E+02  0.7816164E-02  0.1320468E+00
        -11   -1    0    0    0    0  0.00000000000E+00  0.00000000000E+00  0.45593999997E+02  0.45594000000E+02  0.51100000000E-03 0.  1.
         11   -1    0    0    0    0 -0.00000000000E+00 -0.00000000000E+00 -0.45593999997E+02  0.45594000000E+02  0.51100000000E-03 0. -1.
    9900012    2    1    2    0    0 -0.15512734879E+02  0.42283748304E+02  0.74375502085E+00  0.46142317792E+02  0.10000000281E+02 0.  0.
         12    1    1    2    0    0  0.15512734879E+02 -0.42283748304E+02 -0.74375502085E+00  0.45045682208E+02  0.00000000000E+00 0. -1.
         11    1    3    3    0    0 -0.19755104863E+01  0.31561974767E+01 -0.13293228419E+01  0.39536468827E+01  0.51100000000E-03 0. -1.
        -11    1    3    3    0    0 -0.41446483233E+01  0.47954691542E+01  0.18184723908E+01  0.65940485463E+01  0.51100000000E-03 0.  1.
        -12    1    3    3    0    0 -0.93925760693E+01  0.34332081673E+02  0.25460547186E+00  0.35594622363E+02  0.00000000000E+00 0.  1.
</event>
<event>
 7    1  0.2243370E-008  0.4614232E+02  0.7816164E-02  0.1320468E+00
        -11   -1    0    0    0    0  0.00000000000E+00  0.00000000000E+00  0.45593999997E+02  0.45594000000E+02  0.51100000000E-03 0.  1.
         11   -1    0    0    0    0 -0.00000000000E+00 -0.00000000000E+00 -0.45593999997E+02  0.45594000000E+02  0.51100000000E-03 0. -1.
    9900012    2    1    2    0    0  0.15059808883E+01 -0.39803359733E+02  0.21036593476E+02  0.46142315528E+02  0.99999796360E+01 0.  0.
         12    1    1    2    0    0 -0.15059808883E+01  0.39803359733E+02 -0.21036593476E+02  0.45045684472E+02  0.00000000000E+00 0. -1.
         11    1    3    3    0    0 -0.22473165919E+01 -0.82358599703E+01  0.59839180427E+01  0.10425310390E+02  0.51100000000E-03 0. -1.
        -11    1    3    3    0    0 -0.17506637440E-01 -0.10039003737E+02  0.19268802649E+01  0.10222268356E+02  0.51100000000E-03 0.  1.
        -12    1    3    3    0    0  0.37708041177E+01 -0.21528496025E+02  0.13125795169E+02  0.25494736783E+02  0.00000000000E+00 0.  1.
</event>
<event>
 7    1  0.2243370E-008  0.4614232E+02  0.7816164E-02  0.1320468E+00
        -11   -1    0    0    0    0  0.00000000000E+00  0.00000000000E+00  0.45593999997E+02  0.45594000000E+02  0.51100000000E-03 0.  1.
         11   -1    0    0    0    0 -0.00000000000E+00 -0.00000000000E+00 -0.45593999997E+02  0.45594000000E+02  0.51100000000E-03 0. -1.
    9900012    2    1    2    0    0  0.17124861172E+02 -0.37053526683E+02  0.19049637193E+02  0.46142318886E+02  0.10000010256E+02 0.  0.
         12    1    1    2    0    0 -0.17124861172E+02  0.37053526683E+02 -0.19049637193E+02  0.45045681114E+02  0.00000000000E+00 0. -1.
         11    1    3    3    0    0  0.32942766547E+01 -0.99463123085E+01  0.59523829614E+01  0.12050404574E+02  0.51100000000E-03 0.  1.
        -11    1    3    3    0    0  0.72958439709E+01 -0.17123258827E+02  0.11917849696E+02  0.22101368142E+02  0.51100000000E-03 0. -1.
         12    1    3    3    0    0  0.65347405468E+01 -0.99839555482E+01  0.11794045359E+01  0.11990546170E+02  0.00000000000E+00 0. -1.
</event>
<event>
 7    1  0.2243370E-008  0.4614232E+02  0.7816164E-02  0.1320468E+00
        -11   -1    0    0    0    0  0.00000000000E+00  0.00000000000E+00  0.45593999997E+02  0.45594000000E+02  0.51100000000E-03 0. -1.
         11   -1    0    0    0    0 -0.00000000000E+00 -0.00000000000E+00 -0.45593999997E+02  0.45594000000E+02  0.51100000000E-03 0.  1.
    9900012    2    1    2    0    0 -0.11467444965E+02 -0.35848010795E+02 -0.24749371906E+02  0.46142316725E+02  0.99999905474E+01 0.  0.
         12    1    1    2    0    0  0.11467444965E+02  0.35848010795E+02  0.24749371906E+02  0.45045683275E+02  0.00000000000E+00 0. -1.
         11    1    3    3    0    0 -0.23452624133E+01 -0.93890714221E+01 -0.82495251105E+01  0.12716508277E+02  0.51100000000E-03 0. -1.
        -11    1    3    3    0    0 -0.10029755368E+02 -0.18774662441E+02 -0.11256225716E+02  0.24078757446E+02  0.51100000000E-03 0.  1.
         12    1    3    3    0    0  0.90757281670E+00 -0.76842769328E+01 -0.52436210798E+01  0.93470510015E+01  0.00000000000E+00 0. -1.
</event>
<event>
 7    1  0.2243370E-008  0.4614232E+02  0.7816164E-02  0.1320468E+00
        -11   -1    0    0    0    0  0.00000000000E+00  0.00000000000E+00  0.45593999997E+02  0.45594000000E+02  0.51100000000E-03 0. -1.
         11   -1    0    0    0    0 -0.00000000000E+00 -0.00000000000E+00 -0.45593999997E+02  0.45594000000E+02  0.51100000000E-03 0.  1.
    9900012    2    1    2    0    0  0.16128277448E+02 -0.71151571281E+01 -0.41453189531E+02  0.46142315227E+02  0.99999768875E+01 0.  0.
         12    1    1    2    0    0 -0.16128277448E+02  0.71151571281E+01  0.41453189531E+02  0.45045684773E+02  0.00000000000E+00 0. -1.
         11    1    3    3    0    0  0.35895521737E+01 -0.27947225667E+01 -0.16597990558E+02  0.17210132186E+02  0.51100000000E-03 0. -1.
        -11    1    3    3    0    0  0.12383446492E+02 -0.40440509452E+01 -0.25258027668E+02  0.28419571725E+02  0.51100000000E-03 0.  1.
         12    1    3    3    0    0  0.15527878213E+00 -0.27638361622E+00  0.40282869501E+00  0.51261131573E+00  0.00000000000E+00 0. -1.
</event>
<event>
 7    1  0.2243370E-008  0.4614232E+02  0.7816164E-02  0.1320468E+00
        -11   -1    0    0    0    0  0.00000000000E+00  0.00000000000E+00  0.45593999997E+02  0.45594000000E+02  0.51100000000E-03 0.  1.
         11   -1    0    0    0    0 -0.00000000000E+00 -0.00000000000E+00 -0.45593999997E+02  0.45594000000E+02  0.51100000000E-03 0. -1.
    9900012    2    1    2    0    0 -0.35338690003E+02 -0.29339435062E+01  0.27779173641E+02  0.46142317368E+02  0.99999964134E+01 0.  0.
         12    1    1    2    0    0  0.35338690003E+02  0.29339435062E+01 -0.27779173641E+02  0.45045682632E+02  0.00000000000E+00 0. -1.
         11    1    3    3    0    0 -0.81178853828E+01 -0.17515741888E+01  0.94514008893E+01  0.12581615725E+02  0.51100000000E-03 0. -1.
        -11    1    3    3    0    0 -0.88676281622E+01 -0.21958665714E+01  0.29640653853E+01  0.96042877451E+01  0.51100000000E-03 0.  1.
        -12    1    3    3    0    0 -0.18353176458E+02  0.10134972539E+01  0.15363707366E+02  0.23956413897E+02  0.00000000000E+00 0.  1.
</event>
<event>
 7    1  0.2243370E-008  0.4614232E+02  0.7816164E-02  0.1320468E+00
        -11   -1    0    0    0    0  0.00000000000E+00  0.00000000000E+00  0.45593999997E+02  0.45594000000E+02  0.51100000000E-03 0. -1.
         11   -1    0    0    0    0 -0.00000000000E+00 -0.00000000000E+00 -0.45593999997E+02  0.45594000000E+02  0.51100000000E-03 0.  1.
    9900012    2    1    2    0    0 -0.24960012712E+02  0.12131269423E+02 -0.35481593225E+02  0.46142318851E+02  0.10000009937E+02 0.  0.
         12    1    1    2    0    0  0.24960012712E+02 -0.12131269423E+02  0.35481593225E+02  0.45045681149E+02  0.00000000000E+00 0. -1.
         11    1    3    3    0    0 -0.14815613735E+02  0.63040553073E+01 -0.16589591077E+02  0.23118348904E+02  0.51100000000E-03 0. -1.
        -11    1    3    3    0    0 -0.67979650336E+01  0.64491587863E+01 -0.16070624555E+02  0.18602928573E+02  0.51100000000E-03 0.  1.
         12    1    3    3    0    0 -0.33464339429E+01 -0.62194467029E+00 -0.28213775934E+01  0.44210413741E+01  0.00000000000E+00 0. -1.
</event>
<event>
 7    1  0.2243370E-008  0.4614232E+02  0.7816164E-02  0.1320468E+00
        -11   -1    0    0    0    0  0.00000000000E+00  0.00000000000E+00  0.45593999997E+02  0.45594000000E+02  0.51100000000E-03 0.  1.
         11   -1    0    0    0    0 -0.00000000000E+00 -0.00000000000E+00 -0.45593999997E+02  0.45594000000E+02  0.51100000000E-03 0. -1.
    9900012    2    1    2    0    0 -0.43141734963E+02  0.25174187772E+00 -0.12955339871E+02  0.46142317623E+02  0.99999987435E+01 0.  0.
         12    1    1    2    0    0  0.43141734963E+02 -0.25174187772E+00  0.12955339871E+02  0.45045682377E+02  0.00000000000E+00 0. -1.
         11    1    3    3    0    0 -0.17011691671E+02  0.32430490418E+01 -0.64448879962E+01  0.18478409080E+02  0.51100000000E-03 0. -1.
        -11    1    3    3    0    0 -0.13689363936E+02 -0.29859775538E+01 -0.96850954325E+00  0.14044670090E+02  0.51100000000E-03 0.  1.
        -12    1    3    3    0    0 -0.12440679356E+02 -0.53296102325E-02 -0.55419423311E+01  0.13619238453E+02  0.00000000000E+00 0.  1.
</event>
<event>
 7    1  0.2243370E-008  0.4614232E+02  0.7816164E-02  0.1320468E+00
        -11   -1    0    0    0    0  0.00000000000E+00  0.00000000000E+00  0.45593999997E+02  0.45594000000E+02  0.51100000000E-03 0. -1.
         11   -1    0    0    0    0 -0.00000000000E+00 -0.00000000000E+00 -0.45593999997E+02  0.45594000000E+02  0.51100000000E-03 0.  1.
    9900012    2    1    2    0    0  0.43919671324E+02 -0.11317502332E+01  0.99446025229E+01  0.46142317553E+02  0.99999981031E+01 0.  0.
         12    1    1    2    0    0 -0.43919671324E+02  0.11317502332E+01 -0.99446025229E+01  0.45045682447E+02  0.00000000000E+00 0. -1.
         11    1    3    3    0    0  0.13389243194E+02  0.31587039601E+01  0.18697867866E+01  0.13883275799E+02  0.51100000000E-03 0. -1.
        -11    1    3    3    0    0  0.18303619566E+02 -0.14492555201E+00  0.52648317693E+01  0.19046310573E+02  0.51100000000E-03 0.  1.
        -12    1    3    3    0    0  0.12226808564E+02 -0.41455286413E+01  0.28099839669E+01  0.13212731181E+02  0.00000000000E+00 0.  1.
</event>
<event>
 7    1  0.2243370E-008  0.4614232E+02  0.7816164E-02  0.1320468E+00
        -11   -1    0    0    0    0  0.00000000000E+00  0.00000000000E+00  0.45593999997E+02  0.45594000000E+02  0.51100000000E-03 0.  1.
         11   -1    0    0    0    0 -0.00000000000E+00 -0.00000000000E+00 -0.45593999997E+02  0.45594000000E+02  0.51100000000E-03 0. -1.
    9900012    2    1    2    0    0  0.35126612783E+01 -0.38254118668E+02  0.23524395205E+02  0.46142317032E+02  0.99999933495E+01 0.  0.
         12    1    1    2    0    0 -0.35126612783E+01  0.38254118668E+02 -0.23524395205E+02  0.45045682968E+02  0.00000000000E+00 0. -1.
         11    1    3    3    0    0 -0.83359304303E+00 -0.32791366560E+01 -0.58671248261E+00  0.34339257955E+01  0.51100000000E-03 0. -1.
        -11    1    3    3    0    0  0.10389214905E+01 -0.64565395209E+01  0.42875371771E+01  0.78197976799E+01  0.51100000000E-03 0.  1.
         12    1    3    3    0    0  0.33073328309E+01 -0.28518442491E+02  0.19823570510E+02  0.34888593556E+02  0.00000000000E+00 0. -1.
</event>
<event>
 7    1  0.2243370E-008  0.4614232E+02  0.7816164E-02  0.1320468E+00
        -11   -1    0    0    0    0  0.00000000000E+00  0.00000000000E+00  0.45593999997E+02  0.45594000000E+02  0.51100000000E-03 0. -1.
         11   -1    0    0    0    0 -0.00000000000E+00 -0.00000000000E+00 -0.45593999997E+02  0.45594000000E+02  0.51100000000E-03 0.  1.
    9900012    2    1    2    0    0  0.28575436119E+02  0.82361658638E+01 -0.33833762354E+02  0.46142318159E+02  0.10000003624E+02 0.  0.
         12    1    1    2    0    0 -0.28575436119E+02 -0.82361658638E+01  0.33833762354E+02  0.45045681841E+02  0.00000000000E+00 0. -1.
         11    1    3    3    0    0  0.15654074864E+01  0.45424460218E+00 -0.74235103462E+00  0.17910678593E+01  0.51100000000E-03 0. -1.
        -11    1    3    3    0    0  0.32029730787E+01  0.21089522199E+01 -0.94635695368E+00  0.39499756650E+01  0.51100000000E-03 0.  1.
        -12    1    3    3    0    0  0.23807055554E+02  0.56729690417E+01 -0.32145054366E+02  0.40401274634E+02  0.00000000000E+00 0.  1.
</event>
<event>
 7    1  0.2243370E-008  0.4614232E+02  0.7816164E-02  0.1320468E+00
        -11   -1    0    0    0    0  0.00000000000E+00  0.00000000000E+00  0.45593999997E+02  0.45594000000E+02  0.51100000000E-03 0.  1.
         11   -1    0    0    0    0 -0.00000000000E+00 -0.00000000000E+00 -0.45593999997E+02  0.45594000000E+02  0.51100000000E-03 0. -1.
    9900012    2    1    2    0    0  0.40977231523E+02  0.16850993452E+02  0.81255145956E+01  0.46142317953E+02  0.10000001754E+02 0.  0.
         12    1    1    2    0    0 -0.40977231523E+02 -0.16850993452E+02 -0.81255145956E+01  0.45045682047E+02  0.00000000000E+00 0. -1.
         11    1    3    3    0    0  0.19324496210E+01 -0.30438512059E+00 -0.67318615401E+00  0.20688624165E+01  0.51100000000E-03 0. -1.
        -11    1    3    3    0    0  0.11201577072E+02  0.45000322887E+01  0.56468602086E+01  0.13327139602E+02  0.51100000000E-03 0.  1.
        -12    1    3    3    0    0  0.27843204830E+02  0.12655346284E+02  0.31518405410E+01  0.30746315935E+02  0.00000000000E+00 0.  1.
</event>
<event>
 7    1  0.2243370E-008  0.4614232E+02  0.7816164E-02  0.1320468E+00
        -11   -1    0    0    0    0  0.00000000000E+00  0.00000000000E+00  0.45593999997E+02  0.45594000000E+02  0.51100000000E-03 0.  1.
         11   -1    0    0    0    0 -0.00000000000E+00 -0.00000000000E+00 -0.45593999997E+02  0.45594000000E+02  0.51100000000E-03 0. -1.
    9900012    2    1    2    0    0 -0.20390564786E+02  0.15244982792E+01  0.40137443177E+02  0.46142316832E+02  0.99999915268E+01 0.  0.
         12    1    1    2    0    0  0.20390564786E+02 -0.15244982792E+01 -0.40137443177E+02  0.45045683168E+02  0.00000000000E+00 0. -1.
         11    1    3    3    0    0 -0.90579861817E+01  0.65771908623E+00  0.10367488059E+02  0.13782761588E+02  0.51100000000E-03 0. -1.
        -11    1    3    3    0    0 -0.63524819968E+01  0.31546157376E+01  0.14640378496E+02  0.16267953489E+02  0.51100000000E-03 0.  1.
        -12    1    3    3    0    0 -0.49800966074E+01 -0.22878365446E+01  0.15129576622E+02  0.16091601755E+02  0.00000000000E+00 0.  1.
</event>
<event>
 7    1  0.2243370E-008  0.4614232E+02  0.7816164E-02  0.1320468E+00
        -11   -1    0    0    0    0  0.00000000000E+00  0.00000000000E+00  0.45593999997E+02  0.45594000000E+02  0.51100000000E-03 0.  1.
         11   -1    0    0    0    0 -0.00000000000E+00 -0.00000000000E+00 -0.45593999997E+02  0.45594000000E+02  0.51100000000E-03 0. -1.
    9900012    2    1    2    0    0 -0.12655591801E+02 -0.42136981179E-01  0.43231327131E+02  0.46142318466E+02  0.10000006425E+02 0.  0.
         12    1    1    2    0    0  0.12655591801E+02  0.42136981179E-01 -0.43231327131E+02  0.45045681534E+02  0.00000000000E+00 0. -1.
         11    1    3    3    0    0  0.63314891509E+00 -0.24479636440E+01  0.56218274586E+01  0.61642799893E+01  0.51100000000E-03 0. -1.
        -11    1    3    3    0    0 -0.42000903011E+01  0.11069129268E+01  0.10834826949E+02  0.11673024031E+02  0.51100000000E-03 0.  1.
         12    1    3    3    0    0 -0.90886504150E+01  0.12989137361E+01  0.26774672724E+02  0.28305014445E+02  0.00000000000E+00 0. -1.
</event>
<event>
 7    1  0.2243370E-008  0.4614232E+02  0.7816164E-02  0.1320468E+00
        -11   -1    0    0    0    0  0.00000000000E+00  0.00000000000E+00  0.45593999997E+02  0.45594000000E+02  0.51100000000E-03 0. -1.
         11   -1    0    0    0    0 -0.00000000000E+00 -0.00000000000E+00 -0.45593999997E+02  0.45594000000E+02  0.51100000000E-03 0.  1.
    9900012    2    1    2    0    0 -0.63774227773E+01  0.20290100200E+02 -0.39708359458E+02  0.46142317652E+02  0.99999990006E+01 0.  0.
         12    1    1    2    0    0  0.63774227773E+01 -0.20290100200E+02  0.39708359458E+02  0.45045682348E+02  0.00000000000E+00 0. -1.
         11    1    3    3    0    0 -0.22777025766E+01  0.46574266605E+01 -0.36979362261E+01  0.63682246128E+01  0.51100000000E-03 0. -1.
        -11    1    3    3    0    0 -0.92976679490E+00  0.12018711564E+02 -0.24706892007E+02  0.27490805861E+02  0.51100000000E-03 0.  1.
        -12    1    3    3    0    0 -0.31699534058E+01  0.36139619756E+01 -0.11303531224E+02  0.12283287178E+02  0.00000000000E+00 0.  1.
</event>
<event>
 7    1  0.2243370E-008  0.4614232E+02  0.7816164E-02  0.1320468E+00
        -11   -1    0    0    0    0  0.00000000000E+00  0.00000000000E+00  0.45593999997E+02  0.45594000000E+02  0.51100000000E-03 0.  1.
         11   -1    0    0    0    0 -0.00000000000E+00 -0.00000000000E+00 -0.45593999997E+02  0.45594000000E+02  0.51100000000E-03 0. -1.
    9900012    2    1    2    0    0  0.17691567091E+02 -0.20707980596E+02  0.35878983521E+02  0.46142318020E+02  0.10000002365E+02 0.  0.
         12    1    1    2    0    0 -0.17691567091E+02  0.20707980596E+02 -0.35878983521E+02  0.45045681980E+02  0.00000000000E+00 0. -1.
         11    1    3    3    0    0  0.19339996597E+01  0.64429023332E+00  0.20273672799E+01  0.28750100760E+01  0.51100000000E-03 0. -1.
        -11    1    3    3    0    0  0.22786204271E+01 -0.41525476539E+01  0.90330346459E+01  0.10199582258E+02  0.51100000000E-03 0.  1.
         12    1    3    3    0    0  0.13478947005E+02 -0.17199723175E+02  0.24818581595E+02  0.33067725686E+02  0.00000000000E+00 0. -1.
</event>
<event>
 7    1  0.2243370E-008  0.4614232E+02  0.7816164E-02  0.1320468E+00
        -11   -1    0    0    0    0  0.00000000000E+00  0.00000000000E+00  0.45593999997E+02  0.45594000000E+02  0.51100000000E-03 0. -1.
         11   -1    0    0    0    0 -0.00000000000E+00 -0.00000000000E+00 -0.45593999997E+02  0.45594000000E+02  0.51100000000E-03 0.  1.
    9900012    2    1    2    0    0  0.25193440058E+02  0.10918876379E+02 -0.35709694729E+02  0.46142316733E+02  0.99999906248E+01 0.  0.
         12    1    1    2    0    0 -0.25193440058E+02 -0.10918876379E+02  0.35709694729E+02  0.45045683267E+02  0.00000000000E+00 0. -1.
         11    1    3    3    0    0  0.59051891779E+01 -0.73557450035E+00 -0.10002095892E+02  0.11638481497E+02  0.51100000000E-03 0. -1.
        -11    1    3    3    0    0  0.47141384002E+01  0.36839129261E+01 -0.41168545377E+01  0.72624243094E+01  0.51100000000E-03 0.  1.
        -12    1    3    3    0    0  0.14574112480E+02  0.79705379534E+01 -0.21590744300E+02  0.27241410926E+02  0.00000000000E+00 0.  1.
</event>
<event>
 7    1  0.2243370E-008  0.4614232E+02  0.7816164E-02  0.1320468E+00
        -11   -1    0    0    0    0  0.00000000000E+00  0.00000000000E+00  0.45593999997E+02  0.45594000000E+02  0.51100000000E-03 0.  1.
         11   -1    0    0    0    0 -0.00000000000E+00 -0.00000000000E+00 -0.45593999997E+02  0.45594000000E+02  0.51100000000E-03 0. -1.
    9900012    2    1    2    0    0 -0.41193632051E+02 -0.17645526080E+02 -0.45643614779E+01  0.46142319764E+02  0.10000018264E+02 0.  0.
         12    1    1    2    0    0  0.41193632051E+02  0.17645526080E+02  0.45643614779E+01  0.45045680236E+02  0.00000000000E+00 0. -1.
         11    1    3    3    0    0 -0.41800822930E+01 -0.49617054963E+00 -0.20424185413E+01  0.46787548503E+01  0.51100000000E-03 0. -1.
        -11    1    3    3    0    0 -0.33745536833E+02 -0.14425338613E+02 -0.40958680217E+01  0.36927331143E+02  0.51100000000E-03 0.  1.
         12    1    3    3    0    0 -0.32680129256E+01 -0.27240169175E+01  0.15739250851E+01  0.45362337706E+01  0.00000000000E+00 0. -1.
</event>
<event>
 7    1  0.2243370E-008  0.4614232E+02  0.7816164E-02  0.1320468E+00
        -11   -1    0    0    0    0  0.00000000000E+00  0.00000000000E+00  0.45593999997E+02  0.45594000000E+02  0.51100000000E-03 0. -1.
         11   -1    0    0    0    0 -0.00000000000E+00 -0.00000000000E+00 -0.45593999997E+02  0.45594000000E+02  0.51100000000E-03 0.  1.
    9900012    2    1    2    0    0  0.38942571011E+02 -0.14128994540E+02 -0.17690708206E+02  0.46142317849E+02  0.10000000799E+02 0.  0.
         12    1    1    2    0    0 -0.38942571011E+02  0.14128994540E+02  0.17690708206E+02  0.45045682151E+02  0.00000000000E+00 0. -1.
         11    1    3    3    0    0  0.10798497455E+02 -0.34977698730E+01 -0.54189863563E+01  0.12578050515E+02  0.51100000000E-03 0. -1.
        -11    1    3    3    0    0  0.17301028877E+02 -0.35966601465E+01 -0.10400601326E+02  0.20504489085E+02  0.51100000000E-03 0.  1.
         12    1    3    3    0    0  0.10843044679E+02 -0.70345645204E+01 -0.18711205235E+01  0.13059778249E+02  0.00000000000E+00 0. -1.
</event>
<event>
 7    1  0.2243370E-008  0.4614231E+02  0.7816164E-02  0.1320468E+00
        -11   -1    0    0    0    0  0.00000000000E+00  0.00000000000E+00  0.45593999997E+02  0.45594000000E+02  0.51100000000E-03 0.  1.
         11   -1    0    0    0    0 -0.00000000000E+00 -0.00000000000E+00 -0.45593999997E+02  0.45594000000E+02  0.51100000000E-03 0. -1.
    9900012    2    1    2    0    0 -0.36093270295E+02  0.10941240884E+02  0.24630856527E+02  0.46142312016E+02  0.99999476117E+01 0.  0.
         12    1    1    2    0    0  0.36093270295E+02 -0.10941240884E+02 -0.24630856527E+02  0.45045687984E+02  0.00000000000E+00 0. -1.
         11    1    3    3    0    0 -0.10539250032E+02 -0.21132906464E+00  0.58396375264E+01  0.12050801546E+02  0.51100000000E-03 0. -1.
        -11    1    3    3    0    0 -0.24983287451E+02  0.11705864989E+02  0.17854524832E+02  0.32862988060E+02  0.51100000000E-03 0.  1.
        -12    1    3    3    0    0 -0.57073281237E+00 -0.55329504041E+00  0.93669416904E+00  0.12285224097E+01  0.00000000000E+00 0.  1.
</event>
<event>
 7    1  0.2243370E-008  0.4614232E+02  0.7816164E-02  0.1320468E+00
        -11   -1    0    0    0    0  0.00000000000E+00  0.00000000000E+00  0.45593999997E+02  0.45594000000E+02  0.51100000000E-03 0.  1.
         11   -1    0    0    0    0 -0.00000000000E+00 -0.00000000000E+00 -0.45593999997E+02  0.45594000000E+02  0.51100000000E-03 0. -1.
    9900012    2    1    2    0    0  0.40892268514E+02 -0.16411205473E+02 -0.93599237219E+01  0.46142318061E+02  0.10000002732E+02 0.  0.
         12    1    1    2    0    0 -0.40892268514E+02  0.16411205473E+02  0.93599237219E+01  0.45045681939E+02  0.00000000000E+00 0. -1.
         11    1    3    3    0    0  0.21014709294E+02 -0.10319113338E+02 -0.35847846614E+01  0.23684441900E+02  0.51100000000E-03 0. -1.
        -11    1    3    3    0    0  0.14845907888E+02 -0.56943694596E+01 -0.17392641732E+01  0.15995370101E+02  0.51100000000E-03 0.  1.
        -12    1    3    3    0    0  0.50316513323E+01 -0.39772267450E+00 -0.40358748874E+01  0.64625060590E+01  0.00000000000E+00 0.  1.
</event>
<event>
 7    1  0.2243370E-008  0.4614232E+02  0.7816164E-02  0.1320468E+00
        -11   -1    0    0    0    0  0.00000000000E+00  0.00000000000E+00  0.45593999997E+02  0.45594000000E+02  0.51100000000E-03 0.  1.
         11   -1    0    0    0    0 -0.00000000000E+00 -0.00000000000E+00 -0.45593999997E+02  0.45594000000E+02  0.51100000000E-03 0. -1.
    9900012    2    1    2    0    0  0.40216229960E+02 -0.19807996700E+02  0.44058784793E+01  0.46142315960E+02  0.99999835726E+01 0.  0.
         12    1    1    2    0    0 -0.40216229960E+02  0.19807996700E+02 -0.44058784793E+01  0.45045684040E+02  0.00000000000E+00 0. -1.
         11    1    3    3    0    0  0.18022843960E+02 -0.10743199255E+02 -0.53473425635E+00  0.20988691613E+02  0.51100000000E-03 0. -1.
        -11    1    3    3    0    0 -0.32042306546E+00 -0.41970554045E+00  0.25374529885E+00  0.58584180405E+00  0.51100000000E-03 0.  1.
         12    1    3    3    0    0  0.22513809066E+02 -0.86450919045E+01  0.46868674368E+01  0.24567782543E+02  0.00000000000E+00 0. -1.
</event>
<event>
 7    1  0.2243370E-008  0.4614232E+02  0.7816164E-02  0.1320468E+00
        -11   -1    0    0    0    0  0.00000000000E+00  0.00000000000E+00  0.45593999997E+02  0.45594000000E+02  0.51100000000E-03 0.  1.
         11   -1    0    0    0    0 -0.00000000000E+00 -0.00000000000E+00 -0.45593999997E+02  0.45594000000E+02  0.51100000000E-03 0. -1.
    9900012    2    1    2    0    0  0.55579849076E+01  0.39734957890E+02  0.20478162936E+02  0.46142320607E+02  0.10000025953E+02 0.  0.
         12    1    1    2    0    0 -0.55579849076E+01 -0.39734957890E+02 -0.20478162936E+02  0.45045679393E+02  0.00000000000E+00 0. -1.
         11    1    3    3    0    0  0.66947605997E+01  0.31038294640E+02  0.14013071957E+02  0.34706796735E+02  0.51100000000E-03 0. -1.
        -11    1    3    3    0    0  0.10088558034E+00  0.72477988326E+01  0.61462029637E+01  0.95035034040E+01  0.51100000000E-03 0.  1.
         12    1    3    3    0    0 -0.12376612725E+01  0.14488644168E+01  0.31888801496E+00  0.19320204682E+01  0.00000000000E+00 0. -1.
</event>
<event>
 7    1  0.2243370E-008  0.4614232E+02  0.7816164E-02  0.1320468E+00
        -11   -1    0    0    0    0  0.00000000000E+00  0.00000000000E+00  0.45593999997E+02  0.45594000000E+02  0.51100000000E-03 0.  1.
         11   -1    0    0    0    0 -0.00000000000E+00 -0.00000000000E+00 -0.45593999997E+02  0.45594000000E+02  0.51100000000E-03 0. -1.
    9900012    2    1    2    0    0  0.16398782675E+02  0.16115763201E+01  0.41923694568E+02  0.46142318545E+02  0.10000007151E+02 0.  0.
         12    1    1    2    0    0 -0.16398782675E+02 -0.16115763201E+01 -0.41923694568E+02  0.45045681455E+02  0.00000000000E+00 0. -1.
         11    1    3    3    0    0 -0.54580854453E+00  0.12056633426E+00  0.57944448133E+01  0.58213429863E+01  0.51100000000E-03 0. -1.
        -11    1    3    3    0    0  0.16165472564E+02  0.39664473496E+00  0.30364651175E+02  0.34401916684E+02  0.51100000000E-03 0.  1.
        -12    1    3    3    0    0  0.77911865517E+00  0.10943652509E+01  0.57645985801E+01  0.59190588755E+01  0.00000000000E+00 0.  1.
</event>
<event>
 7    1  0.2243370E-008  0.4614232E+02  0.7816164E-02  0.1320468E+00
        -11   -1    0    0    0    0  0.00000000000E+00  0.00000000000E+00  0.45593999997E+02  0.45594000000E+02  0.51100000000E-03 0.  1.
         11   -1    0    0    0    0 -0.00000000000E+00 -0.00000000000E+00 -0.45593999997E+02  0.45594000000E+02  0.51100000000E-03 0. -1.
    9900012    2    1    2    0    0  0.21075451916E+01 -0.18384098367E+02  0.41069411680E+02  0.46142318795E+02  0.10000009427E+02 0.  0.
         12    1    1    2    0    0 -0.21075451916E+01  0.18384098367E+02 -0.41069411680E+02  0.45045681205E+02  0.00000000000E+00 0. -1.
         11    1    3    3    0    0  0.54460722211E-01 -0.21658330051E+01  0.11125732797E+02  0.11334713455E+02  0.51100000000E-03 0. -1.
        -11    1    3    3    0    0  0.13637456227E+01 -0.38347246842E+01  0.14163621422E+02  0.14736793666E+02  0.51100000000E-03 0.  1.
        -12    1    3    3    0    0  0.68933884673E+00 -0.12383540678E+02  0.15780057462E+02  0.20070811674E+02  0.00000000000E+00 0.  1.
</event>
<event>
 7    1  0.2243370E-008  0.4614232E+02  0.7816164E-02  0.1320468E+00
        -11   -1    0    0    0    0  0.00000000000E+00  0.00000000000E+00  0.45593999997E+02  0.45594000000E+02  0.51100000000E-03 0.  1.
         11   -1    0    0    0    0 -0.00000000000E+00 -0.00000000000E+00 -0.45593999997E+02  0.45594000000E+02  0.51100000000E-03 0. -1.
    9900012    2    1    2    0    0  0.18654488061E+02  0.29059461110E+01  0.40898398556E+02  0.46142318165E+02  0.10000003679E+02 0.  0.
         12    1    1    2    0    0 -0.18654488061E+02 -0.29059461110E+01 -0.40898398556E+02  0.45045681835E+02  0.00000000000E+00 0. -1.
         11    1    3    3    0    0  0.23845612756E+01  0.24749699187E+01  0.14856538117E+02  0.15248879751E+02  0.51100000000E-03 0. -1.
        -11    1    3    3    0    0  0.37265917725E+00  0.21169608604E+00  0.59448684117E-01  0.43269446772E+00  0.51100000000E-03 0.  1.
        -12    1    3    3    0    0  0.15897267608E+02  0.21928010619E+00  0.25982411754E+02  0.30460743946E+02  0.00000000000E+00 0.  1.
</event>
<event>
 7    1  0.2243370E-008  0.4614232E+02  0.7816164E-02  0.1320468E+00
        -11   -1    0    0    0    0  0.00000000000E+00  0.00000000000E+00  0.45593999997E+02  0.45594000000E+02  0.51100000000E-03 0.  1.
         11   -1    0    0    0    0 -0.00000000000E+00 -0.00000000000E+00 -0.45593999997E+02  0.45594000000E+02  0.51100000000E-03 0. -1.
    9900012    2    1    2    0    0  0.63225437489E+00  0.43265620056E+02 -0.12521977345E+02  0.46142317177E+02  0.99999946714E+01 0.  0.
         12    1    1    2    0    0 -0.63225437489E+00 -0.43265620056E+02  0.12521977345E+02  0.45045682823E+02  0.00000000000E+00 0. -1.
         11    1    3    3    0    0 -0.32653191848E+01  0.79537100996E+01 -0.26224798986E+01  0.89889495941E+01  0.51100000000E-03 0. -1.
        -11    1    3    3    0    0  0.25752163506E+01  0.33313803066E+02 -0.91677883468E+01  0.34648081583E+02  0.51100000000E-03 0.  1.
        -12    1    3    3    0    0  0.13223572090E+01  0.19981068903E+01 -0.73170909976E+00  0.25052859997E+01  0.00000000000E+00 0.  1.
</event>
<event>
 7    1  0.2243370E-008  0.4614232E+02  0.7816164E-02  0.1320468E+00
        -11   -1    0    0    0    0  0.00000000000E+00  0.00000000000E+00  0.45593999997E+02  0.45594000000E+02  0.51100000000E-03 0. -1.
         11   -1    0    0    0    0 -0.00000000000E+00 -0.00000000000E+00 -0.45593999997E+02  0.45594000000E+02  0.51100000000E-03 0.  1.
    9900012    2    1    2    0    0 -0.18340520255E+02 -0.40843580234E+02  0.49538564131E+01  0.46142318488E+02  0.10000006626E+02 0.  0.
         12    1    1    2    0    0  0.18340520255E+02  0.40843580234E+02 -0.49538564131E+01  0.45045681512E+02  0.00000000000E+00 0. -1.
         11    1    3    3    0    0 -0.78612158825E+00 -0.96215415038E+01 -0.23614415297E-01  0.96536317499E+01  0.51100000000E-03 0. -1.
        -11    1    3    3    0    0 -0.58692295390E+01 -0.62395567771E+01  0.10537865996E+01  0.86307815761E+01  0.51100000000E-03 0.  1.
        -12    1    3    3    0    0 -0.11685169128E+02 -0.24982481953E+02  0.39236842288E+01  0.27857905162E+02  0.00000000000E+00 0.  1.
</event>
<event>
 7    1  0.2243370E-008  0.4614232E+02  0.7816164E-02  0.1320468E+00
        -11   -1    0    0    0    0  0.00000000000E+00  0.00000000000E+00  0.45593999997E+02  0.45594000000E+02  0.51100000000E-03 0.  1.
         11   -1    0    0    0    0 -0.00000000000E+00 -0.00000000000E+00 -0.45593999997E+02  0.45594000000E+02  0.51100000000E-03 0. -1.
    9900012    2    1    2    0    0 -0.38820327954E+02 -0.22713105522E+02  0.24921075596E+01  0.46142316245E+02  0.99999861718E+01 0.  0.
         12    1    1    2    0    0  0.38820327954E+02  0.22713105522E+02 -0.24921075596E+01  0.45045683755E+02  0.00000000000E+00 0. -1.
         11    1    3    3    0    0 -0.15473382988E+02 -0.70558781557E+01 -0.17004950484E+01  0.17091011711E+02  0.51100000000E-03 0. -1.
        -11    1    3    3    0    0 -0.62548055402E+00  0.14472612694E+00  0.10045617185E+01  0.11921896169E+01  0.51100000000E-03 0.  1.
        -12    1    3    3    0    0 -0.22721464412E+02 -0.15801953493E+02  0.31880408895E+01  0.27859114916E+02  0.00000000000E+00 0.  1.
</event>
<event>
 7    1  0.2243370E-008  0.4614232E+02  0.7816164E-02  0.1320468E+00
        -11   -1    0    0    0    0  0.00000000000E+00  0.00000000000E+00  0.45593999997E+02  0.45594000000E+02  0.51100000000E-03 0.  1.
         11   -1    0    0    0    0 -0.00000000000E+00 -0.00000000000E+00 -0.45593999997E+02  0.45594000000E+02  0.51100000000E-03 0. -1.
    9900012    2    1    2    0    0 -0.42034442668E+02  0.10081472776E+02  0.12672136713E+02  0.46142317491E+02  0.99999975413E+01 0.  0.
         12    1    1    2    0    0  0.42034442668E+02 -0.10081472776E+02 -0.12672136713E+02  0.45045682509E+02  0.00000000000E+00 0. -1.
         11    1    3    3    0    0 -0.21907474245E+02  0.87369031504E+01  0.51487919360E+01  0.24140856719E+02  0.51100000000E-03 0. -1.
        -11    1    3    3    0    0 -0.11477058877E+02  0.12818338907E+01  0.19515386046E+01  0.11712151031E+02  0.51100000000E-03 0.  1.
         12    1    3    3    0    0 -0.86499095460E+01  0.62735735233E-01  0.55718061725E+01  0.10289309741E+02  0.00000000000E+00 0. -1.
</event>
<event>
 7    1  0.2243370E-008  0.4614232E+02  0.7816164E-02  0.1320468E+00
        -11   -1    0    0    0    0  0.00000000000E+00  0.00000000000E+00  0.45593999997E+02  0.45594000000E+02  0.51100000000E-03 0. -1.
         11   -1    0    0    0    0 -0.00000000000E+00 -0.00000000000E+00 -0.45593999997E+02  0.45594000000E+02  0.51100000000E-03 0.  1.
    9900012    2    1    2    0    0 -0.35701461650E+02  0.47124892384E+01 -0.27061256078E+02  0.46142317640E+02  0.99999988959E+01 0.  0.
         12    1    1    2    0    0  0.35701461650E+02 -0.47124892384E+01  0.27061256078E+02  0.45045682360E+02  0.00000000000E+00 0. -1.
         11    1    3    3    0    0 -0.82189067687E+01  0.18292359439E+01 -0.31317303689E+01  0.89835554195E+01  0.51100000000E-03 0. -1.
        -11    1    3    3    0    0 -0.14034123541E+02  0.21832410705E+01 -0.80047977199E+01  0.16303372410E+02  0.51100000000E-03 0.  1.
         12    1    3    3    0    0 -0.13448431340E+02  0.70001222392E+00 -0.15924727989E+02  0.20855389811E+02  0.00000000000E+00 0. -1.
</event>
<event>
 7    1  0.2243370E-008  0.4614232E+02  0.7816164E-02  0.1320468E+00
        -11   -1    0    0    0    0  0.00000000000E+00  0.00000000000E+00  0.45593999997E+02  0.45594000000E+02  0.51100000000E-03 0.  1.
         11   -1    0    0    0    0 -0.00000000000E+00 -0.00000000000E+00 -0.45593999997E+02  0.45594000000E+02  0.51100000000E-03 0. -1.
    9900012    2    1    2    0    0 -0.34395750842E+02  0.20447297750E+02  0.20687048662E+02  0.46142316038E+02  0.99999842904E+01 0.  0.
         12    1    1    2    0    0  0.34395750842E+02 -0.20447297750E+02 -0.20687048662E+02  0.45045683962E+02  0.00000000000E+00 0. -1.
         11    1    3    3    0    0 -0.42964242665E+01  0.29455855775E+01 -0.18747529071E-01  0.52092309992E+01  0.51100000000E-03 0. -1.
        -11    1    3    3    0    0 -0.21186503248E+02  0.11880902190E+02  0.11225325301E+02  0.26758768378E+02  0.51100000000E-03 0.  1.
        -12    1    3    3    0    0 -0.89128233271E+01  0.56208099823E+01  0.94804708897E+01  0.14174316661E+02  0.00000000000E+00 0.  1.
</event>
<event>
 7    1  0.2243370E-008  0.4614232E+02  0.7816164E-02  0.1320468E+00
        -11   -1    0    0    0    0  0.00000000000E+00  0.00000000000E+00  0.45593999997E+02  0.45594000000E+02  0.51100000000E-03 0.  1.
         11   -1    0    0    0    0 -0.00000000000E+00 -0.00000000000E+00 -0.45593999997E+02  0.45594000000E+02  0.51100000000E-03 0. -1.
    9900012    2    1    2    0    0 -0.31980249388E+02 -0.11017811780E+02  0.29748697330E+02  0.46142317408E+02  0.99999967830E+01 0.  0.
         12    1    1    2    0    0  0.31980249388E+02  0.11017811780E+02 -0.29748697330E+02  0.45045682592E+02  0.00000000000E+00 0. -1.
         11    1    3    3    0    0 -0.40361984574E+01 -0.23111880408E+01  0.10605166882E+01  0.47704490412E+01  0.51100000000E-03 0. -1.
        -11    1    3    3    0    0  0.16860276114E+00  0.23411610606E+00  0.14271396718E+00  0.32187696365E+00  0.51100000000E-03 0.  1.
        -12    1    3    3    0    0 -0.28112653692E+02 -0.89407398455E+01  0.28545466674E+02  0.41049991404E+02  0.00000000000E+00 0.  1.
</event>
<event>
 7    1  0.2243370E-008  0.4614232E+02  0.7816164E-02  0.1320468E+00
        -11   -1    0    0    0    0  0.00000000000E+00  0.00000000000E+00  0.45593999997E+02  0.45594000000E+02  0.51100000000E-03 0.  1.
         11   -1    0    0    0    0 -0.00000000000E+00 -0.00000000000E+00 -0.45593999997E+02  0.45594000000E+02  0.51100000000E-03 0. -1.
    9900012    2    1    2    0    0 -0.58427704058E+01  0.11250610493E+02  0.43224984656E+02  0.46142317621E+02  0.99999987239E+01 0.  0.
         12    1    1    2    0    0  0.58427704058E+01 -0.11250610493E+02 -0.43224984656E+02  0.45045682379E+02  0.00000000000E+00 0. -1.
         11    1    3    3    0    0  0.20320964861E+00  0.10547395817E+01  0.12701604159E+02  0.12746941524E+02  0.51100000000E-03 0. -1.
        -11    1    3    3    0    0 -0.58173343438E+01  0.58975589505E+01  0.25329531916E+02  0.26649723597E+02  0.51100000000E-03 0.  1.
         12    1    3    3    0    0 -0.22864571070E+00  0.42983119606E+01  0.51938485804E+01  0.67456524998E+01  0.00000000000E+00 0. -1.
</event>
<event>
 7    1  0.2243370E-008  0.4614232E+02  0.7816164E-02  0.1320468E+00
        -11   -1    0    0    0    0  0.00000000000E+00  0.00000000000E+00  0.45593999997E+02  0.45594000000E+02  0.51100000000E-03 0. -1.
         11   -1    0    0    0    0 -0.00000000000E+00 -0.00000000000E+00 -0.45593999997E+02  0.45594000000E+02  0.51100000000E-03 0.  1.
    9900012    2    1    2    0    0 -0.24369588090E+02 -0.35590891268E+02  0.12981721856E+02  0.46142317995E+02  0.10000002133E+02 0.  0.
         12    1    1    2    0    0  0.24369588090E+02  0.35590891268E+02 -0.12981721856E+02  0.45045682005E+02  0.00000000000E+00 0. -1.
         11    1    3    3    0    0 -0.33317113450E+00 -0.73500524939E+00 -0.19554344452E+00  0.83034524224E+00  0.51100000000E-03 0. -1.
        -11    1    3    3    0    0 -0.99339188557E+01 -0.72782421183E+01  0.48718046717E+01  0.13243490219E+02  0.51100000000E-03 0.  1.
        -12    1    3    3    0    0 -0.14102498100E+02 -0.27577643900E+02  0.83054606287E+01  0.32068482534E+02  0.00000000000E+00 0.  1.
</event>
<event>
 7    1  0.2243370E-008  0.4614232E+02  0.7816164E-02  0.1320468E+00
        -11   -1    0    0    0    0  0.00000000000E+00  0.00000000000E+00  0.45593999997E+02  0.45594000000E+02  0.51100000000E-03 0.  1.
         11   -1    0    0    0    0 -0.00000000000E+00 -0.00000000000E+00 -0.45593999997E+02  0.45594000000E+02  0.51100000000E-03 0. -1.
    9900012    2    1    2    0    0 -0.29928859620E+02 -0.24598071261E+02  0.22985032590E+02  0.46142317953E+02  0.10000001749E+02 0.  0.
         12    1    1    2    0    0  0.29928859620E+02  0.24598071261E+02 -0.22985032590E+02  0.45045682047E+02  0.00000000000E+00 0. -1.
         11    1    3    3    0    0 -0.12272798738E+02 -0.69739375431E+01  0.12906844554E+02  0.19127049703E+02  0.51100000000E-03 0. -1.
        -11    1    3    3    0    0 -0.82798634762E+01 -0.79006108240E+01  0.59016960059E+01  0.12876560355E+02  0.51100000000E-03 0.  1.
         12    1    3    3    0    0 -0.93761974053E+01 -0.97235228944E+01  0.41764920304E+01  0.14138707895E+02  0.00000000000E+00 0. -1.
</event>
<event>
 7    1  0.2243370E-008  0.4614232E+02  0.7816164E-02  0.1320468E+00
        -11   -1    0    0    0    0  0.00000000000E+00  0.00000000000E+00  0.45593999997E+02  0.45594000000E+02  0.51100000000E-03 0.  1.
         11   -1    0    0    0    0 -0.00000000000E+00 -0.00000000000E+00 -0.45593999997E+02  0.45594000000E+02  0.51100000000E-03 0. -1.
    9900012    2    1    2    0    0 -0.18755242313E+02  0.67846363511E+01  0.40389641642E+02  0.46142317004E+02  0.99999930950E+01 0.  0.
         12    1    1    2    0    0  0.18755242313E+02 -0.67846363511E+01 -0.40389641642E+02  0.45045682996E+02  0.00000000000E+00 0. -1.
         11    1    3    3    0    0 -0.42539055953E+01 -0.51630097312E-01  0.10304269702E+02  0.11147930429E+02  0.51100000000E-03 0. -1.
        -11    1    3    3    0    0 -0.14880699488E+02  0.46190258535E+01  0.27046802646E+02  0.31213781423E+02  0.51100000000E-03 0.  1.
        -12    1    3    3    0    0  0.37936277008E+00  0.22172405950E+01  0.30385692929E+01  0.37806051519E+01  0.00000000000E+00 0.  1.
</event>
<event>
 7    1  0.2243370E-008  0.4614233E+02  0.7816164E-02  0.1320468E+00
        -11   -1    0    0    0    0  0.00000000000E+00  0.00000000000E+00  0.45593999997E+02  0.45594000000E+02  0.51100000000E-03 0.  1.
         11   -1    0    0    0    0 -0.00000000000E+00 -0.00000000000E+00 -0.45593999997E+02  0.45594000000E+02  0.51100000000E-03 0. -1.
    9900012    2    1    2    0    0  0.37458043669E+02 -0.15941358877E+02  0.19284212914E+02  0.46142325113E+02  0.10000067039E+02 0.  0.
         12    1    1    2    0    0 -0.37458043669E+02  0.15941358877E+02 -0.19284212914E+02  0.45045674887E+02  0.00000000000E+00 0. -1.
         11    1    3    3    0    0  0.13528122063E+02 -0.60946462114E+01  0.10749268414E+02  0.18322160645E+02  0.51100000000E-03 0. -1.
        -11    1    3    3    0    0  0.17866382323E+02 -0.85082241450E+01  0.41522351372E+01  0.20219756485E+02  0.51100000000E-03 0.  1.
         12    1    3    3    0    0  0.60635392826E+01 -0.13384885202E+01  0.43827093626E+01  0.76004079829E+01  0.00000000000E+00 0. -1.
</event>
<event>
 7    1  0.2243370E-008  0.4614232E+02  0.7816164E-02  0.1320468E+00
        -11   -1    0    0    0    0  0.00000000000E+00  0.00000000000E+00  0.45593999997E+02  0.45594000000E+02  0.51100000000E-03 0.  1.
         11   -1    0    0    0    0 -0.00000000000E+00 -0.00000000000E+00 -0.45593999997E+02  0.45594000000E+02  0.51100000000E-03 0. -1.
    9900012    2    1    2    0    0 -0.39428124882E+02 -0.13029401851E+01  0.21744854761E+02  0.46142318815E+02  0.10000009610E+02 0.  0.
         12    1    1    2    0    0  0.39428124882E+02  0.13029401851E+01 -0.21744854761E+02  0.45045681185E+02  0.00000000000E+00 0. -1.
         11    1    3    3    0    0 -0.71182804347E+01  0.26524311751E+01  0.13946643958E+01  0.77233669163E+01  0.51100000000E-03 0. -1.
        -11    1    3    3    0    0 -0.86503767469E+01 -0.40354029272E+00  0.52111770567E+01  0.10106840713E+02  0.51100000000E-03 0.  1.
        -12    1    3    3    0    0 -0.23659467701E+02 -0.35518310675E+01  0.15139013308E+02  0.28312111185E+02  0.00000000000E+00 0.  1.
</event>
<event>
 7    1  0.2243370E-008  0.4614232E+02  0.7816164E-02  0.1320468E+00
        -11   -1    0    0    0    0  0.00000000000E+00  0.00000000000E+00  0.45593999997E+02  0.45594000000E+02  0.51100000000E-03 0.  1.
         11   -1    0    0    0    0 -0.00000000000E+00 -0.00000000000E+00 -0.45593999997E+02  0.45594000000E+02  0.51100000000E-03 0. -1.
    9900012    2    1    2    0    0 -0.17329067200E+02 -0.20180557998E+02  0.36353290417E+02  0.46142320792E+02  0.10000027637E+02 0.  0.
         12    1    1    2    0    0  0.17329067200E+02  0.20180557998E+02 -0.36353290417E+02  0.45045679208E+02  0.00000000000E+00 0. -1.
         11    1    3    3    0    0 -0.37889829412E+01 -0.35918363435E+01  0.40711252969E+01  0.66205544701E+01  0.51100000000E-03 0. -1.
        -11    1    3    3    0    0 -0.18339665791E+01 -0.64021603836E+01  0.58156117294E+01  0.88415174624E+01  0.51100000000E-03 0.  1.
        -12    1    3    3    0    0 -0.11706117680E+02 -0.10186561271E+02  0.26466553391E+02  0.30680248859E+02  0.00000000000E+00 0.  1.
</event>
<event>
 7    1  0.2243370E-008  0.4614232E+02  0.7816164E-02  0.1320468E+00
        -11   -1    0    0    0    0  0.00000000000E+00  0.00000000000E+00  0.45593999997E+02  0.45594000000E+02  0.51100000000E-03 0. -1.
         11   -1    0    0    0    0 -0.00000000000E+00 -0.00000000000E+00 -0.45593999997E+02  0.45594000000E+02  0.51100000000E-03 0.  1.
    9900012    2    1    2    0    0 -0.41275902584E+02 -0.18039189106E+02 -0.32356295845E-01  0.46142317359E+02  0.99999963309E+01 0.  0.
         12    1    1    2    0    0  0.41275902584E+02  0.18039189106E+02  0.32356295845E-01  0.45045682641E+02  0.00000000000E+00 0. -1.
         11    1    3    3    0    0 -0.14197309814E+02 -0.10236588594E+02  0.13614409533E+01  0.17555764686E+02  0.51100000000E-03 0. -1.
        -11    1    3    3    0    0 -0.73676953488E+01 -0.30295201311E+01  0.14825570701E+01  0.81030181232E+01  0.51100000000E-03 0.  1.
        -12    1    3    3    0    0 -0.19710897421E+02 -0.47730803811E+01 -0.28763543193E+01  0.20483534549E+02  0.00000000000E+00 0.  1.
</event>
<event>
 7    1  0.2243370E-008  0.4614232E+02  0.7816164E-02  0.1320468E+00
        -11   -1    0    0    0    0  0.00000000000E+00  0.00000000000E+00  0.45593999997E+02  0.45594000000E+02  0.51100000000E-03 0. -1.
         11   -1    0    0    0    0 -0.00000000000E+00 -0.00000000000E+00 -0.45593999997E+02  0.45594000000E+02  0.51100000000E-03 0.  1.
    9900012    2    1    2    0    0 -0.15241182068E+02  0.41202783824E+02 -0.99574316464E+01  0.46142317958E+02  0.10000001792E+02 0.  0.
         12    1    1    2    0    0  0.15241182068E+02 -0.41202783824E+02  0.99574316464E+01  0.45045682042E+02  0.00000000000E+00 0. -1.
         11    1    3    3    0    0 -0.22928882294E+01  0.31217793824E+01 -0.57153706324E+00  0.39152902600E+01  0.51100000000E-03 0. -1.
        -11    1    3    3    0    0 -0.75947221116E+01  0.16484894944E+02 -0.82802629649E+01  0.19949794994E+02  0.51100000000E-03 0.  1.
        -12    1    3    3    0    0 -0.53535717267E+01  0.21596109497E+02 -0.11056316182E+01  0.22277232703E+02  0.00000000000E+00 0.  1.
</event>
<event>
 7    1  0.2243370E-008  0.4614231E+02  0.7816164E-02  0.1320468E+00
        -11   -1    0    0    0    0  0.00000000000E+00  0.00000000000E+00  0.45593999997E+02  0.45594000000E+02  0.51100000000E-03 0.  1.
         11   -1    0    0    0    0 -0.00000000000E+00 -0.00000000000E+00 -0.45593999997E+02  0.45594000000E+02  0.51100000000E-03 0. -1.
    9900012    2    1    2    0    0 -0.33136721737E+02  0.58993809154E+01  0.29937755080E+02  0.46142309841E+02  0.99999277803E+01 0.  0.
         12    1    1    2    0    0  0.33136721737E+02 -0.58993809154E+01 -0.29937755080E+02  0.45045690159E+02  0.00000000000E+00 0. -1.
         11    1    3    3    0    0 -0.12826873659E+02 -0.52923802084E+00  0.70721287722E+01  0.14656868232E+02  0.51100000000E-03 0. -1.
        -11    1    3    3    0    0 -0.40735875759E+01  0.10947475113E+01  0.69633534445E+01  0.81413069777E+01  0.51100000000E-03 0.  1.
         12    1    3    3    0    0 -0.16236260502E+02  0.53338714249E+01  0.15902272863E+02  0.23344134631E+02  0.00000000000E+00 0. -1.
</event>
<event>
 7    1  0.2243370E-008  0.4614232E+02  0.7816164E-02  0.1320468E+00
        -11   -1    0    0    0    0  0.00000000000E+00  0.00000000000E+00  0.45593999997E+02  0.45594000000E+02  0.51100000000E-03 0. -1.
         11   -1    0    0    0    0 -0.00000000000E+00 -0.00000000000E+00 -0.45593999997E+02  0.45594000000E+02  0.51100000000E-03 0.  1.
    9900012    2    1    2    0    0 -0.26510459206E+01  0.41155959228E+02 -0.18118291087E+02  0.46142317672E+02  0.99999991873E+01 0.  0.
         12    1    1    2    0    0  0.26510459206E+01 -0.41155959228E+02  0.18118291087E+02  0.45045682328E+02  0.00000000000E+00 0. -1.
         11    1    3    3    0    0 -0.37908430608E+01  0.15606638173E+02 -0.35991930659E+01  0.16458792093E+02  0.51100000000E-03 0. -1.
        -11    1    3    3    0    0 -0.12142499569E+01  0.66325387083E+01 -0.48722741723E+01  0.83188958730E+01  0.51100000000E-03 0.  1.
        -12    1    3    3    0    0  0.23540470971E+01  0.18916782347E+02 -0.96468238489E+01  0.21364629706E+02  0.00000000000E+00 0.  1.
</event>
<event>
 7    1  0.2243370E-008  0.4614232E+02  0.7816164E-02  0.1320468E+00
        -11   -1    0    0    0    0  0.00000000000E+00  0.00000000000E+00  0.45593999997E+02  0.45594000000E+02  0.51100000000E-03 0.  1.
         11   -1    0    0    0    0 -0.00000000000E+00 -0.00000000000E+00 -0.45593999997E+02  0.45594000000E+02  0.51100000000E-03 0. -1.
    9900012    2    1    2    0    0 -0.16733639704E+02 -0.38127819644E+02  0.17186278346E+02  0.46142317722E+02  0.99999996392E+01 0.  0.
         12    1    1    2    0    0  0.16733639704E+02  0.38127819644E+02 -0.17186278346E+02  0.45045682278E+02  0.00000000000E+00 0. -1.
         11    1    3    3    0    0 -0.86091392927E+01 -0.24248675673E+02  0.11499488300E+02  0.28184282547E+02  0.51100000000E-03 0. -1.
        -11    1    3    3    0    0 -0.69232036347E+01 -0.14193129682E+02  0.53094975165E+01  0.16660325413E+02  0.51100000000E-03 0.  1.
         12    1    3    3    0    0 -0.12012967763E+01  0.31398571122E+00  0.37729252981E+00  0.12977097613E+01  0.00000000000E+00 0. -1.
</event>
<event>
 7    1  0.2243370E-008  0.4614232E+02  0.7816164E-02  0.1320468E+00
        -11   -1    0    0    0    0  0.00000000000E+00  0.00000000000E+00  0.45593999997E+02  0.45594000000E+02  0.51100000000E-03 0.  1.
         11   -1    0    0    0    0 -0.00000000000E+00 -0.00000000000E+00 -0.45593999997E+02  0.45594000000E+02  0.51100000000E-03 0. -1.
    9900012    2    1    2    0    0  0.73831318172E+01  0.40805153956E+02  0.17593812344E+02  0.46142318102E+02  0.10000003113E+02 0.  0.
         12    1    1    2    0    0 -0.73831318172E+01 -0.40805153956E+02 -0.17593812344E+02  0.45045681898E+02  0.00000000000E+00 0. -1.
         11    1    3    3    0    0  0.90050300833E+00  0.40946072360E+01 -0.11872521378E+01  0.43573250951E+01  0.51100000000E-03 0. -1.
        -11    1    3    3    0    0  0.39399241720E+01  0.17401877890E+02  0.85298836627E+01  0.19776432240E+02  0.51100000000E-03 0.  1.
         12    1    3    3    0    0  0.25427046369E+01  0.19308668830E+02  0.10251180819E+02  0.22008560767E+02  0.00000000000E+00 0. -1.
</event>
<event>
 7    1  0.2243370E-008  0.4614232E+02  0.7816164E-02  0.1320468E+00
        -11   -1    0    0    0    0  0.00000000000E+00  0.00000000000E+00  0.45593999997E+02  0.45594000000E+02  0.51100000000E-03 0.  1.
         11   -1    0    0    0    0 -0.00000000000E+00 -0.00000000000E+00 -0.45593999997E+02  0.45594000000E+02  0.51100000000E-03 0. -1.
    9900012    2    1    2    0    0 -0.33546162593E+02  0.14638376252E+02  0.26258072097E+02  0.46142318362E+02  0.10000005479E+02 0.  0.
         12    1    1    2    0    0  0.33546162593E+02 -0.14638376252E+02 -0.26258072097E+02  0.45045681638E+02  0.00000000000E+00 0. -1.
         11    1    3    3    0    0 -0.46087228483E+01  0.44798459870E+01  0.71521161944E+01  0.96157221611E+01  0.51100000000E-03 0. -1.
        -11    1    3    3    0    0 -0.46753999932E+01 -0.34925955345E+00  0.26953488688E+01  0.54079805027E+01  0.51100000000E-03 0.  1.
        -12    1    3    3    0    0 -0.24262039751E+02  0.10507789818E+02  0.16410607034E+02  0.31118615698E+02  0.00000000000E+00 0.  1.
</event>
<event>
 7    1  0.2243370E-008  0.4614232E+02  0.7816164E-02  0.1320468E+00
        -11   -1    0    0    0    0  0.00000000000E+00  0.00000000000E+00  0.45593999997E+02  0.45594000000E+02  0.51100000000E-03 0.  1.
         11   -1    0    0    0    0 -0.00000000000E+00 -0.00000000000E+00 -0.45593999997E+02  0.45594000000E+02  0.51100000000E-03 0. -1.
    9900012    2    1    2    0    0  0.65167990230E+01  0.39732931281E+02  0.20197496016E+02  0.46142319374E+02  0.10000014711E+02 0.  0.
         12    1    1    2    0    0 -0.65167990230E+01 -0.39732931281E+02 -0.20197496016E+02  0.45045680626E+02  0.00000000000E+00 0. -1.
         11    1    3    3    0    0  0.29754822498E+00  0.85848031064E+01  0.82702372571E+01  0.11924101806E+02  0.51100000000E-03 0. -1.
        -11    1    3    3    0    0  0.51525734662E+00  0.51696452197E+00 -0.24107244029E+00  0.76867329394E+00  0.51100000000E-03 0.  1.
        -12    1    3    3    0    0  0.57039934514E+01  0.30631163653E+02  0.12168331199E+02  0.33449544275E+02  0.00000000000E+00 0.  1.
</event>
<event>
 7    1  0.2243370E-008  0.4614232E+02  0.7816164E-02  0.1320468E+00
        -11   -1    0    0    0    0  0.00000000000E+00  0.00000000000E+00  0.45593999997E+02  0.45594000000E+02  0.51100000000E-03 0.  1.
         11   -1    0    0    0    0 -0.00000000000E+00 -0.00000000000E+00 -0.45593999997E+02  0.45594000000E+02  0.51100000000E-03 0. -1.
    9900012    2    1    2    0    0 -0.20273316780E+02  0.40218106260E+02 -0.78107645272E+00  0.46142317356E+02  0.99999963081E+01 0.  0.
         12    1    1    2    0    0  0.20273316780E+02 -0.40218106260E+02  0.78107645272E+00  0.45045682644E+02  0.00000000000E+00 0. -1.
         11    1    3    3    0    0 -0.74945074016E+01  0.83516519677E+01  0.23307450428E+01  0.11460807323E+02  0.51100000000E-03 0. -1.
        -11    1    3    3    0    0 -0.20806393737E+01  0.49030514216E+01  0.88492143254E+00  0.53992647323E+01  0.51100000000E-03 0.  1.
        -12    1    3    3    0    0 -0.10698170005E+02  0.26963402871E+02 -0.39967429280E+01  0.29282245301E+02  0.00000000000E+00 0.  1.
</event>
<event>
 7    1  0.2243370E-008  0.4614232E+02  0.7816164E-02  0.1320468E+00
        -11   -1    0    0    0    0  0.00000000000E+00  0.00000000000E+00  0.45593999997E+02  0.45594000000E+02  0.51100000000E-03 0. -1.
         11   -1    0    0    0    0 -0.00000000000E+00 -0.00000000000E+00 -0.45593999997E+02  0.45594000000E+02  0.51100000000E-03 0.  1.
    9900012    2    1    2    0    0  0.30445783836E+02  0.17040883291E+02 -0.28491681372E+02  0.46142319140E+02  0.10000012577E+02 0.  0.
         12    1    1    2    0    0 -0.30445783836E+02 -0.17040883291E+02  0.28491681372E+02  0.45045680860E+02  0.00000000000E+00 0. -1.
         11    1    3    3    0    0  0.11054448002E+02  0.65177367388E+01 -0.58665977171E+01  0.14110233232E+02  0.51100000000E-03 0. -1.
        -11    1    3    3    0    0  0.12197432867E+02  0.89630093314E+01 -0.13282523599E+02  0.20137982477E+02  0.51100000000E-03 0.  1.
        -12    1    3    3    0    0  0.71939029671E+01  0.15601372209E+01 -0.93425600552E+01  0.11894103431E+02  0.00000000000E+00 0.  1.
</event>
<event>
 7    1  0.2243370E-008  0.4614232E+02  0.7816164E-02  0.1320468E+00
        -11   -1    0    0    0    0  0.00000000000E+00  0.00000000000E+00  0.45593999997E+02  0.45594000000E+02  0.51100000000E-03 0. -1.
         11   -1    0    0    0    0 -0.00000000000E+00 -0.00000000000E+00 -0.45593999997E+02  0.45594000000E+02  0.51100000000E-03 0.  1.
    9900012    2    1    2    0    0 -0.40054328002E+02 -0.32250326649E+01 -0.20355920929E+02  0.46142317141E+02  0.99999943444E+01 0.  0.
         12    1    1    2    0    0  0.40054328002E+02  0.32250326649E+01  0.20355920929E+02  0.45045682859E+02  0.00000000000E+00 0. -1.
         11    1    3    3    0    0 -0.27855543200E+02 -0.23687553124E+01 -0.13701571995E+02  0.31133187503E+02  0.51100000000E-03 0. -1.
        -11    1    3    3    0    0 -0.85224209976E+01  0.30989436318E+00 -0.71392238264E+01  0.11121879845E+02  0.51100000000E-03 0.  1.
         12    1    3    3    0    0 -0.36763638041E+01 -0.11661717156E+01  0.48487489273E+00  0.38872497929E+01  0.00000000000E+00 0. -1.
</event>
<event>
 7    1  0.2243370E-008  0.4614232E+02  0.7816164E-02  0.1320468E+00
        -11   -1    0    0    0    0  0.00000000000E+00  0.00000000000E+00  0.45593999997E+02  0.45594000000E+02  0.51100000000E-03 0.  1.
         11   -1    0    0    0    0 -0.00000000000E+00 -0.00000000000E+00 -0.45593999997E+02  0.45594000000E+02  0.51100000000E-03 0. -1.
    9900012    2    1    2    0    0  0.38856177105E+02  0.68845862370E-01  0.22788293488E+02  0.46142316976E+02  0.99999928441E+01 0.  0.
         12    1    1    2    0    0 -0.38856177105E+02 -0.68845862370E-01 -0.22788293488E+02  0.45045683024E+02  0.00000000000E+00 0. -1.
         11    1    3    3    0    0  0.21928526509E+02 -0.81821004804E+00  0.14720103484E+02  0.26423686143E+02  0.51100000000E-03 0. -1.
        -11    1    3    3    0    0  0.16324380273E+02 -0.29768755929E-01  0.86520368578E+01  0.18475497815E+02  0.51100000000E-03 0.  1.
         12    1    3    3    0    0  0.60327032346E+00  0.91682466634E+00 -0.58384685413E+00  0.12431330182E+01  0.00000000000E+00 0. -1.
</event>
<event>
 7    1  0.2243370E-008  0.4614232E+02  0.7816164E-02  0.1320468E+00
        -11   -1    0    0    0    0  0.00000000000E+00  0.00000000000E+00  0.45593999997E+02  0.45594000000E+02  0.51100000000E-03 0.  1.
         11   -1    0    0    0    0 -0.00000000000E+00 -0.00000000000E+00 -0.45593999997E+02  0.45594000000E+02  0.51100000000E-03 0. -1.
    9900012    2    1    2    0    0 -0.20735979862E+02  0.24113673080E+02  0.31900838160E+02  0.46142316904E+02  0.99999921828E+01 0.  0.
         12    1    1    2    0    0  0.20735979862E+02 -0.24113673080E+02 -0.31900838160E+02  0.45045683096E+02  0.00000000000E+00 0. -1.
         11    1    3    3    0    0 -0.16308110856E+01  0.36870319070E+01  0.79063555842E+00  0.41083882396E+01  0.51100000000E-03 0. -1.
        -11    1    3    3    0    0 -0.13907242619E+02  0.14013903022E+02  0.19176566606E+02  0.27523473295E+02  0.51100000000E-03 0.  1.
        -12    1    3    3    0    0 -0.51979261581E+01  0.64127381515E+01  0.11933635996E+02  0.14510455370E+02  0.00000000000E+00 0.  1.
</event>
<event>
 7    1  0.2243370E-008  0.4614232E+02  0.7816164E-02  0.1320468E+00
        -11   -1    0    0    0    0  0.00000000000E+00  0.00000000000E+00  0.45593999997E+02  0.45594000000E+02  0.51100000000E-03 0. -1.
         11   -1    0    0    0    0 -0.00000000000E+00 -0.00000000000E+00 -0.45593999997E+02  0.45594000000E+02  0.51100000000E-03 0.  1.
    9900012    2    1    2    0    0 -0.12181249054E+02 -0.42732342555E+02 -0.73944280572E+01  0.46142317687E+02  0.99999993213E+01 0.  0.
         12    1    1    2    0    0  0.12181249054E+02  0.42732342555E+02  0.73944280572E+01  0.45045682313E+02  0.00000000000E+00 0. -1.
         11    1    3    3    0    0 -0.12329419260E+01 -0.10973772427E+02  0.63453644197E+00  0.11061033579E+02  0.51100000000E-03 0. -1.
        -11    1    3    3    0    0  0.11717016459E+00  0.25359106666E+00 -0.57824554655E-01  0.28527393292E+00  0.51100000000E-03 0.  1.
        -12    1    3    3    0    0 -0.11065477292E+02 -0.32012161195E+02 -0.79711399446E+01  0.34796010175E+02  0.00000000000E+00 0.  1.
</event>
<event>
 7    1  0.2243370E-008  0.4614232E+02  0.7816164E-02  0.1320468E+00
        -11   -1    0    0    0    0  0.00000000000E+00  0.00000000000E+00  0.45593999997E+02  0.45594000000E+02  0.51100000000E-03 0.  1.
         11   -1    0    0    0    0 -0.00000000000E+00 -0.00000000000E+00 -0.45593999997E+02  0.45594000000E+02  0.51100000000E-03 0. -1.
    9900012    2    1    2    0    0  0.55736153019E+01 -0.29698852086E+02  0.33406982129E+02  0.46142318101E+02  0.10000003099E+02 0.  0.
         12    1    1    2    0    0 -0.55736153019E+01  0.29698852086E+02 -0.33406982129E+02  0.45045681899E+02  0.00000000000E+00 0. -1.
         11    1    3    3    0    0 -0.48457913744E+00 -0.34748921513E+01  0.12498421546E+01  0.37244862835E+01  0.51100000000E-03 0. -1.
        -11    1    3    3    0    0 -0.34735165757E+00 -0.10538181249E+02  0.14699073773E+02  0.18089684553E+02  0.51100000000E-03 0.  1.
         12    1    3    3    0    0  0.64055460969E+01 -0.15685778686E+02  0.17458066202E+02  0.24328147264E+02  0.00000000000E+00 0. -1.
</event>
<event>
 7    1  0.2243370E-008  0.4614232E+02  0.7816164E-02  0.1320468E+00
        -11   -1    0    0    0    0  0.00000000000E+00  0.00000000000E+00  0.45593999997E+02  0.45594000000E+02  0.51100000000E-03 0.  1.
         11   -1    0    0    0    0 -0.00000000000E+00 -0.00000000000E+00 -0.45593999997E+02  0.45594000000E+02  0.51100000000E-03 0. -1.
    9900012    2    1    2    0    0  0.33147447802E+02 -0.30488503231E+02 -0.90075753810E+00  0.46142317752E+02  0.99999999197E+01 0.  0.
         12    1    1    2    0    0 -0.33147447802E+02  0.30488503231E+02  0.90075753810E+00  0.45045682248E+02  0.00000000000E+00 0. -1.
         11    1    3    3    0    0  0.14035573957E+02 -0.11278828727E+02 -0.29073285737E+01  0.18239020628E+02  0.51100000000E-03 0.  1.
        -11    1    3    3    0    0  0.12862083775E+01  0.32148371186E+00 -0.30264118390E+00  0.13598807722E+01  0.51100000000E-03 0. -1.
        -12    1    3    3    0    0  0.17825665467E+02 -0.19531158215E+02  0.23092122195E+01  0.26543416353E+02  0.00000000000E+00 0.  1.
</event>
<event>
 7    1  0.2243370E-008  0.4614232E+02  0.7816164E-02  0.1320468E+00
        -11   -1    0    0    0    0  0.00000000000E+00  0.00000000000E+00  0.45593999997E+02  0.45594000000E+02  0.51100000000E-03 0.  1.
         11   -1    0    0    0    0 -0.00000000000E+00 -0.00000000000E+00 -0.45593999997E+02  0.45594000000E+02  0.51100000000E-03 0. -1.
    9900012    2    1    2    0    0  0.23377100040E+02  0.35817788427E+02  0.14131906248E+02  0.46142317096E+02  0.99999939362E+01 0.  0.
         12    1    1    2    0    0 -0.23377100040E+02 -0.35817788427E+02 -0.14131906248E+02  0.45045682904E+02  0.00000000000E+00 0. -1.
         11    1    3    3    0    0  0.12644908843E+02  0.13947869527E+02  0.43831430361E+01  0.19329995528E+02  0.51100000000E-03 0. -1.
        -11    1    3    3    0    0  0.69606322803E+00  0.29407593416E+00  0.14063876820E+01  0.15965310037E+01  0.51100000000E-03 0.  1.
        -12    1    3    3    0    0  0.10036127969E+02  0.21575842966E+02  0.83423755303E+01  0.25215790565E+02  0.00000000000E+00 0.  1.
</event>
<event>
 7    1  0.2243370E-008  0.4614232E+02  0.7816164E-02  0.1320468E+00
        -11   -1    0    0    0    0  0.00000000000E+00  0.00000000000E+00  0.45593999997E+02  0.45594000000E+02  0.51100000000E-03 0.  1.
         11   -1    0    0    0    0 -0.00000000000E+00 -0.00000000000E+00 -0.45593999997E+02  0.45594000000E+02  0.51100000000E-03 0. -1.
    9900012    2    1    2    0    0 -0.19067591061E+02  0.29593333470E+02  0.28102930113E+02  0.46142322120E+02  0.10000039748E+02 0.  0.
         12    1    1    2    0    0  0.19067591061E+02 -0.29593333470E+02 -0.28102930113E+02  0.45045677880E+02  0.00000000000E+00 0. -1.
         11    1    3    3    0    0 -0.95255430671E+00  0.64164830333E+01  0.50446351286E+01  0.82174788145E+01  0.51100000000E-03 0. -1.
        -11    1    3    3    0    0 -0.19592075139E+01  0.62093496411E+00  0.37861792901E+00  0.20898339909E+01  0.51100000000E-03 0.  1.
        -12    1    3    3    0    0 -0.16155829241E+02  0.22555915472E+02  0.22679677055E+02  0.35835009315E+02  0.00000000000E+00 0.  1.
</event>
<event>
 7    1  0.2243370E-008  0.4614232E+02  0.7816164E-02  0.1320468E+00
        -11   -1    0    0    0    0  0.00000000000E+00  0.00000000000E+00  0.45593999997E+02  0.45594000000E+02  0.51100000000E-03 0.  1.
         11   -1    0    0    0    0 -0.00000000000E+00 -0.00000000000E+00 -0.45593999997E+02  0.45594000000E+02  0.51100000000E-03 0. -1.
    9900012    2    1    2    0    0 -0.27235608144E+00 -0.12412285539E+02  0.43300974504E+02  0.46142318707E+02  0.10000008628E+02 0.  0.
         12    1    1    2    0    0  0.27235608144E+00  0.12412285539E+02 -0.43300974504E+02  0.45045681293E+02  0.00000000000E+00 0. -1.
         11    1    3    3    0    0 -0.33951476863E+01 -0.30467318486E+01  0.81354607735E+01  0.93271284449E+01  0.51100000000E-03 0. -1.
        -11    1    3    3    0    0 -0.80922508947E+00 -0.16538448239E+01  0.10843182748E+02  0.10998393533E+02  0.51100000000E-03 0.  1.
         12    1    3    3    0    0  0.39320166943E+01 -0.77117088668E+01  0.24322330982E+02  0.25816796729E+02  0.00000000000E+00 0. -1.
</event>
<event>
 7    1  0.2243370E-008  0.4614232E+02  0.7816164E-02  0.1320468E+00
        -11   -1    0    0    0    0  0.00000000000E+00  0.00000000000E+00  0.45593999997E+02  0.45594000000E+02  0.51100000000E-03 0.  1.
         11   -1    0    0    0    0 -0.00000000000E+00 -0.00000000000E+00 -0.45593999997E+02  0.45594000000E+02  0.51100000000E-03 0. -1.
    9900012    2    1    2    0    0  0.75823689913E+01 -0.69034482689E+01  0.43863007885E+02  0.46142318984E+02  0.10000011151E+02 0.  0.
         12    1    1    2    0    0 -0.75823689913E+01  0.69034482689E+01 -0.43863007885E+02  0.45045681016E+02  0.00000000000E+00 0. -1.
         11    1    3    3    0    0  0.12181446601E+01  0.90011424914E+00  0.32951452305E+01  0.36265775085E+01  0.51100000000E-03 0. -1.
        -11    1    3    3    0    0  0.25009328146E+01 -0.23508800005E+00  0.21423374119E+02  0.21570138855E+02  0.51100000000E-03 0.  1.
        -12    1    3    3    0    0  0.38632915166E+01 -0.75684745180E+01  0.19144488535E+02  0.20945602621E+02  0.00000000000E+00 0.  1.
</event>
<event>
 7    1  0.2243370E-008  0.4614232E+02  0.7816164E-02  0.1320468E+00
        -11   -1    0    0    0    0  0.00000000000E+00  0.00000000000E+00  0.45593999997E+02  0.45594000000E+02  0.51100000000E-03 0. -1.
         11   -1    0    0    0    0 -0.00000000000E+00 -0.00000000000E+00 -0.45593999997E+02  0.45594000000E+02  0.51100000000E-03 0.  1.
    9900012    2    1    2    0    0 -0.34674534809E+02  0.26078298297E+02  0.12112491394E+02  0.46142318142E+02  0.10000003473E+02 0.  0.
         12    1    1    2    0    0  0.34674534809E+02 -0.26078298297E+02 -0.12112491394E+02  0.45045681858E+02  0.00000000000E+00 0. -1.
         11    1    3    3    0    0  0.13921341702E+00  0.13859305741E+01  0.93915036537E+00  0.16799367850E+01  0.51100000000E-03 0. -1.
        -11    1    3    3    0    0 -0.62221232745E+01  0.32268070913E+01  0.15486147792E-01  0.70090899645E+01  0.51100000000E-03 0.  1.
        -12    1    3    3    0    0 -0.28591624951E+02  0.21465560632E+02  0.11157854881E+02  0.37453291393E+02  0.00000000000E+00 0.  1.
</event>
<event>
 7    1  0.2243370E-008  0.4614232E+02  0.7816164E-02  0.1320468E+00
        -11   -1    0    0    0    0  0.00000000000E+00  0.00000000000E+00  0.45593999997E+02  0.45594000000E+02  0.51100000000E-03 0.  1.
         11   -1    0    0    0    0 -0.00000000000E+00 -0.00000000000E+00 -0.45593999997E+02  0.45594000000E+02  0.51100000000E-03 0. -1.
    9900012    2    1    2    0    0  0.26677311822E+02 -0.20159900890E+02  0.30182990907E+02  0.46142317520E+02  0.99999978022E+01 0.  0.
         12    1    1    2    0    0 -0.26677311822E+02  0.20159900890E+02 -0.30182990907E+02  0.45045682480E+02  0.00000000000E+00 0. -1.
         11    1    3    3    0    0 -0.27603434698E+00 -0.17217536786E+00  0.32136239890E+00  0.45728915421E+00  0.51100000000E-03 0. -1.
        -11    1    3    3    0    0  0.12482987470E+02 -0.96164365592E+01  0.19554762357E+02  0.25113533391E+02  0.51100000000E-03 0.  1.
        -12    1    3    3    0    0  0.14470358700E+02 -0.10371288963E+02  0.10306866152E+02  0.20571494975E+02  0.00000000000E+00 0.  1.
</event>
<event>
 7    1  0.2243370E-008  0.4614232E+02  0.7816164E-02  0.1320468E+00
        -11   -1    0    0    0    0  0.00000000000E+00  0.00000000000E+00  0.45593999997E+02  0.45594000000E+02  0.51100000000E-03 0. -1.
         11   -1    0    0    0    0 -0.00000000000E+00 -0.00000000000E+00 -0.45593999997E+02  0.45594000000E+02  0.51100000000E-03 0.  1.
    9900012    2    1    2    0    0 -0.44566174749E+02 -0.50409519851E+01  0.41902674207E+01  0.46142317968E+02  0.10000001885E+02 0.  0.
         12    1    1    2    0    0  0.44566174749E+02  0.50409519851E+01 -0.41902674207E+01  0.45045682032E+02  0.00000000000E+00 0. -1.
         11    1    3    3    0    0 -0.66338089733E+00  0.78569404475E+00 -0.40110009488E+00  0.11037530947E+01  0.51100000000E-03 0. -1.
        -11    1    3    3    0    0 -0.31628205812E+02 -0.43202207892E+01  0.22194835886E+00  0.31922671753E+02  0.51100000000E-03 0.  1.
         12    1    3    3    0    0 -0.12274588040E+02 -0.15064252407E+01  0.43694191567E+01  0.13115893120E+02  0.00000000000E+00 0. -1.
</event>
<event>
 7    1  0.2243370E-008  0.4614232E+02  0.7816164E-02  0.1320468E+00
        -11   -1    0    0    0    0  0.00000000000E+00  0.00000000000E+00  0.45593999997E+02  0.45594000000E+02  0.51100000000E-03 0.  1.
         11   -1    0    0    0    0 -0.00000000000E+00 -0.00000000000E+00 -0.45593999997E+02  0.45594000000E+02  0.51100000000E-03 0. -1.
    9900012    2    1    2    0    0  0.85117793909E+01 -0.73372627659E+00  0.44228098130E+02  0.46142318666E+02  0.10000008250E+02 0.  0.
         12    1    1    2    0    0 -0.85117793909E+01  0.73372627659E+00 -0.44228098130E+02  0.45045681334E+02  0.00000000000E+00 0. -1.
         11    1    3    3    0    0  0.28259273607E+01 -0.45859309880E+00  0.15514171321E+02  0.15776111217E+02  0.51100000000E-03 0. -1.
        -11    1    3    3    0    0  0.47066806800E+01  0.18510698276E+01  0.26988187271E+02  0.27457996194E+02  0.51100000000E-03 0.  1.
         12    1    3    3    0    0  0.97917135014E+00 -0.21262030054E+01  0.17257395377E+01  0.29082112553E+01  0.00000000000E+00 0. -1.
</event>
<event>
 7    1  0.2243370E-008  0.4614232E+02  0.7816164E-02  0.1320468E+00
        -11   -1    0    0    0    0  0.00000000000E+00  0.00000000000E+00  0.45593999997E+02  0.45594000000E+02  0.51100000000E-03 0.  1.
         11   -1    0    0    0    0 -0.00000000000E+00 -0.00000000000E+00 -0.45593999997E+02  0.45594000000E+02  0.51100000000E-03 0. -1.
    9900012    2    1    2    0    0 -0.15377804964E+02  0.79844217048E+01  0.41579869405E+02  0.46142318573E+02  0.10000007402E+02 0.  0.
         12    1    1    2    0    0  0.15377804964E+02 -0.79844217048E+01 -0.41579869405E+02  0.45045681427E+02  0.00000000000E+00 0. -1.
         11    1    3    3    0    0 -0.79790032508E+01  0.28202073251E+01  0.18736546107E+02  0.20559090994E+02  0.51100000000E-03 0. -1.
        -11    1    3    3    0    0 -0.29030815272E+01 -0.10869861192E+01  0.11223604845E+02  0.11643827857E+02  0.51100000000E-03 0.  1.
        -12    1    3    3    0    0 -0.44957201859E+01  0.62512004989E+01  0.11619718453E+02  0.13939399722E+02  0.00000000000E+00 0.  1.
</event>
<event>
 7    1  0.2243370E-008  0.4614231E+02  0.7816164E-02  0.1320468E+00
        -11   -1    0    0    0    0  0.00000000000E+00  0.00000000000E+00  0.45593999997E+02  0.45594000000E+02  0.51100000000E-03 0.  1.
         11   -1    0    0    0    0 -0.00000000000E+00 -0.00000000000E+00 -0.45593999997E+02  0.45594000000E+02  0.51100000000E-03 0. -1.
    9900012    2    1    2    0    0 -0.15341380825E+02  0.23448601954E+02  0.35269234444E+02  0.46142314330E+02  0.99999687116E+01 0.  0.
         12    1    1    2    0    0  0.15341380825E+02 -0.23448601954E+02 -0.35269234444E+02  0.45045685670E+02  0.00000000000E+00 0. -1.
         11    1    3    3    0    0 -0.63294565057E+01  0.29874670452E+01  0.73199272911E+01  0.10127601632E+02  0.51100000000E-03 0. -1.
        -11    1    3    3    0    0 -0.48109216952E+01  0.90471648867E+01  0.15737806329E+02  0.18779635469E+02  0.51100000000E-03 0.  1.
         12    1    3    3    0    0 -0.42010026243E+01  0.11413970022E+02  0.12211500824E+02  0.17235077229E+02  0.00000000000E+00 0. -1.
</event>
<event>
 7    1  0.2243370E-008  0.4614232E+02  0.7816164E-02  0.1320468E+00
        -11   -1    0    0    0    0  0.00000000000E+00  0.00000000000E+00  0.45593999997E+02  0.45594000000E+02  0.51100000000E-03 0. -1.
         11   -1    0    0    0    0 -0.00000000000E+00 -0.00000000000E+00 -0.45593999997E+02  0.45594000000E+02  0.51100000000E-03 0.  1.
    9900012    2    1    2    0    0 -0.22939835006E+02 -0.65106908237E+01 -0.38216336368E+02  0.46142317737E+02  0.99999997799E+01 0.  0.
         12    1    1    2    0    0  0.22939835006E+02  0.65106908237E+01  0.38216336368E+02  0.45045682263E+02  0.00000000000E+00 0. -1.
         11    1    3    3    0    0 -0.28654296408E+01  0.58938207583E+00 -0.93926093666E+01  0.98376404301E+01  0.51100000000E-03 0. -1.
        -11    1    3    3    0    0 -0.17874205452E+02 -0.80577195909E+01 -0.26497952850E+02  0.32962942390E+02  0.51100000000E-03 0.  1.
         12    1    3    3    0    0 -0.22001999139E+01  0.95764669141E+00 -0.23257741520E+01  0.33417349165E+01  0.00000000000E+00 0. -1.
</event>
<event>
 7    1  0.2243370E-008  0.4614232E+02  0.7816164E-02  0.1320468E+00
        -11   -1    0    0    0    0  0.00000000000E+00  0.00000000000E+00  0.45593999997E+02  0.45594000000E+02  0.51100000000E-03 0.  1.
         11   -1    0    0    0    0 -0.00000000000E+00 -0.00000000000E+00 -0.45593999997E+02  0.45594000000E+02  0.51100000000E-03 0. -1.
    9900012    2    1    2    0    0 -0.95963978327E+01  0.64835674774E+01  0.43531439447E+02  0.46142315202E+02  0.99999766616E+01 0.  0.
         12    1    1    2    0    0  0.95963978327E+01 -0.64835674774E+01 -0.43531439447E+02  0.45045684798E+02  0.00000000000E+00 0. -1.
         11    1    3    3    0    0 -0.79493992500E+01  0.22422522136E+01  0.34169343806E+02  0.35153445063E+02  0.51100000000E-03 0. -1.
        -11    1    3    3    0    0  0.25091239078E+00  0.20074007680E+01  0.68038302156E+01  0.70982195468E+01  0.51100000000E-03 0.  1.
        -12    1    3    3    0    0 -0.18979109735E+01  0.22339144958E+01  0.25582654256E+01  0.38906505916E+01  0.00000000000E+00 0.  1.
</event>
<event>
 7    1  0.2243370E-008  0.4614232E+02  0.7816164E-02  0.1320468E+00
        -11   -1    0    0    0    0  0.00000000000E+00  0.00000000000E+00  0.45593999997E+02  0.45594000000E+02  0.51100000000E-03 0.  1.
         11   -1    0    0    0    0 -0.00000000000E+00 -0.00000000000E+00 -0.45593999997E+02  0.45594000000E+02  0.51100000000E-03 0. -1.
    9900012    2    1    2    0    0 -0.11363412368E+02  0.42040022127E+02  0.11516199530E+02  0.46142318156E+02  0.10000003605E+02 0.  0.
         12    1    1    2    0    0  0.11363412368E+02 -0.42040022127E+02 -0.11516199530E+02  0.45045681844E+02  0.00000000000E+00 0. -1.
         11    1    3    3    0    0 -0.76774833212E+01  0.20376490095E+02  0.51047938571E+01  0.22365241320E+02  0.51100000000E-03 0. -1.
        -11    1    3    3    0    0 -0.54524683921E+01  0.17204174856E+02  0.44016411281E+01  0.18576530594E+02  0.51100000000E-03 0.  1.
         12    1    3    3    0    0  0.17665393451E+01  0.44593571773E+01  0.20097645450E+01  0.52005462424E+01  0.00000000000E+00 0. -1.
</event>
<event>
 7    1  0.2243370E-008  0.4614232E+02  0.7816164E-02  0.1320468E+00
        -11   -1    0    0    0    0  0.00000000000E+00  0.00000000000E+00  0.45593999997E+02  0.45594000000E+02  0.51100000000E-03 0.  1.
         11   -1    0    0    0    0 -0.00000000000E+00 -0.00000000000E+00 -0.45593999997E+02  0.45594000000E+02  0.51100000000E-03 0. -1.
    9900012    2    1    2    0    0  0.81476750175E+01 -0.35170703759E+02  0.26939755900E+02  0.46142318086E+02  0.10000002967E+02 0.  0.
         12    1    1    2    0    0 -0.81476750175E+01  0.35170703759E+02 -0.26939755900E+02  0.45045681914E+02  0.00000000000E+00 0. -1.
         11    1    3    3    0    0  0.22474957730E+01 -0.17004538308E+02  0.12588604363E+02  0.21276243098E+02  0.51100000000E-03 0. -1.
        -11    1    3    3    0    0  0.23665248044E+01 -0.13673225659E+02  0.12950638917E+02  0.18980953300E+02  0.51100000000E-03 0.  1.
         12    1    3    3    0    0  0.35336544401E+01 -0.44929397929E+01  0.14005126200E+01  0.58851216881E+01  0.00000000000E+00 0. -1.
</event>
<event>
 7    1  0.2243370E-008  0.4614232E+02  0.7816164E-02  0.1320468E+00
        -11   -1    0    0    0    0  0.00000000000E+00  0.00000000000E+00  0.45593999997E+02  0.45594000000E+02  0.51100000000E-03 0. -1.
         11   -1    0    0    0    0 -0.00000000000E+00 -0.00000000000E+00 -0.45593999997E+02  0.45594000000E+02  0.51100000000E-03 0.  1.
    9900012    2    1    2    0    0  0.28946465272E+02 -0.29232609968E+02 -0.18348573940E+02  0.46142317600E+02  0.99999985306E+01 0.  0.
         12    1    1    2    0    0 -0.28946465272E+02  0.29232609968E+02  0.18348573940E+02  0.45045682400E+02  0.00000000000E+00 0. -1.
         11    1    3    3    0    0  0.56218020630E+01 -0.76030697228E+01 -0.32914904439E+01  0.10012254354E+02  0.51100000000E-03 0. -1.
        -11    1    3    3    0    0  0.99842144314E+01 -0.14055446839E+02 -0.56881122151E+01  0.18154744407E+02  0.51100000000E-03 0.  1.
        -12    1    3    3    0    0  0.13340448777E+02 -0.75740934066E+01 -0.93689712807E+01  0.17975318839E+02  0.00000000000E+00 0.  1.
</event>
<event>
 7    1  0.2243370E-008  0.4614232E+02  0.7816164E-02  0.1320468E+00
        -11   -1    0    0    0    0  0.00000000000E+00  0.00000000000E+00  0.45593999997E+02  0.45594000000E+02  0.51100000000E-03 0. -1.
         11   -1    0    0    0    0 -0.00000000000E+00 -0.00000000000E+00 -0.45593999997E+02  0.45594000000E+02  0.51100000000E-03 0.  1.
    9900012    2    1    2    0    0 -0.10908883584E+02 -0.35184947185E+02  0.25925456383E+02  0.46142317209E+02  0.99999949650E+01 0.  0.
         12    1    1    2    0    0  0.10908883584E+02  0.35184947185E+02 -0.25925456383E+02  0.45045682791E+02  0.00000000000E+00 0. -1.
         11    1    3    3    0    0 -0.76355240951E+00 -0.89410309932E+01  0.39885938837E+01  0.98200778477E+01  0.51100000000E-03 0. -1.
        -11    1    3    3    0    0 -0.15651285869E+01 -0.12315845237E+02  0.11463453849E+02  0.16897942058E+02  0.51100000000E-03 0.  1.
        -12    1    3    3    0    0 -0.85802025875E+01 -0.13928070955E+02  0.10473408650E+02  0.19424297303E+02  0.00000000000E+00 0.  1.
</event>
<event>
 7    1  0.2243370E-008  0.4614232E+02  0.7816164E-02  0.1320468E+00
        -11   -1    0    0    0    0  0.00000000000E+00  0.00000000000E+00  0.45593999997E+02  0.45594000000E+02  0.51100000000E-03 0. -1.
         11   -1    0    0    0    0 -0.00000000000E+00 -0.00000000000E+00 -0.45593999997E+02  0.45594000000E+02  0.51100000000E-03 0.  1.
    9900012    2    1    2    0    0 -0.35087681668E+02  0.17677145614E+02  0.22033758256E+02  0.46142318911E+02  0.10000010481E+02 0.  0.
         12    1    1    2    0    0  0.35087681668E+02 -0.17677145614E+02 -0.22033758256E+02  0.45045681089E+02  0.00000000000E+00 0. -1.
         11    1    3    3    0    0 -0.42311580810E+01  0.27501408167E+01  0.29913352131E+01  0.58663497880E+01  0.51100000000E-03 0. -1.
        -11    1    3    3    0    0 -0.31236039821E+02  0.15444491117E+02  0.18632160280E+02  0.39514299773E+02  0.51100000000E-03 0.  1.
         12    1    3    3    0    0  0.37951623367E+00 -0.51748632017E+00  0.41026276300E+00  0.76166934945E+00  0.00000000000E+00 0. -1.
</event>
<event>
 7    1  0.2243370E-008  0.4614232E+02  0.7816164E-02  0.1320468E+00
        -11   -1    0    0    0    0  0.00000000000E+00  0.00000000000E+00  0.45593999997E+02  0.45594000000E+02  0.51100000000E-03 0. -1.
         11   -1    0    0    0    0 -0.00000000000E+00 -0.00000000000E+00 -0.45593999997E+02  0.45594000000E+02  0.51100000000E-03 0.  1.
    9900012    2    1    2    0    0  0.22290913328E+02 -0.18823651062E+02 -0.34320530345E+02  0.46142318082E+02  0.10000002929E+02 0.  0.
         12    1    1    2    0    0 -0.22290913328E+02  0.18823651062E+02  0.34320530345E+02  0.45045681918E+02  0.00000000000E+00 0. -1.
         11    1    3    3    0    0  0.11508438108E+00 -0.30100958807E+01 -0.53864719607E+01  0.61715477856E+01  0.51100000000E-03 0. -1.
        -11    1    3    3    0    0 -0.82174046571E-01 -0.51275025335E-01 -0.72994807706E+00  0.73634649349E+00  0.51100000000E-03 0.  1.
        -12    1    3    3    0    0  0.22258002994E+02 -0.15762280156E+02 -0.28204110307E+02  0.39234423803E+02  0.00000000000E+00 0.  1.
</event>
<event>
 7    1  0.2243370E-008  0.4614233E+02  0.7816164E-02  0.1320468E+00
        -11   -1    0    0    0    0  0.00000000000E+00  0.00000000000E+00  0.45593999997E+02  0.45594000000E+02  0.51100000000E-03 0.  1.
         11   -1    0    0    0    0 -0.00000000000E+00 -0.00000000000E+00 -0.45593999997E+02  0.45594000000E+02  0.51100000000E-03 0. -1.
    9900012    2    1    2    0    0 -0.38426860058E+02 -0.22505799352E+02  0.67807180621E+01  0.46142326336E+02  0.10000078196E+02 0.  0.
         12    1    1    2    0    0  0.38426860058E+02  0.22505799352E+02 -0.67807180621E+01  0.45045673664E+02  0.00000000000E+00 0. -1.
         11    1    3    3    0    0 -0.69167439563E+01 -0.64506280396E+01  0.38394690927E+00  0.94656940871E+01  0.51100000000E-03 0. -1.
        -11    1    3    3    0    0 -0.14722091549E+02 -0.10933345002E+02  0.53093825756E+01  0.19091033396E+02  0.51100000000E-03 0.  1.
         12    1    3    3    0    0 -0.16788024552E+02 -0.51218263103E+01  0.10873885773E+01  0.17585598853E+02  0.00000000000E+00 0. -1.
</event>
<event>
 7    1  0.2243370E-008  0.4614232E+02  0.7816164E-02  0.1320468E+00
        -11   -1    0    0    0    0  0.00000000000E+00  0.00000000000E+00  0.45593999997E+02  0.45594000000E+02  0.51100000000E-03 0.  1.
         11   -1    0    0    0    0 -0.00000000000E+00 -0.00000000000E+00 -0.45593999997E+02  0.45594000000E+02  0.51100000000E-03 0. -1.
    9900012    2    1    2    0    0  0.30166602090E+02  0.84012393707E+01  0.32380685409E+02  0.46142317719E+02  0.99999996178E+01 0.  0.
         12    1    1    2    0    0 -0.30166602090E+02 -0.84012393707E+01 -0.32380685409E+02  0.45045682281E+02  0.00000000000E+00 0. -1.
         11    1    3    3    0    0  0.10771251313E+01 -0.94253585931E+00  0.24323371450E+01  0.28222042170E+01  0.51100000000E-03 0.  1.
        -11    1    3    3    0    0  0.17660343718E+01 -0.41593123858E+00  0.40125740427E+01  0.44037060423E+01  0.51100000000E-03 0. -1.
        -12    1    3    3    0    0  0.27323442587E+02  0.97597064686E+01  0.25935774221E+02  0.38916407460E+02  0.00000000000E+00 0.  1.
</event>
<event>
 7    1  0.2243370E-008  0.4614232E+02  0.7816164E-02  0.1320468E+00
        -11   -1    0    0    0    0  0.00000000000E+00  0.00000000000E+00  0.45593999997E+02  0.45594000000E+02  0.51100000000E-03 0.  1.
         11   -1    0    0    0    0 -0.00000000000E+00 -0.00000000000E+00 -0.45593999997E+02  0.45594000000E+02  0.51100000000E-03 0. -1.
    9900012    2    1    2    0    0  0.24799145272E+02  0.11649586450E+02  0.35754762041E+02  0.46142317862E+02  0.10000000920E+02 0.  0.
         12    1    1    2    0    0 -0.24799145272E+02 -0.11649586450E+02 -0.35754762041E+02  0.45045682138E+02  0.00000000000E+00 0. -1.
         11    1    3    3    0    0  0.36071744671E+01  0.17041594031E+01  0.33053390085E+01  0.51808428976E+01  0.51100000000E-03 0. -1.
        -11    1    3    3    0    0  0.14746662960E+02  0.84827704100E+01  0.28698627382E+02  0.33362144358E+02  0.51100000000E-03 0.  1.
        -12    1    3    3    0    0  0.64453078455E+01  0.14626566364E+01  0.37507956502E+01  0.75993306066E+01  0.00000000000E+00 0.  1.
</event>
<event>
 7    1  0.2243370E-008  0.4614232E+02  0.7816164E-02  0.1320468E+00
        -11   -1    0    0    0    0  0.00000000000E+00  0.00000000000E+00  0.45593999997E+02  0.45594000000E+02  0.51100000000E-03 0.  1.
         11   -1    0    0    0    0 -0.00000000000E+00 -0.00000000000E+00 -0.45593999997E+02  0.45594000000E+02  0.51100000000E-03 0. -1.
    9900012    2    1    2    0    0 -0.21634091527E+02 -0.85907798718E+01  0.38565241998E+02  0.46142319792E+02  0.10000018523E+02 0.  0.
         12    1    1    2    0    0  0.21634091527E+02  0.85907798718E+01 -0.38565241998E+02  0.45045680208E+02  0.00000000000E+00 0. -1.
         11    1    3    3    0    0 -0.79770071591E+01 -0.39207525524E+00  0.20706479770E+02  0.22193347448E+02  0.51100000000E-03 0. -1.
        -11    1    3    3    0    0 -0.65480089133E+01 -0.35645013955E+01  0.78306550348E+01  0.10812088118E+02  0.51100000000E-03 0.  1.
         12    1    3    3    0    0 -0.71090754548E+01 -0.46342032211E+01  0.10028107193E+02  0.13136884227E+02  0.00000000000E+00 0. -1.
</event>
<event>
 7    1  0.2243370E-008  0.4614232E+02  0.7816164E-02  0.1320468E+00
        -11   -1    0    0    0    0  0.00000000000E+00  0.00000000000E+00  0.45593999997E+02  0.45594000000E+02  0.51100000000E-03 0.  1.
         11   -1    0    0    0    0 -0.00000000000E+00 -0.00000000000E+00 -0.45593999997E+02  0.45594000000E+02  0.51100000000E-03 0. -1.
    9900012    2    1    2    0    0 -0.15465876665E+01  0.54430088273E+01  0.44688870548E+02  0.46142318416E+02  0.10000005968E+02 0.  0.
         12    1    1    2    0    0  0.15465876665E+01 -0.54430088273E+01 -0.44688870548E+02  0.45045681584E+02  0.00000000000E+00 0. -1.
         11    1    3    3    0    0  0.33734502310E+01 -0.77035246806E+00  0.13713674394E+02  0.14143495856E+02  0.51100000000E-03 0. -1.
        -11    1    3    3    0    0 -0.14531321611E+01  0.22891932172E+01  0.12819490335E+02  0.13103103884E+02  0.51100000000E-03 0.  1.
         12    1    3    3    0    0 -0.34669057365E+01  0.39241680781E+01  0.18155705819E+02  0.18895718676E+02  0.00000000000E+00 0. -1.
</event>
<event>
 7    1  0.2243370E-008  0.4614232E+02  0.7816164E-02  0.1320468E+00
        -11   -1    0    0    0    0  0.00000000000E+00  0.00000000000E+00  0.45593999997E+02  0.45594000000E+02  0.51100000000E-03 0.  1.
         11   -1    0    0    0    0 -0.00000000000E+00 -0.00000000000E+00 -0.45593999997E+02  0.45594000000E+02  0.51100000000E-03 0. -1.
    9900012    2    1    2    0    0 -0.29751681901E+02  0.11570029634E+02  0.31781837805E+02  0.46142319009E+02  0.10000011380E+02 0.  0.
         12    1    1    2    0    0  0.29751681901E+02 -0.11570029634E+02 -0.31781837805E+02  0.45045680991E+02  0.00000000000E+00 0. -1.
         11    1    3    3    0    0 -0.12085737995E+02  0.41346945219E+01  0.14091003978E+02  0.19018863137E+02  0.51100000000E-03 0. -1.
        -11    1    3    3    0    0 -0.18263603917E+02  0.77891955374E+01  0.16929350248E+02  0.26092790101E+02  0.51100000000E-03 0.  1.
         12    1    3    3    0    0  0.59766001162E+00 -0.35386042488E+00  0.76148357864E+00  0.10306657704E+01  0.00000000000E+00 0. -1.
</event>
<event>
 7    1  0.2243370E-008  0.4614232E+02  0.7816164E-02  0.1320468E+00
        -11   -1    0    0    0    0  0.00000000000E+00  0.00000000000E+00  0.45593999997E+02  0.45594000000E+02  0.51100000000E-03 0.  1.
         11   -1    0    0    0    0 -0.00000000000E+00 -0.00000000000E+00 -0.45593999997E+02  0.45594000000E+02  0.51100000000E-03 0. -1.
    9900012    2    1    2    0    0  0.13058710007E+02 -0.34808788170E+02  0.25434855233E+02  0.46142317614E+02  0.99999986578E+01 0.  0.
         12    1    1    2    0    0 -0.13058710007E+02  0.34808788170E+02 -0.25434855233E+02  0.45045682386E+02  0.00000000000E+00 0. -1.
         11    1    3    3    0    0  0.12893620189E+02 -0.22805159601E+02  0.18471909777E+02  0.32055143068E+02  0.51100000000E-03 0.  1.
        -11    1    3    3    0    0  0.49008716034E+00 -0.38597086998E+00  0.36118271462E+00  0.72084128050E+00  0.51100000000E-03 0. -1.
        -12    1    3    3    0    0 -0.32499734259E+00 -0.11617657699E+02  0.66017627417E+01  0.13366333266E+02  0.00000000000E+00 0.  1.
</event>
<event>
 7    1  0.2243370E-008  0.4614232E+02  0.7816164E-02  0.1320468E+00
        -11   -1    0    0    0    0  0.00000000000E+00  0.00000000000E+00  0.45593999997E+02  0.45594000000E+02  0.51100000000E-03 0.  1.
         11   -1    0    0    0    0 -0.00000000000E+00 -0.00000000000E+00 -0.45593999997E+02  0.45594000000E+02  0.51100000000E-03 0. -1.
    9900012    2    1    2    0    0  0.13034745929E+02 -0.39047244952E+02  0.18289928312E+02  0.46142318548E+02  0.10000007175E+02 0.  0.
         12    1    1    2    0    0 -0.13034745929E+02  0.39047244952E+02 -0.18289928312E+02  0.45045681452E+02  0.00000000000E+00 0. -1.
         11    1    3    3    0    0 -0.80368427402E+00 -0.32419093409E+01 -0.23930042757E+00  0.33486041186E+01  0.51100000000E-03 0. -1.
        -11    1    3    3    0    0  0.19324782415E+01 -0.27210779418E+01  0.23918684678E+01  0.41060653122E+01  0.51100000000E-03 0.  1.
        -12    1    3    3    0    0  0.11905951962E+02 -0.33084257670E+02  0.16137360272E+02  0.38687649117E+02  0.00000000000E+00 0.  1.
</event>
<event>
 7    1  0.2243370E-008  0.4614232E+02  0.7816164E-02  0.1320468E+00
        -11   -1    0    0    0    0  0.00000000000E+00  0.00000000000E+00  0.45593999997E+02  0.45594000000E+02  0.51100000000E-03 0. -1.
         11   -1    0    0    0    0 -0.00000000000E+00 -0.00000000000E+00 -0.45593999997E+02  0.45594000000E+02  0.51100000000E-03 0.  1.
    9900012    2    1    2    0    0  0.11096456390E+01 -0.73007157691E+01 -0.44436266105E+02  0.46142317526E+02  0.99999978557E+01 0.  0.
         12    1    1    2    0    0 -0.11096456390E+01  0.73007157691E+01  0.44436266105E+02  0.45045682474E+02  0.00000000000E+00 0. -1.
         11    1    3    3    0    0  0.44369076428E+00 -0.32920982656E+01 -0.46062775621E+01  0.56791342408E+01  0.51100000000E-03 0. -1.
        -11    1    3    3    0    0 -0.47281791269E+00  0.57983455446E+00 -0.62700842979E+00  0.97616838776E+00  0.51100000000E-03 0.  1.
        -12    1    3    3    0    0  0.11387727874E+01 -0.45884520580E+01 -0.39202980113E+02  0.39487014897E+02  0.00000000000E+00 0.  1.
</event>
<event>
 7    1  0.2243370E-008  0.4614232E+02  0.7816164E-02  0.1320468E+00
        -11   -1    0    0    0    0  0.00000000000E+00  0.00000000000E+00  0.45593999997E+02  0.45594000000E+02  0.51100000000E-03 0. -1.
         11   -1    0    0    0    0 -0.00000000000E+00 -0.00000000000E+00 -0.45593999997E+02  0.45594000000E+02  0.51100000000E-03 0.  1.
    9900012    2    1    2    0    0  0.16334624427E+02 -0.78772728789E+01 -0.41233991795E+02  0.46142318048E+02  0.10000002619E+02 0.  0.
         12    1    1    2    0    0 -0.16334624427E+02  0.78772728789E+01  0.41233991795E+02  0.45045681952E+02  0.00000000000E+00 0. -1.
         11    1    3    3    0    0  0.30621887427E+01 -0.16812886679E+01 -0.29038968312E+01  0.45427247933E+01  0.51100000000E-03 0. -1.
        -11    1    3    3    0    0  0.13457819703E+02 -0.43221682067E+01 -0.35388484852E+02  0.38106940438E+02  0.51100000000E-03 0.  1.
        -12    1    3    3    0    0 -0.18538401882E+00 -0.18738160042E+01 -0.29416101116E+01  0.34926528171E+01  0.00000000000E+00 0.  1.
</event>
<event>
 7    1  0.2243370E-008  0.4614232E+02  0.7816164E-02  0.1320468E+00
        -11   -1    0    0    0    0  0.00000000000E+00  0.00000000000E+00  0.45593999997E+02  0.45594000000E+02  0.51100000000E-03 0.  1.
         11   -1    0    0    0    0 -0.00000000000E+00 -0.00000000000E+00 -0.45593999997E+02  0.45594000000E+02  0.51100000000E-03 0. -1.
    9900012    2    1    2    0    0  0.11254643436E+02  0.28207446251E+02  0.33268395228E+02  0.46142321584E+02  0.10000034862E+02 0.  0.
         12    1    1    2    0    0 -0.11254643436E+02 -0.28207446251E+02 -0.33268395228E+02  0.45045678416E+02  0.00000000000E+00 0. -1.
         11    1    3    3    0    0 -0.85695603168E+00  0.24179871053E+01  0.61686342487E+01  0.66807996555E+01  0.51100000000E-03 0. -1.
        -11    1    3    3    0    0  0.70309346610E+01  0.13746423939E+02  0.16823066816E+02  0.22834486871E+02  0.51100000000E-03 0.  1.
        -12    1    3    3    0    0  0.50806648070E+01  0.12043035207E+02  0.10276694164E+02  0.16627035058E+02  0.00000000000E+00 0.  1.
</event>
<event>
 7    1  0.2243370E-008  0.4614232E+02  0.7816164E-02  0.1320468E+00
        -11   -1    0    0    0    0  0.00000000000E+00  0.00000000000E+00  0.45593999997E+02  0.45594000000E+02  0.51100000000E-03 0. -1.
         11   -1    0    0    0    0 -0.00000000000E+00 -0.00000000000E+00 -0.45593999997E+02  0.45594000000E+02  0.51100000000E-03 0.  1.
    9900012    2    1    2    0    0  0.20025253047E+02  0.38274741220E+02 -0.12772897648E+02  0.46142317750E+02  0.99999998983E+01 0.  0.
         12    1    1    2    0    0 -0.20025253047E+02 -0.38274741220E+02  0.12772897648E+02  0.45045682250E+02  0.00000000000E+00 0. -1.
         11    1    3    3    0    0  0.62952940465E+00  0.35110563955E+01 -0.26062246968E+01  0.44177179307E+01  0.51100000000E-03 0. -1.
        -11    1    3    3    0    0  0.13845149383E+01  0.35193479114E+01 -0.32860904392E+01  0.50100980001E+01  0.51100000000E-03 0.  1.
        -12    1    3    3    0    0  0.18011208704E+02  0.31244336913E+02 -0.68805825117E+01  0.36714501819E+02  0.00000000000E+00 0.  1.
</event>
<event>
 7    1  0.2243370E-008  0.4614232E+02  0.7816164E-02  0.1320468E+00
        -11   -1    0    0    0    0  0.00000000000E+00  0.00000000000E+00  0.45593999997E+02  0.45594000000E+02  0.51100000000E-03 0.  1.
         11   -1    0    0    0    0 -0.00000000000E+00 -0.00000000000E+00 -0.45593999997E+02  0.45594000000E+02  0.51100000000E-03 0. -1.
    9900012    2    1    2    0    0 -0.84987149526E+00  0.45037083796E+02 -0.22856647289E+00  0.46142318287E+02  0.10000004793E+02 0.  0.
         12    1    1    2    0    0  0.84987149526E+00 -0.45037083796E+02  0.22856647289E+00  0.45045681713E+02  0.00000000000E+00 0. -1.
         11    1    3    3    0    0 -0.16486362577E+01  0.13517577510E+02 -0.30647768664E+01  0.13958358097E+02  0.51100000000E-03 0. -1.
        -11    1    3    3    0    0  0.24811511045E+00  0.24899686494E+02  0.45744523484E+01  0.25317613694E+02  0.51100000000E-03 0.  1.
        -12    1    3    3    0    0  0.55064965201E+00  0.66198197912E+01 -0.17382419548E+01  0.68663464959E+01  0.00000000000E+00 0.  1.
</event>
<event>
 7    1  0.2281152E-008  0.4614231E+02  0.7816164E-02  0.1320468E+00
        -11   -1    0    0    0    0  0.00000000000E+00  0.00000000000E+00  0.45593999997E+02  0.45594000000E+02  0.51100000000E-03 0.  1.
         11   -1    0    0    0    0 -0.00000000000E+00 -0.00000000000E+00 -0.45593999997E+02  0.45594000000E+02  0.51100000000E-03 0. -1.
    9900012    2    1    2    0    0  0.24595493679E+02  0.37630190750E+02 -0.28538317076E+01  0.46142312963E+02  0.99999562500E+01 0.  0.
         12    1    1    2    0    0 -0.24595493679E+02 -0.37630190750E+02  0.28538317076E+01  0.45045687037E+02  0.00000000000E+00 0. -1.
         11    1    3    3    0    0  0.90716110475E+00 -0.45278031817E-01  0.46018044511E+00  0.10182129803E+01  0.51100000000E-03 0. -1.
        -11    1    3    3    0    0  0.46091137077E+01  0.70456827603E+01 -0.32865239298E+01  0.90380758202E+01  0.51100000000E-03 0.  1.
        -12    1    3    3    0    0  0.19079218867E+02  0.30629786021E+02 -0.27488222903E-01  0.36086024163E+02  0.00000000000E+00 0.  1.
</event>
<event>
 7    1  0.2243370E-008  0.4614232E+02  0.7816164E-02  0.1320468E+00
        -11   -1    0    0    0    0  0.00000000000E+00  0.00000000000E+00  0.45593999997E+02  0.45594000000E+02  0.51100000000E-03 0.  1.
         11   -1    0    0    0    0 -0.00000000000E+00 -0.00000000000E+00 -0.45593999997E+02  0.45594000000E+02  0.51100000000E-03 0. -1.
    9900012    2    1    2    0    0  0.79468727465E+01  0.38459134388E+02  0.22064804130E+02  0.46142318901E+02  0.10000010398E+02 0.  0.
         12    1    1    2    0    0 -0.79468727465E+01 -0.38459134388E+02 -0.22064804130E+02  0.45045681099E+02  0.00000000000E+00 0. -1.
         11    1    3    3    0    0  0.40659151142E+01  0.16375779915E+02  0.12583289694E+02  0.21048444440E+02  0.51100000000E-03 0. -1.
        -11    1    3    3    0    0  0.52719452140E+01  0.17306531698E+02  0.61593877626E+01  0.19111449543E+02  0.51100000000E-03 0.  1.
         12    1    3    3    0    0 -0.13909875817E+01  0.47768227744E+01  0.33221266739E+01  0.59824249187E+01  0.00000000000E+00 0. -1.
</event>
<event>
 7    1  0.2243370E-008  0.4614232E+02  0.7816164E-02  0.1320468E+00
        -11   -1    0    0    0    0  0.00000000000E+00  0.00000000000E+00  0.45593999997E+02  0.45594000000E+02  0.51100000000E-03 0. -1.
         11   -1    0    0    0    0 -0.00000000000E+00 -0.00000000000E+00 -0.45593999997E+02  0.45594000000E+02  0.51100000000E-03 0.  1.
    9900012    2    1    2    0    0 -0.41307155941E+02 -0.49344159179E+01  0.17276691958E+02  0.46142315663E+02  0.99999808675E+01 0.  0.
         12    1    1    2    0    0  0.41307155941E+02  0.49344159179E+01 -0.17276691958E+02  0.45045684337E+02  0.00000000000E+00 0. -1.
         11    1    3    3    0    0 -0.15488328364E+00 -0.27197607134E+00 -0.40409413241E+00  0.51112830474E+00  0.51100000000E-03 0. -1.
        -11    1    3    3    0    0 -0.25491662014E+01 -0.25833059360E+00 -0.68999123625E+00  0.26535016837E+01  0.51100000000E-03 0.  1.
        -12    1    3    3    0    0 -0.38603106456E+02 -0.44041092530E+01  0.18370777327E+02  0.42977685675E+02  0.00000000000E+00 0.  1.
</event>
<event>
 7    1  0.2243370E-008  0.4614232E+02  0.7816164E-02  0.1320468E+00
        -11   -1    0    0    0    0  0.00000000000E+00  0.00000000000E+00  0.45593999997E+02  0.45594000000E+02  0.51100000000E-03 0.  1.
         11   -1    0    0    0    0 -0.00000000000E+00 -0.00000000000E+00 -0.45593999997E+02  0.45594000000E+02  0.51100000000E-03 0. -1.
    9900012    2    1    2    0    0  0.32621219927E+02 -0.23218041458E+01  0.30977067616E+02  0.46142317830E+02  0.10000000630E+02 0.  0.
         12    1    1    2    0    0 -0.32621219927E+02  0.23218041458E+01 -0.30977067616E+02  0.45045682170E+02  0.00000000000E+00 0. -1.
         11    1    3    3    0    0  0.11477455999E+02 -0.10922365985E+01  0.10254143363E+02  0.15429596021E+02  0.51100000000E-03 0. -1.
        -11    1    3    3    0    0  0.17242083407E+02  0.10403592124E+01  0.19470412625E+02  0.26028229973E+02  0.51100000000E-03 0.  1.
         12    1    3    3    0    0  0.39016805209E+01 -0.22699267596E+01  0.12525116289E+01  0.46844918360E+01  0.00000000000E+00 0. -1.
</event>
<event>
 7    1  0.2243370E-008  0.4614231E+02  0.7816164E-02  0.1320468E+00
        -11   -1    0    0    0    0  0.00000000000E+00  0.00000000000E+00  0.45593999997E+02  0.45594000000E+02  0.51100000000E-03 0.  1.
         11   -1    0    0    0    0 -0.00000000000E+00 -0.00000000000E+00 -0.45593999997E+02  0.45594000000E+02  0.51100000000E-03 0. -1.
    9900012    2    1    2    0    0  0.30218880289E+02 -0.18233475612E+02  0.27990595295E+02  0.46142314482E+02  0.99999700979E+01 0.  0.
         12    1    1    2    0    0 -0.30218880289E+02  0.18233475612E+02 -0.27990595295E+02  0.45045685518E+02  0.00000000000E+00 0. -1.
         11    1    3    3    0    0  0.99458893161E+00 -0.80832790023E+00 -0.13689138445E+00  0.12889300405E+01  0.51100000000E-03 0. -1.
        -11    1    3    3    0    0  0.29027397834E+02 -0.17643237759E+02  0.26187421776E+02  0.42891196337E+02  0.51100000000E-03 0.  1.
        -12    1    3    3    0    0  0.19689352328E+00  0.21809004757E+00  0.19400649035E+01  0.19621881047E+01  0.00000000000E+00 0.  1.
</event>
<event>
 7    1  0.2243370E-008  0.4614231E+02  0.7816164E-02  0.1320468E+00
        -11   -1    0    0    0    0  0.00000000000E+00  0.00000000000E+00  0.45593999997E+02  0.45594000000E+02  0.51100000000E-03 0. -1.
         11   -1    0    0    0    0 -0.00000000000E+00 -0.00000000000E+00 -0.45593999997E+02  0.45594000000E+02  0.51100000000E-03 0.  1.
    9900012    2    1    2    0    0 -0.14224500868E+00 -0.41682443745E+02 -0.17078281738E+02  0.46142311446E+02  0.99999424096E+01 0.  0.
         12    1    1    2    0    0  0.14224500868E+00  0.41682443745E+02  0.17078281738E+02  0.45045688554E+02  0.00000000000E+00 0. -1.
         11    1    3    3    0    0  0.12184923955E+01 -0.41679027249E+01 -0.10236589324E+01  0.44613915669E+01  0.51100000000E-03 0. -1.
        -11    1    3    3    0    0  0.13760448506E+01 -0.15748787198E+02 -0.10731620816E+02  0.19107210243E+02  0.51100000000E-03 0.  1.
        -12    1    3    3    0    0 -0.27367822549E+01 -0.21765753822E+02 -0.53230019892E+01  0.22573709636E+02  0.00000000000E+00 0.  1.
</event>
<event>
 7    1  0.2243370E-008  0.4614232E+02  0.7816164E-02  0.1320468E+00
        -11   -1    0    0    0    0  0.00000000000E+00  0.00000000000E+00  0.45593999997E+02  0.45594000000E+02  0.51100000000E-03 0.  1.
         11   -1    0    0    0    0 -0.00000000000E+00 -0.00000000000E+00 -0.45593999997E+02  0.45594000000E+02  0.51100000000E-03 0. -1.
    9900012    2    1    2    0    0 -0.42145161986E+02  0.72585107572E-02  0.15902791530E+02  0.46142317522E+02  0.99999978169E+01 0.  0.
         12    1    1    2    0    0  0.42145161986E+02 -0.72585107572E-02 -0.15902791530E+02  0.45045682478E+02  0.00000000000E+00 0. -1.
         11    1    3    3    0    0 -0.63346083433E+01  0.19264298125E+01  0.16354814565E+01  0.68200582505E+01  0.51100000000E-03 0. -1.
        -11    1    3    3    0    0 -0.13484811196E+02  0.28011809634E+01  0.43732723864E+01  0.14450337692E+02  0.51100000000E-03 0.  1.
        -12    1    3    3    0    0 -0.22325742446E+02 -0.47203522651E+01  0.98940376875E+01  0.24871921579E+02  0.00000000000E+00 0.  1.
</event>
<event>
 7    1  0.2243370E-008  0.4614232E+02  0.7816164E-02  0.1320468E+00
        -11   -1    0    0    0    0  0.00000000000E+00  0.00000000000E+00  0.45593999997E+02  0.45594000000E+02  0.51100000000E-03 0.  1.
         11   -1    0    0    0    0 -0.00000000000E+00 -0.00000000000E+00 -0.45593999997E+02  0.45594000000E+02  0.51100000000E-03 0. -1.
    9900012    2    1    2    0    0  0.36676959357E+02 -0.12030055223E+02  0.23220507992E+02  0.46142316880E+02  0.99999919634E+01 0.  0.
         12    1    1    2    0    0 -0.36676959357E+02  0.12030055223E+02 -0.23220507992E+02  0.45045683120E+02  0.00000000000E+00 0. -1.
         11    1    3    3    0    0  0.98286597989E+01 -0.45199461398E+01  0.49672533882E+01  0.11904035998E+02  0.51100000000E-03 0. -1.
        -11    1    3    3    0    0  0.18229717302E+02 -0.21200251245E+01  0.14546257030E+02  0.23418170152E+02  0.51100000000E-03 0.  1.
        -12    1    3    3    0    0  0.86185822563E+01 -0.53900839589E+01  0.37069975733E+01  0.10820110730E+02  0.00000000000E+00 0.  1.
</event>
<event>
 7    1  0.2243370E-008  0.4614231E+02  0.7816164E-02  0.1320468E+00
        -11   -1    0    0    0    0  0.00000000000E+00  0.00000000000E+00  0.45593999997E+02  0.45594000000E+02  0.51100000000E-03 0.  1.
         11   -1    0    0    0    0 -0.00000000000E+00 -0.00000000000E+00 -0.45593999997E+02  0.45594000000E+02  0.51100000000E-03 0. -1.
    9900012    2    1    2    0    0  0.15508099178E+02  0.21715909607E+02  0.36290938519E+02  0.46142311097E+02  0.99999392315E+01 0.  0.
         12    1    1    2    0    0 -0.15508099178E+02 -0.21715909607E+02 -0.36290938519E+02  0.45045688903E+02  0.00000000000E+00 0. -1.
         11    1    3    3    0    0  0.90705032820E+00  0.56608123229E+01  0.12163800241E+02  0.13447139957E+02  0.51100000000E-03 0. -1.
        -11    1    3    3    0    0  0.38034507077E+01  0.24032807661E+01  0.34646720157E+01  0.56785515903E+01  0.51100000000E-03 0.  1.
         12    1    3    3    0    0  0.10797598142E+02  0.13651816518E+02  0.20662466262E+02  0.27016619550E+02  0.00000000000E+00 0. -1.
</event>
<event>
 7    1  0.2243370E-008  0.4614232E+02  0.7816164E-02  0.1320468E+00
        -11   -1    0    0    0    0  0.00000000000E+00  0.00000000000E+00  0.45593999997E+02  0.45594000000E+02  0.51100000000E-03 0. -1.
         11   -1    0    0    0    0 -0.00000000000E+00 -0.00000000000E+00 -0.45593999997E+02  0.45594000000E+02  0.51100000000E-03 0.  1.
    9900012    2    1    2    0    0  0.34156654781E+02 -0.23091804251E+02 -0.18144006082E+02  0.46142318230E+02  0.10000004274E+02 0.  0.
         12    1    1    2    0    0 -0.34156654781E+02  0.23091804251E+02  0.18144006082E+02  0.45045681770E+02  0.00000000000E+00 0. -1.
         11    1    3    3    0    0  0.24671394055E+01 -0.12183604855E+01 -0.44611764526E+01  0.52414954661E+01  0.51100000000E-03 0. -1.
        -11    1    3    3    0    0  0.46734656732E+01 -0.28338495894E+01 -0.14078831973E+01  0.56439454509E+01  0.51100000000E-03 0.  1.
         12    1    3    3    0    0  0.27016049703E+02 -0.19039594177E+02 -0.12274946432E+02  0.35256877313E+02  0.00000000000E+00 0. -1.
</event>
<event>
 7    1  0.2243370E-008  0.4614232E+02  0.7816164E-02  0.1320468E+00
        -11   -1    0    0    0    0  0.00000000000E+00  0.00000000000E+00  0.45593999997E+02  0.45594000000E+02  0.51100000000E-03 0. -1.
         11   -1    0    0    0    0 -0.00000000000E+00 -0.00000000000E+00 -0.45593999997E+02  0.45594000000E+02  0.51100000000E-03 0.  1.
    9900012    2    1    2    0    0 -0.38713458709E+02 -0.38626532354E+01  0.22703777003E+02  0.46142318015E+02  0.10000002318E+02 0.  0.
         12    1    1    2    0    0  0.38713458709E+02  0.38626532354E+01 -0.22703777003E+02  0.45045681985E+02  0.00000000000E+00 0. -1.
         11    1    3    3    0    0  0.24842477878E+00  0.29476600040E+00 -0.42070061727E+00  0.57060593775E+00  0.51100000000E-03 0.  1.
        -11    1    3    3    0    0 -0.19576743591E+02 -0.13183118891E+01  0.12784949846E+02  0.23418833846E+02  0.51100000000E-03 0. -1.
        -12    1    3    3    0    0 -0.19385139897E+02 -0.28391073467E+01  0.10339527774E+02  0.22152878231E+02  0.00000000000E+00 0.  1.
</event>
<event>
 7    1  0.2243370E-008  0.4614232E+02  0.7816164E-02  0.1320468E+00
        -11   -1    0    0    0    0  0.00000000000E+00  0.00000000000E+00  0.45593999997E+02  0.45594000000E+02  0.51100000000E-03 0.  1.
         11   -1    0    0    0    0 -0.00000000000E+00 -0.00000000000E+00 -0.45593999997E+02  0.45594000000E+02  0.51100000000E-03 0. -1.
    9900012    2    1    2    0    0 -0.24154023584E+02  0.29803530662E+02  0.23610295353E+02  0.46142319387E+02  0.10000014827E+02 0.  0.
         12    1    1    2    0    0  0.24154023584E+02 -0.29803530662E+02 -0.23610295353E+02  0.45045680613E+02  0.00000000000E+00 0. -1.
         11    1    3    3    0    0 -0.11139613972E+02  0.81647404915E+01  0.50525331108E+01  0.14706531808E+02  0.51100000000E-03 0. -1.
        -11    1    3    3    0    0 -0.12079953678E+00 -0.21066852906E-03  0.30670278987E+00  0.32963530591E+00  0.51100000000E-03 0.  1.
        -12    1    3    3    0    0 -0.12893610076E+02  0.21639000839E+02  0.18251059452E+02  0.31106152273E+02  0.00000000000E+00 0.  1.
</event>
<event>
 7    1  0.2243370E-008  0.4614232E+02  0.7816164E-02  0.1320468E+00
        -11   -1    0    0    0    0  0.00000000000E+00  0.00000000000E+00  0.45593999997E+02  0.45594000000E+02  0.51100000000E-03 0.  1.
         11   -1    0    0    0    0 -0.00000000000E+00 -0.00000000000E+00 -0.45593999997E+02  0.45594000000E+02  0.51100000000E-03 0. -1.
    9900012    2    1    2    0    0  0.34252236349E+01  0.28243801054E+01  0.44826377379E+02  0.46142318866E+02  0.10000010074E+02 0.  0.
         12    1    1    2    0    0 -0.34252236349E+01 -0.28243801054E+01 -0.44826377379E+02  0.45045681134E+02  0.00000000000E+00 0. -1.
         11    1    3    3    0    0  0.88056732687E+00 -0.21520573845E+00  0.21902886225E+01  0.23704592040E+01  0.51100000000E-03 0. -1.
        -11    1    3    3    0    0  0.55430552909E+01  0.37443987254E+01  0.32357129748E+02  0.33041335166E+02  0.51100000000E-03 0.  1.
         12    1    3    3    0    0 -0.29983989829E+01 -0.70481288160E+00  0.10278959009E+02  0.10730524496E+02  0.00000000000E+00 0. -1.
</event>
<event>
 7    1  0.2243370E-008  0.4614232E+02  0.7816164E-02  0.1320468E+00
        -11   -1    0    0    0    0  0.00000000000E+00  0.00000000000E+00  0.45593999997E+02  0.45594000000E+02  0.51100000000E-03 0.  1.
         11   -1    0    0    0    0 -0.00000000000E+00 -0.00000000000E+00 -0.45593999997E+02  0.45594000000E+02  0.51100000000E-03 0. -1.
    9900012    2    1    2    0    0 -0.33292831678E+02  0.22872124635E+00  0.30342189577E+02  0.46142318488E+02  0.10000006632E+02 0.  0.
         12    1    1    2    0    0  0.33292831678E+02 -0.22872124635E+00 -0.30342189577E+02  0.45045681512E+02  0.00000000000E+00 0. -1.
         11    1    3    3    0    0 -0.18076057993E+02  0.23054113785E+01  0.16504524799E+02  0.24585730278E+02  0.51100000000E-03 0. -1.
        -11    1    3    3    0    0 -0.14691307078E+02 -0.20148188160E+01  0.14478955451E+02  0.20725205662E+02  0.51100000000E-03 0.  1.
        -12    1    3    3    0    0 -0.52546660615E+00 -0.61871316091E-01 -0.64129067309E+00  0.83138254812E+00  0.00000000000E+00 0.  1.
</event>
<event>
 7    1  0.2243370E-008  0.4614232E+02  0.7816164E-02  0.1320468E+00
        -11   -1    0    0    0    0  0.00000000000E+00  0.00000000000E+00  0.45593999997E+02  0.45594000000E+02  0.51100000000E-03 0.  1.
         11   -1    0    0    0    0 -0.00000000000E+00 -0.00000000000E+00 -0.45593999997E+02  0.45594000000E+02  0.51100000000E-03 0. -1.
    9900012    2    1    2    0    0  0.14413432913E+02 -0.17036315330E+02  0.39129659506E+02  0.46142319392E+02  0.10000014873E+02 0.  0.
         12    1    1    2    0    0 -0.14413432913E+02  0.17036315330E+02 -0.39129659506E+02  0.45045680608E+02  0.00000000000E+00 0. -1.
         11    1    3    3    0    0  0.49361135228E+00 -0.13502250606E+01 -0.25551682115E-01  0.14378501421E+01  0.51100000000E-03 0. -1.
        -11    1    3    3    0    0  0.59707202997E+01 -0.10489220957E+02  0.21409341068E+02  0.24577085718E+02  0.51100000000E-03 0.  1.
         12    1    3    3    0    0  0.79491012609E+01 -0.51968693128E+01  0.17745870120E+02  0.20127383532E+02  0.00000000000E+00 0. -1.
</event>
<event>
 7    1  0.2243370E-008  0.4614232E+02  0.7816164E-02  0.1320468E+00
        -11   -1    0    0    0    0  0.00000000000E+00  0.00000000000E+00  0.45593999997E+02  0.45594000000E+02  0.51100000000E-03 0.  1.
         11   -1    0    0    0    0 -0.00000000000E+00 -0.00000000000E+00 -0.45593999997E+02  0.45594000000E+02  0.51100000000E-03 0. -1.
    9900012    2    1    2    0    0  0.23064225872E+02 -0.32799728460E+02  0.20526392534E+02  0.46142317714E+02  0.99999995745E+01 0.  0.
         12    1    1    2    0    0 -0.23064225872E+02  0.32799728460E+02 -0.20526392534E+02  0.45045682286E+02  0.00000000000E+00 0. -1.
         11    1    3    3    0    0  0.86536230111E+01 -0.88567689440E+01  0.46693340750E+01  0.13233677807E+02  0.51100000000E-03 0. -1.
        -11    1    3    3    0    0  0.16329273934E+01 -0.68280074382E+00 -0.36147903044E+00  0.18064706138E+01  0.51100000000E-03 0.  1.
        -12    1    3    3    0    0  0.12777675468E+02 -0.23260158772E+02  0.16218537489E+02  0.31102169293E+02  0.00000000000E+00 0.  1.
</event>
<event>
 7    1  0.2243370E-008  0.4614232E+02  0.7816164E-02  0.1320468E+00
        -11   -1    0    0    0    0  0.00000000000E+00  0.00000000000E+00  0.45593999997E+02  0.45594000000E+02  0.51100000000E-03 0.  1.
         11   -1    0    0    0    0 -0.00000000000E+00 -0.00000000000E+00 -0.45593999997E+02  0.45594000000E+02  0.51100000000E-03 0. -1.
    9900012    2    1    2    0    0 -0.26529589944E+02  0.21935232534E+02  0.29054084952E+02  0.46142318505E+02  0.10000006786E+02 0.  0.
         12    1    1    2    0    0  0.26529589944E+02 -0.21935232534E+02 -0.29054084952E+02  0.45045681495E+02  0.00000000000E+00 0. -1.
         11    1    3    3    0    0  0.10974985545E-01  0.96519846228E+00  0.10040052320E+00  0.97046846835E+00  0.51100000000E-03 0. -1.
        -11    1    3    3    0    0 -0.11966018834E+02  0.48449095817E+01  0.99293736575E+01  0.16286534840E+02  0.51100000000E-03 0.  1.
        -12    1    3    3    0    0 -0.14574546095E+02  0.16125124490E+02  0.19024310772E+02  0.28885315197E+02  0.00000000000E+00 0.  1.
</event>
<event>
 7    1  0.2243370E-008  0.4614232E+02  0.7816164E-02  0.1320468E+00
        -11   -1    0    0    0    0  0.00000000000E+00  0.00000000000E+00  0.45593999997E+02  0.45594000000E+02  0.51100000000E-03 0.  1.
         11   -1    0    0    0    0 -0.00000000000E+00 -0.00000000000E+00 -0.45593999997E+02  0.45594000000E+02  0.51100000000E-03 0. -1.
    9900012    2    1    2    0    0 -0.42950245882E+02 -0.13289342345E+02  0.27898580254E+01  0.46142317087E+02  0.99999938550E+01 0.  0.
         12    1    1    2    0    0  0.42950245882E+02  0.13289342345E+02 -0.27898580254E+01  0.45045682913E+02  0.00000000000E+00 0. -1.
         11    1    3    3    0    0 -0.16346399542E+01 -0.13728715066E+01  0.12505388304E+01  0.24739991069E+01  0.51100000000E-03 0. -1.
        -11    1    3    3    0    0 -0.34112798320E+02 -0.11414484101E+02  0.36218261853E+01  0.36153714632E+02  0.51100000000E-03 0.  1.
        -12    1    3    3    0    0 -0.72028076080E+01 -0.50198673724E+00 -0.20825069903E+01  0.75146033486E+01  0.00000000000E+00 0.  1.
</event>
<event>
 7    1  0.2243370E-008  0.4614232E+02  0.7816164E-02  0.1320468E+00
        -11   -1    0    0    0    0  0.00000000000E+00  0.00000000000E+00  0.45593999997E+02  0.45594000000E+02  0.51100000000E-03 0.  1.
         11   -1    0    0    0    0 -0.00000000000E+00 -0.00000000000E+00 -0.45593999997E+02  0.45594000000E+02  0.51100000000E-03 0. -1.
    9900012    2    1    2    0    0  0.62420239540E+01  0.77323866372E+00  0.44604401375E+02  0.46142318929E+02  0.10000010653E+02 0.  0.
         12    1    1    2    0    0 -0.62420239540E+01 -0.77323866372E+00 -0.44604401375E+02  0.45045681071E+02  0.00000000000E+00 0. -1.
         11    1    3    3    0    0  0.39091265288E+01 -0.15246990105E+01  0.91570876263E+01  0.10072647683E+02  0.51100000000E-03 0. -1.
        -11    1    3    3    0    0  0.25654394012E+01  0.38463485727E+01  0.19275291243E+02  0.19822026370E+02  0.51100000000E-03 0.  1.
         12    1    3    3    0    0 -0.23254197593E+00 -0.15484108985E+01  0.16172022506E+02  0.16247644876E+02  0.00000000000E+00 0. -1.
</event>
<event>
 7    1  0.2243370E-008  0.4614232E+02  0.7816164E-02  0.1320468E+00
        -11   -1    0    0    0    0  0.00000000000E+00  0.00000000000E+00  0.45593999997E+02  0.45594000000E+02  0.51100000000E-03 0.  1.
         11   -1    0    0    0    0 -0.00000000000E+00 -0.00000000000E+00 -0.45593999997E+02  0.45594000000E+02  0.51100000000E-03 0. -1.
    9900012    2    1    2    0    0 -0.43463152915E+02  0.83113258951E+01  0.84255281960E+01  0.46142319577E+02  0.10000016555E+02 0.  0.
         12    1    1    2    0    0  0.43463152915E+02 -0.83113258951E+01 -0.84255281960E+01  0.45045680423E+02  0.00000000000E+00 0. -1.
         11    1    3    3    0    0 -0.23387926537E+02  0.92016074646E+01  0.61588692335E+01  0.25876560014E+02  0.51100000000E-03 0.  1.
        -11    1    3    3    0    0 -0.27860873566E+01  0.16055384328E+00 -0.45450580121E-01  0.27910797752E+01  0.51100000000E-03 0. -1.
        -12    1    3    3    0    0 -0.17289139021E+02 -0.10508354128E+01  0.23121095426E+01  0.17474679788E+02  0.00000000000E+00 0.  1.
</event>
<event>
 7    1  0.2243370E-008  0.4614232E+02  0.7816164E-02  0.1320468E+00
        -11   -1    0    0    0    0  0.00000000000E+00  0.00000000000E+00  0.45593999997E+02  0.45594000000E+02  0.51100000000E-03 0. -1.
         11   -1    0    0    0    0 -0.00000000000E+00 -0.00000000000E+00 -0.45593999997E+02  0.45594000000E+02  0.51100000000E-03 0.  1.
    9900012    2    1    2    0    0 -0.41188054586E+02 -0.18204428725E+02 -0.11209085458E+01  0.46142317612E+02  0.99999986443E+01 0.  0.
         12    1    1    2    0    0  0.41188054586E+02  0.18204428725E+02  0.11209085458E+01  0.45045682388E+02  0.00000000000E+00 0. -1.
         11    1    3    3    0    0 -0.24086139130E+02 -0.73559250356E+01  0.13906984003E+01  0.25222723359E+02  0.51100000000E-03 0.  1.
        -11    1    3    3    0    0 -0.62498443125E+01 -0.45533617446E+01 -0.31685577343E+01  0.83566390064E+01  0.51100000000E-03 0. -1.
         12    1    3    3    0    0 -0.10852071144E+02 -0.62951419445E+01  0.65695078823E+00  0.12562955247E+02  0.00000000000E+00 0. -1.
</event>
<event>
 7    1  0.2243370E-008  0.4614232E+02  0.7816164E-02  0.1320468E+00
        -11   -1    0    0    0    0  0.00000000000E+00  0.00000000000E+00  0.45593999997E+02  0.45594000000E+02  0.51100000000E-03 0.  1.
         11   -1    0    0    0    0 -0.00000000000E+00 -0.00000000000E+00 -0.45593999997E+02  0.45594000000E+02  0.51100000000E-03 0. -1.
    9900012    2    1    2    0    0  0.29414468268E+02  0.34106156426E+02  0.82023284411E+00  0.46142316171E+02  0.99999855038E+01 0.  0.
         12    1    1    2    0    0 -0.29414468268E+02 -0.34106156426E+02 -0.82023284411E+00  0.45045683829E+02  0.00000000000E+00 0. -1.
         11    1    3    3    0    0  0.21336606499E+02  0.29662906547E+02  0.89031657810E+00  0.36550396244E+02  0.51100000000E-03 0. -1.
        -11    1    3    3    0    0  0.20316896216E+01  0.61732210704E+00  0.10177366716E+01  0.23547053948E+01  0.51100000000E-03 0.  1.
        -12    1    3    3    0    0  0.60461721483E+01  0.38259277718E+01 -0.10878204056E+01  0.72372145330E+01  0.00000000000E+00 0.  1.
</event>
<event>
 7    1  0.2243370E-008  0.4614232E+02  0.7816164E-02  0.1320468E+00
        -11   -1    0    0    0    0  0.00000000000E+00  0.00000000000E+00  0.45593999997E+02  0.45594000000E+02  0.51100000000E-03 0.  1.
         11   -1    0    0    0    0 -0.00000000000E+00 -0.00000000000E+00 -0.45593999997E+02  0.45594000000E+02  0.51100000000E-03 0. -1.
    9900012    2    1    2    0    0  0.35857038954E+02 -0.10651584882E+01  0.27244294476E+02  0.46142318890E+02  0.10000010297E+02 0.  0.
         12    1    1    2    0    0 -0.35857038954E+02  0.10651584882E+01 -0.27244294476E+02  0.45045681110E+02  0.00000000000E+00 0. -1.
         11    1    3    3    0    0  0.11208178076E+02 -0.61919940746E+00  0.12864442144E+02  0.17073386765E+02  0.51100000000E-03 0. -1.
        -11    1    3    3    0    0  0.62541293683E+01 -0.22061435612E+01  0.52469189143E+01  0.84564390805E+01  0.51100000000E-03 0.  1.
        -12    1    3    3    0    0  0.18394731509E+02  0.17601844805E+01  0.91329334181E+01  0.20612493045E+02  0.00000000000E+00 0.  1.
</event>
<event>
 7    1  0.2243370E-008  0.4614232E+02  0.7816164E-02  0.1320468E+00
        -11   -1    0    0    0    0  0.00000000000E+00  0.00000000000E+00  0.45593999997E+02  0.45594000000E+02  0.51100000000E-03 0.  1.
         11   -1    0    0    0    0 -0.00000000000E+00 -0.00000000000E+00 -0.45593999997E+02  0.45594000000E+02  0.51100000000E-03 0. -1.
    9900012    2    1    2    0    0 -0.61450896014E+01  0.18166364551E+02  0.40759471747E+02  0.46142318028E+02  0.10000002435E+02 0.  0.
         12    1    1    2    0    0  0.61450896014E+01 -0.18166364551E+02 -0.40759471747E+02  0.45045681972E+02  0.00000000000E+00 0. -1.
         11    1    3    3    0    0  0.84181643556E+00  0.42894552085E+01  0.13228745256E+02  0.13932256895E+02  0.51100000000E-03 0. -1.
        -11    1    3    3    0    0 -0.33351036940E+01  0.25432743666E+01  0.11498858505E+02  0.12239890045E+02  0.51100000000E-03 0.  1.
         12    1    3    3    0    0 -0.36518023429E+01  0.11333634976E+02  0.16031867987E+02  0.19970171087E+02  0.00000000000E+00 0. -1.
</event>
<event>
 7    1  0.2243370E-008  0.4614232E+02  0.7816164E-02  0.1320468E+00
        -11   -1    0    0    0    0  0.00000000000E+00  0.00000000000E+00  0.45593999997E+02  0.45594000000E+02  0.51100000000E-03 0.  1.
         11   -1    0    0    0    0 -0.00000000000E+00 -0.00000000000E+00 -0.45593999997E+02  0.45594000000E+02  0.51100000000E-03 0. -1.
    9900012    2    1    2    0    0  0.16892114151E+02 -0.17396730138E+02  0.37962136134E+02  0.46142317412E+02  0.99999968141E+01 0.  0.
         12    1    1    2    0    0 -0.16892114151E+02  0.17396730138E+02 -0.37962136134E+02  0.45045682588E+02  0.00000000000E+00 0. -1.
         11    1    3    3    0    0  0.65789647943E+00 -0.47140410912E-01 -0.38239937255E+00  0.76241690514E+00  0.51100000000E-03 0. -1.
        -11    1    3    3    0    0  0.58088704975E+01 -0.30290423741E+01  0.10779618713E+02  0.12614208418E+02  0.51100000000E-03 0.  1.
        -12    1    3    3    0    0  0.10425347174E+02 -0.14320547353E+02  0.27564916794E+02  0.32765692088E+02  0.00000000000E+00 0.  1.
</event>
<event>
 7    1  0.2243370E-008  0.4614232E+02  0.7816164E-02  0.1320468E+00
        -11   -1    0    0    0    0  0.00000000000E+00  0.00000000000E+00  0.45593999997E+02  0.45594000000E+02  0.51100000000E-03 0.  1.
         11   -1    0    0    0    0 -0.00000000000E+00 -0.00000000000E+00 -0.45593999997E+02  0.45594000000E+02  0.51100000000E-03 0. -1.
    9900012    2    1    2    0    0 -0.59306524612E+01 -0.16222561882E+02  0.41602514004E+02  0.46142319585E+02  0.10000016631E+02 0.  0.
         12    1    1    2    0    0  0.59306524612E+01  0.16222561882E+02 -0.41602514004E+02  0.45045680415E+02  0.00000000000E+00 0. -1.
         11    1    3    3    0    0 -0.44186133297E+01 -0.15592062583E+01  0.11635941584E+02  0.12543938964E+02  0.51100000000E-03 0. -1.
        -11    1    3    3    0    0 -0.25011529979E+00 -0.27613538139E+00  0.28618213782E+01  0.28859712878E+01  0.51100000000E-03 0.  1.
        -12    1    3    3    0    0 -0.12619238317E+01 -0.14387220243E+02  0.27104751041E+02  0.30712409334E+02  0.00000000000E+00 0.  1.
</event>
<event>
 7    1  0.2243370E-008  0.4614232E+02  0.7816164E-02  0.1320468E+00
        -11   -1    0    0    0    0  0.00000000000E+00  0.00000000000E+00  0.45593999997E+02  0.45594000000E+02  0.51100000000E-03 0.  1.
         11   -1    0    0    0    0 -0.00000000000E+00 -0.00000000000E+00 -0.45593999997E+02  0.45594000000E+02  0.51100000000E-03 0. -1.
    9900012    2    1    2    0    0 -0.32108056913E+02  0.16623588395E+01  0.31550319485E+02  0.46142318573E+02  0.10000007406E+02 0.  0.
         12    1    1    2    0    0  0.32108056913E+02 -0.16623588395E+01 -0.31550319485E+02  0.45045681427E+02  0.00000000000E+00 0. -1.
         11    1    3    3    0    0 -0.20831209341E+02  0.16301722576E+01  0.24829521966E+02  0.32451531635E+02  0.51100000000E-03 0. -1.
        -11    1    3    3    0    0 -0.58088630727E+01 -0.17986973042E+01  0.42411365638E+01  0.74138682078E+01  0.51100000000E-03 0.  1.
         12    1    3    3    0    0 -0.54679844995E+01  0.18308838860E+01  0.24796609552E+01  0.62769187301E+01  0.00000000000E+00 0. -1.
</event>
<event>
 7    1  0.2243370E-008  0.4614232E+02  0.7816164E-02  0.1320468E+00
        -11   -1    0    0    0    0  0.00000000000E+00  0.00000000000E+00  0.45593999997E+02  0.45594000000E+02  0.51100000000E-03 0. -1.
         11   -1    0    0    0    0 -0.00000000000E+00 -0.00000000000E+00 -0.45593999997E+02  0.45594000000E+02  0.51100000000E-03 0.  1.
    9900012    2    1    2    0    0 -0.37010862868E+02 -0.48928446865E+01 -0.25206538353E+02  0.46142317908E+02  0.10000001342E+02 0.  0.
         12    1    1    2    0    0  0.37010862868E+02  0.48928446865E+01  0.25206538353E+02  0.45045682092E+02  0.00000000000E+00 0. -1.
         11    1    3    3    0    0 -0.19303803584E+02 -0.23215349987E+01 -0.10870745680E+02  0.22275535223E+02  0.51100000000E-03 0. -1.
        -11    1    3    3    0    0 -0.14365545747E+02 -0.44453901202E+01 -0.12769088412E+02  0.19727646009E+02  0.51100000000E-03 0.  1.
         12    1    3    3    0    0 -0.33415135366E+01  0.18740804323E+01 -0.15667042621E+01  0.41391366765E+01  0.00000000000E+00 0. -1.
</event>
<event>
 7    1  0.2243370E-008  0.4614232E+02  0.7816164E-02  0.1320468E+00
        -11   -1    0    0    0    0  0.00000000000E+00  0.00000000000E+00  0.45593999997E+02  0.45594000000E+02  0.51100000000E-03 0.  1.
         11   -1    0    0    0    0 -0.00000000000E+00 -0.00000000000E+00 -0.45593999997E+02  0.45594000000E+02  0.51100000000E-03 0. -1.
    9900012    2    1    2    0    0 -0.33631979420E+01 -0.22158268431E+02  0.39074460267E+02  0.46142318682E+02  0.10000008398E+02 0.  0.
         12    1    1    2    0    0  0.33631979420E+01  0.22158268431E+02 -0.39074460267E+02  0.45045681318E+02  0.00000000000E+00 0. -1.
         11    1    3    3    0    0 -0.69612820057E+00 -0.12115366567E+02  0.12210804922E+02  0.17215413403E+02  0.51100000000E-03 0. -1.
        -11    1    3    3    0    0 -0.90396508837E+00 -0.11604166242E+01  0.60917306295E+01  0.62668095508E+01  0.51100000000E-03 0.  1.
        -12    1    3    3    0    0 -0.17631046530E+01 -0.88824852398E+01  0.20771924715E+02  0.22660095728E+02  0.00000000000E+00 0.  1.
</event>
<event>
 7    1  0.2243370E-008  0.4614232E+02  0.7816164E-02  0.1320468E+00
        -11   -1    0    0    0    0  0.00000000000E+00  0.00000000000E+00  0.45593999997E+02  0.45594000000E+02  0.51100000000E-03 0.  1.
         11   -1    0    0    0    0 -0.00000000000E+00 -0.00000000000E+00 -0.45593999997E+02  0.45594000000E+02  0.51100000000E-03 0. -1.
    9900012    2    1    2    0    0  0.24016724720E+02 -0.73339475151E+01  0.37396839802E+02  0.46142317858E+02  0.10000000888E+02 0.  0.
         12    1    1    2    0    0 -0.24016724720E+02  0.73339475151E+01 -0.37396839802E+02  0.45045682142E+02  0.00000000000E+00 0. -1.
         11    1    3    3    0    0  0.48163711413E+01 -0.78716357085E+00  0.11775239922E+02  0.12746502773E+02  0.51100000000E-03 0.  1.
        -11    1    3    3    0    0  0.18404654474E+02 -0.72034094560E+01  0.21747168831E+02  0.29386387435E+02  0.51100000000E-03 0. -1.
         12    1    3    3    0    0  0.79569910507E+00  0.65662551169E+00  0.38744310492E+01  0.40094276503E+01  0.00000000000E+00 0. -1.
</event>
<event>
 7    1  0.2243370E-008  0.4614232E+02  0.7816164E-02  0.1320468E+00
        -11   -1    0    0    0    0  0.00000000000E+00  0.00000000000E+00  0.45593999997E+02  0.45594000000E+02  0.51100000000E-03 0.  1.
         11   -1    0    0    0    0 -0.00000000000E+00 -0.00000000000E+00 -0.45593999997E+02  0.45594000000E+02  0.51100000000E-03 0. -1.
    9900012    2    1    2    0    0  0.44185423182E+02  0.24182502665E+01  0.84210411125E+01  0.46142317748E+02  0.99999998779E+01 0.  0.
         12    1    1    2    0    0 -0.44185423182E+02 -0.24182502665E+01 -0.84210411125E+01  0.45045682252E+02  0.00000000000E+00 0. -1.
         11    1    3    3    0    0  0.51940890876E+00  0.77805914603E+00  0.14644905243E+01  0.17377843382E+01  0.51100000000E-03 0. -1.
        -11    1    3    3    0    0  0.43133135657E+01  0.10294576402E+01 -0.14576232443E-01  0.44344864051E+01  0.51100000000E-03 0.  1.
         12    1    3    3    0    0  0.39352700708E+02  0.61073348024E+00  0.69711268206E+01  0.39970047004E+02  0.00000000000E+00 0. -1.
</event>
<event>
 7    1  0.2243370E-008  0.4614232E+02  0.7816164E-02  0.1320468E+00
        -11   -1    0    0    0    0  0.00000000000E+00  0.00000000000E+00  0.45593999997E+02  0.45594000000E+02  0.51100000000E-03 0.  1.
         11   -1    0    0    0    0 -0.00000000000E+00 -0.00000000000E+00 -0.45593999997E+02  0.45594000000E+02  0.51100000000E-03 0. -1.
    9900012    2    1    2    0    0 -0.41539088210E+02 -0.10012604140E+02  0.14260624866E+02  0.46142317493E+02  0.99999975553E+01 0.  0.
         12    1    1    2    0    0  0.41539088210E+02  0.10012604140E+02 -0.14260624866E+02  0.45045682507E+02  0.00000000000E+00 0. -1.
         11    1    3    3    0    0 -0.21643067666E+02 -0.19347977923E+01  0.73340964059E+01  0.22933704255E+02  0.51100000000E-03 0. -1.
        -11    1    3    3    0    0 -0.72870266288E+01 -0.25050656138E+01  0.52440627427E+01  0.93207459535E+01  0.51100000000E-03 0.  1.
        -12    1    3    3    0    0 -0.12608993915E+02 -0.55727407338E+01  0.16824657175E+01  0.13887867285E+02  0.00000000000E+00 0.  1.
</event>
<event>
 7    1  0.2243370E-008  0.4614232E+02  0.7816164E-02  0.1320468E+00
        -11   -1    0    0    0    0  0.00000000000E+00  0.00000000000E+00  0.45593999997E+02  0.45594000000E+02  0.51100000000E-03 0. -1.
         11   -1    0    0    0    0 -0.00000000000E+00 -0.00000000000E+00 -0.45593999997E+02  0.45594000000E+02  0.51100000000E-03 0.  1.
    9900012    2    1    2    0    0  0.30707326186E+02 -0.18834477229E+02  0.27045073004E+02  0.46142318877E+02  0.10000010176E+02 0.  0.
         12    1    1    2    0    0 -0.30707326186E+02  0.18834477229E+02 -0.27045073004E+02  0.45045681123E+02  0.00000000000E+00 0. -1.
         11    1    3    3    0    0  0.14035919396E+02 -0.74975007531E+01  0.12210537088E+02  0.20057835553E+02  0.51100000000E-03 0. -1.
        -11    1    3    3    0    0  0.48658600526E+01  0.16445176971E+00  0.23390161764E+01  0.54013549569E+01  0.51100000000E-03 0.  1.
        -12    1    3    3    0    0  0.11805546738E+02 -0.11501428246E+02  0.12495519740E+02  0.20683128367E+02  0.00000000000E+00 0.  1.
</event>
<event>
 7    1  0.2243370E-008  0.4614232E+02  0.7816164E-02  0.1320468E+00
        -11   -1    0    0    0    0  0.00000000000E+00  0.00000000000E+00  0.45593999997E+02  0.45594000000E+02  0.51100000000E-03 0. -1.
         11   -1    0    0    0    0 -0.00000000000E+00 -0.00000000000E+00 -0.45593999997E+02  0.45594000000E+02  0.51100000000E-03 0.  1.
    9900012    2    1    2    0    0  0.39252750100E+02  0.33313194513E+01 -0.21845763329E+02  0.46142318130E+02  0.10000003364E+02 0.  0.
         12    1    1    2    0    0 -0.39252750100E+02 -0.33313194513E+01  0.21845763329E+02  0.45045681870E+02  0.00000000000E+00 0. -1.
         11    1    3    3    0    0  0.18764720859E+02 -0.14888513791E+01 -0.10274099406E+02  0.21445012152E+02  0.51100000000E-03 0. -1.
        -11    1    3    3    0    0  0.15124466628E+02  0.93924777022E+00 -0.73171302014E+01  0.16827717367E+02  0.51100000000E-03 0.  1.
         12    1    3    3    0    0  0.53635626127E+01  0.38809230602E+01 -0.42545337223E+01  0.78695886102E+01  0.00000000000E+00 0. -1.
</event>
<event>
 7    1  0.2243370E-008  0.4614231E+02  0.7816164E-02  0.1320468E+00
        -11   -1    0    0    0    0  0.00000000000E+00  0.00000000000E+00  0.45593999997E+02  0.45594000000E+02  0.51100000000E-03 0.  1.
         11   -1    0    0    0    0 -0.00000000000E+00 -0.00000000000E+00 -0.45593999997E+02  0.45594000000E+02  0.51100000000E-03 0. -1.
    9900012    2    1    2    0    0 -0.76030264543E+01 -0.13177267317E+01  0.44379855952E+02  0.46142311756E+02  0.99999452426E+01 0.  0.
         12    1    1    2    0    0  0.76030264543E+01  0.13177267317E+01 -0.44379855952E+02  0.45045688244E+02  0.00000000000E+00 0. -1.
         11    1    3    3    0    0 -0.28055709106E+01  0.10165984275E+01  0.53578045731E+01  0.61327620696E+01  0.51100000000E-03 0. -1.
        -11    1    3    3    0    0 -0.11801924550E+01 -0.10284725854E+01  0.11492831680E+01  0.19420252705E+01  0.51100000000E-03 0.  1.
        -12    1    3    3    0    0 -0.36172630886E+01 -0.13058525738E+01  0.37872768211E+02  0.38067524416E+02  0.00000000000E+00 0.  1.
</event>
<event>
 7    1  0.2243370E-008  0.4614232E+02  0.7816164E-02  0.1320468E+00
        -11   -1    0    0    0    0  0.00000000000E+00  0.00000000000E+00  0.45593999997E+02  0.45594000000E+02  0.51100000000E-03 0.  1.
         11   -1    0    0    0    0 -0.00000000000E+00 -0.00000000000E+00 -0.45593999997E+02  0.45594000000E+02  0.51100000000E-03 0. -1.
    9900012    2    1    2    0    0 -0.17660980763E+02 -0.23554259488E+02  0.34093989058E+02  0.46142317949E+02  0.10000001716E+02 0.  0.
         12    1    1    2    0    0  0.17660980763E+02  0.23554259488E+02 -0.34093989058E+02  0.45045682051E+02  0.00000000000E+00 0. -1.
         11    1    3    3    0    0 -0.19599968563E+01 -0.13975231650E+01  0.16054562577E+01  0.28934665594E+01  0.51100000000E-03 0. -1.
        -11    1    3    3    0    0 -0.14528809588E+02 -0.13643050974E+02  0.21891172302E+02  0.29604772806E+02  0.51100000000E-03 0.  1.
         12    1    3    3    0    0 -0.11721743186E+01 -0.85136853492E+01  0.10597360498E+02  0.13644078583E+02  0.00000000000E+00 0. -1.
</event>
<event>
 7    1  0.2243370E-008  0.4614232E+02  0.7816164E-02  0.1320468E+00
        -11   -1    0    0    0    0  0.00000000000E+00  0.00000000000E+00  0.45593999997E+02  0.45594000000E+02  0.51100000000E-03 0.  1.
         11   -1    0    0    0    0 -0.00000000000E+00 -0.00000000000E+00 -0.45593999997E+02  0.45594000000E+02  0.51100000000E-03 0. -1.
    9900012    2    1    2    0    0 -0.19654496211E+02  0.13518309050E+02  0.38210855636E+02  0.46142318861E+02  0.10000010028E+02 0.  0.
         12    1    1    2    0    0  0.19654496211E+02 -0.13518309050E+02 -0.38210855636E+02  0.45045681139E+02  0.00000000000E+00 0. -1.
         11    1    3    3    0    0  0.27915620252E+00 -0.40253109745E+00  0.83995999643E+00  0.97236440008E+00  0.51100000000E-03 0. -1.
        -11    1    3    3    0    0 -0.15551547076E+01  0.75699323260E+00  0.75681479654E+01  0.77632730730E+01  0.51100000000E-03 0.  1.
        -12    1    3    3    0    0 -0.18378497706E+02  0.13163846915E+02  0.29802747674E+02  0.37406681388E+02  0.00000000000E+00 0.  1.
</event>
<event>
 7    1  0.2243370E-008  0.4614232E+02  0.7816164E-02  0.1320468E+00
        -11   -1    0    0    0    0  0.00000000000E+00  0.00000000000E+00  0.45593999997E+02  0.45594000000E+02  0.51100000000E-03 0.  1.
         11   -1    0    0    0    0 -0.00000000000E+00 -0.00000000000E+00 -0.45593999997E+02  0.45594000000E+02  0.51100000000E-03 0. -1.
    9900012    2    1    2    0    0 -0.15574606183E+02  0.77666390342E+01  0.41547857116E+02  0.46142317959E+02  0.10000001803E+02 0.  0.
         12    1    1    2    0    0  0.15574606183E+02 -0.77666390342E+01 -0.41547857116E+02  0.45045682041E+02  0.00000000000E+00 0. -1.
         11    1    3    3    0    0 -0.16380436438E+01  0.23486586707E+01  0.44582881330E+01  0.52986524578E+01  0.51100000000E-03 0. -1.
        -11    1    3    3    0    0 -0.95714568523E+01  0.46021951390E+01  0.33470397042E+02  0.35114960698E+02  0.51100000000E-03 0.  1.
         12    1    3    3    0    0 -0.43651056867E+01  0.81578522446E+00  0.36191719407E+01  0.57287048034E+01  0.00000000000E+00 0. -1.
</event>
<event>
 7    1  0.2243370E-008  0.4614232E+02  0.7816164E-02  0.1320468E+00
        -11   -1    0    0    0    0  0.00000000000E+00  0.00000000000E+00  0.45593999997E+02  0.45594000000E+02  0.51100000000E-03 0. -1.
         11   -1    0    0    0    0 -0.00000000000E+00 -0.00000000000E+00 -0.45593999997E+02  0.45594000000E+02  0.51100000000E-03 0.  1.
    9900012    2    1    2    0    0 -0.37364111073E+02  0.25158242585E+02 -0.31553572373E+00  0.46142317309E+02  0.99999958808E+01 0.  0.
         12    1    1    2    0    0  0.37364111073E+02 -0.25158242585E+02  0.31553572373E+00  0.45045682691E+02  0.00000000000E+00 0. -1.
         11    1    3    3    0    0 -0.20350931512E+00 -0.35665578374E+00 -0.39427858185E+00  0.56927607595E+00  0.51100000000E-03 0. -1.
        -11    1    3    3    0    0 -0.12577757921E+02  0.10967593706E+02  0.26329910883E+01  0.16894399911E+02  0.51100000000E-03 0.  1.
        -12    1    3    3    0    0 -0.24582843837E+02  0.14547304663E+02 -0.25542482302E+01  0.28678641322E+02  0.00000000000E+00 0.  1.
</event>
<event>
 7    1  0.2243370E-008  0.4614232E+02  0.7816164E-02  0.1320468E+00
        -11   -1    0    0    0    0  0.00000000000E+00  0.00000000000E+00  0.45593999997E+02  0.45594000000E+02  0.51100000000E-03 0.  1.
         11   -1    0    0    0    0 -0.00000000000E+00 -0.00000000000E+00 -0.45593999997E+02  0.45594000000E+02  0.51100000000E-03 0. -1.
    9900012    2    1    2    0    0 -0.11246194314E+02 -0.38443633442E+02  0.20608827373E+02  0.46142316473E+02  0.99999882512E+01 0.  0.
         12    1    1    2    0    0  0.11246194314E+02  0.38443633442E+02 -0.20608827373E+02  0.45045683527E+02  0.00000000000E+00 0. -1.
         11    1    3    3    0    0 -0.30777879559E+01 -0.45837044657E+01  0.30904665900E+01  0.63272513255E+01  0.51100000000E-03 0.  1.
        -11    1    3    3    0    0 -0.11047868584E+00 -0.68353009601E+01  0.68119669265E+01  0.96507221711E+01  0.51100000000E-03 0. -1.
        -12    1    3    3    0    0 -0.80579276719E+01 -0.27024628016E+02  0.10706393857E+02  0.30164342976E+02  0.00000000000E+00 0.  1.
</event>
<event>
 7    1  0.2243370E-008  0.4614232E+02  0.7816164E-02  0.1320468E+00
        -11   -1    0    0    0    0  0.00000000000E+00  0.00000000000E+00  0.45593999997E+02  0.45594000000E+02  0.51100000000E-03 0.  1.
         11   -1    0    0    0    0 -0.00000000000E+00 -0.00000000000E+00 -0.45593999997E+02  0.45594000000E+02  0.51100000000E-03 0. -1.
    9900012    2    1    2    0    0  0.20325394849E+02  0.21886983389E+02  0.33718716672E+02  0.46142316836E+02  0.99999915685E+01 0.  0.
         12    1    1    2    0    0 -0.20325394849E+02 -0.21886983389E+02 -0.33718716672E+02  0.45045683164E+02  0.00000000000E+00 0. -1.
         11    1    3    3    0    0 -0.52621847125E+00  0.69688893846E-01 -0.19592484932E+00  0.56581731072E+00  0.51100000000E-03 0. -1.
        -11    1    3    3    0    0  0.48483648503E+00  0.62910097971E+00  0.21954926243E+01  0.23347425093E+01  0.51100000000E-03 0.  1.
        -12    1    3    3    0    0  0.20366776836E+02  0.21188193515E+02  0.31719148897E+02  0.43241757017E+02  0.00000000000E+00 0.  1.
</event>
<event>
 7    1  0.2243370E-008  0.4614232E+02  0.7816164E-02  0.1320468E+00
        -11   -1    0    0    0    0  0.00000000000E+00  0.00000000000E+00  0.45593999997E+02  0.45594000000E+02  0.51100000000E-03 0.  1.
         11   -1    0    0    0    0 -0.00000000000E+00 -0.00000000000E+00 -0.45593999997E+02  0.45594000000E+02  0.51100000000E-03 0. -1.
    9900012    2    1    2    0    0 -0.13806902632E+00  0.39943097191E+02  0.20824107122E+02  0.46142317480E+02  0.99999974389E+01 0.  0.
         12    1    1    2    0    0  0.13806902632E+00 -0.39943097191E+02 -0.20824107122E+02  0.45045682520E+02  0.00000000000E+00 0. -1.
         11    1    3    3    0    0  0.89683456798E+00  0.10987489889E+02  0.21787029679E+01  0.11237259150E+02  0.51100000000E-03 0. -1.
        -11    1    3    3    0    0  0.13180338384E+01  0.18479871036E+02  0.96019757136E+01  0.20867217941E+02  0.51100000000E-03 0.  1.
         12    1    3    3    0    0 -0.23529374327E+01  0.10475736265E+02  0.90434284405E+01  0.14037840390E+02  0.00000000000E+00 0. -1.
</event>
<event>
 7    1  0.2243370E-008  0.4614232E+02  0.7816164E-02  0.1320468E+00
        -11   -1    0    0    0    0  0.00000000000E+00  0.00000000000E+00  0.45593999997E+02  0.45594000000E+02  0.51100000000E-03 0. -1.
         11   -1    0    0    0    0 -0.00000000000E+00 -0.00000000000E+00 -0.45593999997E+02  0.45594000000E+02  0.51100000000E-03 0.  1.
    9900012    2    1    2    0    0 -0.20021154867E+02 -0.26237374361E+02 -0.30657250233E+02  0.46142318216E+02  0.10000004146E+02 0.  0.
         12    1    1    2    0    0  0.20021154867E+02  0.26237374361E+02  0.30657250233E+02  0.45045681784E+02  0.00000000000E+00 0. -1.
         11    1    3    3    0    0 -0.28222643151E+01 -0.85461899335E+01 -0.69524153900E+01  0.11372713760E+02  0.51100000000E-03 0. -1.
        -11    1    3    3    0    0 -0.14348026908E+02 -0.16787315657E+02 -0.18690922643E+02  0.28931478230E+02  0.51100000000E-03 0.  1.
        -12    1    3    3    0    0 -0.28508636442E+01 -0.90386877042E+00 -0.50139122006E+01  0.58381262257E+01  0.00000000000E+00 0.  1.
</event>
<event>
 7    1  0.2243370E-008  0.4614232E+02  0.7816164E-02  0.1320468E+00
        -11   -1    0    0    0    0  0.00000000000E+00  0.00000000000E+00  0.45593999997E+02  0.45594000000E+02  0.51100000000E-03 0.  1.
         11   -1    0    0    0    0 -0.00000000000E+00 -0.00000000000E+00 -0.45593999997E+02  0.45594000000E+02  0.51100000000E-03 0. -1.
    9900012    2    1    2    0    0  0.36848732652E+02 -0.58215816956E+01  0.25246658796E+02  0.46142315502E+02  0.99999793979E+01 0.  0.
         12    1    1    2    0    0 -0.36848732652E+02  0.58215816956E+01 -0.25246658796E+02  0.45045684498E+02  0.00000000000E+00 0. -1.
         11    1    3    3    0    0  0.19582445901E+02 -0.57176008212E+01  0.15061384602E+02  0.25357611343E+02  0.51100000000E-03 0. -1.
        -11    1    3    3    0    0  0.72305160060E+01 -0.40698036624E+00  0.74248468310E+01  0.10371805313E+02  0.51100000000E-03 0.  1.
         12    1    3    3    0    0  0.10035770745E+02  0.30299949180E+00  0.27604273635E+01  0.10412898846E+02  0.00000000000E+00 0. -1.
</event>
<event>
 7    1  0.2243370E-008  0.4614232E+02  0.7816164E-02  0.1320468E+00
        -11   -1    0    0    0    0  0.00000000000E+00  0.00000000000E+00  0.45593999997E+02  0.45594000000E+02  0.51100000000E-03 0.  1.
         11   -1    0    0    0    0 -0.00000000000E+00 -0.00000000000E+00 -0.45593999997E+02  0.45594000000E+02  0.51100000000E-03 0. -1.
    9900012    2    1    2    0    0 -0.42734335715E+02 -0.12270319304E+01  0.14190997075E+02  0.46142318139E+02  0.10000003443E+02 0.  0.
         12    1    1    2    0    0  0.42734335715E+02  0.12270319304E+01 -0.14190997075E+02  0.45045681861E+02  0.00000000000E+00 0. -1.
         11    1    3    3    0    0 -0.15907154036E+02 -0.39375555925E+01  0.60097775029E+01  0.17454492816E+02  0.51100000000E-03 0. -1.
        -11    1    3    3    0    0 -0.14834808326E+02 -0.13207587174E+00  0.22318267317E+01  0.15002334249E+02  0.51100000000E-03 0.  1.
         12    1    3    3    0    0 -0.11992373353E+02  0.28425995338E+01  0.59493928407E+01  0.13685491074E+02  0.00000000000E+00 0. -1.
</event>
<event>
 7    1  0.2243370E-008  0.4614232E+02  0.7816164E-02  0.1320468E+00
        -11   -1    0    0    0    0  0.00000000000E+00  0.00000000000E+00  0.45593999997E+02  0.45594000000E+02  0.51100000000E-03 0. -1.
         11   -1    0    0    0    0 -0.00000000000E+00 -0.00000000000E+00 -0.45593999997E+02  0.45594000000E+02  0.51100000000E-03 0.  1.
    9900012    2    1    2    0    0 -0.29880684209E+02  0.42303779888E+01 -0.33441922992E+02  0.46142316521E+02  0.99999886888E+01 0.  0.
         12    1    1    2    0    0  0.29880684209E+02 -0.42303779888E+01  0.33441922992E+02  0.45045683479E+02  0.00000000000E+00 0. -1.
         11    1    3    3    0    0 -0.53437701696E+01  0.23322690652E+01 -0.45117339624E+01  0.73723200030E+01  0.51100000000E-03 0.  1.
        -11    1    3    3    0    0 -0.87769524073E+01  0.27330986180E+01 -0.15621264703E+02  0.18125358832E+02  0.51100000000E-03 0. -1.
        -12    1    3    3    0    0 -0.15759961632E+02 -0.83498969440E+00 -0.13308924326E+02  0.20644637685E+02  0.00000000000E+00 0.  1.
</event>
<event>
 7    1  0.2243370E-008  0.4614232E+02  0.7816164E-02  0.1320468E+00
        -11   -1    0    0    0    0  0.00000000000E+00  0.00000000000E+00  0.45593999997E+02  0.45594000000E+02  0.51100000000E-03 0. -1.
         11   -1    0    0    0    0 -0.00000000000E+00 -0.00000000000E+00 -0.45593999997E+02  0.45594000000E+02  0.51100000000E-03 0.  1.
    9900012    2    1    2    0    0 -0.40599808430E+01  0.24356882220E+02 -0.37674556671E+02  0.46142319005E+02  0.10000011343E+02 0.  0.
         12    1    1    2    0    0  0.40599808430E+01 -0.24356882220E+02  0.37674556671E+02  0.45045680995E+02  0.00000000000E+00 0. -1.
         11    1    3    3    0    0 -0.78893495482E+00  0.11725437080E+01 -0.46851795293E-01  0.14140270372E+01  0.51100000000E-03 0. -1.
        -11    1    3    3    0    0  0.12913112402E+01  0.11642158510E+02 -0.19812036669E+02  0.23015736719E+02  0.51100000000E-03 0.  1.
         12    1    3    3    0    0 -0.45623571284E+01  0.11542180003E+02 -0.17815668206E+02  0.21712555249E+02  0.00000000000E+00 0. -1.
</event>
<event>
 7    1  0.2243370E-008  0.4614232E+02  0.7816164E-02  0.1320468E+00
        -11   -1    0    0    0    0  0.00000000000E+00  0.00000000000E+00  0.45593999997E+02  0.45594000000E+02  0.51100000000E-03 0.  1.
         11   -1    0    0    0    0 -0.00000000000E+00 -0.00000000000E+00 -0.45593999997E+02  0.45594000000E+02  0.51100000000E-03 0. -1.
    9900012    2    1    2    0    0 -0.35123590813E+02  0.45685385411E+01  0.27831191420E+02  0.46142318832E+02  0.10000009765E+02 0.  0.
         12    1    1    2    0    0  0.35123590813E+02 -0.45685385411E+01 -0.27831191420E+02  0.45045681168E+02  0.00000000000E+00 0. -1.
         11    1    3    3    0    0 -0.17671290469E+02  0.81842917858E+00  0.12018345746E+02  0.21386560451E+02  0.51100000000E-03 0. -1.
        -11    1    3    3    0    0 -0.13376769827E+02  0.13599256973E+01  0.80592926540E+01  0.15676082650E+02  0.51100000000E-03 0.  1.
         12    1    3    3    0    0 -0.40755305166E+01  0.23901836652E+01  0.77535530201E+01  0.90796757311E+01  0.00000000000E+00 0. -1.
</event>
<event>
 7    1  0.2243370E-008  0.4614232E+02  0.7816164E-02  0.1320468E+00
        -11   -1    0    0    0    0  0.00000000000E+00  0.00000000000E+00  0.45593999997E+02  0.45594000000E+02  0.51100000000E-03 0.  1.
         11   -1    0    0    0    0 -0.00000000000E+00 -0.00000000000E+00 -0.45593999997E+02  0.45594000000E+02  0.51100000000E-03 0. -1.
    9900012    2    1    2    0    0 -0.35013025120E+02  0.12228383329E+02  0.25566936065E+02  0.46142317558E+02  0.99999981487E+01 0.  0.
         12    1    1    2    0    0  0.35013025120E+02 -0.12228383329E+02 -0.25566936065E+02  0.45045682442E+02  0.00000000000E+00 0. -1.
         11    1    3    3    0    0 -0.22783434789E+02  0.61479643665E+01  0.11983157353E+02  0.26466552987E+02  0.51100000000E-03 0.  1.
        -11    1    3    3    0    0 -0.53552659845E+01  0.77213494377E+00  0.39126782501E+01  0.66771339275E+01  0.51100000000E-03 0. -1.
         12    1    3    3    0    0 -0.68743243467E+01  0.53082840191E+01  0.96711004623E+01  0.12998630643E+02  0.00000000000E+00 0. -1.
</event>
<event>
 7    1  0.2243370E-008  0.4614232E+02  0.7816164E-02  0.1320468E+00
        -11   -1    0    0    0    0  0.00000000000E+00  0.00000000000E+00  0.45593999997E+02  0.45594000000E+02  0.51100000000E-03 0.  1.
         11   -1    0    0    0    0 -0.00000000000E+00 -0.00000000000E+00 -0.45593999997E+02  0.45594000000E+02  0.51100000000E-03 0. -1.
    9900012    2    1    2    0    0  0.18747835016E+02 -0.26685620274E+01  0.40871881590E+02  0.46142320454E+02  0.10000024555E+02 0.  0.
         12    1    1    2    0    0 -0.18747835016E+02  0.26685620274E+01 -0.40871881590E+02  0.45045679546E+02  0.00000000000E+00 0. -1.
         11    1    3    3    0    0  0.69886471846E+01  0.78387204880E+00  0.11903908654E+02  0.13826014840E+02  0.51100000000E-03 0. -1.
        -11    1    3    3    0    0  0.82661214966E+01 -0.26469151838E+01  0.26697644180E+02  0.28073103313E+02  0.51100000000E-03 0.  1.
        -12    1    3    3    0    0  0.34930663351E+01 -0.80551889236E+00  0.22703287556E+01  0.42432023009E+01  0.00000000000E+00 0.  1.
</event>
<event>
 7    1  0.2243370E-008  0.4614232E+02  0.7816164E-02  0.1320468E+00
        -11   -1    0    0    0    0  0.00000000000E+00  0.00000000000E+00  0.45593999997E+02  0.45594000000E+02  0.51100000000E-03 0. -1.
         11   -1    0    0    0    0 -0.00000000000E+00 -0.00000000000E+00 -0.45593999997E+02  0.45594000000E+02  0.51100000000E-03 0.  1.
    9900012    2    1    2    0    0  0.34100719920E+02  0.27813167938E+02 -0.96271639748E+01  0.46142315456E+02  0.99999789800E+01 0.  0.
         12    1    1    2    0    0 -0.34100719920E+02 -0.27813167938E+02  0.96271639748E+01  0.45045684544E+02  0.00000000000E+00 0. -1.
         11    1    3    3    0    0  0.71194176047E+01  0.41120803250E+01 -0.14335672085E+01  0.83456831255E+01  0.51100000000E-03 0. -1.
        -11    1    3    3    0    0  0.19666191663E+02  0.16867208636E+02 -0.19137484755E+01  0.25979304363E+02  0.51100000000E-03 0.  1.
         12    1    3    3    0    0  0.73151106527E+01  0.68338789769E+01 -0.62798482908E+01  0.11817327967E+02  0.00000000000E+00 0. -1.
</event>
<event>
 7    1  0.2243370E-008  0.4614232E+02  0.7816164E-02  0.1320468E+00
        -11   -1    0    0    0    0  0.00000000000E+00  0.00000000000E+00  0.45593999997E+02  0.45594000000E+02  0.51100000000E-03 0.  1.
         11   -1    0    0    0    0 -0.00000000000E+00 -0.00000000000E+00 -0.45593999997E+02  0.45594000000E+02  0.51100000000E-03 0. -1.
    9900012    2    1    2    0    0  0.33769301089E+02 -0.29809376614E+02 -0.38609106826E+00  0.46142315451E+02  0.99999789339E+01 0.  0.
         12    1    1    2    0    0 -0.33769301089E+02  0.29809376614E+02  0.38609106826E+00  0.45045684549E+02  0.00000000000E+00 0. -1.
         11    1    3    3    0    0  0.11316116557E+01 -0.10110181864E+01 -0.17275870332E+01  0.22994042556E+01  0.51100000000E-03 0. -1.
        -11    1    3    3    0    0  0.11163055475E+02 -0.10089629457E+02  0.28800763004E+01  0.15320224211E+02  0.51100000000E-03 0.  1.
         12    1    3    3    0    0  0.21474633958E+02 -0.18708728971E+02 -0.15385803355E+01  0.28522686984E+02  0.00000000000E+00 0. -1.
</event>
<event>
 7    1  0.2243370E-008  0.4614232E+02  0.7816164E-02  0.1320468E+00
        -11   -1    0    0    0    0  0.00000000000E+00  0.00000000000E+00  0.45593999997E+02  0.45594000000E+02  0.51100000000E-03 0. -1.
         11   -1    0    0    0    0 -0.00000000000E+00 -0.00000000000E+00 -0.45593999997E+02  0.45594000000E+02  0.51100000000E-03 0.  1.
    9900012    2    1    2    0    0 -0.39206274687E+02  0.11849479699E+02 -0.18750241875E+02  0.46142315253E+02  0.99999771247E+01 0.  0.
         12    1    1    2    0    0  0.39206274687E+02 -0.11849479699E+02  0.18750241875E+02  0.45045684747E+02  0.00000000000E+00 0. -1.
         11    1    3    3    0    0 -0.13091071430E+02  0.23572785931E+01 -0.37674568997E+01  0.13824856068E+02  0.51100000000E-03 0. -1.
        -11    1    3    3    0    0 -0.21211202021E+02  0.91087845294E+01 -0.95308032547E+01  0.24974412059E+02  0.51100000000E-03 0.  1.
        -12    1    3    3    0    0 -0.49040012365E+01  0.38341657692E+00 -0.54519817208E+01  0.73430471252E+01  0.00000000000E+00 0.  1.
</event>
<event>
 7    1  0.2243370E-008  0.4614232E+02  0.7816164E-02  0.1320468E+00
        -11   -1    0    0    0    0  0.00000000000E+00  0.00000000000E+00  0.45593999997E+02  0.45594000000E+02  0.51100000000E-03 0.  1.
         11   -1    0    0    0    0 -0.00000000000E+00 -0.00000000000E+00 -0.45593999997E+02  0.45594000000E+02  0.51100000000E-03 0. -1.
    9900012    2    1    2    0    0 -0.49732128169E+01  0.38310484110E+02  0.23166513968E+02  0.46142318654E+02  0.10000008144E+02 0.  0.
         12    1    1    2    0    0  0.49732128169E+01 -0.38310484110E+02 -0.23166513968E+02  0.45045681346E+02  0.00000000000E+00 0. -1.
         11    1    3    3    0    0 -0.55919298130E+01  0.17656129399E+02  0.87952389235E+01  0.20502800110E+02  0.51100000000E-03 0. -1.
        -11    1    3    3    0    0 -0.10032493792E+01  0.15546168667E+02  0.87283521267E+01  0.17857043447E+02  0.51100000000E-03 0.  1.
         12    1    3    3    0    0  0.16219663753E+01  0.51081860445E+01  0.56429229177E+01  0.77824750975E+01  0.00000000000E+00 0. -1.
</event>
<event>
 7    1  0.2243370E-008  0.4614232E+02  0.7816164E-02  0.1320468E+00
        -11   -1    0    0    0    0  0.00000000000E+00  0.00000000000E+00  0.45593999997E+02  0.45594000000E+02  0.51100000000E-03 0.  1.
         11   -1    0    0    0    0 -0.00000000000E+00 -0.00000000000E+00 -0.45593999997E+02  0.45594000000E+02  0.51100000000E-03 0. -1.
    9900012    2    1    2    0    0  0.21338367687E+02 -0.19023482916E+01  0.39625355002E+02  0.46142316260E+02  0.99999863143E+01 0.  0.
         12    1    1    2    0    0 -0.21338367687E+02  0.19023482916E+01 -0.39625355002E+02  0.45045683740E+02  0.00000000000E+00 0. -1.
         11    1    3    3    0    0  0.13834495260E+02  0.16112947001E+01  0.22523891632E+02  0.26482356848E+02  0.51100000000E-03 0.  1.
        -11    1    3    3    0    0  0.50510130833E+00 -0.65886535560E-01  0.63797816759E+01  0.64000845979E+01  0.51100000000E-03 0. -1.
         12    1    3    3    0    0  0.69987711185E+01 -0.34477564562E+01  0.10721681694E+02  0.13259874815E+02  0.00000000000E+00 0. -1.
</event>
<event>
 7    1  0.2243370E-008  0.4614231E+02  0.7816164E-02  0.1320468E+00
        -11   -1    0    0    0    0  0.00000000000E+00  0.00000000000E+00  0.45593999997E+02  0.45594000000E+02  0.51100000000E-03 0.  1.
         11   -1    0    0    0    0 -0.00000000000E+00 -0.00000000000E+00 -0.45593999997E+02  0.45594000000E+02  0.51100000000E-03 0. -1.
    9900012    2    1    2    0    0 -0.16592606256E+02  0.29389635864E+00  0.41877360731E+02  0.46142308760E+02  0.99999179237E+01 0.  0.
         12    1    1    2    0    0  0.16592606256E+02 -0.29389635864E+00 -0.41877360731E+02  0.45045691240E+02  0.00000000000E+00 0. -1.
         11    1    3    3    0    0 -0.12975176316E+02  0.12183357851E+00  0.25267862810E+02  0.28404839994E+02  0.51100000000E-03 0. -1.
        -11    1    3    3    0    0 -0.32819014090E+01 -0.10652053679E+01  0.15904434969E+02  0.16274415236E+02  0.51100000000E-03 0.  1.
         12    1    3    3    0    0 -0.33552853123E+00  0.12372681480E+01  0.70506295241E+00  0.14630535302E+01  0.00000000000E+00 0. -1.
</event>
<event>
 7    1  0.2243370E-008  0.4614232E+02  0.7816164E-02  0.1320468E+00
        -11   -1    0    0    0    0  0.00000000000E+00  0.00000000000E+00  0.45593999997E+02  0.45594000000E+02  0.51100000000E-03 0.  1.
         11   -1    0    0    0    0 -0.00000000000E+00 -0.00000000000E+00 -0.45593999997E+02  0.45594000000E+02  0.51100000000E-03 0. -1.
    9900012    2    1    2    0    0 -0.51962011162E+00  0.58509512944E+01  0.44661054799E+02  0.46142318166E+02  0.10000003691E+02 0.  0.
         12    1    1    2    0    0  0.51962011162E+00 -0.58509512944E+01 -0.44661054799E+02  0.45045681834E+02  0.00000000000E+00 0. -1.
         11    1    3    3    0    0  0.23940789703E+01  0.38532827664E+01  0.10408042562E+02  0.11353710954E+02  0.51100000000E-03 0. -1.
        -11    1    3    3    0    0  0.10346418343E+01 -0.76783357190E-01  0.22669060215E+01  0.24930388245E+01  0.51100000000E-03 0.  1.
        -12    1    3    3    0    0 -0.39483409161E+01  0.20744518852E+01  0.31986106215E+02  0.32295568387E+02  0.00000000000E+00 0.  1.
</event>
<event>
 7    1  0.2243370E-008  0.4614232E+02  0.7816164E-02  0.1320468E+00
        -11   -1    0    0    0    0  0.00000000000E+00  0.00000000000E+00  0.45593999997E+02  0.45594000000E+02  0.51100000000E-03 0.  1.
         11   -1    0    0    0    0 -0.00000000000E+00 -0.00000000000E+00 -0.45593999997E+02  0.45594000000E+02  0.51100000000E-03 0. -1.
    9900012    2    1    2    0    0  0.36735802011E+02  0.23839504571E+02  0.10548574374E+02  0.46142317089E+02  0.99999938687E+01 0.  0.
         12    1    1    2    0    0 -0.36735802011E+02 -0.23839504571E+02 -0.10548574374E+02  0.45045682911E+02  0.00000000000E+00 0. -1.
         11    1    3    3    0    0  0.22283477838E+01  0.33349356637E+01  0.13467250135E+01  0.42309571317E+01  0.51100000000E-03 0. -1.
        -11    1    3    3    0    0  0.22014914608E+02  0.10029797783E+02  0.26331319132E+01  0.24334886330E+02  0.51100000000E-03 0.  1.
        -12    1    3    3    0    0  0.12492539619E+02  0.10474771125E+02  0.65687174468E+01  0.17576473627E+02  0.00000000000E+00 0.  1.
</event>
<event>
 7    1  0.2243370E-008  0.4614232E+02  0.7816164E-02  0.1320468E+00
        -11   -1    0    0    0    0  0.00000000000E+00  0.00000000000E+00  0.45593999997E+02  0.45594000000E+02  0.51100000000E-03 0.  1.
         11   -1    0    0    0    0 -0.00000000000E+00 -0.00000000000E+00 -0.45593999997E+02  0.45594000000E+02  0.51100000000E-03 0. -1.
    9900012    2    1    2    0    0 -0.95198232980E+01  0.13733314750E+02  0.41831598162E+02  0.46142316806E+02  0.99999912919E+01 0.  0.
         12    1    1    2    0    0  0.95198232980E+01 -0.13733314750E+02 -0.41831598162E+02  0.45045683194E+02  0.00000000000E+00 0. -1.
         11    1    3    3    0    0 -0.14346414788E+01  0.26525531902E+01  0.10768231337E+02  0.11182532852E+02  0.51100000000E-03 0. -1.
        -11    1    3    3    0    0 -0.36227918704E+01  0.10438637443E+02  0.17794985089E+02  0.20946390314E+02  0.51100000000E-03 0.  1.
         12    1    3    3    0    0 -0.44623899488E+01  0.64212411695E+00  0.13268381735E+02  0.14013393640E+02  0.00000000000E+00 0. -1.
</event>
<event>
 7    1  0.2243370E-008  0.4614232E+02  0.7816164E-02  0.1320468E+00
        -11   -1    0    0    0    0  0.00000000000E+00  0.00000000000E+00  0.45593999997E+02  0.45594000000E+02  0.51100000000E-03 0. -1.
         11   -1    0    0    0    0 -0.00000000000E+00 -0.00000000000E+00 -0.45593999997E+02  0.45594000000E+02  0.51100000000E-03 0.  1.
    9900012    2    1    2    0    0 -0.44856009692E+02 -0.39958680658E+01 -0.10415924786E+01  0.46142317832E+02  0.10000000642E+02 0.  0.
         12    1    1    2    0    0  0.44856009692E+02  0.39958680658E+01  0.10415924786E+01  0.45045682168E+02  0.00000000000E+00 0. -1.
         11    1    3    3    0    0  0.32824709088E+00 -0.39153070640E+00 -0.51163071010E+00  0.72305510949E+00  0.51100000000E-03 0. -1.
        -11    1    3    3    0    0 -0.18979043156E+02 -0.76484673846E+00  0.95896965864E+00  0.19018640664E+02  0.51100000000E-03 0.  1.
         12    1    3    3    0    0 -0.26205213627E+02 -0.28394906209E+01 -0.14889314271E+01  0.26400622058E+02  0.00000000000E+00 0. -1.
</event>
<event>
 7    1  0.2243370E-008  0.4614232E+02  0.7816164E-02  0.1320468E+00
        -11   -1    0    0    0    0  0.00000000000E+00  0.00000000000E+00  0.45593999997E+02  0.45594000000E+02  0.51100000000E-03 0.  1.
         11   -1    0    0    0    0 -0.00000000000E+00 -0.00000000000E+00 -0.45593999997E+02  0.45594000000E+02  0.51100000000E-03 0. -1.
    9900012    2    1    2    0    0 -0.34432093229E+02  0.90905839564E+01  0.27584520017E+02  0.46142317572E+02  0.99999982776E+01 0.  0.
         12    1    1    2    0    0  0.34432093229E+02 -0.90905839564E+01 -0.27584520017E+02  0.45045682428E+02  0.00000000000E+00 0. -1.
         11    1    3    3    0    0 -0.23335172085E+02  0.84088081975E+01  0.16808319056E+02  0.29962608386E+02  0.51100000000E-03 0. -1.
        -11    1    3    3    0    0 -0.10517007614E+02  0.17542800622E+01  0.86545152957E+01  0.13732646611E+02  0.51100000000E-03 0.  1.
        -12    1    3    3    0    0 -0.57991353029E+00 -0.10725043033E+01  0.21216856653E+01  0.24470625749E+01  0.00000000000E+00 0.  1.
</event>
<event>
 7    1  0.2243370E-008  0.4614232E+02  0.7816164E-02  0.1320468E+00
        -11   -1    0    0    0    0  0.00000000000E+00  0.00000000000E+00  0.45593999997E+02  0.45594000000E+02  0.51100000000E-03 0.  1.
         11   -1    0    0    0    0 -0.00000000000E+00 -0.00000000000E+00 -0.45593999997E+02  0.45594000000E+02  0.51100000000E-03 0. -1.
    9900012    2    1    2    0    0 -0.91362814878E+01 -0.30127340607E+02  0.32217777266E+02  0.46142318038E+02  0.10000002524E+02 0.  0.
         12    1    1    2    0    0  0.91362814878E+01  0.30127340607E+02 -0.32217777266E+02  0.45045681962E+02  0.00000000000E+00 0. -1.
         11    1    3    3    0    0 -0.46631446371E+01 -0.11789763237E+02  0.14409750099E+02  0.19193340857E+02  0.51100000000E-03 0. -1.
        -11    1    3    3    0    0 -0.52141651075E+01 -0.17781503592E+02  0.18171951216E+02  0.25953597034E+02  0.51100000000E-03 0.  1.
         12    1    3    3    0    0  0.74102825682E+00 -0.55607377746E+00 -0.36392404805E+00  0.99538014654E+00  0.00000000000E+00 0. -1.
</event>
<event>
 7    1  0.2243370E-008  0.4614232E+02  0.7816164E-02  0.1320468E+00
        -11   -1    0    0    0    0  0.00000000000E+00  0.00000000000E+00  0.45593999997E+02  0.45594000000E+02  0.51100000000E-03 0. -1.
         11   -1    0    0    0    0 -0.00000000000E+00 -0.00000000000E+00 -0.45593999997E+02  0.45594000000E+02  0.51100000000E-03 0.  1.
    9900012    2    1    2    0    0 -0.42796875462E+02  0.13644571967E+02  0.33714346767E+01  0.46142318018E+02  0.10000002344E+02 0.  0.
         12    1    1    2    0    0  0.42796875462E+02 -0.13644571967E+02 -0.33714346767E+01  0.45045681982E+02  0.00000000000E+00 0. -1.
         11    1    3    3    0    0 -0.93660860503E+01  0.18797587966E+00  0.12268367190E+01  0.94479644066E+01  0.51100000000E-03 0. -1.
        -11    1    3    3    0    0 -0.18569709115E+02  0.41000580376E+01  0.21048607908E+01  0.19133086833E+02  0.51100000000E-03 0.  1.
        -12    1    3    3    0    0 -0.14861080296E+02  0.93565380494E+01  0.39737166950E-01  0.17561266779E+02  0.00000000000E+00 0.  1.
</event>
<event>
 7    1  0.2243370E-008  0.4614232E+02  0.7816164E-02  0.1320468E+00
        -11   -1    0    0    0    0  0.00000000000E+00  0.00000000000E+00  0.45593999997E+02  0.45594000000E+02  0.51100000000E-03 0. -1.
         11   -1    0    0    0    0 -0.00000000000E+00 -0.00000000000E+00 -0.45593999997E+02  0.45594000000E+02  0.51100000000E-03 0.  1.
    9900012    2    1    2    0    0  0.21585088599E+02 -0.36604786897E+02 -0.14942790511E+02  0.46142318055E+02  0.10000002681E+02 0.  0.
         12    1    1    2    0    0 -0.21585088599E+02  0.36604786897E+02  0.14942790511E+02  0.45045681945E+02  0.00000000000E+00 0. -1.
         11    1    3    3    0    0  0.10805078718E+02 -0.10641383631E+02 -0.80937976590E+01  0.17190064935E+02  0.51100000000E-03 0. -1.
        -11    1    3    3    0    0  0.47160835741E+01 -0.12643083903E+02 -0.33949361750E+01  0.13914546588E+02  0.51100000000E-03 0.  1.
         12    1    3    3    0    0  0.60639263071E+01 -0.13320319364E+02 -0.34540566768E+01  0.15037706532E+02  0.00000000000E+00 0. -1.
</event>
<event>
 7    1  0.2243370E-008  0.4614232E+02  0.7816164E-02  0.1320468E+00
        -11   -1    0    0    0    0  0.00000000000E+00  0.00000000000E+00  0.45593999997E+02  0.45594000000E+02  0.51100000000E-03 0. -1.
         11   -1    0    0    0    0 -0.00000000000E+00 -0.00000000000E+00 -0.45593999997E+02  0.45594000000E+02  0.51100000000E-03 0.  1.
    9900012    2    1    2    0    0 -0.23904409876E+02 -0.28323634217E+02 -0.25602040694E+02  0.46142317027E+02  0.99999933099E+01 0.  0.
         12    1    1    2    0    0  0.23904409876E+02  0.28323634217E+02  0.25602040694E+02  0.45045682973E+02  0.00000000000E+00 0. -1.
         11    1    3    3    0    0 -0.83623087423E+01 -0.13470594170E+02 -0.80702419423E+01  0.17790838094E+02  0.51100000000E-03 0. -1.
        -11    1    3    3    0    0 -0.34340003770E+01 -0.69156600700E+01 -0.72740773790E+01  0.10608058954E+02  0.51100000000E-03 0.  1.
         12    1    3    3    0    0 -0.12108100757E+02 -0.79373799765E+01 -0.10257721373E+02  0.17743419980E+02  0.00000000000E+00 0. -1.
</event>
<event>
 7    1  0.2243370E-008  0.4614232E+02  0.7816164E-02  0.1320468E+00
        -11   -1    0    0    0    0  0.00000000000E+00  0.00000000000E+00  0.45593999997E+02  0.45594000000E+02  0.51100000000E-03 0. -1.
         11   -1    0    0    0    0 -0.00000000000E+00 -0.00000000000E+00 -0.45593999997E+02  0.45594000000E+02  0.51100000000E-03 0.  1.
    9900012    2    1    2    0    0 -0.57046552620E+01  0.16322430431E+02 -0.41595054827E+02  0.46142318599E+02  0.10000007637E+02 0.  0.
         12    1    1    2    0    0  0.57046552620E+01 -0.16322430431E+02  0.41595054827E+02  0.45045681401E+02  0.00000000000E+00 0. -1.
         11    1    3    3    0    0  0.13703018491E+01  0.36079634581E+01 -0.55904568162E+01  0.67932565936E+01  0.51100000000E-03 0. -1.
        -11    1    3    3    0    0 -0.65422349488E+01  0.11106994403E+02 -0.24157844077E+02  0.27381884403E+02  0.51100000000E-03 0.  1.
        -12    1    3    3    0    0 -0.53272216230E+00  0.16074725700E+01 -0.11846753934E+02  0.11967177602E+02  0.00000000000E+00 0.  1.
</event>
<event>
 7    1  0.2243370E-008  0.4614232E+02  0.7816164E-02  0.1320468E+00
        -11   -1    0    0    0    0  0.00000000000E+00  0.00000000000E+00  0.45593999997E+02  0.45594000000E+02  0.51100000000E-03 0.  1.
         11   -1    0    0    0    0 -0.00000000000E+00 -0.00000000000E+00 -0.45593999997E+02  0.45594000000E+02  0.51100000000E-03 0. -1.
    9900012    2    1    2    0    0 -0.13527940058E+02  0.42179032071E+02  0.81876507844E+01  0.46142317255E+02  0.99999953813E+01 0.  0.
         12    1    1    2    0    0  0.13527940058E+02 -0.42179032071E+02 -0.81876507844E+01  0.45045682745E+02  0.00000000000E+00 0. -1.
         11    1    3    3    0    0 -0.93868420038E+01  0.14872037676E+02  0.39874118309E+01  0.18033018627E+02  0.51100000000E-03 0. -1.
        -11    1    3    3    0    0 -0.34623950123E+01  0.12536463556E+02  0.18064124697E+01  0.13130659693E+02  0.51100000000E-03 0.  1.
        -12    1    3    3    0    0 -0.67870304160E+00  0.14770530839E+02  0.23938264838E+01  0.14978638935E+02  0.00000000000E+00 0.  1.
</event>
<event>
 7    1  0.2243370E-008  0.4614232E+02  0.7816164E-02  0.1320468E+00
        -11   -1    0    0    0    0  0.00000000000E+00  0.00000000000E+00  0.45593999997E+02  0.45594000000E+02  0.51100000000E-03 0.  1.
         11   -1    0    0    0    0 -0.00000000000E+00 -0.00000000000E+00 -0.45593999997E+02  0.45594000000E+02  0.51100000000E-03 0. -1.
    9900012    2    1    2    0    0 -0.27512599345E+02  0.61329552030E+01  0.35136265971E+02  0.46142318202E+02  0.10000004024E+02 0.  0.
         12    1    1    2    0    0  0.27512599345E+02 -0.61329552030E+01 -0.35136265971E+02  0.45045681798E+02  0.00000000000E+00 0. -1.
         11    1    3    3    0    0 -0.68386448750E+01  0.39514169165E+01  0.55631185488E+01  0.96606960217E+01  0.51100000000E-03 0. -1.
        -11    1    3    3    0    0 -0.55065918495E+01 -0.15683873264E+01  0.73877305371E+01  0.93467082629E+01  0.51100000000E-03 0.  1.
        -12    1    3    3    0    0 -0.15167362621E+02  0.37499256128E+01  0.22185416885E+02  0.27134913918E+02  0.00000000000E+00 0.  1.
</event>
<event>
 7    1  0.2243370E-008  0.4614232E+02  0.7816164E-02  0.1320468E+00
        -11   -1    0    0    0    0  0.00000000000E+00  0.00000000000E+00  0.45593999997E+02  0.45594000000E+02  0.51100000000E-03 0.  1.
         11   -1    0    0    0    0 -0.00000000000E+00 -0.00000000000E+00 -0.45593999997E+02  0.45594000000E+02  0.51100000000E-03 0. -1.
    9900012    2    1    2    0    0  0.44330172798E+02  0.24778525155E+01  0.76032412613E+01  0.46142320395E+02  0.10000024020E+02 0.  0.
         12    1    1    2    0    0 -0.44330172798E+02 -0.24778525155E+01 -0.76032412613E+01  0.45045679605E+02  0.00000000000E+00 0. -1.
         11    1    3    3    0    0 -0.36738788435E+00 -0.21792151452E+00  0.17149874059E+00  0.46029960157E+00  0.51100000000E-03 0. -1.
        -11    1    3    3    0    0  0.13407182708E+02 -0.13612248266E+01  0.12918293782E+01  0.13537884051E+02  0.51100000000E-03 0.  1.
         12    1    3    3    0    0  0.31290377975E+02  0.40569988566E+01  0.61399131425E+01  0.32144136742E+02  0.00000000000E+00 0. -1.
</event>
<event>
 7    1  0.2243370E-008  0.4614232E+02  0.7816164E-02  0.1320468E+00
        -11   -1    0    0    0    0  0.00000000000E+00  0.00000000000E+00  0.45593999997E+02  0.45594000000E+02  0.51100000000E-03 0. -1.
         11   -1    0    0    0    0 -0.00000000000E+00 -0.00000000000E+00 -0.45593999997E+02  0.45594000000E+02  0.51100000000E-03 0.  1.
    9900012    2    1    2    0    0  0.34510939093E+02 -0.14584998612E+02 -0.25007725686E+02  0.46142318236E+02  0.10000004334E+02 0.  0.
         12    1    1    2    0    0 -0.34510939093E+02  0.14584998612E+02  0.25007725686E+02  0.45045681764E+02  0.00000000000E+00 0. -1.
         11    1    3    3    0    0  0.23429530489E+01 -0.16696674475E+01 -0.40392415027E+00  0.29052320656E+01  0.51100000000E-03 0. -1.
        -11    1    3    3    0    0  0.15347828343E+02 -0.24932188012E+01 -0.13216736532E+02  0.20407207052E+02  0.51100000000E-03 0.  1.
        -12    1    3    3    0    0  0.16820157701E+02 -0.10422112363E+02 -0.11387065003E+02  0.22829879119E+02  0.00000000000E+00 0.  1.
</event>
<event>
 7    1  0.2243370E-008  0.4614231E+02  0.7816164E-02  0.1320468E+00
        -11   -1    0    0    0    0  0.00000000000E+00  0.00000000000E+00  0.45593999997E+02  0.45594000000E+02  0.51100000000E-03 0. -1.
         11   -1    0    0    0    0 -0.00000000000E+00 -0.00000000000E+00 -0.45593999997E+02  0.45594000000E+02  0.51100000000E-03 0.  1.
    9900012    2    1    2    0    0  0.13706916875E+02 -0.96032674077E+01 -0.41821184029E+02  0.46142314872E+02  0.99999736509E+01 0.  0.
         12    1    1    2    0    0 -0.13706916875E+02  0.96032674077E+01  0.41821184029E+02  0.45045685128E+02  0.00000000000E+00 0. -1.
         11    1    3    3    0    0  0.13385547186E+01 -0.38209904864E+01 -0.86555030758E+01  0.95555968306E+01  0.51100000000E-03 0. -1.
        -11    1    3    3    0    0  0.96520154130E+01 -0.72881215694E+01 -0.28728417296E+02  0.31170500127E+02  0.51100000000E-03 0.  1.
         12    1    3    3    0    0  0.27163467437E+01  0.15058446481E+01 -0.44372636564E+01  0.54162179141E+01  0.00000000000E+00 0. -1.
</event>
<event>
 7    1  0.2243370E-008  0.4614232E+02  0.7816164E-02  0.1320468E+00
        -11   -1    0    0    0    0  0.00000000000E+00  0.00000000000E+00  0.45593999997E+02  0.45594000000E+02  0.51100000000E-03 0.  1.
         11   -1    0    0    0    0 -0.00000000000E+00 -0.00000000000E+00 -0.45593999997E+02  0.45594000000E+02  0.51100000000E-03 0. -1.
    9900012    2    1    2    0    0 -0.26642333260E+02 -0.14542972949E+02  0.33283654070E+02  0.46142316389E+02  0.99999874878E+01 0.  0.
         12    1    1    2    0    0  0.26642333260E+02  0.14542972949E+02 -0.33283654070E+02  0.45045683611E+02  0.00000000000E+00 0. -1.
         11    1    3    3    0    0 -0.63371143112E+01 -0.33133910612E+01  0.56319296125E+01  0.91025386315E+01  0.51100000000E-03 0. -1.
        -11    1    3    3    0    0 -0.13348974282E+02 -0.31352421203E+01  0.12855425663E+02  0.18795925802E+02  0.51100000000E-03 0.  1.
         12    1    3    3    0    0 -0.69562446668E+01 -0.80943397670E+01  0.14796298795E+02  0.18243851955E+02  0.00000000000E+00 0. -1.
</event>
<event>
 7    1  0.2243370E-008  0.4614232E+02  0.7816164E-02  0.1320468E+00
        -11   -1    0    0    0    0  0.00000000000E+00  0.00000000000E+00  0.45593999997E+02  0.45594000000E+02  0.51100000000E-03 0.  1.
         11   -1    0    0    0    0 -0.00000000000E+00 -0.00000000000E+00 -0.45593999997E+02  0.45594000000E+02  0.51100000000E-03 0. -1.
    9900012    2    1    2    0    0 -0.18460116010E+02  0.41049200971E+02  0.18167881113E+01  0.46142317604E+02  0.99999985650E+01 0.  0.
         12    1    1    2    0    0  0.18460116010E+02 -0.41049200971E+02 -0.18167881113E+01  0.45045682396E+02  0.00000000000E+00 0. -1.
         11    1    3    3    0    0 -0.26662575845E+01  0.66814306883E+01  0.69768541671E-01  0.71941165865E+01  0.51100000000E-03 0. -1.
        -11    1    3    3    0    0 -0.15271899846E+02  0.24226817727E+02 -0.35112120711E-01  0.28638625232E+02  0.51100000000E-03 0.  1.
         12    1    3    3    0    0 -0.52195858022E+00  0.10140952556E+02  0.17821316904E+01  0.10309575785E+02  0.00000000000E+00 0. -1.
</event>
<event>
 7    1  0.2243370E-008  0.4614232E+02  0.7816164E-02  0.1320468E+00
        -11   -1    0    0    0    0  0.00000000000E+00  0.00000000000E+00  0.45593999997E+02  0.45594000000E+02  0.51100000000E-03 0.  1.
         11   -1    0    0    0    0 -0.00000000000E+00 -0.00000000000E+00 -0.45593999997E+02  0.45594000000E+02  0.51100000000E-03 0. -1.
    9900012    2    1    2    0    0  0.31396723243E+02 -0.95602112808E+01  0.30853876638E+02  0.46142316814E+02  0.99999913631E+01 0.  0.
         12    1    1    2    0    0 -0.31396723243E+02  0.95602112808E+01 -0.30853876638E+02  0.45045683186E+02  0.00000000000E+00 0. -1.
         11    1    3    3    0    0  0.12641958557E+02 -0.35022352200E+00  0.10227580284E+02  0.16264844647E+02  0.51100000000E-03 0. -1.
        -11    1    3    3    0    0  0.14673338014E+02 -0.44533371273E+01  0.15112603652E+02  0.21529743367E+02  0.51100000000E-03 0.  1.
        -12    1    3    3    0    0  0.40814266725E+01 -0.47566506316E+01  0.55136927021E+01  0.83477288005E+01  0.00000000000E+00 0.  1.
</event>
<event>
 7    1  0.2243370E-008  0.4614232E+02  0.7816164E-02  0.1320468E+00
        -11   -1    0    0    0    0  0.00000000000E+00  0.00000000000E+00  0.45593999997E+02  0.45594000000E+02  0.51100000000E-03 0.  1.
         11   -1    0    0    0    0 -0.00000000000E+00 -0.00000000000E+00 -0.45593999997E+02  0.45594000000E+02  0.51100000000E-03 0. -1.
    9900012    2    1    2    0    0 -0.33008518451E+02  0.19242716893E+02  0.23859353475E+02  0.46142321051E+02  0.10000029999E+02 0.  0.
         12    1    1    2    0    0  0.33008518451E+02 -0.19242716893E+02 -0.23859353475E+02  0.45045678949E+02  0.00000000000E+00 0. -1.
         11    1    3    3    0    0 -0.23695401760E+02  0.11054851885E+02  0.15208308700E+02  0.30248544900E+02  0.51100000000E-03 0. -1.
        -11    1    3    3    0    0 -0.76604986031E+01  0.83633105908E+01  0.61801307935E+01  0.12915967628E+02  0.51100000000E-03 0.  1.
         12    1    3    3    0    0 -0.16526180879E+01 -0.17544558328E+00  0.24709139814E+01  0.29778085232E+01  0.00000000000E+00 0. -1.
</event>
<event>
 7    1  0.2243370E-008  0.4614232E+02  0.7816164E-02  0.1320468E+00
        -11   -1    0    0    0    0  0.00000000000E+00  0.00000000000E+00  0.45593999997E+02  0.45594000000E+02  0.51100000000E-03 0.  1.
         11   -1    0    0    0    0 -0.00000000000E+00 -0.00000000000E+00 -0.45593999997E+02  0.45594000000E+02  0.51100000000E-03 0. -1.
    9900012    2    1    2    0    0  0.24770510293E+02 -0.13218488979E+02  0.35225086934E+02  0.46142318958E+02  0.10000010917E+02 0.  0.
         12    1    1    2    0    0 -0.24770510293E+02  0.13218488979E+02 -0.35225086934E+02  0.45045681042E+02  0.00000000000E+00 0. -1.
         11    1    3    3    0    0  0.40836944261E+01 -0.29982052587E+01  0.10008895816E+02  0.11218011886E+02  0.51100000000E-03 0.  1.
        -11    1    3    3    0    0  0.24793875787E+01 -0.43495832827E+01  0.59020894934E+01  0.77395670517E+01  0.51100000000E-03 0. -1.
        -12    1    3    3    0    0  0.18207428288E+02 -0.58707004374E+01  0.19314101624E+02  0.27184740021E+02  0.00000000000E+00 0.  1.
</event>
<event>
 7    1  0.2243370E-008  0.4614232E+02  0.7816164E-02  0.1320468E+00
        -11   -1    0    0    0    0  0.00000000000E+00  0.00000000000E+00  0.45593999997E+02  0.45594000000E+02  0.51100000000E-03 0.  1.
         11   -1    0    0    0    0 -0.00000000000E+00 -0.00000000000E+00 -0.45593999997E+02  0.45594000000E+02  0.51100000000E-03 0. -1.
    9900012    2    1    2    0    0 -0.24739775409E+02 -0.80352590827E+01  0.36776236975E+02  0.46142317833E+02  0.10000000656E+02 0.  0.
         12    1    1    2    0    0  0.24739775409E+02  0.80352590827E+01 -0.36776236975E+02  0.45045682167E+02  0.00000000000E+00 0. -1.
         11    1    3    3    0    0  0.83785414450E-01 -0.10055383052E+01  0.23691139341E+01  0.25750394895E+01  0.51100000000E-03 0. -1.
        -11    1    3    3    0    0 -0.87153344246E+01 -0.52698514014E+01  0.10018770128E+02  0.14286502128E+02  0.51100000000E-03 0.  1.
        -12    1    3    3    0    0 -0.16108226399E+02 -0.17598693761E+01  0.24388352913E+02  0.29280776215E+02  0.00000000000E+00 0.  1.
</event>
<event>
 7    1  0.2243370E-008  0.4614232E+02  0.7816164E-02  0.1320468E+00
        -11   -1    0    0    0    0  0.00000000000E+00  0.00000000000E+00  0.45593999997E+02  0.45594000000E+02  0.51100000000E-03 0. -1.
         11   -1    0    0    0    0 -0.00000000000E+00 -0.00000000000E+00 -0.45593999997E+02  0.45594000000E+02  0.51100000000E-03 0.  1.
    9900012    2    1    2    0    0  0.25872523282E+02  0.36642351392E+02  0.41308847736E+01  0.46142316683E+02  0.99999901705E+01 0.  0.
         12    1    1    2    0    0 -0.25872523282E+02 -0.36642351392E+02 -0.41308847736E+01  0.45045683317E+02  0.00000000000E+00 0. -1.
         11    1    3    3    0    0  0.68844561250E+01  0.87299609607E+01 -0.14062552274E+01  0.11206494034E+02  0.51100000000E-03 0. -1.
        -11    1    3    3    0    0  0.12248098807E+02  0.20185580075E+02  0.75708910852E+00  0.23623013176E+02  0.51100000000E-03 0.  1.
         12    1    3    3    0    0  0.67399683501E+01  0.77268103563E+01  0.47800508925E+01  0.11312809473E+02  0.00000000000E+00 0. -1.
</event>
<event>
 7    1  0.2243370E-008  0.4614232E+02  0.7816164E-02  0.1320468E+00
        -11   -1    0    0    0    0  0.00000000000E+00  0.00000000000E+00  0.45593999997E+02  0.45594000000E+02  0.51100000000E-03 0.  1.
         11   -1    0    0    0    0 -0.00000000000E+00 -0.00000000000E+00 -0.45593999997E+02  0.45594000000E+02  0.51100000000E-03 0. -1.
    9900012    2    1    2    0    0  0.16369732948E+02  0.41848767832E+02  0.31346769075E+01  0.46142315133E+02  0.99999760337E+01 0.  0.
         12    1    1    2    0    0 -0.16369732948E+02 -0.41848767832E+02 -0.31346769075E+01  0.45045684867E+02  0.00000000000E+00 0. -1.
         11    1    3    3    0    0  0.49234763566E+01  0.85823391805E+01 -0.12830695355E+01  0.99771455305E+01  0.51100000000E-03 0. -1.
        -11    1    3    3    0    0  0.65154604809E+01  0.89384522078E+01  0.17687154927E+01  0.11201585062E+02  0.51100000000E-03 0.  1.
         12    1    3    3    0    0  0.49307961106E+01  0.24327976444E+02  0.26490309503E+01  0.24963584540E+02  0.00000000000E+00 0. -1.
</event>
<event>
 7    1  0.2243370E-008  0.4614232E+02  0.7816164E-02  0.1320468E+00
        -11   -1    0    0    0    0  0.00000000000E+00  0.00000000000E+00  0.45593999997E+02  0.45594000000E+02  0.51100000000E-03 0.  1.
         11   -1    0    0    0    0 -0.00000000000E+00 -0.00000000000E+00 -0.45593999997E+02  0.45594000000E+02  0.51100000000E-03 0. -1.
    9900012    2    1    2    0    0  0.29932840968E+02  0.27475698273E+02  0.19447994642E+02  0.46142318081E+02  0.10000002918E+02 0.  0.
         12    1    1    2    0    0 -0.29932840968E+02 -0.27475698273E+02 -0.19447994642E+02  0.45045681919E+02  0.00000000000E+00 0. -1.
         11    1    3    3    0    0  0.13420213969E+01  0.37130649901E+01  0.43482912242E+01  0.58732878256E+01  0.51100000000E-03 0. -1.
        -11    1    3    3    0    0  0.24591476965E+02  0.21286442574E+02  0.12167454005E+02  0.34726075419E+02  0.51100000000E-03 0.  1.
         12    1    3    3    0    0  0.39993426058E+01  0.24761907079E+01  0.29322494125E+01  0.55429548363E+01  0.00000000000E+00 0. -1.
</event>
<event>
 7    1  0.2243370E-008  0.4614232E+02  0.7816164E-02  0.1320468E+00
        -11   -1    0    0    0    0  0.00000000000E+00  0.00000000000E+00  0.45593999997E+02  0.45594000000E+02  0.51100000000E-03 0.  1.
         11   -1    0    0    0    0 -0.00000000000E+00 -0.00000000000E+00 -0.45593999997E+02  0.45594000000E+02  0.51100000000E-03 0. -1.
    9900012    2    1    2    0    0 -0.10992489753E+02  0.88225412106E+01  0.42783658453E+02  0.46142317687E+02  0.99999993247E+01 0.  0.
         12    1    1    2    0    0  0.10992489753E+02 -0.88225412106E+01 -0.42783658453E+02  0.45045682313E+02  0.00000000000E+00 0. -1.
         11    1    3    3    0    0 -0.50500409906E+01  0.89110025969E+00  0.10732193091E+02  0.11894408034E+02  0.51100000000E-03 0. -1.
        -11    1    3    3    0    0 -0.61165402306E+01  0.52529513796E+01  0.15413969801E+02  0.17395287519E+02  0.51100000000E-03 0.  1.
        -12    1    3    3    0    0  0.17409146837E+00  0.26784895713E+01  0.16637495562E+02  0.16852622134E+02  0.00000000000E+00 0.  1.
</event>
<event>
 7    1  0.2243370E-008  0.4614232E+02  0.7816164E-02  0.1320468E+00
        -11   -1    0    0    0    0  0.00000000000E+00  0.00000000000E+00  0.45593999997E+02  0.45594000000E+02  0.51100000000E-03 0. -1.
         11   -1    0    0    0    0 -0.00000000000E+00 -0.00000000000E+00 -0.45593999997E+02  0.45594000000E+02  0.51100000000E-03 0.  1.
    9900012    2    1    2    0    0 -0.35600835192E+02 -0.59120068747E+01 -0.26958157067E+02  0.46142317364E+02  0.99999963801E+01 0.  0.
         12    1    1    2    0    0  0.35600835192E+02  0.59120068747E+01  0.26958157067E+02  0.45045682636E+02  0.00000000000E+00 0. -1.
         11    1    3    3    0    0 -0.34791080705E+01 -0.22050750213E+01 -0.21674596281E+01  0.46545064525E+01  0.51100000000E-03 0. -1.
        -11    1    3    3    0    0 -0.29033445792E+02 -0.54861671263E+01 -0.23281162581E+02  0.37617170756E+02  0.51100000000E-03 0.  1.
        -12    1    3    3    0    0 -0.30882813297E+01  0.17792352730E+01 -0.15095348588E+01  0.38706401561E+01  0.00000000000E+00 0.  1.
</event>
<event>
 7    1  0.2243370E-008  0.4614231E+02  0.7816164E-02  0.1320468E+00
        -11   -1    0    0    0    0  0.00000000000E+00  0.00000000000E+00  0.45593999997E+02  0.45594000000E+02  0.51100000000E-03 0.  1.
         11   -1    0    0    0    0 -0.00000000000E+00 -0.00000000000E+00 -0.45593999997E+02  0.45594000000E+02  0.51100000000E-03 0. -1.
    9900012    2    1    2    0    0  0.53102106528E+00  0.30407229307E+02  0.33229992898E+02  0.46142312021E+02  0.99999476601E+01 0.  0.
         12    1    1    2    0    0 -0.53102106528E+00 -0.30407229307E+02 -0.33229992898E+02  0.45045687979E+02  0.00000000000E+00 0. -1.
         11    1    3    3    0    0 -0.35859176022E+00  0.73983077062E+01  0.32678808712E+01  0.80958378576E+01  0.51100000000E-03 0.  1.
        -11    1    3    3    0    0  0.10772779843E+01  0.67848174972E+01  0.60786573378E+01  0.91730230359E+01  0.51100000000E-03 0. -1.
        -12    1    3    3    0    0 -0.18766515877E+00  0.16224104104E+02  0.23883454688E+02  0.28873451128E+02  0.00000000000E+00 0.  1.
</event>
<event>
 7    1  0.2243370E-008  0.4614232E+02  0.7816164E-02  0.1320468E+00
        -11   -1    0    0    0    0  0.00000000000E+00  0.00000000000E+00  0.45593999997E+02  0.45594000000E+02  0.51100000000E-03 0.  1.
         11   -1    0    0    0    0 -0.00000000000E+00 -0.00000000000E+00 -0.45593999997E+02  0.45594000000E+02  0.51100000000E-03 0. -1.
    9900012    2    1    2    0    0 -0.35060406978E+02  0.28705879474E+00  0.28280719217E+02  0.46142316304E+02  0.99999867106E+01 0.  0.
         12    1    1    2    0    0  0.35060406978E+02 -0.28705879474E+00 -0.28280719217E+02  0.45045683696E+02  0.00000000000E+00 0. -1.
         11    1    3    3    0    0 -0.32121371120E+01 -0.92894201855E+00  0.16253852898E+01  0.37178805389E+01  0.51100000000E-03 0. -1.
        -11    1    3    3    0    0 -0.24176568357E+02 -0.27795587966E+01  0.20296029748E+02  0.31688503095E+02  0.51100000000E-03 0.  1.
         12    1    3    3    0    0 -0.76717015090E+01  0.39955596098E+01  0.63593041794E+01  0.10735932670E+02  0.00000000000E+00 0. -1.
</event>
<event>
 7    1  0.2243370E-008  0.4614232E+02  0.7816164E-02  0.1320468E+00
        -11   -1    0    0    0    0  0.00000000000E+00  0.00000000000E+00  0.45593999997E+02  0.45594000000E+02  0.51100000000E-03 0.  1.
         11   -1    0    0    0    0 -0.00000000000E+00 -0.00000000000E+00 -0.45593999997E+02  0.45594000000E+02  0.51100000000E-03 0. -1.
    9900012    2    1    2    0    0 -0.12909432918E+01  0.43284972135E+02  0.12403955715E+02  0.46142318024E+02  0.10000002394E+02 0.  0.
         12    1    1    2    0    0  0.12909432918E+01 -0.43284972135E+02 -0.12403955715E+02  0.45045681976E+02  0.00000000000E+00 0. -1.
         11    1    3    3    0    0 -0.67407078212E+00  0.12750369468E+02  0.75521077769E+01  0.14834440506E+02  0.51100000000E-03 0.  1.
        -11    1    3    3    0    0  0.19517222659E+01  0.91421904723E+01  0.21580982091E+01  0.95940739301E+01  0.51100000000E-03 0. -1.
         12    1    3    3    0    0 -0.25685947756E+01  0.21392412195E+02  0.26937497289E+01  0.21713803587E+02  0.00000000000E+00 0. -1.
</event>
<event>
 7    1  0.2243370E-008  0.4614232E+02  0.7816164E-02  0.1320468E+00
        -11   -1    0    0    0    0  0.00000000000E+00  0.00000000000E+00  0.45593999997E+02  0.45594000000E+02  0.51100000000E-03 0.  1.
         11   -1    0    0    0    0 -0.00000000000E+00 -0.00000000000E+00 -0.45593999997E+02  0.45594000000E+02  0.51100000000E-03 0. -1.
    9900012    2    1    2    0    0  0.26389792065E+02 -0.27610516400E+02 -0.23882038660E+02  0.46142317503E+02  0.99999976436E+01 0.  0.
         12    1    1    2    0    0 -0.26389792065E+02  0.27610516400E+02  0.23882038660E+02  0.45045682497E+02  0.00000000000E+00 0. -1.
         11    1    3    3    0    0  0.86908340516E+00 -0.23952562093E+01 -0.68771779633E+00  0.26392260801E+01  0.51100000000E-03 0. -1.
        -11    1    3    3    0    0  0.12062995951E+02 -0.10726527144E+02 -0.57561354975E+01  0.17137892286E+02  0.51100000000E-03 0.  1.
         12    1    3    3    0    0  0.13457712708E+02 -0.14488733047E+02 -0.17438185366E+02  0.26365199137E+02  0.00000000000E+00 0. -1.
</event>
<event>
 7    1  0.2243370E-008  0.4614232E+02  0.7816164E-02  0.1320468E+00
        -11   -1    0    0    0    0  0.00000000000E+00  0.00000000000E+00  0.45593999997E+02  0.45594000000E+02  0.51100000000E-03 0.  1.
         11   -1    0    0    0    0 -0.00000000000E+00 -0.00000000000E+00 -0.45593999997E+02  0.45594000000E+02  0.51100000000E-03 0. -1.
    9900012    2    1    2    0    0  0.23507230371E+02  0.45130490772E+01  0.38159608863E+02  0.46142320515E+02  0.10000025114E+02 0.  0.
         12    1    1    2    0    0 -0.23507230371E+02 -0.45130490772E+01 -0.38159608863E+02  0.45045679485E+02  0.00000000000E+00 0. -1.
         11    1    3    3    0    0  0.82464173479E+00  0.33004878596E+00 -0.41905138180E+00  0.98212550806E+00  0.51100000000E-03 0. -1.
        -11    1    3    3    0    0  0.12461072220E+02  0.28182027073E+01  0.25346555703E+02  0.28384299774E+02  0.51100000000E-03 0.  1.
        -12    1    3    3    0    0  0.10221516416E+02  0.13647975839E+01  0.13232104542E+02  0.16775895234E+02  0.00000000000E+00 0.  1.
</event>
<event>
 7    1  0.2243370E-008  0.4614232E+02  0.7816164E-02  0.1320468E+00
        -11   -1    0    0    0    0  0.00000000000E+00  0.00000000000E+00  0.45593999997E+02  0.45594000000E+02  0.51100000000E-03 0. -1.
         11   -1    0    0    0    0 -0.00000000000E+00 -0.00000000000E+00 -0.45593999997E+02  0.45594000000E+02  0.51100000000E-03 0.  1.
    9900012    2    1    2    0    0 -0.23171278891E+02 -0.30268699101E+02 -0.24000237196E+02  0.46142315454E+02  0.99999789652E+01 0.  0.
         12    1    1    2    0    0  0.23171278891E+02  0.30268699101E+02  0.24000237196E+02  0.45045684546E+02  0.00000000000E+00 0. -1.
         11    1    3    3    0    0 -0.72407357742E+01 -0.15597146553E+02 -0.92666928334E+01  0.19533838115E+02  0.51100000000E-03 0. -1.
        -11    1    3    3    0    0 -0.15277413813E+02 -0.14956450139E+02 -0.14584370257E+02  0.25880468111E+02  0.51100000000E-03 0.  1.
         12    1    3    3    0    0 -0.65312930304E+00  0.28489759090E+00 -0.14917410634E+00  0.72800922920E+00  0.00000000000E+00 0. -1.
</event>
<event>
 7    1  0.2243370E-008  0.4614232E+02  0.7816164E-02  0.1320468E+00
        -11   -1    0    0    0    0  0.00000000000E+00  0.00000000000E+00  0.45593999997E+02  0.45594000000E+02  0.51100000000E-03 0. -1.
         11   -1    0    0    0    0 -0.00000000000E+00 -0.00000000000E+00 -0.45593999997E+02  0.45594000000E+02  0.51100000000E-03 0.  1.
    9900012    2    1    2    0    0 -0.11607331436E+02 -0.22315334630E+02 -0.37368561130E+02  0.46142315815E+02  0.99999822556E+01 0.  0.
         12    1    1    2    0    0  0.11607331436E+02  0.22315334630E+02  0.37368561130E+02  0.45045684185E+02  0.00000000000E+00 0. -1.
         11    1    3    3    0    0  0.11347395048E+01 -0.20520294109E+01 -0.14852393094E+01  0.27756791087E+01  0.51100000000E-03 0. -1.
        -11    1    3    3    0    0 -0.37147467371E+00 -0.34708366588E+01 -0.48444866935E+01  0.59710762958E+01  0.51100000000E-03 0.  1.
         12    1    3    3    0    0 -0.12370596268E+02 -0.16792468560E+02 -0.31038835128E+02  0.37395560411E+02  0.00000000000E+00 0. -1.
</event>
<event>
 7    1  0.2243370E-008  0.4614232E+02  0.7816164E-02  0.1320468E+00
        -11   -1    0    0    0    0  0.00000000000E+00  0.00000000000E+00  0.45593999997E+02  0.45594000000E+02  0.51100000000E-03 0.  1.
         11   -1    0    0    0    0 -0.00000000000E+00 -0.00000000000E+00 -0.45593999997E+02  0.45594000000E+02  0.51100000000E-03 0. -1.
    9900012    2    1    2    0    0 -0.23119525019E+02  0.26600590140E+02  0.28053682543E+02  0.46142323880E+02  0.10000055796E+02 0.  0.
         12    1    1    2    0    0  0.23119525019E+02 -0.26600590140E+02 -0.28053682543E+02  0.45045676120E+02  0.00000000000E+00 0. -1.
         11    1    3    3    0    0 -0.56339237700E+01  0.44021980815E+01  0.22394278613E+01  0.74923616038E+01  0.51100000000E-03 0. -1.
        -11    1    3    3    0    0 -0.89418066972E+00  0.33498224575E+01  0.47102306373E+01  0.58486872446E+01  0.51100000000E-03 0.  1.
        -12    1    3    3    0    0 -0.16591420579E+02  0.18848569601E+02  0.21104024044E+02  0.32801275032E+02  0.00000000000E+00 0.  1.
</event>
<event>
 7    1  0.2243370E-008  0.4614232E+02  0.7816164E-02  0.1320468E+00
        -11   -1    0    0    0    0  0.00000000000E+00  0.00000000000E+00  0.45593999997E+02  0.45594000000E+02  0.51100000000E-03 0. -1.
         11   -1    0    0    0    0 -0.00000000000E+00 -0.00000000000E+00 -0.45593999997E+02  0.45594000000E+02  0.51100000000E-03 0.  1.
    9900012    2    1    2    0    0  0.37690739190E+02 -0.13629965123E+02 -0.20560776071E+02  0.46142320046E+02  0.10000020833E+02 0.  0.
         12    1    1    2    0    0 -0.37690739190E+02  0.13629965123E+02  0.20560776071E+02  0.45045679954E+02  0.00000000000E+00 0. -1.
         11    1    3    3    0    0  0.18231538340E+02 -0.50594067930E+01 -0.83716402902E+01  0.20689875514E+02  0.51100000000E-03 0. -1.
        -11    1    3    3    0    0  0.17050000568E+02 -0.89979617957E+01 -0.86029425943E+01  0.21111050598E+02  0.51100000000E-03 0.  1.
         12    1    3    3    0    0  0.24092002817E+01  0.42740346562E+00 -0.35861931861E+01  0.43413939337E+01  0.00000000000E+00 0. -1.
</event>
<event>
 7    1  0.2243370E-008  0.4614232E+02  0.7816164E-02  0.1320468E+00
        -11   -1    0    0    0    0  0.00000000000E+00  0.00000000000E+00  0.45593999997E+02  0.45594000000E+02  0.51100000000E-03 0. -1.
         11   -1    0    0    0    0 -0.00000000000E+00 -0.00000000000E+00 -0.45593999997E+02  0.45594000000E+02  0.51100000000E-03 0.  1.
    9900012    2    1    2    0    0  0.37043364083E+01 -0.36595883265E+02 -0.26002551846E+02  0.46142317825E+02  0.10000000578E+02 0.  0.
         12    1    1    2    0    0 -0.37043364083E+01  0.36595883265E+02  0.26002551846E+02  0.45045682175E+02  0.00000000000E+00 0. -1.
         11    1    3    3    0    0 -0.31824222442E+00 -0.59592341060E+01 -0.22369486927E+01  0.63732008409E+01  0.51100000000E-03 0. -1.
        -11    1    3    3    0    0  0.15380009979E+01 -0.23851631010E+01 -0.50405593339E+01  0.57846079165E+01  0.51100000000E-03 0.  1.
        -12    1    3    3    0    0  0.24845776349E+01 -0.28251486058E+02 -0.18725043820E+02  0.33984509067E+02  0.00000000000E+00 0.  1.
</event>
<event>
 7    1  0.2243370E-008  0.4614230E+02  0.7816164E-02  0.1320468E+00
        -11   -1    0    0    0    0  0.00000000000E+00  0.00000000000E+00  0.45593999997E+02  0.45594000000E+02  0.51100000000E-03 0.  1.
         11   -1    0    0    0    0 -0.00000000000E+00 -0.00000000000E+00 -0.45593999997E+02  0.45594000000E+02  0.51100000000E-03 0. -1.
    9900012    2    1    2    0    0  0.27816783999E+02 -0.12900029079E+02  0.32998948478E+02  0.46142302947E+02  0.99998649130E+01 0.  0.
         12    1    1    2    0    0 -0.27816783999E+02  0.12900029079E+02 -0.32998948478E+02  0.45045697053E+02  0.00000000000E+00 0. -1.
         11    1    3    3    0    0  0.94928144463E+00 -0.16901845140E+00 -0.48315937121E+00  0.10784923445E+01  0.51100000000E-03 0. -1.
        -11    1    3    3    0    0  0.42837742249E+01 -0.28211483044E+01  0.87113245626E+01  0.10109242071E+02  0.51100000000E-03 0.  1.
        -12    1    3    3    0    0  0.22583728330E+02 -0.99098623237E+01  0.24770783287E+02  0.34954568531E+02  0.00000000000E+00 0.  1.
</event>
<event>
 7    1  0.2243370E-008  0.4614232E+02  0.7816164E-02  0.1320468E+00
        -11   -1    0    0    0    0  0.00000000000E+00  0.00000000000E+00  0.45593999997E+02  0.45594000000E+02  0.51100000000E-03 0.  1.
         11   -1    0    0    0    0 -0.00000000000E+00 -0.00000000000E+00 -0.45593999997E+02  0.45594000000E+02  0.51100000000E-03 0. -1.
    9900012    2    1    2    0    0 -0.35834896481E+02  0.59836839783E+01  0.26630230628E+02  0.46142318042E+02  0.10000002565E+02 0.  0.
         12    1    1    2    0    0  0.35834896481E+02 -0.59836839783E+01 -0.26630230628E+02  0.45045681958E+02  0.00000000000E+00 0. -1.
         11    1    3    3    0    0 -0.10041553833E+02  0.53902675847E+01  0.93645075951E+01  0.14750653910E+02  0.51100000000E-03 0. -1.
        -11    1    3    3    0    0 -0.10354093140E+02  0.18727662066E+01  0.89218591732E+01  0.13795436542E+02  0.51100000000E-03 0.  1.
         12    1    3    3    0    0 -0.15439249508E+02 -0.12793498130E+01  0.83438638594E+01  0.17596227591E+02  0.00000000000E+00 0. -1.
</event>
<event>
 7    1  0.2243370E-008  0.4614232E+02  0.7816164E-02  0.1320468E+00
        -11   -1    0    0    0    0  0.00000000000E+00  0.00000000000E+00  0.45593999997E+02  0.45594000000E+02  0.51100000000E-03 0.  1.
         11   -1    0    0    0    0 -0.00000000000E+00 -0.00000000000E+00 -0.45593999997E+02  0.45594000000E+02  0.51100000000E-03 0. -1.
    9900012    2    1    2    0    0  0.20611342445E+02 -0.10086316436E+02  0.38762770487E+02  0.46142316606E+02  0.99999894646E+01 0.  0.
         12    1    1    2    0    0 -0.20611342445E+02  0.10086316436E+02 -0.38762770487E+02  0.45045683394E+02  0.00000000000E+00 0. -1.
         11    1    3    3    0    0  0.15342650995E+01 -0.41088831763E-01  0.66274788947E+01  0.68028769243E+01  0.51100000000E-03 0. -1.
        -11    1    3    3    0    0  0.15947468510E+02 -0.87169456529E+01  0.30641440358E+02  0.35625900141E+02  0.51100000000E-03 0.  1.
        -12    1    3    3    0    0  0.31296088355E+01 -0.13282819517E+01  0.14938512340E+01  0.37135395401E+01  0.00000000000E+00 0.  1.
</event>
<event>
 7    1  0.2243370E-008  0.4614232E+02  0.7816164E-02  0.1320468E+00
        -11   -1    0    0    0    0  0.00000000000E+00  0.00000000000E+00  0.45593999997E+02  0.45594000000E+02  0.51100000000E-03 0.  1.
         11   -1    0    0    0    0 -0.00000000000E+00 -0.00000000000E+00 -0.45593999997E+02  0.45594000000E+02  0.51100000000E-03 0. -1.
    9900012    2    1    2    0    0  0.43458750597E+01 -0.44830909344E+02  0.64535103759E+00  0.46142317181E+02  0.99999947140E+01 0.  0.
         12    1    1    2    0    0 -0.43458750597E+01  0.44830909344E+02 -0.64535103759E+00  0.45045682819E+02  0.00000000000E+00 0. -1.
         11    1    3    3    0    0  0.35635704891E+00 -0.28460342344E+02 -0.29578209514E+01  0.28615848437E+02  0.51100000000E-03 0. -1.
        -11    1    3    3    0    0  0.14435127426E+01 -0.12047946539E+02  0.24514881444E+01  0.12379278623E+02  0.51100000000E-03 0.  1.
         12    1    3    3    0    0  0.25460052682E+01 -0.43226204600E+01  0.11516838446E+01  0.51471901213E+01  0.00000000000E+00 0. -1.
</event>
<event>
 7    1  0.2243370E-008  0.4614232E+02  0.7816164E-02  0.1320468E+00
        -11   -1    0    0    0    0  0.00000000000E+00  0.00000000000E+00  0.45593999997E+02  0.45594000000E+02  0.51100000000E-03 0.  1.
         11   -1    0    0    0    0 -0.00000000000E+00 -0.00000000000E+00 -0.45593999997E+02  0.45594000000E+02  0.51100000000E-03 0. -1.
    9900012    2    1    2    0    0 -0.10126711694E+02 -0.90535108657E+01  0.42948773628E+02  0.46142317578E+02  0.99999983279E+01 0.  0.
         12    1    1    2    0    0  0.10126711694E+02  0.90535108657E+01 -0.42948773628E+02  0.45045682422E+02  0.00000000000E+00 0. -1.
         11    1    3    3    0    0 -0.52503637278E+01 -0.14604535763E+01  0.13924053824E+02  0.14952542228E+02  0.51100000000E-03 0. -1.
        -11    1    3    3    0    0 -0.20528155850E+01 -0.93575816236E+00  0.14481104834E+01  0.26808057366E+01  0.51100000000E-03 0.  1.
        -12    1    3    3    0    0 -0.28235323807E+01 -0.66572991271E+01  0.27576609321E+02  0.28508969613E+02  0.00000000000E+00 0.  1.
</event>
<event>
 7    1  0.2243370E-008  0.4614232E+02  0.7816164E-02  0.1320468E+00
        -11   -1    0    0    0    0  0.00000000000E+00  0.00000000000E+00  0.45593999997E+02  0.45594000000E+02  0.51100000000E-03 0.  1.
         11   -1    0    0    0    0 -0.00000000000E+00 -0.00000000000E+00 -0.45593999997E+02  0.45594000000E+02  0.51100000000E-03 0. -1.
    9900012    2    1    2    0    0 -0.29709024618E+02 -0.44968972299E+01  0.33559875583E+02  0.46142317881E+02  0.10000001092E+02 0.  0.
         12    1    1    2    0    0  0.29709024618E+02  0.44968972299E+01 -0.33559875583E+02  0.45045682119E+02  0.00000000000E+00 0. -1.
         11    1    3    3    0    0 -0.11537877517E+02 -0.32554046442E+01  0.97148763075E+01  0.15430460101E+02  0.51100000000E-03 0. -1.
        -11    1    3    3    0    0 -0.50702473912E+01 -0.45445314422E+00  0.25407982146E+01  0.56894280992E+01  0.51100000000E-03 0.  1.
        -12    1    3    3    0    0 -0.13100899709E+02 -0.78703944151E+00  0.21304201061E+02  0.25022429680E+02  0.00000000000E+00 0.  1.
</event>
<event>
 7    1  0.2243370E-008  0.4614232E+02  0.7816164E-02  0.1320468E+00
        -11   -1    0    0    0    0  0.00000000000E+00  0.00000000000E+00  0.45593999997E+02  0.45594000000E+02  0.51100000000E-03 0.  1.
         11   -1    0    0    0    0 -0.00000000000E+00 -0.00000000000E+00 -0.45593999997E+02  0.45594000000E+02  0.51100000000E-03 0. -1.
    9900012    2    1    2    0    0  0.22524457985E+02  0.36693890923E+02  0.13240874100E+02  0.46142316683E+02  0.99999901683E+01 0.  0.
         12    1    1    2    0    0 -0.22524457985E+02 -0.36693890923E+02 -0.13240874100E+02  0.45045683317E+02  0.00000000000E+00 0. -1.
         11    1    3    3    0    0  0.19513077471E+01  0.25554840372E+00  0.12292014083E+01  0.23203110295E+01  0.51100000000E-03 0. -1.
        -11    1    3    3    0    0  0.32219804185E+01  0.66974571071E+01  0.25027414936E+00  0.74363786166E+01  0.51100000000E-03 0.  1.
        -12    1    3    3    0    0  0.17351169819E+02  0.29740885412E+02  0.11761398543E+02  0.36385627037E+02  0.00000000000E+00 0.  1.
</event>
<event>
 7    1  0.2243370E-008  0.4614232E+02  0.7816164E-02  0.1320468E+00
        -11   -1    0    0    0    0  0.00000000000E+00  0.00000000000E+00  0.45593999997E+02  0.45594000000E+02  0.51100000000E-03 0.  1.
         11   -1    0    0    0    0 -0.00000000000E+00 -0.00000000000E+00 -0.45593999997E+02  0.45594000000E+02  0.51100000000E-03 0. -1.
    9900012    2    1    2    0    0 -0.36790979132E+02 -0.25986518103E+02 -0.48808005402E+00  0.46142317734E+02  0.99999997540E+01 0.  0.
         12    1    1    2    0    0  0.36790979132E+02  0.25986518103E+02  0.48808005402E+00  0.45045682266E+02  0.00000000000E+00 0. -1.
         11    1    3    3    0    0 -0.28885259518E+01  0.66222983393E+00 -0.43279874700E+00  0.29949032612E+01  0.51100000000E-03 0. -1.
        -11    1    3    3    0    0 -0.20070489922E+02 -0.14854149491E+02  0.13709513522E-01  0.24969391483E+02  0.51100000000E-03 0.  1.
        -12    1    3    3    0    0 -0.13831963258E+02 -0.11794598446E+02 -0.68990820538E-01  0.18178022990E+02  0.00000000000E+00 0.  1.
</event>
<event>
 7    1  0.2243370E-008  0.4614232E+02  0.7816164E-02  0.1320468E+00
        -11   -1    0    0    0    0  0.00000000000E+00  0.00000000000E+00  0.45593999997E+02  0.45594000000E+02  0.51100000000E-03 0. -1.
         11   -1    0    0    0    0 -0.00000000000E+00 -0.00000000000E+00 -0.45593999997E+02  0.45594000000E+02  0.51100000000E-03 0.  1.
    9900012    2    1    2    0    0 -0.35894421221E+02 -0.25962083725E+02 -0.81654381000E+01  0.46142316017E+02  0.99999840965E+01 0.  0.
         12    1    1    2    0    0  0.35894421221E+02  0.25962083725E+02  0.81654381000E+01  0.45045683983E+02  0.00000000000E+00 0. -1.
         11    1    3    3    0    0 -0.18301145062E+02 -0.12571744780E+02 -0.58800351224E+01  0.22968576157E+02  0.51100000000E-03 0. -1.
        -11    1    3    3    0    0 -0.17224092464E+02 -0.11698998988E+02 -0.71090177561E+00  0.20833658347E+02  0.51100000000E-03 0.  1.
         12    1    3    3    0    0 -0.36918369486E+00 -0.16913399567E+01 -0.15745012020E+01  0.23400815124E+01  0.00000000000E+00 0. -1.
</event>
<event>
 7    1  0.2243370E-008  0.4614232E+02  0.7816164E-02  0.1320468E+00
        -11   -1    0    0    0    0  0.00000000000E+00  0.00000000000E+00  0.45593999997E+02  0.45594000000E+02  0.51100000000E-03 0.  1.
         11   -1    0    0    0    0 -0.00000000000E+00 -0.00000000000E+00 -0.45593999997E+02  0.45594000000E+02  0.51100000000E-03 0. -1.
    9900012    2    1    2    0    0 -0.17655510098E+02 -0.28111027274E+02  0.30449411447E+02  0.46142317091E+02  0.99999938902E+01 0.  0.
         12    1    1    2    0    0  0.17655510098E+02  0.28111027274E+02 -0.30449411447E+02  0.45045682909E+02  0.00000000000E+00 0. -1.
         11    1    3    3    0    0 -0.65656178296E+00 -0.40095381881E+01  0.22746353440E+01  0.46563328989E+01  0.51100000000E-03 0. -1.
        -11    1    3    3    0    0 -0.97091353032E+01 -0.19541557784E+02  0.21053621301E+02  0.30321523034E+02  0.51100000000E-03 0.  1.
        -12    1    3    3    0    0 -0.72898130123E+01 -0.45599313027E+01  0.71211548018E+01  0.11164461158E+02  0.00000000000E+00 0.  1.
</event>
<event>
 7    1  0.2243370E-008  0.4614232E+02  0.7816164E-02  0.1320468E+00
        -11   -1    0    0    0    0  0.00000000000E+00  0.00000000000E+00  0.45593999997E+02  0.45594000000E+02  0.51100000000E-03 0.  1.
         11   -1    0    0    0    0 -0.00000000000E+00 -0.00000000000E+00 -0.45593999997E+02  0.45594000000E+02  0.51100000000E-03 0. -1.
    9900012    2    1    2    0    0  0.14919266386E+00  0.17718616687E+02  0.41414269210E+02  0.46142319520E+02  0.10000016035E+02 0.  0.
         12    1    1    2    0    0 -0.14919266386E+00 -0.17718616687E+02 -0.41414269210E+02  0.45045680480E+02  0.00000000000E+00 0. -1.
         11    1    3    3    0    0  0.84211751670E+00 -0.79299239189E+00  0.35772775117E+01  0.37596427360E+01  0.51100000000E-03 0. -1.
        -11    1    3    3    0    0 -0.30928995080E+00  0.63860422165E+01  0.18308190716E+02  0.19392448092E+02  0.51100000000E-03 0.  1.
         12    1    3    3    0    0 -0.38363490204E+00  0.12125566862E+02  0.19528800982E+02  0.22990228691E+02  0.00000000000E+00 0. -1.
</event>
<event>
 7    1  0.2243370E-008  0.4614232E+02  0.7816164E-02  0.1320468E+00
        -11   -1    0    0    0    0  0.00000000000E+00  0.00000000000E+00  0.45593999997E+02  0.45594000000E+02  0.51100000000E-03 0.  1.
         11   -1    0    0    0    0 -0.00000000000E+00 -0.00000000000E+00 -0.45593999997E+02  0.45594000000E+02  0.51100000000E-03 0. -1.
    9900012    2    1    2    0    0 -0.22397352340E+02 -0.31066511632E+02  0.23713791006E+02  0.46142318512E+02  0.10000006846E+02 0.  0.
         12    1    1    2    0    0  0.22397352340E+02  0.31066511632E+02 -0.23713791006E+02  0.45045681488E+02  0.00000000000E+00 0. -1.
         11    1    3    3    0    0 -0.99567407437E+01 -0.15722796617E+02  0.75008256637E+01  0.20065029420E+02  0.51100000000E-03 0.  1.
        -11    1    3    3    0    0 -0.10965323359E+01 -0.23794308014E+01  0.32049332252E+00  0.26394678125E+01  0.51100000000E-03 0. -1.
        -12    1    3    3    0    0 -0.11344079260E+02 -0.12964284213E+02  0.15892472020E+02  0.23437821280E+02  0.00000000000E+00 0.  1.
</event>
<event>
 7    1  0.2243370E-008  0.4614233E+02  0.7816164E-02  0.1320468E+00
        -11   -1    0    0    0    0  0.00000000000E+00  0.00000000000E+00  0.45593999997E+02  0.45594000000E+02  0.51100000000E-03 0.  1.
         11   -1    0    0    0    0 -0.00000000000E+00 -0.00000000000E+00 -0.45593999997E+02  0.45594000000E+02  0.51100000000E-03 0. -1.
    9900012    2    1    2    0    0 -0.19319961819E+02 -0.40611939406E+01  0.40488989140E+02  0.46142329148E+02  0.10000103837E+02 0.  0.
         12    1    1    2    0    0  0.19319961819E+02  0.40611939406E+01 -0.40488989140E+02  0.45045670852E+02  0.00000000000E+00 0. -1.
         11    1    3    3    0    0 -0.36450325228E+01  0.63803085638E+00  0.35822386965E+01  0.51503184179E+01  0.51100000000E-03 0. -1.
        -11    1    3    3    0    0 -0.68455634482E+01 -0.57586217430E+01  0.18300831423E+02  0.20370171681E+02  0.51100000000E-03 0.  1.
        -12    1    3    3    0    0 -0.88293658480E+01  0.10593969460E+01  0.18605919021E+02  0.20621839049E+02  0.00000000000E+00 0.  1.
</event>
<event>
 7    1  0.2243370E-008  0.4614232E+02  0.7816164E-02  0.1320468E+00
        -11   -1    0    0    0    0  0.00000000000E+00  0.00000000000E+00  0.45593999997E+02  0.45594000000E+02  0.51100000000E-03 0.  1.
         11   -1    0    0    0    0 -0.00000000000E+00 -0.00000000000E+00 -0.45593999997E+02  0.45594000000E+02  0.51100000000E-03 0. -1.
    9900012    2    1    2    0    0  0.43287600322E+02  0.45507539732E+01  0.11601200038E+02  0.46142317125E+02  0.99999941979E+01 0.  0.
         12    1    1    2    0    0 -0.43287600322E+02 -0.45507539732E+01 -0.11601200038E+02  0.45045682875E+02  0.00000000000E+00 0. -1.
         11    1    3    3    0    0  0.35982465218E+01  0.18265112427E+01  0.29808874952E+01  0.50168926510E+01  0.51100000000E-03 0. -1.
        -11    1    3    3    0    0  0.13669963831E+02  0.11767021401E+01  0.16015393364E+00  0.13721449945E+02  0.51100000000E-03 0.  1.
         12    1    3    3    0    0  0.26019389970E+02  0.15475405905E+01  0.84601586087E+01  0.27403974529E+02  0.00000000000E+00 0. -1.
</event>
<event>
 7    1  0.2243370E-008  0.4614232E+02  0.7816164E-02  0.1320468E+00
        -11   -1    0    0    0    0  0.00000000000E+00  0.00000000000E+00  0.45593999997E+02  0.45594000000E+02  0.51100000000E-03 0.  1.
         11   -1    0    0    0    0 -0.00000000000E+00 -0.00000000000E+00 -0.45593999997E+02  0.45594000000E+02  0.51100000000E-03 0. -1.
    9900012    2    1    2    0    0  0.27766881275E+02 -0.12775418650E+02  0.33089311211E+02  0.46142317257E+02  0.99999954018E+01 0.  0.
         12    1    1    2    0    0 -0.27766881275E+02  0.12775418650E+02 -0.33089311211E+02  0.45045682743E+02  0.00000000000E+00 0. -1.
         11    1    3    3    0    0  0.12623843866E+02 -0.53261431939E+01  0.12235270303E+02  0.18369297073E+02  0.51100000000E-03 0. -1.
        -11    1    3    3    0    0  0.14381589512E+02 -0.42217739672E+01  0.16359271291E+02  0.22187366896E+02  0.51100000000E-03 0.  1.
         12    1    3    3    0    0  0.76144789621E+00 -0.32275014887E+01  0.44947696160E+01  0.55856532885E+01  0.00000000000E+00 0. -1.
</event>
<event>
 7    1  0.2243370E-008  0.4614232E+02  0.7816164E-02  0.1320468E+00
        -11   -1    0    0    0    0  0.00000000000E+00  0.00000000000E+00  0.45593999997E+02  0.45594000000E+02  0.51100000000E-03 0.  1.
         11   -1    0    0    0    0 -0.00000000000E+00 -0.00000000000E+00 -0.45593999997E+02  0.45594000000E+02  0.51100000000E-03 0. -1.
    9900012    2    1    2    0    0 -0.85466634320E+01 -0.43547498779E+01  0.44012545998E+02  0.46142317548E+02  0.99999980570E+01 0.  0.
         12    1    1    2    0    0  0.85466634320E+01  0.43547498779E+01 -0.44012545998E+02  0.45045682452E+02  0.00000000000E+00 0. -1.
         11    1    3    3    0    0  0.26789848447E+00 -0.27045492114E+00  0.85919272938E+01  0.86003564080E+01  0.51100000000E-03 0.  1.
        -11    1    3    3    0    0 -0.57409559935E+01 -0.25161918771E+01  0.94293326860E+01  0.11322637168E+02  0.51100000000E-03 0. -1.
         12    1    3    3    0    0 -0.30736059229E+01 -0.15681030797E+01  0.25991286018E+02  0.26219323972E+02  0.00000000000E+00 0. -1.
</event>
<event>
 7    1  0.2243370E-008  0.4614232E+02  0.7816164E-02  0.1320468E+00
        -11   -1    0    0    0    0  0.00000000000E+00  0.00000000000E+00  0.45593999997E+02  0.45594000000E+02  0.51100000000E-03 0.  1.
         11   -1    0    0    0    0 -0.00000000000E+00 -0.00000000000E+00 -0.45593999997E+02  0.45594000000E+02  0.51100000000E-03 0. -1.
    9900012    2    1    2    0    0  0.41670848731E+02  0.13002731762E+02 -0.11116779553E+02  0.46142318133E+02  0.10000003389E+02 0.  0.
         12    1    1    2    0    0 -0.41670848731E+02 -0.13002731762E+02  0.11116779553E+02  0.45045681867E+02  0.00000000000E+00 0. -1.
         11    1    3    3    0    0  0.33573630266E+01  0.30271680371E+01 -0.74727657683E+00  0.45819270357E+01  0.51100000000E-03 0. -1.
        -11    1    3    3    0    0  0.11965623482E+02  0.53403027938E+01 -0.72765896611E+00  0.13123431986E+02  0.51100000000E-03 0.  1.
        -12    1    3    3    0    0  0.26347862222E+02  0.46352609306E+01 -0.96418440099E+01  0.28436959111E+02  0.00000000000E+00 0.  1.
</event>
<event>
 7    1  0.2243370E-008  0.4614232E+02  0.7816164E-02  0.1320468E+00
        -11   -1    0    0    0    0  0.00000000000E+00  0.00000000000E+00  0.45593999997E+02  0.45594000000E+02  0.51100000000E-03 0.  1.
         11   -1    0    0    0    0 -0.00000000000E+00 -0.00000000000E+00 -0.45593999997E+02  0.45594000000E+02  0.51100000000E-03 0. -1.
    9900012    2    1    2    0    0  0.14378574722E+02  0.32171925949E+02  0.28059531419E+02  0.46142317257E+02  0.99999954041E+01 0.  0.
         12    1    1    2    0    0 -0.14378574722E+02 -0.32171925949E+02 -0.28059531419E+02  0.45045682743E+02  0.00000000000E+00 0. -1.
         11    1    3    3    0    0  0.10004207284E+02  0.21719734049E+02  0.17321361837E+02  0.29527285461E+02  0.51100000000E-03 0. -1.
        -11    1    3    3    0    0  0.42729956603E+01  0.43223384990E+01  0.31062726234E+01  0.68256891143E+01  0.51100000000E-03 0.  1.
         12    1    3    3    0    0  0.10137177822E+00  0.61298534010E+01  0.76318969592E+01  0.97893426823E+01  0.00000000000E+00 0. -1.
</event>
<event>
 7    1  0.2243370E-008  0.4614232E+02  0.7816164E-02  0.1320468E+00
        -11   -1    0    0    0    0  0.00000000000E+00  0.00000000000E+00  0.45593999997E+02  0.45594000000E+02  0.51100000000E-03 0.  1.
         11   -1    0    0    0    0 -0.00000000000E+00 -0.00000000000E+00 -0.45593999997E+02  0.45594000000E+02  0.51100000000E-03 0. -1.
    9900012    2    1    2    0    0  0.31966064769E+02 -0.15337244279E+02  0.27785848150E+02  0.46142315231E+02  0.99999769287E+01 0.  0.
         12    1    1    2    0    0 -0.31966064769E+02  0.15337244279E+02 -0.27785848150E+02  0.45045684769E+02  0.00000000000E+00 0. -1.
         11    1    3    3    0    0  0.17434014416E+01  0.71144005134E+00  0.24010111795E+01  0.30513030788E+01  0.51100000000E-03 0. -1.
        -11    1    3    3    0    0  0.10761663030E+02 -0.92250037127E+01  0.11115172167E+02  0.18012804813E+02  0.51100000000E-03 0.  1.
        -12    1    3    3    0    0  0.19461000297E+02 -0.68236806177E+01  0.14269664804E+02  0.25078207339E+02  0.00000000000E+00 0.  1.
</event>
<event>
 7    1  0.2243370E-008  0.4614232E+02  0.7816164E-02  0.1320468E+00
        -11   -1    0    0    0    0  0.00000000000E+00  0.00000000000E+00  0.45593999997E+02  0.45594000000E+02  0.51100000000E-03 0.  1.
         11   -1    0    0    0    0 -0.00000000000E+00 -0.00000000000E+00 -0.45593999997E+02  0.45594000000E+02  0.51100000000E-03 0. -1.
    9900012    2    1    2    0    0  0.26004955146E+02  0.13962939393E+02  0.34027813252E+02  0.46142318261E+02  0.10000004556E+02 0.  0.
         12    1    1    2    0    0 -0.26004955146E+02 -0.13962939393E+02 -0.34027813252E+02  0.45045681739E+02  0.00000000000E+00 0. -1.
         11    1    3    3    0    0  0.10838042514E+01 -0.13416589047E+00  0.10743945572E+01  0.15319778286E+01  0.51100000000E-03 0. -1.
        -11    1    3    3    0    0  0.17659292634E+02  0.54474607126E+01  0.17350051438E+02  0.25348564648E+02  0.51100000000E-03 0.  1.
         12    1    3    3    0    0  0.72618582598E+01  0.86496445710E+01  0.15603367257E+02  0.19261775784E+02  0.00000000000E+00 0. -1.
</event>
<event>
 7    1  0.2243370E-008  0.4614231E+02  0.7816164E-02  0.1320468E+00
        -11   -1    0    0    0    0  0.00000000000E+00  0.00000000000E+00  0.45593999997E+02  0.45594000000E+02  0.51100000000E-03 0. -1.
         11   -1    0    0    0    0 -0.00000000000E+00 -0.00000000000E+00 -0.45593999997E+02  0.45594000000E+02  0.51100000000E-03 0.  1.
    9900012    2    1    2    0    0 -0.43096465555E+02 -0.83436482650E+01 -0.10109002761E+02  0.46142314896E+02  0.99999738740E+01 0.  0.
         12    1    1    2    0    0  0.43096465555E+02  0.83436482650E+01  0.10109002761E+02  0.45045685104E+02  0.00000000000E+00 0. -1.
         11    1    3    3    0    0 -0.13093061915E+02 -0.30436976665E+01 -0.69350747210E+01  0.15125727336E+02  0.51100000000E-03 0. -1.
        -11    1    3    3    0    0 -0.15543080965E+02 -0.37508051878E+01 -0.38909285981E+01  0.16455857044E+02  0.51100000000E-03 0.  1.
         12    1    3    3    0    0 -0.14460322674E+02 -0.15491454106E+01  0.71700055833E+00  0.14560730516E+02  0.00000000000E+00 0. -1.
</event>
<event>
 7    1  0.2243370E-008  0.4614232E+02  0.7816164E-02  0.1320468E+00
        -11   -1    0    0    0    0  0.00000000000E+00  0.00000000000E+00  0.45593999997E+02  0.45594000000E+02  0.51100000000E-03 0.  1.
         11   -1    0    0    0    0 -0.00000000000E+00 -0.00000000000E+00 -0.45593999997E+02  0.45594000000E+02  0.51100000000E-03 0. -1.
    9900012    2    1    2    0    0 -0.12881195293E+02  0.42855994027E+02  0.51528596864E+01  0.46142318973E+02  0.10000011054E+02 0.  0.
         12    1    1    2    0    0  0.12881195293E+02 -0.42855994027E+02 -0.51528596864E+01  0.45045681027E+02  0.00000000000E+00 0. -1.
         11    1    3    3    0    0 -0.10242357077E+01  0.13042356220E+01  0.16307631736E+01  0.23258284829E+01  0.51100000000E-03 0. -1.
        -11    1    3    3    0    0 -0.70710674796E+01  0.32130965429E+02  0.44931064542E+01  0.33205224597E+02  0.51100000000E-03 0.  1.
         12    1    3    3    0    0 -0.47858921061E+01  0.94207929762E+01 -0.97100994143E+00  0.10611265893E+02  0.00000000000E+00 0. -1.
</event>
<event>
 7    1  0.2386523E-008  0.4614232E+02  0.7816164E-02  0.1320468E+00
        -11   -1    0    0    0    0  0.00000000000E+00  0.00000000000E+00  0.45593999997E+02  0.45594000000E+02  0.51100000000E-03 0.  1.
         11   -1    0    0    0    0 -0.00000000000E+00 -0.00000000000E+00 -0.45593999997E+02  0.45594000000E+02  0.51100000000E-03 0. -1.
    9900012    2    1    2    0    0 -0.33270609524E+02 -0.22257751576E+02  0.20658473369E+02  0.46142317796E+02  0.10000000318E+02 0.  0.
         12    1    1    2    0    0  0.33270609524E+02  0.22257751576E+02 -0.20658473369E+02  0.45045682204E+02  0.00000000000E+00 0. -1.
         11    1    3    3    0    0 -0.14732586234E+02 -0.85674339049E+01  0.83814515071E+01  0.18992070726E+02  0.51100000000E-03 0. -1.
        -11    1    3    3    0    0 -0.17621149805E+02 -0.10355015722E+02  0.88216166039E+01  0.22261001568E+02  0.51100000000E-03 0.  1.
         12    1    3    3    0    0 -0.91687348529E+00 -0.33353019493E+01  0.34554052577E+01  0.48892455017E+01  0.00000000000E+00 0. -1.
</event>
<event>
 7    1  0.2243370E-008  0.4614232E+02  0.7816164E-02  0.1320468E+00
        -11   -1    0    0    0    0  0.00000000000E+00  0.00000000000E+00  0.45593999997E+02  0.45594000000E+02  0.51100000000E-03 0. -1.
         11   -1    0    0    0    0 -0.00000000000E+00 -0.00000000000E+00 -0.45593999997E+02  0.45594000000E+02  0.51100000000E-03 0.  1.
    9900012    2    1    2    0    0 -0.91844861611E+00 -0.43764327858E+02  0.10627961035E+02  0.46142317671E+02  0.99999991758E+01 0.  0.
         12    1    1    2    0    0  0.91844861611E+00  0.43764327858E+02 -0.10627961035E+02  0.45045682329E+02  0.00000000000E+00 0. -1.
         11    1    3    3    0    0  0.18823289546E+01 -0.73417649185E+01  0.19507306914E+01  0.78262395123E+01  0.51100000000E-03 0. -1.
        -11    1    3    3    0    0 -0.95128384356E+00 -0.57447907964E+01 -0.13699625663E+01  0.59820030040E+01  0.51100000000E-03 0.  1.
         12    1    3    3    0    0 -0.18494937272E+01 -0.30677772143E+02  0.10047192909E+02  0.32334075154E+02  0.00000000000E+00 0. -1.
</event>
<event>
 7    1  0.2243370E-008  0.4614232E+02  0.7816164E-02  0.1320468E+00
        -11   -1    0    0    0    0  0.00000000000E+00  0.00000000000E+00  0.45593999997E+02  0.45594000000E+02  0.51100000000E-03 0.  1.
         11   -1    0    0    0    0 -0.00000000000E+00 -0.00000000000E+00 -0.45593999997E+02  0.45594000000E+02  0.51100000000E-03 0. -1.
    9900012    2    1    2    0    0  0.20069574337E+02 -0.91396503681E+01  0.39278396596E+02  0.46142318053E+02  0.10000002661E+02 0.  0.
         12    1    1    2    0    0 -0.20069574337E+02  0.91396503681E+01 -0.39278396596E+02  0.45045681947E+02  0.00000000000E+00 0. -1.
         11    1    3    3    0    0  0.27143836891E+01 -0.99478358561E+00  0.44785292454E+01  0.53305438425E+01  0.51100000000E-03 0. -1.
        -11    1    3    3    0    0  0.14043178167E+02 -0.62027058813E+01  0.33338870199E+02  0.36703742040E+02  0.51100000000E-03 0.  1.
         12    1    3    3    0    0  0.33120124811E+01 -0.19421609012E+01  0.14609971512E+01  0.41080321709E+01  0.00000000000E+00 0. -1.
</event>
<event>
 7    1  0.2243370E-008  0.4614232E+02  0.7816164E-02  0.1320468E+00
        -11   -1    0    0    0    0  0.00000000000E+00  0.00000000000E+00  0.45593999997E+02  0.45594000000E+02  0.51100000000E-03 0.  1.
         11   -1    0    0    0    0 -0.00000000000E+00 -0.00000000000E+00 -0.45593999997E+02  0.45594000000E+02  0.51100000000E-03 0. -1.
    9900012    2    1    2    0    0  0.41804721785E+02 -0.91052190076E+01  0.14091620033E+02  0.46142317279E+02  0.99999956002E+01 0.  0.
         12    1    1    2    0    0 -0.41804721785E+02  0.91052190076E+01 -0.14091620033E+02  0.45045682721E+02  0.00000000000E+00 0. -1.
         11    1    3    3    0    0  0.34808125970E+02 -0.69255006946E+01  0.12908426146E+02  0.37765005749E+02  0.51100000000E-03 0.  1.
        -11    1    3    3    0    0  0.55482712081E+01  0.41687429815E-01  0.13822265594E+01  0.57180067999E+01  0.51100000000E-03 0. -1.
        -12    1    3    3    0    0  0.14483246073E+01 -0.22214057428E+01 -0.19903267259E+00  0.26593047300E+01  0.00000000000E+00 0.  1.
</event>
<event>
 7    1  0.2243370E-008  0.4614232E+02  0.7816164E-02  0.1320468E+00
        -11   -1    0    0    0    0  0.00000000000E+00  0.00000000000E+00  0.45593999997E+02  0.45594000000E+02  0.51100000000E-03 0.  1.
         11   -1    0    0    0    0 -0.00000000000E+00 -0.00000000000E+00 -0.45593999997E+02  0.45594000000E+02  0.51100000000E-03 0. -1.
    9900012    2    1    2    0    0 -0.28280309836E+02 -0.35060426497E+02 -0.32260799836E+00  0.46142317560E+02  0.99999981659E+01 0.  0.
         12    1    1    2    0    0  0.28280309836E+02  0.35060426497E+02  0.32260799836E+00  0.45045682440E+02  0.00000000000E+00 0. -1.
         11    1    3    3    0    0  0.18612322492E+00 -0.18728655974E+01 -0.10625767019E+01  0.21613275803E+01  0.51100000000E-03 0. -1.
        -11    1    3    3    0    0 -0.18512647887E+02 -0.24809963845E+02  0.92799391567E+00  0.30969559421E+02  0.51100000000E-03 0.  1.
        -12    1    3    3    0    0 -0.99537851738E+01 -0.83775970545E+01 -0.18802521217E+00  0.13011430558E+02  0.00000000000E+00 0.  1.
</event>
<event>
 7    1  0.2243370E-008  0.4614232E+02  0.7816164E-02  0.1320468E+00
        -11   -1    0    0    0    0  0.00000000000E+00  0.00000000000E+00  0.45593999997E+02  0.45594000000E+02  0.51100000000E-03 0.  1.
         11   -1    0    0    0    0 -0.00000000000E+00 -0.00000000000E+00 -0.45593999997E+02  0.45594000000E+02  0.51100000000E-03 0. -1.
    9900012    2    1    2    0    0 -0.24974911441E+02  0.12678684006E+02  0.35279146968E+02  0.46142318293E+02  0.10000004853E+02 0.  0.
         12    1    1    2    0    0  0.24974911441E+02 -0.12678684006E+02 -0.35279146968E+02  0.45045681707E+02  0.00000000000E+00 0. -1.
         11    1    3    3    0    0 -0.11977456161E+01 -0.34321972083E+00  0.27708935807E+01  0.30381319646E+01  0.51100000000E-03 0. -1.
        -11    1    3    3    0    0 -0.19224132898E+02  0.10539925877E+02  0.30458109353E+02  0.37528039501E+02  0.51100000000E-03 0.  1.
        -12    1    3    3    0    0 -0.45530329268E+01  0.24819778498E+01  0.20501440344E+01  0.55761468274E+01  0.00000000000E+00 0.  1.
</event>
<event>
 7    1  0.2243370E-008  0.4614232E+02  0.7816164E-02  0.1320468E+00
        -11   -1    0    0    0    0  0.00000000000E+00  0.00000000000E+00  0.45593999997E+02  0.45594000000E+02  0.51100000000E-03 0.  1.
         11   -1    0    0    0    0 -0.00000000000E+00 -0.00000000000E+00 -0.45593999997E+02  0.45594000000E+02  0.51100000000E-03 0. -1.
    9900012    2    1    2    0    0  0.21301532791E+02 -0.35208897289E+02  0.18321889779E+02  0.46142318824E+02  0.10000009689E+02 0.  0.
         12    1    1    2    0    0 -0.21301532791E+02  0.35208897289E+02 -0.18321889779E+02  0.45045681176E+02  0.00000000000E+00 0. -1.
         11    1    3    3    0    0  0.15524139564E+01 -0.33517269440E+01  0.36915354136E+01  0.52222118466E+01  0.51100000000E-03 0. -1.
        -11    1    3    3    0    0  0.64105501236E+01 -0.54604844026E+01  0.14674754032E+01  0.85478375697E+01  0.51100000000E-03 0.  1.
        -12    1    3    3    0    0  0.13338568711E+02 -0.26396685942E+02  0.13162878962E+02  0.32372269407E+02  0.00000000000E+00 0.  1.
</event>
<event>
 7    1  0.2243370E-008  0.4614232E+02  0.7816164E-02  0.1320468E+00
        -11   -1    0    0    0    0  0.00000000000E+00  0.00000000000E+00  0.45593999997E+02  0.45594000000E+02  0.51100000000E-03 0.  1.
         11   -1    0    0    0    0 -0.00000000000E+00 -0.00000000000E+00 -0.45593999997E+02  0.45594000000E+02  0.51100000000E-03 0. -1.
    9900012    2    1    2    0    0  0.36029018033E+02 -0.19046233176E+02  0.19190212388E+02  0.46142318852E+02  0.10000009945E+02 0.  0.
         12    1    1    2    0    0 -0.36029018033E+02  0.19046233176E+02 -0.19190212388E+02  0.45045681148E+02  0.00000000000E+00 0. -1.
         11    1    3    3    0    0  0.15009707955E+01  0.34139413991E+00  0.47678971530E+00  0.16114564783E+01  0.51100000000E-03 0. -1.
        -11    1    3    3    0    0  0.47561415899E+01  0.17128022845E+00  0.27393551444E+01  0.54912918888E+01  0.51100000000E-03 0.  1.
        -12    1    3    3    0    0  0.29771905647E+02 -0.19558907545E+02  0.15974067528E+02  0.39039570485E+02  0.00000000000E+00 0.  1.
</event>
<event>
 7    1  0.2243370E-008  0.4614232E+02  0.7816164E-02  0.1320468E+00
        -11   -1    0    0    0    0  0.00000000000E+00  0.00000000000E+00  0.45593999997E+02  0.45594000000E+02  0.51100000000E-03 0.  1.
         11   -1    0    0    0    0 -0.00000000000E+00 -0.00000000000E+00 -0.45593999997E+02  0.45594000000E+02  0.51100000000E-03 0. -1.
    9900012    2    1    2    0    0  0.40815855851E+02  0.15443534885E+02  0.11165866413E+02  0.46142318394E+02  0.10000005775E+02 0.  0.
         12    1    1    2    0    0 -0.40815855851E+02 -0.15443534885E+02 -0.11165866413E+02  0.45045681606E+02  0.00000000000E+00 0. -1.
         11    1    3    3    0    0  0.12849960060E+02  0.81220769602E+01  0.12584637031E+01  0.15253633628E+02  0.51100000000E-03 0. -1.
        -11    1    3    3    0    0  0.25187109672E+02  0.70723248236E+01  0.75303180021E+01  0.27223408338E+02  0.51100000000E-03 0.  1.
        -12    1    3    3    0    0  0.27787861182E+01  0.24913310139E+00  0.23770847076E+01  0.36652764289E+01  0.00000000000E+00 0.  1.
</event>
<event>
 7    1  0.2243370E-008  0.4614232E+02  0.7816164E-02  0.1320468E+00
        -11   -1    0    0    0    0  0.00000000000E+00  0.00000000000E+00  0.45593999997E+02  0.45594000000E+02  0.51100000000E-03 0.  1.
         11   -1    0    0    0    0 -0.00000000000E+00 -0.00000000000E+00 -0.45593999997E+02  0.45594000000E+02  0.51100000000E-03 0. -1.
    9900012    2    1    2    0    0 -0.24460942101E+02 -0.16028229883E+02  0.34261810346E+02  0.46142317744E+02  0.99999998460E+01 0.  0.
         12    1    1    2    0    0  0.24460942101E+02  0.16028229883E+02 -0.34261810346E+02  0.45045682256E+02  0.00000000000E+00 0. -1.
         11    1    3    3    0    0 -0.37604930582E+01 -0.56127177940E+01  0.10953585166E+02  0.12869535241E+02  0.51100000000E-03 0. -1.
        -11    1    3    3    0    0 -0.13668764441E+02 -0.69552751460E+01  0.18687414233E+02  0.24174995857E+02  0.51100000000E-03 0.  1.
         12    1    3    3    0    0 -0.70316846016E+01 -0.34602369432E+01  0.46208109470E+01  0.90977866455E+01  0.00000000000E+00 0. -1.
</event>
<event>
 7    1  0.2243370E-008  0.4614232E+02  0.7816164E-02  0.1320468E+00
        -11   -1    0    0    0    0  0.00000000000E+00  0.00000000000E+00  0.45593999997E+02  0.45594000000E+02  0.51100000000E-03 0.  1.
         11   -1    0    0    0    0 -0.00000000000E+00 -0.00000000000E+00 -0.45593999997E+02  0.45594000000E+02  0.51100000000E-03 0. -1.
    9900012    2    1    2    0    0  0.60147250947E+01 -0.31990444067E+02  0.31137565758E+02  0.46142318399E+02  0.10000005812E+02 0.  0.
         12    1    1    2    0    0 -0.60147250947E+01  0.31990444067E+02 -0.31137565758E+02  0.45045681601E+02  0.00000000000E+00 0. -1.
         11    1    3    3    0    0  0.67230461590E+01 -0.12672571412E+02  0.13346491617E+02  0.19593934127E+02  0.51100000000E-03 0.  1.
        -11    1    3    3    0    0  0.90933096696E+00 -0.15876342175E+02  0.14385913700E+02  0.21443871780E+02  0.51100000000E-03 0. -1.
        -12    1    3    3    0    0 -0.16176520313E+01 -0.34415304800E+01  0.34051604412E+01  0.51045124908E+01  0.00000000000E+00 0.  1.
</event>
<event>
 7    1  0.2243370E-008  0.4614232E+02  0.7816164E-02  0.1320468E+00
        -11   -1    0    0    0    0  0.00000000000E+00  0.00000000000E+00  0.45593999997E+02  0.45594000000E+02  0.51100000000E-03 0.  1.
         11   -1    0    0    0    0 -0.00000000000E+00 -0.00000000000E+00 -0.45593999997E+02  0.45594000000E+02  0.51100000000E-03 0. -1.
    9900012    2    1    2    0    0  0.34057507761E+02  0.13222078190E+02  0.26351022007E+02  0.46142317106E+02  0.99999940278E+01 0.  0.
         12    1    1    2    0    0 -0.34057507761E+02 -0.13222078190E+02 -0.26351022007E+02  0.45045682894E+02  0.00000000000E+00 0. -1.
         11    1    3    3    0    0  0.11563004058E+02  0.62721479627E+01  0.64010904909E+01  0.14629315181E+02  0.51100000000E-03 0. -1.
        -11    1    3    3    0    0  0.39116009845E+01  0.27097399014E+01  0.70197069024E+01  0.84805423088E+01  0.51100000000E-03 0.  1.
        -12    1    3    3    0    0  0.18582902718E+02  0.42401903255E+01  0.12930224614E+02  0.23032459617E+02  0.00000000000E+00 0.  1.
</event>
<event>
 7    1  0.2243370E-008  0.4614232E+02  0.7816164E-02  0.1320468E+00
        -11   -1    0    0    0    0  0.00000000000E+00  0.00000000000E+00  0.45593999997E+02  0.45594000000E+02  0.51100000000E-03 0.  1.
         11   -1    0    0    0    0 -0.00000000000E+00 -0.00000000000E+00 -0.45593999997E+02  0.45594000000E+02  0.51100000000E-03 0. -1.
    9900012    2    1    2    0    0  0.28397288231E+02 -0.32702978591E+02  0.12378303621E+02  0.46142321094E+02  0.10000030393E+02 0.  0.
         12    1    1    2    0    0 -0.28397288231E+02  0.32702978591E+02 -0.12378303621E+02  0.45045678906E+02  0.00000000000E+00 0. -1.
         11    1    3    3    0    0  0.17761764647E+01 -0.19203116686E-01 -0.52795565143E+00  0.18530809547E+01  0.51100000000E-03 0. -1.
        -11    1    3    3    0    0  0.81965487078E+01 -0.11216444035E+02  0.62144701062E+01  0.15218793200E+02  0.51100000000E-03 0.  1.
        -12    1    3    3    0    0  0.18424563058E+02 -0.21467331439E+02  0.66917891666E+01  0.29070446939E+02  0.00000000000E+00 0.  1.
</event>
<event>
 7    1  0.2243370E-008  0.4614232E+02  0.7816164E-02  0.1320468E+00
        -11   -1    0    0    0    0  0.00000000000E+00  0.00000000000E+00  0.45593999997E+02  0.45594000000E+02  0.51100000000E-03 0.  1.
         11   -1    0    0    0    0 -0.00000000000E+00 -0.00000000000E+00 -0.45593999997E+02  0.45594000000E+02  0.51100000000E-03 0. -1.
    9900012    2    1    2    0    0  0.38338817777E+02 -0.19860501098E+01  0.23564892615E+02  0.46142317549E+02  0.99999980649E+01 0.  0.
         12    1    1    2    0    0 -0.38338817777E+02  0.19860501098E+01 -0.23564892615E+02  0.45045682451E+02  0.00000000000E+00 0. -1.
         11    1    3    3    0    0  0.10823335424E+01 -0.41790937176E+00  0.27758104986E+01  0.30085242770E+01  0.51100000000E-03 0. -1.
        -11    1    3    3    0    0  0.20500640649E+02  0.21325733595E+01  0.12083438405E+02  0.23892124647E+02  0.51100000000E-03 0.  1.
        -12    1    3    3    0    0  0.16755843585E+02 -0.37007140976E+01  0.87056437107E+01  0.19241668625E+02  0.00000000000E+00 0.  1.
</event>
<event>
 7    1  0.2243370E-008  0.4614232E+02  0.7816164E-02  0.1320468E+00
        -11   -1    0    0    0    0  0.00000000000E+00  0.00000000000E+00  0.45593999997E+02  0.45594000000E+02  0.51100000000E-03 0.  1.
         11   -1    0    0    0    0 -0.00000000000E+00 -0.00000000000E+00 -0.45593999997E+02  0.45594000000E+02  0.51100000000E-03 0. -1.
    9900012    2    1    2    0    0 -0.81346782400E+01  0.42279682944E+02 -0.13242690737E+02  0.46142318322E+02  0.10000005113E+02 0.  0.
         12    1    1    2    0    0  0.81346782400E+01 -0.42279682944E+02  0.13242690737E+02  0.45045681678E+02  0.00000000000E+00 0. -1.
         11    1    3    3    0    0 -0.17659686496E+01  0.16776707305E+01  0.69995429159E-01  0.24368266193E+01  0.51100000000E-03 0. -1.
        -11    1    3    3    0    0  0.13473984900E+01  0.88096849017E+01 -0.29866807810E+01  0.93992708816E+01  0.51100000000E-03 0.  1.
         12    1    3    3    0    0 -0.77161080804E+01  0.31792327312E+02 -0.10326005385E+02  0.34306220821E+02  0.00000000000E+00 0. -1.
</event>
<event>
 7    1  0.2243370E-008  0.4614232E+02  0.7816164E-02  0.1320468E+00
        -11   -1    0    0    0    0  0.00000000000E+00  0.00000000000E+00  0.45593999997E+02  0.45594000000E+02  0.51100000000E-03 0.  1.
         11   -1    0    0    0    0 -0.00000000000E+00 -0.00000000000E+00 -0.45593999997E+02  0.45594000000E+02  0.51100000000E-03 0. -1.
    9900012    2    1    2    0    0 -0.28633349599E+01 -0.40846211986E+02  0.18775020291E+02  0.46142321987E+02  0.10000038535E+02 0.  0.
         12    1    1    2    0    0  0.28633349599E+01  0.40846211986E+02 -0.18775020291E+02  0.45045678013E+02  0.00000000000E+00 0. -1.
         11    1    3    3    0    0  0.13663886460E+01 -0.18259189518E+02  0.60106054961E+01  0.19271543749E+02  0.51100000000E-03 0. -1.
        -11    1    3    3    0    0  0.23176787158E+00 -0.49964882018E+01  0.51841318347E+01  0.72037374909E+01  0.51100000000E-03 0.  1.
         12    1    3    3    0    0 -0.44614914774E+01 -0.17590534266E+02  0.75802829605E+01  0.19667040747E+02  0.00000000000E+00 0. -1.
</event>
<event>
 7    1  0.2243370E-008  0.4614232E+02  0.7816164E-02  0.1320468E+00
        -11   -1    0    0    0    0  0.00000000000E+00  0.00000000000E+00  0.45593999997E+02  0.45594000000E+02  0.51100000000E-03 0.  1.
         11   -1    0    0    0    0 -0.00000000000E+00 -0.00000000000E+00 -0.45593999997E+02  0.45594000000E+02  0.51100000000E-03 0. -1.
    9900012    2    1    2    0    0  0.12846562509E+02  0.33319765431E+02  0.27456739899E+02  0.46142317603E+02  0.99999985620E+01 0.  0.
         12    1    1    2    0    0 -0.12846562509E+02 -0.33319765431E+02 -0.27456739899E+02  0.45045682397E+02  0.00000000000E+00 0. -1.
         11    1    3    3    0    0 -0.83744794031E+00  0.61823225733E+01  0.72247789643E+01  0.95456724644E+01  0.51100000000E-03 0. -1.
        -11    1    3    3    0    0  0.63066126986E+01  0.98577792614E+01  0.74618076873E+01  0.13879039950E+02  0.51100000000E-03 0.  1.
        -12    1    3    3    0    0  0.73773977510E+01  0.17279663597E+02  0.12770153247E+02  0.22717605190E+02  0.00000000000E+00 0.  1.
</event>
<event>
 7    1  0.2243370E-008  0.4614232E+02  0.7816164E-02  0.1320468E+00
        -11   -1    0    0    0    0  0.00000000000E+00  0.00000000000E+00  0.45593999997E+02  0.45594000000E+02  0.51100000000E-03 0.  1.
         11   -1    0    0    0    0 -0.00000000000E+00 -0.00000000000E+00 -0.45593999997E+02  0.45594000000E+02  0.51100000000E-03 0. -1.
    9900012    2    1    2    0    0 -0.27573229216E+02  0.24770820942E+02  0.25597596916E+02  0.46142317550E+02  0.99999980731E+01 0.  0.
         12    1    1    2    0    0  0.27573229216E+02 -0.24770820942E+02 -0.25597596916E+02  0.45045682450E+02  0.00000000000E+00 0. -1.
         11    1    3    3    0    0 -0.89968604023E+01  0.12990795818E+02  0.10001408630E+02  0.18701134936E+02  0.51100000000E-03 0. -1.
        -11    1    3    3    0    0 -0.24821182902E+01  0.20453863573E+01  0.47265719753E+01  0.57170796265E+01  0.51100000000E-03 0.  1.
        -12    1    3    3    0    0 -0.16094250523E+02  0.97346387672E+01  0.10869616311E+02  0.21724102987E+02  0.00000000000E+00 0.  1.
</event>
<event>
 7    1  0.2243370E-008  0.4614232E+02  0.7816164E-02  0.1320468E+00
        -11   -1    0    0    0    0  0.00000000000E+00  0.00000000000E+00  0.45593999997E+02  0.45594000000E+02  0.51100000000E-03 0.  1.
         11   -1    0    0    0    0 -0.00000000000E+00 -0.00000000000E+00 -0.45593999997E+02  0.45594000000E+02  0.51100000000E-03 0. -1.
    9900012    2    1    2    0    0 -0.11141194088E+02  0.60241951246E+01  0.43228420435E+02  0.46142318010E+02  0.10000002269E+02 0.  0.
         12    1    1    2    0    0  0.11141194088E+02 -0.60241951246E+01 -0.43228420435E+02  0.45045681990E+02  0.00000000000E+00 0. -1.
         11    1    3    3    0    0  0.39730316354E+00  0.30157841132E-01  0.24437989422E+01  0.24760680180E+01  0.51100000000E-03 0. -1.
        -11    1    3    3    0    0 -0.65292653253E+01  0.47896575705E+01  0.12345708406E+02  0.14764438413E+02  0.51100000000E-03 0.  1.
        -12    1    3    3    0    0 -0.50092319267E+01  0.12043797129E+01  0.28438913087E+02  0.28901811579E+02  0.00000000000E+00 0.  1.
</event>
<event>
 7    1  0.2243370E-008  0.4614232E+02  0.7816164E-02  0.1320468E+00
        -11   -1    0    0    0    0  0.00000000000E+00  0.00000000000E+00  0.45593999997E+02  0.45594000000E+02  0.51100000000E-03 0. -1.
         11   -1    0    0    0    0 -0.00000000000E+00 -0.00000000000E+00 -0.45593999997E+02  0.45594000000E+02  0.51100000000E-03 0.  1.
    9900012    2    1    2    0    0  0.11980545072E+02  0.32802025785E+02 -0.28453597002E+02  0.46142317209E+02  0.99999949612E+01 0.  0.
         12    1    1    2    0    0 -0.11980545072E+02 -0.32802025785E+02  0.28453597002E+02  0.45045682791E+02  0.00000000000E+00 0. -1.
         11    1    3    3    0    0  0.95315215978E+00  0.23972606313E+01 -0.99618758655E-01  0.25817206921E+01  0.51100000000E-03 0. -1.
        -11    1    3    3    0    0  0.44680441928E+01  0.72194346977E+01 -0.43123310352E+01  0.95225970975E+01  0.51100000000E-03 0.  1.
        -12    1    3    3    0    0  0.65593487193E+01  0.23185330456E+02 -0.24041647208E+02  0.34037999419E+02  0.00000000000E+00 0.  1.
</event>
<event>
 7    1  0.2243370E-008  0.4614232E+02  0.7816164E-02  0.1320468E+00
        -11   -1    0    0    0    0  0.00000000000E+00  0.00000000000E+00  0.45593999997E+02  0.45594000000E+02  0.51100000000E-03 0.  1.
         11   -1    0    0    0    0 -0.00000000000E+00 -0.00000000000E+00 -0.45593999997E+02  0.45594000000E+02  0.51100000000E-03 0. -1.
    9900012    2    1    2    0    0  0.24574214157E+02  0.32614714415E+02  0.19013199200E+02  0.46142319390E+02  0.10000014852E+02 0.  0.
         12    1    1    2    0    0 -0.24574214157E+02 -0.32614714415E+02 -0.19013199200E+02  0.45045680610E+02  0.00000000000E+00 0. -1.
         11    1    3    3    0    0  0.99449884902E+01  0.10521191796E+02  0.40204490169E+01  0.15025387963E+02  0.51100000000E-03 0. -1.
        -11    1    3    3    0    0  0.12863362059E+02  0.15152969679E+02  0.91843034154E+01  0.21895890095E+02  0.51100000000E-03 0.  1.
         12    1    3    3    0    0  0.17658636080E+01  0.69405529395E+01  0.58084467678E+01  0.92210413318E+01  0.00000000000E+00 0. -1.
</event>
<event>
 7    1  0.2243370E-008  0.4614232E+02  0.7816164E-02  0.1320468E+00
        -11   -1    0    0    0    0  0.00000000000E+00  0.00000000000E+00  0.45593999997E+02  0.45594000000E+02  0.51100000000E-03 0. -1.
         11   -1    0    0    0    0 -0.00000000000E+00 -0.00000000000E+00 -0.45593999997E+02  0.45594000000E+02  0.51100000000E-03 0.  1.
    9900012    2    1    2    0    0  0.43110096001E+02  0.12871972193E+02  0.22238432979E+01  0.46142317362E+02  0.99999963576E+01 0.  0.
         12    1    1    2    0    0 -0.43110096001E+02 -0.12871972193E+02 -0.22238432979E+01  0.45045682638E+02  0.00000000000E+00 0. -1.
         11    1    3    3    0    0  0.51766458385E+01  0.15895939058E+01  0.26781066844E+00  0.54218256832E+01  0.51100000000E-03 0. -1.
        -11    1    3    3    0    0  0.28038722534E+02  0.39068771778E+01  0.73562863847E+00  0.28319159599E+02  0.51100000000E-03 0.  1.
         12    1    3    3    0    0  0.98947276280E+01  0.73755011092E+01  0.12204039910E+01  0.12401332079E+02  0.00000000000E+00 0. -1.
</event>
<event>
 7    1  0.2243370E-008  0.4614232E+02  0.7816164E-02  0.1320468E+00
        -11   -1    0    0    0    0  0.00000000000E+00  0.00000000000E+00  0.45593999997E+02  0.45594000000E+02  0.51100000000E-03 0.  1.
         11   -1    0    0    0    0 -0.00000000000E+00 -0.00000000000E+00 -0.45593999997E+02  0.45594000000E+02  0.51100000000E-03 0. -1.
    9900012    2    1    2    0    0 -0.35640992449E+02  0.48561577857E+01  0.27115508719E+02  0.46142318472E+02  0.10000006486E+02 0.  0.
         12    1    1    2    0    0  0.35640992449E+02 -0.48561577857E+01 -0.27115508719E+02  0.45045681528E+02  0.00000000000E+00 0. -1.
         11    1    3    3    0    0 -0.91777954917E+01 -0.72716228552E+00  0.48278592666E+01  0.10395620253E+02  0.51100000000E-03 0. -1.
        -11    1    3    3    0    0 -0.14759844758E+02  0.64753500523E+01  0.14322376032E+02  0.21561855927E+02  0.51100000000E-03 0.  1.
        -12    1    3    3    0    0 -0.11703352200E+02 -0.89202998109E+00  0.79652734207E+01  0.14184842292E+02  0.00000000000E+00 0.  1.
</event>
<event>
 7    1  0.2243370E-008  0.4614232E+02  0.7816164E-02  0.1320468E+00
        -11   -1    0    0    0    0  0.00000000000E+00  0.00000000000E+00  0.45593999997E+02  0.45594000000E+02  0.51100000000E-03 0.  1.
         11   -1    0    0    0    0 -0.00000000000E+00 -0.00000000000E+00 -0.45593999997E+02  0.45594000000E+02  0.51100000000E-03 0. -1.
    9900012    2    1    2    0    0  0.31237558927E+02  0.26541263856E+02  0.18678587914E+02  0.46142318506E+02  0.10000006793E+02 0.  0.
         12    1    1    2    0    0 -0.31237558927E+02 -0.26541263856E+02 -0.18678587914E+02  0.45045681494E+02  0.00000000000E+00 0. -1.
         11    1    3    3    0    0  0.20463607677E+02  0.18628040635E+02  0.13959533253E+02  0.30994059204E+02  0.51100000000E-03 0. -1.
        -11    1    3    3    0    0  0.10533284195E+02  0.65609304485E+01  0.54938848664E+01  0.13571243697E+02  0.51100000000E-03 0.  1.
         12    1    3    3    0    0  0.24066705514E+00  0.13522927719E+01 -0.77483020495E+00  0.15770156051E+01  0.00000000000E+00 0. -1.
</event>
<event>
 7    1  0.2243370E-008  0.4614232E+02  0.7816164E-02  0.1320468E+00
        -11   -1    0    0    0    0  0.00000000000E+00  0.00000000000E+00  0.45593999997E+02  0.45594000000E+02  0.51100000000E-03 0.  1.
         11   -1    0    0    0    0 -0.00000000000E+00 -0.00000000000E+00 -0.45593999997E+02  0.45594000000E+02  0.51100000000E-03 0. -1.
    9900012    2    1    2    0    0  0.10668232300E+02 -0.41902665722E+02  0.12628102225E+02  0.46142317179E+02  0.99999946929E+01 0.  0.
         12    1    1    2    0    0 -0.10668232300E+02  0.41902665722E+02 -0.12628102225E+02  0.45045682821E+02  0.00000000000E+00 0. -1.
         11    1    3    3    0    0 -0.64525925933E+00 -0.93616505977E+01  0.31139431826E+01  0.98870371614E+01  0.51100000000E-03 0. -1.
        -11    1    3    3    0    0  0.11590970823E+02 -0.32471618748E+02  0.98069563904E+01  0.35845962432E+02  0.51100000000E-03 0.  1.
        -12    1    3    3    0    0 -0.27747926409E+00 -0.69396376146E-01 -0.29279734846E+00  0.40931758610E+00  0.00000000000E+00 0.  1.
</event>
<event>
 7    1  0.2243370E-008  0.4614232E+02  0.7816164E-02  0.1320468E+00
        -11   -1    0    0    0    0  0.00000000000E+00  0.00000000000E+00  0.45593999997E+02  0.45594000000E+02  0.51100000000E-03 0.  1.
         11   -1    0    0    0    0 -0.00000000000E+00 -0.00000000000E+00 -0.45593999997E+02  0.45594000000E+02  0.51100000000E-03 0. -1.
    9900012    2    1    2    0    0 -0.14850767326E+02 -0.38839130274E+02  0.17323111729E+02  0.46142317292E+02  0.99999957257E+01 0.  0.
         12    1    1    2    0    0  0.14850767326E+02  0.38839130274E+02 -0.17323111729E+02  0.45045682708E+02  0.00000000000E+00 0. -1.
         11    1    3    3    0    0 -0.31794210110E+00  0.25699220999E+00  0.37942669264E+00  0.55776074787E+00  0.51100000000E-03 0. -1.
        -11    1    3    3    0    0 -0.92247948514E+01 -0.19314761320E+02  0.11905595783E+02  0.24492857247E+02  0.51100000000E-03 0.  1.
         12    1    3    3    0    0 -0.53080303736E+01 -0.19781361164E+02  0.50380892539E+01  0.21091699298E+02  0.00000000000E+00 0. -1.
</event>
<event>
 7    1  0.2243370E-008  0.4614232E+02  0.7816164E-02  0.1320468E+00
        -11   -1    0    0    0    0  0.00000000000E+00  0.00000000000E+00  0.45593999997E+02  0.45594000000E+02  0.51100000000E-03 0. -1.
         11   -1    0    0    0    0 -0.00000000000E+00 -0.00000000000E+00 -0.45593999997E+02  0.45594000000E+02  0.51100000000E-03 0.  1.
    9900012    2    1    2    0    0 -0.22552696337E+01  0.44561312697E+02  0.61900370794E+01  0.46142318859E+02  0.10000010008E+02 0.  0.
         12    1    1    2    0    0  0.22552696337E+01 -0.44561312697E+02 -0.61900370794E+01  0.45045681141E+02  0.00000000000E+00 0. -1.
         11    1    3    3    0    0 -0.38011914973E+01  0.10254237170E+02 -0.78198554929E+00  0.10964029296E+02  0.51100000000E-03 0. -1.
        -11    1    3    3    0    0  0.52882752019E+00  0.16904984695E+02  0.49910268971E+01  0.17634299414E+02  0.51100000000E-03 0.  1.
        -12    1    3    3    0    0  0.10170943434E+01  0.17402090832E+02  0.19809957316E+01  0.17543990149E+02  0.00000000000E+00 0.  1.
</event>
<event>
 7    1  0.2243370E-008  0.4614232E+02  0.7816164E-02  0.1320468E+00
        -11   -1    0    0    0    0  0.00000000000E+00  0.00000000000E+00  0.45593999997E+02  0.45594000000E+02  0.51100000000E-03 0. -1.
         11   -1    0    0    0    0 -0.00000000000E+00 -0.00000000000E+00 -0.45593999997E+02  0.45594000000E+02  0.51100000000E-03 0.  1.
    9900012    2    1    2    0    0 -0.34398081211E+02 -0.25718245028E+02  0.13581507716E+02  0.46142317964E+02  0.10000001846E+02 0.  0.
         12    1    1    2    0    0  0.34398081211E+02  0.25718245028E+02 -0.13581507716E+02  0.45045682036E+02  0.00000000000E+00 0. -1.
         11    1    3    3    0    0 -0.79427656786E+01 -0.28459837772E+01  0.34304959862E+01  0.91079884309E+01  0.51100000000E-03 0. -1.
        -11    1    3    3    0    0 -0.26519758803E+02 -0.22101370120E+02  0.10633565853E+02  0.36122581458E+02  0.51100000000E-03 0.  1.
         12    1    3    3    0    0  0.64443270194E-01 -0.77089113005E+00 -0.48255412401E+00  0.91174807489E+00  0.00000000000E+00 0. -1.
</event>
<event>
 7    1  0.2243370E-008  0.4614232E+02  0.7816164E-02  0.1320468E+00
        -11   -1    0    0    0    0  0.00000000000E+00  0.00000000000E+00  0.45593999997E+02  0.45594000000E+02  0.51100000000E-03 0.  1.
         11   -1    0    0    0    0 -0.00000000000E+00 -0.00000000000E+00 -0.45593999997E+02  0.45594000000E+02  0.51100000000E-03 0. -1.
    9900012    2    1    2    0    0  0.38374196116E+02 -0.22372348302E+02 -0.74841532228E+01  0.46142318236E+02  0.10000004332E+02 0.  0.
         12    1    1    2    0    0 -0.38374196116E+02  0.22372348302E+02  0.74841532228E+01  0.45045681764E+02  0.00000000000E+00 0. -1.
         11    1    3    3    0    0  0.12625985379E+02 -0.86591155426E+01 -0.36347540663E+01  0.15735540225E+02  0.51100000000E-03 0.  1.
        -11    1    3    3    0    0  0.14793016369E+02 -0.52964215630E+01 -0.51387959374E+01  0.16531564917E+02  0.51100000000E-03 0. -1.
        -12    1    3    3    0    0  0.10955194368E+02 -0.84168111965E+01  0.12893967809E+01  0.13875213094E+02  0.00000000000E+00 0.  1.
</event>
<event>
 7    1  0.2243370E-008  0.4614232E+02  0.7816164E-02  0.1320468E+00
        -11   -1    0    0    0    0  0.00000000000E+00  0.00000000000E+00  0.45593999997E+02  0.45594000000E+02  0.51100000000E-03 0.  1.
         11   -1    0    0    0    0 -0.00000000000E+00 -0.00000000000E+00 -0.45593999997E+02  0.45594000000E+02  0.51100000000E-03 0. -1.
    9900012    2    1    2    0    0 -0.49721992283E+01 -0.22134112529E+02  0.38916213948E+02  0.46142318624E+02  0.10000007868E+02 0.  0.
         12    1    1    2    0    0  0.49721992283E+01  0.22134112529E+02 -0.38916213948E+02  0.45045681376E+02  0.00000000000E+00 0. -1.
         11    1    3    3    0    0 -0.28311259562E+01 -0.46360472601E+01  0.72846821616E+01  0.90870678898E+01  0.51100000000E-03 0. -1.
        -11    1    3    3    0    0 -0.12002369960E+01 -0.18076328804E+02  0.30497061238E+02  0.35472030902E+02  0.51100000000E-03 0.  1.
        -12    1    3    3    0    0 -0.94083627609E+00  0.57826353469E+00  0.11344705476E+01  0.15832198323E+01  0.00000000000E+00 0.  1.
</event>
<event>
 7    1  0.2243370E-008  0.4614232E+02  0.7816164E-02  0.1320468E+00
        -11   -1    0    0    0    0  0.00000000000E+00  0.00000000000E+00  0.45593999997E+02  0.45594000000E+02  0.51100000000E-03 0.  1.
         11   -1    0    0    0    0 -0.00000000000E+00 -0.00000000000E+00 -0.45593999997E+02  0.45594000000E+02  0.51100000000E-03 0. -1.
    9900012    2    1    2    0    0 -0.13113133986E+02  0.22596846643E+02  0.36695254798E+02  0.46142317790E+02  0.10000000261E+02 0.  0.
         12    1    1    2    0    0  0.13113133986E+02 -0.22596846643E+02 -0.36695254798E+02  0.45045682210E+02  0.00000000000E+00 0. -1.
         11    1    3    3    0    0 -0.80838542682E-01  0.76559623980E+01  0.97291015410E+01  0.12380456864E+02  0.51100000000E-03 0. -1.
        -11    1    3    3    0    0 -0.11900917276E+02  0.13487508690E+02  0.26169527925E+02  0.31755139973E+02  0.51100000000E-03 0.  1.
         12    1    3    3    0    0 -0.11313781673E+01  0.14533755548E+01  0.79662533226E+00  0.20067209524E+01  0.00000000000E+00 0. -1.
</event>
<event>
 7    1  0.2243370E-008  0.4614232E+02  0.7816164E-02  0.1320468E+00
        -11   -1    0    0    0    0  0.00000000000E+00  0.00000000000E+00  0.45593999997E+02  0.45594000000E+02  0.51100000000E-03 0. -1.
         11   -1    0    0    0    0 -0.00000000000E+00 -0.00000000000E+00 -0.45593999997E+02  0.45594000000E+02  0.51100000000E-03 0.  1.
    9900012    2    1    2    0    0 -0.14891984613E+02  0.30134195288E+02 -0.29987874048E+02  0.46142317396E+02  0.99999966671E+01 0.  0.
         12    1    1    2    0    0  0.14891984613E+02 -0.30134195288E+02  0.29987874048E+02  0.45045682604E+02  0.00000000000E+00 0. -1.
         11    1    3    3    0    0 -0.18314687572E+01  0.17841079028E+01 -0.77169308030E+00  0.26707357205E+01  0.51100000000E-03 0. -1.
        -11    1    3    3    0    0 -0.11920431356E+02  0.17354004589E+02 -0.20600969570E+02  0.29456036843E+02  0.51100000000E-03 0.  1.
         12    1    3    3    0    0 -0.11400845004E+01  0.10996082796E+02 -0.86152113976E+01  0.14015544832E+02  0.00000000000E+00 0. -1.
</event>
<event>
 7    1  0.2243370E-008  0.4614232E+02  0.7816164E-02  0.1320468E+00
        -11   -1    0    0    0    0  0.00000000000E+00  0.00000000000E+00  0.45593999997E+02  0.45594000000E+02  0.51100000000E-03 0. -1.
         11   -1    0    0    0    0 -0.00000000000E+00 -0.00000000000E+00 -0.45593999997E+02  0.45594000000E+02  0.51100000000E-03 0.  1.
    9900012    2    1    2    0    0 -0.19186767720E+02  0.40785483017E+01 -0.40550545788E+02  0.46142319014E+02  0.10000011427E+02 0.  0.
         12    1    1    2    0    0  0.19186767720E+02 -0.40785483017E+01  0.40550545788E+02  0.45045680986E+02  0.00000000000E+00 0. -1.
         11    1    3    3    0    0 -0.36536339900E+01  0.22558254906E+01 -0.14128779756E+02  0.14766861807E+02  0.51100000000E-03 0. -1.
        -11    1    3    3    0    0 -0.74141737289E+01  0.40750951414E+01 -0.14243606375E+02  0.16566734600E+02  0.51100000000E-03 0.  1.
         12    1    3    3    0    0 -0.81189600013E+01 -0.22523723303E+01 -0.12178159657E+02  0.14808722607E+02  0.00000000000E+00 0. -1.
</event>
<event>
 7    1  0.2243370E-008  0.4614232E+02  0.7816164E-02  0.1320468E+00
        -11   -1    0    0    0    0  0.00000000000E+00  0.00000000000E+00  0.45593999997E+02  0.45594000000E+02  0.51100000000E-03 0.  1.
         11   -1    0    0    0    0 -0.00000000000E+00 -0.00000000000E+00 -0.45593999997E+02  0.45594000000E+02  0.51100000000E-03 0. -1.
    9900012    2    1    2    0    0  0.24750796752E+02  0.18925262415E+02  0.32532229687E+02  0.46142318013E+02  0.10000002293E+02 0.  0.
         12    1    1    2    0    0 -0.24750796752E+02 -0.18925262415E+02 -0.32532229687E+02  0.45045681987E+02  0.00000000000E+00 0. -1.
         11    1    3    3    0    0  0.20846948473E+01  0.39608965622E+01  0.59061117101E+01  0.74105876944E+01  0.51100000000E-03 0. -1.
        -11    1    3    3    0    0  0.19509032531E+02  0.10985633629E+02  0.18027418618E+02  0.28744987716E+02  0.51100000000E-03 0.  1.
        -12    1    3    3    0    0  0.31570693737E+01  0.39787322244E+01  0.85986993586E+01  0.99867426022E+01  0.00000000000E+00 0.  1.
</event>
<event>
 7    1  0.2243370E-008  0.4614232E+02  0.7816164E-02  0.1320468E+00
        -11   -1    0    0    0    0  0.00000000000E+00  0.00000000000E+00  0.45593999997E+02  0.45594000000E+02  0.51100000000E-03 0.  1.
         11   -1    0    0    0    0 -0.00000000000E+00 -0.00000000000E+00 -0.45593999997E+02  0.45594000000E+02  0.51100000000E-03 0. -1.
    9900012    2    1    2    0    0 -0.13780462193E+02 -0.32508970973E+02  0.27971040289E+02  0.46142318445E+02  0.10000006233E+02 0.  0.
         12    1    1    2    0    0  0.13780462193E+02  0.32508970973E+02 -0.27971040289E+02  0.45045681555E+02  0.00000000000E+00 0. -1.
         11    1    3    3    0    0  0.12008331798E+01 -0.11418262460E+01  0.12219690854E+01  0.20588774146E+01  0.51100000000E-03 0. -1.
        -11    1    3    3    0    0 -0.53489168167E+01 -0.15659728294E+02  0.14017386059E+02  0.21686980277E+02  0.51100000000E-03 0.  1.
        -12    1    3    3    0    0 -0.96323785561E+01 -0.15707416433E+02  0.12731685144E+02  0.22396460753E+02  0.00000000000E+00 0.  1.
</event>
<event>
 7    1  0.2243370E-008  0.4614232E+02  0.7816164E-02  0.1320468E+00
        -11   -1    0    0    0    0  0.00000000000E+00  0.00000000000E+00  0.45593999997E+02  0.45594000000E+02  0.51100000000E-03 0.  1.
         11   -1    0    0    0    0 -0.00000000000E+00 -0.00000000000E+00 -0.45593999997E+02  0.45594000000E+02  0.51100000000E-03 0. -1.
    9900012    2    1    2    0    0 -0.30937034610E+02  0.29096361967E+01  0.32612074673E+02  0.46142317547E+02  0.99999980439E+01 0.  0.
         12    1    1    2    0    0  0.30937034610E+02 -0.29096361967E+01 -0.32612074673E+02  0.45045682453E+02  0.00000000000E+00 0. -1.
         11    1    3    3    0    0 -0.15257407842E+02  0.16985105671E+01  0.22910662289E+02  0.27578467669E+02  0.51100000000E-03 0. -1.
        -11    1    3    3    0    0 -0.63352067129E+01 -0.28466107155E+00  0.43769125201E+01  0.77054032659E+01  0.51100000000E-03 0.  1.
         12    1    3    3    0    0 -0.93444200549E+01  0.14957867012E+01  0.53244998638E+01  0.10858446612E+02  0.00000000000E+00 0. -1.
</event>
<event>
 7    1  0.2243370E-008  0.4614232E+02  0.7816164E-02  0.1320468E+00
        -11   -1    0    0    0    0  0.00000000000E+00  0.00000000000E+00  0.45593999997E+02  0.45594000000E+02  0.51100000000E-03 0. -1.
         11   -1    0    0    0    0 -0.00000000000E+00 -0.00000000000E+00 -0.45593999997E+02  0.45594000000E+02  0.51100000000E-03 0.  1.
    9900012    2    1    2    0    0 -0.10645568993E+01  0.15597797804E+02 -0.42245576979E+02  0.46142319274E+02  0.10000013798E+02 0.  0.
         12    1    1    2    0    0  0.10645568993E+01 -0.15597797804E+02  0.42245576979E+02  0.45045680726E+02  0.00000000000E+00 0. -1.
         11    1    3    3    0    0  0.19259400937E+01  0.74492104332E+01 -0.93770741533E+01  0.12129695019E+02  0.51100000000E-03 0. -1.
        -11    1    3    3    0    0 -0.11893953720E+01  0.40342529015E+01 -0.14080091539E+02  0.14694857463E+02  0.51100000000E-03 0.  1.
         12    1    3    3    0    0 -0.18011016210E+01  0.41143344697E+01 -0.18788411287E+02  0.19317766793E+02  0.00000000000E+00 0. -1.
</event>
<event>
 7    1  0.2243370E-008  0.4614232E+02  0.7816164E-02  0.1320468E+00
        -11   -1    0    0    0    0  0.00000000000E+00  0.00000000000E+00  0.45593999997E+02  0.45594000000E+02  0.51100000000E-03 0.  1.
         11   -1    0    0    0    0 -0.00000000000E+00 -0.00000000000E+00 -0.45593999997E+02  0.45594000000E+02  0.51100000000E-03 0. -1.
    9900012    2    1    2    0    0 -0.11128815045E+02 -0.41502182444E+02  0.13521535714E+02  0.46142316522E+02  0.99999887038E+01 0.  0.
         12    1    1    2    0    0  0.11128815045E+02  0.41502182444E+02 -0.13521535714E+02  0.45045683478E+02  0.00000000000E+00 0. -1.
         11    1    3    3    0    0 -0.42809643451E+01 -0.28339736413E+02  0.82498170398E+01  0.29824935827E+02  0.51100000000E-03 0. -1.
        -11    1    3    3    0    0  0.30884368754E+00 -0.15410830534E+00 -0.30195714151E+00  0.45859804790E+00  0.51100000000E-03 0.  1.
        -12    1    3    3    0    0 -0.71566943875E+01 -0.13008337726E+02  0.55736758155E+01  0.15858782647E+02  0.00000000000E+00 0.  1.
</event>
<event>
 7    1  0.2243370E-008  0.4614232E+02  0.7816164E-02  0.1320468E+00
        -11   -1    0    0    0    0  0.00000000000E+00  0.00000000000E+00  0.45593999997E+02  0.45594000000E+02  0.51100000000E-03 0.  1.
         11   -1    0    0    0    0 -0.00000000000E+00 -0.00000000000E+00 -0.45593999997E+02  0.45594000000E+02  0.51100000000E-03 0. -1.
    9900012    2    1    2    0    0  0.65446169426E+01  0.34068071230E+02  0.28734090866E+02  0.46142318008E+02  0.10000002250E+02 0.  0.
         12    1    1    2    0    0 -0.65446169426E+01 -0.34068071230E+02 -0.28734090866E+02  0.45045681992E+02  0.00000000000E+00 0. -1.
         11    1    3    3    0    0 -0.37358736683E+00  0.16096281008E+00  0.76126340008E+00  0.86313311389E+00  0.51100000000E-03 0.  1.
        -11    1    3    3    0    0  0.16429236055E+01  0.43449183649E+00  0.16742070722E+01  0.23855713595E+01  0.51100000000E-03 0. -1.
        -12    1    3    3    0    0  0.52752807039E+01  0.33472616583E+02  0.26298620393E+02  0.42893613534E+02  0.00000000000E+00 0.  1.
</event>
<event>
 7    1  0.2243370E-008  0.4614232E+02  0.7816164E-02  0.1320468E+00
        -11   -1    0    0    0    0  0.00000000000E+00  0.00000000000E+00  0.45593999997E+02  0.45594000000E+02  0.51100000000E-03 0. -1.
         11   -1    0    0    0    0 -0.00000000000E+00 -0.00000000000E+00 -0.45593999997E+02  0.45594000000E+02  0.51100000000E-03 0.  1.
    9900012    2    1    2    0    0  0.40938515534E+02 -0.61110920662E+01 -0.17770928486E+02  0.46142318746E+02  0.10000008984E+02 0.  0.
         12    1    1    2    0    0 -0.40938515534E+02  0.61110920662E+01  0.17770928486E+02  0.45045681254E+02  0.00000000000E+00 0. -1.
         11    1    3    3    0    0  0.35707558601E+01 -0.62845143983E+00 -0.39855504791E+01  0.53879366651E+01  0.51100000000E-03 0. -1.
        -11    1    3    3    0    0  0.12640432615E+02  0.12829518646E+01 -0.41197536833E+01  0.13356604091E+02  0.51100000000E-03 0.  1.
        -12    1    3    3    0    0  0.24727327059E+02 -0.67655924910E+01 -0.96656243238E+01  0.27397777990E+02  0.00000000000E+00 0.  1.
</event>
<event>
 7    1  0.2243370E-008  0.4614232E+02  0.7816164E-02  0.1320468E+00
        -11   -1    0    0    0    0  0.00000000000E+00  0.00000000000E+00  0.45593999997E+02  0.45594000000E+02  0.51100000000E-03 0.  1.
         11   -1    0    0    0    0 -0.00000000000E+00 -0.00000000000E+00 -0.45593999997E+02  0.45594000000E+02  0.51100000000E-03 0. -1.
    9900012    2    1    2    0    0  0.22684927759E+02 -0.12760329709E+02  0.36765219958E+02  0.46142319183E+02  0.10000012968E+02 0.  0.
         12    1    1    2    0    0 -0.22684927759E+02  0.12760329709E+02 -0.36765219958E+02  0.45045680817E+02  0.00000000000E+00 0. -1.
         11    1    3    3    0    0  0.56647516775E+01 -0.62563420048E+01  0.82018505581E+01  0.11768669410E+02  0.51100000000E-03 0. -1.
        -11    1    3    3    0    0  0.82667808564E+01 -0.54970193600E+01  0.11677196462E+02  0.15326898090E+02  0.51100000000E-03 0.  1.
         12    1    3    3    0    0  0.87533952252E+01 -0.10069683437E+01  0.16886172937E+02  0.19046751683E+02  0.00000000000E+00 0. -1.
</event>
<event>
 7    1  0.2243370E-008  0.4614232E+02  0.7816164E-02  0.1320468E+00
        -11   -1    0    0    0    0  0.00000000000E+00  0.00000000000E+00  0.45593999997E+02  0.45594000000E+02  0.51100000000E-03 0.  1.
         11   -1    0    0    0    0 -0.00000000000E+00 -0.00000000000E+00 -0.45593999997E+02  0.45594000000E+02  0.51100000000E-03 0. -1.
    9900012    2    1    2    0    0  0.74923236350E+01 -0.22724538211E+02  0.38165087570E+02  0.46142318080E+02  0.10000002910E+02 0.  0.
         12    1    1    2    0    0 -0.74923236350E+01  0.22724538211E+02 -0.38165087570E+02  0.45045681920E+02  0.00000000000E+00 0. -1.
         11    1    3    3    0    0 -0.59585757804E+00 -0.22331567743E+01  0.40203312492E+01  0.46373590595E+01  0.51100000000E-03 0. -1.
        -11    1    3    3    0    0  0.34987826579E+01 -0.16662806226E+02  0.28953080147E+02  0.33588263451E+02  0.51100000000E-03 0.  1.
         12    1    3    3    0    0  0.45893985551E+01 -0.38285752113E+01  0.51916761742E+01  0.79166955698E+01  0.00000000000E+00 0. -1.
</event>
<event>
 7    1  0.2243370E-008  0.4614232E+02  0.7816164E-02  0.1320468E+00
        -11   -1    0    0    0    0  0.00000000000E+00  0.00000000000E+00  0.45593999997E+02  0.45594000000E+02  0.51100000000E-03 0. -1.
         11   -1    0    0    0    0 -0.00000000000E+00 -0.00000000000E+00 -0.45593999997E+02  0.45594000000E+02  0.51100000000E-03 0.  1.
    9900012    2    1    2    0    0  0.12554064368E+01 -0.32647192073E+02 -0.31011262894E+02  0.46142316280E+02  0.99999864900E+01 0.  0.
         12    1    1    2    0    0 -0.12554064368E+01  0.32647192073E+02  0.31011262894E+02  0.45045683720E+02  0.00000000000E+00 0. -1.
         11    1    3    3    0    0 -0.75354276777E+00 -0.11072684789E+02 -0.74962312628E+01  0.13392746490E+02  0.51100000000E-03 0. -1.
        -11    1    3    3    0    0  0.28294774567E+01 -0.20301304784E+02 -0.18859101150E+02  0.27853448890E+02  0.51100000000E-03 0.  1.
         12    1    3    3    0    0 -0.82052825215E+00 -0.12732024996E+01 -0.46559304812E+01  0.48961208996E+01  0.00000000000E+00 0. -1.
</event>
<event>
 7    1  0.2243370E-008  0.4614232E+02  0.7816164E-02  0.1320468E+00
        -11   -1    0    0    0    0  0.00000000000E+00  0.00000000000E+00  0.45593999997E+02  0.45594000000E+02  0.51100000000E-03 0.  1.
         11   -1    0    0    0    0 -0.00000000000E+00 -0.00000000000E+00 -0.45593999997E+02  0.45594000000E+02  0.51100000000E-03 0. -1.
    9900012    2    1    2    0    0  0.24360249334E+02 -0.32111610023E+02  0.20113077744E+02  0.46142321603E+02  0.10000035033E+02 0.  0.
         12    1    1    2    0    0 -0.24360249334E+02  0.32111610023E+02 -0.20113077744E+02  0.45045678397E+02  0.00000000000E+00 0. -1.
         11    1    3    3    0    0  0.14588748335E+02 -0.15705817487E+02  0.13813738467E+02  0.25501444108E+02  0.51100000000E-03 0. -1.
        -11    1    3    3    0    0  0.61993819707E+01 -0.11179083324E+02  0.64293853794E+01  0.14308781828E+02  0.51100000000E-03 0.  1.
        -12    1    3    3    0    0  0.35721190285E+01 -0.52267092121E+01 -0.13004610240E+00  0.63320956666E+01  0.00000000000E+00 0.  1.
</event>
<event>
 7    1  0.2243370E-008  0.4614232E+02  0.7816164E-02  0.1320468E+00
        -11   -1    0    0    0    0  0.00000000000E+00  0.00000000000E+00  0.45593999997E+02  0.45594000000E+02  0.51100000000E-03 0. -1.
         11   -1    0    0    0    0 -0.00000000000E+00 -0.00000000000E+00 -0.45593999997E+02  0.45594000000E+02  0.51100000000E-03 0.  1.
    9900012    2    1    2    0    0  0.19825657911E+02  0.26779302856E+02  0.30313786592E+02  0.46142318403E+02  0.10000005850E+02 0.  0.
         12    1    1    2    0    0 -0.19825657911E+02 -0.26779302856E+02 -0.30313786592E+02  0.45045681597E+02  0.00000000000E+00 0. -1.
         11    1    3    3    0    0  0.11162804287E+01  0.17605782912E+01  0.55863465112E+01  0.59626324320E+01  0.51100000000E-03 0. -1.
        -11    1    3    3    0    0  0.10092296619E+02  0.17017058133E+02  0.17213269833E+02  0.26224633022E+02  0.51100000000E-03 0.  1.
        -12    1    3    3    0    0  0.86170808627E+01  0.80016664317E+01  0.75141702478E+01  0.13955052948E+02  0.00000000000E+00 0.  1.
</event>
<event>
 7    1  0.2243370E-008  0.4614232E+02  0.7816164E-02  0.1320468E+00
        -11   -1    0    0    0    0  0.00000000000E+00  0.00000000000E+00  0.45593999997E+02  0.45594000000E+02  0.51100000000E-03 0. -1.
         11   -1    0    0    0    0 -0.00000000000E+00 -0.00000000000E+00 -0.45593999997E+02  0.45594000000E+02  0.51100000000E-03 0.  1.
    9900012    2    1    2    0    0 -0.43158158162E+02  0.56828466153E+01  0.11584136261E+02  0.46142316805E+02  0.99999912783E+01 0.  0.
         12    1    1    2    0    0  0.43158158162E+02 -0.56828466153E+01 -0.11584136261E+02  0.45045683195E+02  0.00000000000E+00 0. -1.
         11    1    3    3    0    0 -0.47561271182E+01 -0.17577630797E+01  0.19902081983E+01  0.54471465138E+01  0.51100000000E-03 0. -1.
        -11    1    3    3    0    0 -0.30041926965E+02  0.42785830674E+01  0.53990746211E+01  0.30821642654E+02  0.51100000000E-03 0.  1.
        -12    1    3    3    0    0 -0.83601040787E+01  0.31620266276E+01  0.41948534416E+01  0.98735276369E+01  0.00000000000E+00 0.  1.
</event>
<event>
 7    1  0.2243370E-008  0.4614232E+02  0.7816164E-02  0.1320468E+00
        -11   -1    0    0    0    0  0.00000000000E+00  0.00000000000E+00  0.45593999997E+02  0.45594000000E+02  0.51100000000E-03 0.  1.
         11   -1    0    0    0    0 -0.00000000000E+00 -0.00000000000E+00 -0.45593999997E+02  0.45594000000E+02  0.51100000000E-03 0. -1.
    9900012    2    1    2    0    0 -0.13386600663E+02  0.26381717845E+02  0.33969361004E+02  0.46142316514E+02  0.99999886258E+01 0.  0.
         12    1    1    2    0    0  0.13386600663E+02 -0.26381717845E+02 -0.33969361004E+02  0.45045683486E+02  0.00000000000E+00 0. -1.
         11    1    3    3    0    0  0.48464688108E+00  0.19732468760E+01  0.16019618528E+01  0.25874442741E+01  0.51100000000E-03 0. -1.
        -11    1    3    3    0    0 -0.87571773290E+01  0.17438741995E+02  0.27225140910E+02  0.33496360623E+02  0.51100000000E-03 0.  1.
        -12    1    3    3    0    0 -0.51140702154E+01  0.69697289731E+01  0.51422582408E+01  0.10058511617E+02  0.00000000000E+00 0.  1.
</event>
<event>
 7    1  0.2243370E-008  0.4614232E+02  0.7816164E-02  0.1320468E+00
        -11   -1    0    0    0    0  0.00000000000E+00  0.00000000000E+00  0.45593999997E+02  0.45594000000E+02  0.51100000000E-03 0. -1.
         11   -1    0    0    0    0 -0.00000000000E+00 -0.00000000000E+00 -0.45593999997E+02  0.45594000000E+02  0.51100000000E-03 0.  1.
    9900012    2    1    2    0    0  0.13448384330E+02  0.27240453169E+02 -0.33259767716E+02  0.46142317871E+02  0.10000001005E+02 0.  0.
         12    1    1    2    0    0 -0.13448384330E+02 -0.27240453169E+02  0.33259767716E+02  0.45045682129E+02  0.00000000000E+00 0. -1.
         11    1    3    3    0    0  0.13713543617E+01  0.78493576798E+01 -0.77241810710E+01  0.11097567402E+02  0.51100000000E-03 0. -1.
        -11    1    3    3    0    0  0.11952897576E+02  0.19999159181E+02 -0.25264216812E+02  0.34367408686E+02  0.51100000000E-03 0.  1.
         12    1    3    3    0    0  0.12413239194E+00 -0.60806369223E+00 -0.27136983269E+00  0.67734178272E+00  0.00000000000E+00 0. -1.
</event>
<event>
 7    1  0.2243370E-008  0.4614232E+02  0.7816164E-02  0.1320468E+00
        -11   -1    0    0    0    0  0.00000000000E+00  0.00000000000E+00  0.45593999997E+02  0.45594000000E+02  0.51100000000E-03 0. -1.
         11   -1    0    0    0    0 -0.00000000000E+00 -0.00000000000E+00 -0.45593999997E+02  0.45594000000E+02  0.51100000000E-03 0.  1.
    9900012    2    1    2    0    0 -0.38794040329E+02 -0.20446876633E+02 -0.10298601159E+02  0.46142317466E+02  0.99999973089E+01 0.  0.
         12    1    1    2    0    0  0.38794040329E+02  0.20446876633E+02  0.10298601159E+02  0.45045682534E+02  0.00000000000E+00 0. -1.
         11    1    3    3    0    0 -0.31949156755E+01 -0.29727745654E+00  0.92975629977E+00  0.33407045811E+01  0.51100000000E-03 0. -1.
        -11    1    3    3    0    0 -0.93328827582E+01 -0.61695634826E+01 -0.59441759394E+00  0.11203550628E+02  0.51100000000E-03 0.  1.
        -12    1    3    3    0    0 -0.26266241896E+02 -0.13980035694E+02 -0.10633939865E+02  0.31598062257E+02  0.00000000000E+00 0.  1.
</event>
<event>
 7    1  0.2243370E-008  0.4614232E+02  0.7816164E-02  0.1320468E+00
        -11   -1    0    0    0    0  0.00000000000E+00  0.00000000000E+00  0.45593999997E+02  0.45594000000E+02  0.51100000000E-03 0. -1.
         11   -1    0    0    0    0 -0.00000000000E+00 -0.00000000000E+00 -0.45593999997E+02  0.45594000000E+02  0.51100000000E-03 0.  1.
    9900012    2    1    2    0    0  0.33036299856E+02  0.30547833864E+02 -0.21322388159E+01  0.46142315364E+02  0.99999781423E+01 0.  0.
         12    1    1    2    0    0 -0.33036299856E+02 -0.30547833864E+02  0.21322388159E+01  0.45045684636E+02  0.00000000000E+00 0. -1.
         11    1    3    3    0    0  0.67270077623E+01  0.82227948105E+01  0.83817454451E+00  0.10656900335E+02  0.51100000000E-03 0. -1.
        -11    1    3    3    0    0  0.24981407190E+02  0.20199425657E+02 -0.46606609809E+01  0.32462428485E+02  0.51100000000E-03 0.  1.
        -12    1    3    3    0    0  0.13278849032E+01  0.21256133964E+01  0.16902476204E+01  0.30229865440E+01  0.00000000000E+00 0.  1.
</event>
<event>
 7    1  0.2243370E-008  0.4614232E+02  0.7816164E-02  0.1320468E+00
        -11   -1    0    0    0    0  0.00000000000E+00  0.00000000000E+00  0.45593999997E+02  0.45594000000E+02  0.51100000000E-03 0.  1.
         11   -1    0    0    0    0 -0.00000000000E+00 -0.00000000000E+00 -0.45593999997E+02  0.45594000000E+02  0.51100000000E-03 0. -1.
    9900012    2    1    2    0    0  0.21751121921E+02 -0.17623208696E+01  0.39406806950E+02  0.46142317480E+02  0.99999974405E+01 0.  0.
         12    1    1    2    0    0 -0.21751121921E+02  0.17623208696E+01 -0.39406806950E+02  0.45045682520E+02  0.00000000000E+00 0. -1.
         11    1    3    3    0    0  0.11027442822E+01 -0.12261466022E+00  0.34043303493E+01  0.35805788212E+01  0.51100000000E-03 0. -1.
        -11    1    3    3    0    0  0.13836170703E+02 -0.19512159171E+01  0.15091738398E+02  0.20567144464E+02  0.51100000000E-03 0.  1.
        -12    1    3    3    0    0  0.68122069364E+01  0.31150970767E+00  0.20910738202E+02  0.21994594195E+02  0.00000000000E+00 0.  1.
</event>
<event>
 7    1  0.2243370E-008  0.4614232E+02  0.7816164E-02  0.1320468E+00
        -11   -1    0    0    0    0  0.00000000000E+00  0.00000000000E+00  0.45593999997E+02  0.45594000000E+02  0.51100000000E-03 0.  1.
         11   -1    0    0    0    0 -0.00000000000E+00 -0.00000000000E+00 -0.45593999997E+02  0.45594000000E+02  0.51100000000E-03 0. -1.
    9900012    2    1    2    0    0 -0.27219395116E+02 -0.13011190149E+02  0.33450365943E+02  0.46142317395E+02  0.99999966636E+01 0.  0.
         12    1    1    2    0    0  0.27219395116E+02  0.13011190149E+02 -0.33450365943E+02  0.45045682605E+02  0.00000000000E+00 0. -1.
         11    1    3    3    0    0 -0.84730187293E+01 -0.68400667490E+01  0.79264095703E+01  0.13468724084E+02  0.51100000000E-03 0. -1.
        -11    1    3    3    0    0 -0.91983004627E+01 -0.52097273918E+01  0.10917311485E+02  0.15196633878E+02  0.51100000000E-03 0.  1.
         12    1    3    3    0    0 -0.95480759243E+01 -0.96139600774E+00  0.14606644888E+02  0.17476959433E+02  0.00000000000E+00 0. -1.
</event>
<event>
 7    1  0.2243370E-008  0.4614232E+02  0.7816164E-02  0.1320468E+00
        -11   -1    0    0    0    0  0.00000000000E+00  0.00000000000E+00  0.45593999997E+02  0.45594000000E+02  0.51100000000E-03 0. -1.
         11   -1    0    0    0    0 -0.00000000000E+00 -0.00000000000E+00 -0.45593999997E+02  0.45594000000E+02  0.51100000000E-03 0.  1.
    9900012    2    1    2    0    0 -0.12774721803E+02  0.42266805181E+02 -0.89127566598E+01  0.46142316870E+02  0.99999918727E+01 0.  0.
         12    1    1    2    0    0  0.12774721803E+02 -0.42266805181E+02  0.89127566598E+01  0.45045683130E+02  0.00000000000E+00 0. -1.
         11    1    3    3    0    0 -0.21729491684E+01  0.15841978939E+02 -0.26396854121E+01  0.16206725274E+02  0.51100000000E-03 0. -1.
        -11    1    3    3    0    0 -0.76023679377E+01  0.18501484366E+02 -0.11511955306E+01  0.20035622611E+02  0.51100000000E-03 0.  1.
         12    1    3    3    0    0 -0.29994046966E+01  0.79233418771E+01 -0.51218757171E+01  0.98999689846E+01  0.00000000000E+00 0. -1.
</event>
<event>
 7    1  0.2243370E-008  0.4614232E+02  0.7816164E-02  0.1320468E+00
        -11   -1    0    0    0    0  0.00000000000E+00  0.00000000000E+00  0.45593999997E+02  0.45594000000E+02  0.51100000000E-03 0.  1.
         11   -1    0    0    0    0 -0.00000000000E+00 -0.00000000000E+00 -0.45593999997E+02  0.45594000000E+02  0.51100000000E-03 0. -1.
    9900012    2    1    2    0    0  0.94725589703E+01 -0.18574390608E+02  0.39929637367E+02  0.46142319850E+02  0.10000019052E+02 0.  0.
         12    1    1    2    0    0 -0.94725589703E+01  0.18574390608E+02 -0.39929637367E+02  0.45045680150E+02  0.00000000000E+00 0. -1.
         11    1    3    3    0    0  0.16134861817E+01 -0.12893826199E+01  0.95075008846E+01  0.97292558056E+01  0.51100000000E-03 0. -1.
        -11    1    3    3    0    0  0.41560351673E+01 -0.12732020273E+02  0.16146937953E+02  0.20978574166E+02  0.51100000000E-03 0.  1.
        -12    1    3    3    0    0  0.37030376214E+01 -0.45529877155E+01  0.14275198529E+02  0.15434489879E+02  0.00000000000E+00 0.  1.
</event>
<event>
 7    1  0.2243370E-008  0.4614232E+02  0.7816164E-02  0.1320468E+00
        -11   -1    0    0    0    0  0.00000000000E+00  0.00000000000E+00  0.45593999997E+02  0.45594000000E+02  0.51100000000E-03 0.  1.
         11   -1    0    0    0    0 -0.00000000000E+00 -0.00000000000E+00 -0.45593999997E+02  0.45594000000E+02  0.51100000000E-03 0. -1.
    9900012    2    1    2    0    0 -0.39334461216E+02  0.18751417136E+02 -0.11414793027E+02  0.46142323364E+02  0.10000051094E+02 0.  0.
         12    1    1    2    0    0  0.39334461216E+02 -0.18751417136E+02  0.11414793027E+02  0.45045676636E+02  0.00000000000E+00 0. -1.
         11    1    3    3    0    0 -0.54124783192E+01  0.51105447567E+01 -0.46914148168E+01  0.87989750830E+01  0.51100000000E-03 0. -1.
        -11    1    3    3    0    0 -0.51811595163E+01  0.18945275272E+01  0.24628269730E+00  0.55221647850E+01  0.51100000000E-03 0.  1.
        -12    1    3    3    0    0 -0.28740823380E+02  0.11746344852E+02 -0.69696609070E+01  0.31821183496E+02  0.00000000000E+00 0.  1.
</event>
<event>
 7    1  0.2243370E-008  0.4614232E+02  0.7816164E-02  0.1320468E+00
        -11   -1    0    0    0    0  0.00000000000E+00  0.00000000000E+00  0.45593999997E+02  0.45594000000E+02  0.51100000000E-03 0. -1.
         11   -1    0    0    0    0 -0.00000000000E+00 -0.00000000000E+00 -0.45593999997E+02  0.45594000000E+02  0.51100000000E-03 0.  1.
    9900012    2    1    2    0    0 -0.22878382261E+02  0.11680667983E+02 -0.37003446338E+02  0.46142318517E+02  0.10000006892E+02 0.  0.
         12    1    1    2    0    0  0.22878382261E+02 -0.11680667983E+02  0.37003446338E+02  0.45045681483E+02  0.00000000000E+00 0. -1.
         11    1    3    3    0    0 -0.15730350120E+02  0.68903432402E+01 -0.18262860063E+02  0.25068960944E+02  0.51100000000E-03 0. -1.
        -11    1    3    3    0    0 -0.19746626311E+01 -0.47581710769E+00 -0.24102947271E+01  0.31520176648E+01  0.51100000000E-03 0.  1.
        -12    1    3    3    0    0 -0.51733695103E+01  0.52661418506E+01 -0.16330291548E+02  0.17921339909E+02  0.00000000000E+00 0.  1.
</event>
<event>
 7    1  0.2243370E-008  0.4614232E+02  0.7816164E-02  0.1320468E+00
        -11   -1    0    0    0    0  0.00000000000E+00  0.00000000000E+00  0.45593999997E+02  0.45594000000E+02  0.51100000000E-03 0. -1.
         11   -1    0    0    0    0 -0.00000000000E+00 -0.00000000000E+00 -0.45593999997E+02  0.45594000000E+02  0.51100000000E-03 0.  1.
    9900012    2    1    2    0    0 -0.35243811839E+01  0.39011550779E+02 -0.22243902806E+02  0.46142316867E+02  0.99999918426E+01 0.  0.
         12    1    1    2    0    0  0.35243811839E+01 -0.39011550779E+02  0.22243902806E+02  0.45045683133E+02  0.00000000000E+00 0. -1.
         11    1    3    3    0    0  0.24550967337E+01  0.21070022390E+02 -0.12831094147E+02  0.24791335598E+02  0.51100000000E-03 0. -1.
        -11    1    3    3    0    0 -0.96571413312E+00  0.74383064172E+01 -0.42221962412E+01  0.86074355939E+01  0.51100000000E-03 0.  1.
         12    1    3    3    0    0 -0.50137637845E+01  0.10503221972E+02 -0.51906124177E+01  0.12743545674E+02  0.00000000000E+00 0. -1.
</event>
<event>
 7    1  0.2243370E-008  0.4614232E+02  0.7816164E-02  0.1320468E+00
        -11   -1    0    0    0    0  0.00000000000E+00  0.00000000000E+00  0.45593999997E+02  0.45594000000E+02  0.51100000000E-03 0.  1.
         11   -1    0    0    0    0 -0.00000000000E+00 -0.00000000000E+00 -0.45593999997E+02  0.45594000000E+02  0.51100000000E-03 0. -1.
    9900012    2    1    2    0    0  0.25458754283E+02  0.26378483666E+02  0.26175195230E+02  0.46142318570E+02  0.10000007377E+02 0.  0.
         12    1    1    2    0    0 -0.25458754283E+02 -0.26378483666E+02 -0.26175195230E+02  0.45045681430E+02  0.00000000000E+00 0. -1.
         11    1    3    3    0    0 -0.43044356833E-01 -0.26526127129E+00  0.19148606307E-01  0.26941285965E+00  0.51100000000E-03 0. -1.
        -11    1    3    3    0    0  0.68592451555E+01  0.56531464452E+01  0.27000162217E+01  0.92896392122E+01  0.51100000000E-03 0.  1.
        -12    1    3    3    0    0  0.18642553485E+02  0.20990598492E+02  0.23456030402E+02  0.36583266498E+02  0.00000000000E+00 0.  1.
</event>
<event>
 7    1  0.2243370E-008  0.4614232E+02  0.7816164E-02  0.1320468E+00
        -11   -1    0    0    0    0  0.00000000000E+00  0.00000000000E+00  0.45593999997E+02  0.45594000000E+02  0.51100000000E-03 0.  1.
         11   -1    0    0    0    0 -0.00000000000E+00 -0.00000000000E+00 -0.45593999997E+02  0.45594000000E+02  0.51100000000E-03 0. -1.
    9900012    2    1    2    0    0 -0.26263343726E+02  0.56686626448E+01  0.36155449996E+02  0.46142317363E+02  0.99999963670E+01 0.  0.
         12    1    1    2    0    0  0.26263343726E+02 -0.56686626448E+01 -0.36155449996E+02  0.45045682637E+02  0.00000000000E+00 0. -1.
         11    1    3    3    0    0 -0.25344647426E+01  0.10723440409E+01  0.47377504558E+01  0.54790248143E+01  0.51100000000E-03 0. -1.
        -11    1    3    3    0    0 -0.68721907913E+01  0.56518133721E+01  0.11749208497E+02  0.14738178355E+02  0.51100000000E-03 0.  1.
         12    1    3    3    0    0 -0.16856688192E+02 -0.10554947682E+01  0.19668491043E+02  0.25925114193E+02  0.00000000000E+00 0. -1.
</event>
<event>
 7    1  0.2243370E-008  0.4614232E+02  0.7816164E-02  0.1320468E+00
        -11   -1    0    0    0    0  0.00000000000E+00  0.00000000000E+00  0.45593999997E+02  0.45594000000E+02  0.51100000000E-03 0.  1.
         11   -1    0    0    0    0 -0.00000000000E+00 -0.00000000000E+00 -0.45593999997E+02  0.45594000000E+02  0.51100000000E-03 0. -1.
    9900012    2    1    2    0    0  0.16941313415E+02  0.41709780937E+02  0.15490410956E+01  0.46142318139E+02  0.10000003446E+02 0.  0.
         12    1    1    2    0    0 -0.16941313415E+02 -0.41709780937E+02 -0.15490410956E+01  0.45045681861E+02  0.00000000000E+00 0. -1.
         11    1    3    3    0    0 -0.21862215621E-01  0.13230838815E+01 -0.13805125718E+01  0.19122876708E+01  0.51100000000E-03 0. -1.
        -11    1    3    3    0    0  0.79495523193E+01  0.13275286290E+02 -0.30893453765E+00  0.15476564508E+02  0.51100000000E-03 0.  1.
        -12    1    3    3    0    0  0.90136233112E+01  0.27111410765E+02  0.32384882051E+01  0.28753465960E+02  0.00000000000E+00 0.  1.
</event>
<event>
 7    1  0.2243370E-008  0.4614232E+02  0.7816164E-02  0.1320468E+00
        -11   -1    0    0    0    0  0.00000000000E+00  0.00000000000E+00  0.45593999997E+02  0.45594000000E+02  0.51100000000E-03 0.  1.
         11   -1    0    0    0    0 -0.00000000000E+00 -0.00000000000E+00 -0.45593999997E+02  0.45594000000E+02  0.51100000000E-03 0. -1.
    9900012    2    1    2    0    0 -0.85578131994E+01  0.43842988745E+01  0.44007440933E+02  0.46142322063E+02  0.10000039225E+02 0.  0.
         12    1    1    2    0    0  0.85578131994E+01 -0.43842988745E+01 -0.44007440933E+02  0.45045677937E+02  0.00000000000E+00 0. -1.
         11    1    3    3    0    0 -0.65018273772E+01 -0.13098725612E+00  0.18993405070E+02  0.20075864946E+02  0.51100000000E-03 0.  1.
        -11    1    3    3    0    0  0.34804722671E+00 -0.10989678128E+01  0.27960234973E+01  0.30243370817E+01  0.51100000000E-03 0. -1.
         12    1    3    3    0    0 -0.24040330489E+01  0.56142539434E+01  0.22218012366E+02  0.23042120035E+02  0.00000000000E+00 0. -1.
</event>
<event>
 7    1  0.2243370E-008  0.4614231E+02  0.7816164E-02  0.1320468E+00
        -11   -1    0    0    0    0  0.00000000000E+00  0.00000000000E+00  0.45593999997E+02  0.45594000000E+02  0.51100000000E-03 0.  1.
         11   -1    0    0    0    0 -0.00000000000E+00 -0.00000000000E+00 -0.45593999997E+02  0.45594000000E+02  0.51100000000E-03 0. -1.
    9900012    2    1    2    0    0 -0.21063552379E+01 -0.44901642399E+02  0.29188522510E+01  0.46142312959E+02  0.99999562091E+01 0.  0.
         12    1    1    2    0    0  0.21063552379E+01  0.44901642399E+02 -0.29188522510E+01  0.45045687041E+02  0.00000000000E+00 0. -1.
         11    1    3    3    0    0  0.18557547887E+01 -0.45432554235E+01  0.86101499531E+00  0.49826040142E+01  0.51100000000E-03 0. -1.
        -11    1    3    3    0    0 -0.10907125595E+01 -0.33767889479E+02  0.29578893770E+01  0.33914733135E+02  0.51100000000E-03 0.  1.
         12    1    3    3    0    0 -0.28713974670E+01 -0.65904974964E+01 -0.90005212132E+00  0.72449758098E+01  0.00000000000E+00 0. -1.
</event>
<event>
 7    1  0.2243370E-008  0.4614232E+02  0.7816164E-02  0.1320468E+00
        -11   -1    0    0    0    0  0.00000000000E+00  0.00000000000E+00  0.45593999997E+02  0.45594000000E+02  0.51100000000E-03 0.  1.
         11   -1    0    0    0    0 -0.00000000000E+00 -0.00000000000E+00 -0.45593999997E+02  0.45594000000E+02  0.51100000000E-03 0. -1.
    9900012    2    1    2    0    0 -0.11094988431E+02  0.38079622026E+02 -0.21353145380E+02  0.46142320967E+02  0.10000029238E+02 0.  0.
         12    1    1    2    0    0  0.11094988431E+02 -0.38079622026E+02  0.21353145380E+02  0.45045679033E+02  0.00000000000E+00 0. -1.
         11    1    3    3    0    0 -0.40869542764E+00  0.60670970595E+01 -0.65991435995E+01  0.89735943295E+01  0.51100000000E-03 0. -1.
        -11    1    3    3    0    0 -0.78410324588E+01  0.16184694854E+02 -0.87862202169E+01  0.20015589012E+02  0.51100000000E-03 0.  1.
        -12    1    3    3    0    0 -0.28452605443E+01  0.15827830113E+02 -0.59677815632E+01  0.17153137626E+02  0.00000000000E+00 0.  1.
</event>
<event>
 7    1  0.2243370E-008  0.4614232E+02  0.7816164E-02  0.1320468E+00
        -11   -1    0    0    0    0  0.00000000000E+00  0.00000000000E+00  0.45593999997E+02  0.45594000000E+02  0.51100000000E-03 0. -1.
         11   -1    0    0    0    0 -0.00000000000E+00 -0.00000000000E+00 -0.45593999997E+02  0.45594000000E+02  0.51100000000E-03 0.  1.
    9900012    2    1    2    0    0  0.31730678809E+02 -0.79384877679E+01 -0.30971891403E+02  0.46142316269E+02  0.99999863928E+01 0.  0.
         12    1    1    2    0    0 -0.31730678809E+02  0.79384877679E+01  0.30971891403E+02  0.45045683731E+02  0.00000000000E+00 0. -1.
         11    1    3    3    0    0  0.23527100763E+02 -0.18009269673E+01 -0.22411307557E+02  0.32542810496E+02  0.51100000000E-03 0. -1.
        -11    1    3    3    0    0  0.20873752814E+01 -0.30428640766E+01 -0.25780884597E+01  0.45014106368E+01  0.51100000000E-03 0.  1.
         12    1    3    3    0    0  0.61162027643E+01 -0.30946967239E+01 -0.59824953863E+01  0.90980951365E+01  0.00000000000E+00 0. -1.
</event>
<event>
 7    1  0.2243370E-008  0.4614232E+02  0.7816164E-02  0.1320468E+00
        -11   -1    0    0    0    0  0.00000000000E+00  0.00000000000E+00  0.45593999997E+02  0.45594000000E+02  0.51100000000E-03 0. -1.
         11   -1    0    0    0    0 -0.00000000000E+00 -0.00000000000E+00 -0.45593999997E+02  0.45594000000E+02  0.51100000000E-03 0.  1.
    9900012    2    1    2    0    0 -0.12149705941E+02 -0.41059017628E+02  0.13987680706E+02  0.46142317692E+02  0.99999993703E+01 0.  0.
         12    1    1    2    0    0  0.12149705941E+02  0.41059017628E+02 -0.13987680706E+02  0.45045682308E+02  0.00000000000E+00 0. -1.
         11    1    3    3    0    0 -0.32391132806E+01 -0.63191021507E+01  0.89578743769E+00  0.71571881511E+01  0.51100000000E-03 0. -1.
        -11    1    3    3    0    0 -0.34587696818E+01 -0.26193105749E+02  0.77908236521E+01  0.27545213920E+02  0.51100000000E-03 0.  1.
        -12    1    3    3    0    0 -0.54518229786E+01 -0.85468097289E+01  0.53010696162E+01  0.11439915621E+02  0.00000000000E+00 0.  1.
</event>
<event>
 7    1  0.2243370E-008  0.4614232E+02  0.7816164E-02  0.1320468E+00
        -11   -1    0    0    0    0  0.00000000000E+00  0.00000000000E+00  0.45593999997E+02  0.45594000000E+02  0.51100000000E-03 0.  1.
         11   -1    0    0    0    0 -0.00000000000E+00 -0.00000000000E+00 -0.45593999997E+02  0.45594000000E+02  0.51100000000E-03 0. -1.
    9900012    2    1    2    0    0  0.15008482071E+02 -0.29222019172E+02  0.30820976618E+02  0.46142317208E+02  0.99999949541E+01 0.  0.
         12    1    1    2    0    0 -0.15008482071E+02  0.29222019172E+02 -0.30820976618E+02  0.45045682792E+02  0.00000000000E+00 0. -1.
         11    1    3    3    0    0  0.37418298252E+01 -0.46504304098E+01  0.27631354851E+01  0.65774395784E+01  0.51100000000E-03 0. -1.
        -11    1    3    3    0    0  0.10265892572E+02 -0.21501418236E+02  0.20827605171E+02  0.31646305849E+02  0.51100000000E-03 0.  1.
        -12    1    3    3    0    0  0.10007596731E+01 -0.30701705264E+01  0.72302359614E+01  0.79185717805E+01  0.00000000000E+00 0.  1.
</event>
