<event>
 7    1  0.2478637E-008  0.4614232E+02  0.7816164E-02  0.1320468E+00
        -11   -1    0    0    0    0  0.00000000000E+00  0.00000000000E+00  0.45593999997E+02  0.45594000000E+02  0.51100000000E-03 0.  1.
         11   -1    0    0    0    0 -0.00000000000E+00 -0.00000000000E+00 -0.45593999997E+02  0.45594000000E+02  0.51100000000E-03 0. -1.
    9900012    2    1    2    0    0 -0.10787698338E+02 -0.89013047445E+01  0.42819455326E+02  0.46142318564E+02  0.10000007324E+02 0.  0.
         12    1    1    2    0    0  0.10787698338E+02  0.89013047445E+01 -0.42819455326E+02  0.45045681436E+02  0.00000000000E+00 0. -1.
         11    1    3    3    0    0 -0.51490020172E+01 -0.50867494939E+01  0.11543438474E+02  0.13624911532E+02  0.51100000000E-03 0. -1.
        -11    1    3    3    0    0  0.80910756321E+00 -0.21779130360E+00  0.79528667812E+00  0.11552355874E+01  0.51100000000E-03 0.  1.
        -12    1    3    3    0    0 -0.64478038843E+01 -0.35967639470E+01  0.30480730173E+02  0.31362171445E+02  0.00000000000E+00 0.  1.
</event>
<event>
 7    1  0.2478637E-008  0.4614232E+02  0.7816164E-02  0.1320468E+00
        -11   -1    0    0    0    0  0.00000000000E+00  0.00000000000E+00  0.45593999997E+02  0.45594000000E+02  0.51100000000E-03 0.  1.
         11   -1    0    0    0    0 -0.00000000000E+00 -0.00000000000E+00 -0.45593999997E+02  0.45594000000E+02  0.51100000000E-03 0. -1.
    9900012    2    1    2    0    0 -0.14205651954E+02  0.42612747833E+02 -0.33862476157E+01  0.46142317652E+02  0.99999990045E+01 0.  0.
         12    1    1    2    0    0  0.14205651954E+02 -0.42612747833E+02  0.33862476157E+01  0.45045682348E+02  0.00000000000E+00 0. -1.
         11    1    3    3    0    0 -0.50597362811E+01  0.19775946331E+02 -0.12400267460E+01  0.20450590483E+02  0.51100000000E-03 0. -1.
        -11    1    3    3    0    0 -0.95065063899E+01  0.21186698790E+02 -0.35549946564E+01  0.23492293558E+02  0.51100000000E-03 0.  1.
         12    1    3    3    0    0  0.36059071742E+00  0.16501027118E+01  0.14087737866E+01  0.21994336105E+01  0.00000000000E+00 0. -1.
</event>
<event>
 7    1  0.2478637E-008  0.4614232E+02  0.7816164E-02  0.1320468E+00
        -11   -1    0    0    0    0  0.00000000000E+00  0.00000000000E+00  0.45593999997E+02  0.45594000000E+02  0.51100000000E-03 0. -1.
         11   -1    0    0    0    0 -0.00000000000E+00 -0.00000000000E+00 -0.45593999997E+02  0.45594000000E+02  0.51100000000E-03 0.  1.
    9900012    2    1    2    0    0 -0.36106927760E+02  0.84294106482E+01 -0.25580231961E+02  0.46142318039E+02  0.10000002535E+02 0.  0.
         12    1    1    2    0    0  0.36106927760E+02 -0.84294106482E+01  0.25580231961E+02  0.45045681961E+02  0.00000000000E+00 0. -1.
         11    1    3    3    0    0 -0.15706761242E+02 -0.91571943661E-01 -0.12276016264E+02  0.19935177695E+02  0.51100000000E-03 0.  1.
        -11    1    3    3    0    0 -0.60370480722E+01  0.64430564086E+00 -0.48643165764E+01  0.77796307883E+01  0.51100000000E-03 0. -1.
         12    1    3    3    0    0 -0.14363118446E+02  0.78766769510E+01 -0.84398991202E+01  0.18427509556E+02  0.00000000000E+00 0. -1.
</event>
<event>
 7    1  0.2478637E-008  0.4614232E+02  0.7816164E-02  0.1320468E+00
        -11   -1    0    0    0    0  0.00000000000E+00  0.00000000000E+00  0.45593999997E+02  0.45594000000E+02  0.51100000000E-03 0.  1.
         11   -1    0    0    0    0 -0.00000000000E+00 -0.00000000000E+00 -0.45593999997E+02  0.45594000000E+02  0.51100000000E-03 0. -1.
    9900012    2    1    2    0    0 -0.30481831094E+02 -0.10825885751E+02  0.31349190305E+02  0.46142316944E+02  0.99999925531E+01 0.  0.
         12    1    1    2    0    0  0.30481831094E+02  0.10825885751E+02 -0.31349190305E+02  0.45045683056E+02  0.00000000000E+00 0. -1.
         11    1    3    3    0    0 -0.63850114881E+01 -0.98643066462E+00  0.95171199951E+01  0.11502912258E+02  0.51100000000E-03 0. -1.
        -11    1    3    3    0    0 -0.73295563495E+01 -0.39078953064E+01  0.11110603233E+02  0.13872258160E+02  0.51100000000E-03 0.  1.
        -12    1    3    3    0    0 -0.16767263257E+02 -0.59315597798E+01  0.10721467077E+02  0.20767146526E+02  0.00000000000E+00 0.  1.
</event>
<event>
 7    1  0.2478637E-008  0.4614232E+02  0.7816164E-02  0.1320468E+00
        -11   -1    0    0    0    0  0.00000000000E+00  0.00000000000E+00  0.45593999997E+02  0.45594000000E+02  0.51100000000E-03 0.  1.
         11   -1    0    0    0    0 -0.00000000000E+00 -0.00000000000E+00 -0.45593999997E+02  0.45594000000E+02  0.51100000000E-03 0. -1.
    9900012    2    1    2    0    0  0.30010036412E+02 -0.16318207050E+02  0.29363702327E+02  0.46142321172E+02  0.10000031100E+02 0.  0.
         12    1    1    2    0    0 -0.30010036412E+02  0.16318207050E+02 -0.29363702327E+02  0.45045678828E+02  0.00000000000E+00 0. -1.
         11    1    3    3    0    0  0.90470557605E+01 -0.78173294854E+01  0.61447901028E+01  0.13443150817E+02  0.51100000000E-03 0. -1.
        -11    1    3    3    0    0  0.28774760170E+01 -0.27463173792E+01  0.31176522332E+01  0.50538978110E+01  0.51100000000E-03 0.  1.
         12    1    3    3    0    0  0.18085504634E+02 -0.57545601854E+01  0.20101259991E+02  0.27645272544E+02  0.00000000000E+00 0. -1.
</event>
<event>
 7    1  0.2478637E-008  0.4614232E+02  0.7816164E-02  0.1320468E+00
        -11   -1    0    0    0    0  0.00000000000E+00  0.00000000000E+00  0.45593999997E+02  0.45594000000E+02  0.51100000000E-03 0.  1.
         11   -1    0    0    0    0 -0.00000000000E+00 -0.00000000000E+00 -0.45593999997E+02  0.45594000000E+02  0.51100000000E-03 0. -1.
    9900012    2    1    2    0    0  0.25066355864E+02  0.22797692184E+02  0.29682591676E+02  0.46142320808E+02  0.10000027785E+02 0.  0.
         12    1    1    2    0    0 -0.25066355864E+02 -0.22797692184E+02 -0.29682591676E+02  0.45045679192E+02  0.00000000000E+00 0. -1.
         11    1    3    3    0    0  0.36408056786E+01  0.18856050258E+01  0.30956504138E+01  0.51375114645E+01  0.51100000000E-03 0. -1.
        -11    1    3    3    0    0  0.20936842265E+02  0.16192786012E+02  0.22802408506E+02  0.34935762719E+02  0.51100000000E-03 0.  1.
         12    1    3    3    0    0  0.48870792118E+00  0.47193011467E+01  0.37845327566E+01  0.60690466246E+01  0.00000000000E+00 0. -1.
</event>
<event>
 7    1  0.2478637E-008  0.4614232E+02  0.7816164E-02  0.1320468E+00
        -11   -1    0    0    0    0  0.00000000000E+00  0.00000000000E+00  0.45593999997E+02  0.45594000000E+02  0.51100000000E-03 0. -1.
         11   -1    0    0    0    0 -0.00000000000E+00 -0.00000000000E+00 -0.45593999997E+02  0.45594000000E+02  0.51100000000E-03 0.  1.
    9900012    2    1    2    0    0 -0.42656551806E+02  0.91675397884E+01  0.11202154175E+02  0.46142318121E+02  0.10000003281E+02 0.  0.
         12    1    1    2    0    0  0.42656551806E+02 -0.91675397884E+01 -0.11202154175E+02  0.45045681879E+02  0.00000000000E+00 0. -1.
         11    1    3    3    0    0 -0.16472591289E+02 -0.98382464762E+00  0.51278547150E+01  0.17280308706E+02  0.51100000000E-03 0. -1.
        -11    1    3    3    0    0 -0.24465713892E+02  0.87032116153E+01  0.56507707608E+01  0.26575331779E+02  0.51100000000E-03 0.  1.
         12    1    3    3    0    0 -0.17182466247E+01  0.14481528207E+01  0.42352869926E+00  0.22866776368E+01  0.00000000000E+00 0. -1.
</event>
<event>
 7    1  0.2478637E-008  0.4614232E+02  0.7816164E-02  0.1320468E+00
        -11   -1    0    0    0    0  0.00000000000E+00  0.00000000000E+00  0.45593999997E+02  0.45594000000E+02  0.51100000000E-03 0. -1.
         11   -1    0    0    0    0 -0.00000000000E+00 -0.00000000000E+00 -0.45593999997E+02  0.45594000000E+02  0.51100000000E-03 0.  1.
    9900012    2    1    2    0    0 -0.83118317335E+01  0.16653212744E+02 -0.41020695123E+02  0.46142317966E+02  0.10000001872E+02 0.  0.
         12    1    1    2    0    0  0.83118317335E+01 -0.16653212744E+02  0.41020695123E+02  0.45045682034E+02  0.00000000000E+00 0. -1.
         11    1    3    3    0    0 -0.18863442487E+01  0.45009382153E+01 -0.58695562400E+01  0.76333760655E+01  0.51100000000E-03 0. -1.
        -11    1    3    3    0    0  0.15756746486E+01  0.20468597906E+01 -0.36388401848E+01  0.44624593838E+01  0.51100000000E-03 0.  1.
        -12    1    3    3    0    0 -0.80011621334E+01  0.10105414738E+02 -0.31512298699E+02  0.34046482517E+02  0.00000000000E+00 0.  1.
</event>
<event>
 7    1  0.2478637E-008  0.4614232E+02  0.7816164E-02  0.1320468E+00
        -11   -1    0    0    0    0  0.00000000000E+00  0.00000000000E+00  0.45593999997E+02  0.45594000000E+02  0.51100000000E-03 0. -1.
         11   -1    0    0    0    0 -0.00000000000E+00 -0.00000000000E+00 -0.45593999997E+02  0.45594000000E+02  0.51100000000E-03 0.  1.
    9900012    2    1    2    0    0 -0.91258356633E+00  0.41438462288E+01 -0.44845392563E+02  0.46142317582E+02  0.99999983698E+01 0.  0.
         12    1    1    2    0    0  0.91258356633E+00 -0.41438462288E+01  0.44845392563E+02  0.45045682418E+02  0.00000000000E+00 0. -1.
         11    1    3    3    0    0  0.14889881017E+01 -0.14739716262E+01 -0.11823128009E+02  0.12007332514E+02  0.51100000000E-03 0. -1.
        -11    1    3    3    0    0  0.13630539312E+01  0.18088725821E-02 -0.11376893997E+02  0.11458256262E+02  0.51100000000E-03 0.  1.
         12    1    3    3    0    0 -0.37646255992E+01  0.56160089824E+01 -0.21645370557E+02  0.22676728806E+02  0.00000000000E+00 0. -1.
</event>
<event>
 7    1  0.2478637E-008  0.4614232E+02  0.7816164E-02  0.1320468E+00
        -11   -1    0    0    0    0  0.00000000000E+00  0.00000000000E+00  0.45593999997E+02  0.45594000000E+02  0.51100000000E-03 0.  1.
         11   -1    0    0    0    0 -0.00000000000E+00 -0.00000000000E+00 -0.45593999997E+02  0.45594000000E+02  0.51100000000E-03 0. -1.
    9900012    2    1    2    0    0  0.20626620861E+02 -0.20437181919E+02  0.34438024946E+02  0.46142318130E+02  0.10000003364E+02 0.  0.
         12    1    1    2    0    0 -0.20626620861E+02  0.20437181919E+02 -0.34438024946E+02  0.45045681870E+02  0.00000000000E+00 0. -1.
         11    1    3    3    0    0  0.67223051230E+01 -0.14405319569E+01  0.91550586202E+01  0.11449000703E+02  0.51100000000E-03 0. -1.
        -11    1    3    3    0    0  0.40692403460E+01 -0.48302308818E+01  0.88449950620E+01  0.10868476677E+02  0.51100000000E-03 0.  1.
         12    1    3    3    0    0  0.98350753921E+01 -0.14166419080E+02  0.16437971264E+02  0.23824840751E+02  0.00000000000E+00 0. -1.
</event>
<event>
 7    1  0.2478637E-008  0.4614232E+02  0.7816164E-02  0.1320468E+00
        -11   -1    0    0    0    0  0.00000000000E+00  0.00000000000E+00  0.45593999997E+02  0.45594000000E+02  0.51100000000E-03 0.  1.
         11   -1    0    0    0    0 -0.00000000000E+00 -0.00000000000E+00 -0.45593999997E+02  0.45594000000E+02  0.51100000000E-03 0. -1.
    9900012    2    1    2    0    0 -0.36716334394E+02 -0.11865767235E+01  0.26069452754E+02  0.46142317160E+02  0.99999945177E+01 0.  0.
         12    1    1    2    0    0  0.36716334394E+02  0.11865767235E+01 -0.26069452754E+02  0.45045682840E+02  0.00000000000E+00 0. -1.
         11    1    3    3    0    0 -0.10671497572E+02 -0.40422027088E+01  0.67752159563E+01  0.13271164782E+02  0.51100000000E-03 0. -1.
        -11    1    3    3    0    0 -0.27135467778E+01  0.68339395522E+00  0.40281372098E+01  0.49047174287E+01  0.51100000000E-03 0.  1.
        -12    1    3    3    0    0 -0.23331290045E+02  0.21722320301E+01  0.15266099587E+02  0.27966434949E+02  0.00000000000E+00 0.  1.
</event>
<event>
 7    1  0.2478637E-008  0.4614232E+02  0.7816164E-02  0.1320468E+00
        -11   -1    0    0    0    0  0.00000000000E+00  0.00000000000E+00  0.45593999997E+02  0.45594000000E+02  0.51100000000E-03 0.  1.
         11   -1    0    0    0    0 -0.00000000000E+00 -0.00000000000E+00 -0.45593999997E+02  0.45594000000E+02  0.51100000000E-03 0. -1.
    9900012    2    1    2    0    0  0.24690757511E+02 -0.10382483404E+02  0.36217178309E+02  0.46142317934E+02  0.10000001576E+02 0.  0.
         12    1    1    2    0    0 -0.24690757511E+02  0.10382483404E+02 -0.36217178309E+02  0.45045682066E+02  0.00000000000E+00 0. -1.
         11    1    3    3    0    0  0.22758666260E+02 -0.57374090581E+01  0.28582538649E+02  0.36984270555E+02  0.51100000000E-03 0. -1.
        -11    1    3    3    0    0  0.91569942016E+00 -0.24855234724E+01  0.44427957020E+01  0.51725009686E+01  0.51100000000E-03 0.  1.
         12    1    3    3    0    0  0.10163918305E+01 -0.21595508739E+01  0.31918439585E+01  0.39855464099E+01  0.00000000000E+00 0. -1.
</event>
<event>
 7    1  0.2478637E-008  0.4614232E+02  0.7816164E-02  0.1320468E+00
        -11   -1    0    0    0    0  0.00000000000E+00  0.00000000000E+00  0.45593999997E+02  0.45594000000E+02  0.51100000000E-03 0. -1.
         11   -1    0    0    0    0 -0.00000000000E+00 -0.00000000000E+00 -0.45593999997E+02  0.45594000000E+02  0.51100000000E-03 0.  1.
    9900012    2    1    2    0    0  0.19196435818E+02 -0.57374230352E+01 -0.40344668362E+02  0.46142318338E+02  0.10000005258E+02 0.  0.
         12    1    1    2    0    0 -0.19196435818E+02  0.57374230352E+01  0.40344668362E+02  0.45045681662E+02  0.00000000000E+00 0. -1.
         11    1    3    3    0    0  0.42873973249E+01 -0.33690232124E+01 -0.81205131966E+01  0.97813510347E+01  0.51100000000E-03 0. -1.
        -11    1    3    3    0    0  0.11229177035E+02 -0.50261670239E+01 -0.23792135954E+02  0.26784743892E+02  0.51100000000E-03 0.  1.
         12    1    3    3    0    0  0.36798614582E+01  0.26577672010E+01 -0.84320192108E+01  0.95762234110E+01  0.00000000000E+00 0. -1.
</event>
<event>
 7    1  0.2478637E-008  0.4614232E+02  0.7816164E-02  0.1320468E+00
        -11   -1    0    0    0    0  0.00000000000E+00  0.00000000000E+00  0.45593999997E+02  0.45594000000E+02  0.51100000000E-03 0.  1.
         11   -1    0    0    0    0 -0.00000000000E+00 -0.00000000000E+00 -0.45593999997E+02  0.45594000000E+02  0.51100000000E-03 0. -1.
    9900012    2    1    2    0    0 -0.29315181991E+02  0.27370398918E+02 -0.20508396764E+02  0.46142323516E+02  0.10000052479E+02 0.  0.
         12    1    1    2    0    0  0.29315181991E+02 -0.27370398918E+02  0.20508396764E+02  0.45045676484E+02  0.00000000000E+00 0. -1.
         11    1    3    3    0    0 -0.59786421365E+01  0.64354706753E+01 -0.48681098271E+01  0.10042805293E+02  0.51100000000E-03 0. -1.
        -11    1    3    3    0    0 -0.22908571230E+02  0.19235573127E+02 -0.16484041654E+02  0.34154553706E+02  0.51100000000E-03 0.  1.
         12    1    3    3    0    0 -0.42796862427E+00  0.16993551153E+01  0.84375471687E+00  0.19449645173E+01  0.00000000000E+00 0. -1.
</event>
<event>
 7    1  0.2478637E-008  0.4614232E+02  0.7816164E-02  0.1320468E+00
        -11   -1    0    0    0    0  0.00000000000E+00  0.00000000000E+00  0.45593999997E+02  0.45594000000E+02  0.51100000000E-03 0.  1.
         11   -1    0    0    0    0 -0.00000000000E+00 -0.00000000000E+00 -0.45593999997E+02  0.45594000000E+02  0.51100000000E-03 0. -1.
    9900012    2    1    2    0    0  0.10007698837E+02 -0.18178395299E+02  0.39981313515E+02  0.46142317387E+02  0.99999965912E+01 0.  0.
         12    1    1    2    0    0 -0.10007698837E+02  0.18178395299E+02 -0.39981313515E+02  0.45045682613E+02  0.00000000000E+00 0. -1.
         11    1    3    3    0    0  0.39338906230E+01 -0.42779731698E+01  0.57287629290E+01  0.81605927991E+01  0.51100000000E-03 0. -1.
        -11    1    3    3    0    0  0.11872231028E+01 -0.70964856621E+01  0.99720252572E+01  0.12296783947E+02  0.51100000000E-03 0.  1.
        -12    1    3    3    0    0  0.48865851114E+01 -0.68039364672E+01  0.24280525329E+02  0.25684940641E+02  0.00000000000E+00 0.  1.
</event>
<event>
 7    1  0.2478637E-008  0.4614232E+02  0.7816164E-02  0.1320468E+00
        -11   -1    0    0    0    0  0.00000000000E+00  0.00000000000E+00  0.45593999997E+02  0.45594000000E+02  0.51100000000E-03 0.  1.
         11   -1    0    0    0    0 -0.00000000000E+00 -0.00000000000E+00 -0.45593999997E+02  0.45594000000E+02  0.51100000000E-03 0. -1.
    9900012    2    1    2    0    0  0.39984709792E+02 -0.32409294640E+00  0.20742021629E+02  0.46142317470E+02  0.99999973435E+01 0.  0.
         12    1    1    2    0    0 -0.39984709792E+02  0.32409294640E+00 -0.20742021629E+02  0.45045682530E+02  0.00000000000E+00 0. -1.
         11    1    3    3    0    0  0.34304990001E+01 -0.83217564993E+00 -0.62690817460E+00  0.35852271647E+01  0.51100000000E-03 0. -1.
        -11    1    3    3    0    0  0.15972086485E+02  0.56036224696E+00  0.69551090619E+01  0.17429718725E+02  0.51100000000E-03 0.  1.
         12    1    3    3    0    0  0.20582124307E+02 -0.52279543426E-01  0.14413820742E+02  0.25127371580E+02  0.00000000000E+00 0. -1.
</event>
<event>
 7    1  0.2478637E-008  0.4614232E+02  0.7816164E-02  0.1320468E+00
        -11   -1    0    0    0    0  0.00000000000E+00  0.00000000000E+00  0.45593999997E+02  0.45594000000E+02  0.51100000000E-03 0. -1.
         11   -1    0    0    0    0 -0.00000000000E+00 -0.00000000000E+00 -0.45593999997E+02  0.45594000000E+02  0.51100000000E-03 0.  1.
    9900012    2    1    2    0    0  0.93250652392E+01 -0.63331622388E+01 -0.43612472173E+02  0.46142317469E+02  0.99999973384E+01 0.  0.
         12    1    1    2    0    0 -0.93250652392E+01  0.63331622388E+01  0.43612472173E+02  0.45045682531E+02  0.00000000000E+00 0. -1.
         11    1    3    3    0    0  0.33105624401E+01 -0.18437674059E+01 -0.12344678283E+02  0.12913186442E+02  0.51100000000E-03 0. -1.
        -11    1    3    3    0    0  0.63270842001E+01 -0.40535307597E+01 -0.13476975376E+02  0.15430229150E+02  0.51100000000E-03 0.  1.
         12    1    3    3    0    0 -0.31258140107E+00 -0.43586407313E+00 -0.17790818514E+02  0.17798901877E+02  0.00000000000E+00 0. -1.
</event>
<event>
 7    1  0.2478637E-008  0.4614232E+02  0.7816164E-02  0.1320468E+00
        -11   -1    0    0    0    0  0.00000000000E+00  0.00000000000E+00  0.45593999997E+02  0.45594000000E+02  0.51100000000E-03 0.  1.
         11   -1    0    0    0    0 -0.00000000000E+00 -0.00000000000E+00 -0.45593999997E+02  0.45594000000E+02  0.51100000000E-03 0. -1.
    9900012    2    1    2    0    0 -0.48503053517E+01 -0.21400557792E+02  0.39339599669E+02  0.46142318321E+02  0.10000005102E+02 0.  0.
         12    1    1    2    0    0  0.48503053517E+01  0.21400557792E+02 -0.39339599669E+02  0.45045681679E+02  0.00000000000E+00 0. -1.
         11    1    3    3    0    0 -0.27855986520E+01 -0.67006801113E+01  0.94265362637E+01  0.11896144754E+02  0.51100000000E-03 0. -1.
        -11    1    3    3    0    0 -0.36932747313E+01 -0.56261283019E+01  0.78834079693E+01  0.10365409755E+02  0.51100000000E-03 0.  1.
         12    1    3    3    0    0  0.16285680316E+01 -0.90737493787E+01  0.22029655436E+02  0.23880763812E+02  0.00000000000E+00 0. -1.
</event>
<event>
 7    1  0.2478637E-008  0.4614232E+02  0.7816164E-02  0.1320468E+00
        -11   -1    0    0    0    0  0.00000000000E+00  0.00000000000E+00  0.45593999997E+02  0.45594000000E+02  0.51100000000E-03 0. -1.
         11   -1    0    0    0    0 -0.00000000000E+00 -0.00000000000E+00 -0.45593999997E+02  0.45594000000E+02  0.51100000000E-03 0.  1.
    9900012    2    1    2    0    0  0.34087707722E+02 -0.19540933869E+02 -0.22029378463E+02  0.46142318412E+02  0.10000005935E+02 0.  0.
         12    1    1    2    0    0 -0.34087707722E+02  0.19540933869E+02  0.22029378463E+02  0.45045681588E+02  0.00000000000E+00 0. -1.
         11    1    3    3    0    0  0.10235438557E+02 -0.76019710929E+01 -0.43540142153E+01  0.13472624354E+02  0.51100000000E-03 0. -1.
        -11    1    3    3    0    0  0.17060612137E+02 -0.86860066022E+01 -0.89176779585E+01  0.21119568595E+02  0.51100000000E-03 0.  1.
         12    1    3    3    0    0  0.67916570285E+01 -0.32529561740E+01 -0.87576862896E+01  0.11550125463E+02  0.00000000000E+00 0. -1.
</event>
<event>
 7    1  0.2478637E-008  0.4614232E+02  0.7816164E-02  0.1320468E+00
        -11   -1    0    0    0    0  0.00000000000E+00  0.00000000000E+00  0.45593999997E+02  0.45594000000E+02  0.51100000000E-03 0. -1.
         11   -1    0    0    0    0 -0.00000000000E+00 -0.00000000000E+00 -0.45593999997E+02  0.45594000000E+02  0.51100000000E-03 0.  1.
    9900012    2    1    2    0    0  0.22254836001E+02 -0.38698507113E+02 -0.60217363953E+01  0.46142317771E+02  0.10000000093E+02 0.  0.
         12    1    1    2    0    0 -0.22254836001E+02  0.38698507113E+02  0.60217363953E+01  0.45045682229E+02  0.00000000000E+00 0. -1.
         11    1    3    3    0    0  0.52797337664E+01 -0.81763334829E+01  0.19054606385E+01  0.99176004343E+01  0.51100000000E-03 0. -1.
        -11    1    3    3    0    0  0.82902119895E+01 -0.12845295950E+02 -0.60446159029E+01  0.16439787850E+02  0.51100000000E-03 0.  1.
         12    1    3    3    0    0  0.86848902452E+01 -0.17676877680E+02 -0.18825811308E+01  0.19784929487E+02  0.00000000000E+00 0. -1.
</event>
<event>
 7    1  0.2478637E-008  0.4614231E+02  0.7816164E-02  0.1320468E+00
        -11   -1    0    0    0    0  0.00000000000E+00  0.00000000000E+00  0.45593999997E+02  0.45594000000E+02  0.51100000000E-03 0.  1.
         11   -1    0    0    0    0 -0.00000000000E+00 -0.00000000000E+00 -0.45593999997E+02  0.45594000000E+02  0.51100000000E-03 0. -1.
    9900012    2    1    2    0    0  0.23159840892E+02  0.70146929752E+01  0.37993814067E+02  0.46142311471E+02  0.99999426446E+01 0.  0.
         12    1    1    2    0    0 -0.23159840892E+02 -0.70146929752E+01 -0.37993814067E+02  0.45045688529E+02  0.00000000000E+00 0. -1.
         11    1    3    3    0    0  0.23646480287E+01  0.30438703855E+01  0.90658925861E+01  0.98512494571E+01  0.51100000000E-03 0. -1.
        -11    1    3    3    0    0  0.16449809411E+02  0.36191588372E+01  0.26204365979E+02  0.31150655482E+02  0.51100000000E-03 0.  1.
         12    1    3    3    0    0  0.43453834526E+01  0.35166375250E+00  0.27235555017E+01  0.51404065322E+01  0.00000000000E+00 0. -1.
</event>
<event>
 7    1  0.2478637E-008  0.4614232E+02  0.7816164E-02  0.1320468E+00
        -11   -1    0    0    0    0  0.00000000000E+00  0.00000000000E+00  0.45593999997E+02  0.45594000000E+02  0.51100000000E-03 0.  1.
         11   -1    0    0    0    0 -0.00000000000E+00 -0.00000000000E+00 -0.45593999997E+02  0.45594000000E+02  0.51100000000E-03 0. -1.
    9900012    2    1    2    0    0  0.32774426972E+01 -0.42570295963E+02  0.14357638004E+02  0.46142317654E+02  0.99999990233E+01 0.  0.
         12    1    1    2    0    0 -0.32774426972E+01  0.42570295963E+02 -0.14357638004E+02  0.45045682346E+02  0.00000000000E+00 0. -1.
         11    1    3    3    0    0  0.41793390955E+01 -0.12534532887E+02  0.27792780000E+01  0.13502065636E+02  0.51100000000E-03 0. -1.
        -11    1    3    3    0    0 -0.14782567909E+01 -0.82810765313E+01  0.54803780935E+01  0.10039721907E+02  0.51100000000E-03 0.  1.
        -12    1    3    3    0    0  0.57636039255E+00 -0.21754686544E+02  0.60979819101E+01  0.22600530111E+02  0.00000000000E+00 0.  1.
</event>
<event>
 7    1  0.2478637E-008  0.4614232E+02  0.7816164E-02  0.1320468E+00
        -11   -1    0    0    0    0  0.00000000000E+00  0.00000000000E+00  0.45593999997E+02  0.45594000000E+02  0.51100000000E-03 0.  1.
         11   -1    0    0    0    0 -0.00000000000E+00 -0.00000000000E+00 -0.45593999997E+02  0.45594000000E+02  0.51100000000E-03 0. -1.
    9900012    2    1    2    0    0 -0.34840394555E+02  0.23931588402E+02  0.15573669769E+02  0.46142320892E+02  0.10000028549E+02 0.  0.
         12    1    1    2    0    0  0.34840394555E+02 -0.23931588402E+02 -0.15573669769E+02  0.45045679108E+02  0.00000000000E+00 0. -1.
         11    1    3    3    0    0 -0.13795135863E+01  0.21174075009E+01  0.16531085906E+01  0.30198080292E+01  0.51100000000E-03 0. -1.
        -11    1    3    3    0    0 -0.30562906277E+02  0.20794626402E+02  0.14960942255E+02  0.39879036105E+02  0.51100000000E-03 0.  1.
        -12    1    3    3    0    0 -0.28979746922E+01  0.10195544995E+01 -0.10403810756E+01  0.32434767575E+01  0.00000000000E+00 0.  1.
</event>
<event>
 7    1  0.2478637E-008  0.4614232E+02  0.7816164E-02  0.1320468E+00
        -11   -1    0    0    0    0  0.00000000000E+00  0.00000000000E+00  0.45593999997E+02  0.45594000000E+02  0.51100000000E-03 0.  1.
         11   -1    0    0    0    0 -0.00000000000E+00 -0.00000000000E+00 -0.45593999997E+02  0.45594000000E+02  0.51100000000E-03 0. -1.
    9900012    2    1    2    0    0 -0.35924261769E+02 -0.14976347818E+02  0.22677521845E+02  0.46142316804E+02  0.99999912729E+01 0.  0.
         12    1    1    2    0    0  0.35924261769E+02  0.14976347818E+02 -0.22677521845E+02  0.45045683196E+02  0.00000000000E+00 0. -1.
         11    1    3    3    0    0 -0.10160287000E+02 -0.68134514070E+01  0.79408901046E+01  0.14584659335E+02  0.51100000000E-03 0. -1.
        -11    1    3    3    0    0 -0.17171337825E+02 -0.40917531270E+01  0.59970323235E+01  0.18643006283E+02  0.51100000000E-03 0.  1.
         12    1    3    3    0    0 -0.85926369442E+01 -0.40711432836E+01  0.87395994164E+01  0.12914651186E+02  0.00000000000E+00 0. -1.
</event>
<event>
 7    1  0.2478637E-008  0.4614232E+02  0.7816164E-02  0.1320468E+00
        -11   -1    0    0    0    0  0.00000000000E+00  0.00000000000E+00  0.45593999997E+02  0.45594000000E+02  0.51100000000E-03 0.  1.
         11   -1    0    0    0    0 -0.00000000000E+00 -0.00000000000E+00 -0.45593999997E+02  0.45594000000E+02  0.51100000000E-03 0. -1.
    9900012    2    1    2    0    0  0.14794742215E+02 -0.42403269550E+02  0.34916683462E+01  0.46142318591E+02  0.10000007570E+02 0.  0.
         12    1    1    2    0    0 -0.14794742215E+02  0.42403269550E+02 -0.34916683462E+01  0.45045681409E+02  0.00000000000E+00 0. -1.
         11    1    3    3    0    0  0.54368956246E+00 -0.18295601610E+00 -0.18899590348E+00  0.60397926853E+00  0.51100000000E-03 0. -1.
        -11    1    3    3    0    0  0.34020051205E+01 -0.18144495474E+02  0.49098094097E+01  0.19102423499E+02  0.51100000000E-03 0.  1.
        -12    1    3    3    0    0  0.10849047532E+02 -0.24075818060E+02 -0.12291451600E+01  0.26435915824E+02  0.00000000000E+00 0.  1.
</event>
<event>
 7    1  0.2478637E-008  0.4614232E+02  0.7816164E-02  0.1320468E+00
        -11   -1    0    0    0    0  0.00000000000E+00  0.00000000000E+00  0.45593999997E+02  0.45594000000E+02  0.51100000000E-03 0.  1.
         11   -1    0    0    0    0 -0.00000000000E+00 -0.00000000000E+00 -0.45593999997E+02  0.45594000000E+02  0.51100000000E-03 0. -1.
    9900012    2    1    2    0    0 -0.59672373595E+01  0.39391520301E+02  0.21019361028E+02  0.46142319504E+02  0.10000015889E+02 0.  0.
         12    1    1    2    0    0  0.59672373595E+01 -0.39391520301E+02 -0.21019361028E+02  0.45045680496E+02  0.00000000000E+00 0. -1.
         11    1    3    3    0    0 -0.11584602786E+01  0.10567214650E+01  0.21601352689E+01  0.26692461693E+01  0.51100000000E-03 0. -1.
        -11    1    3    3    0    0 -0.61230603663E+01  0.26256488510E+02  0.11888249330E+02  0.29465666961E+02  0.51100000000E-03 0.  1.
        -12    1    3    3    0    0  0.13142832853E+01  0.12078310327E+02  0.69709764297E+01  0.14007406373E+02  0.00000000000E+00 0.  1.
</event>
<event>
 7    1  0.2478637E-008  0.4614232E+02  0.7816164E-02  0.1320468E+00
        -11   -1    0    0    0    0  0.00000000000E+00  0.00000000000E+00  0.45593999997E+02  0.45594000000E+02  0.51100000000E-03 0. -1.
         11   -1    0    0    0    0 -0.00000000000E+00 -0.00000000000E+00 -0.45593999997E+02  0.45594000000E+02  0.51100000000E-03 0.  1.
    9900012    2    1    2    0    0 -0.41830288842E+02 -0.14671714309E+02  0.80050780252E+01  0.46142317193E+02  0.99999948201E+01 0.  0.
         12    1    1    2    0    0  0.41830288842E+02  0.14671714309E+02 -0.80050780252E+01  0.45045682807E+02  0.00000000000E+00 0. -1.
         11    1    3    3    0    0 -0.16607669692E+02 -0.75608684580E+01  0.36517848606E+01  0.18609593154E+02  0.51100000000E-03 0. -1.
        -11    1    3    3    0    0 -0.10202649957E+02 -0.63795072523E+01  0.67635774666E+00  0.12051955816E+02  0.51100000000E-03 0.  1.
         12    1    3    3    0    0 -0.15019969193E+02 -0.73133859817E+00  0.36769354179E+01  0.15480768223E+02  0.00000000000E+00 0. -1.
</event>
<event>
 7    1  0.2478637E-008  0.4614232E+02  0.7816164E-02  0.1320468E+00
        -11   -1    0    0    0    0  0.00000000000E+00  0.00000000000E+00  0.45593999997E+02  0.45594000000E+02  0.51100000000E-03 0.  1.
         11   -1    0    0    0    0 -0.00000000000E+00 -0.00000000000E+00 -0.45593999997E+02  0.45594000000E+02  0.51100000000E-03 0. -1.
    9900012    2    1    2    0    0  0.39384898563E+02  0.90734900837E+00  0.21843076382E+02  0.46142317600E+02  0.99999985332E+01 0.  0.
         12    1    1    2    0    0 -0.39384898563E+02 -0.90734900837E+00 -0.21843076382E+02  0.45045682400E+02  0.00000000000E+00 0. -1.
         11    1    3    3    0    0  0.10630912783E+02  0.16542390731E+01  0.86285321808E+01  0.13791460451E+02  0.51100000000E-03 0. -1.
        -11    1    3    3    0    0  0.26044092724E+02 -0.18688818632E+01  0.13516991082E+02  0.29402321905E+02  0.51100000000E-03 0.  1.
         12    1    3    3    0    0  0.27098930556E+01  0.11219917985E+01 -0.30244688136E+00  0.29485352439E+01  0.00000000000E+00 0. -1.
</event>
<event>
 7    1  0.2478637E-008  0.4614232E+02  0.7816164E-02  0.1320468E+00
        -11   -1    0    0    0    0  0.00000000000E+00  0.00000000000E+00  0.45593999997E+02  0.45594000000E+02  0.51100000000E-03 0.  1.
         11   -1    0    0    0    0 -0.00000000000E+00 -0.00000000000E+00 -0.45593999997E+02  0.45594000000E+02  0.51100000000E-03 0. -1.
    9900012    2    1    2    0    0 -0.99044634284E+01  0.12536199755E+02  0.42117203077E+02  0.46142317686E+02  0.99999993157E+01 0.  0.
         12    1    1    2    0    0  0.99044634284E+01 -0.12536199755E+02 -0.42117203077E+02  0.45045682314E+02  0.00000000000E+00 0. -1.
         11    1    3    3    0    0 -0.35772534862E+01  0.32950432304E+01  0.71026509289E+01  0.86082345968E+01  0.51100000000E-03 0. -1.
        -11    1    3    3    0    0 -0.74975161964E+01  0.96185089430E+01  0.32905622164E+02  0.35092854453E+02  0.51100000000E-03 0.  1.
         12    1    3    3    0    0  0.11703062542E+01 -0.37735241866E+00  0.21089299845E+01  0.24412286366E+01  0.00000000000E+00 0. -1.
</event>
<event>
 7    1  0.2478637E-008  0.4614232E+02  0.7816164E-02  0.1320468E+00
        -11   -1    0    0    0    0  0.00000000000E+00  0.00000000000E+00  0.45593999997E+02  0.45594000000E+02  0.51100000000E-03 0.  1.
         11   -1    0    0    0    0 -0.00000000000E+00 -0.00000000000E+00 -0.45593999997E+02  0.45594000000E+02  0.51100000000E-03 0. -1.
    9900012    2    1    2    0    0 -0.18992631060E+02 -0.32825385841E+02  0.24308177195E+02  0.46142317979E+02  0.10000001984E+02 0.  0.
         12    1    1    2    0    0  0.18992631060E+02  0.32825385841E+02 -0.24308177195E+02  0.45045682021E+02  0.00000000000E+00 0. -1.
         11    1    3    3    0    0 -0.14146729296E+01 -0.44854236569E+01  0.17833693565E+00  0.47066048489E+01  0.51100000000E-03 0. -1.
        -11    1    3    3    0    0 -0.14330978140E+02 -0.23270178487E+02  0.17362557269E+02  0.32378025518E+02  0.51100000000E-03 0.  1.
        -12    1    3    3    0    0 -0.32469799900E+01 -0.50697836972E+01  0.67672829908E+01  0.90576876116E+01  0.00000000000E+00 0.  1.
</event>
<event>
 7    1  0.2478637E-008  0.4614232E+02  0.7816164E-02  0.1320468E+00
        -11   -1    0    0    0    0  0.00000000000E+00  0.00000000000E+00  0.45593999997E+02  0.45594000000E+02  0.51100000000E-03 0.  1.
         11   -1    0    0    0    0 -0.00000000000E+00 -0.00000000000E+00 -0.45593999997E+02  0.45594000000E+02  0.51100000000E-03 0. -1.
    9900012    2    1    2    0    0  0.30049886630E+02  0.26500657899E+02  0.20587205070E+02  0.46142316876E+02  0.99999919243E+01 0.  0.
         12    1    1    2    0    0 -0.30049886630E+02 -0.26500657899E+02 -0.20587205070E+02  0.45045683124E+02  0.00000000000E+00 0. -1.
         11    1    3    3    0    0  0.34431829485E+01  0.10634689956E+01  0.22721604904E+01  0.42601864603E+01  0.51100000000E-03 0.  1.
        -11    1    3    3    0    0  0.24576598442E+02  0.22126666609E+02  0.13557315804E+02  0.35740724367E+02  0.51100000000E-03 0. -1.
         12    1    3    3    0    0  0.20301052396E+01  0.33105222944E+01  0.47577287760E+01  0.61414060484E+01  0.00000000000E+00 0. -1.
</event>
<event>
 7    1  0.2478637E-008  0.4614231E+02  0.7816164E-02  0.1320468E+00
        -11   -1    0    0    0    0  0.00000000000E+00  0.00000000000E+00  0.45593999997E+02  0.45594000000E+02  0.51100000000E-03 0.  1.
         11   -1    0    0    0    0 -0.00000000000E+00 -0.00000000000E+00 -0.45593999997E+02  0.45594000000E+02  0.51100000000E-03 0. -1.
    9900012    2    1    2    0    0  0.22628138913E+02 -0.25790590986E+02  0.29187794572E+02  0.46142305355E+02  0.99998868714E+01 0.  0.
         12    1    1    2    0    0 -0.22628138913E+02  0.25790590986E+02 -0.29187794572E+02  0.45045694645E+02  0.00000000000E+00 0. -1.
         11    1    3    3    0    0  0.83957275013E+01 -0.66990895700E+01  0.13546806948E+02  0.17288204652E+02  0.51100000000E-03 0. -1.
        -11    1    3    3    0    0  0.24571501090E+01 -0.56426356318E+01  0.57607781487E+01  0.84299162909E+01  0.51100000000E-03 0.  1.
         12    1    3    3    0    0  0.11775261303E+02 -0.13448865784E+02  0.98802094750E+01  0.20424184412E+02  0.00000000000E+00 0. -1.
</event>
<event>
 7    1  0.2478637E-008  0.4614232E+02  0.7816164E-02  0.1320468E+00
        -11   -1    0    0    0    0  0.00000000000E+00  0.00000000000E+00  0.45593999997E+02  0.45594000000E+02  0.51100000000E-03 0.  1.
         11   -1    0    0    0    0 -0.00000000000E+00 -0.00000000000E+00 -0.45593999997E+02  0.45594000000E+02  0.51100000000E-03 0. -1.
    9900012    2    1    2    0    0  0.19189699195E+02  0.28458270643E+02 -0.29171832106E+02  0.46142317503E+02  0.99999976467E+01 0.  0.
         12    1    1    2    0    0 -0.19189699195E+02 -0.28458270643E+02  0.29171832106E+02  0.45045682497E+02  0.00000000000E+00 0. -1.
         11    1    3    3    0    0 -0.32243608509E+00  0.11936524674E+01 -0.11166688292E+01  0.16660494522E+01  0.51100000000E-03 0. -1.
        -11    1    3    3    0    0  0.15083040244E+02  0.21267449532E+02 -0.16941861429E+02  0.31093876914E+02  0.51100000000E-03 0.  1.
         12    1    3    3    0    0  0.44290950364E+01  0.59971686434E+01 -0.11113301848E+02  0.13382391137E+02  0.00000000000E+00 0. -1.
</event>
<event>
 7    1  0.2478637E-008  0.4614232E+02  0.7816164E-02  0.1320468E+00
        -11   -1    0    0    0    0  0.00000000000E+00  0.00000000000E+00  0.45593999997E+02  0.45594000000E+02  0.51100000000E-03 0.  1.
         11   -1    0    0    0    0 -0.00000000000E+00 -0.00000000000E+00 -0.45593999997E+02  0.45594000000E+02  0.51100000000E-03 0. -1.
    9900012    2    1    2    0    0  0.33540700163E+02  0.17983029541E+01  0.30015013097E+02  0.46142317941E+02  0.10000001641E+02 0.  0.
         12    1    1    2    0    0 -0.33540700163E+02 -0.17983029541E+01 -0.30015013097E+02  0.45045682059E+02  0.00000000000E+00 0. -1.
         11    1    3    3    0    0  0.59991751974E+01  0.13566119958E+01  0.94043615945E+01  0.11237104450E+02  0.51100000000E-03 0. -1.
        -11    1    3    3    0    0  0.14086973890E+02 -0.13610609908E+01  0.13596017721E+02  0.19625162892E+02  0.51100000000E-03 0.  1.
         12    1    3    3    0    0  0.13454551075E+02  0.18027519491E+01  0.70146337818E+01  0.15280050599E+02  0.00000000000E+00 0. -1.
</event>
<event>
 7    1  0.2478637E-008  0.4614232E+02  0.7816164E-02  0.1320468E+00
        -11   -1    0    0    0    0  0.00000000000E+00  0.00000000000E+00  0.45593999997E+02  0.45594000000E+02  0.51100000000E-03 0.  1.
         11   -1    0    0    0    0 -0.00000000000E+00 -0.00000000000E+00 -0.45593999997E+02  0.45594000000E+02  0.51100000000E-03 0. -1.
    9900012    2    1    2    0    0  0.19916961270E+02 -0.19138508464E+02  0.35582939564E+02  0.46142318293E+02  0.10000004851E+02 0.  0.
         12    1    1    2    0    0 -0.19916961270E+02  0.19138508464E+02 -0.35582939564E+02  0.45045681707E+02  0.00000000000E+00 0. -1.
         11    1    3    3    0    0  0.12559501227E+02 -0.97688143024E+01  0.24038723206E+02  0.28827608600E+02  0.51100000000E-03 0. -1.
        -11    1    3    3    0    0  0.17825060299E+00 -0.37579706920E+01  0.39238065347E+01  0.54360256605E+01  0.51100000000E-03 0.  1.
        -12    1    3    3    0    0  0.71792094401E+01 -0.56117234696E+01  0.76204098231E+01  0.11878684033E+02  0.00000000000E+00 0.  1.
</event>
<event>
 7    1  0.2478637E-008  0.4614232E+02  0.7816164E-02  0.1320468E+00
        -11   -1    0    0    0    0  0.00000000000E+00  0.00000000000E+00  0.45593999997E+02  0.45594000000E+02  0.51100000000E-03 0. -1.
         11   -1    0    0    0    0 -0.00000000000E+00 -0.00000000000E+00 -0.45593999997E+02  0.45594000000E+02  0.51100000000E-03 0.  1.
    9900012    2    1    2    0    0 -0.24697593381E+02  0.34852819510E+02  0.14297670008E+02  0.46142317474E+02  0.99999973809E+01 0.  0.
         12    1    1    2    0    0  0.24697593381E+02 -0.34852819510E+02 -0.14297670008E+02  0.45045682526E+02  0.00000000000E+00 0. -1.
         11    1    3    3    0    0 -0.91244183179E+01  0.10114020347E+02  0.82616430628E+01  0.15931200946E+02  0.51100000000E-03 0. -1.
        -11    1    3    3    0    0 -0.24850037161E+01  0.74004104461E+01  0.67466880662E+00  0.78355916496E+01  0.51100000000E-03 0.  1.
        -12    1    3    3    0    0 -0.13088171347E+02  0.17338388716E+02  0.53613581383E+01  0.22375524878E+02  0.00000000000E+00 0.  1.
</event>
<event>
 7    1  0.2478637E-008  0.4614232E+02  0.7816164E-02  0.1320468E+00
        -11   -1    0    0    0    0  0.00000000000E+00  0.00000000000E+00  0.45593999997E+02  0.45594000000E+02  0.51100000000E-03 0. -1.
         11   -1    0    0    0    0 -0.00000000000E+00 -0.00000000000E+00 -0.45593999997E+02  0.45594000000E+02  0.51100000000E-03 0.  1.
    9900012    2    1    2    0    0  0.11058948021E+01 -0.16577009250E+02 -0.41869955700E+02  0.46142318417E+02  0.10000005978E+02 0.  0.
         12    1    1    2    0    0 -0.11058948021E+01  0.16577009250E+02  0.41869955700E+02  0.45045681583E+02  0.00000000000E+00 0. -1.
         11    1    3    3    0    0  0.26446650990E-01  0.29510413009E+00 -0.15078693160E+01  0.15367029668E+01  0.51100000000E-03 0. -1.
        -11    1    3    3    0    0 -0.92108929706E+00  0.59017423790E+00 -0.93846044880E+00  0.14413255702E+01  0.51100000000E-03 0.  1.
        -12    1    3    3    0    0  0.20005374481E+01 -0.17462287618E+02 -0.39423625935E+02  0.43164289880E+02  0.00000000000E+00 0.  1.
</event>
<event>
 7    1  0.2478637E-008  0.4614232E+02  0.7816164E-02  0.1320468E+00
        -11   -1    0    0    0    0  0.00000000000E+00  0.00000000000E+00  0.45593999997E+02  0.45594000000E+02  0.51100000000E-03 0. -1.
         11   -1    0    0    0    0 -0.00000000000E+00 -0.00000000000E+00 -0.45593999997E+02  0.45594000000E+02  0.51100000000E-03 0.  1.
    9900012    2    1    2    0    0 -0.55214490795E+00  0.78326088197E+01 -0.44356047169E+02  0.46142317128E+02  0.99999942285E+01 0.  0.
         12    1    1    2    0    0  0.55214490795E+00 -0.78326088197E+01  0.44356047169E+02  0.45045682872E+02  0.00000000000E+00 0. -1.
         11    1    3    3    0    0  0.12049528509E+01  0.27282748910E+01 -0.79378588401E+01  0.84796815082E+01  0.51100000000E-03 0. -1.
        -11    1    3    3    0    0 -0.17914171951E+01  0.37946395290E+01 -0.36061474057E+02  0.36304798253E+02  0.51100000000E-03 0.  1.
         12    1    3    3    0    0  0.34319436292E-01  0.13096943997E+01 -0.35671427159E+00  0.13578373672E+01  0.00000000000E+00 0. -1.
</event>
<event>
 7    1  0.2478637E-008  0.4614232E+02  0.7816164E-02  0.1320468E+00
        -11   -1    0    0    0    0  0.00000000000E+00  0.00000000000E+00  0.45593999997E+02  0.45594000000E+02  0.51100000000E-03 0. -1.
         11   -1    0    0    0    0 -0.00000000000E+00 -0.00000000000E+00 -0.45593999997E+02  0.45594000000E+02  0.51100000000E-03 0.  1.
    9900012    2    1    2    0    0  0.32287295223E+02  0.26232204573E+02 -0.17277601652E+02  0.46142317539E+02  0.99999979725E+01 0.  0.
         12    1    1    2    0    0 -0.32287295223E+02 -0.26232204573E+02  0.17277601652E+02  0.45045682461E+02  0.00000000000E+00 0. -1.
         11    1    3    3    0    0  0.15551157636E+01  0.44381546088E+01 -0.13948694086E+01  0.49052280577E+01  0.51100000000E-03 0. -1.
        -11    1    3    3    0    0  0.20150007913E+02  0.12266763346E+02 -0.12058178677E+02  0.26493319443E+02  0.51100000000E-03 0.  1.
        -12    1    3    3    0    0  0.10582171546E+02  0.95272866180E+01 -0.38245535671E+01  0.14743770038E+02  0.00000000000E+00 0.  1.
</event>
<event>
 7    1  0.2478637E-008  0.4614232E+02  0.7816164E-02  0.1320468E+00
        -11   -1    0    0    0    0  0.00000000000E+00  0.00000000000E+00  0.45593999997E+02  0.45594000000E+02  0.51100000000E-03 0.  1.
         11   -1    0    0    0    0 -0.00000000000E+00 -0.00000000000E+00 -0.45593999997E+02  0.45594000000E+02  0.51100000000E-03 0. -1.
    9900012    2    1    2    0    0  0.31287469054E+02  0.31498487040E+02 -0.76192582938E+01  0.46142317603E+02  0.99999985620E+01 0.  0.
         12    1    1    2    0    0 -0.31287469054E+02 -0.31498487040E+02  0.76192582938E+01  0.45045682397E+02  0.00000000000E+00 0. -1.
         11    1    3    3    0    0 -0.13237312453E+00  0.10714658040E+01  0.95083821531E+00  0.14386296209E+01  0.51100000000E-03 0. -1.
        -11    1    3    3    0    0  0.15687200481E+02  0.14626691377E+02 -0.59149208022E+01  0.22248924647E+02  0.51100000000E-03 0.  1.
        -12    1    3    3    0    0  0.15732641697E+02  0.15800329859E+02 -0.26551757069E+01  0.22454763336E+02  0.00000000000E+00 0.  1.
</event>
<event>
 7    1  0.2478637E-008  0.4614231E+02  0.7816164E-02  0.1320468E+00
        -11   -1    0    0    0    0  0.00000000000E+00  0.00000000000E+00  0.45593999997E+02  0.45594000000E+02  0.51100000000E-03 0.  1.
         11   -1    0    0    0    0 -0.00000000000E+00 -0.00000000000E+00 -0.45593999997E+02  0.45594000000E+02  0.51100000000E-03 0. -1.
    9900012    2    1    2    0    0  0.37288136265E+02  0.23387581964E+02  0.95775644781E+01  0.46142313886E+02  0.99999646591E+01 0.  0.
         12    1    1    2    0    0 -0.37288136265E+02 -0.23387581964E+02 -0.95775644781E+01  0.45045686114E+02  0.00000000000E+00 0. -1.
         11    1    3    3    0    0  0.11180434332E+02  0.32274369355E+01  0.28079159425E+01  0.11970916975E+02  0.51100000000E-03 0. -1.
        -11    1    3    3    0    0  0.18867149940E+02  0.14006994539E+02  0.21223059040E+01  0.23593842957E+02  0.51100000000E-03 0.  1.
         12    1    3    3    0    0  0.72405519927E+01  0.61531504889E+01  0.46473426316E+01  0.10577553953E+02  0.00000000000E+00 0. -1.
</event>
<event>
 7    1  0.2478637E-008  0.4614232E+02  0.7816164E-02  0.1320468E+00
        -11   -1    0    0    0    0  0.00000000000E+00  0.00000000000E+00  0.45593999997E+02  0.45594000000E+02  0.51100000000E-03 0.  1.
         11   -1    0    0    0    0 -0.00000000000E+00 -0.00000000000E+00 -0.45593999997E+02  0.45594000000E+02  0.51100000000E-03 0. -1.
    9900012    2    1    2    0    0  0.26216014385E+02  0.24344205372E+02  0.27371404296E+02  0.46142317426E+02  0.99999969458E+01 0.  0.
         12    1    1    2    0    0 -0.26216014385E+02 -0.24344205372E+02 -0.27371404296E+02  0.45045682574E+02  0.00000000000E+00 0. -1.
         11    1    3    3    0    0  0.81526577150E+01  0.78348356510E+01  0.72444125763E+01  0.13428774752E+02  0.51100000000E-03 0.  1.
        -11    1    3    3    0    0  0.11509458283E+02  0.15024579650E+02  0.13285887944E+02  0.23124023057E+02  0.51100000000E-03 0. -1.
         12    1    3    3    0    0  0.65538983869E+01  0.14847900708E+01  0.68411037758E+01  0.95895196174E+01  0.00000000000E+00 0. -1.
</event>
<event>
 7    1  0.2478637E-008  0.4614232E+02  0.7816164E-02  0.1320468E+00
        -11   -1    0    0    0    0  0.00000000000E+00  0.00000000000E+00  0.45593999997E+02  0.45594000000E+02  0.51100000000E-03 0.  1.
         11   -1    0    0    0    0 -0.00000000000E+00 -0.00000000000E+00 -0.45593999997E+02  0.45594000000E+02  0.51100000000E-03 0. -1.
    9900012    2    1    2    0    0  0.20656260675E+02 -0.28149025712E+02  0.28461634840E+02  0.46142318615E+02  0.10000007791E+02 0.  0.
         12    1    1    2    0    0 -0.20656260675E+02  0.28149025712E+02 -0.28461634840E+02  0.45045681385E+02  0.00000000000E+00 0. -1.
         11    1    3    3    0    0  0.18407693594E+01 -0.60033692067E+01  0.30422185167E+01  0.69773897290E+01  0.51100000000E-03 0. -1.
        -11    1    3    3    0    0  0.12298320918E+02 -0.14078730859E+02  0.20311583697E+02  0.27604705985E+02  0.51100000000E-03 0.  1.
         12    1    3    3    0    0  0.65171703984E+01 -0.80669256464E+01  0.51078326265E+01  0.11560222901E+02  0.00000000000E+00 0. -1.
</event>
<event>
 7    1  0.2478637E-008  0.4614232E+02  0.7816164E-02  0.1320468E+00
        -11   -1    0    0    0    0  0.00000000000E+00  0.00000000000E+00  0.45593999997E+02  0.45594000000E+02  0.51100000000E-03 0.  1.
         11   -1    0    0    0    0 -0.00000000000E+00 -0.00000000000E+00 -0.45593999997E+02  0.45594000000E+02  0.51100000000E-03 0. -1.
    9900012    2    1    2    0    0 -0.31393090594E+02  0.13785852067E+01  0.32275173718E+02  0.46142317935E+02  0.10000001588E+02 0.  0.
         12    1    1    2    0    0  0.31393090594E+02 -0.13785852067E+01 -0.32275173718E+02  0.45045682065E+02  0.00000000000E+00 0. -1.
         11    1    3    3    0    0 -0.56432180722E+01  0.58414261784E+00  0.72642197143E+01  0.92171590595E+01  0.51100000000E-03 0. -1.
        -11    1    3    3    0    0 -0.10731243876E+02  0.38396805073E+01  0.14012813884E+02  0.18062715597E+02  0.51100000000E-03 0.  1.
         12    1    3    3    0    0 -0.15018628645E+02 -0.30452379185E+01  0.10998140119E+02  0.18862443278E+02  0.00000000000E+00 0. -1.
</event>
<event>
 7    1  0.2478637E-008  0.4614232E+02  0.7816164E-02  0.1320468E+00
        -11   -1    0    0    0    0  0.00000000000E+00  0.00000000000E+00  0.45593999997E+02  0.45594000000E+02  0.51100000000E-03 0. -1.
         11   -1    0    0    0    0 -0.00000000000E+00 -0.00000000000E+00 -0.45593999997E+02  0.45594000000E+02  0.51100000000E-03 0.  1.
    9900012    2    1    2    0    0  0.31176301218E+02 -0.13791980080E+02 -0.29443725114E+02  0.46142318512E+02  0.10000006846E+02 0.  0.
         12    1    1    2    0    0 -0.31176301218E+02  0.13791980080E+02  0.29443725114E+02  0.45045681488E+02  0.00000000000E+00 0. -1.
         11    1    3    3    0    0  0.18221321272E+02 -0.66035322684E+01 -0.11689397269E+02  0.22633276300E+02  0.51100000000E-03 0. -1.
        -11    1    3    3    0    0  0.99425322464E+01 -0.68339193516E+01 -0.12068518430E+02  0.17064745487E+02  0.51100000000E-03 0.  1.
         12    1    3    3    0    0  0.30124476992E+01 -0.35452846007E+00 -0.56858094149E+01  0.64442967244E+01  0.00000000000E+00 0. -1.
</event>
<event>
 7    1  0.2478637E-008  0.4614232E+02  0.7816164E-02  0.1320468E+00
        -11   -1    0    0    0    0  0.00000000000E+00  0.00000000000E+00  0.45593999997E+02  0.45594000000E+02  0.51100000000E-03 0. -1.
         11   -1    0    0    0    0 -0.00000000000E+00 -0.00000000000E+00 -0.45593999997E+02  0.45594000000E+02  0.51100000000E-03 0.  1.
    9900012    2    1    2    0    0  0.13659171556E+02 -0.40928812306E+02 -0.12937267542E+02  0.46142317234E+02  0.99999951947E+01 0.  0.
         12    1    1    2    0    0 -0.13659171556E+02  0.40928812306E+02  0.12937267542E+02  0.45045682766E+02  0.00000000000E+00 0. -1.
         11    1    3    3    0    0  0.11132791098E+01 -0.61024142393E+01  0.38942526993E+00  0.62153440955E+01  0.51100000000E-03 0. -1.
        -11    1    3    3    0    0  0.12214637528E+02 -0.25445432222E+02 -0.93647440337E+01  0.29738288821E+02  0.51100000000E-03 0.  1.
        -12    1    3    3    0    0  0.33125491754E+00 -0.93809658447E+01 -0.39619487786E+01  0.10188684318E+02  0.00000000000E+00 0.  1.
</event>
<event>
 7    1  0.2478637E-008  0.4614232E+02  0.7816164E-02  0.1320468E+00
        -11   -1    0    0    0    0  0.00000000000E+00  0.00000000000E+00  0.45593999997E+02  0.45594000000E+02  0.51100000000E-03 0.  1.
         11   -1    0    0    0    0 -0.00000000000E+00 -0.00000000000E+00 -0.45593999997E+02  0.45594000000E+02  0.51100000000E-03 0. -1.
    9900012    2    1    2    0    0  0.43089010400E+02  0.66362622188E+01  0.11331844506E+02  0.46142317706E+02  0.99999994944E+01 0.  0.
         12    1    1    2    0    0 -0.43089010400E+02 -0.66362622188E+01 -0.11331844506E+02  0.45045682294E+02  0.00000000000E+00 0. -1.
         11    1    3    3    0    0  0.24186258458E+01  0.16549311913E+01  0.24355039830E+01  0.38105417124E+01  0.51100000000E-03 0. -1.
        -11    1    3    3    0    0  0.22530668851E+02  0.11998006513E+01  0.23716012399E+01  0.22686891660E+02  0.51100000000E-03 0.  1.
        -12    1    3    3    0    0  0.18139715703E+02  0.37815303762E+01  0.65247392835E+01  0.19644884334E+02  0.00000000000E+00 0.  1.
</event>
<event>
 7    1  0.2478637E-008  0.4614232E+02  0.7816164E-02  0.1320468E+00
        -11   -1    0    0    0    0  0.00000000000E+00  0.00000000000E+00  0.45593999997E+02  0.45594000000E+02  0.51100000000E-03 0.  1.
         11   -1    0    0    0    0 -0.00000000000E+00 -0.00000000000E+00 -0.45593999997E+02  0.45594000000E+02  0.51100000000E-03 0. -1.
    9900012    2    1    2    0    0  0.54073955801E+01  0.22903822027E+02  0.38409484078E+02  0.46142318103E+02  0.10000003121E+02 0.  0.
         12    1    1    2    0    0 -0.54073955801E+01 -0.22903822027E+02 -0.38409484078E+02  0.45045681897E+02  0.00000000000E+00 0. -1.
         11    1    3    3    0    0  0.39324267215E+01  0.69299950574E+01  0.13560276371E+02  0.15727997550E+02  0.51100000000E-03 0. -1.
        -11    1    3    3    0    0  0.23843311693E+01  0.59842301251E+01  0.49292479195E+01  0.81113211396E+01  0.51100000000E-03 0.  1.
        -12    1    3    3    0    0 -0.90936231066E+00  0.99895968448E+01  0.19919959788E+02  0.22302999414E+02  0.00000000000E+00 0.  1.
</event>
<event>
 7    1  0.2478637E-008  0.4614231E+02  0.7816164E-02  0.1320468E+00
        -11   -1    0    0    0    0  0.00000000000E+00  0.00000000000E+00  0.45593999997E+02  0.45594000000E+02  0.51100000000E-03 0.  1.
         11   -1    0    0    0    0 -0.00000000000E+00 -0.00000000000E+00 -0.45593999997E+02  0.45594000000E+02  0.51100000000E-03 0. -1.
    9900012    2    1    2    0    0  0.35758514357E+01 -0.24178233393E+02  0.37838343572E+02  0.46142312884E+02  0.99999555231E+01 0.  0.
         12    1    1    2    0    0 -0.35758514357E+01  0.24178233393E+02 -0.37838343572E+02  0.45045687116E+02  0.00000000000E+00 0. -1.
         11    1    3    3    0    0  0.25306897159E+01 -0.15112990714E+02  0.19256769608E+02  0.24609552104E+02  0.51100000000E-03 0. -1.
        -11    1    3    3    0    0  0.24592251163E+01 -0.84503937063E+01  0.12693241878E+02  0.15445883970E+02  0.51100000000E-03 0.  1.
         12    1    3    3    0    0 -0.14140633966E+01 -0.61484897307E+00  0.58883320855E+01  0.60868768098E+01  0.00000000000E+00 0. -1.
</event>
<event>
 7    1  0.2478637E-008  0.4614232E+02  0.7816164E-02  0.1320468E+00
        -11   -1    0    0    0    0  0.00000000000E+00  0.00000000000E+00  0.45593999997E+02  0.45594000000E+02  0.51100000000E-03 0. -1.
         11   -1    0    0    0    0 -0.00000000000E+00 -0.00000000000E+00 -0.45593999997E+02  0.45594000000E+02  0.51100000000E-03 0.  1.
    9900012    2    1    2    0    0 -0.30038285619E+02 -0.10790787932E+02 -0.31786377941E+02  0.46142317302E+02  0.99999958130E+01 0.  0.
         12    1    1    2    0    0  0.30038285619E+02  0.10790787932E+02  0.31786377941E+02  0.45045682698E+02  0.00000000000E+00 0. -1.
         11    1    3    3    0    0 -0.87848045749E+01 -0.66719955368E+01 -0.81357013915E+01  0.13706857891E+02  0.51100000000E-03 0. -1.
        -11    1    3    3    0    0 -0.75910124701E+01 -0.73898735932E+00 -0.11728651970E+02  0.13990384196E+02  0.51100000000E-03 0.  1.
         12    1    3    3    0    0 -0.13662468574E+02 -0.33798050359E+01 -0.11922024579E+02  0.18445075215E+02  0.00000000000E+00 0. -1.
</event>
<event>
 7    1  0.2478637E-008  0.4614232E+02  0.7816164E-02  0.1320468E+00
        -11   -1    0    0    0    0  0.00000000000E+00  0.00000000000E+00  0.45593999997E+02  0.45594000000E+02  0.51100000000E-03 0.  1.
         11   -1    0    0    0    0 -0.00000000000E+00 -0.00000000000E+00 -0.45593999997E+02  0.45594000000E+02  0.51100000000E-03 0. -1.
    9900012    2    1    2    0    0 -0.39967181977E+02  0.15250356740E+02  0.14112563737E+02  0.46142317953E+02  0.10000001748E+02 0.  0.
         12    1    1    2    0    0  0.39967181977E+02 -0.15250356740E+02 -0.14112563737E+02  0.45045682047E+02  0.00000000000E+00 0. -1.
         11    1    3    3    0    0 -0.42475273551E+01  0.31322447112E+01  0.77868599781E+00  0.53346787820E+01  0.51100000000E-03 0. -1.
        -11    1    3    3    0    0 -0.59190261829E+01 -0.68334806658E+00  0.35251440592E+01  0.69230395372E+01  0.51100000000E-03 0.  1.
         12    1    3    3    0    0 -0.29800628439E+02  0.12801460095E+02  0.98087336796E+01  0.33884599634E+02  0.00000000000E+00 0. -1.
</event>
<event>
 7    1  0.2478637E-008  0.4614232E+02  0.7816164E-02  0.1320468E+00
        -11   -1    0    0    0    0  0.00000000000E+00  0.00000000000E+00  0.45593999997E+02  0.45594000000E+02  0.51100000000E-03 0.  1.
         11   -1    0    0    0    0 -0.00000000000E+00 -0.00000000000E+00 -0.45593999997E+02  0.45594000000E+02  0.51100000000E-03 0. -1.
    9900012    2    1    2    0    0 -0.14055402192E+00  0.21587530907E+02  0.39535705665E+02  0.46142320202E+02  0.10000022254E+02 0.  0.
         12    1    1    2    0    0  0.14055402192E+00 -0.21587530907E+02 -0.39535705665E+02  0.45045679798E+02  0.00000000000E+00 0. -1.
         11    1    3    3    0    0 -0.15609804482E+00  0.29438646266E+01  0.16347005924E+01  0.33708977777E+01  0.51100000000E-03 0. -1.
        -11    1    3    3    0    0 -0.95348896753E+00  0.45738051306E+01  0.16441405007E+02  0.17092355995E+02  0.51100000000E-03 0.  1.
        -12    1    3    3    0    0  0.96903299043E+00  0.14069861149E+02  0.21459600065E+02  0.25679066429E+02  0.00000000000E+00 0.  1.
</event>
<event>
 7    1  0.2478637E-008  0.4614232E+02  0.7816164E-02  0.1320468E+00
        -11   -1    0    0    0    0  0.00000000000E+00  0.00000000000E+00  0.45593999997E+02  0.45594000000E+02  0.51100000000E-03 0.  1.
         11   -1    0    0    0    0 -0.00000000000E+00 -0.00000000000E+00 -0.45593999997E+02  0.45594000000E+02  0.51100000000E-03 0. -1.
    9900012    2    1    2    0    0  0.32528501896E+02  0.25970709777E+02  0.17220117726E+02  0.46142315895E+02  0.99999829873E+01 0.  0.
         12    1    1    2    0    0 -0.32528501896E+02 -0.25970709777E+02 -0.17220117726E+02  0.45045684105E+02  0.00000000000E+00 0. -1.
         11    1    3    3    0    0  0.11486543529E+02  0.96416597689E+01  0.16947847526E+01  0.15092202655E+02  0.51100000000E-03 0.  1.
        -11    1    3    3    0    0  0.44507289782E+01  0.45198860483E+01  0.52803639959E+01  0.82535206135E+01  0.51100000000E-03 0. -1.
        -12    1    3    3    0    0  0.16591229389E+02  0.11809163960E+02  0.10244968977E+02  0.22796592627E+02  0.00000000000E+00 0.  1.
</event>
<event>
 7    1  0.2478637E-008  0.4614232E+02  0.7816164E-02  0.1320468E+00
        -11   -1    0    0    0    0  0.00000000000E+00  0.00000000000E+00  0.45593999997E+02  0.45594000000E+02  0.51100000000E-03 0.  1.
         11   -1    0    0    0    0 -0.00000000000E+00 -0.00000000000E+00 -0.45593999997E+02  0.45594000000E+02  0.51100000000E-03 0. -1.
    9900012    2    1    2    0    0 -0.36415096848E+02 -0.87865467293E+01  0.25017006866E+02  0.46142319692E+02  0.10000017611E+02 0.  0.
         12    1    1    2    0    0  0.36415096848E+02  0.87865467293E+01 -0.25017006866E+02  0.45045680308E+02  0.00000000000E+00 0. -1.
         11    1    3    3    0    0 -0.42321967439E+01 -0.30163136959E+01  0.46457695454E+00  0.52178031391E+01  0.51100000000E-03 0. -1.
        -11    1    3    3    0    0 -0.13956214667E+02 -0.24337750513E+01  0.95804471450E+01  0.17102168184E+02  0.51100000000E-03 0.  1.
         12    1    3    3    0    0 -0.18226685437E+02 -0.33364579821E+01  0.14971982766E+02  0.23822348370E+02  0.00000000000E+00 0. -1.
</event>
<event>
 7    1  0.2478637E-008  0.4614232E+02  0.7816164E-02  0.1320468E+00
        -11   -1    0    0    0    0  0.00000000000E+00  0.00000000000E+00  0.45593999997E+02  0.45594000000E+02  0.51100000000E-03 0.  1.
         11   -1    0    0    0    0 -0.00000000000E+00 -0.00000000000E+00 -0.45593999997E+02  0.45594000000E+02  0.51100000000E-03 0. -1.
    9900012    2    1    2    0    0  0.11647524155E+01  0.39322289954E+02  0.21943434989E+02  0.46142317915E+02  0.10000001401E+02 0.  0.
         12    1    1    2    0    0 -0.11647524155E+01 -0.39322289954E+02 -0.21943434989E+02  0.45045682085E+02  0.00000000000E+00 0. -1.
         11    1    3    3    0    0  0.80928694054E+00  0.22929817907E+02  0.81739702481E+01  0.24356627117E+02  0.51100000000E-03 0. -1.
        -11    1    3    3    0    0  0.26726117629E-01  0.11771018797E+02  0.73800709629E+01  0.13893273389E+02  0.51100000000E-03 0.  1.
         12    1    3    3    0    0  0.32873935736E+00  0.46214532500E+01  0.63893937777E+01  0.78924174087E+01  0.00000000000E+00 0. -1.
</event>
<event>
 7    1  0.2478637E-008  0.4614232E+02  0.7816164E-02  0.1320468E+00
        -11   -1    0    0    0    0  0.00000000000E+00  0.00000000000E+00  0.45593999997E+02  0.45594000000E+02  0.51100000000E-03 0. -1.
         11   -1    0    0    0    0 -0.00000000000E+00 -0.00000000000E+00 -0.45593999997E+02  0.45594000000E+02  0.51100000000E-03 0.  1.
    9900012    2    1    2    0    0 -0.18766223409E+02  0.20330907090E+02 -0.35547103866E+02  0.46142317439E+02  0.99999970618E+01 0.  0.
         12    1    1    2    0    0  0.18766223409E+02 -0.20330907090E+02  0.35547103866E+02  0.45045682561E+02  0.00000000000E+00 0. -1.
         11    1    3    3    0    0 -0.72703402170E+01  0.94442534181E+01 -0.13240467294E+02  0.17814649700E+02  0.51100000000E-03 0. -1.
        -11    1    3    3    0    0 -0.22168993261E+01  0.58503437732E+01 -0.48063491456E+01  0.78893698898E+01  0.51100000000E-03 0.  1.
         12    1    3    3    0    0 -0.92789838656E+01  0.50363098985E+01 -0.17500287426E+02  0.20438297849E+02  0.00000000000E+00 0. -1.
</event>
<event>
 7    1  0.2478637E-008  0.4614232E+02  0.7816164E-02  0.1320468E+00
        -11   -1    0    0    0    0  0.00000000000E+00  0.00000000000E+00  0.45593999997E+02  0.45594000000E+02  0.51100000000E-03 0.  1.
         11   -1    0    0    0    0 -0.00000000000E+00 -0.00000000000E+00 -0.45593999997E+02  0.45594000000E+02  0.51100000000E-03 0. -1.
    9900012    2    1    2    0    0 -0.34735595815E+02  0.28223225692E+02 -0.50991751363E+01  0.46142315722E+02  0.99999814017E+01 0.  0.
         12    1    1    2    0    0  0.34735595815E+02 -0.28223225692E+02  0.50991751363E+01  0.45045684278E+02  0.00000000000E+00 0. -1.
         11    1    3    3    0    0 -0.19254778867E+02  0.10463852205E+02 -0.31617582969E+01  0.22141260758E+02  0.51100000000E-03 0. -1.
        -11    1    3    3    0    0 -0.32469720893E+01  0.21406348525E+01 -0.14646690075E+01  0.41557671834E+01  0.51100000000E-03 0.  1.
        -12    1    3    3    0    0 -0.12233844859E+02  0.15618738635E+02 -0.47274783191E+00  0.19845287780E+02  0.00000000000E+00 0.  1.
</event>
<event>
 7    1  0.2478637E-008  0.4614232E+02  0.7816164E-02  0.1320468E+00
        -11   -1    0    0    0    0  0.00000000000E+00  0.00000000000E+00  0.45593999997E+02  0.45594000000E+02  0.51100000000E-03 0.  1.
         11   -1    0    0    0    0 -0.00000000000E+00 -0.00000000000E+00 -0.45593999997E+02  0.45594000000E+02  0.51100000000E-03 0. -1.
    9900012    2    1    2    0    0 -0.32785189754E+02 -0.28860380621E+02  0.11014685585E+02  0.46142317239E+02  0.99999952404E+01 0.  0.
         12    1    1    2    0    0  0.32785189754E+02  0.28860380621E+02 -0.11014685585E+02  0.45045682761E+02  0.00000000000E+00 0. -1.
         11    1    3    3    0    0  0.96849032402E-01 -0.81850218659E+00  0.10359695952E+01  0.13238424483E+01  0.51100000000E-03 0. -1.
        -11    1    3    3    0    0 -0.15876033963E+02 -0.11434169670E+02  0.16622640693E+01  0.19635473321E+02  0.51100000000E-03 0.  1.
         12    1    3    3    0    0 -0.17006004824E+02 -0.16607708765E+02  0.83164519209E+01  0.25183001470E+02  0.00000000000E+00 0. -1.
</event>
<event>
 7    1  0.2478637E-008  0.4614232E+02  0.7816164E-02  0.1320468E+00
        -11   -1    0    0    0    0  0.00000000000E+00  0.00000000000E+00  0.45593999997E+02  0.45594000000E+02  0.51100000000E-03 0. -1.
         11   -1    0    0    0    0 -0.00000000000E+00 -0.00000000000E+00 -0.45593999997E+02  0.45594000000E+02  0.51100000000E-03 0.  1.
    9900012    2    1    2    0    0 -0.11879470181E+02  0.18547356712E+02 -0.39293603151E+02  0.46142317617E+02  0.99999986830E+01 0.  0.
         12    1    1    2    0    0  0.11879470181E+02 -0.18547356712E+02  0.39293603151E+02  0.45045682383E+02  0.00000000000E+00 0. -1.
         11    1    3    3    0    0 -0.46099802665E+01  0.77865078389E+01 -0.14517104706E+02  0.17106371669E+02  0.51100000000E-03 0. -1.
        -11    1    3    3    0    0 -0.15497298508E+01  0.53627143416E+01 -0.41348925968E+01  0.69467765740E+01  0.51100000000E-03 0.  1.
         12    1    3    3    0    0 -0.57197600633E+01  0.53981345310E+01 -0.20641605849E+02  0.22089169374E+02  0.00000000000E+00 0. -1.
</event>
<event>
 7    1  0.2478637E-008  0.4614232E+02  0.7816164E-02  0.1320468E+00
        -11   -1    0    0    0    0  0.00000000000E+00  0.00000000000E+00  0.45593999997E+02  0.45594000000E+02  0.51100000000E-03 0.  1.
         11   -1    0    0    0    0 -0.00000000000E+00 -0.00000000000E+00 -0.45593999997E+02  0.45594000000E+02  0.51100000000E-03 0. -1.
    9900012    2    1    2    0    0 -0.78591841775E+00 -0.11523189890E+02  0.43539774234E+02  0.46142317484E+02  0.99999974745E+01 0.  0.
         12    1    1    2    0    0  0.78591841775E+00  0.11523189890E+02 -0.43539774234E+02  0.45045682516E+02  0.00000000000E+00 0. -1.
         11    1    3    3    0    0  0.43287754011E+00 -0.91414941941E+00  0.85038369247E+00  0.13214404305E+01  0.51100000000E-03 0. -1.
        -11    1    3    3    0    0  0.12137794181E-01 -0.79323366089E+01  0.14937525656E+02  0.16913065493E+02  0.51100000000E-03 0.  1.
         12    1    3    3    0    0 -0.12309337520E+01 -0.26767038613E+01  0.27751864886E+02  0.27907811561E+02  0.00000000000E+00 0. -1.
</event>
<event>
 7    1  0.2478637E-008  0.4614231E+02  0.7816164E-02  0.1320468E+00
        -11   -1    0    0    0    0  0.00000000000E+00  0.00000000000E+00  0.45593999997E+02  0.45594000000E+02  0.51100000000E-03 0.  1.
         11   -1    0    0    0    0 -0.00000000000E+00 -0.00000000000E+00 -0.45593999997E+02  0.45594000000E+02  0.51100000000E-03 0. -1.
    9900012    2    1    2    0    0 -0.12242968234E+02  0.14013357300E+02  0.41022547281E+02  0.46142313865E+02  0.99999644711E+01 0.  0.
         12    1    1    2    0    0  0.12242968234E+02 -0.14013357300E+02 -0.41022547281E+02  0.45045686135E+02  0.00000000000E+00 0. -1.
         11    1    3    3    0    0 -0.27934836500E+01  0.61342061394E+01  0.88942647988E+01  0.11159748314E+02  0.51100000000E-03 0. -1.
        -11    1    3    3    0    0 -0.58878431059E+01  0.83130956148E+01  0.22195113799E+02  0.24421247551E+02  0.51100000000E-03 0.  1.
         12    1    3    3    0    0 -0.35616414779E+01 -0.43394445429E+00  0.99331686834E+01  0.10561318000E+02  0.00000000000E+00 0. -1.
</event>
<event>
 7    1  0.2478637E-008  0.4614232E+02  0.7816164E-02  0.1320468E+00
        -11   -1    0    0    0    0  0.00000000000E+00  0.00000000000E+00  0.45593999997E+02  0.45594000000E+02  0.51100000000E-03 0.  1.
         11   -1    0    0    0    0 -0.00000000000E+00 -0.00000000000E+00 -0.45593999997E+02  0.45594000000E+02  0.51100000000E-03 0. -1.
    9900012    2    1    2    0    0 -0.22357327211E+02 -0.11810657579E+02  0.37279643520E+02  0.46142317261E+02  0.99999954397E+01 0.  0.
         12    1    1    2    0    0  0.22357327211E+02  0.11810657579E+02 -0.37279643520E+02  0.45045682739E+02  0.00000000000E+00 0. -1.
         11    1    3    3    0    0 -0.23800154009E+01 -0.54879550592E+00  0.35130253278E+00  0.24676027935E+01  0.51100000000E-03 0. -1.
        -11    1    3    3    0    0 -0.11901511353E+02 -0.63556847569E+01  0.25467789178E+02  0.28820981717E+02  0.51100000000E-03 0.  1.
        -12    1    3    3    0    0 -0.80758004568E+01 -0.49061773162E+01  0.11460551808E+02  0.14853732751E+02  0.00000000000E+00 0.  1.
</event>
<event>
 7    1  0.2478637E-008  0.4614232E+02  0.7816164E-02  0.1320468E+00
        -11   -1    0    0    0    0  0.00000000000E+00  0.00000000000E+00  0.45593999997E+02  0.45594000000E+02  0.51100000000E-03 0.  1.
         11   -1    0    0    0    0 -0.00000000000E+00 -0.00000000000E+00 -0.45593999997E+02  0.45594000000E+02  0.51100000000E-03 0. -1.
    9900012    2    1    2    0    0  0.20645766486E+02  0.36070144043E+02 -0.17372692250E+02  0.46142318730E+02  0.10000008833E+02 0.  0.
         12    1    1    2    0    0 -0.20645766486E+02 -0.36070144043E+02  0.17372692250E+02  0.45045681270E+02  0.00000000000E+00 0. -1.
         11    1    3    3    0    0  0.12774189834E+02  0.23690173172E+02 -0.12137948342E+02  0.29525142185E+02  0.51100000000E-03 0. -1.
        -11    1    3    3    0    0  0.50955969721E+01  0.10810508525E+02 -0.59478318227E+01  0.13349490879E+02  0.51100000000E-03 0.  1.
         12    1    3    3    0    0  0.27759796795E+01  0.15694623468E+01  0.71308791488E+00  0.32676856663E+01  0.00000000000E+00 0. -1.
</event>
<event>
 7    1  0.2478637E-008  0.4614232E+02  0.7816164E-02  0.1320468E+00
        -11   -1    0    0    0    0  0.00000000000E+00  0.00000000000E+00  0.45593999997E+02  0.45594000000E+02  0.51100000000E-03 0. -1.
         11   -1    0    0    0    0 -0.00000000000E+00 -0.00000000000E+00 -0.45593999997E+02  0.45594000000E+02  0.51100000000E-03 0.  1.
    9900012    2    1    2    0    0 -0.70705761550E+00 -0.16228702428E+02 -0.42014792711E+02  0.46142317416E+02  0.99999968494E+01 0.  0.
         12    1    1    2    0    0  0.70705761550E+00  0.16228702428E+02  0.42014792711E+02  0.45045682584E+02  0.00000000000E+00 0. -1.
         11    1    3    3    0    0 -0.36273079205E+01 -0.90319353751E+01 -0.25187414162E+02  0.27002574911E+02  0.51100000000E-03 0.  1.
        -11    1    3    3    0    0  0.35866985603E+01 -0.63508538301E+01 -0.10898965815E+02  0.13114313060E+02  0.51100000000E-03 0. -1.
         12    1    3    3    0    0 -0.66644825534E+00 -0.84591322250E+00 -0.59284127336E+01  0.60254294451E+01  0.00000000000E+00 0. -1.
</event>
<event>
 7    1  0.2478637E-008  0.4614232E+02  0.7816164E-02  0.1320468E+00
        -11   -1    0    0    0    0  0.00000000000E+00  0.00000000000E+00  0.45593999997E+02  0.45594000000E+02  0.51100000000E-03 0. -1.
         11   -1    0    0    0    0 -0.00000000000E+00 -0.00000000000E+00 -0.45593999997E+02  0.45594000000E+02  0.51100000000E-03 0.  1.
    9900012    2    1    2    0    0  0.42439378806E+02  0.15099850560E+02  0.84523556904E-01  0.46142317581E+02  0.99999983603E+01 0.  0.
         12    1    1    2    0    0 -0.42439378806E+02 -0.15099850560E+02 -0.84523556904E-01  0.45045682419E+02  0.00000000000E+00 0. -1.
         11    1    3    3    0    0  0.60487332223E+01  0.19233172095E+01  0.11284696592E+01  0.64466864912E+01  0.51100000000E-03 0. -1.
        -11    1    3    3    0    0  0.31274277525E+01 -0.93458793668E+00 -0.14236082595E+01  0.35610278988E+01  0.51100000000E-03 0.  1.
         12    1    3    3    0    0  0.33263217831E+02  0.14111121287E+02  0.37966215720E+00  0.36134603191E+02  0.00000000000E+00 0. -1.
</event>
<event>
 7    1  0.2478637E-008  0.4614232E+02  0.7816164E-02  0.1320468E+00
        -11   -1    0    0    0    0  0.00000000000E+00  0.00000000000E+00  0.45593999997E+02  0.45594000000E+02  0.51100000000E-03 0.  1.
         11   -1    0    0    0    0 -0.00000000000E+00 -0.00000000000E+00 -0.45593999997E+02  0.45594000000E+02  0.51100000000E-03 0. -1.
    9900012    2    1    2    0    0  0.20870585675E+02 -0.34901573663E+02 -0.19375560489E+02  0.46142317245E+02  0.99999952958E+01 0.  0.
         12    1    1    2    0    0 -0.20870585675E+02  0.34901573663E+02  0.19375560489E+02  0.45045682755E+02  0.00000000000E+00 0. -1.
         11    1    3    3    0    0 -0.18692372861E+00 -0.18102501535E+01  0.65817831121E+00  0.19352377242E+01  0.51100000000E-03 0. -1.
        -11    1    3    3    0    0  0.57114389141E+01 -0.92916335458E+01 -0.75153945482E+01  0.13245230987E+02  0.51100000000E-03 0.  1.
        -12    1    3    3    0    0  0.15346070489E+02 -0.23799689964E+02 -0.12518344252E+02  0.30961848534E+02  0.00000000000E+00 0.  1.
</event>
<event>
 7    1  0.3280246E-008  0.4614232E+02  0.7816164E-02  0.1320468E+00
        -11   -1    0    0    0    0  0.00000000000E+00  0.00000000000E+00  0.45593999997E+02  0.45594000000E+02  0.51100000000E-03 0.  1.
         11   -1    0    0    0    0 -0.00000000000E+00 -0.00000000000E+00 -0.45593999997E+02  0.45594000000E+02  0.51100000000E-03 0. -1.
    9900012    2    1    2    0    0  0.11191113462E+02  0.32672346571E+02 -0.28920411517E+02  0.46142318150E+02  0.10000003549E+02 0.  0.
         12    1    1    2    0    0 -0.11191113462E+02 -0.32672346571E+02  0.28920411517E+02  0.45045681850E+02  0.00000000000E+00 0. -1.
         11    1    3    3    0    0  0.13869972802E+01  0.30572223463E+01 -0.24086697785E+00  0.33657669396E+01  0.51100000000E-03 0. -1.
        -11    1    3    3    0    0 -0.66150909132E+00  0.75141495119E+00 -0.58273036634E+00  0.11583581690E+01  0.51100000000E-03 0.  1.
        -12    1    3    3    0    0  0.10465625273E+02  0.28863709274E+02 -0.28096814172E+02  0.41618193042E+02  0.00000000000E+00 0.  1.
</event>
<event>
 7    1  0.2478637E-008  0.4614232E+02  0.7816164E-02  0.1320468E+00
        -11   -1    0    0    0    0  0.00000000000E+00  0.00000000000E+00  0.45593999997E+02  0.45594000000E+02  0.51100000000E-03 0. -1.
         11   -1    0    0    0    0 -0.00000000000E+00 -0.00000000000E+00 -0.45593999997E+02  0.45594000000E+02  0.51100000000E-03 0.  1.
    9900012    2    1    2    0    0 -0.41921036634E+02 -0.15408119289E+02 -0.58591845709E+01  0.46142317672E+02  0.99999991918E+01 0.  0.
         12    1    1    2    0    0  0.41921036634E+02  0.15408119289E+02  0.58591845709E+01  0.45045682328E+02  0.00000000000E+00 0. -1.
         11    1    3    3    0    0 -0.27789660882E+02 -0.11314597713E+02 -0.35733274631E+01  0.30216784124E+02  0.51100000000E-03 0. -1.
        -11    1    3    3    0    0 -0.10327062806E+02 -0.35519458457E+01  0.86667350999E+00  0.10955166303E+02  0.51100000000E-03 0.  1.
         12    1    3    3    0    0 -0.38043129457E+01 -0.54157573041E+00 -0.31525306178E+01  0.49703672456E+01  0.00000000000E+00 0. -1.
</event>
<event>
 7    1  0.2478637E-008  0.4614232E+02  0.7816164E-02  0.1320468E+00
        -11   -1    0    0    0    0  0.00000000000E+00  0.00000000000E+00  0.45593999997E+02  0.45594000000E+02  0.51100000000E-03 0.  1.
         11   -1    0    0    0    0 -0.00000000000E+00 -0.00000000000E+00 -0.45593999997E+02  0.45594000000E+02  0.51100000000E-03 0. -1.
    9900012    2    1    2    0    0 -0.11859402513E+02  0.16995566869E+02  0.39995233834E+02  0.46142318180E+02  0.10000003819E+02 0.  0.
         12    1    1    2    0    0  0.11859402513E+02 -0.16995566869E+02 -0.39995233834E+02  0.45045681820E+02  0.00000000000E+00 0. -1.
         11    1    3    3    0    0  0.90649643355E+00  0.14819881933E+01  0.42802744477E+01  0.46193911285E+01  0.51100000000E-03 0. -1.
        -11    1    3    3    0    0 -0.16733267672E+01 -0.35772869960E+00  0.41919728484E+01  0.45277620206E+01  0.51100000000E-03 0.  1.
        -12    1    3    3    0    0 -0.11092572179E+02  0.15871307375E+02  0.31522986538E+02  0.36995165031E+02  0.00000000000E+00 0.  1.
</event>
<event>
 7    1  0.2478637E-008  0.4614232E+02  0.7816164E-02  0.1320468E+00
        -11   -1    0    0    0    0  0.00000000000E+00  0.00000000000E+00  0.45593999997E+02  0.45594000000E+02  0.51100000000E-03 0.  1.
         11   -1    0    0    0    0 -0.00000000000E+00 -0.00000000000E+00 -0.45593999997E+02  0.45594000000E+02  0.51100000000E-03 0. -1.
    9900012    2    1    2    0    0  0.14819282748E+02 -0.37858957825E+02  0.19395913377E+02  0.46142320024E+02  0.10000020634E+02 0.  0.
         12    1    1    2    0    0 -0.14819282748E+02  0.37858957825E+02 -0.19395913377E+02  0.45045679976E+02  0.00000000000E+00 0. -1.
         11    1    3    3    0    0  0.15909467434E+01 -0.98554625492E+01  0.18252346693E+01  0.10148533660E+02  0.51100000000E-03 0. -1.
        -11    1    3    3    0    0 -0.20818536931E+00 -0.14051540214E+01  0.41900776736E-01  0.14211104489E+01  0.51100000000E-03 0.  1.
        -12    1    3    3    0    0  0.13436521374E+02 -0.26598341255E+02  0.17528777931E+02  0.34572675914E+02  0.00000000000E+00 0.  1.
</event>
<event>
 7    1  0.2478637E-008  0.4614232E+02  0.7816164E-02  0.1320468E+00
        -11   -1    0    0    0    0  0.00000000000E+00  0.00000000000E+00  0.45593999997E+02  0.45594000000E+02  0.51100000000E-03 0. -1.
         11   -1    0    0    0    0 -0.00000000000E+00 -0.00000000000E+00 -0.45593999997E+02  0.45594000000E+02  0.51100000000E-03 0.  1.
    9900012    2    1    2    0    0 -0.34179684580E+02 -0.23658108333E+02 -0.17353864839E+02  0.46142317047E+02  0.99999934876E+01 0.  0.
         12    1    1    2    0    0  0.34179684580E+02  0.23658108333E+02  0.17353864839E+02  0.45045682953E+02  0.00000000000E+00 0. -1.
         11    1    3    3    0    0 -0.82563939404E+01 -0.31253366648E+01 -0.35218327617E+01  0.95046870769E+01  0.51100000000E-03 0. -1.
        -11    1    3    3    0    0 -0.15972075397E+02 -0.10488712081E+02 -0.11516550966E+02  0.22310338859E+02  0.51100000000E-03 0.  1.
        -12    1    3    3    0    0 -0.99512152429E+01 -0.10044059588E+02 -0.23154811109E+01  0.14327291111E+02  0.00000000000E+00 0.  1.
</event>
<event>
 7    1  0.2478637E-008  0.4614232E+02  0.7816164E-02  0.1320468E+00
        -11   -1    0    0    0    0  0.00000000000E+00  0.00000000000E+00  0.45593999997E+02  0.45594000000E+02  0.51100000000E-03 0.  1.
         11   -1    0    0    0    0 -0.00000000000E+00 -0.00000000000E+00 -0.45593999997E+02  0.45594000000E+02  0.51100000000E-03 0. -1.
    9900012    2    1    2    0    0  0.21436301766E+02 -0.34332953458E+02  0.19769845404E+02  0.46142317478E+02  0.99999974163E+01 0.  0.
         12    1    1    2    0    0 -0.21436301766E+02  0.34332953458E+02 -0.19769845404E+02  0.45045682522E+02  0.00000000000E+00 0. -1.
         11    1    3    3    0    0  0.49467902643E+01 -0.48336568820E+01  0.62728706811E+01  0.93372308323E+01  0.51100000000E-03 0. -1.
        -11    1    3    3    0    0  0.15343529965E+02 -0.23301436163E+02  0.10322163248E+02  0.29747737618E+02  0.51100000000E-03 0.  1.
        -12    1    3    3    0    0  0.11459815373E+01 -0.61978604135E+01  0.31748114758E+01  0.70573490275E+01  0.00000000000E+00 0.  1.
</event>
<event>
 7    1  0.2478637E-008  0.4614232E+02  0.7816164E-02  0.1320468E+00
        -11   -1    0    0    0    0  0.00000000000E+00  0.00000000000E+00  0.45593999997E+02  0.45594000000E+02  0.51100000000E-03 0. -1.
         11   -1    0    0    0    0 -0.00000000000E+00 -0.00000000000E+00 -0.45593999997E+02  0.45594000000E+02  0.51100000000E-03 0.  1.
    9900012    2    1    2    0    0  0.35044588517E+02  0.27896651596E+02  0.47715124277E+01  0.46142315573E+02  0.99999800506E+01 0.  0.
         12    1    1    2    0    0 -0.35044588517E+02 -0.27896651596E+02 -0.47715124277E+01  0.45045684427E+02  0.00000000000E+00 0. -1.
         11    1    3    3    0    0  0.75144117729E+01  0.10151112424E+02  0.33429641480E+01  0.13064718799E+02  0.51100000000E-03 0. -1.
        -11    1    3    3    0    0  0.23653285445E+02  0.13266259330E+02  0.13466297868E+01  0.27152991750E+02  0.51100000000E-03 0.  1.
        -12    1    3    3    0    0  0.38768912991E+01  0.44792798425E+01  0.81918492818E-01  0.59246050241E+01  0.00000000000E+00 0.  1.
</event>
<event>
 7    1  0.2478637E-008  0.4614231E+02  0.7816164E-02  0.1320468E+00
        -11   -1    0    0    0    0  0.00000000000E+00  0.00000000000E+00  0.45593999997E+02  0.45594000000E+02  0.51100000000E-03 0.  1.
         11   -1    0    0    0    0 -0.00000000000E+00 -0.00000000000E+00 -0.45593999997E+02  0.45594000000E+02  0.51100000000E-03 0. -1.
    9900012    2    1    2    0    0  0.41364792541E+02  0.16747597845E+02  0.61307179636E+01  0.46142314321E+02  0.99999686295E+01 0.  0.
         12    1    1    2    0    0 -0.41364792541E+02 -0.16747597845E+02 -0.61307179636E+01  0.45045685679E+02  0.00000000000E+00 0. -1.
         11    1    3    3    0    0  0.15246391970E+02  0.10613402816E+02  0.10193720682E+01  0.18604728085E+02  0.51100000000E-03 0. -1.
        -11    1    3    3    0    0  0.18576275705E+02  0.59028813315E+01  0.41788637422E+01  0.19934516034E+02  0.51100000000E-03 0.  1.
         12    1    3    3    0    0  0.75421248663E+01  0.23131369690E+00  0.93248215315E+00  0.76030702016E+01  0.00000000000E+00 0. -1.
</event>
<event>
 7    1  0.2478637E-008  0.4614232E+02  0.7816164E-02  0.1320468E+00
        -11   -1    0    0    0    0  0.00000000000E+00  0.00000000000E+00  0.45593999997E+02  0.45594000000E+02  0.51100000000E-03 0.  1.
         11   -1    0    0    0    0 -0.00000000000E+00 -0.00000000000E+00 -0.45593999997E+02  0.45594000000E+02  0.51100000000E-03 0. -1.
    9900012    2    1    2    0    0  0.31262310130E+01  0.40841850476E+02  0.18742554533E+02  0.46142318508E+02  0.10000006813E+02 0.  0.
         12    1    1    2    0    0 -0.31262310130E+01 -0.40841850476E+02 -0.18742554533E+02  0.45045681492E+02  0.00000000000E+00 0. -1.
         11    1    3    3    0    0  0.52672394058E+01  0.17117056054E+02  0.98801688212E+01  0.20453732058E+02  0.51100000000E-03 0. -1.
        -11    1    3    3    0    0 -0.11219804610E+00  0.14852446048E+02  0.69034249040E+01  0.16378797810E+02  0.51100000000E-03 0.  1.
         12    1    3    3    0    0 -0.20288103467E+01  0.88723483735E+01  0.19589608075E+01  0.93097886404E+01  0.00000000000E+00 0. -1.
</event>
<event>
 7    1  0.2478637E-008  0.4614232E+02  0.7816164E-02  0.1320468E+00
        -11   -1    0    0    0    0  0.00000000000E+00  0.00000000000E+00  0.45593999997E+02  0.45594000000E+02  0.51100000000E-03 0.  1.
         11   -1    0    0    0    0 -0.00000000000E+00 -0.00000000000E+00 -0.45593999997E+02  0.45594000000E+02  0.51100000000E-03 0. -1.
    9900012    2    1    2    0    0 -0.42488179715E+02 -0.14646365184E+02 -0.30581280821E+01  0.46142316789E+02  0.99999911333E+01 0.  0.
         12    1    1    2    0    0  0.42488179715E+02  0.14646365184E+02  0.30581280821E+01  0.45045683211E+02  0.00000000000E+00 0. -1.
         11    1    3    3    0    0 -0.44054839822E+01 -0.85613828226E+00  0.17779231662E+01  0.48272427867E+01  0.51100000000E-03 0. -1.
        -11    1    3    3    0    0 -0.50504554418E-01 -0.69570828038E+00  0.31112605227E+00  0.76378033683E+00  0.51100000000E-03 0.  1.
        -12    1    3    3    0    0 -0.38032191178E+02 -0.13094518621E+02 -0.51471773006E+01  0.40551293665E+02  0.00000000000E+00 0.  1.
</event>
<event>
 7    1  0.2478637E-008  0.4614232E+02  0.7816164E-02  0.1320468E+00
        -11   -1    0    0    0    0  0.00000000000E+00  0.00000000000E+00  0.45593999997E+02  0.45594000000E+02  0.51100000000E-03 0.  1.
         11   -1    0    0    0    0 -0.00000000000E+00 -0.00000000000E+00 -0.45593999997E+02  0.45594000000E+02  0.51100000000E-03 0. -1.
    9900012    2    1    2    0    0 -0.18990140771E+02 -0.13769038824E+02  0.38456489880E+02  0.46142317736E+02  0.99999997750E+01 0.  0.
         12    1    1    2    0    0  0.18990140771E+02  0.13769038824E+02 -0.38456489880E+02  0.45045682264E+02  0.00000000000E+00 0. -1.
         11    1    3    3    0    0 -0.49510662560E+01 -0.17862037857E+01  0.14353740919E+02  0.15288343915E+02  0.51100000000E-03 0. -1.
        -11    1    3    3    0    0 -0.10602458290E+02 -0.86612134979E+01  0.21279008337E+02  0.25302666601E+02  0.51100000000E-03 0.  1.
        -12    1    3    3    0    0 -0.34366162254E+01 -0.33216215407E+01  0.28237406241E+01  0.55513072202E+01  0.00000000000E+00 0.  1.
</event>
<event>
 7    1  0.2478637E-008  0.4614232E+02  0.7816164E-02  0.1320468E+00
        -11   -1    0    0    0    0  0.00000000000E+00  0.00000000000E+00  0.45593999997E+02  0.45594000000E+02  0.51100000000E-03 0. -1.
         11   -1    0    0    0    0 -0.00000000000E+00 -0.00000000000E+00 -0.45593999997E+02  0.45594000000E+02  0.51100000000E-03 0.  1.
    9900012    2    1    2    0    0 -0.15434802294E+02  0.41555786249E+02 -0.79998132568E+01  0.46142317579E+02  0.99999983381E+01 0.  0.
         12    1    1    2    0    0  0.15434802294E+02 -0.41555786249E+02  0.79998132568E+01  0.45045682421E+02  0.00000000000E+00 0. -1.
         11    1    3    3    0    0 -0.46943659029E+01  0.80050255612E+01 -0.23387993716E+00  0.92828985534E+01  0.51100000000E-03 0. -1.
        -11    1    3    3    0    0 -0.56512875088E+01  0.71580124278E+01 -0.12836056990E+01  0.92098771043E+01  0.51100000000E-03 0.  1.
         12    1    3    3    0    0 -0.50891488819E+01  0.26392748260E+02 -0.64823276206E+01  0.27649541921E+02  0.00000000000E+00 0. -1.
</event>
<event>
 7    1  0.2478637E-008  0.4614232E+02  0.7816164E-02  0.1320468E+00
        -11   -1    0    0    0    0  0.00000000000E+00  0.00000000000E+00  0.45593999997E+02  0.45594000000E+02  0.51100000000E-03 0.  1.
         11   -1    0    0    0    0 -0.00000000000E+00 -0.00000000000E+00 -0.45593999997E+02  0.45594000000E+02  0.51100000000E-03 0. -1.
    9900012    2    1    2    0    0 -0.37879353924E+00 -0.44645875742E+02  0.59762591615E+01  0.46142318977E+02  0.10000011084E+02 0.  0.
         12    1    1    2    0    0  0.37879353924E+00  0.44645875742E+02 -0.59762591615E+01  0.45045681023E+02  0.00000000000E+00 0. -1.
         11    1    3    3    0    0 -0.12654979290E+01 -0.15166449135E+01 -0.88882653564E+00  0.21660354738E+01  0.51100000000E-03 0. -1.
        -11    1    3    3    0    0  0.20175790487E+01 -0.38647677112E+02  0.51278412137E+01  0.39038549245E+02  0.51100000000E-03 0.  1.
         12    1    3    3    0    0 -0.11308746589E+01 -0.44815537158E+01  0.17372444834E+01  0.49377342574E+01  0.00000000000E+00 0. -1.
</event>
<event>
 7    1  0.2478637E-008  0.4614232E+02  0.7816164E-02  0.1320468E+00
        -11   -1    0    0    0    0  0.00000000000E+00  0.00000000000E+00  0.45593999997E+02  0.45594000000E+02  0.51100000000E-03 0.  1.
         11   -1    0    0    0    0 -0.00000000000E+00 -0.00000000000E+00 -0.45593999997E+02  0.45594000000E+02  0.51100000000E-03 0. -1.
    9900012    2    1    2    0    0  0.62179765221E+01  0.23453179495E+02  0.37952584606E+02  0.46142317202E+02  0.99999949026E+01 0.  0.
         12    1    1    2    0    0 -0.62179765221E+01 -0.23453179495E+02 -0.37952584606E+02  0.45045682798E+02  0.00000000000E+00 0. -1.
         11    1    3    3    0    0 -0.16911158977E+01  0.26492000734E+01  0.81099449884E+01  0.86976630186E+01  0.51100000000E-03 0. -1.
        -11    1    3    3    0    0  0.17349824359E+00  0.26575303014E+01  0.20397471532E+01  0.33545696674E+01  0.51100000000E-03 0.  1.
        -12    1    3    3    0    0  0.77355941762E+01  0.18146449120E+02  0.27802892464E+02  0.34090084516E+02  0.00000000000E+00 0.  1.
</event>
<event>
 7    1  0.2478637E-008  0.4614232E+02  0.7816164E-02  0.1320468E+00
        -11   -1    0    0    0    0  0.00000000000E+00  0.00000000000E+00  0.45593999997E+02  0.45594000000E+02  0.51100000000E-03 0.  1.
         11   -1    0    0    0    0 -0.00000000000E+00 -0.00000000000E+00 -0.45593999997E+02  0.45594000000E+02  0.51100000000E-03 0. -1.
    9900012    2    1    2    0    0  0.18560188015E+02  0.25557539795E+01  0.40964631129E+02  0.46142318064E+02  0.10000002762E+02 0.  0.
         12    1    1    2    0    0 -0.18560188015E+02 -0.25557539795E+01 -0.40964631129E+02  0.45045681936E+02  0.00000000000E+00 0. -1.
         11    1    3    3    0    0  0.31222251210E+01 -0.16530040808E+00  0.15309052188E+02  0.15625066179E+02  0.51100000000E-03 0. -1.
        -11    1    3    3    0    0  0.13247883173E+02  0.10851245434E+01  0.23640607533E+02  0.27121250499E+02  0.51100000000E-03 0.  1.
        -12    1    3    3    0    0  0.21900797215E+01  0.16359298442E+01  0.20149714072E+01  0.33960013859E+01  0.00000000000E+00 0.  1.
</event>
<event>
 7    1  0.2478637E-008  0.4614232E+02  0.7816164E-02  0.1320468E+00
        -11   -1    0    0    0    0  0.00000000000E+00  0.00000000000E+00  0.45593999997E+02  0.45594000000E+02  0.51100000000E-03 0.  1.
         11   -1    0    0    0    0 -0.00000000000E+00 -0.00000000000E+00 -0.45593999997E+02  0.45594000000E+02  0.51100000000E-03 0. -1.
    9900012    2    1    2    0    0  0.43882957690E+02  0.99846068069E+01 -0.19253214084E+01  0.46142320838E+02  0.10000028054E+02 0.  0.
         12    1    1    2    0    0 -0.43882957690E+02 -0.99846068069E+01  0.19253214084E+01  0.45045679162E+02  0.00000000000E+00 0. -1.
         11    1    3    3    0    0  0.17171538857E+02  0.38300491183E+01 -0.51551521886E+01  0.18333210775E+02  0.51100000000E-03 0. -1.
        -11    1    3    3    0    0  0.18583560024E+02  0.27282772512E+01  0.17336732282E+01  0.18862603825E+02  0.51100000000E-03 0.  1.
         12    1    3    3    0    0  0.81278588085E+01  0.34262804374E+01  0.14961575520E+01  0.89465062380E+01  0.00000000000E+00 0. -1.
</event>
<event>
 7    1  0.2478637E-008  0.4614231E+02  0.7816164E-02  0.1320468E+00
        -11   -1    0    0    0    0  0.00000000000E+00  0.00000000000E+00  0.45593999997E+02  0.45594000000E+02  0.51100000000E-03 0.  1.
         11   -1    0    0    0    0 -0.00000000000E+00 -0.00000000000E+00 -0.45593999997E+02  0.45594000000E+02  0.51100000000E-03 0. -1.
    9900012    2    1    2    0    0 -0.12986232010E+02 -0.13871659840E+02  0.40841755913E+02  0.46142309922E+02  0.99999285192E+01 0.  0.
         12    1    1    2    0    0  0.12986232010E+02  0.13871659840E+02 -0.40841755913E+02  0.45045690078E+02  0.00000000000E+00 0. -1.
         11    1    3    3    0    0  0.68865256597E+00 -0.12137504895E+01  0.48662712315E+01  0.50624133145E+01  0.51100000000E-03 0. -1.
        -11    1    3    3    0    0 -0.74333731807E+01 -0.66671804190E+01  0.12116402827E+02  0.15700749960E+02  0.51100000000E-03 0.  1.
        -12    1    3    3    0    0 -0.62415113953E+01 -0.59907289314E+01  0.23859081855E+02  0.25379146648E+02  0.00000000000E+00 0.  1.
</event>
<event>
 7    1  0.2478637E-008  0.4614232E+02  0.7816164E-02  0.1320468E+00
        -11   -1    0    0    0    0  0.00000000000E+00  0.00000000000E+00  0.45593999997E+02  0.45594000000E+02  0.51100000000E-03 0. -1.
         11   -1    0    0    0    0 -0.00000000000E+00 -0.00000000000E+00 -0.45593999997E+02  0.45594000000E+02  0.51100000000E-03 0.  1.
    9900012    2    1    2    0    0 -0.56391241148E+01  0.43606906112E+02 -0.97852678436E+01  0.46142318207E+02  0.10000004066E+02 0.  0.
         12    1    1    2    0    0  0.56391241148E+01 -0.43606906112E+02  0.97852678436E+01  0.45045681793E+02  0.00000000000E+00 0. -1.
         11    1    3    3    0    0 -0.39475459546E+01  0.24812157015E+02 -0.91441977783E+01  0.26736540690E+02  0.51100000000E-03 0. -1.
        -11    1    3    3    0    0 -0.38678827599E+00  0.81878524242E+01 -0.24754980488E+01  0.85626294643E+01  0.51100000000E-03 0.  1.
         12    1    3    3    0    0 -0.13047898842E+01  0.10606896673E+02  0.18344279835E+01  0.10843148053E+02  0.00000000000E+00 0. -1.
</event>
<event>
 7    1  0.2478637E-008  0.4614232E+02  0.7816164E-02  0.1320468E+00
        -11   -1    0    0    0    0  0.00000000000E+00  0.00000000000E+00  0.45593999997E+02  0.45594000000E+02  0.51100000000E-03 0.  1.
         11   -1    0    0    0    0 -0.00000000000E+00 -0.00000000000E+00 -0.45593999997E+02  0.45594000000E+02  0.51100000000E-03 0. -1.
    9900012    2    1    2    0    0 -0.30443992971E+02 -0.27337187535E+02  0.18840248101E+02  0.46142317866E+02  0.10000000960E+02 0.  0.
         12    1    1    2    0    0  0.30443992971E+02  0.27337187535E+02 -0.18840248101E+02  0.45045682134E+02  0.00000000000E+00 0. -1.
         11    1    3    3    0    0 -0.33904977139E-02 -0.72265699970E+00 -0.61051855131E+00  0.94603266186E+00  0.51100000000E-03 0. -1.
        -11    1    3    3    0    0 -0.14164370406E+02 -0.13154077539E+02  0.63706323108E+01  0.20352987525E+02  0.51100000000E-03 0.  1.
         12    1    3    3    0    0 -0.16276232067E+02 -0.13460452997E+02  0.13080134342E+02  0.24843297680E+02  0.00000000000E+00 0. -1.
</event>
<event>
 7    1  0.2478637E-008  0.4614232E+02  0.7816164E-02  0.1320468E+00
        -11   -1    0    0    0    0  0.00000000000E+00  0.00000000000E+00  0.45593999997E+02  0.45594000000E+02  0.51100000000E-03 0.  1.
         11   -1    0    0    0    0 -0.00000000000E+00 -0.00000000000E+00 -0.45593999997E+02  0.45594000000E+02  0.51100000000E-03 0. -1.
    9900012    2    1    2    0    0  0.10804533896E+02  0.73673897652E+00  0.43724512216E+02  0.46142315350E+02  0.99999780151E+01 0.  0.
         12    1    1    2    0    0 -0.10804533896E+02 -0.73673897652E+00 -0.43724512216E+02  0.45045684650E+02  0.00000000000E+00 0. -1.
         11    1    3    3    0    0  0.37775884983E+00  0.27746467160E+01  0.17292153387E+02  0.17517418051E+02  0.51100000000E-03 0. -1.
        -11    1    3    3    0    0  0.19275546819E+01 -0.12672779725E+01  0.39083615254E+01  0.45383643073E+01  0.51100000000E-03 0.  1.
         12    1    3    3    0    0  0.84992203638E+01 -0.77062976694E+00  0.22523997304E+02  0.24086532992E+02  0.00000000000E+00 0. -1.
</event>
<event>
 7    1  0.2478637E-008  0.4614232E+02  0.7816164E-02  0.1320468E+00
        -11   -1    0    0    0    0  0.00000000000E+00  0.00000000000E+00  0.45593999997E+02  0.45594000000E+02  0.51100000000E-03 0. -1.
         11   -1    0    0    0    0 -0.00000000000E+00 -0.00000000000E+00 -0.45593999997E+02  0.45594000000E+02  0.51100000000E-03 0.  1.
    9900012    2    1    2    0    0  0.23252417157E+02 -0.36296986603E+02 -0.13075438022E+02  0.46142320745E+02  0.10000027211E+02 0.  0.
         12    1    1    2    0    0 -0.23252417157E+02  0.36296986603E+02  0.13075438022E+02  0.45045679255E+02  0.00000000000E+00 0. -1.
         11    1    3    3    0    0  0.10550432912E+02 -0.18884525575E+02 -0.91964496305E+01  0.23505565871E+02  0.51100000000E-03 0. -1.
        -11    1    3    3    0    0  0.11251398830E+02 -0.16323505684E+02 -0.18445335630E+01  0.19911130499E+02  0.51100000000E-03 0.  1.
        -12    1    3    3    0    0  0.14505854150E+01 -0.10889553437E+01 -0.20344548284E+01  0.27256243753E+01  0.00000000000E+00 0.  1.
</event>
<event>
 7    1  0.2478637E-008  0.4614232E+02  0.7816164E-02  0.1320468E+00
        -11   -1    0    0    0    0  0.00000000000E+00  0.00000000000E+00  0.45593999997E+02  0.45594000000E+02  0.51100000000E-03 0.  1.
         11   -1    0    0    0    0 -0.00000000000E+00 -0.00000000000E+00 -0.45593999997E+02  0.45594000000E+02  0.51100000000E-03 0. -1.
    9900012    2    1    2    0    0 -0.66358235827E+01  0.24533174545E+01  0.44486633495E+02  0.46142317844E+02  0.10000000756E+02 0.  0.
         12    1    1    2    0    0  0.66358235827E+01 -0.24533174545E+01 -0.44486633495E+02  0.45045682156E+02  0.00000000000E+00 0. -1.
         11    1    3    3    0    0  0.60284199646E+00 -0.19603010505E+00  0.58087453270E+01  0.58432327363E+01  0.51100000000E-03 0. -1.
        -11    1    3    3    0    0 -0.51462791021E+01 -0.23898803255E+01  0.23331729123E+02  0.24011774209E+02  0.51100000000E-03 0.  1.
        -12    1    3    3    0    0 -0.20923864770E+01  0.50392278850E+01  0.15346159046E+02  0.16287310898E+02  0.00000000000E+00 0.  1.
</event>
<event>
 7    1  0.2478637E-008  0.4614233E+02  0.7816164E-02  0.1320468E+00
        -11   -1    0    0    0    0  0.00000000000E+00  0.00000000000E+00  0.45593999997E+02  0.45594000000E+02  0.51100000000E-03 0.  1.
         11   -1    0    0    0    0 -0.00000000000E+00 -0.00000000000E+00 -0.45593999997E+02  0.45594000000E+02  0.51100000000E-03 0. -1.
    9900012    2    1    2    0    0  0.43863961221E+02 -0.89252067308E+01 -0.50404517105E+01  0.46142328037E+02  0.10000093703E+02 0.  0.
         12    1    1    2    0    0 -0.43863961221E+02  0.89252067308E+01  0.50404517105E+01  0.45045671963E+02  0.00000000000E+00 0. -1.
         11    1    3    3    0    0  0.23283138517E+02 -0.79361836491E+01 -0.13858073109E+01  0.24637532593E+02  0.51100000000E-03 0.  1.
        -11    1    3    3    0    0  0.63781526831E+01 -0.25043367351E+01 -0.45341641064E+00  0.68671770644E+01  0.51100000000E-03 0. -1.
         12    1    3    3    0    0  0.14202670020E+02  0.15153136534E+01 -0.32012279890E+01  0.14637618379E+02  0.00000000000E+00 0. -1.
</event>
<event>
 7    1  0.2478637E-008  0.4614232E+02  0.7816164E-02  0.1320468E+00
        -11   -1    0    0    0    0  0.00000000000E+00  0.00000000000E+00  0.45593999997E+02  0.45594000000E+02  0.51100000000E-03 0.  1.
         11   -1    0    0    0    0 -0.00000000000E+00 -0.00000000000E+00 -0.45593999997E+02  0.45594000000E+02  0.51100000000E-03 0. -1.
    9900012    2    1    2    0    0 -0.39588873983E+01  0.60398502645E+01  0.44463027463E+02  0.46142318833E+02  0.10000009775E+02 0.  0.
         12    1    1    2    0    0  0.39588873983E+01 -0.60398502645E+01 -0.44463027463E+02  0.45045681167E+02  0.00000000000E+00 0. -1.
         11    1    3    3    0    0  0.69872180592E+00 -0.17507812719E+01  0.23208840765E+01  0.29899749802E+01  0.51100000000E-03 0. -1.
        -11    1    3    3    0    0 -0.15289313877E+01  0.21541226658E+01  0.86089041155E+01  0.90050600209E+01  0.51100000000E-03 0.  1.
         12    1    3    3    0    0 -0.31286778165E+01  0.56365088707E+01  0.33533239271E+02  0.34147283832E+02  0.00000000000E+00 0. -1.
</event>
<event>
 7    1  0.2478637E-008  0.4614232E+02  0.7816164E-02  0.1320468E+00
        -11   -1    0    0    0    0  0.00000000000E+00  0.00000000000E+00  0.45593999997E+02  0.45594000000E+02  0.51100000000E-03 0.  1.
         11   -1    0    0    0    0 -0.00000000000E+00 -0.00000000000E+00 -0.45593999997E+02  0.45594000000E+02  0.51100000000E-03 0. -1.
    9900012    2    1    2    0    0 -0.76035050966E+01  0.13579098472E+02  0.42271837819E+02  0.46142317880E+02  0.10000001083E+02 0.  0.
         12    1    1    2    0    0  0.76035050966E+01 -0.13579098472E+02 -0.42271837819E+02  0.45045682120E+02  0.00000000000E+00 0. -1.
         11    1    3    3    0    0 -0.12281009688E+01  0.55591510404E+01  0.14124910243E+02  0.15229099839E+02  0.51100000000E-03 0. -1.
        -11    1    3    3    0    0 -0.65546636710E+01  0.63116659487E+01  0.14229637328E+02  0.16890332194E+02  0.51100000000E-03 0.  1.
         12    1    3    3    0    0  0.17925954327E+00  0.17082814825E+01  0.13917290248E+02  0.14022885847E+02  0.00000000000E+00 0. -1.
</event>
<event>
 7    1  0.2478637E-008  0.4614232E+02  0.7816164E-02  0.1320468E+00
        -11   -1    0    0    0    0  0.00000000000E+00  0.00000000000E+00  0.45593999997E+02  0.45594000000E+02  0.51100000000E-03 0. -1.
         11   -1    0    0    0    0 -0.00000000000E+00 -0.00000000000E+00 -0.45593999997E+02  0.45594000000E+02  0.51100000000E-03 0.  1.
    9900012    2    1    2    0    0  0.19671511843E+02  0.36259382165E+02 -0.18094264284E+02  0.46142316820E+02  0.99999914165E+01 0.  0.
         12    1    1    2    0    0 -0.19671511843E+02 -0.36259382165E+02  0.18094264284E+02  0.45045683180E+02  0.00000000000E+00 0. -1.
         11    1    3    3    0    0  0.17413589237E+01  0.71134114016E+01 -0.23789161183E+01  0.77001425201E+01  0.51100000000E-03 0. -1.
        -11    1    3    3    0    0  0.17309249033E+02  0.27708229248E+02 -0.16597543287E+02  0.36644706488E+02  0.51100000000E-03 0.  1.
        -12    1    3    3    0    0  0.62090388626E+00  0.14377415152E+01  0.88219512184E+00  0.17974678115E+01  0.00000000000E+00 0.  1.
</event>
<event>
 7    1  0.2478637E-008  0.4614232E+02  0.7816164E-02  0.1320468E+00
        -11   -1    0    0    0    0  0.00000000000E+00  0.00000000000E+00  0.45593999997E+02  0.45594000000E+02  0.51100000000E-03 0.  1.
         11   -1    0    0    0    0 -0.00000000000E+00 -0.00000000000E+00 -0.45593999997E+02  0.45594000000E+02  0.51100000000E-03 0. -1.
    9900012    2    1    2    0    0  0.93250661751E+01 -0.11491844871E+02  0.42545200417E+02  0.46142318339E+02  0.10000005274E+02 0.  0.
         12    1    1    2    0    0 -0.93250661751E+01  0.11491844871E+02 -0.42545200417E+02  0.45045681661E+02  0.00000000000E+00 0. -1.
         11    1    3    3    0    0  0.99544969490E+00 -0.66230484863E+01  0.99742954597E+01  0.12014252433E+02  0.51100000000E-03 0. -1.
        -11    1    3    3    0    0  0.28655011059E+01 -0.31532738681E+01  0.10632533470E+02  0.11454475148E+02  0.51100000000E-03 0.  1.
        -12    1    3    3    0    0  0.54641153743E+01 -0.17155225170E+01  0.21938371488E+02  0.22673590758E+02  0.00000000000E+00 0.  1.
</event>
<event>
 7    1  0.2478637E-008  0.4614232E+02  0.7816164E-02  0.1320468E+00
        -11   -1    0    0    0    0  0.00000000000E+00  0.00000000000E+00  0.45593999997E+02  0.45594000000E+02  0.51100000000E-03 0. -1.
         11   -1    0    0    0    0 -0.00000000000E+00 -0.00000000000E+00 -0.45593999997E+02  0.45594000000E+02  0.51100000000E-03 0.  1.
    9900012    2    1    2    0    0 -0.21133187037E+02  0.18017388471E+02 -0.35466544685E+02  0.46142315706E+02  0.99999812564E+01 0.  0.
         12    1    1    2    0    0  0.21133187037E+02 -0.18017388471E+02  0.35466544685E+02  0.45045684294E+02  0.00000000000E+00 0. -1.
         11    1    3    3    0    0 -0.13573705206E+02  0.81017047443E+01 -0.20431963328E+02  0.25833083797E+02  0.51100000000E-03 0.  1.
        -11    1    3    3    0    0 -0.38803734510E+01  0.76840230103E+01 -0.66240411145E+01  0.10861833579E+02  0.51100000000E-03 0. -1.
         12    1    3    3    0    0 -0.36791083796E+01  0.22316607160E+01 -0.84105402431E+01  0.94473983297E+01  0.00000000000E+00 0. -1.
</event>
<event>
 7    1  0.2478637E-008  0.4614231E+02  0.7816164E-02  0.1320468E+00
        -11   -1    0    0    0    0  0.00000000000E+00  0.00000000000E+00  0.45593999997E+02  0.45594000000E+02  0.51100000000E-03 0.  1.
         11   -1    0    0    0    0 -0.00000000000E+00 -0.00000000000E+00 -0.45593999997E+02  0.45594000000E+02  0.51100000000E-03 0. -1.
    9900012    2    1    2    0    0  0.22733671157E+02 -0.69996003020E+01  0.38253099042E+02  0.46142314358E+02  0.99999689684E+01 0.  0.
         12    1    1    2    0    0 -0.22733671157E+02  0.69996003020E+01 -0.38253099042E+02  0.45045685642E+02  0.00000000000E+00 0. -1.
         11    1    3    3    0    0  0.36980528611E+00 -0.21862374888E+00  0.52842775655E+01  0.53017112278E+01  0.51100000000E-03 0. -1.
        -11    1    3    3    0    0  0.63087278997E+01 -0.47265137341E+01  0.97780839089E+01  0.12559892714E+02  0.51100000000E-03 0.  1.
         12    1    3    3    0    0  0.16055137971E+02 -0.20544628190E+01  0.23190737568E+02  0.28280710416E+02  0.00000000000E+00 0. -1.
</event>
<event>
 7    1  0.2478637E-008  0.4614232E+02  0.7816164E-02  0.1320468E+00
        -11   -1    0    0    0    0  0.00000000000E+00  0.00000000000E+00  0.45593999997E+02  0.45594000000E+02  0.51100000000E-03 0. -1.
         11   -1    0    0    0    0 -0.00000000000E+00 -0.00000000000E+00 -0.45593999997E+02  0.45594000000E+02  0.51100000000E-03 0.  1.
    9900012    2    1    2    0    0 -0.43185243154E+02 -0.10200230232E+02 -0.77526520930E+01  0.46142317215E+02  0.99999950224E+01 0.  0.
         12    1    1    2    0    0  0.43185243154E+02  0.10200230232E+02  0.77526520930E+01  0.45045682785E+02  0.00000000000E+00 0. -1.
         11    1    3    3    0    0 -0.23235769916E+02 -0.83770475320E+01 -0.83582274474E+01  0.26075580440E+02  0.51100000000E-03 0. -1.
        -11    1    3    3    0    0 -0.14576032973E+02 -0.17410485990E+01  0.61814071225E+00  0.14692654139E+02  0.51100000000E-03 0.  1.
         12    1    3    3    0    0 -0.53734402651E+01 -0.82134100883E-01 -0.12565357890E-01  0.53740826363E+01  0.00000000000E+00 0. -1.
</event>
<event>
 7    1  0.2478637E-008  0.4614232E+02  0.7816164E-02  0.1320468E+00
        -11   -1    0    0    0    0  0.00000000000E+00  0.00000000000E+00  0.45593999997E+02  0.45594000000E+02  0.51100000000E-03 0.  1.
         11   -1    0    0    0    0 -0.00000000000E+00 -0.00000000000E+00 -0.45593999997E+02  0.45594000000E+02  0.51100000000E-03 0. -1.
    9900012    2    1    2    0    0 -0.16852325409E+01  0.18960316208E+02  0.40826215340E+02  0.46142318093E+02  0.10000003028E+02 0.  0.
         12    1    1    2    0    0  0.16852325409E+01 -0.18960316208E+02 -0.40826215340E+02  0.45045681907E+02  0.00000000000E+00 0. -1.
         11    1    3    3    0    0 -0.27080305128E+01  0.27614993934E+01  0.51502434576E+01  0.64408319409E+01  0.51100000000E-03 0. -1.
        -11    1    3    3    0    0  0.98742942060E+00  0.11880169425E+02  0.31556121909E+02  0.33732807067E+02  0.51100000000E-03 0.  1.
         12    1    3    3    0    0  0.35368551293E-01  0.43186473903E+01  0.41198499738E+01  0.59686790853E+01  0.00000000000E+00 0. -1.
</event>
<event>
 7    1  0.2478637E-008  0.4614231E+02  0.7816164E-02  0.1320468E+00
        -11   -1    0    0    0    0  0.00000000000E+00  0.00000000000E+00  0.45593999997E+02  0.45594000000E+02  0.51100000000E-03 0.  1.
         11   -1    0    0    0    0 -0.00000000000E+00 -0.00000000000E+00 -0.45593999997E+02  0.45594000000E+02  0.51100000000E-03 0. -1.
    9900012    2    1    2    0    0 -0.31864609810E+01 -0.65072453916E+01  0.44459159144E+02  0.46142305334E+02  0.99998866751E+01 0.  0.
         12    1    1    2    0    0  0.31864609810E+01  0.65072453916E+01 -0.44459159144E+02  0.45045694666E+02  0.00000000000E+00 0. -1.
         11    1    3    3    0    0 -0.45965675677E+01 -0.51055371515E+01  0.27583378479E+02  0.28426004144E+02  0.51100000000E-03 0. -1.
        -11    1    3    3    0    0 -0.14318386215E+01  0.88569751513E+00  0.66293435234E+01  0.68397966153E+01  0.51100000000E-03 0.  1.
         12    1    3    3    0    0  0.28419452082E+01 -0.22874057552E+01  0.10246437142E+02  0.10876504574E+02  0.00000000000E+00 0. -1.
</event>
<event>
 7    1  0.2478637E-008  0.4614232E+02  0.7816164E-02  0.1320468E+00
        -11   -1    0    0    0    0  0.00000000000E+00  0.00000000000E+00  0.45593999997E+02  0.45594000000E+02  0.51100000000E-03 0.  1.
         11   -1    0    0    0    0 -0.00000000000E+00 -0.00000000000E+00 -0.45593999997E+02  0.45594000000E+02  0.51100000000E-03 0. -1.
    9900012    2    1    2    0    0 -0.13610971882E+01 -0.53954580724E+01  0.44700669537E+02  0.46142318626E+02  0.10000007885E+02 0.  0.
         12    1    1    2    0    0  0.13610971882E+01  0.53954580724E+01 -0.44700669537E+02  0.45045681374E+02  0.00000000000E+00 0. -1.
         11    1    3    3    0    0 -0.24562692542E+01 -0.29340417291E+01  0.18194832918E+02  0.18592842835E+02  0.51100000000E-03 0. -1.
        -11    1    3    3    0    0 -0.26727257788E+01 -0.19137531164E+01  0.78748940695E+01  0.85334559790E+01  0.51100000000E-03 0.  1.
         12    1    3    3    0    0  0.37678978448E+01 -0.54766322690E+00  0.18630942550E+02  0.19016019812E+02  0.00000000000E+00 0. -1.
</event>
<event>
 7    1  0.2478637E-008  0.4614232E+02  0.7816164E-02  0.1320468E+00
        -11   -1    0    0    0    0  0.00000000000E+00  0.00000000000E+00  0.45593999997E+02  0.45594000000E+02  0.51100000000E-03 0. -1.
         11   -1    0    0    0    0 -0.00000000000E+00 -0.00000000000E+00 -0.45593999997E+02  0.45594000000E+02  0.51100000000E-03 0.  1.
    9900012    2    1    2    0    0  0.41443693296E+02 -0.10011193445E+01  0.17621893856E+02  0.46142322105E+02  0.10000039607E+02 0.  0.
         12    1    1    2    0    0 -0.41443693296E+02  0.10011193445E+01 -0.17621893856E+02  0.45045677895E+02  0.00000000000E+00 0. -1.
         11    1    3    3    0    0  0.90646730042E+01 -0.20244722203E+01  0.19051854476E+01  0.94813773416E+01  0.51100000000E-03 0.  1.
        -11    1    3    3    0    0 -0.18120569534E+00 -0.23413020806E+00 -0.23818757289E+00  0.37998163028E+00  0.51100000000E-03 0. -1.
         12    1    3    3    0    0  0.32560225988E+02  0.12574830838E+01  0.15954895981E+02  0.36280963133E+02  0.00000000000E+00 0. -1.
</event>
<event>
 7    1  0.2478637E-008  0.4614232E+02  0.7816164E-02  0.1320468E+00
        -11   -1    0    0    0    0  0.00000000000E+00  0.00000000000E+00  0.45593999997E+02  0.45594000000E+02  0.51100000000E-03 0. -1.
         11   -1    0    0    0    0 -0.00000000000E+00 -0.00000000000E+00 -0.45593999997E+02  0.45594000000E+02  0.51100000000E-03 0.  1.
    9900012    2    1    2    0    0  0.39611703504E+02 -0.18816438373E+02 -0.10294077900E+02  0.46142318217E+02  0.10000004156E+02 0.  0.
         12    1    1    2    0    0 -0.39611703504E+02  0.18816438373E+02  0.10294077900E+02  0.45045681783E+02  0.00000000000E+00 0. -1.
         11    1    3    3    0    0  0.51616016631E+01  0.12387736689E+00 -0.21221510736E+01  0.55822041141E+01  0.51100000000E-03 0. -1.
        -11    1    3    3    0    0  0.26475358990E+02 -0.15825310141E+02 -0.42248236439E+01  0.31132526556E+02  0.51100000000E-03 0.  1.
         12    1    3    3    0    0  0.79747428504E+01 -0.31150055990E+01 -0.39471031824E+01  0.94275875464E+01  0.00000000000E+00 0. -1.
</event>
<event>
 7    1  0.2478637E-008  0.4614232E+02  0.7816164E-02  0.1320468E+00
        -11   -1    0    0    0    0  0.00000000000E+00  0.00000000000E+00  0.45593999997E+02  0.45594000000E+02  0.51100000000E-03 0.  1.
         11   -1    0    0    0    0 -0.00000000000E+00 -0.00000000000E+00 -0.45593999997E+02  0.45594000000E+02  0.51100000000E-03 0. -1.
    9900012    2    1    2    0    0 -0.11426328948E+02  0.18178528135E+02  0.39599161218E+02  0.46142318214E+02  0.10000004128E+02 0.  0.
         12    1    1    2    0    0  0.11426328948E+02 -0.18178528135E+02 -0.39599161218E+02  0.45045681786E+02  0.00000000000E+00 0. -1.
         11    1    3    3    0    0 -0.47127923445E+01  0.58554861580E+01  0.10000449147E+02  0.12510240335E+02  0.51100000000E-03 0. -1.
        -11    1    3    3    0    0 -0.57777223817E+01  0.48716486863E+01  0.92683111481E+01  0.11958956001E+02  0.51100000000E-03 0.  1.
         12    1    3    3    0    0 -0.93581422148E+00  0.74513932910E+01  0.20330400923E+02  0.21673121878E+02  0.00000000000E+00 0. -1.
</event>
<event>
 7    1  0.2478637E-008  0.4614232E+02  0.7816164E-02  0.1320468E+00
        -11   -1    0    0    0    0  0.00000000000E+00  0.00000000000E+00  0.45593999997E+02  0.45594000000E+02  0.51100000000E-03 0.  1.
         11   -1    0    0    0    0 -0.00000000000E+00 -0.00000000000E+00 -0.45593999997E+02  0.45594000000E+02  0.51100000000E-03 0. -1.
    9900012    2    1    2    0    0 -0.41990774216E+02 -0.17918785980E+01  0.16207328948E+02  0.46142318078E+02  0.10000002887E+02 0.  0.
         12    1    1    2    0    0  0.41990774216E+02  0.17918785980E+01 -0.16207328948E+02  0.45045681922E+02  0.00000000000E+00 0. -1.
         11    1    3    3    0    0 -0.12929312741E+01 -0.36599058600E+00  0.30440095681E+01  0.33274036275E+01  0.51100000000E-03 0. -1.
        -11    1    3    3    0    0 -0.82446068937E+01 -0.16245781812E+00  0.21693801495E+01  0.85267898923E+01  0.51100000000E-03 0.  1.
        -12    1    3    3    0    0 -0.32453236049E+02 -0.12634301939E+01  0.10993939231E+02  0.34288124558E+02  0.00000000000E+00 0.  1.
</event>
<event>
 7    1  0.2478637E-008  0.4614232E+02  0.7816164E-02  0.1320468E+00
        -11   -1    0    0    0    0  0.00000000000E+00  0.00000000000E+00  0.45593999997E+02  0.45594000000E+02  0.51100000000E-03 0.  1.
         11   -1    0    0    0    0 -0.00000000000E+00 -0.00000000000E+00 -0.45593999997E+02  0.45594000000E+02  0.51100000000E-03 0. -1.
    9900012    2    1    2    0    0 -0.43868143862E+01  0.34506290990E+02 -0.28621411898E+02  0.46142317883E+02  0.10000001116E+02 0.  0.
         12    1    1    2    0    0  0.43868143862E+01 -0.34506290990E+02  0.28621411898E+02  0.45045682117E+02  0.00000000000E+00 0. -1.
         11    1    3    3    0    0  0.45541026922E+00  0.20658007815E+02 -0.18918427854E+02  0.28015488540E+02  0.51100000000E-03 0.  1.
        -11    1    3    3    0    0  0.57913917889E-01  0.50352772661E+00 -0.17827846103E+01  0.18534334143E+01  0.51100000000E-03 0. -1.
        -12    1    3    3    0    0 -0.49001385733E+01  0.13344755448E+02 -0.79201994334E+01  0.16273395929E+02  0.00000000000E+00 0.  1.
</event>
<event>
 7    1  0.2478637E-008  0.4614232E+02  0.7816164E-02  0.1320468E+00
        -11   -1    0    0    0    0  0.00000000000E+00  0.00000000000E+00  0.45593999997E+02  0.45594000000E+02  0.51100000000E-03 0.  1.
         11   -1    0    0    0    0 -0.00000000000E+00 -0.00000000000E+00 -0.45593999997E+02  0.45594000000E+02  0.51100000000E-03 0. -1.
    9900012    2    1    2    0    0  0.34802057462E+02 -0.25767791351E+02  0.12407708433E+02  0.46142317596E+02  0.99999984941E+01 0.  0.
         12    1    1    2    0    0 -0.34802057462E+02  0.25767791351E+02 -0.12407708433E+02  0.45045682404E+02  0.00000000000E+00 0. -1.
         11    1    3    3    0    0  0.88849555398E+00 -0.25339293433E+01  0.12803463906E+01  0.29748124995E+01  0.51100000000E-03 0. -1.
        -11    1    3    3    0    0  0.16563549927E+02 -0.14113893508E+02  0.30768990369E+01  0.21977727000E+02  0.51100000000E-03 0.  1.
         12    1    3    3    0    0  0.17350011981E+02 -0.91199684993E+01  0.80504630055E+01  0.21189778096E+02  0.00000000000E+00 0. -1.
</event>
<event>
 7    1  0.2478637E-008  0.4614232E+02  0.7816164E-02  0.1320468E+00
        -11   -1    0    0    0    0  0.00000000000E+00  0.00000000000E+00  0.45593999997E+02  0.45594000000E+02  0.51100000000E-03 0.  1.
         11   -1    0    0    0    0 -0.00000000000E+00 -0.00000000000E+00 -0.45593999997E+02  0.45594000000E+02  0.51100000000E-03 0. -1.
    9900012    2    1    2    0    0  0.30425078629E+02 -0.13566585480E+01  0.33190173546E+02  0.46142317055E+02  0.99999935582E+01 0.  0.
         12    1    1    2    0    0 -0.30425078629E+02  0.13566585480E+01 -0.33190173546E+02  0.45045682945E+02  0.00000000000E+00 0. -1.
         11    1    3    3    0    0  0.92940078186E+01  0.25140541346E+00  0.62564373342E+01  0.11206462171E+02  0.51100000000E-03 0. -1.
        -11    1    3    3    0    0  0.12055516667E+02 -0.40423883867E+01  0.17390681647E+02  0.21543263317E+02  0.51100000000E-03 0.  1.
         12    1    3    3    0    0  0.90755541435E+01  0.24343244253E+01  0.95430545654E+01  0.13392591566E+02  0.00000000000E+00 0. -1.
</event>
<event>
 7    1  0.2478637E-008  0.4614232E+02  0.7816164E-02  0.1320468E+00
        -11   -1    0    0    0    0  0.00000000000E+00  0.00000000000E+00  0.45593999997E+02  0.45594000000E+02  0.51100000000E-03 0. -1.
         11   -1    0    0    0    0 -0.00000000000E+00 -0.00000000000E+00 -0.45593999997E+02  0.45594000000E+02  0.51100000000E-03 0.  1.
    9900012    2    1    2    0    0 -0.12364777777E+01 -0.15520839255E+01 -0.45001951476E+02  0.46142317871E+02  0.10000001004E+02 0.  0.
         12    1    1    2    0    0  0.12364777777E+01  0.15520839255E+01  0.45001951476E+02  0.45045682129E+02  0.00000000000E+00 0. -1.
         11    1    3    3    0    0  0.21698517913E+01 -0.23523099417E+01 -0.20040625071E+02  0.20294537994E+02  0.51100000000E-03 0. -1.
        -11    1    3    3    0    0 -0.18109691070E+01 -0.24619973005E+01 -0.12490049622E+02  0.12858552782E+02  0.51100000000E-03 0.  1.
         12    1    3    3    0    0 -0.15953604620E+01  0.32622233167E+01 -0.12471276782E+02  0.12989227096E+02  0.00000000000E+00 0. -1.
</event>
<event>
 7    1  0.2478637E-008  0.4614232E+02  0.7816164E-02  0.1320468E+00
        -11   -1    0    0    0    0  0.00000000000E+00  0.00000000000E+00  0.45593999997E+02  0.45594000000E+02  0.51100000000E-03 0. -1.
         11   -1    0    0    0    0 -0.00000000000E+00 -0.00000000000E+00 -0.45593999997E+02  0.45594000000E+02  0.51100000000E-03 0.  1.
    9900012    2    1    2    0    0 -0.32117942768E+02 -0.24030292355E+02 -0.20496248481E+02  0.46142318741E+02  0.10000008933E+02 0.  0.
         12    1    1    2    0    0  0.32117942768E+02  0.24030292355E+02  0.20496248481E+02  0.45045681259E+02  0.00000000000E+00 0. -1.
         11    1    3    3    0    0 -0.10484973666E+02 -0.72688383556E+01 -0.34218196506E+01  0.13209070134E+02  0.51100000000E-03 0.  1.
        -11    1    3    3    0    0 -0.16074152258E+01  0.53317937774E+00 -0.12171669090E+01  0.20855597576E+01  0.51100000000E-03 0. -1.
        -12    1    3    3    0    0 -0.20025553876E+02 -0.17294633377E+02 -0.15857261922E+02  0.30847688850E+02  0.00000000000E+00 0.  1.
</event>
<event>
 7    1  0.2478637E-008  0.4614231E+02  0.7816164E-02  0.1320468E+00
        -11   -1    0    0    0    0  0.00000000000E+00  0.00000000000E+00  0.45593999997E+02  0.45594000000E+02  0.51100000000E-03 0.  1.
         11   -1    0    0    0    0 -0.00000000000E+00 -0.00000000000E+00 -0.45593999997E+02  0.45594000000E+02  0.51100000000E-03 0. -1.
    9900012    2    1    2    0    0  0.12365581762E+02 -0.29992972268E+02  0.31251044181E+02  0.46142314744E+02  0.99999724893E+01 0.  0.
         12    1    1    2    0    0 -0.12365581762E+02  0.29992972268E+02 -0.31251044181E+02  0.45045685256E+02  0.00000000000E+00 0. -1.
         11    1    3    3    0    0  0.18771979250E+01 -0.57008527214E+01  0.70011076392E+01  0.92216648300E+01  0.51100000000E-03 0. -1.
        -11    1    3    3    0    0  0.62989426787E+01 -0.12959666133E+02  0.18745829328E+02  0.23643936699E+02  0.51100000000E-03 0.  1.
         12    1    3    3    0    0  0.41894411579E+01 -0.11332453414E+02  0.55041072131E+01  0.13276713215E+02  0.00000000000E+00 0. -1.
</event>
<event>
 7    1  0.2478637E-008  0.4614232E+02  0.7816164E-02  0.1320468E+00
        -11   -1    0    0    0    0  0.00000000000E+00  0.00000000000E+00  0.45593999997E+02  0.45594000000E+02  0.51100000000E-03 0.  1.
         11   -1    0    0    0    0 -0.00000000000E+00 -0.00000000000E+00 -0.45593999997E+02  0.45594000000E+02  0.51100000000E-03 0. -1.
    9900012    2    1    2    0    0  0.14794266749E+02  0.69056357081E+00  0.42541348388E+02  0.46142317306E+02  0.99999958544E+01 0.  0.
         12    1    1    2    0    0 -0.14794266749E+02 -0.69056357081E+00 -0.42541348388E+02  0.45045682694E+02  0.00000000000E+00 0. -1.
         11    1    3    3    0    0  0.10516718569E+01 -0.19842683310E+01  0.40248925538E+01  0.46090231975E+01  0.51100000000E-03 0. -1.
        -11    1    3    3    0    0  0.10489967137E+02  0.25600505422E+01  0.35463287088E+02  0.37070716215E+02  0.51100000000E-03 0.  1.
        -12    1    3    3    0    0  0.32526277549E+01  0.11478135959E+00  0.30531687457E+01  0.44625778943E+01  0.00000000000E+00 0.  1.
</event>
<event>
 7    1  0.2478637E-008  0.4614232E+02  0.7816164E-02  0.1320468E+00
        -11   -1    0    0    0    0  0.00000000000E+00  0.00000000000E+00  0.45593999997E+02  0.45594000000E+02  0.51100000000E-03 0.  1.
         11   -1    0    0    0    0 -0.00000000000E+00 -0.00000000000E+00 -0.45593999997E+02  0.45594000000E+02  0.51100000000E-03 0. -1.
    9900012    2    1    2    0    0 -0.39583887343E+02  0.37830728863E+01 -0.21164067305E+02  0.46142317382E+02  0.99999965407E+01 0.  0.
         12    1    1    2    0    0  0.39583887343E+02 -0.37830728863E+01  0.21164067305E+02  0.45045682618E+02  0.00000000000E+00 0. -1.
         11    1    3    3    0    0 -0.18508439891E+02  0.38616101206E+01 -0.14848288988E+02  0.24040508856E+02  0.51100000000E-03 0. -1.
        -11    1    3    3    0    0 -0.53161416846E+01  0.89372505817E+00 -0.15668857406E+01  0.56138434317E+01  0.51100000000E-03 0.  1.
         12    1    3    3    0    0 -0.15759305768E+02 -0.97226229254E+00 -0.47488925763E+01  0.16487965094E+02  0.00000000000E+00 0. -1.
</event>
<event>
 7    1  0.2478637E-008  0.4614232E+02  0.7816164E-02  0.1320468E+00
        -11   -1    0    0    0    0  0.00000000000E+00  0.00000000000E+00  0.45593999997E+02  0.45594000000E+02  0.51100000000E-03 0.  1.
         11   -1    0    0    0    0 -0.00000000000E+00 -0.00000000000E+00 -0.45593999997E+02  0.45594000000E+02  0.51100000000E-03 0. -1.
    9900012    2    1    2    0    0  0.31883470017E+02 -0.29445007205E+02 -0.12064385405E+02  0.46142317579E+02  0.99999983383E+01 0.  0.
         12    1    1    2    0    0 -0.31883470017E+02  0.29445007205E+02  0.12064385405E+02  0.45045682421E+02  0.00000000000E+00 0. -1.
         11    1    3    3    0    0  0.64192810631E+01 -0.54722599231E+01 -0.84182036789E+00  0.84771138854E+01  0.51100000000E-03 0. -1.
        -11    1    3    3    0    0  0.18169576628E+02 -0.11824647627E+02 -0.81929463310E+01  0.23174990317E+02  0.51100000000E-03 0.  1.
        -12    1    3    3    0    0  0.72946123258E+01 -0.12148099655E+02 -0.30296187057E+01  0.14490213377E+02  0.00000000000E+00 0.  1.
</event>
<event>
 7    1  0.2478637E-008  0.4614232E+02  0.7816164E-02  0.1320468E+00
        -11   -1    0    0    0    0  0.00000000000E+00  0.00000000000E+00  0.45593999997E+02  0.45594000000E+02  0.51100000000E-03 0.  1.
         11   -1    0    0    0    0 -0.00000000000E+00 -0.00000000000E+00 -0.45593999997E+02  0.45594000000E+02  0.51100000000E-03 0. -1.
    9900012    2    1    2    0    0 -0.12096340656E+02  0.42962881737E+02  0.60813463233E+01  0.46142318326E+02  0.10000005149E+02 0.  0.
         12    1    1    2    0    0  0.12096340656E+02 -0.42962881737E+02 -0.60813463233E+01  0.45045681674E+02  0.00000000000E+00 0. -1.
         11    1    3    3    0    0 -0.76421122300E+01  0.14708292043E+02 -0.12852046033E+00  0.16575652383E+02  0.51100000000E-03 0. -1.
        -11    1    3    3    0    0 -0.21526093308E+01  0.98387632766E+01  0.25176712864E+00  0.10074640276E+02  0.51100000000E-03 0.  1.
         12    1    3    3    0    0 -0.23016190949E+01  0.18415826418E+02  0.59580996550E+01  0.19492025667E+02  0.00000000000E+00 0. -1.
</event>
<event>
 7    1  0.2478637E-008  0.4614232E+02  0.7816164E-02  0.1320468E+00
        -11   -1    0    0    0    0  0.00000000000E+00  0.00000000000E+00  0.45593999997E+02  0.45594000000E+02  0.51100000000E-03 0.  1.
         11   -1    0    0    0    0 -0.00000000000E+00 -0.00000000000E+00 -0.45593999997E+02  0.45594000000E+02  0.51100000000E-03 0. -1.
    9900012    2    1    2    0    0 -0.56171339353E+01  0.13842964035E+02  0.42496275992E+02  0.46142319628E+02  0.10000017028E+02 0.  0.
         12    1    1    2    0    0  0.56171339353E+01 -0.13842964035E+02 -0.42496275992E+02  0.45045680372E+02  0.00000000000E+00 0. -1.
         11    1    3    3    0    0  0.87782558818E+00  0.72418613421E+01  0.19280952632E+02  0.20614807011E+02  0.51100000000E-03 0. -1.
        -11    1    3    3    0    0 -0.43485133412E+01  0.69343259745E+01  0.20331004289E+02  0.21916755705E+02  0.51100000000E-03 0.  1.
         12    1    3    3    0    0 -0.21464461823E+01 -0.33322328119E+00  0.28843190714E+01  0.36107569116E+01  0.00000000000E+00 0. -1.
</event>
<event>
 7    1  0.2478637E-008  0.4614232E+02  0.7816164E-02  0.1320468E+00
        -11   -1    0    0    0    0  0.00000000000E+00  0.00000000000E+00  0.45593999997E+02  0.45594000000E+02  0.51100000000E-03 0.  1.
         11   -1    0    0    0    0 -0.00000000000E+00 -0.00000000000E+00 -0.45593999997E+02  0.45594000000E+02  0.51100000000E-03 0. -1.
    9900012    2    1    2    0    0  0.32181080523E+02  0.17667330030E+02  0.26102817894E+02  0.46142316566E+02  0.99999891023E+01 0.  0.
         12    1    1    2    0    0 -0.32181080523E+02 -0.17667330030E+02 -0.26102817894E+02  0.45045683434E+02  0.00000000000E+00 0. -1.
         11    1    3    3    0    0  0.15051657577E+02  0.12286664115E+02  0.11257043857E+02  0.22455189769E+02  0.51100000000E-03 0. -1.
        -11    1    3    3    0    0  0.76542413093E+01  0.44392802112E+01  0.83034120223E+01  0.12134301393E+02  0.51100000000E-03 0.  1.
        -12    1    3    3    0    0  0.94751816367E+01  0.94138570321E+00  0.65423620146E+01  0.11552825404E+02  0.00000000000E+00 0.  1.
</event>
<event>
 7    1  0.2478637E-008  0.4614231E+02  0.7816164E-02  0.1320468E+00
        -11   -1    0    0    0    0  0.00000000000E+00  0.00000000000E+00  0.45593999997E+02  0.45594000000E+02  0.51100000000E-03 0.  1.
         11   -1    0    0    0    0 -0.00000000000E+00 -0.00000000000E+00 -0.45593999997E+02  0.45594000000E+02  0.51100000000E-03 0. -1.
    9900012    2    1    2    0    0 -0.38848515591E+02  0.20710548304E+02  0.95383418261E+01  0.46142312754E+02  0.99999543433E+01 0.  0.
         12    1    1    2    0    0  0.38848515591E+02 -0.20710548304E+02 -0.95383418261E+01  0.45045687246E+02  0.00000000000E+00 0. -1.
         11    1    3    3    0    0 -0.16920216768E+02  0.66850908888E+01  0.81219743297E+01  0.19923620226E+02  0.51100000000E-03 0. -1.
        -11    1    3    3    0    0 -0.19703238296E+01  0.21861476118E+01  0.57101634432E+00  0.29979121569E+01  0.51100000000E-03 0.  1.
        -12    1    3    3    0    0 -0.19957974993E+02  0.11839309804E+02  0.84535115203E+00  0.23220780371E+02  0.00000000000E+00 0.  1.
</event>
<event>
 7    1  0.2478637E-008  0.4614232E+02  0.7816164E-02  0.1320468E+00
        -11   -1    0    0    0    0  0.00000000000E+00  0.00000000000E+00  0.45593999997E+02  0.45594000000E+02  0.51100000000E-03 0.  1.
         11   -1    0    0    0    0 -0.00000000000E+00 -0.00000000000E+00 -0.45593999997E+02  0.45594000000E+02  0.51100000000E-03 0. -1.
    9900012    2    1    2    0    0  0.43563317251E+02  0.38454440339E+01  0.10796453684E+02  0.46142318055E+02  0.10000002684E+02 0.  0.
         12    1    1    2    0    0 -0.43563317251E+02 -0.38454440339E+01 -0.10796453684E+02  0.45045681945E+02  0.00000000000E+00 0. -1.
         11    1    3    3    0    0  0.13926371267E+02 -0.73286708366E-01  0.60865746669E+01  0.15198538714E+02  0.51100000000E-03 0. -1.
        -11    1    3    3    0    0  0.20806706013E+02  0.22320620263E+01  0.62133649820E+01  0.21829040764E+02  0.51100000000E-03 0.  1.
         12    1    3    3    0    0  0.88302399698E+01  0.16866687160E+01 -0.15034859644E+01  0.91147385770E+01  0.00000000000E+00 0. -1.
</event>
<event>
 7    1  0.2478637E-008  0.4614232E+02  0.7816164E-02  0.1320468E+00
        -11   -1    0    0    0    0  0.00000000000E+00  0.00000000000E+00  0.45593999997E+02  0.45594000000E+02  0.51100000000E-03 0.  1.
         11   -1    0    0    0    0 -0.00000000000E+00 -0.00000000000E+00 -0.45593999997E+02  0.45594000000E+02  0.51100000000E-03 0. -1.
    9900012    2    1    2    0    0 -0.20149446419E+02  0.31966690205E+02  0.24520275454E+02  0.46142318942E+02  0.10000010772E+02 0.  0.
         12    1    1    2    0    0  0.20149446419E+02 -0.31966690205E+02 -0.24520275454E+02  0.45045681058E+02  0.00000000000E+00 0. -1.
         11    1    3    3    0    0 -0.49777277613E+01  0.61518485695E+01  0.88553548012E+01  0.11876039887E+02  0.51100000000E-03 0. -1.
        -11    1    3    3    0    0 -0.13310641988E+02  0.24682536738E+02  0.15593310324E+02  0.32086634867E+02  0.51100000000E-03 0.  1.
         12    1    3    3    0    0 -0.18610766693E+01  0.11323048972E+01  0.71610328886E-01  0.21796441884E+01  0.00000000000E+00 0. -1.
</event>
<event>
 7    1  0.2478637E-008  0.4614232E+02  0.7816164E-02  0.1320468E+00
        -11   -1    0    0    0    0  0.00000000000E+00  0.00000000000E+00  0.45593999997E+02  0.45594000000E+02  0.51100000000E-03 0.  1.
         11   -1    0    0    0    0 -0.00000000000E+00 -0.00000000000E+00 -0.45593999997E+02  0.45594000000E+02  0.51100000000E-03 0. -1.
    9900012    2    1    2    0    0  0.98838001455E+01  0.35685002153E+02  0.25651598081E+02  0.46142319097E+02  0.10000012177E+02 0.  0.
         12    1    1    2    0    0 -0.98838001455E+01 -0.35685002153E+02 -0.25651598081E+02  0.45045680903E+02  0.00000000000E+00 0. -1.
         11    1    3    3    0    0  0.70247410277E+00  0.32878169458E+01  0.21214039494E+01  0.39753698082E+01  0.51100000000E-03 0. -1.
        -11    1    3    3    0    0  0.77910307175E+01  0.30622136807E+02  0.18403708081E+02  0.36566540630E+02  0.51100000000E-03 0.  1.
         12    1    3    3    0    0  0.13902953252E+01  0.17750484002E+01  0.51264860507E+01  0.56004086585E+01  0.00000000000E+00 0. -1.
</event>
<event>
 7    1  0.2478637E-008  0.4614232E+02  0.7816164E-02  0.1320468E+00
        -11   -1    0    0    0    0  0.00000000000E+00  0.00000000000E+00  0.45593999997E+02  0.45594000000E+02  0.51100000000E-03 0.  1.
         11   -1    0    0    0    0 -0.00000000000E+00 -0.00000000000E+00 -0.45593999997E+02  0.45594000000E+02  0.51100000000E-03 0. -1.
    9900012    2    1    2    0    0 -0.22034115853E+02  0.84845537012E+01  0.38361742689E+02  0.46142320795E+02  0.10000027662E+02 0.  0.
         12    1    1    2    0    0  0.22034115853E+02 -0.84845537012E+01 -0.38361742689E+02  0.45045679205E+02  0.00000000000E+00 0. -1.
         11    1    3    3    0    0 -0.36657003981E+00 -0.58375622905E-01  0.27775493139E+01  0.28022422736E+01  0.51100000000E-03 0. -1.
        -11    1    3    3    0    0 -0.13703287199E+01 -0.10008905771E+01  0.58747281397E+01  0.61149009578E+01  0.51100000000E-03 0.  1.
         12    1    3    3    0    0 -0.20297217093E+02  0.95438199013E+01  0.29709465236E+02  0.37225177563E+02  0.00000000000E+00 0. -1.
</event>
<event>
 7    1  0.2478637E-008  0.4614232E+02  0.7816164E-02  0.1320468E+00
        -11   -1    0    0    0    0  0.00000000000E+00  0.00000000000E+00  0.45593999997E+02  0.45594000000E+02  0.51100000000E-03 0. -1.
         11   -1    0    0    0    0 -0.00000000000E+00 -0.00000000000E+00 -0.45593999997E+02  0.45594000000E+02  0.51100000000E-03 0.  1.
    9900012    2    1    2    0    0  0.77461818832E+01 -0.38258904364E+02 -0.22480356112E+02  0.46142317545E+02  0.99999980336E+01 0.  0.
         12    1    1    2    0    0 -0.77461818832E+01  0.38258904364E+02  0.22480356112E+02  0.45045682455E+02  0.00000000000E+00 0. -1.
         11    1    3    3    0    0 -0.12706613487E+01 -0.90567397867E+01 -0.60016408678E+01  0.10938866906E+02  0.51100000000E-03 0. -1.
        -11    1    3    3    0    0  0.69629416509E+01 -0.24436572991E+02 -0.11095121498E+02  0.27725987400E+02  0.51100000000E-03 0.  1.
        -12    1    3    3    0    0  0.20539015810E+01 -0.47655915853E+01 -0.53835937465E+01  0.74774632389E+01  0.00000000000E+00 0.  1.
</event>
<event>
 7    1  0.2478637E-008  0.4614232E+02  0.7816164E-02  0.1320468E+00
        -11   -1    0    0    0    0  0.00000000000E+00  0.00000000000E+00  0.45593999997E+02  0.45594000000E+02  0.51100000000E-03 0. -1.
         11   -1    0    0    0    0 -0.00000000000E+00 -0.00000000000E+00 -0.45593999997E+02  0.45594000000E+02  0.51100000000E-03 0.  1.
    9900012    2    1    2    0    0 -0.16066365876E+02  0.27884621812E+02 -0.31518775300E+02  0.46142318270E+02  0.10000004644E+02 0.  0.
         12    1    1    2    0    0  0.16066365876E+02 -0.27884621812E+02  0.31518775300E+02  0.45045681730E+02  0.00000000000E+00 0. -1.
         11    1    3    3    0    0 -0.35804681158E+01  0.83488297894E+01 -0.72437826436E+01  0.11618739090E+02  0.51100000000E-03 0. -1.
        -11    1    3    3    0    0 -0.92701323794E+01  0.70346074963E+01 -0.11251691871E+02  0.16187082108E+02  0.51100000000E-03 0.  1.
        -12    1    3    3    0    0 -0.32157653809E+01  0.12501184527E+02 -0.13023300785E+02  0.18336497073E+02  0.00000000000E+00 0.  1.
</event>
<event>
 7    1  0.2478637E-008  0.4614232E+02  0.7816164E-02  0.1320468E+00
        -11   -1    0    0    0    0  0.00000000000E+00  0.00000000000E+00  0.45593999997E+02  0.45594000000E+02  0.51100000000E-03 0.  1.
         11   -1    0    0    0    0 -0.00000000000E+00 -0.00000000000E+00 -0.45593999997E+02  0.45594000000E+02  0.51100000000E-03 0. -1.
    9900012    2    1    2    0    0 -0.40385563222E+02 -0.19532176808E+02 -0.40760146104E+01  0.46142317158E+02  0.99999945011E+01 0.  0.
         12    1    1    2    0    0  0.40385563222E+02  0.19532176808E+02  0.40760146104E+01  0.45045682842E+02  0.00000000000E+00 0. -1.
         11    1    3    3    0    0 -0.18343948466E+02 -0.11672890215E+02 -0.12831117270E+01  0.21780798591E+02  0.51100000000E-03 0. -1.
        -11    1    3    3    0    0 -0.34422470134E+01 -0.38377210308E+01 -0.22890315987E+00  0.51603841068E+01  0.51100000000E-03 0.  1.
        -12    1    3    3    0    0 -0.18599367742E+02 -0.40215655621E+01 -0.25639997235E+01  0.19201134460E+02  0.00000000000E+00 0.  1.
</event>
<event>
 7    1  0.2478637E-008  0.4614232E+02  0.7816164E-02  0.1320468E+00
        -11   -1    0    0    0    0  0.00000000000E+00  0.00000000000E+00  0.45593999997E+02  0.45594000000E+02  0.51100000000E-03 0.  1.
         11   -1    0    0    0    0 -0.00000000000E+00 -0.00000000000E+00 -0.45593999997E+02  0.45594000000E+02  0.51100000000E-03 0. -1.
    9900012    2    1    2    0    0 -0.17924652442E+02 -0.14842479724E+02  0.38568396889E+02  0.46142316432E+02  0.99999878803E+01 0.  0.
         12    1    1    2    0    0  0.17924652442E+02  0.14842479724E+02 -0.38568396889E+02  0.45045683568E+02  0.00000000000E+00 0. -1.
         11    1    3    3    0    0 -0.42663893563E+01 -0.39782564195E+01  0.11738114934E+02  0.13107705549E+02  0.51100000000E-03 0.  1.
        -11    1    3    3    0    0 -0.12669224570E+02 -0.12199837334E+02  0.24934120428E+02  0.30513204420E+02  0.51100000000E-03 0. -1.
         12    1    3    3    0    0 -0.98903851551E+00  0.13356140292E+01  0.18961615270E+01  0.25214064640E+01  0.00000000000E+00 0. -1.
</event>
<event>
 7    1  0.2478637E-008  0.4614233E+02  0.7816164E-02  0.1320468E+00
        -11   -1    0    0    0    0  0.00000000000E+00  0.00000000000E+00  0.45593999997E+02  0.45594000000E+02  0.51100000000E-03 0. -1.
         11   -1    0    0    0    0 -0.00000000000E+00 -0.00000000000E+00 -0.45593999997E+02  0.45594000000E+02  0.51100000000E-03 0.  1.
    9900012    2    1    2    0    0  0.87676464828E+01 -0.38963222567E+02 -0.20835266224E+02  0.46142326997E+02  0.10000084221E+02 0.  0.
         12    1    1    2    0    0 -0.87676464828E+01  0.38963222567E+02  0.20835266224E+02  0.45045673003E+02  0.00000000000E+00 0. -1.
         11    1    3    3    0    0  0.23959176425E+01 -0.68257431857E+01 -0.23767975123E+01  0.76144834403E+01  0.51100000000E-03 0. -1.
        -11    1    3    3    0    0  0.41582718508E+01 -0.29728215927E+02 -0.18491264657E+02  0.35255991205E+02  0.51100000000E-03 0.  1.
         12    1    3    3    0    0  0.22134569895E+01 -0.24092634546E+01  0.32795945064E-01  0.32718523518E+01  0.00000000000E+00 0. -1.
</event>
<event>
 7    1  0.2478637E-008  0.4614232E+02  0.7816164E-02  0.1320468E+00
        -11   -1    0    0    0    0  0.00000000000E+00  0.00000000000E+00  0.45593999997E+02  0.45594000000E+02  0.51100000000E-03 0. -1.
         11   -1    0    0    0    0 -0.00000000000E+00 -0.00000000000E+00 -0.45593999997E+02  0.45594000000E+02  0.51100000000E-03 0.  1.
    9900012    2    1    2    0    0 -0.30548487032E+01  0.38246976384E+02 -0.23599792141E+02  0.46142317718E+02  0.99999996082E+01 0.  0.
         12    1    1    2    0    0  0.30548487032E+01 -0.38246976384E+02  0.23599792141E+02  0.45045682282E+02  0.00000000000E+00 0. -1.
         11    1    3    3    0    0  0.20478950812E+01  0.33970229100E+01 -0.10930145868E+01  0.41144039741E+01  0.51100000000E-03 0. -1.
        -11    1    3    3    0    0 -0.39345208704E+01  0.12566634643E+02 -0.78392607879E+01  0.15324972127E+02  0.51100000000E-03 0.  1.
         12    1    3    3    0    0 -0.11682229140E+01  0.22283318831E+02 -0.14667516766E+02  0.26702941617E+02  0.00000000000E+00 0. -1.
</event>
<event>
 7    1  0.2478637E-008  0.4614232E+02  0.7816164E-02  0.1320468E+00
        -11   -1    0    0    0    0  0.00000000000E+00  0.00000000000E+00  0.45593999997E+02  0.45594000000E+02  0.51100000000E-03 0.  1.
         11   -1    0    0    0    0 -0.00000000000E+00 -0.00000000000E+00 -0.45593999997E+02  0.45594000000E+02  0.51100000000E-03 0. -1.
    9900012    2    1    2    0    0 -0.14467224343E+02  0.28464459573E+02  0.31774002352E+02  0.46142320247E+02  0.10000022665E+02 0.  0.
         12    1    1    2    0    0  0.14467224343E+02 -0.28464459573E+02 -0.31774002352E+02  0.45045679753E+02  0.00000000000E+00 0. -1.
         11    1    3    3    0    0 -0.63895683897E+01  0.77194935786E+01  0.11956122594E+02  0.15600193366E+02  0.51100000000E-03 0. -1.
        -11    1    3    3    0    0 -0.53076027615E+01  0.13104686171E+02  0.81394211938E+01  0.16314215407E+02  0.51100000000E-03 0.  1.
        -12    1    3    3    0    0 -0.27700531916E+01  0.76402798239E+01  0.11678458565E+02  0.14227911474E+02  0.00000000000E+00 0.  1.
</event>
<event>
 7    1  0.2478637E-008  0.4614232E+02  0.7816164E-02  0.1320468E+00
        -11   -1    0    0    0    0  0.00000000000E+00  0.00000000000E+00  0.45593999997E+02  0.45594000000E+02  0.51100000000E-03 0.  1.
         11   -1    0    0    0    0 -0.00000000000E+00 -0.00000000000E+00 -0.45593999997E+02  0.45594000000E+02  0.51100000000E-03 0. -1.
    9900012    2    1    2    0    0 -0.13627897176E+02 -0.40512635302E+02  0.14216901878E+02  0.46142317637E+02  0.99999988685E+01 0.  0.
         12    1    1    2    0    0  0.13627897176E+02  0.40512635302E+02 -0.14216901878E+02  0.45045682363E+02  0.00000000000E+00 0. -1.
         11    1    3    3    0    0 -0.21020239217E+00 -0.13447229256E+00  0.11562555555E+01  0.11828757389E+01  0.51100000000E-03 0. -1.
        -11    1    3    3    0    0 -0.59729858139E+01 -0.25869434548E+02  0.99797054462E+01  0.28363686721E+02  0.51100000000E-03 0.  1.
        -12    1    3    3    0    0 -0.74447089697E+01 -0.14508728462E+02  0.30809408767E+01  0.16595755177E+02  0.00000000000E+00 0.  1.
</event>
<event>
 7    1  0.2478637E-008  0.4614232E+02  0.7816164E-02  0.1320468E+00
        -11   -1    0    0    0    0  0.00000000000E+00  0.00000000000E+00  0.45593999997E+02  0.45594000000E+02  0.51100000000E-03 0. -1.
         11   -1    0    0    0    0 -0.00000000000E+00 -0.00000000000E+00 -0.45593999997E+02  0.45594000000E+02  0.51100000000E-03 0.  1.
    9900012    2    1    2    0    0  0.31889588918E+02  0.22874192780E+02 -0.22111963730E+02  0.46142317447E+02  0.99999971331E+01 0.  0.
         12    1    1    2    0    0 -0.31889588918E+02 -0.22874192780E+02  0.22111963730E+02  0.45045682553E+02  0.00000000000E+00 0. -1.
         11    1    3    3    0    0  0.96903036424E+01  0.40775531427E+01 -0.25100123841E+01  0.10808727342E+02  0.51100000000E-03 0. -1.
        -11    1    3    3    0    0  0.11571282471E+02  0.79023250556E+01 -0.75285799606E+01  0.15906628674E+02  0.51100000000E-03 0.  1.
         12    1    3    3    0    0  0.10628002805E+02  0.10894314581E+02 -0.12073371386E+02  0.19426961431E+02  0.00000000000E+00 0. -1.
</event>
<event>
 7    1  0.2478637E-008  0.4614232E+02  0.7816164E-02  0.1320468E+00
        -11   -1    0    0    0    0  0.00000000000E+00  0.00000000000E+00  0.45593999997E+02  0.45594000000E+02  0.51100000000E-03 0.  1.
         11   -1    0    0    0    0 -0.00000000000E+00 -0.00000000000E+00 -0.45593999997E+02  0.45594000000E+02  0.51100000000E-03 0. -1.
    9900012    2    1    2    0    0  0.11513336593E+02  0.26983761815E+02  0.34182351353E+02  0.46142318018E+02  0.10000002342E+02 0.  0.
         12    1    1    2    0    0 -0.11513336593E+02 -0.26983761815E+02 -0.34182351353E+02  0.45045681982E+02  0.00000000000E+00 0. -1.
         11    1    3    3    0    0  0.77627378416E+01  0.94667172265E+01  0.12511689411E+02  0.17504890917E+02  0.51100000000E-03 0. -1.
        -11    1    3    3    0    0 -0.33398170863E+00  0.21717982839E+01  0.57309928205E+01  0.61377952506E+01  0.51100000000E-03 0.  1.
        -12    1    3    3    0    0  0.40845804604E+01  0.15345246305E+02  0.15939669122E+02  0.22499631851E+02  0.00000000000E+00 0.  1.
</event>
<event>
 7    1  0.2478637E-008  0.4614233E+02  0.7816164E-02  0.1320468E+00
        -11   -1    0    0    0    0  0.00000000000E+00  0.00000000000E+00  0.45593999997E+02  0.45594000000E+02  0.51100000000E-03 0.  1.
         11   -1    0    0    0    0 -0.00000000000E+00 -0.00000000000E+00 -0.45593999997E+02  0.45594000000E+02  0.51100000000E-03 0. -1.
    9900012    2    1    2    0    0 -0.21480899496E+02  0.16054018835E+02  0.36193262522E+02  0.46142325226E+02  0.10000068067E+02 0.  0.
         12    1    1    2    0    0  0.21480899496E+02 -0.16054018835E+02 -0.36193262522E+02  0.45045674774E+02  0.00000000000E+00 0. -1.
         11    1    3    3    0    0 -0.16757373998E+01 -0.13660839434E+00  0.22555466712E+01  0.28132274585E+01  0.51100000000E-03 0. -1.
        -11    1    3    3    0    0 -0.11796167862E+02  0.80541521463E+01  0.25145282953E+02  0.28918924567E+02  0.51100000000E-03 0.  1.
        -12    1    3    3    0    0 -0.80089942338E+01  0.81364750827E+01  0.87924328972E+01  0.14410173200E+02  0.00000000000E+00 0.  1.
</event>
<event>
 7    1  0.2478637E-008  0.4614232E+02  0.7816164E-02  0.1320468E+00
        -11   -1    0    0    0    0  0.00000000000E+00  0.00000000000E+00  0.45593999997E+02  0.45594000000E+02  0.51100000000E-03 0.  1.
         11   -1    0    0    0    0 -0.00000000000E+00 -0.00000000000E+00 -0.45593999997E+02  0.45594000000E+02  0.51100000000E-03 0. -1.
    9900012    2    1    2    0    0 -0.97040786600E+01  0.11976756932E+01  0.43971694002E+02  0.46142318263E+02  0.10000004580E+02 0.  0.
         12    1    1    2    0    0  0.97040786600E+01 -0.11976756932E+01 -0.43971694002E+02  0.45045681737E+02  0.00000000000E+00 0. -1.
         11    1    3    3    0    0 -0.48432090080E+01 -0.23885901840E+01  0.12522395301E+02  0.13637170560E+02  0.51100000000E-03 0. -1.
        -11    1    3    3    0    0 -0.22320215369E+01 -0.99812068832E+00  0.54370952795E+01  0.59615577149E+01  0.51100000000E-03 0.  1.
        -12    1    3    3    0    0 -0.26288481152E+01  0.45843865655E+01  0.26012203422E+02  0.26543589988E+02  0.00000000000E+00 0.  1.
</event>
<event>
 7    1  0.2478637E-008  0.4614232E+02  0.7816164E-02  0.1320468E+00
        -11   -1    0    0    0    0  0.00000000000E+00  0.00000000000E+00  0.45593999997E+02  0.45594000000E+02  0.51100000000E-03 0.  1.
         11   -1    0    0    0    0 -0.00000000000E+00 -0.00000000000E+00 -0.45593999997E+02  0.45594000000E+02  0.51100000000E-03 0. -1.
    9900012    2    1    2    0    0 -0.38107940566E+01  0.55633006165E+01  0.44538082964E+02  0.46142319861E+02  0.10000019144E+02 0.  0.
         12    1    1    2    0    0  0.38107940566E+01 -0.55633006165E+01 -0.44538082964E+02  0.45045680139E+02  0.00000000000E+00 0. -1.
         11    1    3    3    0    0 -0.21127637923E+01  0.48158717180E+01  0.35454569697E+02  0.35842473462E+02  0.51100000000E-03 0. -1.
        -11    1    3    3    0    0 -0.20595780181E+01  0.65336770111E+00  0.94986818394E+01  0.97413401497E+01  0.51100000000E-03 0.  1.
         12    1    3    3    0    0  0.36154775387E+00  0.94061197450E-01 -0.41516857156E+00  0.55850624885E+00  0.00000000000E+00 0. -1.
</event>
<event>
 7    1  0.2478637E-008  0.4614232E+02  0.7816164E-02  0.1320468E+00
        -11   -1    0    0    0    0  0.00000000000E+00  0.00000000000E+00  0.45593999997E+02  0.45594000000E+02  0.51100000000E-03 0.  1.
         11   -1    0    0    0    0 -0.00000000000E+00 -0.00000000000E+00 -0.45593999997E+02  0.45594000000E+02  0.51100000000E-03 0. -1.
    9900012    2    1    2    0    0 -0.45417040947E+01 -0.15199419190E+02  0.42159981680E+02  0.46142317909E+02  0.10000001350E+02 0.  0.
         12    1    1    2    0    0  0.45417040947E+01  0.15199419190E+02 -0.42159981680E+02  0.45045682091E+02  0.00000000000E+00 0. -1.
         11    1    3    3    0    0 -0.31829537048E+01 -0.42335353464E+01  0.11733598432E+02  0.12873668795E+02  0.51100000000E-03 0. -1.
        -11    1    3    3    0    0 -0.42585610873E+01 -0.44444384058E+01  0.11545268162E+02  0.13083638350E+02  0.51100000000E-03 0.  1.
        -12    1    3    3    0    0  0.28998106974E+01 -0.65214454381E+01  0.18881115085E+02  0.20185010764E+02  0.00000000000E+00 0.  1.
</event>
<event>
 7    1  0.2478637E-008  0.4614232E+02  0.7816164E-02  0.1320468E+00
        -11   -1    0    0    0    0  0.00000000000E+00  0.00000000000E+00  0.45593999997E+02  0.45594000000E+02  0.51100000000E-03 0. -1.
         11   -1    0    0    0    0 -0.00000000000E+00 -0.00000000000E+00 -0.45593999997E+02  0.45594000000E+02  0.51100000000E-03 0.  1.
    9900012    2    1    2    0    0 -0.35473657715E+01  0.44562272838E+02 -0.55437816399E+01  0.46142317862E+02  0.10000000919E+02 0.  0.
         12    1    1    2    0    0  0.35473657715E+01 -0.44562272838E+02  0.55437816399E+01  0.45045682138E+02  0.00000000000E+00 0. -1.
         11    1    3    3    0    0  0.59752555453E-01  0.44176450497E+01 -0.26514552665E+01  0.51526084117E+01  0.51100000000E-03 0. -1.
        -11    1    3    3    0    0  0.19371834983E+01  0.79329068900E+01  0.10978402095E+00  0.81667462569E+01  0.51100000000E-03 0.  1.
        -12    1    3    3    0    0 -0.55443018252E+01  0.32211720898E+02 -0.30021103944E+01  0.32822963193E+02  0.00000000000E+00 0.  1.
</event>
<event>
 7    1  0.2478637E-008  0.4614232E+02  0.7816164E-02  0.1320468E+00
        -11   -1    0    0    0    0  0.00000000000E+00  0.00000000000E+00  0.45593999997E+02  0.45594000000E+02  0.51100000000E-03 0.  1.
         11   -1    0    0    0    0 -0.00000000000E+00 -0.00000000000E+00 -0.45593999997E+02  0.45594000000E+02  0.51100000000E-03 0. -1.
    9900012    2    1    2    0    0 -0.37412133044E+02  0.13916601369E+02  0.20875201385E+02  0.46142317350E+02  0.99999962477E+01 0.  0.
         12    1    1    2    0    0  0.37412133044E+02 -0.13916601369E+02 -0.20875201385E+02  0.45045682650E+02  0.00000000000E+00 0. -1.
         11    1    3    3    0    0 -0.39768187267E+01  0.30978934451E+01  0.64063271050E+00  0.50815786438E+01  0.51100000000E-03 0. -1.
        -11    1    3    3    0    0 -0.27021709193E+02  0.10975095037E+02  0.15094317239E+02  0.32839973994E+02  0.51100000000E-03 0.  1.
         12    1    3    3    0    0 -0.64136051237E+01 -0.15638711238E+00  0.51402514364E+01  0.82207647115E+01  0.00000000000E+00 0. -1.
</event>
<event>
 7    1  0.2478637E-008  0.4614232E+02  0.7816164E-02  0.1320468E+00
        -11   -1    0    0    0    0  0.00000000000E+00  0.00000000000E+00  0.45593999997E+02  0.45594000000E+02  0.51100000000E-03 0.  1.
         11   -1    0    0    0    0 -0.00000000000E+00 -0.00000000000E+00 -0.45593999997E+02  0.45594000000E+02  0.51100000000E-03 0. -1.
    9900012    2    1    2    0    0 -0.44414406813E+02  0.62006265649E+01  0.42457262293E+01  0.46142317703E+02  0.99999994746E+01 0.  0.
         12    1    1    2    0    0  0.44414406813E+02 -0.62006265649E+01 -0.42457262293E+01  0.45045682297E+02  0.00000000000E+00 0. -1.
         11    1    3    3    0    0 -0.14618737180E+02  0.23914719461E+01  0.59189720036E+01  0.15951828881E+02  0.51100000000E-03 0. -1.
        -11    1    3    3    0    0 -0.17584450007E+02  0.10032142697E+01 -0.11304426073E+01  0.17649283885E+02  0.51100000000E-03 0.  1.
         12    1    3    3    0    0 -0.12211219626E+02  0.28059403491E+01 -0.54280316701E+00  0.12541204937E+02  0.00000000000E+00 0. -1.
</event>
<event>
 7    1  0.2478637E-008  0.4614232E+02  0.7816164E-02  0.1320468E+00
        -11   -1    0    0    0    0  0.00000000000E+00  0.00000000000E+00  0.45593999997E+02  0.45594000000E+02  0.51100000000E-03 0.  1.
         11   -1    0    0    0    0 -0.00000000000E+00 -0.00000000000E+00 -0.45593999997E+02  0.45594000000E+02  0.51100000000E-03 0. -1.
    9900012    2    1    2    0    0 -0.38005318012E+02 -0.79745931815E+01  0.22827947216E+02  0.46142317546E+02  0.99999980430E+01 0.  0.
         12    1    1    2    0    0  0.38005318012E+02  0.79745931815E+01 -0.22827947216E+02  0.45045682454E+02  0.00000000000E+00 0. -1.
         11    1    3    3    0    0 -0.90107503373E+01 -0.16137209953E+00  0.22571870887E+01  0.92905627606E+01  0.51100000000E-03 0.  1.
        -11    1    3    3    0    0 -0.37591197604E+01 -0.22919053129E+01  0.11997948479E+01  0.45632575288E+01  0.51100000000E-03 0. -1.
        -12    1    3    3    0    0 -0.25235447914E+02 -0.55213157691E+01  0.19370965279E+02  0.32288497257E+02  0.00000000000E+00 0.  1.
</event>
<event>
 7    1  0.2478637E-008  0.4614232E+02  0.7816164E-02  0.1320468E+00
        -11   -1    0    0    0    0  0.00000000000E+00  0.00000000000E+00  0.45593999997E+02  0.45594000000E+02  0.51100000000E-03 0.  1.
         11   -1    0    0    0    0 -0.00000000000E+00 -0.00000000000E+00 -0.45593999997E+02  0.45594000000E+02  0.51100000000E-03 0. -1.
    9900012    2    1    2    0    0 -0.13313398665E+02 -0.20487109407E+02  0.37843696216E+02  0.46142316753E+02  0.99999908101E+01 0.  0.
         12    1    1    2    0    0  0.13313398665E+02  0.20487109407E+02 -0.37843696216E+02  0.45045683247E+02  0.00000000000E+00 0. -1.
         11    1    3    3    0    0 -0.21799083129E+01 -0.36254116280E+01  0.23490743179E+01  0.48387767191E+01  0.51100000000E-03 0. -1.
        -11    1    3    3    0    0 -0.74294649246E+01 -0.10430584970E+02  0.16332210808E+02  0.20754160113E+02  0.51100000000E-03 0.  1.
        -12    1    3    3    0    0 -0.37040254271E+01 -0.64311128091E+01  0.19162411091E+02  0.20549379921E+02  0.00000000000E+00 0.  1.
</event>
<event>
 7    1  0.2478637E-008  0.4614232E+02  0.7816164E-02  0.1320468E+00
        -11   -1    0    0    0    0  0.00000000000E+00  0.00000000000E+00  0.45593999997E+02  0.45594000000E+02  0.51100000000E-03 0. -1.
         11   -1    0    0    0    0 -0.00000000000E+00 -0.00000000000E+00 -0.45593999997E+02  0.45594000000E+02  0.51100000000E-03 0.  1.
    9900012    2    1    2    0    0 -0.11367493015E+02 -0.34107680568E+02 -0.27139632869E+02  0.46142318260E+02  0.10000004546E+02 0.  0.
         12    1    1    2    0    0  0.11367493015E+02  0.34107680568E+02  0.27139632869E+02  0.45045681740E+02  0.00000000000E+00 0. -1.
         11    1    3    3    0    0 -0.48927039507E+01 -0.11058824211E+02 -0.13427088973E+02  0.18069943648E+02  0.51100000000E-03 0. -1.
        -11    1    3    3    0    0 -0.41279777515E+01 -0.20270821217E+02 -0.12787006633E+02  0.24319825904E+02  0.51100000000E-03 0.  1.
         12    1    3    3    0    0 -0.23468113127E+01 -0.27780351404E+01 -0.92553726281E+00  0.37525487077E+01  0.00000000000E+00 0. -1.
</event>
<event>
 7    1  0.2478637E-008  0.4614232E+02  0.7816164E-02  0.1320468E+00
        -11   -1    0    0    0    0  0.00000000000E+00  0.00000000000E+00  0.45593999997E+02  0.45594000000E+02  0.51100000000E-03 0.  1.
         11   -1    0    0    0    0 -0.00000000000E+00 -0.00000000000E+00 -0.45593999997E+02  0.45594000000E+02  0.51100000000E-03 0. -1.
    9900012    2    1    2    0    0 -0.35171943864E+02  0.20269085727E+02  0.19524651487E+02  0.46142317775E+02  0.10000000129E+02 0.  0.
         12    1    1    2    0    0  0.35171943864E+02 -0.20269085727E+02 -0.19524651487E+02  0.45045682225E+02  0.00000000000E+00 0. -1.
         11    1    3    3    0    0 -0.11335844205E+02  0.93535651774E+01  0.37127662511E+01  0.15158336942E+02  0.51100000000E-03 0. -1.
        -11    1    3    3    0    0 -0.15056938849E+02  0.89099578739E+01  0.88833557432E+01  0.19621742184E+02  0.51100000000E-03 0.  1.
         12    1    3    3    0    0 -0.87791608102E+01  0.20055626762E+01  0.69285294930E+01  0.11362238649E+02  0.00000000000E+00 0. -1.
</event>
<event>
 7    1  0.2478637E-008  0.4614232E+02  0.7816164E-02  0.1320468E+00
        -11   -1    0    0    0    0  0.00000000000E+00  0.00000000000E+00  0.45593999997E+02  0.45594000000E+02  0.51100000000E-03 0.  1.
         11   -1    0    0    0    0 -0.00000000000E+00 -0.00000000000E+00 -0.45593999997E+02  0.45594000000E+02  0.51100000000E-03 0. -1.
    9900012    2    1    2    0    0 -0.43346346586E+02  0.59162963520E+01  0.10733376268E+02  0.46142315512E+02  0.99999794922E+01 0.  0.
         12    1    1    2    0    0  0.43346346586E+02 -0.59162963520E+01 -0.10733376268E+02  0.45045684488E+02  0.00000000000E+00 0. -1.
         11    1    3    3    0    0 -0.25674134310E+02  0.13740760747E+01  0.39200538572E+01  0.26008000310E+02  0.51100000000E-03 0.  1.
        -11    1    3    3    0    0 -0.11251504681E+01  0.18730471521E+01  0.83337167793E+00  0.23385418159E+01  0.51100000000E-03 0. -1.
         12    1    3    3    0    0 -0.16547061808E+02  0.26691731251E+01  0.59799507332E+01  0.17795773386E+02  0.00000000000E+00 0. -1.
</event>
<event>
 7    1  0.2478637E-008  0.4614232E+02  0.7816164E-02  0.1320468E+00
        -11   -1    0    0    0    0  0.00000000000E+00  0.00000000000E+00  0.45593999997E+02  0.45594000000E+02  0.51100000000E-03 0.  1.
         11   -1    0    0    0    0 -0.00000000000E+00 -0.00000000000E+00 -0.45593999997E+02  0.45594000000E+02  0.51100000000E-03 0. -1.
    9900012    2    1    2    0    0  0.26003229114E+02  0.10948790535E+02  0.35115089978E+02  0.46142317824E+02  0.10000000576E+02 0.  0.
         12    1    1    2    0    0 -0.26003229114E+02 -0.10948790535E+02 -0.35115089978E+02  0.45045682176E+02  0.00000000000E+00 0. -1.
         11    1    3    3    0    0  0.22044328502E+02  0.77289911885E+01  0.22319524117E+02  0.32308681202E+02  0.51100000000E-03 0. -1.
        -11    1    3    3    0    0  0.34834441934E+01  0.22397402630E+01  0.95224870810E+01  0.10384054139E+02  0.51100000000E-03 0.  1.
         12    1    3    3    0    0  0.47545641821E+00  0.98005908336E+00  0.32730787798E+01  0.34495824836E+01  0.00000000000E+00 0. -1.
</event>
<event>
 7    1  0.2478637E-008  0.4614232E+02  0.7816164E-02  0.1320468E+00
        -11   -1    0    0    0    0  0.00000000000E+00  0.00000000000E+00  0.45593999997E+02  0.45594000000E+02  0.51100000000E-03 0.  1.
         11   -1    0    0    0    0 -0.00000000000E+00 -0.00000000000E+00 -0.45593999997E+02  0.45594000000E+02  0.51100000000E-03 0. -1.
    9900012    2    1    2    0    0 -0.40257638661E+02  0.19755379335E+02  0.42615782073E+01  0.46142317277E+02  0.99999955828E+01 0.  0.
         12    1    1    2    0    0  0.40257638661E+02 -0.19755379335E+02 -0.42615782073E+01  0.45045682723E+02  0.00000000000E+00 0. -1.
         11    1    3    3    0    0 -0.12843014273E+01  0.75267604009E+00 -0.15265370365E+01  0.21321976837E+01  0.51100000000E-03 0. -1.
        -11    1    3    3    0    0 -0.20182315957E+02  0.90374627264E+01  0.52759623621E+01  0.22734057909E+02  0.51100000000E-03 0.  1.
         12    1    3    3    0    0 -0.18791021277E+02  0.99652405682E+01  0.51215288180E+00  0.21276061684E+02  0.00000000000E+00 0. -1.
</event>
<event>
 7    1  0.2478637E-008  0.4614232E+02  0.7816164E-02  0.1320468E+00
        -11   -1    0    0    0    0  0.00000000000E+00  0.00000000000E+00  0.45593999997E+02  0.45594000000E+02  0.51100000000E-03 0.  1.
         11   -1    0    0    0    0 -0.00000000000E+00 -0.00000000000E+00 -0.45593999997E+02  0.45594000000E+02  0.51100000000E-03 0. -1.
    9900012    2    1    2    0    0 -0.21315114961E+02 -0.16098679932E+02  0.36271363821E+02  0.46142318134E+02  0.10000003400E+02 0.  0.
         12    1    1    2    0    0  0.21315114961E+02  0.16098679932E+02 -0.36271363821E+02  0.45045681866E+02  0.00000000000E+00 0. -1.
         11    1    3    3    0    0 -0.36873538749E+01 -0.70502406855E+01  0.60878864021E+01  0.10018225064E+02  0.51100000000E-03 0. -1.
        -11    1    3    3    0    0 -0.85188632674E+01 -0.46007891273E+01  0.13778794019E+02  0.16840233277E+02  0.51100000000E-03 0.  1.
         12    1    3    3    0    0 -0.91088978189E+01 -0.44476501190E+01  0.16404683400E+02  0.19283859793E+02  0.00000000000E+00 0. -1.
</event>
<event>
 7    1  0.2478637E-008  0.4614232E+02  0.7816164E-02  0.1320468E+00
        -11   -1    0    0    0    0  0.00000000000E+00  0.00000000000E+00  0.45593999997E+02  0.45594000000E+02  0.51100000000E-03 0.  1.
         11   -1    0    0    0    0 -0.00000000000E+00 -0.00000000000E+00 -0.45593999997E+02  0.45594000000E+02  0.51100000000E-03 0. -1.
    9900012    2    1    2    0    0 -0.37695131252E+02 -0.23123342707E+02  0.85733138594E+01  0.46142316427E+02  0.99999878304E+01 0.  0.
         12    1    1    2    0    0  0.37695131252E+02  0.23123342707E+02 -0.85733138594E+01  0.45045683573E+02  0.00000000000E+00 0. -1.
         11    1    3    3    0    0 -0.54918154361E+00 -0.12964195835E+01  0.11540881533E+01  0.18205009835E+01  0.51100000000E-03 0. -1.
        -11    1    3    3    0    0 -0.11030814630E+02 -0.84708464336E+01 -0.57398940907E+00  0.13919898520E+02  0.51100000000E-03 0.  1.
         12    1    3    3    0    0 -0.26115135079E+02 -0.13356076690E+02  0.79932151152E+01  0.30401916923E+02  0.00000000000E+00 0. -1.
</event>
<event>
 7    1  0.2478637E-008  0.4614232E+02  0.7816164E-02  0.1320468E+00
        -11   -1    0    0    0    0  0.00000000000E+00  0.00000000000E+00  0.45593999997E+02  0.45594000000E+02  0.51100000000E-03 0. -1.
         11   -1    0    0    0    0 -0.00000000000E+00 -0.00000000000E+00 -0.45593999997E+02  0.45594000000E+02  0.51100000000E-03 0.  1.
    9900012    2    1    2    0    0  0.42359497603E+02  0.38051736353E+01 -0.14842746723E+02  0.46142317478E+02  0.99999974208E+01 0.  0.
         12    1    1    2    0    0 -0.42359497603E+02 -0.38051736353E+01  0.14842746723E+02  0.45045682522E+02  0.00000000000E+00 0. -1.
         11    1    3    3    0    0  0.16100883349E+01  0.13096962032E+01  0.94244091366E+00  0.22794481191E+01  0.51100000000E-03 0. -1.
        -11    1    3    3    0    0  0.18721792467E+02 -0.99343222990E-01 -0.65082087173E+01  0.19821003083E+02  0.51100000000E-03 0.  1.
        -12    1    3    3    0    0  0.22027616801E+02  0.25948206551E+01 -0.92769789190E+01  0.24041866276E+02  0.00000000000E+00 0.  1.
</event>
<event>
 7    1  0.2478637E-008  0.4614232E+02  0.7816164E-02  0.1320468E+00
        -11   -1    0    0    0    0  0.00000000000E+00  0.00000000000E+00  0.45593999997E+02  0.45594000000E+02  0.51100000000E-03 0.  1.
         11   -1    0    0    0    0 -0.00000000000E+00 -0.00000000000E+00 -0.45593999997E+02  0.45594000000E+02  0.51100000000E-03 0. -1.
    9900012    2    1    2    0    0 -0.59949271303E+00 -0.23492136701E+02  0.38430108520E+02  0.46142321860E+02  0.10000037373E+02 0.  0.
         12    1    1    2    0    0  0.59949271303E+00  0.23492136701E+02 -0.38430108520E+02  0.45045678140E+02  0.00000000000E+00 0. -1.
         11    1    3    3    0    0 -0.38535632216E+01 -0.50694259057E+01  0.86262132213E+01  0.10721967325E+02  0.51100000000E-03 0. -1.
        -11    1    3    3    0    0  0.37290828522E+01 -0.16123020062E+02  0.23932392060E+02  0.29096687523E+02  0.51100000000E-03 0.  1.
        -12    1    3    3    0    0 -0.47501234364E+00 -0.22996907332E+01  0.58715032383E+01  0.63236670115E+01  0.00000000000E+00 0.  1.
</event>
<event>
 7    1  0.2478637E-008  0.4614232E+02  0.7816164E-02  0.1320468E+00
        -11   -1    0    0    0    0  0.00000000000E+00  0.00000000000E+00  0.45593999997E+02  0.45594000000E+02  0.51100000000E-03 0.  1.
         11   -1    0    0    0    0 -0.00000000000E+00 -0.00000000000E+00 -0.45593999997E+02  0.45594000000E+02  0.51100000000E-03 0. -1.
    9900012    2    1    2    0    0 -0.13191432810E+02 -0.13725202800E+02  0.40825462191E+02  0.46142318136E+02  0.10000003423E+02 0.  0.
         12    1    1    2    0    0  0.13191432810E+02  0.13725202800E+02 -0.40825462191E+02  0.45045681864E+02  0.00000000000E+00 0. -1.
         11    1    3    3    0    0 -0.88189944897E+01 -0.52467022094E+01  0.19452038192E+02  0.21992824693E+02  0.51100000000E-03 0. -1.
        -11    1    3    3    0    0 -0.66423517700E+00 -0.76379249414E+00  0.92704330444E+01  0.93255303568E+01  0.51100000000E-03 0.  1.
         12    1    3    3    0    0 -0.37082031434E+01 -0.77147080960E+01  0.12102990954E+02  0.14823963086E+02  0.00000000000E+00 0. -1.
</event>
<event>
 7    1  0.2478637E-008  0.4614232E+02  0.7816164E-02  0.1320468E+00
        -11   -1    0    0    0    0  0.00000000000E+00  0.00000000000E+00  0.45593999997E+02  0.45594000000E+02  0.51100000000E-03 0.  1.
         11   -1    0    0    0    0 -0.00000000000E+00 -0.00000000000E+00 -0.45593999997E+02  0.45594000000E+02  0.51100000000E-03 0. -1.
    9900012    2    1    2    0    0 -0.17566098066E+02  0.29778548974E+02  0.28875314251E+02  0.46142317040E+02  0.99999934216E+01 0.  0.
         12    1    1    2    0    0  0.17566098066E+02 -0.29778548974E+02 -0.28875314251E+02  0.45045682960E+02  0.00000000000E+00 0. -1.
         11    1    3    3    0    0 -0.69128165739E+01  0.99705299705E+01  0.57665136600E+01  0.13433211862E+02  0.51100000000E-03 0. -1.
        -11    1    3    3    0    0 -0.11081271522E+02  0.19819466481E+02  0.22820964662E+02  0.32193202054E+02  0.51100000000E-03 0.  1.
         12    1    3    3    0    0  0.42799003046E+00 -0.11447477086E-01  0.28783592933E+00  0.51590312377E+00  0.00000000000E+00 0. -1.
</event>
<event>
 7    1  0.2478637E-008  0.4614232E+02  0.7816164E-02  0.1320468E+00
        -11   -1    0    0    0    0  0.00000000000E+00  0.00000000000E+00  0.45593999997E+02  0.45594000000E+02  0.51100000000E-03 0. -1.
         11   -1    0    0    0    0 -0.00000000000E+00 -0.00000000000E+00 -0.45593999997E+02  0.45594000000E+02  0.51100000000E-03 0.  1.
    9900012    2    1    2    0    0  0.79032329726E+01  0.33810311755E+02  0.28696956827E+02  0.46142316483E+02  0.99999883436E+01 0.  0.
         12    1    1    2    0    0 -0.79032329726E+01 -0.33810311755E+02 -0.28696956827E+02  0.45045683517E+02  0.00000000000E+00 0. -1.
         11    1    3    3    0    0  0.23172900152E+01  0.23936635161E+01  0.43185181681E+01  0.54542696553E+01  0.51100000000E-03 0. -1.
        -11    1    3    3    0    0  0.45531826230E+01  0.85883506765E+01  0.69886540597E+01  0.11972156246E+02  0.51100000000E-03 0.  1.
         12    1    3    3    0    0  0.10327603344E+01  0.22828297562E+02  0.17389784600E+02  0.28715890582E+02  0.00000000000E+00 0. -1.
</event>
<event>
 7    1  0.2478637E-008  0.4614232E+02  0.7816164E-02  0.1320468E+00
        -11   -1    0    0    0    0  0.00000000000E+00  0.00000000000E+00  0.45593999997E+02  0.45594000000E+02  0.51100000000E-03 0. -1.
         11   -1    0    0    0    0 -0.00000000000E+00 -0.00000000000E+00 -0.45593999997E+02  0.45594000000E+02  0.51100000000E-03 0.  1.
    9900012    2    1    2    0    0 -0.17290477590E+02 -0.30539288590E+02 -0.28240126592E+02  0.46142317490E+02  0.99999975280E+01 0.  0.
         12    1    1    2    0    0  0.17290477590E+02  0.30539288590E+02  0.28240126592E+02  0.45045682510E+02  0.00000000000E+00 0. -1.
         11    1    3    3    0    0 -0.97266256049E+01 -0.99596803524E+01 -0.10034201171E+02  0.17160643105E+02  0.51100000000E-03 0. -1.
        -11    1    3    3    0    0 -0.52133552768E-01 -0.18545300250E+01 -0.75731788897E-01  0.18568077677E+01  0.51100000000E-03 0.  1.
        -12    1    3    3    0    0 -0.75117184321E+01 -0.18725078212E+02 -0.18130193633E+02  0.27124866617E+02  0.00000000000E+00 0.  1.
</event>
<event>
 7    1  0.2478637E-008  0.4614232E+02  0.7816164E-02  0.1320468E+00
        -11   -1    0    0    0    0  0.00000000000E+00  0.00000000000E+00  0.45593999997E+02  0.45594000000E+02  0.51100000000E-03 0. -1.
         11   -1    0    0    0    0 -0.00000000000E+00 -0.00000000000E+00 -0.45593999997E+02  0.45594000000E+02  0.51100000000E-03 0.  1.
    9900012    2    1    2    0    0 -0.44621621766E+02  0.42297708884E+01  0.44870457359E+01  0.46142315743E+02  0.99999815941E+01 0.  0.
         12    1    1    2    0    0  0.44621621766E+02 -0.42297708884E+01 -0.44870457359E+01  0.45045684257E+02  0.00000000000E+00 0. -1.
         11    1    3    3    0    0 -0.50277097239E+01  0.19905368445E+01  0.32149088489E+01  0.62909253028E+01  0.51100000000E-03 0. -1.
        -11    1    3    3    0    0 -0.15363392778E+02 -0.77863825892E+00  0.12479339478E+01  0.15433646834E+02  0.51100000000E-03 0.  1.
        -12    1    3    3    0    0 -0.24230519264E+02  0.30178723029E+01  0.24202939172E-01  0.24417743606E+02  0.00000000000E+00 0.  1.
</event>
<event>
 7    1  0.2478637E-008  0.4614232E+02  0.7816164E-02  0.1320468E+00
        -11   -1    0    0    0    0  0.00000000000E+00  0.00000000000E+00  0.45593999997E+02  0.45594000000E+02  0.51100000000E-03 0.  1.
         11   -1    0    0    0    0 -0.00000000000E+00 -0.00000000000E+00 -0.45593999997E+02  0.45594000000E+02  0.51100000000E-03 0. -1.
    9900012    2    1    2    0    0 -0.35234088210E+01  0.29601198735E+02  0.33770817988E+02  0.46142317368E+02  0.99999964113E+01 0.  0.
         12    1    1    2    0    0  0.35234088210E+01 -0.29601198735E+02 -0.33770817988E+02  0.45045682632E+02  0.00000000000E+00 0. -1.
         11    1    3    3    0    0  0.89340841319E+00  0.38187333870E+01  0.68411968780E+01  0.78856121043E+01  0.51100000000E-03 0. -1.
        -11    1    3    3    0    0 -0.62959143172E+00  0.39550396722E+01  0.86614187745E+01  0.95424786941E+01  0.51100000000E-03 0.  1.
        -12    1    3    3    0    0 -0.37872258025E+01  0.21827425676E+02  0.18268202335E+02  0.28714226569E+02  0.00000000000E+00 0.  1.
</event>
<event>
 7    1  0.2478637E-008  0.4614232E+02  0.7816164E-02  0.1320468E+00
        -11   -1    0    0    0    0  0.00000000000E+00  0.00000000000E+00  0.45593999997E+02  0.45594000000E+02  0.51100000000E-03 0. -1.
         11   -1    0    0    0    0 -0.00000000000E+00 -0.00000000000E+00 -0.45593999997E+02  0.45594000000E+02  0.51100000000E-03 0.  1.
    9900012    2    1    2    0    0 -0.59911019093E+01 -0.32290120970E+02 -0.30831287761E+02  0.46142317417E+02  0.99999968603E+01 0.  0.
         12    1    1    2    0    0  0.59911019093E+01  0.32290120970E+02  0.30831287761E+02  0.45045682583E+02  0.00000000000E+00 0. -1.
         11    1    3    3    0    0 -0.11000994456E+01 -0.12762336689E+02 -0.11934390733E+02  0.17507630879E+02  0.51100000000E-03 0. -1.
        -11    1    3    3    0    0 -0.49931902781E+01 -0.11766928949E+02 -0.15687297090E+02  0.20235707457E+02  0.51100000000E-03 0.  1.
         12    1    3    3    0    0  0.10218781442E+00 -0.77608553318E+01 -0.32095999381E+01  0.83989790804E+01  0.00000000000E+00 0. -1.
</event>
<event>
 7    1  0.2478637E-008  0.4614232E+02  0.7816164E-02  0.1320468E+00
        -11   -1    0    0    0    0  0.00000000000E+00  0.00000000000E+00  0.45593999997E+02  0.45594000000E+02  0.51100000000E-03 0.  1.
         11   -1    0    0    0    0 -0.00000000000E+00 -0.00000000000E+00 -0.45593999997E+02  0.45594000000E+02  0.51100000000E-03 0. -1.
    9900012    2    1    2    0    0 -0.40730269982E+02 -0.12758234944E+02  0.14400907621E+02  0.46142316611E+02  0.99999895114E+01 0.  0.
         12    1    1    2    0    0  0.40730269982E+02  0.12758234944E+02 -0.14400907621E+02  0.45045683389E+02  0.00000000000E+00 0. -1.
         11    1    3    3    0    0 -0.83872704903E+01 -0.17862195718E+01  0.17418765933E+01  0.87504868986E+01  0.51100000000E-03 0. -1.
        -11    1    3    3    0    0 -0.23901472440E+02 -0.59130676181E+01  0.12349737358E+02  0.27545612474E+02  0.51100000000E-03 0.  1.
         12    1    3    3    0    0 -0.84415270511E+01 -0.50589477542E+01  0.30929366977E+00  0.98462172385E+01  0.00000000000E+00 0. -1.
</event>
<event>
 7    1  0.2478637E-008  0.4614232E+02  0.7816164E-02  0.1320468E+00
        -11   -1    0    0    0    0  0.00000000000E+00  0.00000000000E+00  0.45593999997E+02  0.45594000000E+02  0.51100000000E-03 0.  1.
         11   -1    0    0    0    0 -0.00000000000E+00 -0.00000000000E+00 -0.45593999997E+02  0.45594000000E+02  0.51100000000E-03 0. -1.
    9900012    2    1    2    0    0 -0.87778630692E+01 -0.42681678084E+02 -0.11416517348E+02  0.46142318825E+02  0.10000009703E+02 0.  0.
         12    1    1    2    0    0  0.87778630692E+01  0.42681678084E+02  0.11416517348E+02  0.45045681175E+02  0.00000000000E+00 0. -1.
         11    1    3    3    0    0 -0.93065629375E+01 -0.35948835986E+02 -0.12647695781E+02  0.39228753884E+02  0.51100000000E-03 0. -1.
        -11    1    3    3    0    0 -0.37338645497E-01 -0.35673185353E+01  0.91058246430E+00  0.36818903286E+01  0.51100000000E-03 0.  1.
         12    1    3    3    0    0  0.56603851378E+00 -0.31655235633E+01  0.32059596845E+00  0.32316746129E+01  0.00000000000E+00 0. -1.
</event>
<event>
 7    1  0.2478637E-008  0.4614232E+02  0.7816164E-02  0.1320468E+00
        -11   -1    0    0    0    0  0.00000000000E+00  0.00000000000E+00  0.45593999997E+02  0.45594000000E+02  0.51100000000E-03 0.  1.
         11   -1    0    0    0    0 -0.00000000000E+00 -0.00000000000E+00 -0.45593999997E+02  0.45594000000E+02  0.51100000000E-03 0. -1.
    9900012    2    1    2    0    0  0.76878685941E+00 -0.23010498864E+02  0.38717430056E+02  0.46142317839E+02  0.10000000709E+02 0.  0.
         12    1    1    2    0    0 -0.76878685941E+00  0.23010498864E+02 -0.38717430056E+02  0.45045682161E+02  0.00000000000E+00 0. -1.
         11    1    3    3    0    0 -0.19246021657E+01 -0.19272298157E+01  0.80677198157E+01  0.85150696735E+01  0.51100000000E-03 0. -1.
        -11    1    3    3    0    0  0.87664518881E+00 -0.10368329308E+02  0.10799224525E+02  0.14996466585E+02  0.51100000000E-03 0.  1.
        -12    1    3    3    0    0  0.18167438363E+01 -0.10714939740E+02  0.19850485715E+02  0.22630781580E+02  0.00000000000E+00 0.  1.
</event>
<event>
 7    1  0.2478637E-008  0.4614232E+02  0.7816164E-02  0.1320468E+00
        -11   -1    0    0    0    0  0.00000000000E+00  0.00000000000E+00  0.45593999997E+02  0.45594000000E+02  0.51100000000E-03 0.  1.
         11   -1    0    0    0    0 -0.00000000000E+00 -0.00000000000E+00 -0.45593999997E+02  0.45594000000E+02  0.51100000000E-03 0. -1.
    9900012    2    1    2    0    0  0.71372438788E+01  0.38829014426E+02  0.21690570878E+02  0.46142317893E+02  0.10000001205E+02 0.  0.
         12    1    1    2    0    0 -0.71372438788E+01 -0.38829014426E+02 -0.21690570878E+02  0.45045682107E+02  0.00000000000E+00 0. -1.
         11    1    3    3    0    0  0.38103720941E+00  0.28810363258E+01  0.49953783624E-02  0.29061288479E+01  0.51100000000E-03 0. -1.
        -11    1    3    3    0    0  0.98951421045E+00  0.20799337339E+02  0.15187378979E+02  0.25773010158E+02  0.51100000000E-03 0.  1.
        -12    1    3    3    0    0  0.57666924589E+01  0.15148640761E+02  0.64981965210E+01  0.17463178887E+02  0.00000000000E+00 0.  1.
</event>
<event>
 7    1  0.2478637E-008  0.4614232E+02  0.7816164E-02  0.1320468E+00
        -11   -1    0    0    0    0  0.00000000000E+00  0.00000000000E+00  0.45593999997E+02  0.45594000000E+02  0.51100000000E-03 0.  1.
         11   -1    0    0    0    0 -0.00000000000E+00 -0.00000000000E+00 -0.45593999997E+02  0.45594000000E+02  0.51100000000E-03 0. -1.
    9900012    2    1    2    0    0  0.33047278481E+01  0.71654536864E+01  0.44349166091E+02  0.46142317791E+02  0.10000000271E+02 0.  0.
         12    1    1    2    0    0 -0.33047278481E+01 -0.71654536864E+01 -0.44349166091E+02  0.45045682209E+02  0.00000000000E+00 0. -1.
         11    1    3    3    0    0  0.11689419850E+01  0.40399851790E+01  0.71975218986E+01  0.83361998149E+01  0.51100000000E-03 0. -1.
        -11    1    3    3    0    0  0.89081033216E+00  0.23040983389E+01  0.46086682970E+01  0.52289803916E+01  0.51100000000E-03 0.  1.
        -12    1    3    3    0    0  0.12449755310E+01  0.82137016844E+00  0.32542975896E+02  0.32577137584E+02  0.00000000000E+00 0.  1.
</event>
<event>
 7    1  0.2478637E-008  0.4614232E+02  0.7816164E-02  0.1320468E+00
        -11   -1    0    0    0    0  0.00000000000E+00  0.00000000000E+00  0.45593999997E+02  0.45594000000E+02  0.51100000000E-03 0. -1.
         11   -1    0    0    0    0 -0.00000000000E+00 -0.00000000000E+00 -0.45593999997E+02  0.45594000000E+02  0.51100000000E-03 0.  1.
    9900012    2    1    2    0    0  0.75808456162E+00  0.44658861200E+02  0.58416568034E+01  0.46142317298E+02  0.99999957779E+01 0.  0.
         12    1    1    2    0    0 -0.75808456162E+00 -0.44658861200E+02 -0.58416568034E+01  0.45045682702E+02  0.00000000000E+00 0. -1.
         11    1    3    3    0    0 -0.51974596209E+00  0.32876575138E+00  0.73407161005E+00  0.95764511913E+00  0.51100000000E-03 0. -1.
        -11    1    3    3    0    0  0.13176651461E+01  0.12595910510E+01  0.13022341062E+00  0.18275036117E+01  0.51100000000E-03 0.  1.
        -12    1    3    3    0    0 -0.39834622431E-01  0.43070504398E+02  0.49773617827E+01  0.43357168567E+02  0.00000000000E+00 0.  1.
</event>
<event>
 7    1  0.2478637E-008  0.4614231E+02  0.7816164E-02  0.1320468E+00
        -11   -1    0    0    0    0  0.00000000000E+00  0.00000000000E+00  0.45593999997E+02  0.45594000000E+02  0.51100000000E-03 0. -1.
         11   -1    0    0    0    0 -0.00000000000E+00 -0.00000000000E+00 -0.45593999997E+02  0.45594000000E+02  0.51100000000E-03 0.  1.
    9900012    2    1    2    0    0 -0.14183684612E+02 -0.18808372603E+02  0.38395083350E+02  0.46142309700E+02  0.99999264926E+01 0.  0.
         12    1    1    2    0    0  0.14183684612E+02  0.18808372603E+02 -0.38395083350E+02  0.45045690300E+02  0.00000000000E+00 0. -1.
         11    1    3    3    0    0 -0.30580421671E+01 -0.10152997437E+02  0.19315573241E+02  0.22034662437E+02  0.51100000000E-03 0. -1.
        -11    1    3    3    0    0 -0.66901608356E+01 -0.45020794696E+01  0.14135831483E+02  0.16274172899E+02  0.51100000000E-03 0.  1.
         12    1    3    3    0    0 -0.44354816095E+01 -0.41532956970E+01  0.49436786256E+01  0.78334743638E+01  0.00000000000E+00 0. -1.
</event>
<event>
 7    1  0.2478637E-008  0.4614232E+02  0.7816164E-02  0.1320468E+00
        -11   -1    0    0    0    0  0.00000000000E+00  0.00000000000E+00  0.45593999997E+02  0.45594000000E+02  0.51100000000E-03 0.  1.
         11   -1    0    0    0    0 -0.00000000000E+00 -0.00000000000E+00 -0.45593999997E+02  0.45594000000E+02  0.51100000000E-03 0. -1.
    9900012    2    1    2    0    0 -0.21504797801E+02  0.49723415376E+01  0.39267455370E+02  0.46142316965E+02  0.99999927439E+01 0.  0.
         12    1    1    2    0    0  0.21504797801E+02 -0.49723415376E+01 -0.39267455370E+02  0.45045683035E+02  0.00000000000E+00 0. -1.
         11    1    3    3    0    0 -0.15438475051E+01 -0.99204847323E+00  0.28564159581E+01  0.33951049585E+01  0.51100000000E-03 0. -1.
        -11    1    3    3    0    0 -0.18837122206E+02  0.75269419955E+01  0.31435115428E+02  0.37412010251E+02  0.51100000000E-03 0.  1.
        -12    1    3    3    0    0 -0.11238280897E+01 -0.15625519847E+01  0.49759239837E+01  0.53352017554E+01  0.00000000000E+00 0.  1.
</event>
<event>
 7    1  0.2478637E-008  0.4614232E+02  0.7816164E-02  0.1320468E+00
        -11   -1    0    0    0    0  0.00000000000E+00  0.00000000000E+00  0.45593999997E+02  0.45594000000E+02  0.51100000000E-03 0.  1.
         11   -1    0    0    0    0 -0.00000000000E+00 -0.00000000000E+00 -0.45593999997E+02  0.45594000000E+02  0.51100000000E-03 0. -1.
    9900012    2    1    2    0    0  0.17450453724E+02 -0.41524873611E+02  0.52915371415E+00  0.46142317995E+02  0.10000002136E+02 0.  0.
         12    1    1    2    0    0 -0.17450453724E+02  0.41524873611E+02 -0.52915371415E+00  0.45045682005E+02  0.00000000000E+00 0. -1.
         11    1    3    3    0    0 -0.11125987108E+00 -0.35305490475E+01  0.17184114471E+01  0.39281157695E+01  0.51100000000E-03 0. -1.
        -11    1    3    3    0    0  0.39934265474E+01 -0.12993012182E+02  0.13261319752E+01  0.13657395339E+02  0.51100000000E-03 0.  1.
         12    1    3    3    0    0  0.13568287048E+02 -0.25001312381E+02 -0.25153897081E+01  0.28556806887E+02  0.00000000000E+00 0. -1.
</event>
<event>
 7    1  0.2478637E-008  0.4614232E+02  0.7816164E-02  0.1320468E+00
        -11   -1    0    0    0    0  0.00000000000E+00  0.00000000000E+00  0.45593999997E+02  0.45594000000E+02  0.51100000000E-03 0.  1.
         11   -1    0    0    0    0 -0.00000000000E+00 -0.00000000000E+00 -0.45593999997E+02  0.45594000000E+02  0.51100000000E-03 0. -1.
    9900012    2    1    2    0    0  0.18287004375E+02 -0.86510722202E+01  0.40247458453E+02  0.46142317727E+02  0.99999996857E+01 0.  0.
         12    1    1    2    0    0 -0.18287004375E+02  0.86510722202E+01 -0.40247458453E+02  0.45045682273E+02  0.00000000000E+00 0. -1.
         11    1    3    3    0    0  0.12977332971E+01 -0.15712687310E+01  0.57788741634E+01  0.61276736200E+01  0.51100000000E-03 0. -1.
        -11    1    3    3    0    0  0.36644923159E+01 -0.22379155290E+01  0.16912063175E+02  0.17448628913E+02  0.51100000000E-03 0.  1.
        -12    1    3    3    0    0  0.13324778762E+02 -0.48418879602E+01  0.17556521114E+02  0.22566015193E+02  0.00000000000E+00 0.  1.
</event>
<event>
 7    1  0.2478637E-008  0.4614232E+02  0.7816164E-02  0.1320468E+00
        -11   -1    0    0    0    0  0.00000000000E+00  0.00000000000E+00  0.45593999997E+02  0.45594000000E+02  0.51100000000E-03 0.  1.
         11   -1    0    0    0    0 -0.00000000000E+00 -0.00000000000E+00 -0.45593999997E+02  0.45594000000E+02  0.51100000000E-03 0. -1.
    9900012    2    1    2    0    0 -0.21514681085E+02 -0.31163819548E+01  0.39452757508E+02  0.46142318590E+02  0.10000007561E+02 0.  0.
         12    1    1    2    0    0  0.21514681085E+02  0.31163819548E+01 -0.39452757508E+02  0.45045681410E+02  0.00000000000E+00 0. -1.
         11    1    3    3    0    0 -0.91857357234E+01  0.96776225627E+00  0.11660748899E+02  0.14875730896E+02  0.51100000000E-03 0. -1.
        -11    1    3    3    0    0  0.24832504889E+00  0.64626020693E+00  0.28750975881E+01  0.29572798290E+01  0.51100000000E-03 0.  1.
        -12    1    3    3    0    0 -0.12577270411E+02 -0.47304044180E+01  0.24916911021E+02  0.28309307865E+02  0.00000000000E+00 0.  1.
</event>
<event>
 7    1  0.2478637E-008  0.4614232E+02  0.7816164E-02  0.1320468E+00
        -11   -1    0    0    0    0  0.00000000000E+00  0.00000000000E+00  0.45593999997E+02  0.45594000000E+02  0.51100000000E-03 0.  1.
         11   -1    0    0    0    0 -0.00000000000E+00 -0.00000000000E+00 -0.45593999997E+02  0.45594000000E+02  0.51100000000E-03 0. -1.
    9900012    2    1    2    0    0 -0.32471700998E+02 -0.29889748289E+02  0.90169310000E+01  0.46142318041E+02  0.10000002554E+02 0.  0.
         12    1    1    2    0    0  0.32471700998E+02  0.29889748289E+02 -0.90169310000E+01  0.45045681959E+02  0.00000000000E+00 0. -1.
         11    1    3    3    0    0 -0.12215786154E+02 -0.68417056391E+01  0.43312361532E+01  0.14655851196E+02  0.51100000000E-03 0. -1.
        -11    1    3    3    0    0 -0.14282137199E+01 -0.19521248990E+01  0.18961172521E+01  0.30734096612E+01  0.51100000000E-03 0.  1.
        -12    1    3    3    0    0 -0.18827701124E+02 -0.21095917751E+02  0.27895775948E+01  0.28413057184E+02  0.00000000000E+00 0.  1.
</event>
<event>
 7    1  0.2478637E-008  0.4614232E+02  0.7816164E-02  0.1320468E+00
        -11   -1    0    0    0    0  0.00000000000E+00  0.00000000000E+00  0.45593999997E+02  0.45594000000E+02  0.51100000000E-03 0. -1.
         11   -1    0    0    0    0 -0.00000000000E+00 -0.00000000000E+00 -0.45593999997E+02  0.45594000000E+02  0.51100000000E-03 0.  1.
    9900012    2    1    2    0    0 -0.23919513010E+01 -0.41354699334E+02 -0.17696917162E+02  0.46142318020E+02  0.10000002356E+02 0.  0.
         12    1    1    2    0    0  0.23919513010E+01  0.41354699334E+02  0.17696917162E+02  0.45045681980E+02  0.00000000000E+00 0. -1.
         11    1    3    3    0    0  0.52044776143E+00 -0.14011964069E+02 -0.83510769211E+01  0.16320125273E+02  0.51100000000E-03 0. -1.
        -11    1    3    3    0    0 -0.17223910969E+01 -0.16292944211E+01 -0.18640865641E+01  0.30159659118E+01  0.51100000000E-03 0.  1.
         12    1    3    3    0    0 -0.11900079656E+01 -0.25713440844E+02 -0.74817536765E+01  0.26806226834E+02  0.00000000000E+00 0. -1.
</event>
<event>
 7    1  0.2478637E-008  0.4614232E+02  0.7816164E-02  0.1320468E+00
        -11   -1    0    0    0    0  0.00000000000E+00  0.00000000000E+00  0.45593999997E+02  0.45594000000E+02  0.51100000000E-03 0.  1.
         11   -1    0    0    0    0 -0.00000000000E+00 -0.00000000000E+00 -0.45593999997E+02  0.45594000000E+02  0.51100000000E-03 0. -1.
    9900012    2    1    2    0    0 -0.16315990782E+02  0.41595485980E+02  0.57199158723E+01  0.46142318223E+02  0.10000004213E+02 0.  0.
         12    1    1    2    0    0  0.16315990782E+02 -0.41595485980E+02 -0.57199158723E+01  0.45045681777E+02  0.00000000000E+00 0. -1.
         11    1    3    3    0    0  0.51791672580E+00  0.82513217903E+01  0.38469994329E+00  0.82765055022E+01  0.51100000000E-03 0. -1.
        -11    1    3    3    0    0 -0.12124589766E+02  0.21328258125E+02  0.25776305710E+01  0.24668693748E+02  0.51100000000E-03 0.  1.
         12    1    3    3    0    0 -0.47093177421E+01  0.12015906065E+02  0.27575853580E+01  0.13197118972E+02  0.00000000000E+00 0. -1.
</event>
<event>
 7    1  0.2478637E-008  0.4614232E+02  0.7816164E-02  0.1320468E+00
        -11   -1    0    0    0    0  0.00000000000E+00  0.00000000000E+00  0.45593999997E+02  0.45594000000E+02  0.51100000000E-03 0.  1.
         11   -1    0    0    0    0 -0.00000000000E+00 -0.00000000000E+00 -0.45593999997E+02  0.45594000000E+02  0.51100000000E-03 0. -1.
    9900012    2    1    2    0    0  0.96402623094E-01 -0.28291208587E+02  0.35052983788E+02  0.46142318196E+02  0.10000003962E+02 0.  0.
         12    1    1    2    0    0 -0.96402623094E-01  0.28291208587E+02 -0.35052983788E+02  0.45045681804E+02  0.00000000000E+00 0. -1.
         11    1    3    3    0    0 -0.44058605830E+00 -0.72768045405E+01  0.94261811593E+01  0.11916328793E+02  0.51100000000E-03 0.  1.
        -11    1    3    3    0    0 -0.30895374999E+01 -0.16529619127E+02  0.20449259425E+02  0.26475380295E+02  0.51100000000E-03 0. -1.
         12    1    3    3    0    0  0.36265261813E+01 -0.44847849198E+01  0.51775432034E+01  0.77506091079E+01  0.00000000000E+00 0. -1.
</event>
<event>
 7    1  0.2478637E-008  0.4614232E+02  0.7816164E-02  0.1320468E+00
        -11   -1    0    0    0    0  0.00000000000E+00  0.00000000000E+00  0.45593999997E+02  0.45594000000E+02  0.51100000000E-03 0. -1.
         11   -1    0    0    0    0 -0.00000000000E+00 -0.00000000000E+00 -0.45593999997E+02  0.45594000000E+02  0.51100000000E-03 0.  1.
    9900012    2    1    2    0    0 -0.68248742927E+01 -0.15624265036E+02 -0.41694326653E+02  0.46142318275E+02  0.10000004683E+02 0.  0.
         12    1    1    2    0    0  0.68248742927E+01  0.15624265036E+02  0.41694326653E+02  0.45045681725E+02  0.00000000000E+00 0. -1.
         11    1    3    3    0    0  0.34738075903E+00 -0.29860809825E+01 -0.37448921317E+01  0.48022463874E+01  0.51100000000E-03 0. -1.
        -11    1    3    3    0    0 -0.77512161454E+00 -0.89960132108E+01 -0.20359525734E+02  0.22271940993E+02  0.51100000000E-03 0.  1.
        -12    1    3    3    0    0 -0.63971334372E+01 -0.36421708430E+01 -0.17589908788E+02  0.19068130895E+02  0.00000000000E+00 0.  1.
</event>
<event>
 7    1  0.2588686E-008  0.4614232E+02  0.7816164E-02  0.1320468E+00
        -11   -1    0    0    0    0  0.00000000000E+00  0.00000000000E+00  0.45593999997E+02  0.45594000000E+02  0.51100000000E-03 0. -1.
         11   -1    0    0    0    0 -0.00000000000E+00 -0.00000000000E+00 -0.45593999997E+02  0.45594000000E+02  0.51100000000E-03 0.  1.
    9900012    2    1    2    0    0 -0.11018319574E+02 -0.28405808602E+02 -0.33178610075E+02  0.46142317686E+02  0.99999993195E+01 0.  0.
         12    1    1    2    0    0  0.11018319574E+02  0.28405808602E+02  0.33178610075E+02  0.45045682314E+02  0.00000000000E+00 0. -1.
         11    1    3    3    0    0 -0.55519851316E+00 -0.16788249512E+00  0.46997893567E-01  0.58192695787E+00  0.51100000000E-03 0. -1.
        -11    1    3    3    0    0 -0.10298732310E+02 -0.17290950784E+02 -0.23230231791E+02  0.30735720840E+02  0.51100000000E-03 0.  1.
        -12    1    3    3    0    0 -0.16438875131E+00 -0.10946975324E+02 -0.99953761770E+01  0.14824669889E+02  0.00000000000E+00 0.  1.
</event>
<event>
 7    1  0.2478637E-008  0.4614232E+02  0.7816164E-02  0.1320468E+00
        -11   -1    0    0    0    0  0.00000000000E+00  0.00000000000E+00  0.45593999997E+02  0.45594000000E+02  0.51100000000E-03 0.  1.
         11   -1    0    0    0    0 -0.00000000000E+00 -0.00000000000E+00 -0.45593999997E+02  0.45594000000E+02  0.51100000000E-03 0. -1.
    9900012    2    1    2    0    0 -0.56973165741E+01 -0.75779098799E+01  0.44036681906E+02  0.46142317770E+02  0.10000000083E+02 0.  0.
         12    1    1    2    0    0  0.56973165741E+01  0.75779098799E+01 -0.44036681906E+02  0.45045682230E+02  0.00000000000E+00 0. -1.
         11    1    3    3    0    0 -0.20205536764E+01  0.28283877668E+00  0.20728852218E+02  0.20829017007E+02  0.51100000000E-03 0.  1.
        -11    1    3    3    0    0 -0.94399579491E+00  0.46467116730E+00  0.34800445814E+01  0.36356234547E+01  0.51100000000E-03 0. -1.
         12    1    3    3    0    0 -0.27327671028E+01 -0.83254198239E+01  0.19827785106E+02  0.21677677308E+02  0.00000000000E+00 0. -1.
</event>
<event>
 7    1  0.2478637E-008  0.4614232E+02  0.7816164E-02  0.1320468E+00
        -11   -1    0    0    0    0  0.00000000000E+00  0.00000000000E+00  0.45593999997E+02  0.45594000000E+02  0.51100000000E-03 0. -1.
         11   -1    0    0    0    0 -0.00000000000E+00 -0.00000000000E+00 -0.45593999997E+02  0.45594000000E+02  0.51100000000E-03 0.  1.
    9900012    2    1    2    0    0 -0.44124138506E+02 -0.26979457958E+01 -0.86541916629E+01  0.46142317146E+02  0.99999943936E+01 0.  0.
         12    1    1    2    0    0  0.44124138506E+02  0.26979457958E+01  0.86541916629E+01  0.45045682854E+02  0.00000000000E+00 0. -1.
         11    1    3    3    0    0 -0.74318127986E+01  0.11696126839E+01 -0.36189457498E+01  0.83484491916E+01  0.51100000000E-03 0. -1.
        -11    1    3    3    0    0 -0.32852738534E+02 -0.15301922407E+01 -0.51941053310E+01  0.33295985463E+02  0.51100000000E-03 0.  1.
         12    1    3    3    0    0 -0.38395871735E+01 -0.23373662390E+01  0.15885941787E+00  0.44978824921E+01  0.00000000000E+00 0. -1.
</event>
<event>
 7    1  0.2478637E-008  0.4614232E+02  0.7816164E-02  0.1320468E+00
        -11   -1    0    0    0    0  0.00000000000E+00  0.00000000000E+00  0.45593999997E+02  0.45594000000E+02  0.51100000000E-03 0.  1.
         11   -1    0    0    0    0 -0.00000000000E+00 -0.00000000000E+00 -0.45593999997E+02  0.45594000000E+02  0.51100000000E-03 0. -1.
    9900012    2    1    2    0    0 -0.99172916938E+00  0.78363473594E+01  0.44347734974E+02  0.46142318032E+02  0.10000002466E+02 0.  0.
         12    1    1    2    0    0  0.99172916938E+00 -0.78363473594E+01 -0.44347734974E+02  0.45045681968E+02  0.00000000000E+00 0. -1.
         11    1    3    3    0    0  0.15691018873E+01  0.14788866283E+01  0.58206360898E+01  0.62071725563E+01  0.51100000000E-03 0. -1.
        -11    1    3    3    0    0  0.13940518494E+01  0.44493574269E+01  0.95524843978E+01  0.10629681110E+02  0.51100000000E-03 0.  1.
        -12    1    3    3    0    0 -0.39548829062E+01  0.19081033042E+01  0.28974614486E+02  0.29305464365E+02  0.00000000000E+00 0.  1.
</event>
<event>
 7    1  0.2478637E-008  0.4614232E+02  0.7816164E-02  0.1320468E+00
        -11   -1    0    0    0    0  0.00000000000E+00  0.00000000000E+00  0.45593999997E+02  0.45594000000E+02  0.51100000000E-03 0. -1.
         11   -1    0    0    0    0 -0.00000000000E+00 -0.00000000000E+00 -0.45593999997E+02  0.45594000000E+02  0.51100000000E-03 0.  1.
    9900012    2    1    2    0    0  0.18513157387E+02  0.42248310619E+01 -0.40847609192E+02  0.46142319068E+02  0.10000011918E+02 0.  0.
         12    1    1    2    0    0 -0.18513157387E+02 -0.42248310619E+01  0.40847609192E+02  0.45045680932E+02  0.00000000000E+00 0. -1.
         11    1    3    3    0    0  0.72826554092E+01 -0.99427005375E+00 -0.10932238804E+02  0.13173438742E+02  0.51100000000E-03 0. -1.
        -11    1    3    3    0    0  0.42604703030E+01  0.51435784114E+00 -0.45890468161E+01  0.62829548887E+01  0.51100000000E-03 0.  1.
        -12    1    3    3    0    0  0.69700316749E+01  0.47047432746E+01 -0.25326323571E+02  0.26685925438E+02  0.00000000000E+00 0.  1.
</event>
<event>
 7    1  0.2478637E-008  0.4614232E+02  0.7816164E-02  0.1320468E+00
        -11   -1    0    0    0    0  0.00000000000E+00  0.00000000000E+00  0.45593999997E+02  0.45594000000E+02  0.51100000000E-03 0.  1.
         11   -1    0    0    0    0 -0.00000000000E+00 -0.00000000000E+00 -0.45593999997E+02  0.45594000000E+02  0.51100000000E-03 0. -1.
    9900012    2    1    2    0    0 -0.38807943750E+02  0.20584457336E+02  0.99667971265E+01  0.46142318443E+02  0.10000006222E+02 0.  0.
         12    1    1    2    0    0  0.38807943750E+02 -0.20584457336E+02 -0.99667971265E+01  0.45045681557E+02  0.00000000000E+00 0. -1.
         11    1    3    3    0    0 -0.18808927318E+02  0.13481486749E+02  0.48838701526E+01  0.23651182206E+02  0.51100000000E-03 0. -1.
        -11    1    3    3    0    0 -0.78700793948E+01  0.15388877651E+01 -0.48059678344E+00  0.80335109860E+01  0.51100000000E-03 0.  1.
         12    1    3    3    0    0 -0.12128937038E+02  0.55640828217E+01  0.55635237573E+01  0.14457625251E+02  0.00000000000E+00 0. -1.
</event>
<event>
 7    1  0.2478637E-008  0.4614232E+02  0.7816164E-02  0.1320468E+00
        -11   -1    0    0    0    0  0.00000000000E+00  0.00000000000E+00  0.45593999997E+02  0.45594000000E+02  0.51100000000E-03 0.  1.
         11   -1    0    0    0    0 -0.00000000000E+00 -0.00000000000E+00 -0.45593999997E+02  0.45594000000E+02  0.51100000000E-03 0. -1.
    9900012    2    1    2    0    0 -0.35208610599E+02  0.23398808731E+02  0.15555165676E+02  0.46142315528E+02  0.99999796386E+01 0.  0.
         12    1    1    2    0    0  0.35208610599E+02 -0.23398808731E+02 -0.15555165676E+02  0.45045684472E+02  0.00000000000E+00 0. -1.
         11    1    3    3    0    0 -0.22540859013E+01  0.32170463909E+01 -0.42659486963E+00  0.39512370437E+01  0.51100000000E-03 0. -1.
        -11    1    3    3    0    0  0.19364879236E+00  0.34757168600E+00  0.33079958397E-01  0.39924989225E+00  0.51100000000E-03 0.  1.
        -12    1    3    3    0    0 -0.33148173490E+02  0.19834190654E+02  0.15948680587E+02  0.41791828592E+02  0.00000000000E+00 0.  1.
</event>
<event>
 7    1  0.2478637E-008  0.4614232E+02  0.7816164E-02  0.1320468E+00
        -11   -1    0    0    0    0  0.00000000000E+00  0.00000000000E+00  0.45593999997E+02  0.45594000000E+02  0.51100000000E-03 0.  1.
         11   -1    0    0    0    0 -0.00000000000E+00 -0.00000000000E+00 -0.45593999997E+02  0.45594000000E+02  0.51100000000E-03 0. -1.
    9900012    2    1    2    0    0  0.34900228231E+02 -0.78647688100E+01  0.27372119355E+02  0.46142318332E+02  0.10000005204E+02 0.  0.
         12    1    1    2    0    0 -0.34900228231E+02  0.78647688100E+01 -0.27372119355E+02  0.45045681668E+02  0.00000000000E+00 0. -1.
         11    1    3    3    0    0  0.10718160697E+02 -0.61489277375E+01  0.76137451992E+01  0.14514041383E+02  0.51100000000E-03 0. -1.
        -11    1    3    3    0    0  0.14636293257E+02 -0.14229368991E+01  0.89925080875E+01  0.17236908995E+02  0.51100000000E-03 0.  1.
        -12    1    3    3    0    0  0.95457742767E+01 -0.29290417340E+00  0.10765866068E+02  0.14391367954E+02  0.00000000000E+00 0.  1.
</event>
<event>
 7    1  0.2478637E-008  0.4614232E+02  0.7816164E-02  0.1320468E+00
        -11   -1    0    0    0    0  0.00000000000E+00  0.00000000000E+00  0.45593999997E+02  0.45594000000E+02  0.51100000000E-03 0. -1.
         11   -1    0    0    0    0 -0.00000000000E+00 -0.00000000000E+00 -0.45593999997E+02  0.45594000000E+02  0.51100000000E-03 0.  1.
    9900012    2    1    2    0    0  0.31018461115E+02  0.17701623813E+02 -0.27452163205E+02  0.46142315632E+02  0.99999805857E+01 0.  0.
         12    1    1    2    0    0 -0.31018461115E+02 -0.17701623813E+02  0.27452163205E+02  0.45045684368E+02  0.00000000000E+00 0. -1.
         11    1    3    3    0    0  0.15403927349E+01  0.35676466976E+01 -0.33162042873E+01  0.51086322898E+01  0.51100000000E-03 0. -1.
        -11    1    3    3    0    0  0.68062396484E+01  0.60723180252E+01 -0.65026815920E+01  0.11201911109E+02  0.51100000000E-03 0.  1.
        -12    1    3    3    0    0  0.22671828732E+02  0.80616590898E+01 -0.17633277326E+02  0.29831772233E+02  0.00000000000E+00 0.  1.
</event>
<event>
 7    1  0.2478637E-008  0.4614232E+02  0.7816164E-02  0.1320468E+00
        -11   -1    0    0    0    0  0.00000000000E+00  0.00000000000E+00  0.45593999997E+02  0.45594000000E+02  0.51100000000E-03 0. -1.
         11   -1    0    0    0    0 -0.00000000000E+00 -0.00000000000E+00 -0.45593999997E+02  0.45594000000E+02  0.51100000000E-03 0.  1.
    9900012    2    1    2    0    0 -0.31901916548E+02 -0.28628513327E+02 -0.13848804207E+02  0.46142318379E+02  0.10000005630E+02 0.  0.
         12    1    1    2    0    0  0.31901916548E+02  0.28628513327E+02  0.13848804207E+02  0.45045681621E+02  0.00000000000E+00 0. -1.
         11    1    3    3    0    0 -0.47100940361E+01 -0.83224328626E+01 -0.11705002450E+01  0.96342070595E+01  0.51100000000E-03 0. -1.
        -11    1    3    3    0    0 -0.13599580686E+02 -0.79693727173E+01 -0.73664816244E+01  0.17398981238E+02  0.51100000000E-03 0.  1.
         12    1    3    3    0    0 -0.13592241827E+02 -0.12336707747E+02 -0.53118223380E+01  0.19109130081E+02  0.00000000000E+00 0. -1.
</event>
<event>
 7    1  0.2478637E-008  0.4614231E+02  0.7816164E-02  0.1320468E+00
        -11   -1    0    0    0    0  0.00000000000E+00  0.00000000000E+00  0.45593999997E+02  0.45594000000E+02  0.51100000000E-03 0.  1.
         11   -1    0    0    0    0 -0.00000000000E+00 -0.00000000000E+00 -0.45593999997E+02  0.45594000000E+02  0.51100000000E-03 0. -1.
    9900012    2    1    2    0    0  0.38871231367E+00  0.10797203364E+01  0.45031066380E+02  0.46142313941E+02  0.99999651626E+01 0.  0.
         12    1    1    2    0    0 -0.38871231367E+00 -0.10797203364E+01 -0.45031066380E+02  0.45045686059E+02  0.00000000000E+00 0. -1.
         11    1    3    3    0    0  0.22107150740E+01  0.23057950532E+01  0.26631799707E+02  0.26822690169E+02  0.51100000000E-03 0. -1.
        -11    1    3    3    0    0 -0.54993888373E+00 -0.50696826342E+00  0.17671225333E+02  0.17687047652E+02  0.51100000000E-03 0.  1.
         12    1    3    3    0    0 -0.12720638766E+01 -0.71910645342E+00  0.72804133899E+00  0.16325761204E+01  0.00000000000E+00 0. -1.
</event>
<event>
 7    1  0.2478637E-008  0.4614232E+02  0.7816164E-02  0.1320468E+00
        -11   -1    0    0    0    0  0.00000000000E+00  0.00000000000E+00  0.45593999997E+02  0.45594000000E+02  0.51100000000E-03 0.  1.
         11   -1    0    0    0    0 -0.00000000000E+00 -0.00000000000E+00 -0.45593999997E+02  0.45594000000E+02  0.51100000000E-03 0. -1.
    9900012    2    1    2    0    0  0.17111857733E+01 -0.35537083650E+02  0.27627903359E+02  0.46142317464E+02  0.99999972894E+01 0.  0.
         12    1    1    2    0    0 -0.17111857733E+01  0.35537083650E+02 -0.27627903359E+02  0.45045682536E+02  0.00000000000E+00 0. -1.
         11    1    3    3    0    0  0.17558160593E+01 -0.52632210224E+01  0.30042952614E+01  0.63095305565E+01  0.51100000000E-03 0. -1.
        -11    1    3    3    0    0 -0.29923214570E+01 -0.16592464021E+02  0.10054069438E+02  0.19630286868E+02  0.51100000000E-03 0.  1.
        -12    1    3    3    0    0  0.29476911709E+01 -0.13681398606E+02  0.14569538660E+02  0.20202500039E+02  0.00000000000E+00 0.  1.
</event>
<event>
 7    1  0.2478637E-008  0.4614232E+02  0.7816164E-02  0.1320468E+00
        -11   -1    0    0    0    0  0.00000000000E+00  0.00000000000E+00  0.45593999997E+02  0.45594000000E+02  0.51100000000E-03 0. -1.
         11   -1    0    0    0    0 -0.00000000000E+00 -0.00000000000E+00 -0.45593999997E+02  0.45594000000E+02  0.51100000000E-03 0.  1.
    9900012    2    1    2    0    0 -0.13633286978E+02  0.75498170075E+01 -0.42264017942E+02  0.46142318040E+02  0.10000002539E+02 0.  0.
         12    1    1    2    0    0  0.13633286978E+02 -0.75498170075E+01  0.42264017942E+02  0.45045681960E+02  0.00000000000E+00 0. -1.
         11    1    3    3    0    0  0.27581677214E+00 -0.36289897581E+00  0.47993067734E-01  0.45833847112E+00  0.51100000000E-03 0. -1.
        -11    1    3    3    0    0 -0.12191659217E+02  0.89419467315E+01 -0.35544699263E+02  0.38626682640E+02  0.51100000000E-03 0.  1.
        -12    1    3    3    0    0 -0.17174445327E+01 -0.10292307481E+01 -0.67673117467E+01  0.70572969282E+01  0.00000000000E+00 0.  1.
</event>
<event>
 7    1  0.2478637E-008  0.4614232E+02  0.7816164E-02  0.1320468E+00
        -11   -1    0    0    0    0  0.00000000000E+00  0.00000000000E+00  0.45593999997E+02  0.45594000000E+02  0.51100000000E-03 0.  1.
         11   -1    0    0    0    0 -0.00000000000E+00 -0.00000000000E+00 -0.45593999997E+02  0.45594000000E+02  0.51100000000E-03 0. -1.
    9900012    2    1    2    0    0  0.27387657953E+02  0.12478597003E+02  0.33515880758E+02  0.46142318139E+02  0.10000003443E+02 0.  0.
         12    1    1    2    0    0 -0.27387657953E+02 -0.12478597003E+02 -0.33515880758E+02  0.45045681861E+02  0.00000000000E+00 0. -1.
         11    1    3    3    0    0  0.43547035063E+01 -0.67913372141E-01  0.37040938419E+01  0.57173740742E+01  0.51100000000E-03 0. -1.
        -11    1    3    3    0    0  0.86833810871E+01  0.44511651666E+01  0.59529022726E+01  0.11430267896E+02  0.51100000000E-03 0.  1.
         12    1    3    3    0    0  0.14349573360E+02  0.80953452089E+01  0.23858884644E+02  0.28994676169E+02  0.00000000000E+00 0. -1.
</event>
<event>
 7    1  0.2478637E-008  0.4614232E+02  0.7816164E-02  0.1320468E+00
        -11   -1    0    0    0    0  0.00000000000E+00  0.00000000000E+00  0.45593999997E+02  0.45594000000E+02  0.51100000000E-03 0. -1.
         11   -1    0    0    0    0 -0.00000000000E+00 -0.00000000000E+00 -0.45593999997E+02  0.45594000000E+02  0.51100000000E-03 0.  1.
    9900012    2    1    2    0    0 -0.56940006175E+01  0.18918907040E+02 -0.40481686673E+02  0.46142316050E+02  0.99999843976E+01 0.  0.
         12    1    1    2    0    0  0.56940006175E+01 -0.18918907040E+02  0.40481686673E+02  0.45045683950E+02  0.00000000000E+00 0. -1.
         11    1    3    3    0    0 -0.41139181844E+01  0.20055779249E+01 -0.88037125064E+01  0.99222991185E+01  0.51100000000E-03 0. -1.
        -11    1    3    3    0    0  0.73833151521E-01  0.14682445578E+01 -0.62694283547E+01  0.64394817782E+01  0.51100000000E-03 0.  1.
         12    1    3    3    0    0 -0.16539155847E+01  0.15445084557E+02 -0.25408545812E+02  0.29780535153E+02  0.00000000000E+00 0. -1.
</event>
<event>
 7    1  0.2478637E-008  0.4614232E+02  0.7816164E-02  0.1320468E+00
        -11   -1    0    0    0    0  0.00000000000E+00  0.00000000000E+00  0.45593999997E+02  0.45594000000E+02  0.51100000000E-03 0. -1.
         11   -1    0    0    0    0 -0.00000000000E+00 -0.00000000000E+00 -0.45593999997E+02  0.45594000000E+02  0.51100000000E-03 0.  1.
    9900012    2    1    2    0    0  0.21685806045E+02 -0.20731318716E+02 -0.33601364624E+02  0.46142318030E+02  0.10000002456E+02 0.  0.
         12    1    1    2    0    0 -0.21685806045E+02  0.20731318716E+02  0.33601364624E+02  0.45045681970E+02  0.00000000000E+00 0. -1.
         11    1    3    3    0    0  0.10295386298E+02 -0.91957694535E+01 -0.12163866056E+02  0.18398825847E+02  0.51100000000E-03 0. -1.
        -11    1    3    3    0    0  0.74110107011E+01 -0.11346241308E+02 -0.15446938191E+02  0.20549164732E+02  0.51100000000E-03 0.  1.
         12    1    3    3    0    0  0.39794090452E+01 -0.18930795459E+00 -0.59905603765E+01  0.71943274512E+01  0.00000000000E+00 0. -1.
</event>
<event>
 7    1  0.2478637E-008  0.4614232E+02  0.7816164E-02  0.1320468E+00
        -11   -1    0    0    0    0  0.00000000000E+00  0.00000000000E+00  0.45593999997E+02  0.45594000000E+02  0.51100000000E-03 0.  1.
         11   -1    0    0    0    0 -0.00000000000E+00 -0.00000000000E+00 -0.45593999997E+02  0.45594000000E+02  0.51100000000E-03 0. -1.
    9900012    2    1    2    0    0  0.23483380013E+02 -0.15754764749E+02  0.35063253805E+02  0.46142317448E+02  0.99999971479E+01 0.  0.
         12    1    1    2    0    0 -0.23483380013E+02  0.15754764749E+02 -0.35063253805E+02  0.45045682552E+02  0.00000000000E+00 0. -1.
         11    1    3    3    0    0  0.84563777723E+01 -0.14260706865E+01  0.14618444852E+02  0.16948242763E+02  0.51100000000E-03 0. -1.
        -11    1    3    3    0    0  0.61805640609E+01 -0.49236679016E+01  0.70583549319E+01  0.10595388257E+02  0.51100000000E-03 0.  1.
         12    1    3    3    0    0  0.88464381797E+01 -0.94050261607E+01  0.13386454022E+02  0.18598686428E+02  0.00000000000E+00 0. -1.
</event>
<event>
 7    1  0.2478637E-008  0.4614232E+02  0.7816164E-02  0.1320468E+00
        -11   -1    0    0    0    0  0.00000000000E+00  0.00000000000E+00  0.45593999997E+02  0.45594000000E+02  0.51100000000E-03 0.  1.
         11   -1    0    0    0    0 -0.00000000000E+00 -0.00000000000E+00 -0.45593999997E+02  0.45594000000E+02  0.51100000000E-03 0. -1.
    9900012    2    1    2    0    0  0.32277164997E+02  0.62630276221E+01  0.30790785539E+02  0.46142319082E+02  0.10000012048E+02 0.  0.
         12    1    1    2    0    0 -0.32277164997E+02 -0.62630276221E+01 -0.30790785539E+02  0.45045680918E+02  0.00000000000E+00 0. -1.
         11    1    3    3    0    0  0.18164805147E+02  0.47792523669E+01  0.22810451486E+02  0.29548571818E+02  0.51100000000E-03 0.  1.
        -11    1    3    3    0    0  0.62255741198E+00  0.77312076789E+00  0.22673328114E+00  0.10181854914E+01  0.51100000000E-03 0. -1.
        -12    1    3    3    0    0  0.13489802438E+02  0.71065448729E+00  0.77536007712E+01  0.15575561773E+02  0.00000000000E+00 0.  1.
</event>
<event>
 7    1  0.2478637E-008  0.4614232E+02  0.7816164E-02  0.1320468E+00
        -11   -1    0    0    0    0  0.00000000000E+00  0.00000000000E+00  0.45593999997E+02  0.45594000000E+02  0.51100000000E-03 0.  1.
         11   -1    0    0    0    0 -0.00000000000E+00 -0.00000000000E+00 -0.45593999997E+02  0.45594000000E+02  0.51100000000E-03 0. -1.
    9900012    2    1    2    0    0 -0.13782171018E+02 -0.33796789158E+02  0.26399665041E+02  0.46142317525E+02  0.99999978511E+01 0.  0.
         12    1    1    2    0    0  0.13782171018E+02  0.33796789158E+02 -0.26399665041E+02  0.45045682475E+02  0.00000000000E+00 0. -1.
         11    1    3    3    0    0 -0.13571216685E+01 -0.41576462609E+00  0.13565655276E+01  0.19633924058E+01  0.51100000000E-03 0. -1.
        -11    1    3    3    0    0 -0.10362430301E+02 -0.19916669048E+02  0.18380062035E+02  0.29015174450E+02  0.51100000000E-03 0.  1.
        -12    1    3    3    0    0 -0.20626190486E+01 -0.13464355483E+02  0.66630374779E+01  0.15163750669E+02  0.00000000000E+00 0.  1.
</event>
<event>
 7    1  0.2478637E-008  0.4614232E+02  0.7816164E-02  0.1320468E+00
        -11   -1    0    0    0    0  0.00000000000E+00  0.00000000000E+00  0.45593999997E+02  0.45594000000E+02  0.51100000000E-03 0. -1.
         11   -1    0    0    0    0 -0.00000000000E+00 -0.00000000000E+00 -0.45593999997E+02  0.45594000000E+02  0.51100000000E-03 0.  1.
    9900012    2    1    2    0    0 -0.30739535337E+02 -0.32146484577E+02 -0.71272718630E+01  0.46142317548E+02  0.99999980524E+01 0.  0.
         12    1    1    2    0    0  0.30739535337E+02  0.32146484577E+02  0.71272718630E+01  0.45045682452E+02  0.00000000000E+00 0. -1.
         11    1    3    3    0    0 -0.88395338715E+01 -0.80558836645E+01 -0.32543909390E+01  0.12394582741E+02  0.51100000000E-03 0. -1.
        -11    1    3    3    0    0 -0.17786658354E+02 -0.15405099399E+02 -0.50481050068E+01  0.24065861034E+02  0.51100000000E-03 0.  1.
         12    1    3    3    0    0 -0.41133431114E+01 -0.86855015135E+01  0.11752240828E+01  0.96818737720E+01  0.00000000000E+00 0. -1.
</event>
<event>
 7    1  0.2478637E-008  0.4614232E+02  0.7816164E-02  0.1320468E+00
        -11   -1    0    0    0    0  0.00000000000E+00  0.00000000000E+00  0.45593999997E+02  0.45594000000E+02  0.51100000000E-03 0.  1.
         11   -1    0    0    0    0 -0.00000000000E+00 -0.00000000000E+00 -0.45593999997E+02  0.45594000000E+02  0.51100000000E-03 0. -1.
    9900012    2    1    2    0    0 -0.35204440007E+02 -0.17065679966E+02  0.22327638713E+02  0.46142317861E+02  0.10000000906E+02 0.  0.
         12    1    1    2    0    0  0.35204440007E+02  0.17065679966E+02 -0.22327638713E+02  0.45045682139E+02  0.00000000000E+00 0. -1.
         11    1    3    3    0    0 -0.91073207705E+00 -0.46948538643E+00 -0.57254519184E+00  0.11737366408E+01  0.51100000000E-03 0. -1.
        -11    1    3    3    0    0 -0.96712529886E+01 -0.57237254946E+01  0.10320079986E+02  0.15257726537E+02  0.51100000000E-03 0.  1.
        -12    1    3    3    0    0 -0.24622454941E+02 -0.10872469084E+02  0.12580103919E+02  0.29710854682E+02  0.00000000000E+00 0.  1.
</event>
<event>
 7    1  0.2478637E-008  0.4614232E+02  0.7816164E-02  0.1320468E+00
        -11   -1    0    0    0    0  0.00000000000E+00  0.00000000000E+00  0.45593999997E+02  0.45594000000E+02  0.51100000000E-03 0. -1.
         11   -1    0    0    0    0 -0.00000000000E+00 -0.00000000000E+00 -0.45593999997E+02  0.45594000000E+02  0.51100000000E-03 0.  1.
    9900012    2    1    2    0    0  0.35777629422E+02 -0.94000672237E+01 -0.25704347274E+02  0.46142317635E+02  0.99999988546E+01 0.  0.
         12    1    1    2    0    0 -0.35777629422E+02  0.94000672237E+01  0.25704347274E+02  0.45045682365E+02  0.00000000000E+00 0. -1.
         11    1    3    3    0    0  0.18220899825E+02 -0.89384609396E+01 -0.11350628967E+02  0.23253689010E+02  0.51100000000E-03 0.  1.
        -11    1    3    3    0    0  0.15565434465E+01 -0.86538386835E+00 -0.98885705059E+00  0.20370457207E+01  0.51100000000E-03 0. -1.
        -12    1    3    3    0    0  0.16000186151E+02  0.40377758427E+00 -0.13364861256E+02  0.20851582904E+02  0.00000000000E+00 0.  1.
</event>
<event>
 7    1  0.2478637E-008  0.4614232E+02  0.7816164E-02  0.1320468E+00
        -11   -1    0    0    0    0  0.00000000000E+00  0.00000000000E+00  0.45593999997E+02  0.45594000000E+02  0.51100000000E-03 0. -1.
         11   -1    0    0    0    0 -0.00000000000E+00 -0.00000000000E+00 -0.45593999997E+02  0.45594000000E+02  0.51100000000E-03 0.  1.
    9900012    2    1    2    0    0 -0.11054816176E+02  0.40888418703E+02  0.15331072690E+02  0.46142317249E+02  0.99999953273E+01 0.  0.
         12    1    1    2    0    0  0.11054816176E+02 -0.40888418703E+02 -0.15331072690E+02  0.45045682751E+02  0.00000000000E+00 0. -1.
         11    1    3    3    0    0 -0.32107273325E+01  0.73942979642E+01  0.58144790039E+00  0.80822332502E+01  0.51100000000E-03 0. -1.
        -11    1    3    3    0    0 -0.42977660306E+01  0.29201915234E+02  0.12272356161E+02  0.31966128514E+02  0.51100000000E-03 0.  1.
        -12    1    3    3    0    0 -0.35463228126E+01  0.42922055047E+01  0.24772686286E+01  0.60939554842E+01  0.00000000000E+00 0.  1.
</event>
<event>
 7    1  0.2478637E-008  0.4614232E+02  0.7816164E-02  0.1320468E+00
        -11   -1    0    0    0    0  0.00000000000E+00  0.00000000000E+00  0.45593999997E+02  0.45594000000E+02  0.51100000000E-03 0.  1.
         11   -1    0    0    0    0 -0.00000000000E+00 -0.00000000000E+00 -0.45593999997E+02  0.45594000000E+02  0.51100000000E-03 0. -1.
    9900012    2    1    2    0    0 -0.28847550561E+02  0.29991272256E+02  0.17246909885E+02  0.46142317792E+02  0.10000000286E+02 0.  0.
         12    1    1    2    0    0  0.28847550561E+02 -0.29991272256E+02 -0.17246909885E+02  0.45045682208E+02  0.00000000000E+00 0. -1.
         11    1    3    3    0    0 -0.60539784131E+00  0.37189771951E+01  0.18363231004E+01  0.41915845112E+01  0.51100000000E-03 0. -1.
        -11    1    3    3    0    0 -0.15326949720E+02  0.18148113548E+02  0.97223681925E+01  0.25666979889E+02  0.51100000000E-03 0.  1.
        -12    1    3    3    0    0 -0.12915203000E+02  0.81241815130E+01  0.56882185923E+01  0.16283753393E+02  0.00000000000E+00 0.  1.
</event>
<event>
 7    1  0.2478637E-008  0.4614232E+02  0.7816164E-02  0.1320468E+00
        -11   -1    0    0    0    0  0.00000000000E+00  0.00000000000E+00  0.45593999997E+02  0.45594000000E+02  0.51100000000E-03 0.  1.
         11   -1    0    0    0    0 -0.00000000000E+00 -0.00000000000E+00 -0.45593999997E+02  0.45594000000E+02  0.51100000000E-03 0. -1.
    9900012    2    1    2    0    0 -0.37916010976E+02  0.22104142933E+02 -0.10143778402E+02  0.46142320258E+02  0.10000022768E+02 0.  0.
         12    1    1    2    0    0  0.37916010976E+02 -0.22104142933E+02  0.10143778402E+02  0.45045679742E+02  0.00000000000E+00 0. -1.
         11    1    3    3    0    0 -0.18885730157E+02  0.98652153691E+01 -0.97340730109E+01  0.23425316550E+02  0.51100000000E-03 0. -1.
        -11    1    3    3    0    0 -0.82095722045E+01  0.51133344936E+01 -0.11489480793E+01  0.97397816903E+01  0.51100000000E-03 0.  1.
         12    1    3    3    0    0 -0.10820708615E+02  0.71255930706E+01  0.73924268859E+00  0.12977222017E+02  0.00000000000E+00 0. -1.
</event>
<event>
 7    1  0.2478637E-008  0.4614231E+02  0.7816164E-02  0.1320468E+00
        -11   -1    0    0    0    0  0.00000000000E+00  0.00000000000E+00  0.45593999997E+02  0.45594000000E+02  0.51100000000E-03 0.  1.
         11   -1    0    0    0    0 -0.00000000000E+00 -0.00000000000E+00 -0.45593999997E+02  0.45594000000E+02  0.51100000000E-03 0. -1.
    9900012    2    1    2    0    0  0.25128818531E+02  0.23865528760E+02  0.28776601387E+02  0.46142314622E+02  0.99999713774E+01 0.  0.
         12    1    1    2    0    0 -0.25128818531E+02 -0.23865528760E+02 -0.28776601387E+02  0.45045685378E+02  0.00000000000E+00 0. -1.
         11    1    3    3    0    0  0.58730238632E+01  0.25592131311E+01  0.23396694508E+01  0.68202664573E+01  0.51100000000E-03 0. -1.
        -11    1    3    3    0    0  0.14011701023E+02  0.12460289764E+02  0.18397397888E+02  0.26268818700E+02  0.51100000000E-03 0.  1.
        -12    1    3    3    0    0  0.52440936442E+01  0.88460258652E+01  0.80395340484E+01  0.13053229465E+02  0.00000000000E+00 0.  1.
</event>
<event>
 7    1  0.2478637E-008  0.4614232E+02  0.7816164E-02  0.1320468E+00
        -11   -1    0    0    0    0  0.00000000000E+00  0.00000000000E+00  0.45593999997E+02  0.45594000000E+02  0.51100000000E-03 0.  1.
         11   -1    0    0    0    0 -0.00000000000E+00 -0.00000000000E+00 -0.45593999997E+02  0.45594000000E+02  0.51100000000E-03 0. -1.
    9900012    2    1    2    0    0  0.29826095664E+02 -0.70376074302E+01  0.33014990409E+02  0.46142317714E+02  0.99999995706E+01 0.  0.
         12    1    1    2    0    0 -0.29826095664E+02  0.70376074302E+01 -0.33014990409E+02  0.45045682286E+02  0.00000000000E+00 0. -1.
         11    1    3    3    0    0  0.97411604103E+00 -0.22728216922E+01  0.51803691194E+01  0.57402826568E+01  0.51100000000E-03 0. -1.
        -11    1    3    3    0    0  0.10333314967E+02 -0.19560232947E+01  0.90466152703E+01  0.13872442952E+02  0.51100000000E-03 0.  1.
         12    1    3    3    0    0  0.18518664655E+02 -0.28087624433E+01  0.18788006019E+02  0.26529592105E+02  0.00000000000E+00 0. -1.
</event>
<event>
 7    1  0.2478637E-008  0.4614232E+02  0.7816164E-02  0.1320468E+00
        -11   -1    0    0    0    0  0.00000000000E+00  0.00000000000E+00  0.45593999997E+02  0.45594000000E+02  0.51100000000E-03 0.  1.
         11   -1    0    0    0    0 -0.00000000000E+00 -0.00000000000E+00 -0.45593999997E+02  0.45594000000E+02  0.51100000000E-03 0. -1.
    9900012    2    1    2    0    0  0.32175136643E+02  0.25369633792E+02  0.18715124171E+02  0.46142316417E+02  0.99999877458E+01 0.  0.
         12    1    1    2    0    0 -0.32175136643E+02 -0.25369633792E+02 -0.18715124171E+02  0.45045683583E+02  0.00000000000E+00 0. -1.
         11    1    3    3    0    0 -0.67209577282E-01  0.55524746455E+00  0.16402259998E+01  0.17329623382E+01  0.51100000000E-03 0. -1.
        -11    1    3    3    0    0  0.14236050285E+02  0.13406504953E+02  0.64430047566E+01  0.20589118809E+02  0.51100000000E-03 0.  1.
         12    1    3    3    0    0  0.18006295935E+02  0.11407881374E+02  0.10631893415E+02  0.23820235270E+02  0.00000000000E+00 0. -1.
</event>
<event>
 7    1  0.2478637E-008  0.4614232E+02  0.7816164E-02  0.1320468E+00
        -11   -1    0    0    0    0  0.00000000000E+00  0.00000000000E+00  0.45593999997E+02  0.45594000000E+02  0.51100000000E-03 0.  1.
         11   -1    0    0    0    0 -0.00000000000E+00 -0.00000000000E+00 -0.45593999997E+02  0.45594000000E+02  0.51100000000E-03 0. -1.
    9900012    2    1    2    0    0 -0.11717503351E+01 -0.12884572236E+02  0.43147751682E+02  0.46142315681E+02  0.99999810323E+01 0.  0.
         12    1    1    2    0    0  0.11717503351E+01  0.12884572236E+02 -0.43147751682E+02  0.45045684319E+02  0.00000000000E+00 0. -1.
         11    1    3    3    0    0 -0.74484553084E+00  0.28341925621E+00  0.19903856964E+01  0.21440048557E+01  0.51100000000E-03 0. -1.
        -11    1    3    3    0    0 -0.36725498857E+01 -0.38883926543E+01  0.10196545392E+02  0.11514198117E+02  0.51100000000E-03 0.  1.
         12    1    3    3    0    0  0.32456450814E+01 -0.92795988377E+01  0.30960820594E+02  0.32484112708E+02  0.00000000000E+00 0. -1.
</event>
<event>
 7    1  0.2478637E-008  0.4614232E+02  0.7816164E-02  0.1320468E+00
        -11   -1    0    0    0    0  0.00000000000E+00  0.00000000000E+00  0.45593999997E+02  0.45594000000E+02  0.51100000000E-03 0. -1.
         11   -1    0    0    0    0 -0.00000000000E+00 -0.00000000000E+00 -0.45593999997E+02  0.45594000000E+02  0.51100000000E-03 0.  1.
    9900012    2    1    2    0    0  0.45012137380E+02 -0.44093504002E+00 -0.16812694960E+01  0.46142316496E+02  0.99999884621E+01 0.  0.
         12    1    1    2    0    0 -0.45012137380E+02  0.44093504002E+00  0.16812694960E+01  0.45045683504E+02  0.00000000000E+00 0. -1.
         11    1    3    3    0    0  0.15711366262E+02  0.20510423920E+01 -0.73419936288E+00  0.15861678778E+02  0.51100000000E-03 0. -1.
        -11    1    3    3    0    0  0.28294866702E+02 -0.28791717148E+01 -0.23196714737E+01  0.28535416371E+02  0.51100000000E-03 0.  1.
         12    1    3    3    0    0  0.10059044159E+01  0.38719428275E+00  0.13726013406E+01  0.17452213461E+01  0.00000000000E+00 0. -1.
</event>
<event>
 7    1  0.2478637E-008  0.4614233E+02  0.7816164E-02  0.1320468E+00
        -11   -1    0    0    0    0  0.00000000000E+00  0.00000000000E+00  0.45593999997E+02  0.45594000000E+02  0.51100000000E-03 0.  1.
         11   -1    0    0    0    0 -0.00000000000E+00 -0.00000000000E+00 -0.45593999997E+02  0.45594000000E+02  0.51100000000E-03 0. -1.
    9900012    2    1    2    0    0 -0.30764337011E+02  0.24601615234E+02  0.21850146106E+02  0.46142325527E+02  0.10000070816E+02 0.  0.
         12    1    1    2    0    0  0.30764337011E+02 -0.24601615234E+02 -0.21850146106E+02  0.45045674473E+02  0.00000000000E+00 0. -1.
         11    1    3    3    0    0 -0.11942991104E+02  0.12779432429E+02  0.60396210400E+01  0.18504754856E+02  0.51100000000E-03 0. -1.
        -11    1    3    3    0    0 -0.14732162403E+01  0.25564509680E+01  0.27108564127E+01  0.40068129971E+01  0.51100000000E-03 0.  1.
        -12    1    3    3    0    0 -0.17348129667E+02  0.92657318373E+01  0.13099668653E+02  0.23630757674E+02  0.00000000000E+00 0.  1.
</event>
<event>
 7    1  0.2478637E-008  0.4614232E+02  0.7816164E-02  0.1320468E+00
        -11   -1    0    0    0    0  0.00000000000E+00  0.00000000000E+00  0.45593999997E+02  0.45594000000E+02  0.51100000000E-03 0. -1.
         11   -1    0    0    0    0 -0.00000000000E+00 -0.00000000000E+00 -0.45593999997E+02  0.45594000000E+02  0.51100000000E-03 0.  1.
    9900012    2    1    2    0    0  0.28325516761E+02 -0.15522142417E+02 -0.31398116223E+02  0.46142317550E+02  0.99999980783E+01 0.  0.
         12    1    1    2    0    0 -0.28325516761E+02  0.15522142417E+02  0.31398116223E+02  0.45045682450E+02  0.00000000000E+00 0. -1.
         11    1    3    3    0    0  0.11657442507E+02 -0.20011128765E+01 -0.12635806152E+02  0.17307917723E+02  0.51100000000E-03 0. -1.
        -11    1    3    3    0    0  0.76088588630E+01 -0.76890383317E+01 -0.70066623807E+01  0.12888342083E+02  0.51100000000E-03 0.  1.
        -12    1    3    3    0    0  0.90592153909E+01 -0.58319912090E+01 -0.11755647691E+02  0.15946057744E+02  0.00000000000E+00 0.  1.
</event>
<event>
 7    1  0.2478637E-008  0.4614232E+02  0.7816164E-02  0.1320468E+00
        -11   -1    0    0    0    0  0.00000000000E+00  0.00000000000E+00  0.45593999997E+02  0.45594000000E+02  0.51100000000E-03 0.  1.
         11   -1    0    0    0    0 -0.00000000000E+00 -0.00000000000E+00 -0.45593999997E+02  0.45594000000E+02  0.51100000000E-03 0. -1.
    9900012    2    1    2    0    0  0.40242608814E+02 -0.18915722439E+02 -0.72000961367E+01  0.46142317588E+02  0.99999984247E+01 0.  0.
         12    1    1    2    0    0 -0.40242608814E+02  0.18915722439E+02  0.72000961367E+01  0.45045682412E+02  0.00000000000E+00 0. -1.
         11    1    3    3    0    0  0.16537834237E+02 -0.45066378625E+01 -0.22050126187E+01  0.17282124493E+02  0.51100000000E-03 0.  1.
        -11    1    3    3    0    0  0.61583226870E+01 -0.67621247376E+01 -0.29539094474E+01  0.96112876644E+01  0.51100000000E-03 0. -1.
         12    1    3    3    0    0  0.17546451890E+02 -0.76469598386E+01 -0.20411740706E+01  0.19248905431E+02  0.00000000000E+00 0. -1.
</event>
<event>
 7    1  0.2478637E-008  0.4614232E+02  0.7816164E-02  0.1320468E+00
        -11   -1    0    0    0    0  0.00000000000E+00  0.00000000000E+00  0.45593999997E+02  0.45594000000E+02  0.51100000000E-03 0.  1.
         11   -1    0    0    0    0 -0.00000000000E+00 -0.00000000000E+00 -0.45593999997E+02  0.45594000000E+02  0.51100000000E-03 0. -1.
    9900012    2    1    2    0    0  0.14216464796E+02  0.36172496298E+02  0.22771828449E+02  0.46142317292E+02  0.99999957243E+01 0.  0.
         12    1    1    2    0    0 -0.14216464796E+02 -0.36172496298E+02 -0.22771828449E+02  0.45045682708E+02  0.00000000000E+00 0. -1.
         11    1    3    3    0    0  0.12389924729E+01  0.10299179594E+02  0.31907201892E+01  0.10853059395E+02  0.51100000000E-03 0. -1.
        -11    1    3    3    0    0  0.29113276452E+01  0.11127666997E+02  0.78851395857E+01  0.13945473388E+02  0.51100000000E-03 0.  1.
        -12    1    3    3    0    0  0.10066144678E+02  0.14745649707E+02  0.11695968674E+02  0.21343784509E+02  0.00000000000E+00 0.  1.
</event>
<event>
 7    1  0.2478637E-008  0.4614232E+02  0.7816164E-02  0.1320468E+00
        -11   -1    0    0    0    0  0.00000000000E+00  0.00000000000E+00  0.45593999997E+02  0.45594000000E+02  0.51100000000E-03 0.  1.
         11   -1    0    0    0    0 -0.00000000000E+00 -0.00000000000E+00 -0.45593999997E+02  0.45594000000E+02  0.51100000000E-03 0. -1.
    9900012    2    1    2    0    0 -0.14592029228E+02 -0.42445692419E+02  0.38143635305E+01  0.46142317731E+02  0.99999997282E+01 0.  0.
         12    1    1    2    0    0  0.14592029228E+02  0.42445692419E+02 -0.38143635305E+01  0.45045682269E+02  0.00000000000E+00 0. -1.
         11    1    3    3    0    0 -0.11180195921E+01 -0.67306877236E+01  0.24583400257E+01  0.72522797094E+01  0.51100000000E-03 0. -1.
        -11    1    3    3    0    0  0.73139529828E+00 -0.46304853332E+01  0.28835384854E+00  0.46967522509E+01  0.51100000000E-03 0.  1.
        -12    1    3    3    0    0 -0.14205404935E+02 -0.31084519362E+02  0.10676696563E+01  0.34193285771E+02  0.00000000000E+00 0.  1.
</event>
<event>
 7    1  0.2478637E-008  0.4614232E+02  0.7816164E-02  0.1320468E+00
        -11   -1    0    0    0    0  0.00000000000E+00  0.00000000000E+00  0.45593999997E+02  0.45594000000E+02  0.51100000000E-03 0.  1.
         11   -1    0    0    0    0 -0.00000000000E+00 -0.00000000000E+00 -0.45593999997E+02  0.45594000000E+02  0.51100000000E-03 0. -1.
    9900012    2    1    2    0    0  0.25944886664E+02 -0.18665626375E+02  0.31742254048E+02  0.46142318253E+02  0.10000004487E+02 0.  0.
         12    1    1    2    0    0 -0.25944886664E+02  0.18665626375E+02 -0.31742254048E+02  0.45045681747E+02  0.00000000000E+00 0. -1.
         11    1    3    3    0    0  0.48209871871E+01 -0.51484271982E+01  0.32449818617E+01  0.77638989958E+01  0.51100000000E-03 0. -1.
        -11    1    3    3    0    0  0.20727906242E+02 -0.14033471922E+02  0.27488132292E+02  0.37177706337E+02  0.51100000000E-03 0.  1.
        -12    1    3    3    0    0  0.39599323475E+00  0.51627274496E+00  0.10091398948E+01  0.12007129200E+01  0.00000000000E+00 0.  1.
</event>
<event>
 7    1  0.2478637E-008  0.4614232E+02  0.7816164E-02  0.1320468E+00
        -11   -1    0    0    0    0  0.00000000000E+00  0.00000000000E+00  0.45593999997E+02  0.45594000000E+02  0.51100000000E-03 0.  1.
         11   -1    0    0    0    0 -0.00000000000E+00 -0.00000000000E+00 -0.45593999997E+02  0.45594000000E+02  0.51100000000E-03 0. -1.
    9900012    2    1    2    0    0 -0.30137018337E+02 -0.26729031768E+01  0.33372581345E+02  0.46142317951E+02  0.10000001733E+02 0.  0.
         12    1    1    2    0    0  0.30137018337E+02  0.26729031768E+01 -0.33372581345E+02  0.45045682049E+02  0.00000000000E+00 0. -1.
         11    1    3    3    0    0  0.50931324135E+00  0.39450797512E+00  0.31935740751E+00  0.71904515512E+00  0.51100000000E-03 0. -1.
        -11    1    3    3    0    0 -0.15687839799E+02 -0.92412358782E+00  0.13543854985E+02  0.20746043721E+02  0.51100000000E-03 0.  1.
        -12    1    3    3    0    0 -0.14958491779E+02 -0.21432875641E+01  0.19509368953E+02  0.24677229075E+02  0.00000000000E+00 0.  1.
</event>
<event>
 7    1  0.2478637E-008  0.4614232E+02  0.7816164E-02  0.1320468E+00
        -11   -1    0    0    0    0  0.00000000000E+00  0.00000000000E+00  0.45593999997E+02  0.45594000000E+02  0.51100000000E-03 0.  1.
         11   -1    0    0    0    0 -0.00000000000E+00 -0.00000000000E+00 -0.45593999997E+02  0.45594000000E+02  0.51100000000E-03 0. -1.
    9900012    2    1    2    0    0  0.31751475560E+02 -0.15132477807E+02  0.28141883295E+02  0.46142315632E+02  0.99999805844E+01 0.  0.
         12    1    1    2    0    0 -0.31751475560E+02  0.15132477807E+02 -0.28141883295E+02  0.45045684368E+02  0.00000000000E+00 0. -1.
         11    1    3    3    0    0  0.71149013101E+01 -0.76324628461E+01  0.90448763720E+01  0.13808913737E+02  0.51100000000E-03 0. -1.
        -11    1    3    3    0    0  0.14838406379E+02 -0.46003485499E+01  0.14007940175E+02  0.20918028083E+02  0.51100000000E-03 0.  1.
         12    1    3    3    0    0  0.97981678703E+01 -0.28996664109E+01  0.50890667482E+01  0.11415373812E+02  0.00000000000E+00 0. -1.
</event>
<event>
 7    1  0.2478637E-008  0.4614232E+02  0.7816164E-02  0.1320468E+00
        -11   -1    0    0    0    0  0.00000000000E+00  0.00000000000E+00  0.45593999997E+02  0.45594000000E+02  0.51100000000E-03 0.  1.
         11   -1    0    0    0    0 -0.00000000000E+00 -0.00000000000E+00 -0.45593999997E+02  0.45594000000E+02  0.51100000000E-03 0. -1.
    9900012    2    1    2    0    0  0.39578177411E+02  0.64854695212E+01  0.20509014458E+02  0.46142321893E+02  0.10000037674E+02 0.  0.
         12    1    1    2    0    0 -0.39578177411E+02 -0.64854695212E+01 -0.20509014458E+02  0.45045678107E+02  0.00000000000E+00 0. -1.
         11    1    3    3    0    0  0.32794739354E+01  0.20240030845E+01  0.11486772374E+01  0.40213178730E+01  0.51100000000E-03 0. -1.
        -11    1    3    3    0    0  0.19106518726E+02  0.57507235350E+01  0.12623385645E+02  0.23611008966E+02  0.51100000000E-03 0.  1.
         12    1    3    3    0    0  0.17192184750E+02 -0.12892570983E+01  0.67369515761E+01  0.18509995053E+02  0.00000000000E+00 0. -1.
</event>
<event>
 7    1  0.2478637E-008  0.4614232E+02  0.7816164E-02  0.1320468E+00
        -11   -1    0    0    0    0  0.00000000000E+00  0.00000000000E+00  0.45593999997E+02  0.45594000000E+02  0.51100000000E-03 0.  1.
         11   -1    0    0    0    0 -0.00000000000E+00 -0.00000000000E+00 -0.45593999997E+02  0.45594000000E+02  0.51100000000E-03 0. -1.
    9900012    2    1    2    0    0 -0.18603712544E+02 -0.15366590838E+02  0.38037918069E+02  0.46142318238E+02  0.10000004350E+02 0.  0.
         12    1    1    2    0    0  0.18603712544E+02  0.15366590838E+02 -0.38037918069E+02  0.45045681762E+02  0.00000000000E+00 0. -1.
         11    1    3    3    0    0 -0.11284095378E+02 -0.67561899761E+01  0.21631129551E+02  0.25315660714E+02  0.51100000000E-03 0.  1.
        -11    1    3    3    0    0 -0.33804014153E+01 -0.48548500648E+01  0.13308255835E+02  0.14563871618E+02  0.51100000000E-03 0. -1.
         12    1    3    3    0    0 -0.39392157505E+01 -0.37555507969E+01  0.30985326833E+01  0.62627859062E+01  0.00000000000E+00 0. -1.
</event>
<event>
 7    1  0.2478637E-008  0.4614232E+02  0.7816164E-02  0.1320468E+00
        -11   -1    0    0    0    0  0.00000000000E+00  0.00000000000E+00  0.45593999997E+02  0.45594000000E+02  0.51100000000E-03 0. -1.
         11   -1    0    0    0    0 -0.00000000000E+00 -0.00000000000E+00 -0.45593999997E+02  0.45594000000E+02  0.51100000000E-03 0.  1.
    9900012    2    1    2    0    0 -0.10607889298E+00  0.59593959348E+01 -0.44649612796E+02  0.46142316795E+02  0.99999911865E+01 0.  0.
         12    1    1    2    0    0  0.10607889298E+00 -0.59593959348E+01  0.44649612796E+02  0.45045683205E+02  0.00000000000E+00 0. -1.
         11    1    3    3    0    0 -0.29237318791E+01  0.34358857536E+01 -0.21983078834E+02  0.22441240480E+02  0.51100000000E-03 0. -1.
        -11    1    3    3    0    0 -0.31039543708E+00  0.27499946681E+01 -0.46311038691E+01  0.53949920584E+01  0.51100000000E-03 0.  1.
        -12    1    3    3    0    0  0.31280484232E+01 -0.22648448697E+00 -0.18035430093E+02  0.18306084256E+02  0.00000000000E+00 0.  1.
</event>
<event>
 7    1  0.2478637E-008  0.4614232E+02  0.7816164E-02  0.1320468E+00
        -11   -1    0    0    0    0  0.00000000000E+00  0.00000000000E+00  0.45593999997E+02  0.45594000000E+02  0.51100000000E-03 0.  1.
         11   -1    0    0    0    0 -0.00000000000E+00 -0.00000000000E+00 -0.45593999997E+02  0.45594000000E+02  0.51100000000E-03 0. -1.
    9900012    2    1    2    0    0  0.60847306693E+01  0.36888379499E+02  0.25126419611E+02  0.46142318167E+02  0.10000003697E+02 0.  0.
         12    1    1    2    0    0 -0.60847306693E+01 -0.36888379499E+02 -0.25126419611E+02  0.45045681833E+02  0.00000000000E+00 0. -1.
         11    1    3    3    0    0  0.27241518288E+01  0.47163110329E+01  0.16724699355E+01  0.56975212937E+01  0.51100000000E-03 0. -1.
        -11    1    3    3    0    0  0.25270855769E+01  0.30580230884E+02  0.20227403670E+02  0.36751660397E+02  0.51100000000E-03 0.  1.
        -12    1    3    3    0    0  0.83349326358E+00  0.15918375826E+01  0.32265460050E+01  0.36931364763E+01  0.00000000000E+00 0.  1.
</event>
<event>
 7    1  0.2478637E-008  0.4614232E+02  0.7816164E-02  0.1320468E+00
        -11   -1    0    0    0    0  0.00000000000E+00  0.00000000000E+00  0.45593999997E+02  0.45594000000E+02  0.51100000000E-03 0.  1.
         11   -1    0    0    0    0 -0.00000000000E+00 -0.00000000000E+00 -0.45593999997E+02  0.45594000000E+02  0.51100000000E-03 0. -1.
    9900012    2    1    2    0    0 -0.27077315667E+02 -0.27030734768E+02  0.23775446944E+02  0.46142317374E+02  0.99999964720E+01 0.  0.
         12    1    1    2    0    0  0.27077315667E+02  0.27030734768E+02 -0.23775446944E+02  0.45045682626E+02  0.00000000000E+00 0. -1.
         11    1    3    3    0    0  0.25600526565E-01 -0.15215170153E+01  0.25111169276E+01  0.29362182991E+01  0.51100000000E-03 0. -1.
        -11    1    3    3    0    0 -0.43396395955E+01 -0.71596214288E+01  0.48460113875E+01  0.96734935494E+01  0.51100000000E-03 0.  1.
        -12    1    3    3    0    0 -0.22763276599E+02 -0.18349596324E+02  0.16418318629E+02  0.33532605526E+02  0.00000000000E+00 0.  1.
</event>
<event>
 7    1  0.2478637E-008  0.4614232E+02  0.7816164E-02  0.1320468E+00
        -11   -1    0    0    0    0  0.00000000000E+00  0.00000000000E+00  0.45593999997E+02  0.45594000000E+02  0.51100000000E-03 0.  1.
         11   -1    0    0    0    0 -0.00000000000E+00 -0.00000000000E+00 -0.45593999997E+02  0.45594000000E+02  0.51100000000E-03 0. -1.
    9900012    2    1    2    0    0 -0.30172169475E+02 -0.16756903895E+00  0.33447354873E+02  0.46142318318E+02  0.10000005079E+02 0.  0.
         12    1    1    2    0    0  0.30172169475E+02  0.16756903895E+00 -0.33447354873E+02  0.45045681682E+02  0.00000000000E+00 0. -1.
         11    1    3    3    0    0 -0.14202745340E+01  0.18691852486E+01  0.21215804336E+01  0.31641961132E+01  0.51100000000E-03 0. -1.
        -11    1    3    3    0    0 -0.28424742170E+02 -0.21469964898E+01  0.31585076573E+02  0.42546358525E+02  0.51100000000E-03 0.  1.
        -12    1    3    3    0    0 -0.32715277150E+00  0.11024220225E+00 -0.25930213382E+00  0.43176368034E+00  0.00000000000E+00 0.  1.
</event>
<event>
 7    1  0.2478637E-008  0.4614232E+02  0.7816164E-02  0.1320468E+00
        -11   -1    0    0    0    0  0.00000000000E+00  0.00000000000E+00  0.45593999997E+02  0.45594000000E+02  0.51100000000E-03 0. -1.
         11   -1    0    0    0    0 -0.00000000000E+00 -0.00000000000E+00 -0.45593999997E+02  0.45594000000E+02  0.51100000000E-03 0.  1.
    9900012    2    1    2    0    0 -0.33696948095E+01  0.15951140043E+01 -0.44891136868E+02  0.46142318730E+02  0.10000008831E+02 0.  0.
         12    1    1    2    0    0  0.33696948095E+01 -0.15951140043E+01  0.44891136868E+02  0.45045681270E+02  0.00000000000E+00 0. -1.
         11    1    3    3    0    0  0.84814859492E+00 -0.56462662465E+00 -0.63632498177E+01  0.64443081683E+01  0.51100000000E-03 0. -1.
        -11    1    3    3    0    0 -0.31716215582E+01 -0.26453605182E-01 -0.36196072100E+02  0.36334770108E+02  0.51100000000E-03 0.  1.
        -12    1    3    3    0    0 -0.10462218463E+01  0.21861942342E+01 -0.23318149510E+01  0.33632404533E+01  0.00000000000E+00 0.  1.
</event>
<event>
 7    1  0.2478637E-008  0.4614232E+02  0.7816164E-02  0.1320468E+00
        -11   -1    0    0    0    0  0.00000000000E+00  0.00000000000E+00  0.45593999997E+02  0.45594000000E+02  0.51100000000E-03 0. -1.
         11   -1    0    0    0    0 -0.00000000000E+00 -0.00000000000E+00 -0.45593999997E+02  0.45594000000E+02  0.51100000000E-03 0.  1.
    9900012    2    1    2    0    0  0.37445641900E+02  0.20137666592E+02  0.14879910423E+02  0.46142318217E+02  0.10000004160E+02 0.  0.
         12    1    1    2    0    0 -0.37445641900E+02 -0.20137666592E+02 -0.14879910423E+02  0.45045681783E+02  0.00000000000E+00 0. -1.
         11    1    3    3    0    0  0.11188725187E+02  0.36811428006E+01  0.56035197375E+01  0.13043688794E+02  0.51100000000E-03 0. -1.
        -11    1    3    3    0    0  0.22104949444E+02  0.16275770526E+02  0.91690732302E+01  0.28941344134E+02  0.51100000000E-03 0.  1.
        -12    1    3    3    0    0  0.41519672681E+01  0.18075326545E+00  0.10731745566E+00  0.41572852891E+01  0.00000000000E+00 0.  1.
</event>
<event>
 7    1  0.2478637E-008  0.4614232E+02  0.7816164E-02  0.1320468E+00
        -11   -1    0    0    0    0  0.00000000000E+00  0.00000000000E+00  0.45593999997E+02  0.45594000000E+02  0.51100000000E-03 0.  1.
         11   -1    0    0    0    0 -0.00000000000E+00 -0.00000000000E+00 -0.45593999997E+02  0.45594000000E+02  0.51100000000E-03 0. -1.
    9900012    2    1    2    0    0  0.62362449017E+01 -0.31994728104E+02  0.31089549766E+02  0.46142317836E+02  0.10000000683E+02 0.  0.
         12    1    1    2    0    0 -0.62362449017E+01  0.31994728104E+02 -0.31089549766E+02  0.45045682164E+02  0.00000000000E+00 0. -1.
         11    1    3    3    0    0  0.45728504933E+01 -0.15845588943E+02  0.15220641873E+02  0.22442406062E+02  0.51100000000E-03 0. -1.
        -11    1    3    3    0    0 -0.17867600736E-01 -0.82122200989E+01  0.12408071853E+02  0.14879553944E+02  0.51100000000E-03 0.  1.
         12    1    3    3    0    0  0.16812620092E+01 -0.79369190627E+01  0.34608360411E+01  0.88203578303E+01  0.00000000000E+00 0. -1.
</event>
<event>
 7    1  0.2478637E-008  0.4614232E+02  0.7816164E-02  0.1320468E+00
        -11   -1    0    0    0    0  0.00000000000E+00  0.00000000000E+00  0.45593999997E+02  0.45594000000E+02  0.51100000000E-03 0.  1.
         11   -1    0    0    0    0 -0.00000000000E+00 -0.00000000000E+00 -0.45593999997E+02  0.45594000000E+02  0.51100000000E-03 0. -1.
    9900012    2    1    2    0    0 -0.29332835895E+00 -0.28221718581E+02  0.35107861755E+02  0.46142318762E+02  0.10000009129E+02 0.  0.
         12    1    1    2    0    0  0.29332835895E+00  0.28221718581E+02 -0.35107861755E+02  0.45045681238E+02  0.00000000000E+00 0. -1.
         11    1    3    3    0    0 -0.87002109046E+00  0.53042047208E-02 -0.32903161228E-01  0.87065935449E+00  0.51100000000E-03 0. -1.
        -11    1    3    3    0    0  0.19368556312E+01 -0.73574126743E+01  0.86337321293E+01  0.11507574103E+02  0.51100000000E-03 0.  1.
        -12    1    3    3    0    0 -0.13601628997E+01 -0.20869610111E+02  0.26507032787E+02  0.33764085305E+02  0.00000000000E+00 0.  1.
</event>
<event>
 7    1  0.2478637E-008  0.4614232E+02  0.7816164E-02  0.1320468E+00
        -11   -1    0    0    0    0  0.00000000000E+00  0.00000000000E+00  0.45593999997E+02  0.45594000000E+02  0.51100000000E-03 0.  1.
         11   -1    0    0    0    0 -0.00000000000E+00 -0.00000000000E+00 -0.45593999997E+02  0.45594000000E+02  0.51100000000E-03 0. -1.
    9900012    2    1    2    0    0  0.10010374739E+02 -0.23792014930E+02  0.36916743639E+02  0.46142317213E+02  0.99999950027E+01 0.  0.
         12    1    1    2    0    0 -0.10010374739E+02  0.23792014930E+02 -0.36916743639E+02  0.45045682787E+02  0.00000000000E+00 0. -1.
         11    1    3    3    0    0  0.15565418474E+01 -0.16704265271E+01  0.56655437337E+00  0.23524734695E+01  0.51100000000E-03 0. -1.
        -11    1    3    3    0    0  0.74331531934E+01 -0.13510977605E+02  0.26558579221E+02  0.30710851710E+02  0.51100000000E-03 0.  1.
        -12    1    3    3    0    0  0.10206796978E+01 -0.86106107975E+01  0.97916100443E+01  0.13078992033E+02  0.00000000000E+00 0.  1.
</event>
<event>
 7    1  0.2478637E-008  0.4614232E+02  0.7816164E-02  0.1320468E+00
        -11   -1    0    0    0    0  0.00000000000E+00  0.00000000000E+00  0.45593999997E+02  0.45594000000E+02  0.51100000000E-03 0.  1.
         11   -1    0    0    0    0 -0.00000000000E+00 -0.00000000000E+00 -0.45593999997E+02  0.45594000000E+02  0.51100000000E-03 0. -1.
    9900012    2    1    2    0    0 -0.37594439112E+02  0.23359651922E+02  0.83724731195E+01  0.46142317675E+02  0.99999992110E+01 0.  0.
         12    1    1    2    0    0  0.37594439112E+02 -0.23359651922E+02 -0.83724731195E+01  0.45045682325E+02  0.00000000000E+00 0. -1.
         11    1    3    3    0    0 -0.11265202689E+02  0.26491593638E+01  0.35338018565E+00  0.11577897684E+02  0.51100000000E-03 0. -1.
        -11    1    3    3    0    0 -0.10169891655E+02  0.63051130758E+01  0.25077082099E+01  0.12225782098E+02  0.51100000000E-03 0.  1.
         12    1    3    3    0    0 -0.16159344768E+02  0.14405379482E+02  0.55113847239E+01  0.22338637893E+02  0.00000000000E+00 0. -1.
</event>
<event>
 7    1  0.2478637E-008  0.4614232E+02  0.7816164E-02  0.1320468E+00
        -11   -1    0    0    0    0  0.00000000000E+00  0.00000000000E+00  0.45593999997E+02  0.45594000000E+02  0.51100000000E-03 0. -1.
         11   -1    0    0    0    0 -0.00000000000E+00 -0.00000000000E+00 -0.45593999997E+02  0.45594000000E+02  0.51100000000E-03 0.  1.
    9900012    2    1    2    0    0  0.13564397233E+02  0.42808354511E+02 -0.35447809591E+01  0.46142316963E+02  0.99999927248E+01 0.  0.
         12    1    1    2    0    0 -0.13564397233E+02 -0.42808354511E+02  0.35447809591E+01  0.45045683037E+02  0.00000000000E+00 0. -1.
         11    1    3    3    0    0  0.15945089384E+01  0.11789609967E+01  0.26273047382E+00  0.20003588051E+01  0.51100000000E-03 0. -1.
        -11    1    3    3    0    0  0.41464592515E+00  0.21027541211E+01 -0.19839681080E+01  0.29205540317E+01  0.51100000000E-03 0.  1.
        -12    1    3    3    0    0  0.11555242369E+02  0.39526639393E+02 -0.18235433249E+01  0.41221404126E+02  0.00000000000E+00 0.  1.
</event>
<event>
 7    1  0.2478637E-008  0.4614232E+02  0.7816164E-02  0.1320468E+00
        -11   -1    0    0    0    0  0.00000000000E+00  0.00000000000E+00  0.45593999997E+02  0.45594000000E+02  0.51100000000E-03 0.  1.
         11   -1    0    0    0    0 -0.00000000000E+00 -0.00000000000E+00 -0.45593999997E+02  0.45594000000E+02  0.51100000000E-03 0. -1.
    9900012    2    1    2    0    0  0.43579279106E+02 -0.72976738142E-01  0.11399766169E+02  0.46142316947E+02  0.99999925784E+01 0.  0.
         12    1    1    2    0    0 -0.43579279106E+02  0.72976738142E-01 -0.11399766169E+02  0.45045683053E+02  0.00000000000E+00 0. -1.
         11    1    3    3    0    0  0.51201155187E+01 -0.22130387865E+01  0.98514953003E-02  0.55779226338E+01  0.51100000000E-03 0. -1.
        -11    1    3    3    0    0  0.32439050203E+02  0.55954131314E+00  0.11248954901E+02  0.34338666998E+02  0.51100000000E-03 0.  1.
        -12    1    3    3    0    0  0.60201133842E+01  0.15805207353E+01  0.14095977268E+00  0.62257273158E+01  0.00000000000E+00 0.  1.
</event>
<event>
 7    1  0.2478637E-008  0.4614232E+02  0.7816164E-02  0.1320468E+00
        -11   -1    0    0    0    0  0.00000000000E+00  0.00000000000E+00  0.45593999997E+02  0.45594000000E+02  0.51100000000E-03 0.  1.
         11   -1    0    0    0    0 -0.00000000000E+00 -0.00000000000E+00 -0.45593999997E+02  0.45594000000E+02  0.51100000000E-03 0. -1.
    9900012    2    1    2    0    0 -0.27596538405E+02  0.17379818366E+00  0.35602169169E+02  0.46142316663E+02  0.99999899877E+01 0.  0.
         12    1    1    2    0    0  0.27596538405E+02 -0.17379818366E+00 -0.35602169169E+02  0.45045683337E+02  0.00000000000E+00 0. -1.
         11    1    3    3    0    0 -0.10671231515E+02  0.34086251714E+01  0.16191119899E+02  0.19688734633E+02  0.51100000000E-03 0. -1.
        -11    1    3    3    0    0 -0.15994926444E+02 -0.28684258136E+01  0.15645908912E+02  0.22557925537E+02  0.51100000000E-03 0.  1.
        -12    1    3    3    0    0 -0.93038044586E+00 -0.36640117416E+00  0.37651403582E+01  0.38956564930E+01  0.00000000000E+00 0.  1.
</event>
<event>
 7    1  0.2478637E-008  0.4614232E+02  0.7816164E-02  0.1320468E+00
        -11   -1    0    0    0    0  0.00000000000E+00  0.00000000000E+00  0.45593999997E+02  0.45594000000E+02  0.51100000000E-03 0.  1.
         11   -1    0    0    0    0 -0.00000000000E+00 -0.00000000000E+00 -0.45593999997E+02  0.45594000000E+02  0.51100000000E-03 0. -1.
    9900012    2    1    2    0    0 -0.84760623077E+01 -0.15038663421E+02  0.41606591194E+02  0.46142318070E+02  0.10000002817E+02 0.  0.
         12    1    1    2    0    0  0.84760623077E+01  0.15038663421E+02 -0.41606591194E+02  0.45045681930E+02  0.00000000000E+00 0. -1.
         11    1    3    3    0    0 -0.24294660720E+01 -0.60863698088E+01  0.13806998221E+02  0.15283304714E+02  0.51100000000E-03 0. -1.
        -11    1    3    3    0    0 -0.19199100759E+01 -0.79053308063E+01  0.12012619184E+02  0.14508043624E+02  0.51100000000E-03 0.  1.
         12    1    3    3    0    0 -0.41266861598E+01 -0.10469628061E+01  0.15786973789E+02  0.16350969732E+02  0.00000000000E+00 0. -1.
</event>
<event>
 7    1  0.2478637E-008  0.4614232E+02  0.7816164E-02  0.1320468E+00
        -11   -1    0    0    0    0  0.00000000000E+00  0.00000000000E+00  0.45593999997E+02  0.45594000000E+02  0.51100000000E-03 0.  1.
         11   -1    0    0    0    0 -0.00000000000E+00 -0.00000000000E+00 -0.45593999997E+02  0.45594000000E+02  0.51100000000E-03 0. -1.
    9900012    2    1    2    0    0  0.81394291534E+01  0.20808015652E+02  0.39113803631E+02  0.46142318112E+02  0.10000003198E+02 0.  0.
         12    1    1    2    0    0 -0.81394291534E+01 -0.20808015652E+02 -0.39113803631E+02  0.45045681888E+02  0.00000000000E+00 0. -1.
         11    1    3    3    0    0  0.66507882304E+01  0.75272048040E+01  0.15349395626E+02  0.18343820284E+02  0.51100000000E-03 0. -1.
        -11    1    3    3    0    0  0.26963802590E+01  0.11818641876E+02  0.22374020813E+02  0.25446956005E+02  0.51100000000E-03 0.  1.
         12    1    3    3    0    0 -0.12077393360E+01  0.14621689720E+01  0.13903871910E+01  0.23515418234E+01  0.00000000000E+00 0. -1.
</event>
<event>
 7    1  0.2478637E-008  0.4614232E+02  0.7816164E-02  0.1320468E+00
        -11   -1    0    0    0    0  0.00000000000E+00  0.00000000000E+00  0.45593999997E+02  0.45594000000E+02  0.51100000000E-03 0.  1.
         11   -1    0    0    0    0 -0.00000000000E+00 -0.00000000000E+00 -0.45593999997E+02  0.45594000000E+02  0.51100000000E-03 0. -1.
    9900012    2    1    2    0    0  0.31919269312E+02 -0.25571135040E+02  0.18878316343E+02  0.46142317315E+02  0.99999959297E+01 0.  0.
         12    1    1    2    0    0 -0.31919269312E+02  0.25571135040E+02 -0.18878316343E+02  0.45045682685E+02  0.00000000000E+00 0. -1.
         11    1    3    3    0    0  0.20450332934E+02 -0.12493575854E+02  0.10253101726E+02  0.26065909729E+02  0.51100000000E-03 0. -1.
        -11    1    3    3    0    0  0.89241580414E+01 -0.91869708249E+01  0.37627324805E+01  0.13349126775E+02  0.51100000000E-03 0.  1.
         12    1    3    3    0    0  0.25447783369E+01 -0.38905883606E+01  0.48624821366E+01  0.67272808106E+01  0.00000000000E+00 0. -1.
</event>
<event>
 7    1  0.2478637E-008  0.4614232E+02  0.7816164E-02  0.1320468E+00
        -11   -1    0    0    0    0  0.00000000000E+00  0.00000000000E+00  0.45593999997E+02  0.45594000000E+02  0.51100000000E-03 0.  1.
         11   -1    0    0    0    0 -0.00000000000E+00 -0.00000000000E+00 -0.45593999997E+02  0.45594000000E+02  0.51100000000E-03 0. -1.
    9900012    2    1    2    0    0 -0.14240826277E+02  0.10232505638E+02  0.41492267525E+02  0.46142316866E+02  0.99999918335E+01 0.  0.
         12    1    1    2    0    0  0.14240826277E+02 -0.10232505638E+02 -0.41492267525E+02  0.45045683134E+02  0.00000000000E+00 0. -1.
         11    1    3    3    0    0 -0.43084535392E+01  0.68945413288E+01  0.17839764397E+02  0.19604965341E+02  0.51100000000E-03 0. -1.
        -11    1    3    3    0    0 -0.27640216354E+01  0.94784055297E+00  0.18400013126E+01  0.34530888211E+01  0.51100000000E-03 0.  1.
        -12    1    3    3    0    0 -0.71683511023E+01  0.23901237560E+01  0.21812501816E+02  0.23084262703E+02  0.00000000000E+00 0.  1.
</event>
<event>
 7    1  0.2478637E-008  0.4614232E+02  0.7816164E-02  0.1320468E+00
        -11   -1    0    0    0    0  0.00000000000E+00  0.00000000000E+00  0.45593999997E+02  0.45594000000E+02  0.51100000000E-03 0.  1.
         11   -1    0    0    0    0 -0.00000000000E+00 -0.00000000000E+00 -0.45593999997E+02  0.45594000000E+02  0.51100000000E-03 0. -1.
    9900012    2    1    2    0    0 -0.35390749553E+01  0.27138312453E+02  0.35778492003E+02  0.46142317140E+02  0.99999943317E+01 0.  0.
         12    1    1    2    0    0  0.35390749553E+01 -0.27138312453E+02 -0.35778492003E+02  0.45045682860E+02  0.00000000000E+00 0. -1.
         11    1    3    3    0    0  0.65878464538E+00  0.11574789827E+02  0.92817265578E+01  0.14851269471E+02  0.51100000000E-03 0.  1.
        -11    1    3    3    0    0  0.75643747195E+00  0.21053218019E+01  0.46127184951E+01  0.51265729016E+01  0.51100000000E-03 0. -1.
         12    1    3    3    0    0 -0.49542970726E+01  0.13458200825E+02  0.21884046950E+02  0.26164474767E+02  0.00000000000E+00 0. -1.
</event>
<event>
 7    1  0.2478637E-008  0.4614232E+02  0.7816164E-02  0.1320468E+00
        -11   -1    0    0    0    0  0.00000000000E+00  0.00000000000E+00  0.45593999997E+02  0.45594000000E+02  0.51100000000E-03 0.  1.
         11   -1    0    0    0    0 -0.00000000000E+00 -0.00000000000E+00 -0.45593999997E+02  0.45594000000E+02  0.51100000000E-03 0. -1.
    9900012    2    1    2    0    0 -0.36374899176E+02 -0.19925874993E+02  0.17576680001E+02  0.46142318030E+02  0.10000002448E+02 0.  0.
         12    1    1    2    0    0  0.36374899176E+02  0.19925874993E+02 -0.17576680001E+02  0.45045681970E+02  0.00000000000E+00 0. -1.
         11    1    3    3    0    0 -0.16344203906E+02 -0.70835550307E+01  0.41211145944E+01  0.18283690518E+02  0.51100000000E-03 0. -1.
        -11    1    3    3    0    0 -0.24938230145E+01 -0.36998534411E+01  0.13108278424E+01  0.46504127351E+01  0.51100000000E-03 0.  1.
        -12    1    3    3    0    0 -0.17536872256E+02 -0.91424665215E+01  0.12144737564E+02  0.23208214776E+02  0.00000000000E+00 0.  1.
</event>
<event>
 7    1  0.2478637E-008  0.4614231E+02  0.7816164E-02  0.1320468E+00
        -11   -1    0    0    0    0  0.00000000000E+00  0.00000000000E+00  0.45593999997E+02  0.45594000000E+02  0.51100000000E-03 0. -1.
         11   -1    0    0    0    0 -0.00000000000E+00 -0.00000000000E+00 -0.45593999997E+02  0.45594000000E+02  0.51100000000E-03 0.  1.
    9900012    2    1    2    0    0  0.75544512427E+01  0.98144776168E+01 -0.43309585355E+02  0.46142313324E+02  0.99999595386E+01 0.  0.
         12    1    1    2    0    0 -0.75544512427E+01 -0.98144776168E+01  0.43309585355E+02  0.45045686676E+02  0.00000000000E+00 0. -1.
         11    1    3    3    0    0  0.36322563753E+01  0.70060044448E+01 -0.13264724539E+02  0.15434710947E+02  0.51100000000E-03 0. -1.
        -11    1    3    3    0    0  0.27996309167E+01  0.29899417646E+01 -0.13118734535E+02  0.13743321327E+02  0.51100000000E-03 0.  1.
         12    1    3    3    0    0  0.11225639507E+01 -0.18146859257E+00 -0.16926126281E+02  0.16964281050E+02  0.00000000000E+00 0. -1.
</event>
<event>
 7    1  0.2478637E-008  0.4614232E+02  0.7816164E-02  0.1320468E+00
        -11   -1    0    0    0    0  0.00000000000E+00  0.00000000000E+00  0.45593999997E+02  0.45594000000E+02  0.51100000000E-03 0.  1.
         11   -1    0    0    0    0 -0.00000000000E+00 -0.00000000000E+00 -0.45593999997E+02  0.45594000000E+02  0.51100000000E-03 0. -1.
    9900012    2    1    2    0    0 -0.16452609287E+02  0.22969223693E+02  0.35083327946E+02  0.46142317752E+02  0.99999999183E+01 0.  0.
         12    1    1    2    0    0  0.16452609287E+02 -0.22969223693E+02 -0.35083327946E+02  0.45045682248E+02  0.00000000000E+00 0. -1.
         11    1    3    3    0    0 -0.18267081568E+01  0.40449543072E+01  0.10561604278E+02  0.11456264802E+02  0.51100000000E-03 0. -1.
        -11    1    3    3    0    0 -0.87481964796E+01  0.93832951624E+01  0.16520621115E+02  0.20916694099E+02  0.51100000000E-03 0.  1.
         12    1    3    3    0    0 -0.58777046504E+01  0.95409742239E+01  0.80011025530E+01  0.13769358851E+02  0.00000000000E+00 0. -1.
</event>
<event>
 7    1  0.2478637E-008  0.4614232E+02  0.7816164E-02  0.1320468E+00
        -11   -1    0    0    0    0  0.00000000000E+00  0.00000000000E+00  0.45593999997E+02  0.45594000000E+02  0.51100000000E-03 0.  1.
         11   -1    0    0    0    0 -0.00000000000E+00 -0.00000000000E+00 -0.45593999997E+02  0.45594000000E+02  0.51100000000E-03 0. -1.
    9900012    2    1    2    0    0  0.34563622909E+02  0.14874731588E+02  0.24763112405E+02  0.46142318693E+02  0.10000008502E+02 0.  0.
         12    1    1    2    0    0 -0.34563622909E+02 -0.14874731588E+02 -0.24763112405E+02  0.45045681307E+02  0.00000000000E+00 0. -1.
         11    1    3    3    0    0  0.20634852493E+01  0.13129681775E-02  0.11080067893E+01  0.23421469647E+01  0.51100000000E-03 0. -1.
        -11    1    3    3    0    0  0.95717198241E+01  0.73674387545E+01  0.11926284132E+02  0.16974487552E+02  0.51100000000E-03 0.  1.
        -12    1    3    3    0    0  0.22928417835E+02  0.75059798657E+01  0.11728821484E+02  0.26825684177E+02  0.00000000000E+00 0.  1.
</event>
<event>
 7    1  0.2478637E-008  0.4614232E+02  0.7816164E-02  0.1320468E+00
        -11   -1    0    0    0    0  0.00000000000E+00  0.00000000000E+00  0.45593999997E+02  0.45594000000E+02  0.51100000000E-03 0.  1.
         11   -1    0    0    0    0 -0.00000000000E+00 -0.00000000000E+00 -0.45593999997E+02  0.45594000000E+02  0.51100000000E-03 0. -1.
    9900012    2    1    2    0    0  0.29207830716E+02 -0.27818983162E+02 -0.20052934519E+02  0.46142318941E+02  0.10000010755E+02 0.  0.
         12    1    1    2    0    0 -0.29207830716E+02  0.27818983162E+02  0.20052934519E+02  0.45045681059E+02  0.00000000000E+00 0. -1.
         11    1    3    3    0    0  0.45667797235E+01 -0.47177312482E+01 -0.10909159511E+01  0.66560170558E+01  0.51100000000E-03 0. -1.
        -11    1    3    3    0    0  0.15024583108E+02 -0.14365243223E+02 -0.73108960342E+01  0.22035142648E+02  0.51100000000E-03 0.  1.
        -12    1    3    3    0    0  0.96164678848E+01 -0.87360086902E+01 -0.11651122534E+02  0.17451159237E+02  0.00000000000E+00 0.  1.
</event>
<event>
 7    1  0.2478637E-008  0.4614232E+02  0.7816164E-02  0.1320468E+00
        -11   -1    0    0    0    0  0.00000000000E+00  0.00000000000E+00  0.45593999997E+02  0.45594000000E+02  0.51100000000E-03 0.  1.
         11   -1    0    0    0    0 -0.00000000000E+00 -0.00000000000E+00 -0.45593999997E+02  0.45594000000E+02  0.51100000000E-03 0. -1.
    9900012    2    1    2    0    0  0.37175221856E+02 -0.25015334562E+02  0.46205242961E+01  0.46142319541E+02  0.10000016226E+02 0.  0.
         12    1    1    2    0    0 -0.37175221856E+02  0.25015334562E+02 -0.46205242961E+01  0.45045680459E+02  0.00000000000E+00 0. -1.
         11    1    3    3    0    0  0.57120441487E+01 -0.35661679349E+01 -0.47943007685E+00  0.67509151644E+01  0.51100000000E-03 0. -1.
        -11    1    3    3    0    0  0.21265324284E+02 -0.93587465586E+01  0.26106814644E+01  0.23379816338E+02  0.51100000000E-03 0.  1.
        -12    1    3    3    0    0  0.10197853423E+02 -0.12090420069E+02  0.24892729085E+01  0.16011588038E+02  0.00000000000E+00 0.  1.
</event>
<event>
 7    1  0.2478637E-008  0.4614232E+02  0.7816164E-02  0.1320468E+00
        -11   -1    0    0    0    0  0.00000000000E+00  0.00000000000E+00  0.45593999997E+02  0.45594000000E+02  0.51100000000E-03 0.  1.
         11   -1    0    0    0    0 -0.00000000000E+00 -0.00000000000E+00 -0.45593999997E+02  0.45594000000E+02  0.51100000000E-03 0. -1.
    9900012    2    1    2    0    0  0.39993001071E+02 -0.23203134697E+01  0.20598286223E+02  0.46142318913E+02  0.10000010504E+02 0.  0.
         12    1    1    2    0    0 -0.39993001071E+02  0.23203134697E+01 -0.20598286223E+02  0.45045681087E+02  0.00000000000E+00 0. -1.
         11    1    3    3    0    0  0.21263428321E+01 -0.13528190795E+01  0.15476076427E+01  0.29574554905E+01  0.51100000000E-03 0. -1.
        -11    1    3    3    0    0  0.20068571913E+02  0.10508250432E+01  0.14265327519E+02  0.24644500023E+02  0.51100000000E-03 0.  1.
         12    1    3    3    0    0  0.17798086326E+02 -0.20183194335E+01  0.47853510606E+01  0.18540363399E+02  0.00000000000E+00 0. -1.
</event>
<event>
 7    1  0.2478637E-008  0.4614232E+02  0.7816164E-02  0.1320468E+00
        -11   -1    0    0    0    0  0.00000000000E+00  0.00000000000E+00  0.45593999997E+02  0.45594000000E+02  0.51100000000E-03 0.  1.
         11   -1    0    0    0    0 -0.00000000000E+00 -0.00000000000E+00 -0.45593999997E+02  0.45594000000E+02  0.51100000000E-03 0. -1.
    9900012    2    1    2    0    0  0.26423041770E+02 -0.37977368501E+00  0.36480025809E+02  0.46142315996E+02  0.99999839023E+01 0.  0.
         12    1    1    2    0    0 -0.26423041770E+02  0.37977368501E+00 -0.36480025809E+02  0.45045684004E+02  0.00000000000E+00 0. -1.
         11    1    3    3    0    0  0.75864696569E+01  0.71876047036E+00  0.11621614798E+02  0.13897232431E+02  0.51100000000E-03 0. -1.
        -11    1    3    3    0    0  0.16073407022E+01  0.17610363868E+01  0.79821133708E+00  0.25143458172E+01  0.51100000000E-03 0.  1.
        -12    1    3    3    0    0  0.17229231410E+02 -0.28595705422E+01  0.24060199674E+02  0.29730737748E+02  0.00000000000E+00 0.  1.
</event>
<event>
 7    1  0.2478637E-008  0.4614232E+02  0.7816164E-02  0.1320468E+00
        -11   -1    0    0    0    0  0.00000000000E+00  0.00000000000E+00  0.45593999997E+02  0.45594000000E+02  0.51100000000E-03 0.  1.
         11   -1    0    0    0    0 -0.00000000000E+00 -0.00000000000E+00 -0.45593999997E+02  0.45594000000E+02  0.51100000000E-03 0. -1.
    9900012    2    1    2    0    0  0.20710534781E+02  0.35638911633E+02  0.18167421123E+02  0.46142318037E+02  0.10000002513E+02 0.  0.
         12    1    1    2    0    0 -0.20710534781E+02 -0.35638911633E+02 -0.18167421123E+02  0.45045681963E+02  0.00000000000E+00 0. -1.
         11    1    3    3    0    0  0.91846150414E+01  0.83156783699E+01  0.53664841915E+01  0.13502104023E+02  0.51100000000E-03 0. -1.
        -11    1    3    3    0    0  0.91565325863E+01  0.17002428905E+02  0.68298109523E+01  0.20483432221E+02  0.51100000000E-03 0.  1.
         12    1    3    3    0    0  0.23693871528E+01  0.10320804359E+02  0.59711259792E+01  0.12156781792E+02  0.00000000000E+00 0. -1.
</event>
<event>
 7    1  0.2478637E-008  0.4614232E+02  0.7816164E-02  0.1320468E+00
        -11   -1    0    0    0    0  0.00000000000E+00  0.00000000000E+00  0.45593999997E+02  0.45594000000E+02  0.51100000000E-03 0. -1.
         11   -1    0    0    0    0 -0.00000000000E+00 -0.00000000000E+00 -0.45593999997E+02  0.45594000000E+02  0.51100000000E-03 0.  1.
    9900012    2    1    2    0    0 -0.41664019198E+02 -0.74349916551E+01  0.15425430067E+02  0.46142317750E+02  0.99999998965E+01 0.  0.
         12    1    1    2    0    0  0.41664019198E+02  0.74349916551E+01 -0.15425430067E+02  0.45045682250E+02  0.00000000000E+00 0. -1.
         11    1    3    3    0    0 -0.98845933302E+01  0.15361887779E+01  0.47157738690E+01  0.11059095113E+02  0.51100000000E-03 0. -1.
        -11    1    3    3    0    0  0.11508165665E+00 -0.14905750741E+00  0.36698617755E+00  0.41248156789E+00  0.51100000000E-03 0.  1.
        -12    1    3    3    0    0 -0.31894507525E+02 -0.88221229257E+01  0.10342670020E+02  0.34670741069E+02  0.00000000000E+00 0.  1.
</event>
<event>
 7    1  0.2478637E-008  0.4614232E+02  0.7816164E-02  0.1320468E+00
        -11   -1    0    0    0    0  0.00000000000E+00  0.00000000000E+00  0.45593999997E+02  0.45594000000E+02  0.51100000000E-03 0.  1.
         11   -1    0    0    0    0 -0.00000000000E+00 -0.00000000000E+00 -0.45593999997E+02  0.45594000000E+02  0.51100000000E-03 0. -1.
    9900012    2    1    2    0    0 -0.55917992912E+01  0.12348453138E+02  0.42957661607E+02  0.46142320907E+02  0.10000028686E+02 0.  0.
         12    1    1    2    0    0  0.55917992912E+01 -0.12348453138E+02 -0.42957661607E+02  0.45045679093E+02  0.00000000000E+00 0. -1.
         11    1    3    3    0    0  0.23041876143E+00  0.18669887263E+01  0.32626786211E+01  0.37661401667E+01  0.51100000000E-03 0. -1.
        -11    1    3    3    0    0 -0.76846025427E+01  0.57616795198E+01  0.22933071648E+02  0.24863142251E+02  0.51100000000E-03 0.  1.
        -12    1    3    3    0    0  0.18623844900E+01  0.47197848920E+01  0.16761911338E+02  0.17513038489E+02  0.00000000000E+00 0.  1.
</event>
<event>
 7    1  0.2478637E-008  0.4614232E+02  0.7816164E-02  0.1320468E+00
        -11   -1    0    0    0    0  0.00000000000E+00  0.00000000000E+00  0.45593999997E+02  0.45594000000E+02  0.51100000000E-03 0. -1.
         11   -1    0    0    0    0 -0.00000000000E+00 -0.00000000000E+00 -0.45593999997E+02  0.45594000000E+02  0.51100000000E-03 0.  1.
    9900012    2    1    2    0    0 -0.33160331991E+01  0.32133825490E+02 -0.31393226569E+02  0.46142317729E+02  0.99999997103E+01 0.  0.
         12    1    1    2    0    0  0.33160331991E+01 -0.32133825490E+02  0.31393226569E+02  0.45045682271E+02  0.00000000000E+00 0. -1.
         11    1    3    3    0    0  0.49186213065E+00  0.86472216382E+01 -0.37426888330E+01  0.94352578331E+01  0.51100000000E-03 0. -1.
        -11    1    3    3    0    0 -0.14013530323E+01  0.39312160487E+01 -0.29500379598E+01  0.51108682401E+01  0.51100000000E-03 0.  1.
         12    1    3    3    0    0 -0.24065422974E+01  0.19555387803E+02 -0.24700499777E+02  0.31596191656E+02  0.00000000000E+00 0. -1.
</event>
<event>
 7    1  0.2478637E-008  0.4614232E+02  0.7816164E-02  0.1320468E+00
        -11   -1    0    0    0    0  0.00000000000E+00  0.00000000000E+00  0.45593999997E+02  0.45594000000E+02  0.51100000000E-03 0. -1.
         11   -1    0    0    0    0 -0.00000000000E+00 -0.00000000000E+00 -0.45593999997E+02  0.45594000000E+02  0.51100000000E-03 0.  1.
    9900012    2    1    2    0    0 -0.44178795762E+02  0.80890561967E+01  0.34517583935E+01  0.46142318064E+02  0.10000002760E+02 0.  0.
         12    1    1    2    0    0  0.44178795762E+02 -0.80890561967E+01 -0.34517583935E+01  0.45045681936E+02  0.00000000000E+00 0. -1.
         11    1    3    3    0    0 -0.20563477165E+02  0.11560354902E+01 -0.25052353986E+00  0.20597470075E+02  0.51100000000E-03 0. -1.
        -11    1    3    3    0    0 -0.17580673376E+02  0.47879424402E+01  0.52376351718E+01  0.18958831494E+02  0.51100000000E-03 0.  1.
        -12    1    3    3    0    0 -0.60346452204E+01  0.21450782663E+01 -0.15353532385E+01  0.65860164949E+01  0.00000000000E+00 0.  1.
</event>
<event>
 7    1  0.2478637E-008  0.4614232E+02  0.7816164E-02  0.1320468E+00
        -11   -1    0    0    0    0  0.00000000000E+00  0.00000000000E+00  0.45593999997E+02  0.45594000000E+02  0.51100000000E-03 0.  1.
         11   -1    0    0    0    0 -0.00000000000E+00 -0.00000000000E+00 -0.45593999997E+02  0.45594000000E+02  0.51100000000E-03 0. -1.
    9900012    2    1    2    0    0  0.21420208839E+02 -0.70254091877E+01  0.38999125173E+02  0.46142317796E+02  0.10000000320E+02 0.  0.
         12    1    1    2    0    0 -0.21420208839E+02  0.70254091877E+01 -0.38999125173E+02  0.45045682204E+02  0.00000000000E+00 0. -1.
         11    1    3    3    0    0  0.79570583535E+01 -0.51946840931E+01  0.20435726324E+02  0.22537045749E+02  0.51100000000E-03 0. -1.
        -11    1    3    3    0    0  0.50811993715E+01 -0.32558780467E+01  0.86191465327E+01  0.10521835207E+02  0.51100000000E-03 0.  1.
         12    1    3    3    0    0  0.83819511139E+01  0.14251529521E+01  0.99442523164E+01  0.13083436840E+02  0.00000000000E+00 0. -1.
</event>
<event>
 7    1  0.2478637E-008  0.4614232E+02  0.7816164E-02  0.1320468E+00
        -11   -1    0    0    0    0  0.00000000000E+00  0.00000000000E+00  0.45593999997E+02  0.45594000000E+02  0.51100000000E-03 0.  1.
         11   -1    0    0    0    0 -0.00000000000E+00 -0.00000000000E+00 -0.45593999997E+02  0.45594000000E+02  0.51100000000E-03 0. -1.
    9900012    2    1    2    0    0 -0.35308480250E+02  0.25000817587E+02  0.12545270215E+02  0.46142318049E+02  0.10000002628E+02 0.  0.
         12    1    1    2    0    0  0.35308480250E+02 -0.25000817587E+02 -0.12545270215E+02  0.45045681951E+02  0.00000000000E+00 0. -1.
         11    1    3    3    0    0 -0.37422989236E+01 -0.96638332742E-01  0.19564081729E+01  0.42239405063E+01  0.51100000000E-03 0.  1.
        -11    1    3    3    0    0 -0.51696090743E+01  0.23084267545E+01  0.19881823850E+01  0.60005467684E+01  0.51100000000E-03 0. -1.
        -12    1    3    3    0    0 -0.26396572252E+02  0.22789029166E+02  0.86006796572E+01  0.35917830775E+02  0.00000000000E+00 0.  1.
</event>
<event>
 7    1  0.2478637E-008  0.4614232E+02  0.7816164E-02  0.1320468E+00
        -11   -1    0    0    0    0  0.00000000000E+00  0.00000000000E+00  0.45593999997E+02  0.45594000000E+02  0.51100000000E-03 0.  1.
         11   -1    0    0    0    0 -0.00000000000E+00 -0.00000000000E+00 -0.45593999997E+02  0.45594000000E+02  0.51100000000E-03 0. -1.
    9900012    2    1    2    0    0 -0.44998207122E+02 -0.92119112101E+00  0.18510322862E+01  0.46142316990E+02  0.99999929677E+01 0.  0.
         12    1    1    2    0    0  0.44998207122E+02  0.92119112101E+00 -0.18510322862E+01  0.45045683010E+02  0.00000000000E+00 0. -1.
         11    1    3    3    0    0 -0.24476883233E+02 -0.14754982832E+01 -0.27018280803E+01  0.24669713886E+02  0.51100000000E-03 0. -1.
        -11    1    3    3    0    0 -0.49683619460E+01  0.20077698311E+01  0.96024006442E+00  0.54440629463E+01  0.51100000000E-03 0.  1.
        -12    1    3    3    0    0 -0.15552961944E+02 -0.14534626689E+01  0.35926203021E+01  0.16028540158E+02  0.00000000000E+00 0.  1.
</event>
<event>
 7    1  0.2478637E-008  0.4614232E+02  0.7816164E-02  0.1320468E+00
        -11   -1    0    0    0    0  0.00000000000E+00  0.00000000000E+00  0.45593999997E+02  0.45594000000E+02  0.51100000000E-03 0.  1.
         11   -1    0    0    0    0 -0.00000000000E+00 -0.00000000000E+00 -0.45593999997E+02  0.45594000000E+02  0.51100000000E-03 0. -1.
    9900012    2    1    2    0    0  0.27912119850E+02 -0.81213670105E+01  0.34410324417E+02  0.46142318042E+02  0.10000002559E+02 0.  0.
         12    1    1    2    0    0 -0.27912119850E+02  0.81213670105E+01 -0.34410324417E+02  0.45045681958E+02  0.00000000000E+00 0. -1.
         11    1    3    3    0    0  0.14872639513E+02 -0.10894272079E+01  0.13247246774E+02  0.19946724169E+02  0.51100000000E-03 0. -1.
        -11    1    3    3    0    0  0.19885291272E+01  0.28585570885E+00  0.43080615873E+01  0.47534573183E+01  0.51100000000E-03 0.  1.
         12    1    3    3    0    0  0.11050951210E+02 -0.73177955114E+01  0.16855016056E+02  0.21442136555E+02  0.00000000000E+00 0. -1.
</event>
<event>
 7    1  0.2478637E-008  0.4614232E+02  0.7816164E-02  0.1320468E+00
        -11   -1    0    0    0    0  0.00000000000E+00  0.00000000000E+00  0.45593999997E+02  0.45594000000E+02  0.51100000000E-03 0.  1.
         11   -1    0    0    0    0 -0.00000000000E+00 -0.00000000000E+00 -0.45593999997E+02  0.45594000000E+02  0.51100000000E-03 0. -1.
    9900012    2    1    2    0    0 -0.19708123829E+02 -0.11048686846E+02  0.38969601282E+02  0.46142318187E+02  0.10000003886E+02 0.  0.
         12    1    1    2    0    0  0.19708123829E+02  0.11048686846E+02 -0.38969601282E+02  0.45045681813E+02  0.00000000000E+00 0. -1.
         11    1    3    3    0    0 -0.14597312479E+02 -0.29362444939E+01  0.24543306210E+02  0.28706740381E+02  0.51100000000E-03 0. -1.
        -11    1    3    3    0    0 -0.22724888611E+01 -0.31540849312E+01  0.75785906968E+01  0.85174817046E+01  0.51100000000E-03 0.  1.
         12    1    3    3    0    0 -0.28383224885E+01 -0.49583574205E+01  0.68477043757E+01  0.89180961015E+01  0.00000000000E+00 0. -1.
</event>
<event>
 7    1  0.2478637E-008  0.4614232E+02  0.7816164E-02  0.1320468E+00
        -11   -1    0    0    0    0  0.00000000000E+00  0.00000000000E+00  0.45593999997E+02  0.45594000000E+02  0.51100000000E-03 0.  1.
         11   -1    0    0    0    0 -0.00000000000E+00 -0.00000000000E+00 -0.45593999997E+02  0.45594000000E+02  0.51100000000E-03 0. -1.
    9900012    2    1    2    0    0  0.13983522046E+02 -0.41836689868E+02  0.91250104586E+01  0.46142319588E+02  0.10000016658E+02 0.  0.
         12    1    1    2    0    0 -0.13983522046E+02  0.41836689868E+02 -0.91250104586E+01  0.45045680412E+02  0.00000000000E+00 0. -1.
         11    1    3    3    0    0  0.11765185231E+01 -0.16414992037E+02  0.31996277185E+01  0.16765255059E+02  0.51100000000E-03 0. -1.
        -11    1    3    3    0    0  0.59486755191E+01 -0.14827459290E+02  0.16921245132E+01  0.16065602231E+02  0.51100000000E-03 0.  1.
        -12    1    3    3    0    0  0.68583280033E+01 -0.10594238541E+02  0.42332582269E+01  0.13311462297E+02  0.00000000000E+00 0.  1.
</event>
<event>
 7    1  0.2478637E-008  0.4614232E+02  0.7816164E-02  0.1320468E+00
        -11   -1    0    0    0    0  0.00000000000E+00  0.00000000000E+00  0.45593999997E+02  0.45594000000E+02  0.51100000000E-03 0.  1.
         11   -1    0    0    0    0 -0.00000000000E+00 -0.00000000000E+00 -0.45593999997E+02  0.45594000000E+02  0.51100000000E-03 0. -1.
    9900012    2    1    2    0    0 -0.37275769317E+02  0.14154925377E+02  0.20958734955E+02  0.46142318059E+02  0.10000002716E+02 0.  0.
         12    1    1    2    0    0  0.37275769317E+02 -0.14154925377E+02 -0.20958734955E+02  0.45045681941E+02  0.00000000000E+00 0. -1.
         11    1    3    3    0    0 -0.16675227506E+02  0.48637603577E+01  0.56127708934E+01  0.18254385077E+02  0.51100000000E-03 0. -1.
        -11    1    3    3    0    0 -0.18818407844E+02  0.95728639862E+01  0.15315762741E+02  0.26083419777E+02  0.51100000000E-03 0.  1.
        -12    1    3    3    0    0 -0.17821339673E+01 -0.28169896714E+00  0.30201321443E-01  0.18045132046E+01  0.00000000000E+00 0.  1.
</event>
<event>
 7    1  0.2478637E-008  0.4614232E+02  0.7816164E-02  0.1320468E+00
        -11   -1    0    0    0    0  0.00000000000E+00  0.00000000000E+00  0.45593999997E+02  0.45594000000E+02  0.51100000000E-03 0.  1.
         11   -1    0    0    0    0 -0.00000000000E+00 -0.00000000000E+00 -0.45593999997E+02  0.45594000000E+02  0.51100000000E-03 0. -1.
    9900012    2    1    2    0    0 -0.44406082900E+02 -0.51226297706E+00  0.75465752193E+01  0.46142318638E+02  0.10000007992E+02 0.  0.
         12    1    1    2    0    0  0.44406082900E+02  0.51226297706E+00 -0.75465752193E+01  0.45045681362E+02  0.00000000000E+00 0. -1.
         11    1    3    3    0    0 -0.34249668342E+00 -0.24319977494E+00 -0.92020598834E+00  0.10115480368E+01  0.51100000000E-03 0. -1.
        -11    1    3    3    0    0 -0.16373099784E+02 -0.21559288123E+01  0.42997406884E+01  0.17064999145E+02  0.51100000000E-03 0.  1.
        -12    1    3    3    0    0 -0.27690486432E+02  0.18868656102E+01  0.41670405193E+01  0.28065771455E+02  0.00000000000E+00 0.  1.
</event>
<event>
 7    1  0.2478637E-008  0.4614232E+02  0.7816164E-02  0.1320468E+00
        -11   -1    0    0    0    0  0.00000000000E+00  0.00000000000E+00  0.45593999997E+02  0.45594000000E+02  0.51100000000E-03 0. -1.
         11   -1    0    0    0    0 -0.00000000000E+00 -0.00000000000E+00 -0.45593999997E+02  0.45594000000E+02  0.51100000000E-03 0.  1.
    9900012    2    1    2    0    0 -0.29473678841E+01 -0.42875804782E+02  0.13494140468E+02  0.46142318296E+02  0.10000004882E+02 0.  0.
         12    1    1    2    0    0  0.29473678841E+01  0.42875804782E+02 -0.13494140468E+02  0.45045681704E+02  0.00000000000E+00 0. -1.
         11    1    3    3    0    0  0.10660840142E+01 -0.29096929907E+02  0.88087496948E+01  0.30419762270E+02  0.51100000000E-03 0. -1.
        -11    1    3    3    0    0 -0.20724194295E+00 -0.84524374473E+01  0.24092110764E+01  0.87915269604E+01  0.51100000000E-03 0.  1.
         12    1    3    3    0    0 -0.38062099554E+01 -0.53264374281E+01  0.22761796969E+01  0.69310290660E+01  0.00000000000E+00 0. -1.
</event>
<event>
 7    1  0.2478637E-008  0.4614232E+02  0.7816164E-02  0.1320468E+00
        -11   -1    0    0    0    0  0.00000000000E+00  0.00000000000E+00  0.45593999997E+02  0.45594000000E+02  0.51100000000E-03 0.  1.
         11   -1    0    0    0    0 -0.00000000000E+00 -0.00000000000E+00 -0.45593999997E+02  0.45594000000E+02  0.51100000000E-03 0. -1.
    9900012    2    1    2    0    0  0.18690711213E+02 -0.39560727915E+00  0.40983097265E+02  0.46142318163E+02  0.10000003663E+02 0.  0.
         12    1    1    2    0    0 -0.18690711213E+02  0.39560727915E+00 -0.40983097265E+02  0.45045681837E+02  0.00000000000E+00 0. -1.
         11    1    3    3    0    0  0.11968006991E+01 -0.69170947328E+00  0.97089787298E+00  0.16892119019E+01  0.51100000000E-03 0. -1.
        -11    1    3    3    0    0  0.13485996247E+02 -0.17838716578E+01  0.21855129672E+02  0.25742979356E+02  0.51100000000E-03 0.  1.
        -12    1    3    3    0    0  0.40079142661E+01  0.20799738520E+01  0.18157069719E+02  0.18710126905E+02  0.00000000000E+00 0.  1.
</event>
<event>
 7    1  0.2478637E-008  0.4614232E+02  0.7816164E-02  0.1320468E+00
        -11   -1    0    0    0    0  0.00000000000E+00  0.00000000000E+00  0.45593999997E+02  0.45594000000E+02  0.51100000000E-03 0. -1.
         11   -1    0    0    0    0 -0.00000000000E+00 -0.00000000000E+00 -0.45593999997E+02  0.45594000000E+02  0.51100000000E-03 0.  1.
    9900012    2    1    2    0    0  0.23776960106E+02 -0.37800922899E+02  0.59042430393E+01  0.46142315525E+02  0.99999796121E+01 0.  0.
         12    1    1    2    0    0 -0.23776960106E+02  0.37800922899E+02 -0.59042430393E+01  0.45045684475E+02  0.00000000000E+00 0. -1.
         11    1    3    3    0    0  0.16304604737E+01 -0.33948482782E+01  0.16089318268E+00  0.37695202700E+01  0.51100000000E-03 0.  1.
        -11    1    3    3    0    0  0.42649100349E+01 -0.11330142061E+02 -0.17526158105E+01  0.12232466602E+02  0.51100000000E-03 0. -1.
        -12    1    3    3    0    0  0.17881589597E+02 -0.23075932560E+02  0.74959656671E+01  0.30140328654E+02  0.00000000000E+00 0.  1.
</event>
<event>
 7    1  0.2478637E-008  0.4614232E+02  0.7816164E-02  0.1320468E+00
        -11   -1    0    0    0    0  0.00000000000E+00  0.00000000000E+00  0.45593999997E+02  0.45594000000E+02  0.51100000000E-03 0.  1.
         11   -1    0    0    0    0 -0.00000000000E+00 -0.00000000000E+00 -0.45593999997E+02  0.45594000000E+02  0.51100000000E-03 0. -1.
    9900012    2    1    2    0    0 -0.36852195912E+02 -0.85464485641E+01 -0.24453780296E+02  0.46142317661E+02  0.99999990863E+01 0.  0.
         12    1    1    2    0    0  0.36852195912E+02  0.85464485641E+01  0.24453780296E+02  0.45045682339E+02  0.00000000000E+00 0. -1.
         11    1    3    3    0    0 -0.17405351454E+02 -0.94660701529E+00 -0.99963586783E+01  0.20094016800E+02  0.51100000000E-03 0.  1.
        -11    1    3    3    0    0 -0.16652573936E+02 -0.73787952443E+01 -0.99888002097E+01  0.20773323467E+02  0.51100000000E-03 0. -1.
         12    1    3    3    0    0 -0.27942705223E+01 -0.22104630453E+00 -0.44686214083E+01  0.52749773944E+01  0.00000000000E+00 0. -1.
</event>
<event>
 7    1  0.2478637E-008  0.4614232E+02  0.7816164E-02  0.1320468E+00
        -11   -1    0    0    0    0  0.00000000000E+00  0.00000000000E+00  0.45593999997E+02  0.45594000000E+02  0.51100000000E-03 0.  1.
         11   -1    0    0    0    0 -0.00000000000E+00 -0.00000000000E+00 -0.45593999997E+02  0.45594000000E+02  0.51100000000E-03 0. -1.
    9900012    2    1    2    0    0  0.24199498864E+02 -0.66211935919E+01  0.37411998306E+02  0.46142316888E+02  0.99999920352E+01 0.  0.
         12    1    1    2    0    0 -0.24199498864E+02  0.66211935919E+01 -0.37411998306E+02  0.45045683112E+02  0.00000000000E+00 0. -1.
         11    1    3    3    0    0  0.73638097139E+01  0.15767383321E-01  0.15345226211E+02  0.17020631887E+02  0.51100000000E-03 0. -1.
        -11    1    3    3    0    0  0.15025817797E+01  0.71656259070E+00  0.38858733768E+01  0.42274372985E+01  0.51100000000E-03 0.  1.
         12    1    3    3    0    0  0.15333107370E+02 -0.73535235659E+01  0.18180898718E+02  0.24894247702E+02  0.00000000000E+00 0. -1.
</event>
<event>
 7    1  0.2478637E-008  0.4614231E+02  0.7816164E-02  0.1320468E+00
        -11   -1    0    0    0    0  0.00000000000E+00  0.00000000000E+00  0.45593999997E+02  0.45594000000E+02  0.51100000000E-03 0.  1.
         11   -1    0    0    0    0 -0.00000000000E+00 -0.00000000000E+00 -0.45593999997E+02  0.45594000000E+02  0.51100000000E-03 0. -1.
    9900012    2    1    2    0    0 -0.38545135834E+02 -0.22132012103E+02  0.73184974159E+01  0.46142313629E+02  0.99999623222E+01 0.  0.
         12    1    1    2    0    0  0.38545135834E+02  0.22132012103E+02 -0.73184974159E+01  0.45045686371E+02  0.00000000000E+00 0. -1.
         11    1    3    3    0    0 -0.13930722504E+01 -0.21702250286E+00 -0.10593465319E+01  0.17635091146E+01  0.51100000000E-03 0. -1.
        -11    1    3    3    0    0 -0.95646776149E+01 -0.83955901686E+01  0.40373790550E+01  0.13351757265E+02  0.51100000000E-03 0.  1.
        -12    1    3    3    0    0 -0.27587385969E+02 -0.13519399432E+02  0.43404648928E+01  0.31027047250E+02  0.00000000000E+00 0.  1.
</event>
<event>
 7    1  0.2478637E-008  0.4614232E+02  0.7816164E-02  0.1320468E+00
        -11   -1    0    0    0    0  0.00000000000E+00  0.00000000000E+00  0.45593999997E+02  0.45594000000E+02  0.51100000000E-03 0. -1.
         11   -1    0    0    0    0 -0.00000000000E+00 -0.00000000000E+00 -0.45593999997E+02  0.45594000000E+02  0.51100000000E-03 0.  1.
    9900012    2    1    2    0    0 -0.44071178383E+02 -0.44733086143E+01  0.81752318606E+01  0.46142315745E+02  0.99999816193E+01 0.  0.
         12    1    1    2    0    0  0.44071178383E+02  0.44733086143E+01 -0.81752318606E+01  0.45045684255E+02  0.00000000000E+00 0. -1.
         11    1    3    3    0    0 -0.22679678995E+01 -0.63845877472E+00  0.37620534633E+00  0.23859670416E+01  0.51100000000E-03 0. -1.
        -11    1    3    3    0    0 -0.38626173229E+02 -0.61522801453E+01  0.68105159237E+01  0.39701573479E+02  0.51100000000E-03 0.  1.
         12    1    3    3    0    0 -0.31770372542E+01  0.23174303057E+01  0.98851059056E+00  0.40547752248E+01  0.00000000000E+00 0. -1.
</event>
<event>
 7    1  0.2478637E-008  0.4614232E+02  0.7816164E-02  0.1320468E+00
        -11   -1    0    0    0    0  0.00000000000E+00  0.00000000000E+00  0.45593999997E+02  0.45594000000E+02  0.51100000000E-03 0.  1.
         11   -1    0    0    0    0 -0.00000000000E+00 -0.00000000000E+00 -0.45593999997E+02  0.45594000000E+02  0.51100000000E-03 0. -1.
    9900012    2    1    2    0    0  0.37773539822E+02  0.24079284097E+02 -0.47393454439E+01  0.46142316206E+02  0.99999858170E+01 0.  0.
         12    1    1    2    0    0 -0.37773539822E+02 -0.24079284097E+02  0.47393454439E+01  0.45045683794E+02  0.00000000000E+00 0. -1.
         11    1    3    3    0    0  0.98314883532E+01  0.66198533934E+01 -0.18851750009E+01  0.12001437715E+02  0.51100000000E-03 0. -1.
        -11    1    3    3    0    0  0.10884017031E+02  0.11779450569E+02 -0.16237776826E+01  0.16119985628E+02  0.51100000000E-03 0.  1.
         12    1    3    3    0    0  0.17058034438E+02  0.56799801340E+01 -0.12303927604E+01  0.18020892862E+02  0.00000000000E+00 0. -1.
</event>
<event>
 7    1  0.2478637E-008  0.4614232E+02  0.7816164E-02  0.1320468E+00
        -11   -1    0    0    0    0  0.00000000000E+00  0.00000000000E+00  0.45593999997E+02  0.45594000000E+02  0.51100000000E-03 0.  1.
         11   -1    0    0    0    0 -0.00000000000E+00 -0.00000000000E+00 -0.45593999997E+02  0.45594000000E+02  0.51100000000E-03 0. -1.
    9900012    2    1    2    0    0  0.33329309800E+02 -0.30287287536E+02 -0.97510576505E+00  0.46142317529E+02  0.99999978866E+01 0.  0.
         12    1    1    2    0    0 -0.33329309800E+02  0.30287287536E+02  0.97510576505E+00  0.45045682471E+02  0.00000000000E+00 0. -1.
         11    1    3    3    0    0  0.15258230338E+02 -0.12726138109E+02 -0.39563835777E+01  0.20258853756E+02  0.51100000000E-03 0. -1.
        -11    1    3    3    0    0  0.12434203361E+02 -0.89798529424E+01  0.29361602637E+01  0.15616280269E+02  0.51100000000E-03 0.  1.
        -12    1    3    3    0    0  0.56368761007E+01 -0.85812964836E+01  0.45117548959E-01  0.10267183504E+02  0.00000000000E+00 0.  1.
</event>
<event>
 7    1  0.2478637E-008  0.4614232E+02  0.7816164E-02  0.1320468E+00
        -11   -1    0    0    0    0  0.00000000000E+00  0.00000000000E+00  0.45593999997E+02  0.45594000000E+02  0.51100000000E-03 0.  1.
         11   -1    0    0    0    0 -0.00000000000E+00 -0.00000000000E+00 -0.45593999997E+02  0.45594000000E+02  0.51100000000E-03 0. -1.
    9900012    2    1    2    0    0 -0.51937689652E+01  0.52678388829E+01  0.44434086637E+02  0.46142318544E+02  0.10000007138E+02 0.  0.
         12    1    1    2    0    0  0.51937689652E+01 -0.52678388829E+01 -0.44434086637E+02  0.45045681456E+02  0.00000000000E+00 0. -1.
         11    1    3    3    0    0 -0.22738628327E-01 -0.12012578229E+01  0.79171627761E+00  0.14388718941E+01  0.51100000000E-03 0. -1.
        -11    1    3    3    0    0 -0.37426334889E+00  0.39482481474E+01  0.13213449884E+02  0.13795796265E+02  0.51100000000E-03 0.  1.
        -12    1    3    3    0    0 -0.47967669880E+01  0.25208485584E+01  0.30428920476E+02  0.30907650385E+02  0.00000000000E+00 0.  1.
</event>
<event>
 7    1  0.2478637E-008  0.4614232E+02  0.7816164E-02  0.1320468E+00
        -11   -1    0    0    0    0  0.00000000000E+00  0.00000000000E+00  0.45593999997E+02  0.45594000000E+02  0.51100000000E-03 0. -1.
         11   -1    0    0    0    0 -0.00000000000E+00 -0.00000000000E+00 -0.45593999997E+02  0.45594000000E+02  0.51100000000E-03 0.  1.
    9900012    2    1    2    0    0 -0.34359300559E+02 -0.13071209021E+02 -0.26032584551E+02  0.46142317648E+02  0.99999989684E+01 0.  0.
         12    1    1    2    0    0  0.34359300559E+02  0.13071209021E+02  0.26032584551E+02  0.45045682352E+02  0.00000000000E+00 0. -1.
         11    1    3    3    0    0 -0.62904891719E+01 -0.54753300344E+01 -0.29661480423E+01  0.88514138688E+01  0.51100000000E-03 0. -1.
        -11    1    3    3    0    0 -0.17041522443E+02 -0.54458983681E+01 -0.12152383632E+02  0.21627568620E+02  0.51100000000E-03 0.  1.
         12    1    3    3    0    0 -0.11027288944E+02 -0.21499806180E+01 -0.10914052877E+02  0.15663335159E+02  0.00000000000E+00 0. -1.
</event>
<event>
 7    1  0.2478637E-008  0.4614232E+02  0.7816164E-02  0.1320468E+00
        -11   -1    0    0    0    0  0.00000000000E+00  0.00000000000E+00  0.45593999997E+02  0.45594000000E+02  0.51100000000E-03 0.  1.
         11   -1    0    0    0    0 -0.00000000000E+00 -0.00000000000E+00 -0.45593999997E+02  0.45594000000E+02  0.51100000000E-03 0. -1.
    9900012    2    1    2    0    0  0.37115621694E+02  0.25166260026E+02 -0.42665516446E+01  0.46142317850E+02  0.10000000807E+02 0.  0.
         12    1    1    2    0    0 -0.37115621694E+02 -0.25166260026E+02  0.42665516446E+01  0.45045682150E+02  0.00000000000E+00 0. -1.
         11    1    3    3    0    0  0.28841910525E+02  0.20350089166E+02 -0.49783819121E+01  0.35647808047E+02  0.51100000000E-03 0. -1.
        -11    1    3    3    0    0  0.49816040882E+01  0.76411758354E+00 -0.69472395238E+00  0.50875236219E+01  0.51100000000E-03 0.  1.
         12    1    3    3    0    0  0.32921070812E+01  0.40520532761E+01  0.14065542199E+01  0.54069861809E+01  0.00000000000E+00 0. -1.
</event>
<event>
 7    1  0.2478637E-008  0.4614232E+02  0.7816164E-02  0.1320468E+00
        -11   -1    0    0    0    0  0.00000000000E+00  0.00000000000E+00  0.45593999997E+02  0.45594000000E+02  0.51100000000E-03 0. -1.
         11   -1    0    0    0    0 -0.00000000000E+00 -0.00000000000E+00 -0.45593999997E+02  0.45594000000E+02  0.51100000000E-03 0.  1.
    9900012    2    1    2    0    0 -0.29112265844E+02  0.43029642757E+01 -0.34103870949E+02  0.46142317212E+02  0.99999949935E+01 0.  0.
         12    1    1    2    0    0  0.29112265844E+02 -0.43029642757E+01  0.34103870949E+02  0.45045682788E+02  0.00000000000E+00 0. -1.
         11    1    3    3    0    0 -0.14787514801E+02  0.18945262805E+01 -0.17178527161E+02  0.22745584615E+02  0.51100000000E-03 0.  1.
        -11    1    3    3    0    0 -0.97420208647E+01  0.44827836389E+01 -0.89524055009E+01  0.13969534144E+02  0.51100000000E-03 0. -1.
         12    1    3    3    0    0 -0.45827301777E+01 -0.20743456437E+01 -0.79729382878E+01  0.94271984530E+01  0.00000000000E+00 0. -1.
</event>
<event>
 7    1  0.2478637E-008  0.4614232E+02  0.7816164E-02  0.1320468E+00
        -11   -1    0    0    0    0  0.00000000000E+00  0.00000000000E+00  0.45593999997E+02  0.45594000000E+02  0.51100000000E-03 0.  1.
         11   -1    0    0    0    0 -0.00000000000E+00 -0.00000000000E+00 -0.45593999997E+02  0.45594000000E+02  0.51100000000E-03 0. -1.
    9900012    2    1    2    0    0  0.10347918482E+02  0.15245193372E+02  0.41104964458E+02  0.46142318288E+02  0.10000004801E+02 0.  0.
         12    1    1    2    0    0 -0.10347918482E+02 -0.15245193372E+02 -0.41104964458E+02  0.45045681712E+02  0.00000000000E+00 0. -1.
         11    1    3    3    0    0  0.95386882007E+01  0.92763691421E+01  0.27451743141E+02  0.30506323915E+02  0.51100000000E-03 0. -1.
        -11    1    3    3    0    0  0.20351118822E+01  0.34269534305E+01  0.11230051613E+02  0.11916364784E+02  0.51100000000E-03 0.  1.
         12    1    3    3    0    0 -0.12258816009E+01  0.25418707997E+01  0.24231697038E+01  0.37196295884E+01  0.00000000000E+00 0. -1.
</event>
<event>
 7    1  0.2478637E-008  0.4614232E+02  0.7816164E-02  0.1320468E+00
        -11   -1    0    0    0    0  0.00000000000E+00  0.00000000000E+00  0.45593999997E+02  0.45594000000E+02  0.51100000000E-03 0. -1.
         11   -1    0    0    0    0 -0.00000000000E+00 -0.00000000000E+00 -0.45593999997E+02  0.45594000000E+02  0.51100000000E-03 0.  1.
    9900012    2    1    2    0    0 -0.25411854923E+01 -0.30839723369E+02 -0.32734802970E+02  0.46142317780E+02  0.10000000173E+02 0.  0.
         12    1    1    2    0    0  0.25411854923E+01  0.30839723369E+02  0.32734802970E+02  0.45045682220E+02  0.00000000000E+00 0. -1.
         11    1    3    3    0    0  0.23546693919E+01 -0.15692920966E+02 -0.18158997984E+02  0.24115585094E+02  0.51100000000E-03 0. -1.
        -11    1    3    3    0    0 -0.38625787948E+01 -0.14198874585E+02 -0.14442353256E+02  0.20618174562E+02  0.51100000000E-03 0.  1.
        -12    1    3    3    0    0 -0.10332760894E+01 -0.94792781809E+00 -0.13345172980E+00  0.14085581243E+01  0.00000000000E+00 0.  1.
</event>
<event>
 7    1  0.2478637E-008  0.4614232E+02  0.7816164E-02  0.1320468E+00
        -11   -1    0    0    0    0  0.00000000000E+00  0.00000000000E+00  0.45593999997E+02  0.45594000000E+02  0.51100000000E-03 0.  1.
         11   -1    0    0    0    0 -0.00000000000E+00 -0.00000000000E+00 -0.45593999997E+02  0.45594000000E+02  0.51100000000E-03 0. -1.
    9900012    2    1    2    0    0  0.69358435537E+01 -0.25760461614E+01  0.44433899415E+02  0.46142319221E+02  0.10000013314E+02 0.  0.
         12    1    1    2    0    0 -0.69358435537E+01  0.25760461614E+01 -0.44433899415E+02  0.45045680779E+02  0.00000000000E+00 0. -1.
         11    1    3    3    0    0  0.33975991986E+01 -0.54979292884E+01  0.23157200068E+02  0.24042188378E+02  0.51100000000E-03 0. -1.
        -11    1    3    3    0    0  0.30164075400E+01  0.23391451456E+01  0.20874352266E+02  0.21220482965E+02  0.51100000000E-03 0.  1.
         12    1    3    3    0    0  0.52183681503E+00  0.58273798142E+00  0.40234708096E+00  0.87964787845E+00  0.00000000000E+00 0. -1.
</event>
<event>
 7    1  0.2478637E-008  0.4614233E+02  0.7816164E-02  0.1320468E+00
        -11   -1    0    0    0    0  0.00000000000E+00  0.00000000000E+00  0.45593999997E+02  0.45594000000E+02  0.51100000000E-03 0.  1.
         11   -1    0    0    0    0 -0.00000000000E+00 -0.00000000000E+00 -0.45593999997E+02  0.45594000000E+02  0.51100000000E-03 0. -1.
    9900012    2    1    2    0    0 -0.27027269381E+02  0.25100535112E+02  0.25857347896E+02  0.46142327696E+02  0.10000090596E+02 0.  0.
         12    1    1    2    0    0  0.27027269381E+02 -0.25100535112E+02 -0.25857347896E+02  0.45045672304E+02  0.00000000000E+00 0. -1.
         11    1    3    3    0    0 -0.22432609869E+01  0.71986518551E+01  0.54838903319E+01  0.93234039825E+01  0.51100000000E-03 0. -1.
        -11    1    3    3    0    0 -0.20211836616E+02  0.15615855915E+02  0.17399490316E+02  0.30904943923E+02  0.51100000000E-03 0.  1.
         12    1    3    3    0    0 -0.45721717785E+01  0.22860273421E+01  0.29739672473E+01  0.59139797911E+01  0.00000000000E+00 0. -1.
</event>
<event>
 7    1  0.2478637E-008  0.4614232E+02  0.7816164E-02  0.1320468E+00
        -11   -1    0    0    0    0  0.00000000000E+00  0.00000000000E+00  0.45593999997E+02  0.45594000000E+02  0.51100000000E-03 0.  1.
         11   -1    0    0    0    0 -0.00000000000E+00 -0.00000000000E+00 -0.45593999997E+02  0.45594000000E+02  0.51100000000E-03 0. -1.
    9900012    2    1    2    0    0 -0.38546502865E+02 -0.11826486086E+01  0.23278358559E+02  0.46142317432E+02  0.99999969951E+01 0.  0.
         12    1    1    2    0    0  0.38546502865E+02  0.11826486086E+01 -0.23278358559E+02  0.45045682568E+02  0.00000000000E+00 0. -1.
         11    1    3    3    0    0 -0.50812896317E+01  0.19340512603E+00  0.20115411235E+01  0.54683825594E+01  0.51100000000E-03 0. -1.
        -11    1    3    3    0    0 -0.24827631724E+02  0.24416223416E+00  0.10991361883E+02  0.27152917864E+02  0.51100000000E-03 0.  1.
         12    1    3    3    0    0 -0.86375815086E+01 -0.16202159688E+01  0.10275455553E+02  0.13521017008E+02  0.00000000000E+00 0. -1.
</event>
<event>
 7    1  0.2478637E-008  0.4614232E+02  0.7816164E-02  0.1320468E+00
        -11   -1    0    0    0    0  0.00000000000E+00  0.00000000000E+00  0.45593999997E+02  0.45594000000E+02  0.51100000000E-03 0. -1.
         11   -1    0    0    0    0 -0.00000000000E+00 -0.00000000000E+00 -0.45593999997E+02  0.45594000000E+02  0.51100000000E-03 0.  1.
    9900012    2    1    2    0    0 -0.10594496617E+02 -0.31039127824E+02 -0.30877865987E+02  0.46142318491E+02  0.10000006656E+02 0.  0.
         12    1    1    2    0    0  0.10594496617E+02  0.31039127824E+02  0.30877865987E+02  0.45045681509E+02  0.00000000000E+00 0. -1.
         11    1    3    3    0    0 -0.40387270046E+01 -0.45768302841E+01 -0.37136190678E+01  0.71449043456E+01  0.51100000000E-03 0. -1.
        -11    1    3    3    0    0 -0.36993242073E+01 -0.17764289527E+02 -0.21886092841E+02  0.28429844215E+02  0.51100000000E-03 0.  1.
        -12    1    3    3    0    0 -0.28564454054E+01 -0.86980080135E+01 -0.52781540786E+01  0.10567569930E+02  0.00000000000E+00 0.  1.
</event>
<event>
 7    1  0.2478637E-008  0.4614232E+02  0.7816164E-02  0.1320468E+00
        -11   -1    0    0    0    0  0.00000000000E+00  0.00000000000E+00  0.45593999997E+02  0.45594000000E+02  0.51100000000E-03 0. -1.
         11   -1    0    0    0    0 -0.00000000000E+00 -0.00000000000E+00 -0.45593999997E+02  0.45594000000E+02  0.51100000000E-03 0.  1.
    9900012    2    1    2    0    0 -0.19777196783E+02 -0.28024511704E+02 -0.29199361136E+02  0.46142318080E+02  0.10000002912E+02 0.  0.
         12    1    1    2    0    0  0.19777196783E+02  0.28024511704E+02  0.29199361136E+02  0.45045681920E+02  0.00000000000E+00 0. -1.
         11    1    3    3    0    0 -0.27620337342E+01 -0.49479781394E+01 -0.41342313699E+01  0.70144983640E+01  0.51100000000E-03 0. -1.
        -11    1    3    3    0    0 -0.16167823538E+02 -0.18486510558E+02 -0.24003156929E+02  0.34340954171E+02  0.51100000000E-03 0.  1.
         12    1    3    3    0    0 -0.84733951092E+00 -0.45900230057E+01 -0.10619728375E+01  0.47868655452E+01  0.00000000000E+00 0. -1.
</event>
<event>
 7    1  0.2478637E-008  0.4614232E+02  0.7816164E-02  0.1320468E+00
        -11   -1    0    0    0    0  0.00000000000E+00  0.00000000000E+00  0.45593999997E+02  0.45594000000E+02  0.51100000000E-03 0.  1.
         11   -1    0    0    0    0 -0.00000000000E+00 -0.00000000000E+00 -0.45593999997E+02  0.45594000000E+02  0.51100000000E-03 0. -1.
    9900012    2    1    2    0    0 -0.19549317111E+02  0.12540426826E+02  0.38596313186E+02  0.46142317676E+02  0.99999992241E+01 0.  0.
         12    1    1    2    0    0  0.19549317111E+02 -0.12540426826E+02 -0.38596313186E+02  0.45045682324E+02  0.00000000000E+00 0. -1.
         11    1    3    3    0    0 -0.62536033814E+01  0.11755103850E+01  0.11443568634E+02  0.13093687153E+02  0.51100000000E-03 0. -1.
        -11    1    3    3    0    0 -0.11851446518E+01 -0.76944323797E+00  0.39812419521E+01  0.42245589692E+01  0.51100000000E-03 0.  1.
        -12    1    3    3    0    0 -0.12110569077E+02  0.12134359679E+02  0.23171502600E+02  0.28824071554E+02  0.00000000000E+00 0.  1.
</event>
<event>
 7    1  0.2478637E-008  0.4614232E+02  0.7816164E-02  0.1320468E+00
        -11   -1    0    0    0    0  0.00000000000E+00  0.00000000000E+00  0.45593999997E+02  0.45594000000E+02  0.51100000000E-03 0.  1.
         11   -1    0    0    0    0 -0.00000000000E+00 -0.00000000000E+00 -0.45593999997E+02  0.45594000000E+02  0.51100000000E-03 0. -1.
    9900012    2    1    2    0    0 -0.64172279216E+01  0.37449092377E+02  0.24197071252E+02  0.46142316619E+02  0.99999895899E+01 0.  0.
         12    1    1    2    0    0  0.64172279216E+01 -0.37449092377E+02 -0.24197071252E+02  0.45045683381E+02  0.00000000000E+00 0. -1.
         11    1    3    3    0    0 -0.23369076729E+01  0.47516215834E+01  0.55180490218E+01  0.76477389084E+01  0.51100000000E-03 0. -1.
        -11    1    3    3    0    0  0.20231589217E+00  0.16779862863E+02  0.12358148682E+02  0.20840551061E+02  0.51100000000E-03 0.  1.
        -12    1    3    3    0    0 -0.42826361409E+01  0.15917607931E+02  0.63208735476E+01  0.17654026650E+02  0.00000000000E+00 0.  1.
</event>
<event>
 7    1  0.2478637E-008  0.4614232E+02  0.7816164E-02  0.1320468E+00
        -11   -1    0    0    0    0  0.00000000000E+00  0.00000000000E+00  0.45593999997E+02  0.45594000000E+02  0.51100000000E-03 0. -1.
         11   -1    0    0    0    0 -0.00000000000E+00 -0.00000000000E+00 -0.45593999997E+02  0.45594000000E+02  0.51100000000E-03 0.  1.
    9900012    2    1    2    0    0  0.37705797078E+02  0.11373122561E+02  0.21864087957E+02  0.46142318828E+02  0.10000009732E+02 0.  0.
         12    1    1    2    0    0 -0.37705797078E+02 -0.11373122561E+02 -0.21864087957E+02  0.45045681172E+02  0.00000000000E+00 0. -1.
         11    1    3    3    0    0  0.71917967368E+01  0.33153536373E+01  0.47462628481E+01  0.92325793432E+01  0.51100000000E-03 0. -1.
        -11    1    3    3    0    0  0.74540519086E+00  0.58904627998E+00 -0.90990482976E+00  0.13154966662E+01  0.51100000000E-03 0.  1.
        -12    1    3    3    0    0  0.29768595150E+02  0.74687226437E+01  0.18027729938E+02  0.35594242819E+02  0.00000000000E+00 0.  1.
</event>
<event>
 7    1  0.2478637E-008  0.4614232E+02  0.7816164E-02  0.1320468E+00
        -11   -1    0    0    0    0  0.00000000000E+00  0.00000000000E+00  0.45593999997E+02  0.45594000000E+02  0.51100000000E-03 0.  1.
         11   -1    0    0    0    0 -0.00000000000E+00 -0.00000000000E+00 -0.45593999997E+02  0.45594000000E+02  0.51100000000E-03 0. -1.
    9900012    2    1    2    0    0 -0.34101251069E+02 -0.22071524829E+02  0.19469620673E+02  0.46142315835E+02  0.99999824358E+01 0.  0.
         12    1    1    2    0    0  0.34101251069E+02  0.22071524829E+02 -0.19469620673E+02  0.45045684165E+02  0.00000000000E+00 0. -1.
         11    1    3    3    0    0 -0.14521283981E+01  0.68169241468E+00 -0.38932526805E+00  0.16507440317E+01  0.51100000000E-03 0. -1.
        -11    1    3    3    0    0 -0.11964862931E+02 -0.82186109964E+01  0.66079974055E+01  0.15948954249E+02  0.51100000000E-03 0.  1.
         12    1    3    3    0    0 -0.20684259740E+02 -0.14534606248E+02  0.13250948535E+02  0.28542617554E+02  0.00000000000E+00 0. -1.
</event>
<event>
 7    1  0.2478637E-008  0.4614233E+02  0.7816164E-02  0.1320468E+00
        -11   -1    0    0    0    0  0.00000000000E+00  0.00000000000E+00  0.45593999997E+02  0.45594000000E+02  0.51100000000E-03 0.  1.
         11   -1    0    0    0    0 -0.00000000000E+00 -0.00000000000E+00 -0.45593999997E+02  0.45594000000E+02  0.51100000000E-03 0. -1.
    9900012    2    1    2    0    0  0.41523080807E+02 -0.51544777541E+01  0.16684654320E+02  0.46142327950E+02  0.10000092911E+02 0.  0.
         12    1    1    2    0    0 -0.41523080807E+02  0.51544777541E+01 -0.16684654320E+02  0.45045672050E+02  0.00000000000E+00 0. -1.
         11    1    3    3    0    0  0.71066673291E+01  0.48100955135E+00  0.10805705768E+01  0.72044239011E+01  0.51100000000E-03 0. -1.
        -11    1    3    3    0    0  0.94039947352E+01  0.14208618453E+01  0.59247417351E+01  0.11205201036E+02  0.51100000000E-03 0.  1.
        -12    1    3    3    0    0  0.25012418743E+02 -0.70563491507E+01  0.96793420083E+01  0.27732703013E+02  0.00000000000E+00 0.  1.
</event>
<event>
 7    1  0.2478637E-008  0.4614232E+02  0.7816164E-02  0.1320468E+00
        -11   -1    0    0    0    0  0.00000000000E+00  0.00000000000E+00  0.45593999997E+02  0.45594000000E+02  0.51100000000E-03 0.  1.
         11   -1    0    0    0    0 -0.00000000000E+00 -0.00000000000E+00 -0.45593999997E+02  0.45594000000E+02  0.51100000000E-03 0. -1.
    9900012    2    1    2    0    0 -0.42442516054E+01  0.55831848397E+01  0.44496380171E+02  0.46142317932E+02  0.10000001560E+02 0.  0.
         12    1    1    2    0    0  0.42442516054E+01 -0.55831848397E+01 -0.44496380171E+02  0.45045682068E+02  0.00000000000E+00 0. -1.
         11    1    3    3    0    0 -0.18698151835E+00  0.10247477847E+01  0.73998011463E+00  0.12777483875E+01  0.51100000000E-03 0.  1.
        -11    1    3    3    0    0 -0.31284504849E+01  0.70933695961E+00  0.52312715703E+01  0.61364944278E+01  0.51100000000E-03 0. -1.
        -12    1    3    3    0    0 -0.92881960213E+00  0.38491000954E+01  0.38525128486E+02  0.38728075117E+02  0.00000000000E+00 0.  1.
</event>
<event>
 7    1  0.2478637E-008  0.4614232E+02  0.7816164E-02  0.1320468E+00
        -11   -1    0    0    0    0  0.00000000000E+00  0.00000000000E+00  0.45593999997E+02  0.45594000000E+02  0.51100000000E-03 0.  1.
         11   -1    0    0    0    0 -0.00000000000E+00 -0.00000000000E+00 -0.45593999997E+02  0.45594000000E+02  0.51100000000E-03 0. -1.
    9900012    2    1    2    0    0 -0.21760312544E+02 -0.38424466304E+02  0.88973414940E+01  0.46142317649E+02  0.99999989817E+01 0.  0.
         12    1    1    2    0    0  0.21760312544E+02  0.38424466304E+02 -0.88973414940E+01  0.45045682351E+02  0.00000000000E+00 0. -1.
         11    1    3    3    0    0 -0.88613913300E+01 -0.12977764324E+02  0.66749190879E+01  0.17073405291E+02  0.51100000000E-03 0. -1.
        -11    1    3    3    0    0 -0.46708235680E+01 -0.13554859310E+02  0.27499778072E+01  0.14598396553E+02  0.51100000000E-03 0.  1.
         12    1    3    3    0    0 -0.82280976456E+01 -0.11891842670E+02 -0.52755540117E+00  0.14470515805E+02  0.00000000000E+00 0. -1.
</event>
<event>
 7    1  0.2478637E-008  0.4614232E+02  0.7816164E-02  0.1320468E+00
        -11   -1    0    0    0    0  0.00000000000E+00  0.00000000000E+00  0.45593999997E+02  0.45594000000E+02  0.51100000000E-03 0.  1.
         11   -1    0    0    0    0 -0.00000000000E+00 -0.00000000000E+00 -0.45593999997E+02  0.45594000000E+02  0.51100000000E-03 0. -1.
    9900012    2    1    2    0    0 -0.99651302134E+01 -0.52482244010E+01  0.43614971465E+02  0.46142318571E+02  0.10000007385E+02 0.  0.
         12    1    1    2    0    0  0.99651302134E+01  0.52482244010E+01 -0.43614971465E+02  0.45045681429E+02  0.00000000000E+00 0. -1.
         11    1    3    3    0    0 -0.74679368571E+01 -0.28042109987E+01  0.31619636601E+02  0.32610352640E+02  0.51100000000E-03 0. -1.
        -11    1    3    3    0    0 -0.23626246254E+01  0.40636978365E+00  0.93095446260E+01  0.96132592249E+01  0.51100000000E-03 0.  1.
         12    1    3    3    0    0 -0.13456873090E+00 -0.28503831860E+01  0.26857902374E+01  0.39187067063E+01  0.00000000000E+00 0. -1.
</event>
<event>
 7    1  0.2478637E-008  0.4614232E+02  0.7816164E-02  0.1320468E+00
        -11   -1    0    0    0    0  0.00000000000E+00  0.00000000000E+00  0.45593999997E+02  0.45594000000E+02  0.51100000000E-03 0.  1.
         11   -1    0    0    0    0 -0.00000000000E+00 -0.00000000000E+00 -0.45593999997E+02  0.45594000000E+02  0.51100000000E-03 0. -1.
    9900012    2    1    2    0    0  0.11009704490E+01 -0.19559756828E+01  0.44989727106E+02  0.46142317389E+02  0.99999966083E+01 0.  0.
         12    1    1    2    0    0 -0.11009704490E+01  0.19559756828E+01 -0.44989727106E+02  0.45045682611E+02  0.00000000000E+00 0. -1.
         11    1    3    3    0    0  0.16288703326E+01  0.11722933083E+01  0.93623646327E+01  0.95750384823E+01  0.51100000000E-03 0.  1.
        -11    1    3    3    0    0  0.22262549927E+01  0.14961241691E+01  0.85772239900E+01  0.89868442992E+01  0.51100000000E-03 0. -1.
         12    1    3    3    0    0 -0.27541548762E+01 -0.46243931602E+01  0.27050138483E+02  0.27580434608E+02  0.00000000000E+00 0. -1.
</event>
<event>
 7    1  0.2478637E-008  0.4614232E+02  0.7816164E-02  0.1320468E+00
        -11   -1    0    0    0    0  0.00000000000E+00  0.00000000000E+00  0.45593999997E+02  0.45594000000E+02  0.51100000000E-03 0.  1.
         11   -1    0    0    0    0 -0.00000000000E+00 -0.00000000000E+00 -0.45593999997E+02  0.45594000000E+02  0.51100000000E-03 0. -1.
    9900012    2    1    2    0    0  0.26863872337E+00  0.41169859547E+02  0.18277964494E+02  0.46142317766E+02  0.10000000046E+02 0.  0.
         12    1    1    2    0    0 -0.26863872337E+00 -0.41169859547E+02 -0.18277964494E+02  0.45045682234E+02  0.00000000000E+00 0. -1.
         11    1    3    3    0    0  0.18150678790E+01  0.20480003315E+01 -0.99777774403E-01  0.27383813885E+01  0.51100000000E-03 0. -1.
        -11    1    3    3    0    0 -0.93235933629E+00  0.22508148313E+01  0.92087799418E+00  0.26045110631E+01  0.51100000000E-03 0.  1.
        -12    1    3    3    0    0 -0.61406981935E+00  0.36871044384E+02  0.17456864275E+02  0.40799425315E+02  0.00000000000E+00 0.  1.
</event>
<event>
 7    1  0.2478637E-008  0.4614232E+02  0.7816164E-02  0.1320468E+00
        -11   -1    0    0    0    0  0.00000000000E+00  0.00000000000E+00  0.45593999997E+02  0.45594000000E+02  0.51100000000E-03 0.  1.
         11   -1    0    0    0    0 -0.00000000000E+00 -0.00000000000E+00 -0.45593999997E+02  0.45594000000E+02  0.51100000000E-03 0. -1.
    9900012    2    1    2    0    0 -0.21713728541E+02  0.28530170008E+01  0.39363533266E+02  0.46142318028E+02  0.10000002433E+02 0.  0.
         12    1    1    2    0    0  0.21713728541E+02 -0.28530170008E+01 -0.39363533266E+02  0.45045681972E+02  0.00000000000E+00 0. -1.
         11    1    3    3    0    0 -0.10333424719E+01  0.17379064845E+01  0.48927275597E+01  0.52940437142E+01  0.51100000000E-03 0. -1.
        -11    1    3    3    0    0 -0.15061355153E+02  0.68681397393E+00  0.18226234585E+02  0.23654000927E+02  0.51100000000E-03 0.  1.
        -12    1    3    3    0    0 -0.56190309168E+01  0.42829654237E+00  0.16244571121E+02  0.17194273386E+02  0.00000000000E+00 0.  1.
</event>
<event>
 7    1  0.2478637E-008  0.4614232E+02  0.7816164E-02  0.1320468E+00
        -11   -1    0    0    0    0  0.00000000000E+00  0.00000000000E+00  0.45593999997E+02  0.45594000000E+02  0.51100000000E-03 0.  1.
         11   -1    0    0    0    0 -0.00000000000E+00 -0.00000000000E+00 -0.45593999997E+02  0.45594000000E+02  0.51100000000E-03 0. -1.
    9900012    2    1    2    0    0  0.44453553472E+02 -0.38075907695E+01  0.62045976977E+01  0.46142321003E+02  0.10000029560E+02 0.  0.
         12    1    1    2    0    0 -0.44453553472E+02  0.38075907695E+01 -0.62045976977E+01  0.45045678997E+02  0.00000000000E+00 0. -1.
         11    1    3    3    0    0  0.94149111101E+01  0.29935366927E+01  0.14787596578E+01  0.99894215813E+01  0.51100000000E-03 0. -1.
        -11    1    3    3    0    0  0.12043730630E+02 -0.12681291119E+01  0.27548821844E+01  0.12419701085E+02  0.51100000000E-03 0.  1.
        -12    1    3    3    0    0  0.22994911732E+02 -0.55329983504E+01  0.19709558555E+01  0.23733198337E+02  0.00000000000E+00 0.  1.
</event>
<event>
 7    1  0.2478637E-008  0.4614232E+02  0.7816164E-02  0.1320468E+00
        -11   -1    0    0    0    0  0.00000000000E+00  0.00000000000E+00  0.45593999997E+02  0.45594000000E+02  0.51100000000E-03 0.  1.
         11   -1    0    0    0    0 -0.00000000000E+00 -0.00000000000E+00 -0.45593999997E+02  0.45594000000E+02  0.51100000000E-03 0. -1.
    9900012    2    1    2    0    0  0.12154537082E+02 -0.35869137593E+02  0.24388228072E+02  0.46142317945E+02  0.10000001675E+02 0.  0.
         12    1    1    2    0    0 -0.12154537082E+02  0.35869137593E+02 -0.24388228072E+02  0.45045682055E+02  0.00000000000E+00 0. -1.
         11    1    3    3    0    0  0.13264595755E+01 -0.11019675941E+01  0.25311243570E+01  0.30627468644E+01  0.51100000000E-03 0.  1.
        -11    1    3    3    0    0  0.39403631804E+01 -0.10060920840E+02  0.29047969183E+01  0.11188674432E+02  0.51100000000E-03 0. -1.
        -12    1    3    3    0    0  0.68877143257E+01 -0.24706249159E+02  0.18952306797E+02  0.31890896649E+02  0.00000000000E+00 0.  1.
</event>
<event>
 7    1  0.2478637E-008  0.4614232E+02  0.7816164E-02  0.1320468E+00
        -11   -1    0    0    0    0  0.00000000000E+00  0.00000000000E+00  0.45593999997E+02  0.45594000000E+02  0.51100000000E-03 0.  1.
         11   -1    0    0    0    0 -0.00000000000E+00 -0.00000000000E+00 -0.45593999997E+02  0.45594000000E+02  0.51100000000E-03 0. -1.
    9900012    2    1    2    0    0 -0.32291640566E+02  0.29435739572E+02  0.10949916408E+02  0.46142317811E+02  0.10000000451E+02 0.  0.
         12    1    1    2    0    0  0.32291640566E+02 -0.29435739572E+02 -0.10949916408E+02  0.45045682189E+02  0.00000000000E+00 0. -1.
         11    1    3    3    0    0 -0.20999101141E+02  0.18434306997E+02  0.55829630024E+01  0.28494831099E+02  0.51100000000E-03 0. -1.
        -11    1    3    3    0    0 -0.69609400602E+01  0.43060635271E+01  0.28239456019E+00  0.81900315366E+01  0.51100000000E-03 0.  1.
         12    1    3    3    0    0 -0.43315993638E+01  0.66953690485E+01  0.50845588452E+01  0.94574551754E+01  0.00000000000E+00 0. -1.
</event>
<event>
 7    1  0.2478637E-008  0.4614232E+02  0.7816164E-02  0.1320468E+00
        -11   -1    0    0    0    0  0.00000000000E+00  0.00000000000E+00  0.45593999997E+02  0.45594000000E+02  0.51100000000E-03 0.  1.
         11   -1    0    0    0    0 -0.00000000000E+00 -0.00000000000E+00 -0.45593999997E+02  0.45594000000E+02  0.51100000000E-03 0. -1.
    9900012    2    1    2    0    0 -0.21429016836E+02  0.75051660687E+01  0.38904796154E+02  0.46142318253E+02  0.10000004482E+02 0.  0.
         12    1    1    2    0    0  0.21429016836E+02 -0.75051660687E+01 -0.38904796154E+02  0.45045681747E+02  0.00000000000E+00 0. -1.
         11    1    3    3    0    0 -0.14133897560E+01 -0.10383799656E+01  0.43398112629E+01  0.46807975404E+01  0.51100000000E-03 0. -1.
        -11    1    3    3    0    0 -0.95853082240E+01  0.74275300920E+01  0.15267721966E+02  0.19497427300E+02  0.51100000000E-03 0.  1.
        -12    1    3    3    0    0 -0.10430318856E+02  0.11160159424E+01  0.19297262925E+02  0.21964093412E+02  0.00000000000E+00 0.  1.
</event>
<event>
 7    1  0.2478637E-008  0.4614232E+02  0.7816164E-02  0.1320468E+00
        -11   -1    0    0    0    0  0.00000000000E+00  0.00000000000E+00  0.45593999997E+02  0.45594000000E+02  0.51100000000E-03 0.  1.
         11   -1    0    0    0    0 -0.00000000000E+00 -0.00000000000E+00 -0.45593999997E+02  0.45594000000E+02  0.51100000000E-03 0. -1.
    9900012    2    1    2    0    0  0.10144631051E+02 -0.28399204702E+02  0.33461693580E+02  0.46142319806E+02  0.10000018651E+02 0.  0.
         12    1    1    2    0    0 -0.10144631051E+02  0.28399204702E+02 -0.33461693580E+02  0.45045680194E+02  0.00000000000E+00 0. -1.
         11    1    3    3    0    0 -0.11703345513E+01 -0.12121281266E+01  0.53130658768E+00  0.17666987600E+01  0.51100000000E-03 0. -1.
        -11    1    3    3    0    0  0.88352237929E+01 -0.19979245401E+02  0.21610454522E+02  0.30728540011E+02  0.51100000000E-03 0.  1.
         12    1    3    3    0    0  0.24797418096E+01 -0.72078311745E+01  0.11319932470E+02  0.13647081036E+02  0.00000000000E+00 0. -1.
</event>
<event>
 7    1  0.2478637E-008  0.4614232E+02  0.7816164E-02  0.1320468E+00
        -11   -1    0    0    0    0  0.00000000000E+00  0.00000000000E+00  0.45593999997E+02  0.45594000000E+02  0.51100000000E-03 0.  1.
         11   -1    0    0    0    0 -0.00000000000E+00 -0.00000000000E+00 -0.45593999997E+02  0.45594000000E+02  0.51100000000E-03 0. -1.
    9900012    2    1    2    0    0  0.12662377413E+02 -0.48380355356E+01  0.42957782571E+02  0.46142317932E+02  0.10000001555E+02 0.  0.
         12    1    1    2    0    0 -0.12662377413E+02  0.48380355356E+01 -0.42957782571E+02  0.45045682068E+02  0.00000000000E+00 0. -1.
         11    1    3    3    0    0  0.19792442625E+01  0.12755109877E+01  0.56328366168E+01  0.61051768806E+01  0.51100000000E-03 0. -1.
        -11    1    3    3    0    0  0.14335663413E+01  0.62196251198E+00  0.78731205503E+00  0.17498029473E+01  0.51100000000E-03 0.  1.
        -12    1    3    3    0    0  0.92495668090E+01 -0.67355090353E+01  0.36537633899E+02  0.38287338104E+02  0.00000000000E+00 0.  1.
</event>
<event>
 7    1  0.2478637E-008  0.4614232E+02  0.7816164E-02  0.1320468E+00
        -11   -1    0    0    0    0  0.00000000000E+00  0.00000000000E+00  0.45593999997E+02  0.45594000000E+02  0.51100000000E-03 0.  1.
         11   -1    0    0    0    0 -0.00000000000E+00 -0.00000000000E+00 -0.45593999997E+02  0.45594000000E+02  0.51100000000E-03 0. -1.
    9900012    2    1    2    0    0 -0.37289465863E+02  0.69410169578E+01  0.24298795880E+02  0.46142318054E+02  0.10000002673E+02 0.  0.
         12    1    1    2    0    0  0.37289465863E+02 -0.69410169578E+01 -0.24298795880E+02  0.45045681946E+02  0.00000000000E+00 0. -1.
         11    1    3    3    0    0 -0.22917702381E+02  0.51930653948E+01  0.10044682952E+02  0.25555521252E+02  0.51100000000E-03 0. -1.
        -11    1    3    3    0    0 -0.33962264555E+01  0.17787370081E+01  0.30130771005E+01  0.48761555918E+01  0.51100000000E-03 0.  1.
        -12    1    3    3    0    0 -0.10975537027E+02 -0.30785445026E-01  0.11241035827E+02  0.15710641210E+02  0.00000000000E+00 0.  1.
</event>
<event>
 7    1  0.2478637E-008  0.4614232E+02  0.7816164E-02  0.1320468E+00
        -11   -1    0    0    0    0  0.00000000000E+00  0.00000000000E+00  0.45593999997E+02  0.45594000000E+02  0.51100000000E-03 0. -1.
         11   -1    0    0    0    0 -0.00000000000E+00 -0.00000000000E+00 -0.45593999997E+02  0.45594000000E+02  0.51100000000E-03 0.  1.
    9900012    2    1    2    0    0 -0.20944625595E+02 -0.40265386008E+01 -0.39676481854E+02  0.46142316891E+02  0.99999920671E+01 0.  0.
         12    1    1    2    0    0  0.20944625595E+02  0.40265386008E+01  0.39676481854E+02  0.45045683109E+02  0.00000000000E+00 0. -1.
         11    1    3    3    0    0 -0.17531385016E+02 -0.18791365343E+01 -0.35741156044E+02  0.39853617782E+02  0.51100000000E-03 0. -1.
        -11    1    3    3    0    0 -0.18700963578E+01 -0.14541923647E+00 -0.35981198770E+00  0.19099403314E+01  0.51100000000E-03 0.  1.
         12    1    3    3    0    0 -0.15431442213E+01 -0.20019828300E+01 -0.35755138221E+01  0.43787587775E+01  0.00000000000E+00 0. -1.
</event>
<event>
 7    1  0.2478637E-008  0.4614232E+02  0.7816164E-02  0.1320468E+00
        -11   -1    0    0    0    0  0.00000000000E+00  0.00000000000E+00  0.45593999997E+02  0.45594000000E+02  0.51100000000E-03 0.  1.
         11   -1    0    0    0    0 -0.00000000000E+00 -0.00000000000E+00 -0.45593999997E+02  0.45594000000E+02  0.51100000000E-03 0. -1.
    9900012    2    1    2    0    0 -0.11751755476E+02  0.10938269542E-01  0.43485739988E+02  0.46142318090E+02  0.10000003000E+02 0.  0.
         12    1    1    2    0    0  0.11751755476E+02 -0.10938269542E-01 -0.43485739988E+02  0.45045681910E+02  0.00000000000E+00 0. -1.
         11    1    3    3    0    0 -0.16123291534E+01  0.36056858376E+01  0.96491845001E+01  0.10426281093E+02  0.51100000000E-03 0. -1.
        -11    1    3    3    0    0 -0.21599952760E+01  0.49574970934E+00  0.10148224131E+02  0.10387386613E+02  0.51100000000E-03 0.  1.
        -12    1    3    3    0    0 -0.79794310469E+01 -0.40904972774E+01  0.23688331357E+02  0.25328650384E+02  0.00000000000E+00 0.  1.
</event>
<event>
 7    1  0.2478637E-008  0.4614232E+02  0.7816164E-02  0.1320468E+00
        -11   -1    0    0    0    0  0.00000000000E+00  0.00000000000E+00  0.45593999997E+02  0.45594000000E+02  0.51100000000E-03 0.  1.
         11   -1    0    0    0    0 -0.00000000000E+00 -0.00000000000E+00 -0.45593999997E+02  0.45594000000E+02  0.51100000000E-03 0. -1.
    9900012    2    1    2    0    0 -0.12800343910E+02  0.25291653424E+02  0.35008526446E+02  0.46142318065E+02  0.10000002768E+02 0.  0.
         12    1    1    2    0    0  0.12800343910E+02 -0.25291653424E+02 -0.35008526446E+02  0.45045681935E+02  0.00000000000E+00 0. -1.
         11    1    3    3    0    0 -0.32710664721E+01  0.49112973224E+01  0.39228680896E+01  0.70858740861E+01  0.51100000000E-03 0. -1.
        -11    1    3    3    0    0 -0.40804164094E+00  0.20530375784E+01  0.34259117827E+00  0.21210446143E+01  0.51100000000E-03 0.  1.
        -12    1    3    3    0    0 -0.91212357973E+01  0.18327318523E+02  0.30743067178E+02  0.36935399364E+02  0.00000000000E+00 0.  1.
</event>
<event>
 7    1  0.2478637E-008  0.4614232E+02  0.7816164E-02  0.1320468E+00
        -11   -1    0    0    0    0  0.00000000000E+00  0.00000000000E+00  0.45593999997E+02  0.45594000000E+02  0.51100000000E-03 0. -1.
         11   -1    0    0    0    0 -0.00000000000E+00 -0.00000000000E+00 -0.45593999997E+02  0.45594000000E+02  0.51100000000E-03 0.  1.
    9900012    2    1    2    0    0  0.78697503744E+01 -0.27101625836E+02 -0.35109576357E+02  0.46142318233E+02  0.10000004299E+02 0.  0.
         12    1    1    2    0    0 -0.78697503744E+01  0.27101625836E+02  0.35109576357E+02  0.45045681767E+02  0.00000000000E+00 0. -1.
         11    1    3    3    0    0  0.24309941242E+01 -0.76668487352E+01 -0.63030509643E+01  0.10218549490E+02  0.51100000000E-03 0. -1.
        -11    1    3    3    0    0  0.51787366097E+01 -0.16799946752E+02 -0.19530681516E+02  0.26277462672E+02  0.51100000000E-03 0.  1.
         12    1    3    3    0    0  0.26001964053E+00 -0.26348303493E+01 -0.92758438763E+01  0.96463060702E+01  0.00000000000E+00 0. -1.
</event>
<event>
 7    1  0.2478637E-008  0.4614232E+02  0.7816164E-02  0.1320468E+00
        -11   -1    0    0    0    0  0.00000000000E+00  0.00000000000E+00  0.45593999997E+02  0.45594000000E+02  0.51100000000E-03 0.  1.
         11   -1    0    0    0    0 -0.00000000000E+00 -0.00000000000E+00 -0.45593999997E+02  0.45594000000E+02  0.51100000000E-03 0. -1.
    9900012    2    1    2    0    0 -0.36284608618E+02  0.18955123108E+02 -0.18794786162E+02  0.46142317616E+02  0.99999986764E+01 0.  0.
         12    1    1    2    0    0  0.36284608618E+02 -0.18955123108E+02  0.18794786162E+02  0.45045682384E+02  0.00000000000E+00 0. -1.
         11    1    3    3    0    0 -0.99254652552E+01  0.66563605503E+01 -0.82517083055E+01  0.14522833282E+02  0.51100000000E-03 0. -1.
        -11    1    3    3    0    0 -0.18518369476E+01 -0.24863261406E+00  0.53221040017E+00  0.19427728710E+01  0.51100000000E-03 0.  1.
         12    1    3    3    0    0 -0.24507306415E+02  0.12547395172E+02 -0.11075288256E+02  0.29676711463E+02  0.00000000000E+00 0. -1.
</event>
<event>
 7    1  0.2478637E-008  0.4614232E+02  0.7816164E-02  0.1320468E+00
        -11   -1    0    0    0    0  0.00000000000E+00  0.00000000000E+00  0.45593999997E+02  0.45594000000E+02  0.51100000000E-03 0.  1.
         11   -1    0    0    0    0 -0.00000000000E+00 -0.00000000000E+00 -0.45593999997E+02  0.45594000000E+02  0.51100000000E-03 0. -1.
    9900012    2    1    2    0    0 -0.69914217606E+01  0.28353323178E+02  0.34297558704E+02  0.46142318225E+02  0.10000004234E+02 0.  0.
         12    1    1    2    0    0  0.69914217606E+01 -0.28353323178E+02 -0.34297558704E+02  0.45045681775E+02  0.00000000000E+00 0. -1.
         11    1    3    3    0    0 -0.58070472535E+00  0.48510032337E+01  0.36446331051E+01  0.60953097610E+01  0.51100000000E-03 0. -1.
        -11    1    3    3    0    0 -0.75487764830E+01  0.20620670925E+02  0.23042338534E+02  0.31829945981E+02  0.51100000000E-03 0.  1.
        -12    1    3    3    0    0  0.11380594478E+01  0.28816490192E+01  0.76105870651E+01  0.82170624832E+01  0.00000000000E+00 0.  1.
</event>
<event>
 7    1  0.2478637E-008  0.4614232E+02  0.7816164E-02  0.1320468E+00
        -11   -1    0    0    0    0  0.00000000000E+00  0.00000000000E+00  0.45593999997E+02  0.45594000000E+02  0.51100000000E-03 0. -1.
         11   -1    0    0    0    0 -0.00000000000E+00 -0.00000000000E+00 -0.45593999997E+02  0.45594000000E+02  0.51100000000E-03 0.  1.
    9900012    2    1    2    0    0  0.31132302911E+02  0.54922549586E+01 -0.32089380247E+02  0.46142317924E+02  0.10000001484E+02 0.  0.
         12    1    1    2    0    0 -0.31132302911E+02 -0.54922549586E+01  0.32089380247E+02  0.45045682076E+02  0.00000000000E+00 0. -1.
         11    1    3    3    0    0  0.18771440909E+02  0.75719177830E+01 -0.22028435104E+02  0.29915763171E+02  0.51100000000E-03 0.  1.
        -11    1    3    3    0    0  0.90800676672E+01 -0.60425602440E+00 -0.77300812186E+01  0.11940138613E+02  0.51100000000E-03 0. -1.
        -12    1    3    3    0    0  0.32807943347E+01 -0.14754068001E+01 -0.23308639247E+01  0.42864161402E+01  0.00000000000E+00 0.  1.
</event>
<event>
 7    1  0.2478637E-008  0.4614232E+02  0.7816164E-02  0.1320468E+00
        -11   -1    0    0    0    0  0.00000000000E+00  0.00000000000E+00  0.45593999997E+02  0.45594000000E+02  0.51100000000E-03 0. -1.
         11   -1    0    0    0    0 -0.00000000000E+00 -0.00000000000E+00 -0.45593999997E+02  0.45594000000E+02  0.51100000000E-03 0.  1.
    9900012    2    1    2    0    0 -0.30042973190E+01  0.42623123282E+02 -0.14260334656E+02  0.46142316686E+02  0.99999902005E+01 0.  0.
         12    1    1    2    0    0  0.30042973190E+01 -0.42623123282E+02  0.14260334656E+02  0.45045683314E+02  0.00000000000E+00 0. -1.
         11    1    3    3    0    0  0.27334232227E+01  0.10415064190E+02 -0.18624466658E+01  0.10927665462E+02  0.51100000000E-03 0.  1.
        -11    1    3    3    0    0 -0.23073714723E+01  0.46705951599E+01 -0.19066077363E+01  0.55473935844E+01  0.51100000000E-03 0. -1.
         12    1    3    3    0    0 -0.34303490693E+01  0.27537463932E+02 -0.10491280254E+02  0.29667257640E+02  0.00000000000E+00 0. -1.
</event>
<event>
 7    1  0.2478637E-008  0.4614232E+02  0.7816164E-02  0.1320468E+00
        -11   -1    0    0    0    0  0.00000000000E+00  0.00000000000E+00  0.45593999997E+02  0.45594000000E+02  0.51100000000E-03 0. -1.
         11   -1    0    0    0    0 -0.00000000000E+00 -0.00000000000E+00 -0.45593999997E+02  0.45594000000E+02  0.51100000000E-03 0.  1.
    9900012    2    1    2    0    0 -0.14316323388E+02 -0.40086253504E+02  0.14739354216E+02  0.46142318764E+02  0.10000009144E+02 0.  0.
         12    1    1    2    0    0  0.14316323388E+02  0.40086253504E+02 -0.14739354216E+02  0.45045681236E+02  0.00000000000E+00 0. -1.
         11    1    3    3    0    0 -0.12697026810E+02 -0.26506501332E+02  0.10961176193E+02  0.31368080694E+02  0.51100000000E-03 0. -1.
        -11    1    3    3    0    0 -0.29669573096E+00 -0.29287285491E+01 -0.88248955396E+00  0.30731526719E+01  0.51100000000E-03 0.  1.
         12    1    3    3    0    0 -0.13226008474E+01 -0.10651023623E+02  0.46606675769E+01  0.11701085398E+02  0.00000000000E+00 0. -1.
</event>
<event>
 7    1  0.2478637E-008  0.4614232E+02  0.7816164E-02  0.1320468E+00
        -11   -1    0    0    0    0  0.00000000000E+00  0.00000000000E+00  0.45593999997E+02  0.45594000000E+02  0.51100000000E-03 0. -1.
         11   -1    0    0    0    0 -0.00000000000E+00 -0.00000000000E+00 -0.45593999997E+02  0.45594000000E+02  0.51100000000E-03 0.  1.
    9900012    2    1    2    0    0 -0.23487639556E+02 -0.34821748786E+02 -0.16275449922E+02  0.46142315738E+02  0.99999815554E+01 0.  0.
         12    1    1    2    0    0  0.23487639556E+02  0.34821748786E+02  0.16275449922E+02  0.45045684262E+02  0.00000000000E+00 0. -1.
         11    1    3    3    0    0 -0.39253471037E+01 -0.59764585988E+01 -0.59300069164E+01  0.92893158821E+01  0.51100000000E-03 0. -1.
        -11    1    3    3    0    0 -0.28463930844E+01 -0.17260453262E+01 -0.21357342658E+01  0.39550660139E+01  0.51100000000E-03 0.  1.
        -12    1    3    3    0    0 -0.16715899368E+02 -0.27119244861E+02 -0.82097087401E+01  0.32897933842E+02  0.00000000000E+00 0.  1.
</event>
<event>
 7    1  0.2478637E-008  0.4614232E+02  0.7816164E-02  0.1320468E+00
        -11   -1    0    0    0    0  0.00000000000E+00  0.00000000000E+00  0.45593999997E+02  0.45594000000E+02  0.51100000000E-03 0.  1.
         11   -1    0    0    0    0 -0.00000000000E+00 -0.00000000000E+00 -0.45593999997E+02  0.45594000000E+02  0.51100000000E-03 0. -1.
    9900012    2    1    2    0    0  0.88330349401E+01 -0.43598725628E+02  0.70881654840E+01  0.46142317937E+02  0.10000001601E+02 0.  0.
         12    1    1    2    0    0 -0.88330349401E+01  0.43598725628E+02 -0.70881654840E+01  0.45045682063E+02  0.00000000000E+00 0. -1.
         11    1    3    3    0    0 -0.59984042957E+00 -0.11906828798E+01 -0.82474829654E+00  0.15677194503E+01  0.51100000000E-03 0. -1.
        -11    1    3    3    0    0  0.30365026274E+01 -0.20404061844E+02  0.10556558515E+01  0.20655761847E+02  0.51100000000E-03 0.  1.
         12    1    3    3    0    0  0.63963727422E+01 -0.22003980904E+02  0.68572579291E+01  0.23918836639E+02  0.00000000000E+00 0. -1.
</event>
<event>
 7    1  0.2478637E-008  0.4614232E+02  0.7816164E-02  0.1320468E+00
        -11   -1    0    0    0    0  0.00000000000E+00  0.00000000000E+00  0.45593999997E+02  0.45594000000E+02  0.51100000000E-03 0.  1.
         11   -1    0    0    0    0 -0.00000000000E+00 -0.00000000000E+00 -0.45593999997E+02  0.45594000000E+02  0.51100000000E-03 0. -1.
    9900012    2    1    2    0    0  0.20652352698E+02  0.27010513112E+02  0.29547014258E+02  0.46142317165E+02  0.99999945608E+01 0.  0.
         12    1    1    2    0    0 -0.20652352698E+02 -0.27010513112E+02 -0.29547014258E+02  0.45045682835E+02  0.00000000000E+00 0. -1.
         11    1    3    3    0    0  0.36040304909E+01  0.16293412731E+01  0.57587852163E+01  0.69862290395E+01  0.51100000000E-03 0. -1.
        -11    1    3    3    0    0  0.10238714591E+02  0.12561473586E+02  0.94853629988E+01  0.18777486695E+02  0.51100000000E-03 0.  1.
         12    1    3    3    0    0  0.68096076168E+01  0.12819698253E+02  0.14302866043E+02  0.20378601430E+02  0.00000000000E+00 0. -1.
</event>
<event>
 7    1  0.2478637E-008  0.4614232E+02  0.7816164E-02  0.1320468E+00
        -11   -1    0    0    0    0  0.00000000000E+00  0.00000000000E+00  0.45593999997E+02  0.45594000000E+02  0.51100000000E-03 0. -1.
         11   -1    0    0    0    0 -0.00000000000E+00 -0.00000000000E+00 -0.45593999997E+02  0.45594000000E+02  0.51100000000E-03 0.  1.
    9900012    2    1    2    0    0 -0.27571044514E+02 -0.25893420265E+02  0.24463889854E+02  0.46142316351E+02  0.99999871453E+01 0.  0.
         12    1    1    2    0    0  0.27571044514E+02  0.25893420265E+02 -0.24463889854E+02  0.45045683649E+02  0.00000000000E+00 0. -1.
         11    1    3    3    0    0 -0.15918287754E+01  0.16709233403E+00  0.11785143319E+01  0.19876455896E+01  0.51100000000E-03 0. -1.
        -11    1    3    3    0    0 -0.20085264292E+02 -0.20955545317E+02  0.21588437786E+02  0.36174761471E+02  0.51100000000E-03 0.  1.
         12    1    3    3    0    0 -0.58939514473E+01 -0.51049672818E+01  0.16969377358E+01  0.79799092908E+01  0.00000000000E+00 0. -1.
</event>
<event>
 7    1  0.2478637E-008  0.4614232E+02  0.7816164E-02  0.1320468E+00
        -11   -1    0    0    0    0  0.00000000000E+00  0.00000000000E+00  0.45593999997E+02  0.45594000000E+02  0.51100000000E-03 0.  1.
         11   -1    0    0    0    0 -0.00000000000E+00 -0.00000000000E+00 -0.45593999997E+02  0.45594000000E+02  0.51100000000E-03 0. -1.
    9900012    2    1    2    0    0 -0.24819903320E+02 -0.14875911467E+02  0.34522357296E+02  0.46142317676E+02  0.99999992258E+01 0.  0.
         12    1    1    2    0    0  0.24819903320E+02  0.14875911467E+02 -0.34522357296E+02  0.45045682324E+02  0.00000000000E+00 0. -1.
         11    1    3    3    0    0 -0.41715422506E+01 -0.29865506189E+01  0.19279631296E+01  0.54807199744E+01  0.51100000000E-03 0. -1.
        -11    1    3    3    0    0  0.21183476522E+00  0.11189939529E+00  0.40181204604E+00  0.46781259483E+00  0.51100000000E-03 0.  1.
        -12    1    3    3    0    0 -0.20860195834E+02 -0.12001260243E+02  0.32192582120E+02  0.40193785107E+02  0.00000000000E+00 0.  1.
</event>
<event>
 7    1  0.2478637E-008  0.4614232E+02  0.7816164E-02  0.1320468E+00
        -11   -1    0    0    0    0  0.00000000000E+00  0.00000000000E+00  0.45593999997E+02  0.45594000000E+02  0.51100000000E-03 0.  1.
         11   -1    0    0    0    0 -0.00000000000E+00 -0.00000000000E+00 -0.45593999997E+02  0.45594000000E+02  0.51100000000E-03 0. -1.
    9900012    2    1    2    0    0  0.35457412507E+01  0.26579361394E+02  0.36195002613E+02  0.46142323767E+02  0.10000054767E+02 0.  0.
         12    1    1    2    0    0 -0.35457412507E+01 -0.26579361394E+02 -0.36195002613E+02  0.45045676233E+02  0.00000000000E+00 0. -1.
         11    1    3    3    0    0 -0.36017017534E+00  0.11646751883E+02  0.12121770457E+02  0.16814097396E+02  0.51100000000E-03 0. -1.
        -11    1    3    3    0    0  0.38479142244E+00  0.11650442877E+02  0.14427846510E+02  0.18548413378E+02  0.51100000000E-03 0.  1.
        -12    1    3    3    0    0  0.35211200036E+01  0.32821666336E+01  0.96453856468E+01  0.10779812993E+02  0.00000000000E+00 0.  1.
</event>
<event>
 7    1  0.2478637E-008  0.4614232E+02  0.7816164E-02  0.1320468E+00
        -11   -1    0    0    0    0  0.00000000000E+00  0.00000000000E+00  0.45593999997E+02  0.45594000000E+02  0.51100000000E-03 0. -1.
         11   -1    0    0    0    0 -0.00000000000E+00 -0.00000000000E+00 -0.45593999997E+02  0.45594000000E+02  0.51100000000E-03 0.  1.
    9900012    2    1    2    0    0  0.22636164264E+02 -0.75330190463E+01 -0.38209569278E+02  0.46142317711E+02  0.99999995393E+01 0.  0.
         12    1    1    2    0    0 -0.22636164264E+02  0.75330190463E+01  0.38209569278E+02  0.45045682289E+02  0.00000000000E+00 0. -1.
         11    1    3    3    0    0  0.10630711530E+02 -0.17650002817E+01 -0.24006145268E+02  0.26313917696E+02  0.51100000000E-03 0. -1.
        -11    1    3    3    0    0  0.41468489905E+01 -0.14466424179E+01 -0.72649982373E+01  0.84893657292E+01  0.51100000000E-03 0.  1.
         12    1    3    3    0    0  0.78586037434E+01 -0.43213763467E+01 -0.69384257725E+01  0.11339034285E+02  0.00000000000E+00 0. -1.
</event>
<event>
 7    1  0.2478637E-008  0.4614232E+02  0.7816164E-02  0.1320468E+00
        -11   -1    0    0    0    0  0.00000000000E+00  0.00000000000E+00  0.45593999997E+02  0.45594000000E+02  0.51100000000E-03 0. -1.
         11   -1    0    0    0    0 -0.00000000000E+00 -0.00000000000E+00 -0.45593999997E+02  0.45594000000E+02  0.51100000000E-03 0.  1.
    9900012    2    1    2    0    0 -0.11500975369E+02  0.43150257797E+02  0.59073201799E+01  0.46142316366E+02  0.99999872757E+01 0.  0.
         12    1    1    2    0    0  0.11500975369E+02 -0.43150257797E+02 -0.59073201799E+01  0.45045683634E+02  0.00000000000E+00 0. -1.
         11    1    3    3    0    0 -0.37856847127E+00  0.20421168169E+01 -0.83280425256E+00  0.22376591263E+01  0.51100000000E-03 0. -1.
        -11    1    3    3    0    0 -0.12285034196E+02  0.35305811100E+02  0.48669699084E+01  0.37697609460E+02  0.51100000000E-03 0.  1.
        -12    1    3    3    0    0  0.11626272980E+01  0.58023298798E+01  0.18731545241E+01  0.62070477797E+01  0.00000000000E+00 0.  1.
</event>
<event>
 7    1  0.2478637E-008  0.4614232E+02  0.7816164E-02  0.1320468E+00
        -11   -1    0    0    0    0  0.00000000000E+00  0.00000000000E+00  0.45593999997E+02  0.45594000000E+02  0.51100000000E-03 0.  1.
         11   -1    0    0    0    0 -0.00000000000E+00 -0.00000000000E+00 -0.45593999997E+02  0.45594000000E+02  0.51100000000E-03 0. -1.
    9900012    2    1    2    0    0  0.12877141308E+02 -0.43086249149E+02 -0.26206664529E+01  0.46142317336E+02  0.99999961263E+01 0.  0.
         12    1    1    2    0    0 -0.12877141308E+02  0.43086249149E+02  0.26206664529E+01  0.45045682664E+02  0.00000000000E+00 0. -1.
         11    1    3    3    0    0  0.42714853848E+01 -0.86762040428E+01  0.16360790130E+00  0.96720665730E+01  0.51100000000E-03 0. -1.
        -11    1    3    3    0    0  0.62345950210E+01 -0.15620841190E+02 -0.46233624972E+01  0.17442945153E+02  0.51100000000E-03 0.  1.
         12    1    3    3    0    0  0.23710609017E+01 -0.18789203916E+02  0.18390881430E+01  0.19027305611E+02  0.00000000000E+00 0. -1.
</event>
<event>
 7    1  0.2478637E-008  0.4614232E+02  0.7816164E-02  0.1320468E+00
        -11   -1    0    0    0    0  0.00000000000E+00  0.00000000000E+00  0.45593999997E+02  0.45594000000E+02  0.51100000000E-03 0.  1.
         11   -1    0    0    0    0 -0.00000000000E+00 -0.00000000000E+00 -0.45593999997E+02  0.45594000000E+02  0.51100000000E-03 0. -1.
    9900012    2    1    2    0    0 -0.12228548934E+02  0.24798097572E+02  0.35561642663E+02  0.46142317842E+02  0.10000000737E+02 0.  0.
         12    1    1    2    0    0  0.12228548934E+02 -0.24798097572E+02 -0.35561642663E+02  0.45045682158E+02  0.00000000000E+00 0. -1.
         11    1    3    3    0    0 -0.13265680719E+01  0.39036903607E+00  0.49750495402E+01  0.51636507456E+01  0.51100000000E-03 0. -1.
        -11    1    3    3    0    0 -0.97015160422E+00  0.77391016213E+01  0.74919551845E+01  0.10815002579E+02  0.51100000000E-03 0.  1.
         12    1    3    3    0    0 -0.99318292575E+01  0.16668626915E+02  0.23094637938E+02  0.30163664517E+02  0.00000000000E+00 0. -1.
</event>
<event>
 7    1  0.2478637E-008  0.4614232E+02  0.7816164E-02  0.1320468E+00
        -11   -1    0    0    0    0  0.00000000000E+00  0.00000000000E+00  0.45593999997E+02  0.45594000000E+02  0.51100000000E-03 0.  1.
         11   -1    0    0    0    0 -0.00000000000E+00 -0.00000000000E+00 -0.45593999997E+02  0.45594000000E+02  0.51100000000E-03 0. -1.
    9900012    2    1    2    0    0  0.17228264080E+02 -0.41189691054E+02  0.59757282164E+01  0.46142322516E+02  0.10000043355E+02 0.  0.
         12    1    1    2    0    0 -0.17228264080E+02  0.41189691054E+02 -0.59757282164E+01  0.45045677484E+02  0.00000000000E+00 0. -1.
         11    1    3    3    0    0  0.28388338695E+01 -0.18969378680E+01  0.79355495394E+00  0.35052932459E+01  0.51100000000E-03 0. -1.
        -11    1    3    3    0    0  0.10447752731E+02 -0.21074362098E+02  0.47228686705E+01  0.23991451888E+02  0.51100000000E-03 0.  1.
         12    1    3    3    0    0  0.39416774793E+01 -0.18218391088E+02  0.45930459191E+00  0.18645577381E+02  0.00000000000E+00 0. -1.
</event>
<event>
 7    1  0.2478637E-008  0.4614232E+02  0.7816164E-02  0.1320468E+00
        -11   -1    0    0    0    0  0.00000000000E+00  0.00000000000E+00  0.45593999997E+02  0.45594000000E+02  0.51100000000E-03 0.  1.
         11   -1    0    0    0    0 -0.00000000000E+00 -0.00000000000E+00 -0.45593999997E+02  0.45594000000E+02  0.51100000000E-03 0. -1.
    9900012    2    1    2    0    0 -0.23121725615E+02  0.33067107258E+02 -0.20026623970E+02  0.46142318237E+02  0.10000004342E+02 0.  0.
         12    1    1    2    0    0  0.23121725615E+02 -0.33067107258E+02  0.20026623970E+02  0.45045681763E+02  0.00000000000E+00 0. -1.
         11    1    3    3    0    0 -0.53986781236E+01  0.38824788753E+01 -0.66579980223E+01  0.94100109259E+01  0.51100000000E-03 0. -1.
        -11    1    3    3    0    0 -0.14622402988E+02  0.22355121056E+02 -0.10397788745E+02  0.28664963241E+02  0.51100000000E-03 0.  1.
         12    1    3    3    0    0 -0.31006445032E+01  0.68295073266E+01 -0.29708372036E+01  0.80673440704E+01  0.00000000000E+00 0. -1.
</event>
<event>
 7    1  0.2478637E-008  0.4614232E+02  0.7816164E-02  0.1320468E+00
        -11   -1    0    0    0    0  0.00000000000E+00  0.00000000000E+00  0.45593999997E+02  0.45594000000E+02  0.51100000000E-03 0.  1.
         11   -1    0    0    0    0 -0.00000000000E+00 -0.00000000000E+00 -0.45593999997E+02  0.45594000000E+02  0.51100000000E-03 0. -1.
    9900012    2    1    2    0    0  0.27387192191E+02  0.19156581191E+02  0.30200672696E+02  0.46142317295E+02  0.99999957516E+01 0.  0.
         12    1    1    2    0    0 -0.27387192191E+02 -0.19156581191E+02 -0.30200672696E+02  0.45045682705E+02  0.00000000000E+00 0. -1.
         11    1    3    3    0    0  0.31695458067E+01  0.23714949999E+01  0.67687583045E+01  0.78413071870E+01  0.51100000000E-03 0. -1.
        -11    1    3    3    0    0  0.14067906491E+02  0.55067096071E+01  0.12328757602E+02  0.19499438658E+02  0.51100000000E-03 0.  1.
        -12    1    3    3    0    0  0.10149739894E+02  0.11278376584E+02  0.11103156790E+02  0.18801571450E+02  0.00000000000E+00 0.  1.
</event>
<event>
 7    1  0.2478637E-008  0.4614231E+02  0.7816164E-02  0.1320468E+00
        -11   -1    0    0    0    0  0.00000000000E+00  0.00000000000E+00  0.45593999997E+02  0.45594000000E+02  0.51100000000E-03 0.  1.
         11   -1    0    0    0    0 -0.00000000000E+00 -0.00000000000E+00 -0.45593999997E+02  0.45594000000E+02  0.51100000000E-03 0. -1.
    9900012    2    1    2    0    0  0.30523191857E+02  0.18329689516E+02  0.27594769212E+02  0.46142311563E+02  0.99999434783E+01 0.  0.
         12    1    1    2    0    0 -0.30523191857E+02 -0.18329689516E+02 -0.27594769212E+02  0.45045688437E+02  0.00000000000E+00 0. -1.
         11    1    3    3    0    0  0.12114659246E+01  0.32246249501E+01  0.28240270265E+01  0.44543220206E+01  0.51100000000E-03 0.  1.
        -11    1    3    3    0    0  0.21867644118E+02  0.12692859274E+02  0.21564444700E+02  0.33231428066E+02  0.51100000000E-03 0. -1.
         12    1    3    3    0    0  0.74440818147E+01  0.24122052918E+01  0.32062974855E+01  0.84565614761E+01  0.00000000000E+00 0. -1.
</event>
<event>
 7    1  0.2478637E-008  0.4614232E+02  0.7816164E-02  0.1320468E+00
        -11   -1    0    0    0    0  0.00000000000E+00  0.00000000000E+00  0.45593999997E+02  0.45594000000E+02  0.51100000000E-03 0. -1.
         11   -1    0    0    0    0 -0.00000000000E+00 -0.00000000000E+00 -0.45593999997E+02  0.45594000000E+02  0.51100000000E-03 0.  1.
    9900012    2    1    2    0    0 -0.95544990453E+01 -0.12918840255E+02 -0.42082402399E+02  0.46142317885E+02  0.10000001129E+02 0.  0.
         12    1    1    2    0    0  0.95544990453E+01  0.12918840255E+02  0.42082402399E+02  0.45045682115E+02  0.00000000000E+00 0. -1.
         11    1    3    3    0    0 -0.24505651322E+01 -0.77670552541E+01 -0.13508175543E+02  0.15773497505E+02  0.51100000000E-03 0. -1.
        -11    1    3    3    0    0 -0.68572677143E+00  0.63309755376E+00 -0.64737745585E+00  0.11358395789E+01  0.51100000000E-03 0.  1.
        -12    1    3    3    0    0 -0.64182071416E+01 -0.57848825552E+01 -0.27926849400E+02  0.29232980801E+02  0.00000000000E+00 0.  1.
</event>
<event>
 7    1  0.2478637E-008  0.4614232E+02  0.7816164E-02  0.1320468E+00
        -11   -1    0    0    0    0  0.00000000000E+00  0.00000000000E+00  0.45593999997E+02  0.45594000000E+02  0.51100000000E-03 0.  1.
         11   -1    0    0    0    0 -0.00000000000E+00 -0.00000000000E+00 -0.45593999997E+02  0.45594000000E+02  0.51100000000E-03 0. -1.
    9900012    2    1    2    0    0  0.13958518716E+02 -0.10561442241E+02  0.41505773575E+02  0.46142317110E+02  0.99999940633E+01 0.  0.
         12    1    1    2    0    0 -0.13958518716E+02  0.10561442241E+02 -0.41505773575E+02  0.45045682890E+02  0.00000000000E+00 0. -1.
         11    1    3    3    0    0  0.12214545103E+01 -0.26494695174E+01  0.52741560759E+01  0.60273014210E+01  0.51100000000E-03 0. -1.
        -11    1    3    3    0    0  0.26106309904E+01  0.12763711373E+01  0.29829407220E+01  0.41644270987E+01  0.51100000000E-03 0.  1.
        -12    1    3    3    0    0  0.10126433215E+02 -0.91883438605E+01  0.33248676777E+02  0.35950588590E+02  0.00000000000E+00 0.  1.
</event>
<event>
 7    1  0.2478637E-008  0.4614232E+02  0.7816164E-02  0.1320468E+00
        -11   -1    0    0    0    0  0.00000000000E+00  0.00000000000E+00  0.45593999997E+02  0.45594000000E+02  0.51100000000E-03 0.  1.
         11   -1    0    0    0    0 -0.00000000000E+00 -0.00000000000E+00 -0.45593999997E+02  0.45594000000E+02  0.51100000000E-03 0. -1.
    9900012    2    1    2    0    0  0.13983066229E+02  0.12252649772E+02  0.41029988194E+02  0.46142317645E+02  0.99999989449E+01 0.  0.
         12    1    1    2    0    0 -0.13983066229E+02 -0.12252649772E+02 -0.41029988194E+02  0.45045682355E+02  0.00000000000E+00 0. -1.
         11    1    3    3    0    0  0.16159100410E+01  0.25512942455E-01  0.37846293506E+01  0.41152443127E+01  0.51100000000E-03 0. -1.
        -11    1    3    3    0    0  0.84840212684E+01  0.27335518539E+01  0.21016252641E+02  0.22828355130E+02  0.51100000000E-03 0.  1.
         12    1    3    3    0    0  0.38831349198E+01  0.94935849755E+01  0.16229106202E+02  0.19198718203E+02  0.00000000000E+00 0. -1.
</event>
<event>
 7    1  0.2478637E-008  0.4614232E+02  0.7816164E-02  0.1320468E+00
        -11   -1    0    0    0    0  0.00000000000E+00  0.00000000000E+00  0.45593999997E+02  0.45594000000E+02  0.51100000000E-03 0. -1.
         11   -1    0    0    0    0 -0.00000000000E+00 -0.00000000000E+00 -0.45593999997E+02  0.45594000000E+02  0.51100000000E-03 0.  1.
    9900012    2    1    2    0    0  0.39627013653E+02  0.16047007601E+02 -0.14188265779E+02  0.46142317079E+02  0.99999937794E+01 0.  0.
         12    1    1    2    0    0 -0.39627013653E+02 -0.16047007601E+02  0.14188265779E+02  0.45045682921E+02  0.00000000000E+00 0. -1.
         11    1    3    3    0    0  0.15307198947E+02  0.26180475157E+01 -0.52549870496E+01  0.16394493025E+02  0.51100000000E-03 0.  1.
        -11    1    3    3    0    0 -0.20774775812E+00  0.10754812297E+00 -0.56055078667E+00  0.60740692728E+00  0.51100000000E-03 0. -1.
        -12    1    3    3    0    0  0.24527562464E+02  0.13321411962E+02 -0.83727279431E+01  0.29140417127E+02  0.00000000000E+00 0.  1.
</event>
<event>
 7    1  0.2478637E-008  0.4614232E+02  0.7816164E-02  0.1320468E+00
        -11   -1    0    0    0    0  0.00000000000E+00  0.00000000000E+00  0.45593999997E+02  0.45594000000E+02  0.51100000000E-03 0.  1.
         11   -1    0    0    0    0 -0.00000000000E+00 -0.00000000000E+00 -0.45593999997E+02  0.45594000000E+02  0.51100000000E-03 0. -1.
    9900012    2    1    2    0    0  0.13331046660E+02 -0.43025871624E+02 -0.41347908479E+00  0.46142318753E+02  0.10000009043E+02 0.  0.
         12    1    1    2    0    0 -0.13331046660E+02  0.43025871624E+02  0.41347908479E+00  0.45045681247E+02  0.00000000000E+00 0. -1.
         11    1    3    3    0    0  0.73622931538E+01 -0.13907196269E+02  0.21497110998E+00  0.15737206912E+02  0.51100000000E-03 0. -1.
        -11    1    3    3    0    0  0.54928813150E+01 -0.11230402079E+02 -0.44122458660E+00  0.12509530582E+02  0.51100000000E-03 0.  1.
         12    1    3    3    0    0  0.47587219094E+00 -0.17888273277E+02 -0.18722560817E+00  0.17895581259E+02  0.00000000000E+00 0. -1.
</event>
<event>
 7    1  0.2478637E-008  0.4614232E+02  0.7816164E-02  0.1320468E+00
        -11   -1    0    0    0    0  0.00000000000E+00  0.00000000000E+00  0.45593999997E+02  0.45594000000E+02  0.51100000000E-03 0.  1.
         11   -1    0    0    0    0 -0.00000000000E+00 -0.00000000000E+00 -0.45593999997E+02  0.45594000000E+02  0.51100000000E-03 0. -1.
    9900012    2    1    2    0    0  0.13691874197E+01 -0.31569240021E+02 -0.32103294772E+02  0.46142321796E+02  0.10000036790E+02 0.  0.
         12    1    1    2    0    0 -0.13691874197E+01  0.31569240021E+02  0.32103294772E+02  0.45045678204E+02  0.00000000000E+00 0. -1.
         11    1    3    3    0    0  0.30491643806E+01 -0.19885353319E+02 -0.14940141365E+02  0.25058581450E+02  0.51100000000E-03 0. -1.
        -11    1    3    3    0    0 -0.58540783025E+00 -0.98223527936E+01 -0.12217742717E+02  0.15687401126E+02  0.51100000000E-03 0.  1.
         12    1    3    3    0    0 -0.10945691306E+01 -0.18615339078E+01 -0.49454106899E+01  0.53963392187E+01  0.00000000000E+00 0. -1.
</event>
<event>
 7    1  0.2478637E-008  0.4614232E+02  0.7816164E-02  0.1320468E+00
        -11   -1    0    0    0    0  0.00000000000E+00  0.00000000000E+00  0.45593999997E+02  0.45594000000E+02  0.51100000000E-03 0.  1.
         11   -1    0    0    0    0 -0.00000000000E+00 -0.00000000000E+00 -0.45593999997E+02  0.45594000000E+02  0.51100000000E-03 0. -1.
    9900012    2    1    2    0    0 -0.24809416568E+02 -0.12659449547E+02  0.35402608176E+02  0.46142317866E+02  0.10000000958E+02 0.  0.
         12    1    1    2    0    0  0.24809416568E+02  0.12659449547E+02 -0.35402608176E+02  0.45045682134E+02  0.00000000000E+00 0. -1.
         11    1    3    3    0    0 -0.54281861579E+01 -0.55497791488E+01  0.82063837360E+01  0.11296459085E+02  0.51100000000E-03 0.  1.
        -11    1    3    3    0    0 -0.12283897483E+01 -0.14396700860E+01  0.31655608100E+00  0.19188015384E+01  0.51100000000E-03 0. -1.
        -12    1    3    3    0    0 -0.18152840661E+02 -0.56700003123E+01  0.26879668359E+02  0.32927057243E+02  0.00000000000E+00 0.  1.
</event>
<event>
 7    1  0.2478637E-008  0.4614232E+02  0.7816164E-02  0.1320468E+00
        -11   -1    0    0    0    0  0.00000000000E+00  0.00000000000E+00  0.45593999997E+02  0.45594000000E+02  0.51100000000E-03 0. -1.
         11   -1    0    0    0    0 -0.00000000000E+00 -0.00000000000E+00 -0.45593999997E+02  0.45594000000E+02  0.51100000000E-03 0.  1.
    9900012    2    1    2    0    0 -0.14933500469E+02 -0.39669285828E+02 -0.15246371546E+02  0.46142317414E+02  0.99999968335E+01 0.  0.
         12    1    1    2    0    0  0.14933500469E+02  0.39669285828E+02  0.15246371546E+02  0.45045682586E+02  0.00000000000E+00 0. -1.
         11    1    3    3    0    0 -0.68874648199E+01 -0.11212980696E+02 -0.60867155859E+01  0.14498834940E+02  0.51100000000E-03 0.  1.
        -11    1    3    3    0    0 -0.26009026367E+01 -0.13454512599E+02 -0.10551900800E+01  0.13744163495E+02  0.51100000000E-03 0. -1.
        -12    1    3    3    0    0 -0.54451330121E+01 -0.15001792533E+02 -0.81044658796E+01  0.17899318979E+02  0.00000000000E+00 0.  1.
</event>
<event>
 7    1  0.2478637E-008  0.4614232E+02  0.7816164E-02  0.1320468E+00
        -11   -1    0    0    0    0  0.00000000000E+00  0.00000000000E+00  0.45593999997E+02  0.45594000000E+02  0.51100000000E-03 0.  1.
         11   -1    0    0    0    0 -0.00000000000E+00 -0.00000000000E+00 -0.45593999997E+02  0.45594000000E+02  0.51100000000E-03 0. -1.
    9900012    2    1    2    0    0 -0.33885137352E+02  0.20909571078E+02  0.21064211457E+02  0.46142315408E+02  0.99999785441E+01 0.  0.
         12    1    1    2    0    0  0.33885137352E+02 -0.20909571078E+02 -0.21064211457E+02  0.45045684592E+02  0.00000000000E+00 0. -1.
         11    1    3    3    0    0 -0.65211341440E+01  0.47625879068E+01  0.80678341795E+01  0.11414787896E+02  0.51100000000E-03 0. -1.
        -11    1    3    3    0    0 -0.84724238483E+01  0.39512604053E+01  0.14836600411E+01  0.94654990378E+01  0.51100000000E-03 0.  1.
        -12    1    3    3    0    0 -0.18891579359E+02  0.12195722766E+02  0.11512717237E+02  0.25262028475E+02  0.00000000000E+00 0.  1.
</event>
<event>
 7    1  0.2478637E-008  0.4614232E+02  0.7816164E-02  0.1320468E+00
        -11   -1    0    0    0    0  0.00000000000E+00  0.00000000000E+00  0.45593999997E+02  0.45594000000E+02  0.51100000000E-03 0.  1.
         11   -1    0    0    0    0 -0.00000000000E+00 -0.00000000000E+00 -0.45593999997E+02  0.45594000000E+02  0.51100000000E-03 0. -1.
    9900012    2    1    2    0    0  0.32698946450E+02  0.15292299028E+02  0.26945093386E+02  0.46142316899E+02  0.99999921373E+01 0.  0.
         12    1    1    2    0    0 -0.32698946450E+02 -0.15292299028E+02 -0.26945093386E+02  0.45045683101E+02  0.00000000000E+00 0. -1.
         11    1    3    3    0    0  0.26763293460E+01  0.21309964598E+01 -0.36381900445E+00  0.34403850379E+01  0.51100000000E-03 0. -1.
        -11    1    3    3    0    0  0.79647647441E+01  0.32135567035E+01  0.62190578162E+01  0.10603824994E+02  0.51100000000E-03 0.  1.
         12    1    3    3    0    0  0.22057852360E+02  0.99477458644E+01  0.21089854574E+02  0.32098106867E+02  0.00000000000E+00 0. -1.
</event>
<event>
 7    1  0.2478637E-008  0.4614232E+02  0.7816164E-02  0.1320468E+00
        -11   -1    0    0    0    0  0.00000000000E+00  0.00000000000E+00  0.45593999997E+02  0.45594000000E+02  0.51100000000E-03 0.  1.
         11   -1    0    0    0    0 -0.00000000000E+00 -0.00000000000E+00 -0.45593999997E+02  0.45594000000E+02  0.51100000000E-03 0. -1.
    9900012    2    1    2    0    0  0.10882313017E+01  0.43419928859E+02 -0.11943156855E+02  0.46142318019E+02  0.10000002349E+02 0.  0.
         12    1    1    2    0    0 -0.10882313017E+01 -0.43419928859E+02  0.11943156855E+02  0.45045681981E+02  0.00000000000E+00 0. -1.
         11    1    3    3    0    0 -0.18945848215E+01  0.36105121918E+01 -0.18531568790E+01  0.44787766871E+01  0.51100000000E-03 0. -1.
        -11    1    3    3    0    0 -0.16034851011E+01  0.38325862926E+01 -0.11172527697E+01  0.43021083404E+01  0.51100000000E-03 0.  1.
        -12    1    3    3    0    0  0.45863012243E+01  0.35976830375E+02 -0.89727472068E+01  0.37361432991E+02  0.00000000000E+00 0.  1.
</event>
<event>
 7    1  0.2478637E-008  0.4614232E+02  0.7816164E-02  0.1320468E+00
        -11   -1    0    0    0    0  0.00000000000E+00  0.00000000000E+00  0.45593999997E+02  0.45594000000E+02  0.51100000000E-03 0.  1.
         11   -1    0    0    0    0 -0.00000000000E+00 -0.00000000000E+00 -0.45593999997E+02  0.45594000000E+02  0.51100000000E-03 0. -1.
    9900012    2    1    2    0    0 -0.57632086091E+01 -0.21120038743E+02  0.39368045451E+02  0.46142316382E+02  0.99999874249E+01 0.  0.
         12    1    1    2    0    0  0.57632086091E+01  0.21120038743E+02 -0.39368045451E+02  0.45045683618E+02  0.00000000000E+00 0. -1.
         11    1    3    3    0    0 -0.32969856337E+01 -0.11152738942E+02  0.24074716005E+02  0.26736597599E+02  0.51100000000E-03 0. -1.
        -11    1    3    3    0    0 -0.40835417560E+01 -0.56922954608E+01  0.68133748968E+01  0.97723906303E+01  0.51100000000E-03 0.  1.
         12    1    3    3    0    0  0.16173187806E+01 -0.42750043407E+01  0.84799545488E+01  0.96333281529E+01  0.00000000000E+00 0. -1.
</event>
<event>
 7    1  0.2478637E-008  0.4614232E+02  0.7816164E-02  0.1320468E+00
        -11   -1    0    0    0    0  0.00000000000E+00  0.00000000000E+00  0.45593999997E+02  0.45594000000E+02  0.51100000000E-03 0.  1.
         11   -1    0    0    0    0 -0.00000000000E+00 -0.00000000000E+00 -0.45593999997E+02  0.45594000000E+02  0.51100000000E-03 0. -1.
    9900012    2    1    2    0    0  0.29194615834E+02  0.44858433839E+01  0.34009780718E+02  0.46142316866E+02  0.99999918393E+01 0.  0.
         12    1    1    2    0    0 -0.29194615834E+02 -0.44858433839E+01 -0.34009780718E+02  0.45045683134E+02  0.00000000000E+00 0. -1.
         11    1    3    3    0    0  0.20284691615E+01  0.11054900140E+01  0.40663818886E+00  0.23456662567E+01  0.51100000000E-03 0. -1.
        -11    1    3    3    0    0  0.10038705269E+01  0.48357312219E+00  0.41430848413E+01  0.42903089939E+01  0.51100000000E-03 0.  1.
         12    1    3    3    0    0  0.26162276145E+02  0.28967802477E+01  0.29460057687E+02  0.39506341616E+02  0.00000000000E+00 0. -1.
</event>
<event>
 7    1  0.2478637E-008  0.4614232E+02  0.7816164E-02  0.1320468E+00
        -11   -1    0    0    0    0  0.00000000000E+00  0.00000000000E+00  0.45593999997E+02  0.45594000000E+02  0.51100000000E-03 0.  1.
         11   -1    0    0    0    0 -0.00000000000E+00 -0.00000000000E+00 -0.45593999997E+02  0.45594000000E+02  0.51100000000E-03 0. -1.
    9900012    2    1    2    0    0  0.30900724310E+02  0.22278583364E+02  0.24040042389E+02  0.46142315660E+02  0.99999808386E+01 0.  0.
         12    1    1    2    0    0 -0.30900724310E+02 -0.22278583364E+02 -0.24040042389E+02  0.45045684340E+02  0.00000000000E+00 0. -1.
         11    1    3    3    0    0  0.16856031752E+02  0.70874243742E+01  0.86329736952E+01  0.20220920498E+02  0.51100000000E-03 0. -1.
        -11    1    3    3    0    0  0.11905890265E+01  0.51013056415E+00  0.13597555784E+01  0.18779432677E+01  0.51100000000E-03 0.  1.
        -12    1    3    3    0    0  0.12854103532E+02  0.14681028426E+02  0.14047313115E+02  0.24043451895E+02  0.00000000000E+00 0.  1.
</event>
<event>
 7    1  0.2478637E-008  0.4614232E+02  0.7816164E-02  0.1320468E+00
        -11   -1    0    0    0    0  0.00000000000E+00  0.00000000000E+00  0.45593999997E+02  0.45594000000E+02  0.51100000000E-03 0.  1.
         11   -1    0    0    0    0 -0.00000000000E+00 -0.00000000000E+00 -0.45593999997E+02  0.45594000000E+02  0.51100000000E-03 0. -1.
    9900012    2    1    2    0    0  0.40680588835E+02 -0.33798746328E+00 -0.19341371256E+02  0.46142321122E+02  0.10000030651E+02 0.  0.
         12    1    1    2    0    0 -0.40680588835E+02  0.33798746328E+00  0.19341371256E+02  0.45045678878E+02  0.00000000000E+00 0. -1.
         11    1    3    3    0    0  0.15498135315E+02  0.12131193346E+01 -0.63427631212E+01  0.16789714144E+02  0.51100000000E-03 0. -1.
        -11    1    3    3    0    0  0.17263924470E+02  0.24641674543E+01 -0.86731088171E+01  0.19476602018E+02  0.51100000000E-03 0.  1.
         12    1    3    3    0    0  0.79185290503E+01 -0.40152742522E+01 -0.43254993178E+01  0.98760049609E+01  0.00000000000E+00 0. -1.
</event>
<event>
 7    1  0.2478637E-008  0.4614232E+02  0.7816164E-02  0.1320468E+00
        -11   -1    0    0    0    0  0.00000000000E+00  0.00000000000E+00  0.45593999997E+02  0.45594000000E+02  0.51100000000E-03 0. -1.
         11   -1    0    0    0    0 -0.00000000000E+00 -0.00000000000E+00 -0.45593999997E+02  0.45594000000E+02  0.51100000000E-03 0.  1.
    9900012    2    1    2    0    0 -0.90980218193E+01  0.33604384207E+02 -0.28584696164E+02  0.46142317701E+02  0.99999994533E+01 0.  0.
         12    1    1    2    0    0  0.90980218193E+01 -0.33604384207E+02  0.28584696164E+02  0.45045682299E+02  0.00000000000E+00 0. -1.
         11    1    3    3    0    0 -0.87225505881E+00  0.99896026015E+01 -0.12645614897E+02  0.16138914629E+02  0.51100000000E-03 0. -1.
        -11    1    3    3    0    0 -0.79093575093E+01  0.18292487815E+02 -0.13887347628E+02  0.24290563416E+02  0.51100000000E-03 0.  1.
        -12    1    3    3    0    0 -0.31640925121E+00  0.53222937910E+01 -0.20517336397E+01  0.57128396564E+01  0.00000000000E+00 0.  1.
</event>
<event>
 7    1  0.2478637E-008  0.4614232E+02  0.7816164E-02  0.1320468E+00
        -11   -1    0    0    0    0  0.00000000000E+00  0.00000000000E+00  0.45593999997E+02  0.45594000000E+02  0.51100000000E-03 0.  1.
         11   -1    0    0    0    0 -0.00000000000E+00 -0.00000000000E+00 -0.45593999997E+02  0.45594000000E+02  0.51100000000E-03 0. -1.
    9900012    2    1    2    0    0  0.13256650746E+02 -0.43046373908E+02 -0.62002179792E+00  0.46142317380E+02  0.99999965267E+01 0.  0.
         12    1    1    2    0    0 -0.13256650746E+02  0.43046373908E+02  0.62002179792E+00  0.45045682620E+02  0.00000000000E+00 0. -1.
         11    1    3    3    0    0  0.55039138671E+01 -0.93866498451E+01  0.18755373723E+01  0.11041734640E+02  0.51100000000E-03 0. -1.
        -11    1    3    3    0    0  0.37870186863E+01 -0.13120785978E+02  0.17121931593E+01  0.13763289610E+02  0.51100000000E-03 0.  1.
         12    1    3    3    0    0  0.39657181929E+01 -0.20538938085E+02 -0.42077523295E+01  0.21337293130E+02  0.00000000000E+00 0. -1.
</event>
<event>
 7    1  0.2478637E-008  0.4614232E+02  0.7816164E-02  0.1320468E+00
        -11   -1    0    0    0    0  0.00000000000E+00  0.00000000000E+00  0.45593999997E+02  0.45594000000E+02  0.51100000000E-03 0.  1.
         11   -1    0    0    0    0 -0.00000000000E+00 -0.00000000000E+00 -0.45593999997E+02  0.45594000000E+02  0.51100000000E-03 0. -1.
    9900012    2    1    2    0    0  0.56641695316E-01 -0.18470560806E+02  0.41084653001E+02  0.46142317221E+02  0.99999950771E+01 0.  0.
         12    1    1    2    0    0 -0.56641695316E-01  0.18470560806E+02 -0.41084653001E+02  0.45045682779E+02  0.00000000000E+00 0. -1.
         11    1    3    3    0    0  0.20067547466E+01 -0.21761565086E+01  0.28794054040E+01  0.41296122704E+01  0.51100000000E-03 0.  1.
        -11    1    3    3    0    0  0.10018284154E+01 -0.96297342328E-01  0.19736217504E+01  0.22154269175E+01  0.51100000000E-03 0. -1.
        -12    1    3    3    0    0 -0.29519414666E+01 -0.16198106955E+02  0.36231625847E+02  0.39797278033E+02  0.00000000000E+00 0.  1.
</event>
<event>
 7    1  0.2478637E-008  0.4614232E+02  0.7816164E-02  0.1320468E+00
        -11   -1    0    0    0    0  0.00000000000E+00  0.00000000000E+00  0.45593999997E+02  0.45594000000E+02  0.51100000000E-03 0.  1.
         11   -1    0    0    0    0 -0.00000000000E+00 -0.00000000000E+00 -0.45593999997E+02  0.45594000000E+02  0.51100000000E-03 0. -1.
    9900012    2    1    2    0    0 -0.40768124960E+02  0.16107705660E+02 -0.10373762870E+02  0.46142321511E+02  0.10000034199E+02 0.  0.
         12    1    1    2    0    0  0.40768124960E+02 -0.16107705660E+02  0.10373762870E+02  0.45045678489E+02  0.00000000000E+00 0. -1.
         11    1    3    3    0    0 -0.17803784230E+02  0.10904166137E+02 -0.34125340993E+01  0.21154691236E+02  0.51100000000E-03 0. -1.
        -11    1    3    3    0    0 -0.39214044937E+01  0.24797644242E+01 -0.23728352889E+01  0.52112371249E+01  0.51100000000E-03 0.  1.
        -12    1    3    3    0    0 -0.19042936237E+02  0.27237750987E+01 -0.45883934819E+01  0.19776393151E+02  0.00000000000E+00 0.  1.
</event>
<event>
 7    1  0.2478637E-008  0.4614232E+02  0.7816164E-02  0.1320468E+00
        -11   -1    0    0    0    0  0.00000000000E+00  0.00000000000E+00  0.45593999997E+02  0.45594000000E+02  0.51100000000E-03 0.  1.
         11   -1    0    0    0    0 -0.00000000000E+00 -0.00000000000E+00 -0.45593999997E+02  0.45594000000E+02  0.51100000000E-03 0. -1.
    9900012    2    1    2    0    0  0.34531828438E+02  0.24250081223E+02  0.15767051249E+02  0.46142317413E+02  0.99999968260E+01 0.  0.
         12    1    1    2    0    0 -0.34531828438E+02 -0.24250081223E+02 -0.15767051249E+02  0.45045682587E+02  0.00000000000E+00 0. -1.
         11    1    3    3    0    0  0.15305304088E+02  0.71942653909E+01  0.29868695409E+01  0.17173560425E+02  0.51100000000E-03 0.  1.
        -11    1    3    3    0    0  0.22090670382E+01  0.26482940121E+01  0.41841286863E+00  0.34739758122E+01  0.51100000000E-03 0. -1.
        -12    1    3    3    0    0  0.17017457311E+02  0.14407521820E+02  0.12361768840E+02  0.25494781176E+02  0.00000000000E+00 0.  1.
</event>
<event>
 7    1  0.2478637E-008  0.4614232E+02  0.7816164E-02  0.1320468E+00
        -11   -1    0    0    0    0  0.00000000000E+00  0.00000000000E+00  0.45593999997E+02  0.45594000000E+02  0.51100000000E-03 0.  1.
         11   -1    0    0    0    0 -0.00000000000E+00 -0.00000000000E+00 -0.45593999997E+02  0.45594000000E+02  0.51100000000E-03 0. -1.
    9900012    2    1    2    0    0 -0.14351241919E+02 -0.29710863110E+01  0.42594930651E+02  0.46142316348E+02  0.99999871162E+01 0.  0.
         12    1    1    2    0    0  0.14351241919E+02  0.29710863110E+01 -0.42594930651E+02  0.45045683652E+02  0.00000000000E+00 0. -1.
         11    1    3    3    0    0 -0.31330084251E+01 -0.26714756099E+01  0.11789729374E+02  0.12488003952E+02  0.51100000000E-03 0. -1.
        -11    1    3    3    0    0 -0.10010049939E+02 -0.24566802211E+01  0.19230832675E+02  0.21818829096E+02  0.51100000000E-03 0.  1.
         12    1    3    3    0    0 -0.12081835548E+01  0.21570695200E+01  0.11574368602E+02  0.11835483300E+02  0.00000000000E+00 0. -1.
</event>
<event>
 7    1  0.2478637E-008  0.4614232E+02  0.7816164E-02  0.1320468E+00
        -11   -1    0    0    0    0  0.00000000000E+00  0.00000000000E+00  0.45593999997E+02  0.45594000000E+02  0.51100000000E-03 0. -1.
         11   -1    0    0    0    0 -0.00000000000E+00 -0.00000000000E+00 -0.45593999997E+02  0.45594000000E+02  0.51100000000E-03 0.  1.
    9900012    2    1    2    0    0 -0.13405990029E+02  0.25479610728E+02 -0.34643648448E+02  0.46142317529E+02  0.99999978817E+01 0.  0.
         12    1    1    2    0    0  0.13405990029E+02 -0.25479610728E+02  0.34643648448E+02  0.45045682471E+02  0.00000000000E+00 0. -1.
         11    1    3    3    0    0  0.17153191075E+00  0.40581450138E+00 -0.30839805748E+01  0.31152921296E+01  0.51100000000E-03 0. -1.
        -11    1    3    3    0    0 -0.44315041790E+01  0.14150890665E+02 -0.18413242411E+02  0.23641773035E+02  0.51100000000E-03 0.  1.
        -12    1    3    3    0    0 -0.91460177603E+01  0.10922905562E+02 -0.13146425463E+02  0.19385252364E+02  0.00000000000E+00 0.  1.
</event>
<event>
 7    1  0.2478637E-008  0.4614232E+02  0.7816164E-02  0.1320468E+00
        -11   -1    0    0    0    0  0.00000000000E+00  0.00000000000E+00  0.45593999997E+02  0.45594000000E+02  0.51100000000E-03 0.  1.
         11   -1    0    0    0    0 -0.00000000000E+00 -0.00000000000E+00 -0.45593999997E+02  0.45594000000E+02  0.51100000000E-03 0. -1.
    9900012    2    1    2    0    0  0.17933712740E+01 -0.33858855495E+02  0.29655950235E+02  0.46142315852E+02  0.99999825921E+01 0.  0.
         12    1    1    2    0    0 -0.17933712740E+01  0.33858855495E+02 -0.29655950235E+02  0.45045684148E+02  0.00000000000E+00 0. -1.
         11    1    3    3    0    0  0.10724543141E+01 -0.53978270353E+01  0.45639779599E+01  0.71495867041E+01  0.51100000000E-03 0.  1.
        -11    1    3    3    0    0  0.27756372215E+00 -0.92836976837E+00 -0.75332409636E+00  0.12273587503E+01  0.51100000000E-03 0. -1.
         12    1    3    3    0    0  0.44335323778E+00 -0.27532658692E+02  0.25845296372E+02  0.37765370398E+02  0.00000000000E+00 0. -1.
</event>
<event>
 7    1  0.2478637E-008  0.4614232E+02  0.7816164E-02  0.1320468E+00
        -11   -1    0    0    0    0  0.00000000000E+00  0.00000000000E+00  0.45593999997E+02  0.45594000000E+02  0.51100000000E-03 0. -1.
         11   -1    0    0    0    0 -0.00000000000E+00 -0.00000000000E+00 -0.45593999997E+02  0.45594000000E+02  0.51100000000E-03 0.  1.
    9900012    2    1    2    0    0  0.86650673564E+01  0.34090699835E+02 -0.28139906031E+02  0.46142317421E+02  0.99999969023E+01 0.  0.
         12    1    1    2    0    0 -0.86650673564E+01 -0.34090699835E+02  0.28139906031E+02  0.45045682579E+02  0.00000000000E+00 0. -1.
         11    1    3    3    0    0  0.30940001312E+01  0.54971784955E+01 -0.26812444301E+01  0.68542600023E+01  0.51100000000E-03 0.  1.
        -11    1    3    3    0    0  0.67924699367E+00  0.12369317370E+02 -0.14664342192E+02  0.19196466364E+02  0.51100000000E-03 0. -1.
         12    1    3    3    0    0  0.48918202316E+01  0.16224203969E+02 -0.10794319408E+02  0.20091591055E+02  0.00000000000E+00 0. -1.
</event>
<event>
 7    1  0.2478637E-008  0.4614232E+02  0.7816164E-02  0.1320468E+00
        -11   -1    0    0    0    0  0.00000000000E+00  0.00000000000E+00  0.45593999997E+02  0.45594000000E+02  0.51100000000E-03 0.  1.
         11   -1    0    0    0    0 -0.00000000000E+00 -0.00000000000E+00 -0.45593999997E+02  0.45594000000E+02  0.51100000000E-03 0. -1.
    9900012    2    1    2    0    0  0.36582879521E+02  0.16281708059E+02  0.20632800502E+02  0.46142317100E+02  0.99999939712E+01 0.  0.
         12    1    1    2    0    0 -0.36582879521E+02 -0.16281708059E+02 -0.20632800502E+02  0.45045682900E+02  0.00000000000E+00 0. -1.
         11    1    3    3    0    0  0.15304399774E+02  0.94262212589E+01  0.44285003095E+01  0.18511885774E+02  0.51100000000E-03 0. -1.
        -11    1    3    3    0    0  0.70334414590E+01  0.27844989179E+01  0.54985724174E+01  0.93518464418E+01  0.51100000000E-03 0.  1.
         12    1    3    3    0    0  0.14245038288E+02  0.40709878822E+01  0.10705727775E+02  0.18278584884E+02  0.00000000000E+00 0. -1.
</event>
<event>
 7    1  0.2478637E-008  0.4614232E+02  0.7816164E-02  0.1320468E+00
        -11   -1    0    0    0    0  0.00000000000E+00  0.00000000000E+00  0.45593999997E+02  0.45594000000E+02  0.51100000000E-03 0. -1.
         11   -1    0    0    0    0 -0.00000000000E+00 -0.00000000000E+00 -0.45593999997E+02  0.45594000000E+02  0.51100000000E-03 0.  1.
    9900012    2    1    2    0    0 -0.41332184868E+02  0.74528464126E+01 -0.16285548434E+02  0.46142317483E+02  0.99999974628E+01 0.  0.
         12    1    1    2    0    0  0.41332184868E+02 -0.74528464126E+01  0.16285548434E+02  0.45045682517E+02  0.00000000000E+00 0. -1.
         11    1    3    3    0    0 -0.18264474841E+02  0.40016463788E+01 -0.26242697817E+01  0.18880969443E+02  0.51100000000E-03 0. -1.
        -11    1    3    3    0    0 -0.18025912427E+01  0.82623140836E+00 -0.28764592918E+00  0.20036801067E+01  0.51100000000E-03 0.  1.
        -12    1    3    3    0    0 -0.21265118784E+02  0.26249686255E+01 -0.13373632723E+02  0.25257667933E+02  0.00000000000E+00 0.  1.
</event>
<event>
 7    1  0.2478637E-008  0.4614232E+02  0.7816164E-02  0.1320468E+00
        -11   -1    0    0    0    0  0.00000000000E+00  0.00000000000E+00  0.45593999997E+02  0.45594000000E+02  0.51100000000E-03 0.  1.
         11   -1    0    0    0    0 -0.00000000000E+00 -0.00000000000E+00 -0.45593999997E+02  0.45594000000E+02  0.51100000000E-03 0. -1.
    9900012    2    1    2    0    0 -0.39380336569E+02  0.10740375846E+02  0.19051163640E+02  0.46142318546E+02  0.10000007161E+02 0.  0.
         12    1    1    2    0    0  0.39380336569E+02 -0.10740375846E+02 -0.19051163640E+02  0.45045681454E+02  0.00000000000E+00 0. -1.
         11    1    3    3    0    0 -0.11375591572E+02  0.13591616427E+01  0.84046582631E+01  0.14208788997E+02  0.51100000000E-03 0. -1.
        -11    1    3    3    0    0 -0.84551533160E+00  0.90337947163E+00  0.17113817048E+01  0.21118281764E+01  0.51100000000E-03 0.  1.
        -12    1    3    3    0    0 -0.27159229665E+02  0.84778347317E+01  0.89351236723E+01  0.29821701373E+02  0.00000000000E+00 0.  1.
</event>
<event>
 7    1  0.2478637E-008  0.4614232E+02  0.7816164E-02  0.1320468E+00
        -11   -1    0    0    0    0  0.00000000000E+00  0.00000000000E+00  0.45593999997E+02  0.45594000000E+02  0.51100000000E-03 0. -1.
         11   -1    0    0    0    0 -0.00000000000E+00 -0.00000000000E+00 -0.45593999997E+02  0.45594000000E+02  0.51100000000E-03 0.  1.
    9900012    2    1    2    0    0  0.22487418737E+02 -0.36968848029E+01 -0.38855661993E+02  0.46142318436E+02  0.10000006151E+02 0.  0.
         12    1    1    2    0    0 -0.22487418737E+02  0.36968848029E+01  0.38855661993E+02  0.45045681564E+02  0.00000000000E+00 0. -1.
         11    1    3    3    0    0  0.10645551587E+02  0.70665500560E+00 -0.17704743527E+02  0.20670875005E+02  0.51100000000E-03 0. -1.
        -11    1    3    3    0    0  0.28381266601E+01  0.14240307399E+01 -0.72429924629E+01  0.79084617067E+01  0.51100000000E-03 0.  1.
         12    1    3    3    0    0  0.90037404897E+01 -0.58275705484E+01 -0.13907926003E+02  0.17562981723E+02  0.00000000000E+00 0. -1.
</event>
<event>
 7    1  0.2478637E-008  0.4614232E+02  0.7816164E-02  0.1320468E+00
        -11   -1    0    0    0    0  0.00000000000E+00  0.00000000000E+00  0.45593999997E+02  0.45594000000E+02  0.51100000000E-03 0.  1.
         11   -1    0    0    0    0 -0.00000000000E+00 -0.00000000000E+00 -0.45593999997E+02  0.45594000000E+02  0.51100000000E-03 0. -1.
    9900012    2    1    2    0    0 -0.31394665568E+02  0.30533386759E+02  0.10545153110E+02  0.46142323324E+02  0.10000050726E+02 0.  0.
         12    1    1    2    0    0  0.31394665568E+02 -0.30533386759E+02 -0.10545153110E+02  0.45045676676E+02  0.00000000000E+00 0. -1.
         11    1    3    3    0    0 -0.77538325339E+00 -0.12439635228E+00 -0.55539492578E+00  0.96185104190E+00  0.51100000000E-03 0. -1.
        -11    1    3    3    0    0 -0.12843264000E+02  0.85912867145E+01  0.35066571192E+01  0.15844755662E+02  0.51100000000E-03 0.  1.
        -12    1    3    3    0    0 -0.17776018315E+02  0.22066496397E+02  0.75938909162E+01  0.29335716620E+02  0.00000000000E+00 0.  1.
</event>
<event>
 7    1  0.2478637E-008  0.4614232E+02  0.7816164E-02  0.1320468E+00
        -11   -1    0    0    0    0  0.00000000000E+00  0.00000000000E+00  0.45593999997E+02  0.45594000000E+02  0.51100000000E-03 0. -1.
         11   -1    0    0    0    0 -0.00000000000E+00 -0.00000000000E+00 -0.45593999997E+02  0.45594000000E+02  0.51100000000E-03 0.  1.
    9900012    2    1    2    0    0 -0.39812553587E+02  0.10603444306E+02 -0.18211017984E+02  0.46142316186E+02  0.99999856344E+01 0.  0.
         12    1    1    2    0    0  0.39812553587E+02 -0.10603444306E+02  0.18211017984E+02  0.45045683814E+02  0.00000000000E+00 0. -1.
         11    1    3    3    0    0 -0.78062525894E+01  0.36352690187E+01 -0.22859083787E+01  0.89094409311E+01  0.51100000000E-03 0. -1.
        -11    1    3    3    0    0 -0.18113488979E+02  0.14083410928E+00 -0.74632924117E+01  0.19591300394E+02  0.51100000000E-03 0.  1.
        -12    1    3    3    0    0 -0.13892812019E+02  0.68273411780E+01 -0.84618171939E+01  0.17641574861E+02  0.00000000000E+00 0.  1.
</event>
<event>
 7    1  0.2478637E-008  0.4614232E+02  0.7816164E-02  0.1320468E+00
        -11   -1    0    0    0    0  0.00000000000E+00  0.00000000000E+00  0.45593999997E+02  0.45594000000E+02  0.51100000000E-03 0.  1.
         11   -1    0    0    0    0 -0.00000000000E+00 -0.00000000000E+00 -0.45593999997E+02  0.45594000000E+02  0.51100000000E-03 0. -1.
    9900012    2    1    2    0    0 -0.54864132325E+01  0.19624133239E+02  0.40173450980E+02  0.46142317641E+02  0.99999989076E+01 0.  0.
         12    1    1    2    0    0  0.54864132325E+01 -0.19624133239E+02 -0.40173450980E+02  0.45045682359E+02  0.00000000000E+00 0. -1.
         11    1    3    3    0    0 -0.99843105633E+00  0.84461650324E+01  0.15544330074E+02  0.17718938062E+02  0.51100000000E-03 0.  1.
        -11    1    3    3    0    0 -0.32263935324E+01  0.60975390442E+00  0.83642884688E+01  0.89856962390E+01  0.51100000000E-03 0. -1.
         12    1    3    3    0    0 -0.12615886437E+01  0.10568214302E+02  0.16264832437E+02  0.19437683340E+02  0.00000000000E+00 0. -1.
</event>
<event>
 7    1  0.2478637E-008  0.4614232E+02  0.7816164E-02  0.1320468E+00
        -11   -1    0    0    0    0  0.00000000000E+00  0.00000000000E+00  0.45593999997E+02  0.45594000000E+02  0.51100000000E-03 0.  1.
         11   -1    0    0    0    0 -0.00000000000E+00 -0.00000000000E+00 -0.45593999997E+02  0.45594000000E+02  0.51100000000E-03 0. -1.
    9900012    2    1    2    0    0 -0.64710717808E+01 -0.76393429638E+01  0.43919007600E+02  0.46142316972E+02  0.99999928064E+01 0.  0.
         12    1    1    2    0    0  0.64710717808E+01  0.76393429638E+01 -0.43919007600E+02  0.45045683028E+02  0.00000000000E+00 0. -1.
         11    1    3    3    0    0 -0.54381567004E+01 -0.11052048332E+01  0.19177416273E+02  0.19964175946E+02  0.51100000000E-03 0.  1.
        -11    1    3    3    0    0  0.27251296651E+00 -0.35319395183E+00  0.11480954933E+02  0.11489618606E+02  0.51100000000E-03 0. -1.
         12    1    3    3    0    0 -0.13054280469E+01 -0.61809441788E+01  0.13260636393E+02  0.14688522420E+02  0.00000000000E+00 0. -1.
</event>
<event>
 7    1  0.2478637E-008  0.4614232E+02  0.7816164E-02  0.1320468E+00
        -11   -1    0    0    0    0  0.00000000000E+00  0.00000000000E+00  0.45593999997E+02  0.45594000000E+02  0.51100000000E-03 0.  1.
         11   -1    0    0    0    0 -0.00000000000E+00 -0.00000000000E+00 -0.45593999997E+02  0.45594000000E+02  0.51100000000E-03 0. -1.
    9900012    2    1    2    0    0 -0.30628951308E+02 -0.46820298426E+01  0.32696475828E+02  0.46142316597E+02  0.99999893813E+01 0.  0.
         12    1    1    2    0    0  0.30628951308E+02  0.46820298426E+01 -0.32696475828E+02  0.45045683403E+02  0.00000000000E+00 0. -1.
         11    1    3    3    0    0 -0.12355206490E+02 -0.55039410847E+01  0.14440962374E+02  0.19786002361E+02  0.51100000000E-03 0. -1.
        -11    1    3    3    0    0 -0.16149772325E+02 -0.90502307136E+00  0.16490745241E+02  0.23099326652E+02  0.51100000000E-03 0.  1.
        -12    1    3    3    0    0 -0.21239724930E+01  0.17269343135E+01  0.17647682135E+01  0.32569875839E+01  0.00000000000E+00 0.  1.
</event>
<event>
 7    1  0.2478637E-008  0.4614232E+02  0.7816164E-02  0.1320468E+00
        -11   -1    0    0    0    0  0.00000000000E+00  0.00000000000E+00  0.45593999997E+02  0.45594000000E+02  0.51100000000E-03 0. -1.
         11   -1    0    0    0    0 -0.00000000000E+00 -0.00000000000E+00 -0.45593999997E+02  0.45594000000E+02  0.51100000000E-03 0.  1.
    9900012    2    1    2    0    0  0.23927992078E+02  0.73015527273E+01 -0.37460005395E+02  0.46142317839E+02  0.10000000712E+02 0.  0.
         12    1    1    2    0    0 -0.23927992078E+02 -0.73015527273E+01  0.37460005395E+02  0.45045682161E+02  0.00000000000E+00 0. -1.
         11    1    3    3    0    0  0.52430000285E-01  0.57163997174E+00 -0.30598739969E+01  0.31132539730E+01  0.51100000000E-03 0. -1.
        -11    1    3    3    0    0  0.38240836993E+01  0.15483254192E+01 -0.11169897408E+02  0.11907457164E+02  0.51100000000E-03 0.  1.
         12    1    3    3    0    0  0.20051478379E+02  0.51815873363E+01 -0.23230233990E+02  0.31121606703E+02  0.00000000000E+00 0. -1.
</event>
<event>
 7    1  0.2478637E-008  0.4614232E+02  0.7816164E-02  0.1320468E+00
        -11   -1    0    0    0    0  0.00000000000E+00  0.00000000000E+00  0.45593999997E+02  0.45594000000E+02  0.51100000000E-03 0.  1.
         11   -1    0    0    0    0 -0.00000000000E+00 -0.00000000000E+00 -0.45593999997E+02  0.45594000000E+02  0.51100000000E-03 0. -1.
    9900012    2    1    2    0    0 -0.47925081519E+01  0.22827895205E+02  0.38536119931E+02  0.46142317929E+02  0.10000001534E+02 0.  0.
         12    1    1    2    0    0  0.47925081519E+01 -0.22827895205E+02 -0.38536119931E+02  0.45045682071E+02  0.00000000000E+00 0. -1.
         11    1    3    3    0    0 -0.43441450092E+01  0.45426158350E+01  0.13521283848E+02  0.14910803856E+02  0.51100000000E-03 0. -1.
        -11    1    3    3    0    0  0.16027318168E+01  0.11122488046E+02  0.15570183777E+02  0.19201799726E+02  0.51100000000E-03 0.  1.
        -12    1    3    3    0    0 -0.20510949594E+01  0.71627913241E+01  0.94446523061E+01  0.12029714347E+02  0.00000000000E+00 0.  1.
</event>
<event>
 7    1  0.2478637E-008  0.4614232E+02  0.7816164E-02  0.1320468E+00
        -11   -1    0    0    0    0  0.00000000000E+00  0.00000000000E+00  0.45593999997E+02  0.45594000000E+02  0.51100000000E-03 0.  1.
         11   -1    0    0    0    0 -0.00000000000E+00 -0.00000000000E+00 -0.45593999997E+02  0.45594000000E+02  0.51100000000E-03 0. -1.
    9900012    2    1    2    0    0  0.14095856937E+02  0.41380874227E+02  0.10864786478E+02  0.46142317413E+02  0.99999968213E+01 0.  0.
         12    1    1    2    0    0 -0.14095856937E+02 -0.41380874227E+02 -0.10864786478E+02  0.45045682587E+02  0.00000000000E+00 0. -1.
         11    1    3    3    0    0  0.85592296194E+01  0.26913487189E+02  0.83067328510E+01  0.29438036878E+02  0.51100000000E-03 0. -1.
        -11    1    3    3    0    0  0.44675498891E+01  0.13123044327E+02  0.40361087326E+01  0.14438264036E+02  0.51100000000E-03 0.  1.
         12    1    3    3    0    0  0.10690774286E+01  0.13443427109E+01 -0.14780551056E+01  0.22660164977E+01  0.00000000000E+00 0. -1.
</event>
<event>
 7    1  0.2478637E-008  0.4614232E+02  0.7816164E-02  0.1320468E+00
        -11   -1    0    0    0    0  0.00000000000E+00  0.00000000000E+00  0.45593999997E+02  0.45594000000E+02  0.51100000000E-03 0. -1.
         11   -1    0    0    0    0 -0.00000000000E+00 -0.00000000000E+00 -0.45593999997E+02  0.45594000000E+02  0.51100000000E-03 0.  1.
    9900012    2    1    2    0    0  0.25860290142E+02  0.33077284032E+02  0.16317241882E+02  0.46142315325E+02  0.99999777874E+01 0.  0.
         12    1    1    2    0    0 -0.25860290142E+02 -0.33077284032E+02 -0.16317241882E+02  0.45045684675E+02  0.00000000000E+00 0. -1.
         11    1    3    3    0    0  0.15301162636E+01  0.38861640799E+01  0.45318518906E+01  0.61628896514E+01  0.51100000000E-03 0. -1.
        -11    1    3    3    0    0  0.10210922184E+02  0.15212152635E+02  0.61713107211E+01  0.19332811381E+02  0.51100000000E-03 0.  1.
        -12    1    3    3    0    0  0.14119251695E+02  0.13978967317E+02  0.56140792698E+01  0.20646614292E+02  0.00000000000E+00 0.  1.
</event>
<event>
 7    1  0.2478637E-008  0.4614232E+02  0.7816164E-02  0.1320468E+00
        -11   -1    0    0    0    0  0.00000000000E+00  0.00000000000E+00  0.45593999997E+02  0.45594000000E+02  0.51100000000E-03 0.  1.
         11   -1    0    0    0    0 -0.00000000000E+00 -0.00000000000E+00 -0.45593999997E+02  0.45594000000E+02  0.51100000000E-03 0. -1.
    9900012    2    1    2    0    0  0.12737500561E+02 -0.43197684838E+02 -0.91084896665E+00  0.46142317169E+02  0.99999945978E+01 0.  0.
         12    1    1    2    0    0 -0.12737500561E+02  0.43197684838E+02  0.91084896665E+00  0.45045682831E+02  0.00000000000E+00 0. -1.
         11    1    3    3    0    0  0.20270235854E+01 -0.24462904425E+01 -0.87565427265E+00  0.32954411255E+01  0.51100000000E-03 0. -1.
        -11    1    3    3    0    0  0.16854969117E+01 -0.11151878187E+02 -0.32449089379E+01  0.11736043678E+02  0.51100000000E-03 0.  1.
        -12    1    3    3    0    0  0.90249800634E+01 -0.29599516208E+02  0.32097142439E+01  0.31110832365E+02  0.00000000000E+00 0.  1.
</event>
<event>
 7    1  0.2478637E-008  0.4614232E+02  0.7816164E-02  0.1320468E+00
        -11   -1    0    0    0    0  0.00000000000E+00  0.00000000000E+00  0.45593999997E+02  0.45594000000E+02  0.51100000000E-03 0. -1.
         11   -1    0    0    0    0 -0.00000000000E+00 -0.00000000000E+00 -0.45593999997E+02  0.45594000000E+02  0.51100000000E-03 0.  1.
    9900012    2    1    2    0    0  0.16200745777E+02 -0.35149330609E+02 -0.23047209574E+02  0.46142317908E+02  0.10000001336E+02 0.  0.
         12    1    1    2    0    0 -0.16200745777E+02  0.35149330609E+02  0.23047209574E+02  0.45045682092E+02  0.00000000000E+00 0. -1.
         11    1    3    3    0    0  0.31350152986E+01 -0.53633549309E+01 -0.67991322988E+01  0.92098912760E+01  0.51100000000E-03 0. -1.
        -11    1    3    3    0    0  0.31939777577E+01 -0.96119567763E+01 -0.83419999176E+01  0.13121744163E+02  0.51100000000E-03 0.  1.
         12    1    3    3    0    0  0.98717527211E+01 -0.20174018902E+02 -0.79060773574E+01  0.23810682469E+02  0.00000000000E+00 0. -1.
</event>
<event>
 7    1  0.2478637E-008  0.4614232E+02  0.7816164E-02  0.1320468E+00
        -11   -1    0    0    0    0  0.00000000000E+00  0.00000000000E+00  0.45593999997E+02  0.45594000000E+02  0.51100000000E-03 0. -1.
         11   -1    0    0    0    0 -0.00000000000E+00 -0.00000000000E+00 -0.45593999997E+02  0.45594000000E+02  0.51100000000E-03 0.  1.
    9900012    2    1    2    0    0 -0.18095930526E+02  0.33087263548E+02 -0.24635011742E+02  0.46142317474E+02  0.99999973864E+01 0.  0.
         12    1    1    2    0    0  0.18095930526E+02 -0.33087263548E+02  0.24635011742E+02  0.45045682526E+02  0.00000000000E+00 0. -1.
         11    1    3    3    0    0 -0.10640229267E+01  0.57469103194E+01 -0.31560786131E+01  0.66422854110E+01  0.51100000000E-03 0. -1.
        -11    1    3    3    0    0 -0.11622239959E+02  0.11342864946E+02 -0.98040461731E+01  0.18969880561E+02  0.51100000000E-03 0.  1.
        -12    1    3    3    0    0 -0.54096676399E+01  0.15997488282E+02 -0.11674886956E+02  0.20530151503E+02  0.00000000000E+00 0.  1.
</event>
<event>
 7    1  0.2478637E-008  0.4614232E+02  0.7816164E-02  0.1320468E+00
        -11   -1    0    0    0    0  0.00000000000E+00  0.00000000000E+00  0.45593999997E+02  0.45594000000E+02  0.51100000000E-03 0. -1.
         11   -1    0    0    0    0 -0.00000000000E+00 -0.00000000000E+00 -0.45593999997E+02  0.45594000000E+02  0.51100000000E-03 0.  1.
    9900012    2    1    2    0    0  0.21733450282E+02 -0.28111899783E+02 -0.27685588955E+02  0.46142316451E+02  0.99999880561E+01 0.  0.
         12    1    1    2    0    0 -0.21733450282E+02  0.28111899783E+02  0.27685588955E+02  0.45045683549E+02  0.00000000000E+00 0. -1.
         11    1    3    3    0    0  0.19570054419E+01 -0.53065868129E+01 -0.20111437701E+01  0.60028687665E+01  0.51100000000E-03 0.  1.
        -11    1    3    3    0    0  0.19433059156E+02 -0.19673039415E+02 -0.23713680099E+02  0.36428160702E+02  0.51100000000E-03 0. -1.
         12    1    3    3    0    0  0.34338568453E+00 -0.31322735547E+01 -0.19607650858E+01  0.37112869832E+01  0.00000000000E+00 0. -1.
</event>
<event>
 7    1  0.2478637E-008  0.4614232E+02  0.7816164E-02  0.1320468E+00
        -11   -1    0    0    0    0  0.00000000000E+00  0.00000000000E+00  0.45593999997E+02  0.45594000000E+02  0.51100000000E-03 0.  1.
         11   -1    0    0    0    0 -0.00000000000E+00 -0.00000000000E+00 -0.45593999997E+02  0.45594000000E+02  0.51100000000E-03 0. -1.
    9900012    2    1    2    0    0  0.36100838734E+02  0.26835001980E+02 -0.23928340222E+01  0.46142317153E+02  0.99999944538E+01 0.  0.
         12    1    1    2    0    0 -0.36100838734E+02 -0.26835001980E+02  0.23928340222E+01  0.45045682847E+02  0.00000000000E+00 0. -1.
         11    1    3    3    0    0  0.26742852811E+00 -0.47784203413E+00  0.10230399683E+00  0.55706139349E+00  0.51100000000E-03 0. -1.
        -11    1    3    3    0    0  0.19847737928E+02  0.13937957573E+02  0.17444531023E+01  0.24315478179E+02  0.51100000000E-03 0.  1.
        -12    1    3    3    0    0  0.15985672277E+02  0.13374886441E+02 -0.42395911213E+01  0.21269777581E+02  0.00000000000E+00 0.  1.
</event>
<event>
 7    1  0.2478637E-008  0.4614232E+02  0.7816164E-02  0.1320468E+00
        -11   -1    0    0    0    0  0.00000000000E+00  0.00000000000E+00  0.45593999997E+02  0.45594000000E+02  0.51100000000E-03 0. -1.
         11   -1    0    0    0    0 -0.00000000000E+00 -0.00000000000E+00 -0.45593999997E+02  0.45594000000E+02  0.51100000000E-03 0.  1.
    9900012    2    1    2    0    0  0.30405307325E+02 -0.10969939400E+01 -0.33217876776E+02  0.46142318224E+02  0.10000004217E+02 0.  0.
         12    1    1    2    0    0 -0.30405307325E+02  0.10969939400E+01  0.33217876776E+02  0.45045681776E+02  0.00000000000E+00 0. -1.
         11    1    3    3    0    0  0.48292521622E+01 -0.24709029164E+01 -0.49374892718E+01  0.73352462971E+01  0.51100000000E-03 0. -1.
        -11    1    3    3    0    0  0.63148711817E+01 -0.23758312709E+01 -0.94450261464E+01  0.11607355058E+02  0.51100000000E-03 0.  1.
        -12    1    3    3    0    0  0.19261183981E+02  0.37497402473E+01 -0.18835361358E+02  0.27199716869E+02  0.00000000000E+00 0.  1.
</event>
<event>
 7    1  0.2478637E-008  0.4614232E+02  0.7816164E-02  0.1320468E+00
        -11   -1    0    0    0    0  0.00000000000E+00  0.00000000000E+00  0.45593999997E+02  0.45594000000E+02  0.51100000000E-03 0. -1.
         11   -1    0    0    0    0 -0.00000000000E+00 -0.00000000000E+00 -0.45593999997E+02  0.45594000000E+02  0.51100000000E-03 0.  1.
    9900012    2    1    2    0    0  0.31259900351E+02  0.28578414564E+02 -0.15336438171E+02  0.46142317802E+02  0.10000000370E+02 0.  0.
         12    1    1    2    0    0 -0.31259900351E+02 -0.28578414564E+02  0.15336438171E+02  0.45045682198E+02  0.00000000000E+00 0. -1.
         11    1    3    3    0    0  0.99156850059E+01  0.53672349957E+01 -0.29361209374E+01  0.11651129862E+02  0.51100000000E-03 0. -1.
        -11    1    3    3    0    0  0.94837772848E+01  0.76269719919E+01 -0.75273813721E+01  0.14309933750E+02  0.51100000000E-03 0.  1.
        -12    1    3    3    0    0  0.11860438060E+02  0.15584207576E+02 -0.48729358617E+01  0.20181254190E+02  0.00000000000E+00 0.  1.
</event>
<event>
 7    1  0.2478637E-008  0.4614232E+02  0.7816164E-02  0.1320468E+00
        -11   -1    0    0    0    0  0.00000000000E+00  0.00000000000E+00  0.45593999997E+02  0.45594000000E+02  0.51100000000E-03 0.  1.
         11   -1    0    0    0    0 -0.00000000000E+00 -0.00000000000E+00 -0.45593999997E+02  0.45594000000E+02  0.51100000000E-03 0. -1.
    9900012    2    1    2    0    0  0.15098505673E+02  0.40939099459E+01  0.42242022662E+02  0.46142318178E+02  0.10000003804E+02 0.  0.
         12    1    1    2    0    0 -0.15098505673E+02 -0.40939099459E+01 -0.42242022662E+02  0.45045681822E+02  0.00000000000E+00 0. -1.
         11    1    3    3    0    0  0.46308043302E+01 -0.10239888120E+01  0.74649792424E+01  0.88441402738E+01  0.51100000000E-03 0. -1.
        -11    1    3    3    0    0  0.10890453997E+02  0.56663173370E+01  0.34366068370E+02  0.36492955428E+02  0.51100000000E-03 0.  1.
        -12    1    3    3    0    0 -0.42275265432E+00 -0.54841857912E+00  0.41097504961E+00  0.80522247613E+00  0.00000000000E+00 0.  1.
</event>
<event>
 7    1  0.2478637E-008  0.4614232E+02  0.7816164E-02  0.1320468E+00
        -11   -1    0    0    0    0  0.00000000000E+00  0.00000000000E+00  0.45593999997E+02  0.45594000000E+02  0.51100000000E-03 0. -1.
         11   -1    0    0    0    0 -0.00000000000E+00 -0.00000000000E+00 -0.45593999997E+02  0.45594000000E+02  0.51100000000E-03 0.  1.
    9900012    2    1    2    0    0  0.41870873545E+02 -0.16129209852E+02  0.39739258240E+01  0.46142317096E+02  0.99999939316E+01 0.  0.
         12    1    1    2    0    0 -0.41870873545E+02  0.16129209852E+02 -0.39739258240E+01  0.45045682904E+02  0.00000000000E+00 0. -1.
         11    1    3    3    0    0  0.17322078501E+02 -0.60801370549E+01  0.38968222475E+01  0.18767197289E+02  0.51100000000E-03 0. -1.
        -11    1    3    3    0    0  0.23830781753E+02 -0.89384511394E+01  0.14184412915E+01  0.25491450404E+02  0.51100000000E-03 0.  1.
        -12    1    3    3    0    0  0.71801329090E+00 -0.11106216579E+01 -0.13413377150E+01  0.18836694027E+01  0.00000000000E+00 0.  1.
</event>
<event>
 7    1  0.2478637E-008  0.4614232E+02  0.7816164E-02  0.1320468E+00
        -11   -1    0    0    0    0  0.00000000000E+00  0.00000000000E+00  0.45593999997E+02  0.45594000000E+02  0.51100000000E-03 0.  1.
         11   -1    0    0    0    0 -0.00000000000E+00 -0.00000000000E+00 -0.45593999997E+02  0.45594000000E+02  0.51100000000E-03 0. -1.
    9900012    2    1    2    0    0  0.37887596419E+02 -0.24154351584E+02  0.31954401770E+01  0.46142317624E+02  0.99999987456E+01 0.  0.
         12    1    1    2    0    0 -0.37887596419E+02  0.24154351584E+02 -0.31954401770E+01  0.45045682376E+02  0.00000000000E+00 0. -1.
         11    1    3    3    0    0  0.43558382874E+01 -0.58943765358E+01 -0.11227113968E+01  0.74146802408E+01  0.51100000000E-03 0. -1.
        -11    1    3    3    0    0  0.31319932741E+02 -0.18297683684E+02  0.40109439729E+01  0.36494261013E+02  0.51100000000E-03 0.  1.
         12    1    3    3    0    0  0.22118253902E+01  0.37708635151E-01  0.30720760088E+00  0.22333763695E+01  0.00000000000E+00 0. -1.
</event>
<event>
 7    1  0.2478637E-008  0.4614232E+02  0.7816164E-02  0.1320468E+00
        -11   -1    0    0    0    0  0.00000000000E+00  0.00000000000E+00  0.45593999997E+02  0.45594000000E+02  0.51100000000E-03 0.  1.
         11   -1    0    0    0    0 -0.00000000000E+00 -0.00000000000E+00 -0.45593999997E+02  0.45594000000E+02  0.51100000000E-03 0. -1.
    9900012    2    1    2    0    0 -0.15553790147E+02  0.42258745483E+02  0.11795773781E+01  0.46142319180E+02  0.10000012938E+02 0.  0.
         12    1    1    2    0    0  0.15553790147E+02 -0.42258745483E+02 -0.11795773781E+01  0.45045680820E+02  0.00000000000E+00 0. -1.
         11    1    3    3    0    0 -0.38581403580E+01  0.47534599594E+01 -0.27924873858E+00  0.61285078711E+01  0.51100000000E-03 0. -1.
        -11    1    3    3    0    0 -0.24142204310E+01  0.15376664685E+02 -0.22695552361E+01  0.15729626771E+02  0.51100000000E-03 0.  1.
        -12    1    3    3    0    0 -0.92814293581E+01  0.22128620839E+02  0.37283813527E+01  0.24284184538E+02  0.00000000000E+00 0.  1.
</event>
<event>
 7    1  0.2478637E-008  0.4614232E+02  0.7816164E-02  0.1320468E+00
        -11   -1    0    0    0    0  0.00000000000E+00  0.00000000000E+00  0.45593999997E+02  0.45594000000E+02  0.51100000000E-03 0. -1.
         11   -1    0    0    0    0 -0.00000000000E+00 -0.00000000000E+00 -0.45593999997E+02  0.45594000000E+02  0.51100000000E-03 0.  1.
    9900012    2    1    2    0    0  0.38794082588E+02  0.21604862139E+02 -0.75738076736E+01  0.46142317914E+02  0.10000001395E+02 0.  0.
         12    1    1    2    0    0 -0.38794082588E+02 -0.21604862139E+02  0.75738076736E+01  0.45045682086E+02  0.00000000000E+00 0. -1.
         11    1    3    3    0    0  0.19343719415E+01  0.39040249099E+01 -0.11790774859E+01  0.45136935301E+01  0.51100000000E-03 0. -1.
        -11    1    3    3    0    0  0.28442650202E+01  0.16902994093E+01 -0.17639065010E+01  0.37494428925E+01  0.51100000000E-03 0.  1.
        -12    1    3    3    0    0  0.34015445627E+02  0.16010537820E+02 -0.46308236867E+01  0.37879181492E+02  0.00000000000E+00 0.  1.
</event>
<event>
 7    1  0.2478637E-008  0.4614232E+02  0.7816164E-02  0.1320468E+00
        -11   -1    0    0    0    0  0.00000000000E+00  0.00000000000E+00  0.45593999997E+02  0.45594000000E+02  0.51100000000E-03 0.  1.
         11   -1    0    0    0    0 -0.00000000000E+00 -0.00000000000E+00 -0.45593999997E+02  0.45594000000E+02  0.51100000000E-03 0. -1.
    9900012    2    1    2    0    0  0.11803557310E+02 -0.91731280857E+01  0.42492860840E+02  0.46142318005E+02  0.10000002221E+02 0.  0.
         12    1    1    2    0    0 -0.11803557310E+02  0.91731280857E+01 -0.42492860840E+02  0.45045681995E+02  0.00000000000E+00 0. -1.
         11    1    3    3    0    0  0.40756192915E+01 -0.11924731743E+01  0.11921551373E+02  0.12655277645E+02  0.51100000000E-03 0. -1.
        -11    1    3    3    0    0  0.67127804619E+01 -0.77447647563E+01  0.16821990875E+02  0.19698278603E+02  0.51100000000E-03 0.  1.
         12    1    3    3    0    0  0.10151575570E+01 -0.23589015513E+00  0.13749318592E+02  0.13788761757E+02  0.00000000000E+00 0. -1.
</event>
<event>
 7    1  0.2478637E-008  0.4614231E+02  0.7816164E-02  0.1320468E+00
        -11   -1    0    0    0    0  0.00000000000E+00  0.00000000000E+00  0.45593999997E+02  0.45594000000E+02  0.51100000000E-03 0.  1.
         11   -1    0    0    0    0 -0.00000000000E+00 -0.00000000000E+00 -0.45593999997E+02  0.45594000000E+02  0.51100000000E-03 0. -1.
    9900012    2    1    2    0    0 -0.30266859820E+02  0.91043356987E+01  0.32095826590E+02  0.46142314120E+02  0.99999668000E+01 0.  0.
         12    1    1    2    0    0  0.30266859820E+02 -0.91043356987E+01 -0.32095826590E+02  0.45045685880E+02  0.00000000000E+00 0. -1.
         11    1    3    3    0    0 -0.10708525733E+02 -0.57823604169E+00  0.12517706209E+02  0.16483320336E+02  0.51100000000E-03 0. -1.
        -11    1    3    3    0    0 -0.96931591343E+01  0.24289467025E+01  0.96989197393E+01  0.13925737340E+02  0.51100000000E-03 0.  1.
        -12    1    3    3    0    0 -0.98651749523E+01  0.72536250378E+01  0.98792006418E+01  0.15733256445E+02  0.00000000000E+00 0.  1.
</event>
<event>
 7    1  0.2478637E-008  0.4614232E+02  0.7816164E-02  0.1320468E+00
        -11   -1    0    0    0    0  0.00000000000E+00  0.00000000000E+00  0.45593999997E+02  0.45594000000E+02  0.51100000000E-03 0.  1.
         11   -1    0    0    0    0 -0.00000000000E+00 -0.00000000000E+00 -0.45593999997E+02  0.45594000000E+02  0.51100000000E-03 0. -1.
    9900012    2    1    2    0    0  0.86269701605E+01  0.24554595550E+02  0.36766298359E+02  0.46142317945E+02  0.10000001679E+02 0.  0.
         12    1    1    2    0    0 -0.86269701605E+01 -0.24554595550E+02 -0.36766298359E+02  0.45045682055E+02  0.00000000000E+00 0. -1.
         11    1    3    3    0    0  0.59403932870E+01  0.14946721887E+02  0.18913336541E+02  0.24827546535E+02  0.51100000000E-03 0. -1.
        -11    1    3    3    0    0  0.19787833253E+01  0.10388795243E+02  0.16526069664E+02  0.19620235189E+02  0.51100000000E-03 0.  1.
         12    1    3    3    0    0  0.70779354821E+00 -0.78092157961E+00  0.13268921529E+01  0.16945362215E+01  0.00000000000E+00 0. -1.
</event>
<event>
 7    1  0.2478637E-008  0.4614232E+02  0.7816164E-02  0.1320468E+00
        -11   -1    0    0    0    0  0.00000000000E+00  0.00000000000E+00  0.45593999997E+02  0.45594000000E+02  0.51100000000E-03 0. -1.
         11   -1    0    0    0    0 -0.00000000000E+00 -0.00000000000E+00 -0.45593999997E+02  0.45594000000E+02  0.51100000000E-03 0.  1.
    9900012    2    1    2    0    0  0.29621046116E+02 -0.29156042833E+02 -0.17367568104E+02  0.46142316205E+02  0.99999858115E+01 0.  0.
         12    1    1    2    0    0 -0.29621046116E+02  0.29156042833E+02  0.17367568104E+02  0.45045683795E+02  0.00000000000E+00 0. -1.
         11    1    3    3    0    0  0.20937150747E+02 -0.17893388903E+02 -0.97848192274E+01  0.29228074439E+02  0.51100000000E-03 0. -1.
        -11    1    3    3    0    0  0.36608179411E+01 -0.78181763717E+01 -0.63073839201E+01  0.10691518225E+02  0.51100000000E-03 0.  1.
        -12    1    3    3    0    0  0.50230774279E+01 -0.34444775586E+01 -0.12753649562E+01  0.62227235412E+01  0.00000000000E+00 0.  1.
</event>
<event>
 7    1  0.2478637E-008  0.4614232E+02  0.7816164E-02  0.1320468E+00
        -11   -1    0    0    0    0  0.00000000000E+00  0.00000000000E+00  0.45593999997E+02  0.45594000000E+02  0.51100000000E-03 0. -1.
         11   -1    0    0    0    0 -0.00000000000E+00 -0.00000000000E+00 -0.45593999997E+02  0.45594000000E+02  0.51100000000E-03 0.  1.
    9900012    2    1    2    0    0  0.10704502218E+02 -0.43132415896E+02 -0.73567551942E+01  0.46142317457E+02  0.99999972286E+01 0.  0.
         12    1    1    2    0    0 -0.10704502218E+02  0.43132415896E+02  0.73567551942E+01  0.45045682543E+02  0.00000000000E+00 0. -1.
         11    1    3    3    0    0  0.51249089066E+01 -0.14423653007E+02 -0.10965202587E+01  0.15346296436E+02  0.51100000000E-03 0. -1.
        -11    1    3    3    0    0  0.11173218263E+01 -0.19536043777E+02 -0.64200924241E+01  0.20594246806E+02  0.51100000000E-03 0.  1.
        -12    1    3    3    0    0  0.44622714849E+01 -0.91727191121E+01  0.15985748860E+00  0.10201774215E+02  0.00000000000E+00 0.  1.
</event>
<event>
 7    1  0.2478637E-008  0.4614232E+02  0.7816164E-02  0.1320468E+00
        -11   -1    0    0    0    0  0.00000000000E+00  0.00000000000E+00  0.45593999997E+02  0.45594000000E+02  0.51100000000E-03 0.  1.
         11   -1    0    0    0    0 -0.00000000000E+00 -0.00000000000E+00 -0.45593999997E+02  0.45594000000E+02  0.51100000000E-03 0. -1.
    9900012    2    1    2    0    0 -0.15137105662E+02 -0.37194225256E+02  0.20410073811E+02  0.46142317930E+02  0.10000001540E+02 0.  0.
         12    1    1    2    0    0  0.15137105662E+02  0.37194225256E+02 -0.20410073811E+02  0.45045682070E+02  0.00000000000E+00 0. -1.
         11    1    3    3    0    0 -0.13512044501E+01 -0.60763990115E+01  0.74423331046E+01  0.97024069547E+01  0.51100000000E-03 0. -1.
        -11    1    3    3    0    0 -0.10051864067E+02 -0.23416090853E+02  0.10138861216E+02  0.27425349388E+02  0.51100000000E-03 0.  1.
         12    1    3    3    0    0 -0.37340371451E+01 -0.77017353915E+01  0.28288794901E+01  0.90145615873E+01  0.00000000000E+00 0. -1.
</event>
<event>
 7    1  0.2478637E-008  0.4614232E+02  0.7816164E-02  0.1320468E+00
        -11   -1    0    0    0    0  0.00000000000E+00  0.00000000000E+00  0.45593999997E+02  0.45594000000E+02  0.51100000000E-03 0. -1.
         11   -1    0    0    0    0 -0.00000000000E+00 -0.00000000000E+00 -0.45593999997E+02  0.45594000000E+02  0.51100000000E-03 0.  1.
    9900012    2    1    2    0    0  0.75192097906E+01  0.38910852096E+02 -0.21413094710E+02  0.46142317058E+02  0.99999935878E+01 0.  0.
         12    1    1    2    0    0 -0.75192097906E+01 -0.38910852096E+02  0.21413094710E+02  0.45045682942E+02  0.00000000000E+00 0. -1.
         11    1    3    3    0    0 -0.11140201745E+00  0.60523080048E+01 -0.41279807504E+01  0.73268729981E+01  0.51100000000E-03 0. -1.
        -11    1    3    3    0    0  0.37362630801E+00  0.12020857209E+01  0.94240208155E+00  0.15724912219E+01  0.51100000000E-03 0.  1.
        -12    1    3    3    0    0  0.72569855000E+01  0.31656458370E+02 -0.18227516041E+02  0.37242952838E+02  0.00000000000E+00 0.  1.
</event>
<event>
 7    1  0.2478637E-008  0.4614232E+02  0.7816164E-02  0.1320468E+00
        -11   -1    0    0    0    0  0.00000000000E+00  0.00000000000E+00  0.45593999997E+02  0.45594000000E+02  0.51100000000E-03 0. -1.
         11   -1    0    0    0    0 -0.00000000000E+00 -0.00000000000E+00 -0.45593999997E+02  0.45594000000E+02  0.51100000000E-03 0.  1.
    9900012    2    1    2    0    0  0.25121641068E+02 -0.27899037207E+02 -0.24892977056E+02  0.46142318368E+02  0.10000005530E+02 0.  0.
         12    1    1    2    0    0 -0.25121641068E+02  0.27899037207E+02  0.24892977056E+02  0.45045681632E+02  0.00000000000E+00 0. -1.
         11    1    3    3    0    0  0.53616583733E+01 -0.20807830965E+01 -0.15155139117E+01  0.59475895524E+01  0.51100000000E-03 0. -1.
        -11    1    3    3    0    0  0.11581885092E+02 -0.12276217361E+02 -0.12042730391E+02  0.20733377209E+02  0.51100000000E-03 0.  1.
         12    1    3    3    0    0  0.81780976021E+01 -0.13542036750E+02 -0.11334732754E+02  0.19461351606E+02  0.00000000000E+00 0. -1.
</event>
<event>
 7    1  0.2478637E-008  0.4614232E+02  0.7816164E-02  0.1320468E+00
        -11   -1    0    0    0    0  0.00000000000E+00  0.00000000000E+00  0.45593999997E+02  0.45594000000E+02  0.51100000000E-03 0. -1.
         11   -1    0    0    0    0 -0.00000000000E+00 -0.00000000000E+00 -0.45593999997E+02  0.45594000000E+02  0.51100000000E-03 0.  1.
    9900012    2    1    2    0    0 -0.24054832796E+02  0.25855434705E+02 -0.27963815674E+02  0.46142317947E+02  0.10000001692E+02 0.  0.
         12    1    1    2    0    0  0.24054832796E+02 -0.25855434705E+02  0.27963815674E+02  0.45045682053E+02  0.00000000000E+00 0. -1.
         11    1    3    3    0    0 -0.25551590146E+01  0.24110486616E+01  0.29903908777E+00  0.35258215887E+01  0.51100000000E-03 0. -1.
        -11    1    3    3    0    0 -0.15350533357E+02  0.15116204934E+02 -0.19028489920E+02  0.28744076865E+02  0.51100000000E-03 0.  1.
         12    1    3    3    0    0 -0.61491404247E+01  0.83281811096E+01 -0.92343648416E+01  0.13872419493E+02  0.00000000000E+00 0. -1.
</event>
<event>
 7    1  0.2478637E-008  0.4614232E+02  0.7816164E-02  0.1320468E+00
        -11   -1    0    0    0    0  0.00000000000E+00  0.00000000000E+00  0.45593999997E+02  0.45594000000E+02  0.51100000000E-03 0.  1.
         11   -1    0    0    0    0 -0.00000000000E+00 -0.00000000000E+00 -0.45593999997E+02  0.45594000000E+02  0.51100000000E-03 0. -1.
    9900012    2    1    2    0    0  0.42326401634E+02  0.11165295657E+01  0.15373434921E+02  0.46142318577E+02  0.10000007439E+02 0.  0.
         12    1    1    2    0    0 -0.42326401634E+02 -0.11165295657E+01 -0.15373434921E+02  0.45045681423E+02  0.00000000000E+00 0. -1.
         11    1    3    3    0    0  0.16935478446E+02  0.11959697104E+00  0.92916511495E+01  0.19317337161E+02  0.51100000000E-03 0.  1.
        -11    1    3    3    0    0  0.51115051694E+01  0.26568461850E+01  0.17625530003E+01  0.60243597242E+01  0.51100000000E-03 0. -1.
        -12    1    3    3    0    0  0.20279418019E+02 -0.16599135903E+01  0.43192307715E+01  0.20800621692E+02  0.00000000000E+00 0.  1.
</event>
<event>
 7    1  0.2478637E-008  0.4614232E+02  0.7816164E-02  0.1320468E+00
        -11   -1    0    0    0    0  0.00000000000E+00  0.00000000000E+00  0.45593999997E+02  0.45594000000E+02  0.51100000000E-03 0.  1.
         11   -1    0    0    0    0 -0.00000000000E+00 -0.00000000000E+00 -0.45593999997E+02  0.45594000000E+02  0.51100000000E-03 0. -1.
    9900012    2    1    2    0    0  0.15119214103E+02 -0.11702136678E+02  0.40787042796E+02  0.46142317655E+02  0.99999990319E+01 0.  0.
         12    1    1    2    0    0 -0.15119214103E+02  0.11702136678E+02 -0.40787042796E+02  0.45045682345E+02  0.00000000000E+00 0. -1.
         11    1    3    3    0    0  0.82737602944E+01 -0.33099496987E+01  0.13797391284E+02  0.16424946968E+02  0.51100000000E-03 0. -1.
        -11    1    3    3    0    0  0.46503675596E+01 -0.14948240666E+01  0.77471851821E+01  0.91585640762E+01  0.51100000000E-03 0.  1.
         12    1    3    3    0    0  0.21950862487E+01 -0.68973629128E+01  0.19242466330E+02  0.20558806610E+02  0.00000000000E+00 0. -1.
</event>
<event>
 7    1  0.2478637E-008  0.4614232E+02  0.7816164E-02  0.1320468E+00
        -11   -1    0    0    0    0  0.00000000000E+00  0.00000000000E+00  0.45593999997E+02  0.45594000000E+02  0.51100000000E-03 0.  1.
         11   -1    0    0    0    0 -0.00000000000E+00 -0.00000000000E+00 -0.45593999997E+02  0.45594000000E+02  0.51100000000E-03 0. -1.
    9900012    2    1    2    0    0  0.26518126237E+02  0.23946505123E+02  0.27431134938E+02  0.46142319955E+02  0.10000020005E+02 0.  0.
         12    1    1    2    0    0 -0.26518126237E+02 -0.23946505123E+02 -0.27431134938E+02  0.45045680045E+02  0.00000000000E+00 0. -1.
         11    1    3    3    0    0  0.58001284864E+01  0.56787821111E+01  0.36936649741E+01  0.89181398243E+01  0.51100000000E-03 0. -1.
        -11    1    3    3    0    0  0.79621309205E+01  0.11983310345E+02  0.13202796027E+02  0.19527136985E+02  0.51100000000E-03 0.  1.
        -12    1    3    3    0    0  0.12755866830E+02  0.62844126676E+01  0.10534673936E+02  0.17697043146E+02  0.00000000000E+00 0.  1.
</event>
<event>
 7    1  0.2478637E-008  0.4614232E+02  0.7816164E-02  0.1320468E+00
        -11   -1    0    0    0    0  0.00000000000E+00  0.00000000000E+00  0.45593999997E+02  0.45594000000E+02  0.51100000000E-03 0.  1.
         11   -1    0    0    0    0 -0.00000000000E+00 -0.00000000000E+00 -0.45593999997E+02  0.45594000000E+02  0.51100000000E-03 0. -1.
    9900012    2    1    2    0    0 -0.35461971721E+01  0.16454299111E+02  0.41782700273E+02  0.46142317458E+02  0.99999972344E+01 0.  0.
         12    1    1    2    0    0  0.35461971721E+01 -0.16454299111E+02 -0.41782700273E+02  0.45045682542E+02  0.00000000000E+00 0. -1.
         11    1    3    3    0    0 -0.68028750805E+00  0.52273254663E+01  0.85580279187E+01  0.10051246925E+02  0.51100000000E-03 0. -1.
        -11    1    3    3    0    0  0.43107337032E+00  0.33395305845E+01  0.24852778902E+01  0.41850800742E+01  0.51100000000E-03 0.  1.
         12    1    3    3    0    0 -0.32969830344E+01  0.78874430600E+01  0.30739394464E+02  0.31905990459E+02  0.00000000000E+00 0. -1.
</event>
<event>
 7    1  0.2478637E-008  0.4614232E+02  0.7816164E-02  0.1320468E+00
        -11   -1    0    0    0    0  0.00000000000E+00  0.00000000000E+00  0.45593999997E+02  0.45594000000E+02  0.51100000000E-03 0.  1.
         11   -1    0    0    0    0 -0.00000000000E+00 -0.00000000000E+00 -0.45593999997E+02  0.45594000000E+02  0.51100000000E-03 0. -1.
    9900012    2    1    2    0    0  0.16765863819E+02  0.19163769682E+02  0.37158704483E+02  0.46142316779E+02  0.99999910419E+01 0.  0.
         12    1    1    2    0    0 -0.16765863819E+02 -0.19163769682E+02 -0.37158704483E+02  0.45045683221E+02  0.00000000000E+00 0. -1.
         11    1    3    3    0    0  0.24853704432E+01  0.34092501366E+01  0.23132270685E+01  0.48115561376E+01  0.51100000000E-03 0. -1.
        -11    1    3    3    0    0  0.96473708362E+01  0.11119550557E+02  0.17986776796E+02  0.23243070116E+02  0.51100000000E-03 0.  1.
         12    1    3    3    0    0  0.46331225393E+01  0.46349689881E+01  0.16858700619E+02  0.18087690525E+02  0.00000000000E+00 0. -1.
</event>
<event>
 7    1  0.2478637E-008  0.4614232E+02  0.7816164E-02  0.1320468E+00
        -11   -1    0    0    0    0  0.00000000000E+00  0.00000000000E+00  0.45593999997E+02  0.45594000000E+02  0.51100000000E-03 0.  1.
         11   -1    0    0    0    0 -0.00000000000E+00 -0.00000000000E+00 -0.45593999997E+02  0.45594000000E+02  0.51100000000E-03 0. -1.
    9900012    2    1    2    0    0  0.31291414674E+02  0.32126591213E+02  0.42241062176E+01  0.46142316870E+02  0.99999918782E+01 0.  0.
         12    1    1    2    0    0 -0.31291414674E+02 -0.32126591213E+02 -0.42241062176E+01  0.45045683130E+02  0.00000000000E+00 0. -1.
         11    1    3    3    0    0  0.59293424071E+01  0.24786584294E+01 -0.73699659553E-01  0.64269962573E+01  0.51100000000E-03 0. -1.
        -11    1    3    3    0    0  0.11711260293E+01  0.29349979361E+01 -0.94275615238E+00  0.32976565142E+01  0.51100000000E-03 0.  1.
        -12    1    3    3    0    0  0.24190946237E+02  0.26712934848E+02  0.52405620295E+01  0.36417664099E+02  0.00000000000E+00 0.  1.
</event>
<event>
 7    1  0.2478637E-008  0.4614232E+02  0.7816164E-02  0.1320468E+00
        -11   -1    0    0    0    0  0.00000000000E+00  0.00000000000E+00  0.45593999997E+02  0.45594000000E+02  0.51100000000E-03 0. -1.
         11   -1    0    0    0    0 -0.00000000000E+00 -0.00000000000E+00 -0.45593999997E+02  0.45594000000E+02  0.51100000000E-03 0.  1.
    9900012    2    1    2    0    0 -0.11599808955E+02  0.28413234299E+02 -0.32973413591E+02  0.46142318132E+02  0.10000003383E+02 0.  0.
         12    1    1    2    0    0  0.11599808955E+02 -0.28413234299E+02  0.32973413591E+02  0.45045681868E+02  0.00000000000E+00 0. -1.
         11    1    3    3    0    0 -0.32315596461E+01  0.68963234727E+01 -0.11616673113E+02  0.13890620924E+02  0.51100000000E-03 0. -1.
        -11    1    3    3    0    0 -0.90794655781E+01  0.20305149430E+02 -0.21372270102E+02  0.30846551154E+02  0.51100000000E-03 0.  1.
         12    1    3    3    0    0  0.71121626889E+00  0.12117613964E+01  0.15529623906E-01  0.14051460537E+01  0.00000000000E+00 0. -1.
</event>
<event>
 7    1  0.2478637E-008  0.4614232E+02  0.7816164E-02  0.1320468E+00
        -11   -1    0    0    0    0  0.00000000000E+00  0.00000000000E+00  0.45593999997E+02  0.45594000000E+02  0.51100000000E-03 0.  1.
         11   -1    0    0    0    0 -0.00000000000E+00 -0.00000000000E+00 -0.45593999997E+02  0.45594000000E+02  0.51100000000E-03 0. -1.
    9900012    2    1    2    0    0  0.41283058723E+02 -0.17851702789E+02 -0.24777752983E+01  0.46142316518E+02  0.99999886609E+01 0.  0.
         12    1    1    2    0    0 -0.41283058723E+02  0.17851702789E+02  0.24777752983E+01  0.45045683482E+02  0.00000000000E+00 0. -1.
         11    1    3    3    0    0 -0.28578146697E+00 -0.24487437246E+00 -0.27650639136E+00  0.46700166032E+00  0.51100000000E-03 0. -1.
        -11    1    3    3    0    0  0.81115217716E+01 -0.32509378087E+01  0.21769697795E+01  0.90058081130E+01  0.51100000000E-03 0.  1.
         12    1    3    3    0    0  0.33457318418E+02 -0.14355890608E+02 -0.43782386864E+01  0.36669506744E+02  0.00000000000E+00 0. -1.
</event>
<event>
 7    1  0.2478637E-008  0.4614232E+02  0.7816164E-02  0.1320468E+00
        -11   -1    0    0    0    0  0.00000000000E+00  0.00000000000E+00  0.45593999997E+02  0.45594000000E+02  0.51100000000E-03 0.  1.
         11   -1    0    0    0    0 -0.00000000000E+00 -0.00000000000E+00 -0.45593999997E+02  0.45594000000E+02  0.51100000000E-03 0. -1.
    9900012    2    1    2    0    0  0.25388738157E+02  0.18700322882E+02  0.32168665945E+02  0.46142321297E+02  0.10000032243E+02 0.  0.
         12    1    1    2    0    0 -0.25388738157E+02 -0.18700322882E+02 -0.32168665945E+02  0.45045678703E+02  0.00000000000E+00 0. -1.
         11    1    3    3    0    0  0.20111657905E+02  0.10352254987E+02  0.20928862131E+02  0.30816638970E+02  0.51100000000E-03 0. -1.
        -11    1    3    3    0    0  0.19070521737E+01  0.12032419838E+01  0.40921732306E+01  0.46723143382E+01  0.51100000000E-03 0.  1.
        -12    1    3    3    0    0  0.33700280781E+01  0.71448259118E+01  0.71476305834E+01  0.10653367989E+02  0.00000000000E+00 0.  1.
</event>
<event>
 7    1  0.2478637E-008  0.4614232E+02  0.7816164E-02  0.1320468E+00
        -11   -1    0    0    0    0  0.00000000000E+00  0.00000000000E+00  0.45593999997E+02  0.45594000000E+02  0.51100000000E-03 0.  1.
         11   -1    0    0    0    0 -0.00000000000E+00 -0.00000000000E+00 -0.45593999997E+02  0.45594000000E+02  0.51100000000E-03 0. -1.
    9900012    2    1    2    0    0 -0.87595644486E+01 -0.41321985473E+02  0.15648549236E+02  0.46142317121E+02  0.99999941663E+01 0.  0.
         12    1    1    2    0    0  0.87595644486E+01  0.41321985473E+02 -0.15648549236E+02  0.45045682879E+02  0.00000000000E+00 0. -1.
         11    1    3    3    0    0  0.30399011579E+00 -0.10528604199E+01 -0.19655626635E+00  0.11133551461E+01  0.51100000000E-03 0. -1.
        -11    1    3    3    0    0 -0.10321041953E+02 -0.33550969271E+02  0.14880588233E+02  0.38126412793E+02  0.51100000000E-03 0.  1.
        -12    1    3    3    0    0  0.12574873891E+01 -0.67181557825E+01  0.96451726970E+00  0.69025491824E+01  0.00000000000E+00 0.  1.
</event>
<event>
 7    1  0.2478637E-008  0.4614232E+02  0.7816164E-02  0.1320468E+00
        -11   -1    0    0    0    0  0.00000000000E+00  0.00000000000E+00  0.45593999997E+02  0.45594000000E+02  0.51100000000E-03 0.  1.
         11   -1    0    0    0    0 -0.00000000000E+00 -0.00000000000E+00 -0.45593999997E+02  0.45594000000E+02  0.51100000000E-03 0. -1.
    9900012    2    1    2    0    0  0.32278627039E+02  0.54771355084E-01  0.31419750765E+02  0.46142317615E+02  0.99999986640E+01 0.  0.
         12    1    1    2    0    0 -0.32278627039E+02 -0.54771355084E-01 -0.31419750765E+02  0.45045682385E+02  0.00000000000E+00 0. -1.
         11    1    3    3    0    0  0.23219831141E+02 -0.10570566425E+01  0.19707987618E+02  0.30474295778E+02  0.51100000000E-03 0. -1.
        -11    1    3    3    0    0 -0.28843137173E+00 -0.63456340373E+00  0.17718226558E+00  0.71920594123E+00  0.51100000000E-03 0.  1.
        -12    1    3    3    0    0  0.93472272702E+01  0.17463914013E+01  0.11534580881E+02  0.14948815895E+02  0.00000000000E+00 0.  1.
</event>
<event>
 7    1  0.2478637E-008  0.4614232E+02  0.7816164E-02  0.1320468E+00
        -11   -1    0    0    0    0  0.00000000000E+00  0.00000000000E+00  0.45593999997E+02  0.45594000000E+02  0.51100000000E-03 0. -1.
         11   -1    0    0    0    0 -0.00000000000E+00 -0.00000000000E+00 -0.45593999997E+02  0.45594000000E+02  0.51100000000E-03 0.  1.
    9900012    2    1    2    0    0 -0.12983601959E+02  0.24076853716E+02 -0.35788893410E+02  0.46142315454E+02  0.99999789611E+01 0.  0.
         12    1    1    2    0    0  0.12983601959E+02 -0.24076853716E+02  0.35788893410E+02  0.45045684546E+02  0.00000000000E+00 0. -1.
         11    1    3    3    0    0 -0.11079640719E+02  0.15778231893E+02 -0.20997667822E+02  0.28506369365E+02  0.51100000000E-03 0.  1.
        -11    1    3    3    0    0  0.30798359943E+00  0.43097404011E+01 -0.38698155708E+01  0.58003611125E+01  0.51100000000E-03 0. -1.
        -12    1    3    3    0    0 -0.22119448396E+01  0.39888814218E+01 -0.10921410018E+02  0.11835584977E+02  0.00000000000E+00 0.  1.
</event>
<event>
 7    1  0.2478637E-008  0.4614232E+02  0.7816164E-02  0.1320468E+00
        -11   -1    0    0    0    0  0.00000000000E+00  0.00000000000E+00  0.45593999997E+02  0.45594000000E+02  0.51100000000E-03 0. -1.
         11   -1    0    0    0    0 -0.00000000000E+00 -0.00000000000E+00 -0.45593999997E+02  0.45594000000E+02  0.51100000000E-03 0.  1.
    9900012    2    1    2    0    0  0.12904368900E+02  0.51972276786E+01 -0.42843663547E+02  0.46142318538E+02  0.10000007086E+02 0.  0.
         12    1    1    2    0    0 -0.12904368900E+02 -0.51972276786E+01  0.42843663547E+02  0.45045681462E+02  0.00000000000E+00 0. -1.
         11    1    3    3    0    0  0.47772240716E+00  0.97088128316E+00 -0.82399436708E+01  0.83106859599E+01  0.51100000000E-03 0. -1.
        -11    1    3    3    0    0  0.38529968496E+01  0.23531831332E+01 -0.22094362944E+02  0.22550918600E+02  0.51100000000E-03 0.  1.
         12    1    3    3    0    0  0.85736496432E+01  0.18731632623E+01 -0.12509356932E+02  0.15280713978E+02  0.00000000000E+00 0. -1.
</event>
<event>
 7    1  0.2478637E-008  0.4614232E+02  0.7816164E-02  0.1320468E+00
        -11   -1    0    0    0    0  0.00000000000E+00  0.00000000000E+00  0.45593999997E+02  0.45594000000E+02  0.51100000000E-03 0.  1.
         11   -1    0    0    0    0 -0.00000000000E+00 -0.00000000000E+00 -0.45593999997E+02  0.45594000000E+02  0.51100000000E-03 0. -1.
    9900012    2    1    2    0    0 -0.93738582948E+01  0.39306711726E+02  0.19905443340E+02  0.46142317847E+02  0.10000000782E+02 0.  0.
         12    1    1    2    0    0  0.93738582948E+01 -0.39306711726E+02 -0.19905443340E+02  0.45045682153E+02  0.00000000000E+00 0. -1.
         11    1    3    3    0    0 -0.24414899708E+01  0.23059640894E+01  0.83371434486E+00  0.34602635057E+01  0.51100000000E-03 0. -1.
        -11    1    3    3    0    0 -0.59316409324E+00  0.15233506504E+02  0.52205224928E+01  0.16114137253E+02  0.51100000000E-03 0.  1.
        -12    1    3    3    0    0 -0.63392042307E+01  0.21767241133E+02  0.13851206503E+02  0.26567917088E+02  0.00000000000E+00 0.  1.
</event>
<event>
 7    1  0.2478637E-008  0.4614232E+02  0.7816164E-02  0.1320468E+00
        -11   -1    0    0    0    0  0.00000000000E+00  0.00000000000E+00  0.45593999997E+02  0.45594000000E+02  0.51100000000E-03 0.  1.
         11   -1    0    0    0    0 -0.00000000000E+00 -0.00000000000E+00 -0.45593999997E+02  0.45594000000E+02  0.51100000000E-03 0. -1.
    9900012    2    1    2    0    0 -0.13918272548E+02 -0.41400779998E+02 -0.11016831594E+02  0.46142317926E+02  0.10000001499E+02 0.  0.
         12    1    1    2    0    0  0.13918272548E+02  0.41400779998E+02  0.11016831594E+02  0.45045682074E+02  0.00000000000E+00 0. -1.
         11    1    3    3    0    0  0.26369967860E+00 -0.17451408887E+01  0.72365193020E+00  0.19075446572E+01  0.51100000000E-03 0. -1.
        -11    1    3    3    0    0 -0.49449998335E+01 -0.64990420689E+01 -0.32064867285E+01  0.87733761214E+01  0.51100000000E-03 0.  1.
        -12    1    3    3    0    0 -0.92369723934E+01 -0.33156597041E+02 -0.85339967954E+01  0.35461397147E+02  0.00000000000E+00 0.  1.
</event>
<event>
 7    1  0.2478637E-008  0.4614232E+02  0.7816164E-02  0.1320468E+00
        -11   -1    0    0    0    0  0.00000000000E+00  0.00000000000E+00  0.45593999997E+02  0.45594000000E+02  0.51100000000E-03 0.  1.
         11   -1    0    0    0    0 -0.00000000000E+00 -0.00000000000E+00 -0.45593999997E+02  0.45594000000E+02  0.51100000000E-03 0. -1.
    9900012    2    1    2    0    0 -0.41744034417E+02 -0.13403102768E+02  0.10339530909E+02  0.46142317936E+02  0.10000001597E+02 0.  0.
         12    1    1    2    0    0  0.41744034417E+02  0.13403102768E+02 -0.10339530909E+02  0.45045682064E+02  0.00000000000E+00 0. -1.
         11    1    3    3    0    0 -0.16586289468E+00  0.41537469745E+00 -0.27881890809E+00  0.52705491531E+00  0.51100000000E-03 0. -1.
        -11    1    3    3    0    0 -0.30479011589E+02 -0.87733382438E+01  0.47007594047E+01  0.32063043377E+02  0.51100000000E-03 0.  1.
        -12    1    3    3    0    0 -0.11099159933E+02 -0.50451392213E+01  0.59175904123E+01  0.13552219644E+02  0.00000000000E+00 0.  1.
</event>
<event>
 7    1  0.2478637E-008  0.4614232E+02  0.7816164E-02  0.1320468E+00
        -11   -1    0    0    0    0  0.00000000000E+00  0.00000000000E+00  0.45593999997E+02  0.45594000000E+02  0.51100000000E-03 0.  1.
         11   -1    0    0    0    0 -0.00000000000E+00 -0.00000000000E+00 -0.45593999997E+02  0.45594000000E+02  0.51100000000E-03 0. -1.
    9900012    2    1    2    0    0  0.18337470765E+02  0.40904722558E+02  0.44333108275E+01  0.46142318670E+02  0.10000008289E+02 0.  0.
         12    1    1    2    0    0 -0.18337470765E+02 -0.40904722558E+02 -0.44333108275E+01  0.45045681330E+02  0.00000000000E+00 0. -1.
         11    1    3    3    0    0  0.48947613919E+01  0.62889731888E+01  0.73624121720E+00  0.80032446073E+01  0.51100000000E-03 0. -1.
        -11    1    3    3    0    0  0.68601809478E+01  0.23878562197E+02 -0.54229878873E+00  0.24850390409E+02  0.51100000000E-03 0.  1.
        -12    1    3    3    0    0  0.65825284254E+01  0.10737187172E+02  0.42393683991E+01  0.13288683654E+02  0.00000000000E+00 0.  1.
</event>
<event>
 7    1  0.2478637E-008  0.4614232E+02  0.7816164E-02  0.1320468E+00
        -11   -1    0    0    0    0  0.00000000000E+00  0.00000000000E+00  0.45593999997E+02  0.45594000000E+02  0.51100000000E-03 0.  1.
         11   -1    0    0    0    0 -0.00000000000E+00 -0.00000000000E+00 -0.45593999997E+02  0.45594000000E+02  0.51100000000E-03 0. -1.
    9900012    2    1    2    0    0  0.44095847972E+02  0.74130082368E+01  0.54513237103E+01  0.46142318413E+02  0.10000005943E+02 0.  0.
         12    1    1    2    0    0 -0.44095847972E+02 -0.74130082368E+01 -0.54513237103E+01  0.45045681587E+02  0.00000000000E+00 0. -1.
         11    1    3    3    0    0  0.57066132333E+01  0.13598873916E+01  0.27655451585E+01  0.64855970116E+01  0.51100000000E-03 0.  1.
        -11    1    3    3    0    0  0.30561469478E+02  0.22774288827E+01  0.31284577566E+00  0.30647805333E+02  0.51100000000E-03 0. -1.
         12    1    3    3    0    0  0.78277652601E+01  0.37756919625E+01  0.23729327761E+01  0.90089160682E+01  0.00000000000E+00 0. -1.
</event>
<event>
 7    1  0.2478637E-008  0.4614232E+02  0.7816164E-02  0.1320468E+00
        -11   -1    0    0    0    0  0.00000000000E+00  0.00000000000E+00  0.45593999997E+02  0.45594000000E+02  0.51100000000E-03 0.  1.
         11   -1    0    0    0    0 -0.00000000000E+00 -0.00000000000E+00 -0.45593999997E+02  0.45594000000E+02  0.51100000000E-03 0. -1.
    9900012    2    1    2    0    0  0.35754514706E+02 -0.26369578865E+02  0.74413413299E+01  0.46142316831E+02  0.99999915166E+01 0.  0.
         12    1    1    2    0    0 -0.35754514706E+02  0.26369578865E+02 -0.74413413299E+01  0.45045683169E+02  0.00000000000E+00 0. -1.
         11    1    3    3    0    0  0.14372318757E+00 -0.24377482708E+00  0.13297769266E+01  0.13595548745E+01  0.51100000000E-03 0. -1.
        -11    1    3    3    0    0  0.21942691880E+02 -0.18428511522E+02  0.46321309844E+01  0.29026684302E+02  0.51100000000E-03 0.  1.
        -12    1    3    3    0    0  0.13668099638E+02 -0.76972925162E+01  0.14794334189E+01  0.15756077654E+02  0.00000000000E+00 0.  1.
</event>
<event>
 7    1  0.2478637E-008  0.4614232E+02  0.7816164E-02  0.1320468E+00
        -11   -1    0    0    0    0  0.00000000000E+00  0.00000000000E+00  0.45593999997E+02  0.45594000000E+02  0.51100000000E-03 0. -1.
         11   -1    0    0    0    0 -0.00000000000E+00 -0.00000000000E+00 -0.45593999997E+02  0.45594000000E+02  0.51100000000E-03 0.  1.
    9900012    2    1    2    0    0 -0.36682896634E+02 -0.24156739032E+02 -0.99965272858E+01  0.46142317589E+02  0.99999984307E+01 0.  0.
         12    1    1    2    0    0  0.36682896634E+02  0.24156739032E+02  0.99965272858E+01  0.45045682411E+02  0.00000000000E+00 0. -1.
         11    1    3    3    0    0 -0.13449080202E+02 -0.78928937323E+01 -0.60962372273E+01  0.16743346091E+02  0.51100000000E-03 0. -1.
        -11    1    3    3    0    0 -0.17937824336E+02 -0.15264732980E+02 -0.44884247275E+01  0.23977563922E+02  0.51100000000E-03 0.  1.
         12    1    3    3    0    0 -0.52959920960E+01 -0.99911231960E+00  0.58813466893E+00  0.54214075752E+01  0.00000000000E+00 0. -1.
</event>
<event>
 7    1  0.2478637E-008  0.4614232E+02  0.7816164E-02  0.1320468E+00
        -11   -1    0    0    0    0  0.00000000000E+00  0.00000000000E+00  0.45593999997E+02  0.45594000000E+02  0.51100000000E-03 0. -1.
         11   -1    0    0    0    0 -0.00000000000E+00 -0.00000000000E+00 -0.45593999997E+02  0.45594000000E+02  0.51100000000E-03 0.  1.
    9900012    2    1    2    0    0 -0.10194382980E+02 -0.36603066545E+02 -0.24195112171E+02  0.46142318989E+02  0.10000011195E+02 0.  0.
         12    1    1    2    0    0  0.10194382980E+02  0.36603066545E+02  0.24195112171E+02  0.45045681011E+02  0.00000000000E+00 0. -1.
         11    1    3    3    0    0 -0.23617609105E+01 -0.36749556172E+01 -0.29837673467E+01  0.52901872582E+01  0.51100000000E-03 0. -1.
        -11    1    3    3    0    0 -0.33231200039E+01 -0.32455610460E+01 -0.12899185108E+01  0.48208591651E+01  0.51100000000E-03 0.  1.
        -12    1    3    3    0    0 -0.45095020654E+01 -0.29682549881E+02 -0.19921426313E+02  0.36031272566E+02  0.00000000000E+00 0.  1.
</event>
<event>
 7    1  0.2478637E-008  0.4614232E+02  0.7816164E-02  0.1320468E+00
        -11   -1    0    0    0    0  0.00000000000E+00  0.00000000000E+00  0.45593999997E+02  0.45594000000E+02  0.51100000000E-03 0.  1.
         11   -1    0    0    0    0 -0.00000000000E+00 -0.00000000000E+00 -0.45593999997E+02  0.45594000000E+02  0.51100000000E-03 0. -1.
    9900012    2    1    2    0    0 -0.36842725172E+02  0.16430825594E+02  0.20043828551E+02  0.46142317734E+02  0.99999997563E+01 0.  0.
         12    1    1    2    0    0  0.36842725172E+02 -0.16430825594E+02 -0.20043828551E+02  0.45045682266E+02  0.00000000000E+00 0. -1.
         11    1    3    3    0    0 -0.43504687897E+01  0.44815434747E+01  0.46143777594E+01  0.77655194915E+01  0.51100000000E-03 0. -1.
        -11    1    3    3    0    0 -0.19667863009E+01 -0.56020735505E+00  0.24146774698E+00  0.20592201359E+01  0.51100000000E-03 0.  1.
        -12    1    3    3    0    0 -0.30525470081E+02  0.12509489474E+02  0.15187983045E+02  0.36317578107E+02  0.00000000000E+00 0.  1.
</event>
<event>
 7    1  0.2478637E-008  0.4614232E+02  0.7816164E-02  0.1320468E+00
        -11   -1    0    0    0    0  0.00000000000E+00  0.00000000000E+00  0.45593999997E+02  0.45594000000E+02  0.51100000000E-03 0.  1.
         11   -1    0    0    0    0 -0.00000000000E+00 -0.00000000000E+00 -0.45593999997E+02  0.45594000000E+02  0.51100000000E-03 0. -1.
    9900012    2    1    2    0    0  0.37248949037E+02 -0.17582008465E+02  0.18234640476E+02  0.46142319416E+02  0.10000015090E+02 0.  0.
         12    1    1    2    0    0 -0.37248949037E+02  0.17582008465E+02 -0.18234640476E+02  0.45045680584E+02  0.00000000000E+00 0. -1.
         11    1    3    3    0    0  0.16811760491E+02 -0.10041180729E+02  0.64454072390E+01  0.20615622134E+02  0.51100000000E-03 0.  1.
        -11    1    3    3    0    0  0.75133874390E+01 -0.60053850960E+01  0.46741934321E+01  0.10694097693E+02  0.51100000000E-03 0. -1.
         12    1    3    3    0    0  0.12923801106E+02 -0.15354426396E+01  0.71150398048E+01  0.14832599589E+02  0.00000000000E+00 0. -1.
</event>
<event>
 7    1  0.2478637E-008  0.4614232E+02  0.7816164E-02  0.1320468E+00
        -11   -1    0    0    0    0  0.00000000000E+00  0.00000000000E+00  0.45593999997E+02  0.45594000000E+02  0.51100000000E-03 0.  1.
         11   -1    0    0    0    0 -0.00000000000E+00 -0.00000000000E+00 -0.45593999997E+02  0.45594000000E+02  0.51100000000E-03 0. -1.
    9900012    2    1    2    0    0  0.42651029433E+02 -0.13182010061E+02  0.60197816515E+01  0.46142317942E+02  0.10000001648E+02 0.  0.
         12    1    1    2    0    0 -0.42651029433E+02  0.13182010061E+02 -0.60197816515E+01  0.45045682058E+02  0.00000000000E+00 0. -1.
         11    1    3    3    0    0  0.16447722214E+02 -0.33941894749E+01  0.21380387890E+01  0.16929834563E+02  0.51100000000E-03 0. -1.
        -11    1    3    3    0    0  0.94430396208E+01 -0.17103234201E+01  0.44949494715E+01  0.10597205976E+02  0.51100000000E-03 0.  1.
         12    1    3    3    0    0  0.16760267598E+02 -0.80774971659E+01 -0.61320660910E+00  0.18615277403E+02  0.00000000000E+00 0. -1.
</event>
<event>
 7    1  0.2478637E-008  0.4614232E+02  0.7816164E-02  0.1320468E+00
        -11   -1    0    0    0    0  0.00000000000E+00  0.00000000000E+00  0.45593999997E+02  0.45594000000E+02  0.51100000000E-03 0. -1.
         11   -1    0    0    0    0 -0.00000000000E+00 -0.00000000000E+00 -0.45593999997E+02  0.45594000000E+02  0.51100000000E-03 0.  1.
    9900012    2    1    2    0    0 -0.36828618577E+02 -0.22304585713E+01 -0.25841659843E+02  0.46142317908E+02  0.10000001335E+02 0.  0.
         12    1    1    2    0    0  0.36828618577E+02  0.22304585713E+01  0.25841659843E+02  0.45045682092E+02  0.00000000000E+00 0. -1.
         11    1    3    3    0    0 -0.94936658025E+01 -0.28153653387E+01 -0.37494819015E+01  0.10588417594E+02  0.51100000000E-03 0. -1.
        -11    1    3    3    0    0 -0.72555341990E+01  0.17130668426E+01 -0.37972054313E+01  0.83663698142E+01  0.51100000000E-03 0.  1.
        -12    1    3    3    0    0 -0.20079418576E+02 -0.11281600752E+01 -0.18294972510E+02  0.27187530499E+02  0.00000000000E+00 0.  1.
</event>
<event>
 7    1  0.2478637E-008  0.4614231E+02  0.7816164E-02  0.1320468E+00
        -11   -1    0    0    0    0  0.00000000000E+00  0.00000000000E+00  0.45593999997E+02  0.45594000000E+02  0.51100000000E-03 0.  1.
         11   -1    0    0    0    0 -0.00000000000E+00 -0.00000000000E+00 -0.45593999997E+02  0.45594000000E+02  0.51100000000E-03 0. -1.
    9900012    2    1    2    0    0  0.30513897840E+02 -0.19481326475E+02  0.26804737899E+02  0.46142311899E+02  0.99999465480E+01 0.  0.
         12    1    1    2    0    0 -0.30513897840E+02  0.19481326475E+02 -0.26804737899E+02  0.45045688101E+02  0.00000000000E+00 0. -1.
         11    1    3    3    0    0  0.65606801441E+01 -0.56568551308E+01  0.11175216518E+02  0.14139589754E+02  0.51100000000E-03 0. -1.
        -11    1    3    3    0    0  0.13334804498E+02 -0.64761980063E+01  0.10201151525E+02  0.17995044994E+02  0.51100000000E-03 0.  1.
         12    1    3    3    0    0  0.10618413198E+02 -0.73482733381E+01  0.54283698546E+01  0.14007677151E+02  0.00000000000E+00 0. -1.
</event>
<event>
 7    1  0.2478637E-008  0.4614232E+02  0.7816164E-02  0.1320468E+00
        -11   -1    0    0    0    0  0.00000000000E+00  0.00000000000E+00  0.45593999997E+02  0.45594000000E+02  0.51100000000E-03 0. -1.
         11   -1    0    0    0    0 -0.00000000000E+00 -0.00000000000E+00 -0.45593999997E+02  0.45594000000E+02  0.51100000000E-03 0.  1.
    9900012    2    1    2    0    0  0.22757919416E+02 -0.38809235393E+02  0.22436227328E+01  0.46142317733E+02  0.99999997437E+01 0.  0.
         12    1    1    2    0    0 -0.22757919416E+02  0.38809235393E+02 -0.22436227328E+01  0.45045682267E+02  0.00000000000E+00 0. -1.
         11    1    3    3    0    0  0.23841198977E+01 -0.56049846640E+01  0.73922581063E+00  0.61356609937E+01  0.51100000000E-03 0. -1.
        -11    1    3    3    0    0  0.16260026293E+02 -0.31470549491E+02  0.47869500840E+00  0.35426163911E+02  0.51100000000E-03 0.  1.
        -12    1    3    3    0    0  0.41137732251E+01 -0.17337012385E+01  0.10257019138E+01  0.45804928281E+01  0.00000000000E+00 0.  1.
</event>
<event>
 7    1  0.2478637E-008  0.4614232E+02  0.7816164E-02  0.1320468E+00
        -11   -1    0    0    0    0  0.00000000000E+00  0.00000000000E+00  0.45593999997E+02  0.45594000000E+02  0.51100000000E-03 0.  1.
         11   -1    0    0    0    0 -0.00000000000E+00 -0.00000000000E+00 -0.45593999997E+02  0.45594000000E+02  0.51100000000E-03 0. -1.
    9900012    2    1    2    0    0  0.19363592406E+02  0.38412722167E+01  0.40489623069E+02  0.46142315863E+02  0.99999826874E+01 0.  0.
         12    1    1    2    0    0 -0.19363592406E+02 -0.38412722167E+01 -0.40489623069E+02  0.45045684137E+02  0.00000000000E+00 0. -1.
         11    1    3    3    0    0  0.40199665228E+01  0.47339012000E+01  0.10192762140E+02  0.11935759369E+02  0.51100000000E-03 0. -1.
        -11    1    3    3    0    0  0.14796466559E+02 -0.13253903035E+00  0.27115196820E+02  0.30889915637E+02  0.51100000000E-03 0.  1.
        -12    1    3    3    0    0  0.54715932402E+00 -0.76008995301E+00  0.31816641096E+01  0.33166408562E+01  0.00000000000E+00 0.  1.
</event>
<event>
 7    1  0.2478637E-008  0.4614231E+02  0.7816164E-02  0.1320468E+00
        -11   -1    0    0    0    0  0.00000000000E+00  0.00000000000E+00  0.45593999997E+02  0.45594000000E+02  0.51100000000E-03 0.  1.
         11   -1    0    0    0    0 -0.00000000000E+00 -0.00000000000E+00 -0.45593999997E+02  0.45594000000E+02  0.51100000000E-03 0. -1.
    9900012    2    1    2    0    0 -0.21362332522E+02 -0.25974940722E+02  0.29967771030E+02  0.46142311008E+02  0.99999384151E+01 0.  0.
         12    1    1    2    0    0  0.21362332522E+02  0.25974940722E+02 -0.29967771030E+02  0.45045688992E+02  0.00000000000E+00 0. -1.
         11    1    3    3    0    0 -0.11104118064E+01 -0.12767095748E+01 -0.70653086069E+00  0.18336269622E+01  0.51100000000E-03 0. -1.
        -11    1    3    3    0    0 -0.56954503075E+01 -0.64225777498E+01  0.90408484375E+01  0.12466940278E+02  0.51100000000E-03 0.  1.
         12    1    3    3    0    0 -0.14556470408E+02 -0.18275653397E+02  0.21633453453E+02  0.31841743768E+02  0.00000000000E+00 0. -1.
</event>
<event>
 7    1  0.2478637E-008  0.4614232E+02  0.7816164E-02  0.1320468E+00
        -11   -1    0    0    0    0  0.00000000000E+00  0.00000000000E+00  0.45593999997E+02  0.45594000000E+02  0.51100000000E-03 0.  1.
         11   -1    0    0    0    0 -0.00000000000E+00 -0.00000000000E+00 -0.45593999997E+02  0.45594000000E+02  0.51100000000E-03 0. -1.
    9900012    2    1    2    0    0 -0.20859373290E+02 -0.11045967317E+02  0.38366477229E+02  0.46142318487E+02  0.10000006619E+02 0.  0.
         12    1    1    2    0    0  0.20859373290E+02  0.11045967317E+02 -0.38366477229E+02  0.45045681513E+02  0.00000000000E+00 0. -1.
         11    1    3    3    0    0 -0.31021128452E+01 -0.20590671573E+01  0.11471138240E+02  0.12060260131E+02  0.51100000000E-03 0. -1.
        -11    1    3    3    0    0 -0.15389246483E+02 -0.70756681660E+01  0.25768971967E+02  0.30837216214E+02  0.51100000000E-03 0.  1.
         12    1    3    3    0    0 -0.23680139617E+01 -0.19112319933E+01  0.11263670220E+01  0.32448421415E+01  0.00000000000E+00 0. -1.
</event>
<event>
 7    1  0.2478637E-008  0.4614232E+02  0.7816164E-02  0.1320468E+00
        -11   -1    0    0    0    0  0.00000000000E+00  0.00000000000E+00  0.45593999997E+02  0.45594000000E+02  0.51100000000E-03 0. -1.
         11   -1    0    0    0    0 -0.00000000000E+00 -0.00000000000E+00 -0.45593999997E+02  0.45594000000E+02  0.51100000000E-03 0.  1.
    9900012    2    1    2    0    0 -0.22824788953E+02 -0.34441478614E+02 -0.17942319635E+02  0.46142320144E+02  0.10000021726E+02 0.  0.
         12    1    1    2    0    0  0.22824788953E+02  0.34441478614E+02  0.17942319635E+02  0.45045679856E+02  0.00000000000E+00 0. -1.
         11    1    3    3    0    0 -0.11695061189E+01 -0.37078362124E+01  0.61357145782E-01  0.38883876993E+01  0.51100000000E-03 0. -1.
        -11    1    3    3    0    0 -0.52584164030E+01 -0.41000065005E+01 -0.52106321016E+01  0.84623686714E+01  0.51100000000E-03 0.  1.
         12    1    3    3    0    0 -0.16396866431E+02 -0.26633635901E+02 -0.12793044679E+02  0.33791563773E+02  0.00000000000E+00 0. -1.
</event>
<event>
 7    1  0.2478637E-008  0.4614232E+02  0.7816164E-02  0.1320468E+00
        -11   -1    0    0    0    0  0.00000000000E+00  0.00000000000E+00  0.45593999997E+02  0.45594000000E+02  0.51100000000E-03 0. -1.
         11   -1    0    0    0    0 -0.00000000000E+00 -0.00000000000E+00 -0.45593999997E+02  0.45594000000E+02  0.51100000000E-03 0.  1.
    9900012    2    1    2    0    0 -0.40347666554E+02  0.12029637937E+02  0.16014590355E+02  0.46142317749E+02  0.99999998906E+01 0.  0.
         12    1    1    2    0    0  0.40347666554E+02 -0.12029637937E+02 -0.16014590355E+02  0.45045682251E+02  0.00000000000E+00 0. -1.
         11    1    3    3    0    0 -0.40497047936E+01 -0.66954024080E+00  0.12887235841E+00  0.41067020096E+01  0.51100000000E-03 0. -1.
        -11    1    3    3    0    0 -0.24263503297E+01 -0.19195772298E+00 -0.74706240515E-01  0.24350780220E+01  0.51100000000E-03 0.  1.
         12    1    3    3    0    0 -0.33871611430E+02  0.12891135900E+02  0.15960424237E+02  0.39600537718E+02  0.00000000000E+00 0. -1.
</event>
<event>
 7    1  0.2478637E-008  0.4614232E+02  0.7816164E-02  0.1320468E+00
        -11   -1    0    0    0    0  0.00000000000E+00  0.00000000000E+00  0.45593999997E+02  0.45594000000E+02  0.51100000000E-03 0. -1.
         11   -1    0    0    0    0 -0.00000000000E+00 -0.00000000000E+00 -0.45593999997E+02  0.45594000000E+02  0.51100000000E-03 0.  1.
    9900012    2    1    2    0    0 -0.25345999936E+02  0.12386233796E+02 -0.35118015283E+02  0.46142317656E+02  0.99999990409E+01 0.  0.
         12    1    1    2    0    0  0.25345999936E+02 -0.12386233796E+02  0.35118015283E+02  0.45045682344E+02  0.00000000000E+00 0. -1.
         11    1    3    3    0    0 -0.87986038025E+00  0.10970751008E+01 -0.40668041038E+01  0.43030946939E+01  0.51100000000E-03 0. -1.
        -11    1    3    3    0    0 -0.11187084476E+01  0.66577205584E+00 -0.54323300391E+01  0.55861409699E+01  0.51100000000E-03 0.  1.
        -12    1    3    3    0    0 -0.23347431108E+02  0.10623386640E+02 -0.25618881141E+02  0.36253081992E+02  0.00000000000E+00 0.  1.
</event>
<event>
 7    1  0.2478637E-008  0.4614232E+02  0.7816164E-02  0.1320468E+00
        -11   -1    0    0    0    0  0.00000000000E+00  0.00000000000E+00  0.45593999997E+02  0.45594000000E+02  0.51100000000E-03 0. -1.
         11   -1    0    0    0    0 -0.00000000000E+00 -0.00000000000E+00 -0.45593999997E+02  0.45594000000E+02  0.51100000000E-03 0.  1.
    9900012    2    1    2    0    0 -0.33220979764E+02  0.28408624417E+02 -0.10882553493E+02  0.46142318650E+02  0.10000008103E+02 0.  0.
         12    1    1    2    0    0  0.33220979764E+02 -0.28408624417E+02  0.10882553493E+02  0.45045681350E+02  0.00000000000E+00 0. -1.
         11    1    3    3    0    0 -0.23219402529E+01  0.87645928260E+00  0.88399840625E+00  0.26345855187E+01  0.51100000000E-03 0. -1.
        -11    1    3    3    0    0 -0.10411548547E+02  0.64657069761E+01 -0.13489086936E+01  0.12329852585E+02  0.51100000000E-03 0.  1.
         12    1    3    3    0    0 -0.20487490964E+02  0.21066458159E+02 -0.10417643205E+02  0.31177880546E+02  0.00000000000E+00 0. -1.
</event>
<event>
 7    1  0.2478637E-008  0.4614232E+02  0.7816164E-02  0.1320468E+00
        -11   -1    0    0    0    0  0.00000000000E+00  0.00000000000E+00  0.45593999997E+02  0.45594000000E+02  0.51100000000E-03 0.  1.
         11   -1    0    0    0    0 -0.00000000000E+00 -0.00000000000E+00 -0.45593999997E+02  0.45594000000E+02  0.51100000000E-03 0. -1.
    9900012    2    1    2    0    0 -0.69508695494E+01 -0.42369379729E+01  0.44304031836E+02  0.46142317990E+02  0.10000002083E+02 0.  0.
         12    1    1    2    0    0  0.69508695494E+01  0.42369379729E+01 -0.44304031836E+02  0.45045682010E+02  0.00000000000E+00 0. -1.
         11    1    3    3    0    0 -0.43016711734E+00  0.82853979639E+00  0.65357150440E+01  0.66020522068E+01  0.51100000000E-03 0. -1.
        -11    1    3    3    0    0 -0.20775928859E+01 -0.65149467829E+01  0.18811087171E+02  0.20015442153E+02  0.51100000000E-03 0.  1.
        -12    1    3    3    0    0 -0.44431095462E+01  0.14494690137E+01  0.18957229621E+02  0.19524823630E+02  0.00000000000E+00 0.  1.
</event>
<event>
 7    1  0.2478637E-008  0.4614232E+02  0.7816164E-02  0.1320468E+00
        -11   -1    0    0    0    0  0.00000000000E+00  0.00000000000E+00  0.45593999997E+02  0.45594000000E+02  0.51100000000E-03 0. -1.
         11   -1    0    0    0    0 -0.00000000000E+00 -0.00000000000E+00 -0.45593999997E+02  0.45594000000E+02  0.51100000000E-03 0.  1.
    9900012    2    1    2    0    0  0.12377645878E+02 -0.37351091838E+02 -0.21927228449E+02  0.46142317339E+02  0.99999961470E+01 0.  0.
         12    1    1    2    0    0 -0.12377645878E+02  0.37351091838E+02  0.21927228449E+02  0.45045682661E+02  0.00000000000E+00 0. -1.
         11    1    3    3    0    0  0.65958832345E+01 -0.26546370017E+02 -0.11719332884E+02  0.29758329930E+02  0.51100000000E-03 0. -1.
        -11    1    3    3    0    0 -0.13032128997E+00 -0.24552147162E+01 -0.11278441014E+01  0.27050130350E+01  0.51100000000E-03 0.  1.
         12    1    3    3    0    0  0.59120839336E+01 -0.83495071051E+01 -0.90800514633E+01  0.13678974374E+02  0.00000000000E+00 0. -1.
</event>
<event>
 7    1  0.2478637E-008  0.4614232E+02  0.7816164E-02  0.1320468E+00
        -11   -1    0    0    0    0  0.00000000000E+00  0.00000000000E+00  0.45593999997E+02  0.45594000000E+02  0.51100000000E-03 0. -1.
         11   -1    0    0    0    0 -0.00000000000E+00 -0.00000000000E+00 -0.45593999997E+02  0.45594000000E+02  0.51100000000E-03 0.  1.
    9900012    2    1    2    0    0 -0.25480699320E+00  0.24134313127E+02 -0.38033974219E+02  0.46142321055E+02  0.10000030041E+02 0.  0.
         12    1    1    2    0    0  0.25480699320E+00 -0.24134313127E+02  0.38033974219E+02  0.45045678945E+02  0.00000000000E+00 0. -1.
         11    1    3    3    0    0 -0.24601102486E+01  0.65938220037E+01 -0.12993962859E+02  0.14777472791E+02  0.51100000000E-03 0. -1.
        -11    1    3    3    0    0 -0.65894672157E-01  0.15524257692E+02 -0.18476246008E+02  0.24132521332E+02  0.51100000000E-03 0.  1.
        -12    1    3    3    0    0  0.22711979276E+01  0.20162334309E+01 -0.65637653513E+01  0.72323269327E+01  0.00000000000E+00 0.  1.
</event>
<event>
 7    1  0.2478637E-008  0.4614232E+02  0.7816164E-02  0.1320468E+00
        -11   -1    0    0    0    0  0.00000000000E+00  0.00000000000E+00  0.45593999997E+02  0.45594000000E+02  0.51100000000E-03 0.  1.
         11   -1    0    0    0    0 -0.00000000000E+00 -0.00000000000E+00 -0.45593999997E+02  0.45594000000E+02  0.51100000000E-03 0. -1.
    9900012    2    1    2    0    0 -0.25214930537E+02 -0.32510894733E+02  0.18340186946E+02  0.46142318125E+02  0.10000003321E+02 0.  0.
         12    1    1    2    0    0  0.25214930537E+02  0.32510894733E+02 -0.18340186946E+02  0.45045681875E+02  0.00000000000E+00 0. -1.
         11    1    3    3    0    0 -0.58935987250E+01 -0.13226637124E+02  0.59730566182E+01  0.15663838647E+02  0.51100000000E-03 0. -1.
        -11    1    3    3    0    0 -0.19803803378E+01 -0.32991209850E+01  0.37387169137E+01  0.53650824764E+01  0.51100000000E-03 0.  1.
        -12    1    3    3    0    0 -0.17340951474E+02 -0.15985136625E+02  0.86284134137E+01  0.25113397002E+02  0.00000000000E+00 0.  1.
</event>
<event>
 7    1  0.2478637E-008  0.4614232E+02  0.7816164E-02  0.1320468E+00
        -11   -1    0    0    0    0  0.00000000000E+00  0.00000000000E+00  0.45593999997E+02  0.45594000000E+02  0.51100000000E-03 0.  1.
         11   -1    0    0    0    0 -0.00000000000E+00 -0.00000000000E+00 -0.45593999997E+02  0.45594000000E+02  0.51100000000E-03 0. -1.
    9900012    2    1    2    0    0  0.15853632500E+02 -0.30262870482E+02  0.29358720886E+02  0.46142317795E+02  0.10000000312E+02 0.  0.
         12    1    1    2    0    0 -0.15853632500E+02  0.30262870482E+02 -0.29358720886E+02  0.45045682205E+02  0.00000000000E+00 0. -1.
         11    1    3    3    0    0  0.25000246522E+01 -0.71465878284E+01  0.41034058151E+01  0.86117234277E+01  0.51100000000E-03 0. -1.
        -11    1    3    3    0    0  0.78200784994E+01 -0.17776895311E+02  0.14176216114E+02  0.24044474172E+02  0.51100000000E-03 0.  1.
         12    1    3    3    0    0  0.55335293480E+01 -0.53393873424E+01  0.11079098957E+02  0.13486120196E+02  0.00000000000E+00 0. -1.
</event>
<event>
 7    1  0.2478637E-008  0.4614232E+02  0.7816164E-02  0.1320468E+00
        -11   -1    0    0    0    0  0.00000000000E+00  0.00000000000E+00  0.45593999997E+02  0.45594000000E+02  0.51100000000E-03 0. -1.
         11   -1    0    0    0    0 -0.00000000000E+00 -0.00000000000E+00 -0.45593999997E+02  0.45594000000E+02  0.51100000000E-03 0.  1.
    9900012    2    1    2    0    0 -0.33769210905E+02  0.13009906972E+02 -0.26823426217E+02  0.46142317869E+02  0.10000000985E+02 0.  0.
         12    1    1    2    0    0  0.33769210905E+02 -0.13009906972E+02  0.26823426217E+02  0.45045682131E+02  0.00000000000E+00 0. -1.
         11    1    3    3    0    0 -0.17368375133E+02  0.45324962145E+01 -0.10542989351E+02  0.20817266905E+02  0.51100000000E-03 0. -1.
        -11    1    3    3    0    0 -0.11801769026E+02  0.36314863957E+01 -0.12826382774E+02  0.17804087759E+02  0.51100000000E-03 0.  1.
        -12    1    3    3    0    0 -0.45990667465E+01  0.48459243622E+01 -0.34540540917E+01  0.75209632051E+01  0.00000000000E+00 0.  1.
</event>
<event>
 7    1  0.2478637E-008  0.4614232E+02  0.7816164E-02  0.1320468E+00
        -11   -1    0    0    0    0  0.00000000000E+00  0.00000000000E+00  0.45593999997E+02  0.45594000000E+02  0.51100000000E-03 0.  1.
         11   -1    0    0    0    0 -0.00000000000E+00 -0.00000000000E+00 -0.45593999997E+02  0.45594000000E+02  0.51100000000E-03 0. -1.
    9900012    2    1    2    0    0  0.34227628135E+02 -0.82650174923E+01  0.28093992646E+02  0.46142318024E+02  0.10000002394E+02 0.  0.
         12    1    1    2    0    0 -0.34227628135E+02  0.82650174923E+01 -0.28093992646E+02  0.45045681976E+02  0.00000000000E+00 0. -1.
         11    1    3    3    0    0  0.12947600986E+02  0.96437579460E+00  0.10487179478E+02  0.16689856968E+02  0.51100000000E-03 0. -1.
        -11    1    3    3    0    0  0.35903376929E+01 -0.26029590625E+01  0.16730745972E+01  0.47397362267E+01  0.51100000000E-03 0.  1.
        -12    1    3    3    0    0  0.17689689457E+02 -0.66264342244E+01  0.15933738571E+02  0.24712724829E+02  0.00000000000E+00 0.  1.
</event>
<event>
 7    1  0.2478637E-008  0.4614232E+02  0.7816164E-02  0.1320468E+00
        -11   -1    0    0    0    0  0.00000000000E+00  0.00000000000E+00  0.45593999997E+02  0.45594000000E+02  0.51100000000E-03 0.  1.
         11   -1    0    0    0    0 -0.00000000000E+00 -0.00000000000E+00 -0.45593999997E+02  0.45594000000E+02  0.51100000000E-03 0. -1.
    9900012    2    1    2    0    0 -0.33265921519E+02  0.19847300856E+02  0.22990794657E+02  0.46142317358E+02  0.99999963220E+01 0.  0.
         12    1    1    2    0    0  0.33265921519E+02 -0.19847300856E+02 -0.22990794657E+02  0.45045682642E+02  0.00000000000E+00 0. -1.
         11    1    3    3    0    0 -0.17237996842E+02  0.10261592737E+02  0.16748712415E+02  0.26133660065E+02  0.51100000000E-03 0. -1.
        -11    1    3    3    0    0 -0.96264459259E+01  0.37812405106E+01  0.39248711760E+01  0.11062136095E+02  0.51100000000E-03 0.  1.
         12    1    3    3    0    0 -0.64014787512E+01  0.58044676084E+01  0.23172110664E+01  0.89465211979E+01  0.00000000000E+00 0. -1.
</event>
<event>
 7    1  0.2478637E-008  0.4614232E+02  0.7816164E-02  0.1320468E+00
        -11   -1    0    0    0    0  0.00000000000E+00  0.00000000000E+00  0.45593999997E+02  0.45594000000E+02  0.51100000000E-03 0. -1.
         11   -1    0    0    0    0 -0.00000000000E+00 -0.00000000000E+00 -0.45593999997E+02  0.45594000000E+02  0.51100000000E-03 0.  1.
    9900012    2    1    2    0    0 -0.44375843215E+02 -0.75555987846E+01 -0.16765851024E+01  0.46142317947E+02  0.10000001692E+02 0.  0.
         12    1    1    2    0    0  0.44375843215E+02  0.75555987846E+01  0.16765851024E+01  0.45045682053E+02  0.00000000000E+00 0. -1.
         11    1    3    3    0    0 -0.82522274070E+01  0.98733957681E+00 -0.22905781183E+01  0.86209538332E+01  0.51100000000E-03 0. -1.
        -11    1    3    3    0    0 -0.21681759735E+02 -0.38566993495E+01 -0.20080954788E+01  0.22113463835E+02  0.51100000000E-03 0.  1.
         12    1    3    3    0    0 -0.14441856073E+02 -0.46862390119E+01  0.26220884947E+01  0.15407900278E+02  0.00000000000E+00 0. -1.
</event>
<event>
 7    1  0.2478637E-008  0.4614232E+02  0.7816164E-02  0.1320468E+00
        -11   -1    0    0    0    0  0.00000000000E+00  0.00000000000E+00  0.45593999997E+02  0.45594000000E+02  0.51100000000E-03 0.  1.
         11   -1    0    0    0    0 -0.00000000000E+00 -0.00000000000E+00 -0.45593999997E+02  0.45594000000E+02  0.51100000000E-03 0. -1.
    9900012    2    1    2    0    0  0.99016967565E+01 -0.16102558476E+02  0.40887374549E+02  0.46142318902E+02  0.10000010400E+02 0.  0.
         12    1    1    2    0    0 -0.99016967565E+01  0.16102558476E+02 -0.40887374549E+02  0.45045681098E+02  0.00000000000E+00 0. -1.
         11    1    3    3    0    0  0.14532148598E+01 -0.32588599390E+00  0.69163084072E+01  0.70748397405E+01  0.51100000000E-03 0. -1.
        -11    1    3    3    0    0  0.43302552798E+01 -0.11166497685E+02  0.15491129134E+02  0.19581033258E+02  0.51100000000E-03 0.  1.
         12    1    3    3    0    0  0.41182266169E+01 -0.46101747963E+01  0.18479937007E+02  0.19486445903E+02  0.00000000000E+00 0. -1.
</event>
<event>
 7    1  0.2478637E-008  0.4614232E+02  0.7816164E-02  0.1320468E+00
        -11   -1    0    0    0    0  0.00000000000E+00  0.00000000000E+00  0.45593999997E+02  0.45594000000E+02  0.51100000000E-03 0.  1.
         11   -1    0    0    0    0 -0.00000000000E+00 -0.00000000000E+00 -0.45593999997E+02  0.45594000000E+02  0.51100000000E-03 0. -1.
    9900012    2    1    2    0    0 -0.25077489079E+02 -0.60273816434E+01  0.36931067619E+02  0.46142317150E+02  0.99999944236E+01 0.  0.
         12    1    1    2    0    0  0.25077489079E+02  0.60273816434E+01 -0.36931067619E+02  0.45045682850E+02  0.00000000000E+00 0. -1.
         11    1    3    3    0    0 -0.16651378019E+01  0.99748853028E+00  0.52619008545E+01  0.56084996328E+01  0.51100000000E-03 0. -1.
        -11    1    3    3    0    0 -0.43183552460E+01  0.12179067389E+01  0.61703834851E+01  0.76292281044E+01  0.51100000000E-03 0.  1.
        -12    1    3    3    0    0 -0.19093996031E+02 -0.82427769126E+01  0.25498783280E+02  0.32904589412E+02  0.00000000000E+00 0.  1.
</event>
<event>
 7    1  0.2478637E-008  0.4614232E+02  0.7816164E-02  0.1320468E+00
        -11   -1    0    0    0    0  0.00000000000E+00  0.00000000000E+00  0.45593999997E+02  0.45594000000E+02  0.51100000000E-03 0.  1.
         11   -1    0    0    0    0 -0.00000000000E+00 -0.00000000000E+00 -0.45593999997E+02  0.45594000000E+02  0.51100000000E-03 0. -1.
    9900012    2    1    2    0    0 -0.19616388518E+02 -0.30730393543E+02  0.26456639796E+02  0.46142316799E+02  0.99999912241E+01 0.  0.
         12    1    1    2    0    0  0.19616388518E+02  0.30730393543E+02 -0.26456639796E+02  0.45045683201E+02  0.00000000000E+00 0. -1.
         11    1    3    3    0    0 -0.25264276701E+01 -0.49839420112E+01  0.73118516526E+00  0.56353479706E+01  0.51100000000E-03 0. -1.
        -11    1    3    3    0    0 -0.11843447279E+02 -0.18167758457E+02  0.15022713009E+02  0.26382126473E+02  0.51100000000E-03 0.  1.
         12    1    3    3    0    0 -0.52465135686E+01 -0.75786930744E+01  0.10702741622E+02  0.14124842355E+02  0.00000000000E+00 0. -1.
</event>
<event>
 7    1  0.2478637E-008  0.4614232E+02  0.7816164E-02  0.1320468E+00
        -11   -1    0    0    0    0  0.00000000000E+00  0.00000000000E+00  0.45593999997E+02  0.45594000000E+02  0.51100000000E-03 0.  1.
         11   -1    0    0    0    0 -0.00000000000E+00 -0.00000000000E+00 -0.45593999997E+02  0.45594000000E+02  0.51100000000E-03 0. -1.
    9900012    2    1    2    0    0 -0.16832843580E+02  0.19822826938E+02  0.36780762361E+02  0.46142316848E+02  0.99999916696E+01 0.  0.
         12    1    1    2    0    0  0.16832843580E+02 -0.19822826938E+02 -0.36780762361E+02  0.45045683152E+02  0.00000000000E+00 0. -1.
         11    1    3    3    0    0 -0.24209708968E+00  0.50723039444E+00 -0.45301471411E+00  0.72188383151E+00  0.51100000000E-03 0. -1.
        -11    1    3    3    0    0 -0.11697045315E+02  0.16685632349E+02  0.27730534919E+02  0.34412407111E+02  0.51100000000E-03 0.  1.
         12    1    3    3    0    0 -0.48937011747E+01  0.26299641946E+01  0.95032421562E+01  0.11008025905E+02  0.00000000000E+00 0. -1.
</event>
<event>
 7    1  0.2478637E-008  0.4614232E+02  0.7816164E-02  0.1320468E+00
        -11   -1    0    0    0    0  0.00000000000E+00  0.00000000000E+00  0.45593999997E+02  0.45594000000E+02  0.51100000000E-03 0. -1.
         11   -1    0    0    0    0 -0.00000000000E+00 -0.00000000000E+00 -0.45593999997E+02  0.45594000000E+02  0.51100000000E-03 0.  1.
    9900012    2    1    2    0    0  0.30383666531E+02 -0.29166877063E+02 -0.15976220149E+02  0.46142317413E+02  0.99999968286E+01 0.  0.
         12    1    1    2    0    0 -0.30383666531E+02  0.29166877063E+02  0.15976220149E+02  0.45045682587E+02  0.00000000000E+00 0. -1.
         11    1    3    3    0    0  0.99627154600E+01 -0.10280509761E+02 -0.63877452989E+01  0.15676347488E+02  0.51100000000E-03 0.  1.
        -11    1    3    3    0    0  0.90620910657E+01 -0.35606770413E+01 -0.44791916075E+01  0.10717419148E+02  0.51100000000E-03 0. -1.
         12    1    3    3    0    0  0.11358860005E+02 -0.15325690260E+02 -0.51092832430E+01  0.19748550778E+02  0.00000000000E+00 0. -1.
</event>
<event>
 7    1  0.2478637E-008  0.4614232E+02  0.7816164E-02  0.1320468E+00
        -11   -1    0    0    0    0  0.00000000000E+00  0.00000000000E+00  0.45593999997E+02  0.45594000000E+02  0.51100000000E-03 0.  1.
         11   -1    0    0    0    0 -0.00000000000E+00 -0.00000000000E+00 -0.45593999997E+02  0.45594000000E+02  0.51100000000E-03 0. -1.
    9900012    2    1    2    0    0 -0.32506667503E+02  0.26928939824E+02  0.15724572418E+02  0.46142318632E+02  0.10000007940E+02 0.  0.
         12    1    1    2    0    0  0.32506667503E+02 -0.26928939824E+02 -0.15724572418E+02  0.45045681368E+02  0.00000000000E+00 0. -1.
         11    1    3    3    0    0 -0.75832556620E+01  0.95813567546E+01  0.13473735557E+01  0.12293233076E+02  0.51100000000E-03 0. -1.
        -11    1    3    3    0    0 -0.94278361540E+01  0.56473543972E+01  0.72490238888E+01  0.13165297332E+02  0.51100000000E-03 0.  1.
        -12    1    3    3    0    0 -0.15495575687E+02  0.11700228673E+02  0.71281749737E+01  0.20683788224E+02  0.00000000000E+00 0.  1.
</event>
<event>
 7    1  0.2478637E-008  0.4614232E+02  0.7816164E-02  0.1320468E+00
        -11   -1    0    0    0    0  0.00000000000E+00  0.00000000000E+00  0.45593999997E+02  0.45594000000E+02  0.51100000000E-03 0. -1.
         11   -1    0    0    0    0 -0.00000000000E+00 -0.00000000000E+00 -0.45593999997E+02  0.45594000000E+02  0.51100000000E-03 0.  1.
    9900012    2    1    2    0    0 -0.18203470009E+02  0.20030108083E+02 -0.36007523212E+02  0.46142320095E+02  0.10000021286E+02 0.  0.
         12    1    1    2    0    0  0.18203470009E+02 -0.20030108083E+02  0.36007523212E+02  0.45045679905E+02  0.00000000000E+00 0. -1.
         11    1    3    3    0    0 -0.94156922668E+01  0.71752407159E+01 -0.12865917321E+02  0.17483454148E+02  0.51100000000E-03 0.  1.
        -11    1    3    3    0    0  0.64144723192E+00 -0.18193281156E+00 -0.32976045623E+00  0.74383890654E+00  0.51100000000E-03 0. -1.
        -12    1    3    3    0    0 -0.94292249743E+01  0.13036800178E+02 -0.22811845435E+02  0.27915027040E+02  0.00000000000E+00 0.  1.
</event>
<event>
 7    1  0.2478637E-008  0.4614232E+02  0.7816164E-02  0.1320468E+00
        -11   -1    0    0    0    0  0.00000000000E+00  0.00000000000E+00  0.45593999997E+02  0.45594000000E+02  0.51100000000E-03 0.  1.
         11   -1    0    0    0    0 -0.00000000000E+00 -0.00000000000E+00 -0.45593999997E+02  0.45594000000E+02  0.51100000000E-03 0. -1.
    9900012    2    1    2    0    0  0.32749566206E+02  0.11712666907E+02  0.28625040146E+02  0.46142316787E+02  0.99999911196E+01 0.  0.
         12    1    1    2    0    0 -0.32749566206E+02 -0.11712666907E+02 -0.28625040146E+02  0.45045683213E+02  0.00000000000E+00 0. -1.
         11    1    3    3    0    0  0.10088668868E+02  0.13137092183E+01  0.51054211393E+01  0.11382987161E+02  0.51100000000E-03 0. -1.
        -11    1    3    3    0    0  0.72728944963E+00  0.17125485093E+01  0.86432082535E+00  0.20515416375E+01  0.51100000000E-03 0.  1.
        -12    1    3    3    0    0  0.21933607888E+02  0.86864091794E+01  0.22655298182E+02  0.32707787989E+02  0.00000000000E+00 0.  1.
</event>
<event>
 7    1  0.2478637E-008  0.4614232E+02  0.7816164E-02  0.1320468E+00
        -11   -1    0    0    0    0  0.00000000000E+00  0.00000000000E+00  0.45593999997E+02  0.45594000000E+02  0.51100000000E-03 0.  1.
         11   -1    0    0    0    0 -0.00000000000E+00 -0.00000000000E+00 -0.45593999997E+02  0.45594000000E+02  0.51100000000E-03 0. -1.
    9900012    2    1    2    0    0 -0.42341807119E+01  0.26782278857E+02  0.35970746237E+02  0.46142319498E+02  0.10000015836E+02 0.  0.
         12    1    1    2    0    0  0.42341807119E+01 -0.26782278857E+02 -0.35970746237E+02  0.45045680502E+02  0.00000000000E+00 0. -1.
         11    1    3    3    0    0 -0.38604386840E+01  0.59254426098E+01  0.95179151364E+01  0.11857679611E+02  0.51100000000E-03 0. -1.
        -11    1    3    3    0    0 -0.17256314961E+01  0.68726519543E+01  0.13144010075E+02  0.14932385947E+02  0.51100000000E-03 0.  1.
         12    1    3    3    0    0  0.13518894682E+01  0.13984184293E+02  0.13308821025E+02  0.19352253940E+02  0.00000000000E+00 0. -1.
</event>
<event>
 7    1  0.2478637E-008  0.4614232E+02  0.7816164E-02  0.1320468E+00
        -11   -1    0    0    0    0  0.00000000000E+00  0.00000000000E+00  0.45593999997E+02  0.45594000000E+02  0.51100000000E-03 0.  1.
         11   -1    0    0    0    0 -0.00000000000E+00 -0.00000000000E+00 -0.45593999997E+02  0.45594000000E+02  0.51100000000E-03 0. -1.
    9900012    2    1    2    0    0 -0.23474882670E+02  0.27702318188E+02  0.26657550962E+02  0.46142316826E+02  0.99999914722E+01 0.  0.
         12    1    1    2    0    0  0.23474882670E+02 -0.27702318188E+02 -0.26657550962E+02  0.45045683174E+02  0.00000000000E+00 0. -1.
         11    1    3    3    0    0 -0.93757415661E+01  0.70860584607E+01  0.51943732236E+01  0.12849057081E+02  0.51100000000E-03 0. -1.
        -11    1    3    3    0    0 -0.11506411591E+02  0.13345588183E+02  0.13456648173E+02  0.22171684915E+02  0.51100000000E-03 0.  1.
         12    1    3    3    0    0 -0.25927295134E+01  0.72706715440E+01  0.80065295648E+01  0.11121574830E+02  0.00000000000E+00 0. -1.
</event>
<event>
 7    1  0.2478637E-008  0.4614232E+02  0.7816164E-02  0.1320468E+00
        -11   -1    0    0    0    0  0.00000000000E+00  0.00000000000E+00  0.45593999997E+02  0.45594000000E+02  0.51100000000E-03 0.  1.
         11   -1    0    0    0    0 -0.00000000000E+00 -0.00000000000E+00 -0.45593999997E+02  0.45594000000E+02  0.51100000000E-03 0. -1.
    9900012    2    1    2    0    0  0.93007017216E+01  0.12419352323E+02  0.42289126222E+02  0.46142316952E+02  0.99999926228E+01 0.  0.
         12    1    1    2    0    0 -0.93007017216E+01 -0.12419352323E+02 -0.42289126222E+02  0.45045683048E+02  0.00000000000E+00 0. -1.
         11    1    3    3    0    0 -0.67854299897E+00 -0.59422623881E+00  0.42283194486E+01  0.43234489756E+01  0.51100000000E-03 0. -1.
        -11    1    3    3    0    0  0.53076884796E+01  0.43022130069E+01  0.21203710226E+02  0.22277296096E+02  0.51100000000E-03 0.  1.
        -12    1    3    3    0    0  0.46715562410E+01  0.87113655546E+01  0.16857096548E+02  0.19541571880E+02  0.00000000000E+00 0.  1.
</event>
<event>
 7    1  0.2478637E-008  0.4614232E+02  0.7816164E-02  0.1320468E+00
        -11   -1    0    0    0    0  0.00000000000E+00  0.00000000000E+00  0.45593999997E+02  0.45594000000E+02  0.51100000000E-03 0.  1.
         11   -1    0    0    0    0 -0.00000000000E+00 -0.00000000000E+00 -0.45593999997E+02  0.45594000000E+02  0.51100000000E-03 0. -1.
    9900012    2    1    2    0    0 -0.26410692574E+02 -0.34959921615E+02  0.10459095778E+02  0.46142317786E+02  0.10000000231E+02 0.  0.
         12    1    1    2    0    0  0.26410692574E+02  0.34959921615E+02 -0.10459095778E+02  0.45045682214E+02  0.00000000000E+00 0. -1.
         11    1    3    3    0    0 -0.59238894093E+01 -0.13556492502E+02  0.13790198154E+01  0.14858420192E+02  0.51100000000E-03 0. -1.
        -11    1    3    3    0    0 -0.58959946753E+01 -0.68295843828E+01  0.48075669012E+01  0.10223437574E+02  0.51100000000E-03 0.  1.
         12    1    3    3    0    0 -0.14590808489E+02 -0.14573844730E+02  0.42725090618E+01  0.21060460021E+02  0.00000000000E+00 0. -1.
</event>
<event>
 7    1  0.2478637E-008  0.4614232E+02  0.7816164E-02  0.1320468E+00
        -11   -1    0    0    0    0  0.00000000000E+00  0.00000000000E+00  0.45593999997E+02  0.45594000000E+02  0.51100000000E-03 0.  1.
         11   -1    0    0    0    0 -0.00000000000E+00 -0.00000000000E+00 -0.45593999997E+02  0.45594000000E+02  0.51100000000E-03 0. -1.
    9900012    2    1    2    0    0 -0.25530945964E+02 -0.76100939854E+01  0.36323145277E+02  0.46142316354E+02  0.99999871712E+01 0.  0.
         12    1    1    2    0    0  0.25530945964E+02  0.76100939854E+01 -0.36323145277E+02  0.45045683646E+02  0.00000000000E+00 0. -1.
         11    1    3    3    0    0 -0.20103990763E+02 -0.75497717065E+01  0.28835805787E+02  0.35953764658E+02  0.51100000000E-03 0. -1.
        -11    1    3    3    0    0 -0.55087536543E+01 -0.10692449770E+01  0.50497527196E+01  0.75491492523E+01  0.51100000000E-03 0.  1.
         12    1    3    3    0    0  0.81798453434E-01  0.10089226980E+01  0.24375867704E+01  0.26394024439E+01  0.00000000000E+00 0. -1.
</event>
<event>
 7    1  0.2478637E-008  0.4614232E+02  0.7816164E-02  0.1320468E+00
        -11   -1    0    0    0    0  0.00000000000E+00  0.00000000000E+00  0.45593999997E+02  0.45594000000E+02  0.51100000000E-03 0.  1.
         11   -1    0    0    0    0 -0.00000000000E+00 -0.00000000000E+00 -0.45593999997E+02  0.45594000000E+02  0.51100000000E-03 0. -1.
    9900012    2    1    2    0    0 -0.17310202443E+02  0.16484547832E+02  0.38180231510E+02  0.46142317588E+02  0.99999984202E+01 0.  0.
         12    1    1    2    0    0  0.17310202443E+02 -0.16484547832E+02 -0.38180231510E+02  0.45045682412E+02  0.00000000000E+00 0. -1.
         11    1    3    3    0    0 -0.23371346928E+01  0.13519699958E+01  0.62953952650E+01  0.68499652003E+01  0.51100000000E-03 0.  1.
        -11    1    3    3    0    0 -0.13404602241E+01  0.31996705729E+01  0.11538475685E+02  0.12048698966E+02  0.51100000000E-03 0. -1.
        -12    1    3    3    0    0 -0.13632607526E+02  0.11932907263E+02  0.20346360560E+02  0.27243653422E+02  0.00000000000E+00 0.  1.
</event>
<event>
 7    1  0.2478637E-008  0.4614232E+02  0.7816164E-02  0.1320468E+00
        -11   -1    0    0    0    0  0.00000000000E+00  0.00000000000E+00  0.45593999997E+02  0.45594000000E+02  0.51100000000E-03 0.  1.
         11   -1    0    0    0    0 -0.00000000000E+00 -0.00000000000E+00 -0.45593999997E+02  0.45594000000E+02  0.51100000000E-03 0. -1.
    9900012    2    1    2    0    0  0.28757715140E+02  0.27673088469E+02  0.20887974357E+02  0.46142317874E+02  0.10000001026E+02 0.  0.
         12    1    1    2    0    0 -0.28757715140E+02 -0.27673088469E+02 -0.20887974357E+02  0.45045682126E+02  0.00000000000E+00 0. -1.
         11    1    3    3    0    0  0.42340477200E+01  0.44612724790E+01  0.59090726952E+00  0.61789387349E+01  0.51100000000E-03 0. -1.
        -11    1    3    3    0    0  0.23090936528E+02  0.19548309603E+02  0.16345090084E+02  0.34387348373E+02  0.51100000000E-03 0.  1.
         12    1    3    3    0    0  0.14327308927E+01  0.36635063868E+01  0.39519770037E+01  0.55760307653E+01  0.00000000000E+00 0. -1.
</event>
<event>
 7    1  0.2478637E-008  0.4614232E+02  0.7816164E-02  0.1320468E+00
        -11   -1    0    0    0    0  0.00000000000E+00  0.00000000000E+00  0.45593999997E+02  0.45594000000E+02  0.51100000000E-03 0. -1.
         11   -1    0    0    0    0 -0.00000000000E+00 -0.00000000000E+00 -0.45593999997E+02  0.45594000000E+02  0.51100000000E-03 0.  1.
    9900012    2    1    2    0    0 -0.42909728132E+02  0.42666248275E+01 -0.13025534551E+02  0.46142318674E+02  0.10000008321E+02 0.  0.
         12    1    1    2    0    0  0.42909728132E+02 -0.42666248275E+01  0.13025534551E+02  0.45045681326E+02  0.00000000000E+00 0. -1.
         11    1    3    3    0    0 -0.30521168514E+02  0.12268867632E+01 -0.11751058495E+02  0.32728188991E+02  0.51100000000E-03 0. -1.
        -11    1    3    3    0    0 -0.61641500182E+01 -0.36397277185E+00 -0.13443169901E+01  0.63195260943E+01  0.51100000000E-03 0.  1.
         12    1    3    3    0    0 -0.62244095999E+01  0.34037108361E+01  0.69840933361E-01  0.70946035886E+01  0.00000000000E+00 0. -1.
</event>
<event>
 7    1  0.2478637E-008  0.4614232E+02  0.7816164E-02  0.1320468E+00
        -11   -1    0    0    0    0  0.00000000000E+00  0.00000000000E+00  0.45593999997E+02  0.45594000000E+02  0.51100000000E-03 0. -1.
         11   -1    0    0    0    0 -0.00000000000E+00 -0.00000000000E+00 -0.45593999997E+02  0.45594000000E+02  0.51100000000E-03 0.  1.
    9900012    2    1    2    0    0  0.36294354041E+02 -0.26005442284E+02 -0.59624028511E+01  0.46142318616E+02  0.10000007792E+02 0.  0.
         12    1    1    2    0    0 -0.36294354041E+02  0.26005442284E+02  0.59624028511E+01  0.45045681384E+02  0.00000000000E+00 0. -1.
         11    1    3    3    0    0  0.76434424964E+01 -0.68236638119E+01  0.21173005351E+01  0.10462674746E+02  0.51100000000E-03 0. -1.
        -11    1    3    3    0    0  0.94184902711E+01 -0.77022626878E+01 -0.10859158938E+01  0.12215237332E+02  0.51100000000E-03 0.  1.
        -12    1    3    3    0    0  0.19232421273E+02 -0.11479515785E+02 -0.69937874923E+01  0.23464406538E+02  0.00000000000E+00 0.  1.
</event>
<event>
 7    1  0.2478637E-008  0.4614232E+02  0.7816164E-02  0.1320468E+00
        -11   -1    0    0    0    0  0.00000000000E+00  0.00000000000E+00  0.45593999997E+02  0.45594000000E+02  0.51100000000E-03 0.  1.
         11   -1    0    0    0    0 -0.00000000000E+00 -0.00000000000E+00 -0.45593999997E+02  0.45594000000E+02  0.51100000000E-03 0. -1.
    9900012    2    1    2    0    0  0.40233218909E+02 -0.13894990668E+02 -0.14742140583E+02  0.46142318981E+02  0.10000011128E+02 0.  0.
         12    1    1    2    0    0 -0.40233218909E+02  0.13894990668E+02  0.14742140583E+02  0.45045681019E+02  0.00000000000E+00 0. -1.
         11    1    3    3    0    0  0.33247849339E+01 -0.17891189999E+00 -0.28608990341E+01  0.43898687759E+01  0.51100000000E-03 0. -1.
        -11    1    3    3    0    0  0.26553226062E+02 -0.69608586749E+01 -0.10155592195E+02  0.29268813110E+02  0.51100000000E-03 0.  1.
         12    1    3    3    0    0  0.10355207913E+02 -0.67552200931E+01 -0.17256493538E+01  0.12483637095E+02  0.00000000000E+00 0. -1.
</event>
<event>
 7    1  0.2478637E-008  0.4614231E+02  0.7816164E-02  0.1320468E+00
        -11   -1    0    0    0    0  0.00000000000E+00  0.00000000000E+00  0.45593999997E+02  0.45594000000E+02  0.51100000000E-03 0. -1.
         11   -1    0    0    0    0 -0.00000000000E+00 -0.00000000000E+00 -0.45593999997E+02  0.45594000000E+02  0.51100000000E-03 0.  1.
    9900012    2    1    2    0    0 -0.10661670612E+02  0.28053713126E+02 -0.33592143276E+02  0.46142310636E+02  0.99999350233E+01 0.  0.
         12    1    1    2    0    0  0.10661670612E+02 -0.28053713126E+02  0.33592143276E+02  0.45045689364E+02  0.00000000000E+00 0. -1.
         11    1    3    3    0    0 -0.28896351825E+01  0.23993172348E+01 -0.41895439449E+01  0.56266325105E+01  0.51100000000E-03 0. -1.
        -11    1    3    3    0    0 -0.82572189345E+01  0.14327612322E+02 -0.17611200996E+02  0.24158156804E+02  0.51100000000E-03 0.  1.
        -12    1    3    3    0    0  0.48518350468E+00  0.11326783570E+02 -0.11791398336E+02  0.16357521321E+02  0.00000000000E+00 0.  1.
</event>
<event>
 7    1  0.2478637E-008  0.4614232E+02  0.7816164E-02  0.1320468E+00
        -11   -1    0    0    0    0  0.00000000000E+00  0.00000000000E+00  0.45593999997E+02  0.45594000000E+02  0.51100000000E-03 0.  1.
         11   -1    0    0    0    0 -0.00000000000E+00 -0.00000000000E+00 -0.45593999997E+02  0.45594000000E+02  0.51100000000E-03 0. -1.
    9900012    2    1    2    0    0 -0.22656302135E+02 -0.33703657948E+02  0.19490225362E+02  0.46142317963E+02  0.10000001844E+02 0.  0.
         12    1    1    2    0    0  0.22656302135E+02  0.33703657948E+02 -0.19490225362E+02  0.45045682037E+02  0.00000000000E+00 0. -1.
         11    1    3    3    0    0 -0.67414777902E+00 -0.25869148424E+01  0.30591498360E+01  0.40626348113E+01  0.51100000000E-03 0. -1.
        -11    1    3    3    0    0 -0.20098975374E+02 -0.23984770140E+02  0.14272493352E+02  0.34393924994E+02  0.51100000000E-03 0.  1.
         12    1    3    3    0    0 -0.18831789815E+01 -0.71319729660E+01  0.21585821740E+01  0.76857581582E+01  0.00000000000E+00 0. -1.
</event>
<event>
 7    1  0.2478637E-008  0.4614232E+02  0.7816164E-02  0.1320468E+00
        -11   -1    0    0    0    0  0.00000000000E+00  0.00000000000E+00  0.45593999997E+02  0.45594000000E+02  0.51100000000E-03 0.  1.
         11   -1    0    0    0    0 -0.00000000000E+00 -0.00000000000E+00 -0.45593999997E+02  0.45594000000E+02  0.51100000000E-03 0. -1.
    9900012    2    1    2    0    0  0.40189814956E+02 -0.11685282668E+02  0.16653717010E+02  0.46142319325E+02  0.10000014259E+02 0.  0.
         12    1    1    2    0    0 -0.40189814956E+02  0.11685282668E+02 -0.16653717010E+02  0.45045680675E+02  0.00000000000E+00 0. -1.
         11    1    3    3    0    0  0.16284440845E+02 -0.80042040959E+01  0.81999593572E+01  0.19912047373E+02  0.51100000000E-03 0. -1.
        -11    1    3    3    0    0  0.52744407836E+01 -0.26205031906E+01  0.37616421731E+01  0.69883270281E+01  0.51100000000E-03 0.  1.
        -12    1    3    3    0    0  0.18630933327E+02 -0.10605753816E+01  0.46921154797E+01  0.19241944924E+02  0.00000000000E+00 0.  1.
</event>
<event>
 7    1  0.2478637E-008  0.4614232E+02  0.7816164E-02  0.1320468E+00
        -11   -1    0    0    0    0  0.00000000000E+00  0.00000000000E+00  0.45593999997E+02  0.45594000000E+02  0.51100000000E-03 0.  1.
         11   -1    0    0    0    0 -0.00000000000E+00 -0.00000000000E+00 -0.45593999997E+02  0.45594000000E+02  0.51100000000E-03 0. -1.
    9900012    2    1    2    0    0  0.22841632195E+02 -0.25639497729E+02  0.29154579656E+02  0.46142317410E+02  0.99999967946E+01 0.  0.
         12    1    1    2    0    0 -0.22841632195E+02  0.25639497729E+02 -0.29154579656E+02  0.45045682590E+02  0.00000000000E+00 0. -1.
         11    1    3    3    0    0  0.73666537067E+01 -0.63358515559E+01  0.78643426524E+01  0.12500339491E+02  0.51100000000E-03 0. -1.
        -11    1    3    3    0    0  0.14147117396E+02 -0.17249249785E+02  0.14972829779E+02  0.26867511619E+02  0.51100000000E-03 0.  1.
         12    1    3    3    0    0  0.13278610923E+01 -0.20543963878E+01  0.63174072249E+01  0.67744662995E+01  0.00000000000E+00 0. -1.
</event>
<event>
 7    1  0.2478637E-008  0.4614232E+02  0.7816164E-02  0.1320468E+00
        -11   -1    0    0    0    0  0.00000000000E+00  0.00000000000E+00  0.45593999997E+02  0.45594000000E+02  0.51100000000E-03 0. -1.
         11   -1    0    0    0    0 -0.00000000000E+00 -0.00000000000E+00 -0.45593999997E+02  0.45594000000E+02  0.51100000000E-03 0.  1.
    9900012    2    1    2    0    0 -0.18868196608E+02 -0.33720583568E+02 -0.23152255215E+02  0.46142317399E+02  0.99999967011E+01 0.  0.
         12    1    1    2    0    0  0.18868196608E+02  0.33720583568E+02  0.23152255215E+02  0.45045682601E+02  0.00000000000E+00 0. -1.
         11    1    3    3    0    0 -0.87716245554E+01 -0.19277318343E+02 -0.96225788157E+01  0.23262640073E+02  0.51100000000E-03 0. -1.
        -11    1    3    3    0    0 -0.72467711838E+01 -0.56434864572E+01 -0.62659109331E+01  0.11118735183E+02  0.51100000000E-03 0.  1.
        -12    1    3    3    0    0 -0.28498008689E+01 -0.87997787682E+01 -0.72637654660E+01  0.11760942144E+02  0.00000000000E+00 0.  1.
</event>
<event>
 7    1  0.2478637E-008  0.4614232E+02  0.7816164E-02  0.1320468E+00
        -11   -1    0    0    0    0  0.00000000000E+00  0.00000000000E+00  0.45593999997E+02  0.45594000000E+02  0.51100000000E-03 0. -1.
         11   -1    0    0    0    0 -0.00000000000E+00 -0.00000000000E+00 -0.45593999997E+02  0.45594000000E+02  0.51100000000E-03 0.  1.
    9900012    2    1    2    0    0  0.41616212720E+02  0.15770455603E+02 -0.69639806683E+01  0.46142318100E+02  0.10000003088E+02 0.  0.
         12    1    1    2    0    0 -0.41616212720E+02 -0.15770455603E+02  0.69639806683E+01  0.45045681900E+02  0.00000000000E+00 0. -1.
         11    1    3    3    0    0  0.11257386173E+02  0.13191572060E+01 -0.14991392460E+00  0.11335404432E+02  0.51100000000E-03 0. -1.
        -11    1    3    3    0    0  0.15447626148E+02  0.43824785698E+01 -0.44311524458E+01  0.16657442309E+02  0.51100000000E-03 0.  1.
         12    1    3    3    0    0  0.14911200400E+02  0.10068819827E+02 -0.23829142979E+01  0.18149471359E+02  0.00000000000E+00 0. -1.
</event>
<event>
 7    1  0.2478637E-008  0.4614232E+02  0.7816164E-02  0.1320468E+00
        -11   -1    0    0    0    0  0.00000000000E+00  0.00000000000E+00  0.45593999997E+02  0.45594000000E+02  0.51100000000E-03 0.  1.
         11   -1    0    0    0    0 -0.00000000000E+00 -0.00000000000E+00 -0.45593999997E+02  0.45594000000E+02  0.51100000000E-03 0. -1.
    9900012    2    1    2    0    0 -0.12920570124E+02 -0.41510428389E+02  0.11792232623E+02  0.46142317103E+02  0.99999940012E+01 0.  0.
         12    1    1    2    0    0  0.12920570124E+02  0.41510428389E+02 -0.11792232623E+02  0.45045682897E+02  0.00000000000E+00 0. -1.
         11    1    3    3    0    0  0.10273775894E+01 -0.62244585254E+01  0.17373587007E+01  0.65435314748E+01  0.51100000000E-03 0. -1.
        -11    1    3    3    0    0 -0.29870438833E+00 -0.35896949875E+01  0.21494439977E+01  0.41946685418E+01  0.51100000000E-03 0.  1.
        -12    1    3    3    0    0 -0.13649243326E+02 -0.31696274876E+02  0.79054299248E+01  0.35404117087E+02  0.00000000000E+00 0.  1.
</event>
<event>
 7    1  0.2478637E-008  0.4614232E+02  0.7816164E-02  0.1320468E+00
        -11   -1    0    0    0    0  0.00000000000E+00  0.00000000000E+00  0.45593999997E+02  0.45594000000E+02  0.51100000000E-03 0.  1.
         11   -1    0    0    0    0 -0.00000000000E+00 -0.00000000000E+00 -0.45593999997E+02  0.45594000000E+02  0.51100000000E-03 0. -1.
    9900012    2    1    2    0    0 -0.33869560286E+01  0.15537410796E+02  0.42145356278E+02  0.46142315843E+02  0.99999825076E+01 0.  0.
         12    1    1    2    0    0  0.33869560286E+01 -0.15537410796E+02 -0.42145356278E+02  0.45045684157E+02  0.00000000000E+00 0. -1.
         11    1    3    3    0    0 -0.24968388869E+00  0.37020339408E+01  0.41300392000E+01  0.55519925610E+01  0.51100000000E-03 0. -1.
        -11    1    3    3    0    0 -0.15972916855E+01  0.12186729175E+02  0.29987902922E+02  0.32408980710E+02  0.51100000000E-03 0.  1.
        -12    1    3    3    0    0 -0.15399804545E+01 -0.35135231967E+00  0.80274141557E+01  0.81813425719E+01  0.00000000000E+00 0.  1.
</event>
<event>
 7    1  0.2478637E-008  0.4614232E+02  0.7816164E-02  0.1320468E+00
        -11   -1    0    0    0    0  0.00000000000E+00  0.00000000000E+00  0.45593999997E+02  0.45594000000E+02  0.51100000000E-03 0.  1.
         11   -1    0    0    0    0 -0.00000000000E+00 -0.00000000000E+00 -0.45593999997E+02  0.45594000000E+02  0.51100000000E-03 0. -1.
    9900012    2    1    2    0    0  0.76967685212E+00 -0.27469539940E+02  0.35692374880E+02  0.46142315950E+02  0.99999834877E+01 0.  0.
         12    1    1    2    0    0 -0.76967685212E+00  0.27469539940E+02 -0.35692374880E+02  0.45045684050E+02  0.00000000000E+00 0. -1.
         11    1    3    3    0    0 -0.23191318661E+00 -0.90674978943E+01  0.87102080134E+01  0.12575413539E+02  0.51100000000E-03 0. -1.
        -11    1    3    3    0    0 -0.29395844803E-01 -0.17522819163E+02  0.20609744414E+02  0.27052016941E+02  0.51100000000E-03 0.  1.
         12    1    3    3    0    0  0.10309858835E+01 -0.87922288242E+00  0.63724224524E+01  0.65148854695E+01  0.00000000000E+00 0. -1.
</event>
<event>
 7    1  0.2478637E-008  0.4614232E+02  0.7816164E-02  0.1320468E+00
        -11   -1    0    0    0    0  0.00000000000E+00  0.00000000000E+00  0.45593999997E+02  0.45594000000E+02  0.51100000000E-03 0. -1.
         11   -1    0    0    0    0 -0.00000000000E+00 -0.00000000000E+00 -0.45593999997E+02  0.45594000000E+02  0.51100000000E-03 0.  1.
    9900012    2    1    2    0    0  0.26149329933E+02  0.35589551988E+02  0.88718383067E+01  0.46142321166E+02  0.10000031048E+02 0.  0.
         12    1    1    2    0    0 -0.26149329933E+02 -0.35589551988E+02 -0.88718383067E+01  0.45045678834E+02  0.00000000000E+00 0. -1.
         11    1    3    3    0    0  0.64377823305E+01  0.11791592396E+02  0.53528038125E+01  0.14461645878E+02  0.51100000000E-03 0. -1.
        -11    1    3    3    0    0  0.17999828482E+02  0.18651595235E+02  0.17652608117E+01  0.25980607695E+02  0.51100000000E-03 0.  1.
        -12    1    3    3    0    0  0.17117191208E+01  0.51463643568E+01  0.17537736825E+01  0.57000675936E+01  0.00000000000E+00 0.  1.
</event>
<event>
 7    1  0.2478637E-008  0.4614232E+02  0.7816164E-02  0.1320468E+00
        -11   -1    0    0    0    0  0.00000000000E+00  0.00000000000E+00  0.45593999997E+02  0.45594000000E+02  0.51100000000E-03 0.  1.
         11   -1    0    0    0    0 -0.00000000000E+00 -0.00000000000E+00 -0.45593999997E+02  0.45594000000E+02  0.51100000000E-03 0. -1.
    9900012    2    1    2    0    0  0.68939230352E+00 -0.28892231791E+02  0.34552527695E+02  0.46142317746E+02  0.99999998641E+01 0.  0.
         12    1    1    2    0    0 -0.68939230352E+00  0.28892231791E+02 -0.34552527695E+02  0.45045682254E+02  0.00000000000E+00 0. -1.
         11    1    3    3    0    0 -0.71147549740E+00 -0.10274983549E+02  0.10875359362E+02  0.14978482093E+02  0.51100000000E-03 0. -1.
        -11    1    3    3    0    0 -0.31304715628E+01 -0.99334852889E+01  0.11077806903E+02  0.15204992214E+02  0.51100000000E-03 0.  1.
         12    1    3    3    0    0  0.45313393638E+01 -0.86837629531E+01  0.12599361430E+02  0.15958843438E+02  0.00000000000E+00 0. -1.
</event>
<event>
 7    1  0.2478637E-008  0.4614232E+02  0.7816164E-02  0.1320468E+00
        -11   -1    0    0    0    0  0.00000000000E+00  0.00000000000E+00  0.45593999997E+02  0.45594000000E+02  0.51100000000E-03 0.  1.
         11   -1    0    0    0    0 -0.00000000000E+00 -0.00000000000E+00 -0.45593999997E+02  0.45594000000E+02  0.51100000000E-03 0. -1.
    9900012    2    1    2    0    0 -0.25914830207E+02 -0.31575465709E+02  0.18987494134E+02  0.46142318821E+02  0.10000009662E+02 0.  0.
         12    1    1    2    0    0  0.25914830207E+02  0.31575465709E+02 -0.18987494134E+02  0.45045681179E+02  0.00000000000E+00 0. -1.
         11    1    3    3    0    0 -0.62902548634E+00 -0.33790994654E+01  0.19143109716E+01  0.39342817663E+01  0.51100000000E-03 0. -1.
        -11    1    3    3    0    0 -0.19353360022E+02 -0.24247192063E+02  0.16283920021E+02  0.35037764178E+02  0.51100000000E-03 0.  1.
         12    1    3    3    0    0 -0.59324446994E+01 -0.39491741808E+01  0.78926314161E+00  0.71702728769E+01  0.00000000000E+00 0. -1.
</event>
<event>
 7    1  0.2478637E-008  0.4614232E+02  0.7816164E-02  0.1320468E+00
        -11   -1    0    0    0    0  0.00000000000E+00  0.00000000000E+00  0.45593999997E+02  0.45594000000E+02  0.51100000000E-03 0.  1.
         11   -1    0    0    0    0 -0.00000000000E+00 -0.00000000000E+00 -0.45593999997E+02  0.45594000000E+02  0.51100000000E-03 0. -1.
    9900012    2    1    2    0    0  0.18612531031E+02  0.78264678602E+01  0.40267021447E+02  0.46142323995E+02  0.10000056845E+02 0.  0.
         12    1    1    2    0    0 -0.18612531031E+02 -0.78264678602E+01 -0.40267021447E+02  0.45045676005E+02  0.00000000000E+00 0. -1.
         11    1    3    3    0    0  0.30416456038E+01 -0.17725961496E+01  0.82890131769E+01  0.90056340585E+01  0.51100000000E-03 0. -1.
        -11    1    3    3    0    0  0.26535922671E+01  0.14202671088E+01  0.24327225020E+01  0.38699934901E+01  0.51100000000E-03 0.  1.
        -12    1    3    3    0    0  0.12917293160E+02  0.81787969010E+01  0.29545285768E+02  0.33266696446E+02  0.00000000000E+00 0.  1.
</event>
<event>
 7    1  0.2478637E-008  0.4614231E+02  0.7816164E-02  0.1320468E+00
        -11   -1    0    0    0    0  0.00000000000E+00  0.00000000000E+00  0.45593999997E+02  0.45594000000E+02  0.51100000000E-03 0. -1.
         11   -1    0    0    0    0 -0.00000000000E+00 -0.00000000000E+00 -0.45593999997E+02  0.45594000000E+02  0.51100000000E-03 0.  1.
    9900012    2    1    2    0    0 -0.30180682697E+02 -0.74263270441E+01 -0.32605057884E+02  0.46142314957E+02  0.99999744280E+01 0.  0.
         12    1    1    2    0    0  0.30180682697E+02  0.74263270441E+01  0.32605057884E+02  0.45045685043E+02  0.00000000000E+00 0. -1.
         11    1    3    3    0    0 -0.12234323519E+02 -0.47473414951E+01 -0.88430591017E+01  0.15824525831E+02  0.51100000000E-03 0. -1.
        -11    1    3    3    0    0 -0.16738733109E+02 -0.33810940866E+01 -0.23211121031E+02  0.28816195500E+02  0.51100000000E-03 0.  1.
        -12    1    3    3    0    0 -0.12076260684E+01  0.70210853753E+00 -0.55087775104E+00  0.15015936255E+01  0.00000000000E+00 0.  1.
</event>
<event>
 7    1  0.2478637E-008  0.4614232E+02  0.7816164E-02  0.1320468E+00
        -11   -1    0    0    0    0  0.00000000000E+00  0.00000000000E+00  0.45593999997E+02  0.45594000000E+02  0.51100000000E-03 0. -1.
         11   -1    0    0    0    0 -0.00000000000E+00 -0.00000000000E+00 -0.45593999997E+02  0.45594000000E+02  0.51100000000E-03 0.  1.
    9900012    2    1    2    0    0  0.59169364259E+01  0.38621644263E+02  0.22415884183E+02  0.46142318676E+02  0.10000008338E+02 0.  0.
         12    1    1    2    0    0 -0.59169364259E+01 -0.38621644263E+02 -0.22415884183E+02  0.45045681324E+02  0.00000000000E+00 0. -1.
         11    1    3    3    0    0  0.85795689131E+00  0.53340744367E+01  0.65028656321E+01  0.84543303587E+01  0.51100000000E-03 0. -1.
        -11    1    3    3    0    0  0.35940180845E+01  0.30507848450E+02  0.15799668757E+02  0.34543817336E+02  0.51100000000E-03 0.  1.
        -12    1    3    3    0    0  0.14649614501E+01  0.27797213764E+01  0.11334979418E+00  0.31441709808E+01  0.00000000000E+00 0.  1.
</event>
<event>
 7    1  0.2478637E-008  0.4614232E+02  0.7816164E-02  0.1320468E+00
        -11   -1    0    0    0    0  0.00000000000E+00  0.00000000000E+00  0.45593999997E+02  0.45594000000E+02  0.51100000000E-03 0. -1.
         11   -1    0    0    0    0 -0.00000000000E+00 -0.00000000000E+00 -0.45593999997E+02  0.45594000000E+02  0.51100000000E-03 0.  1.
    9900012    2    1    2    0    0 -0.41532485400E+02 -0.16993188249E+02 -0.39239852399E+01  0.46142318181E+02  0.10000003828E+02 0.  0.
         12    1    1    2    0    0  0.41532485400E+02  0.16993188249E+02  0.39239852399E+01  0.45045681819E+02  0.00000000000E+00 0. -1.
         11    1    3    3    0    0 -0.18645952286E+02 -0.66360462655E+01 -0.59227039547E+01  0.20658825452E+02  0.51100000000E-03 0. -1.
        -11    1    3    3    0    0 -0.37553523387E+01 -0.31433035437E+01 -0.31253332441E+00  0.49072095630E+01  0.51100000000E-03 0.  1.
        -12    1    3    3    0    0 -0.19131180776E+02 -0.72138384397E+01  0.23112520393E+01  0.20576283165E+02  0.00000000000E+00 0.  1.
</event>
<event>
 7    1  0.2478637E-008  0.4614232E+02  0.7816164E-02  0.1320468E+00
        -11   -1    0    0    0    0  0.00000000000E+00  0.00000000000E+00  0.45593999997E+02  0.45594000000E+02  0.51100000000E-03 0.  1.
         11   -1    0    0    0    0 -0.00000000000E+00 -0.00000000000E+00 -0.45593999997E+02  0.45594000000E+02  0.51100000000E-03 0. -1.
    9900012    2    1    2    0    0 -0.29624664408E+02 -0.19475172089E+02  0.27788672724E+02  0.46142318732E+02  0.10000008850E+02 0.  0.
         12    1    1    2    0    0  0.29624664408E+02  0.19475172089E+02 -0.27788672724E+02  0.45045681268E+02  0.00000000000E+00 0. -1.
         11    1    3    3    0    0 -0.54118317240E+01 -0.50478669150E+00  0.38978164185E+01  0.66884755593E+01  0.51100000000E-03 0. -1.
        -11    1    3    3    0    0 -0.18924635792E+02 -0.11221733099E+02  0.17306853401E+02  0.27992790295E+02  0.51100000000E-03 0.  1.
         12    1    3    3    0    0 -0.52881968920E+01 -0.77486522984E+01  0.65840029045E+01  0.11461052877E+02  0.00000000000E+00 0. -1.
</event>
<event>
 7    1  0.2478637E-008  0.4614232E+02  0.7816164E-02  0.1320468E+00
        -11   -1    0    0    0    0  0.00000000000E+00  0.00000000000E+00  0.45593999997E+02  0.45594000000E+02  0.51100000000E-03 0. -1.
         11   -1    0    0    0    0 -0.00000000000E+00 -0.00000000000E+00 -0.45593999997E+02  0.45594000000E+02  0.51100000000E-03 0.  1.
    9900012    2    1    2    0    0  0.35296178609E+02 -0.27887953971E+02 -0.23569645449E+01  0.46142317821E+02  0.10000000546E+02 0.  0.
         12    1    1    2    0    0 -0.35296178609E+02  0.27887953971E+02  0.23569645449E+01  0.45045682179E+02  0.00000000000E+00 0. -1.
         11    1    3    3    0    0 -0.70261458985E-01 -0.65811766981E+00 -0.11111556113E+01  0.12933377724E+01  0.51100000000E-03 0. -1.
        -11    1    3    3    0    0  0.53749495116E+01 -0.23963223947E+01  0.12983615461E+00  0.58863656835E+01  0.51100000000E-03 0.  1.
        -12    1    3    3    0    0  0.29991490557E+02 -0.24833513906E+02 -0.13756450883E+01  0.38962614365E+02  0.00000000000E+00 0.  1.
</event>
<event>
 7    1  0.2478637E-008  0.4614232E+02  0.7816164E-02  0.1320468E+00
        -11   -1    0    0    0    0  0.00000000000E+00  0.00000000000E+00  0.45593999997E+02  0.45594000000E+02  0.51100000000E-03 0.  1.
         11   -1    0    0    0    0 -0.00000000000E+00 -0.00000000000E+00 -0.45593999997E+02  0.45594000000E+02  0.51100000000E-03 0. -1.
    9900012    2    1    2    0    0 -0.28760198141E+02 -0.27603726888E+02  0.20976147967E+02  0.46142317425E+02  0.99999969307E+01 0.  0.
         12    1    1    2    0    0  0.28760198141E+02  0.27603726888E+02 -0.20976147967E+02  0.45045682575E+02  0.00000000000E+00 0. -1.
         11    1    3    3    0    0 -0.28395146902E+01  0.94695973181E-01  0.35618027800E+00  0.28633329626E+01  0.51100000000E-03 0. -1.
        -11    1    3    3    0    0 -0.14283133663E+02 -0.13346916278E+02  0.98077385551E+01  0.21870981167E+02  0.51100000000E-03 0.  1.
         12    1    3    3    0    0 -0.11637549787E+02 -0.14351506583E+02  0.10812229134E+02  0.21408003295E+02  0.00000000000E+00 0. -1.
</event>
<event>
 7    1  0.2478637E-008  0.4614232E+02  0.7816164E-02  0.1320468E+00
        -11   -1    0    0    0    0  0.00000000000E+00  0.00000000000E+00  0.45593999997E+02  0.45594000000E+02  0.51100000000E-03 0.  1.
         11   -1    0    0    0    0 -0.00000000000E+00 -0.00000000000E+00 -0.45593999997E+02  0.45594000000E+02  0.51100000000E-03 0. -1.
    9900012    2    1    2    0    0 -0.35587405068E+02  0.27077156669E+02  0.54293285623E+01  0.46142318505E+02  0.10000006782E+02 0.  0.
         12    1    1    2    0    0  0.35587405068E+02 -0.27077156669E+02 -0.54293285623E+01  0.45045681495E+02  0.00000000000E+00 0. -1.
         11    1    3    3    0    0 -0.19427311999E+02  0.10310924801E+02  0.48669780671E+01  0.22526053749E+02  0.51100000000E-03 0. -1.
        -11    1    3    3    0    0 -0.12209830089E+02  0.11787210950E+02  0.20335117055E+01  0.17092497269E+02  0.51100000000E-03 0.  1.
         12    1    3    3    0    0 -0.39502629804E+01  0.49790209178E+01 -0.14711612103E+01  0.65237674867E+01  0.00000000000E+00 0. -1.
</event>
<event>
 7    1  0.2478637E-008  0.4614232E+02  0.7816164E-02  0.1320468E+00
        -11   -1    0    0    0    0  0.00000000000E+00  0.00000000000E+00  0.45593999997E+02  0.45594000000E+02  0.51100000000E-03 0.  1.
         11   -1    0    0    0    0 -0.00000000000E+00 -0.00000000000E+00 -0.45593999997E+02  0.45594000000E+02  0.51100000000E-03 0. -1.
    9900012    2    1    2    0    0  0.35217858764E+02  0.27717130282E+02 -0.45361500441E+01  0.46142317141E+02  0.99999943437E+01 0.  0.
         12    1    1    2    0    0 -0.35217858764E+02 -0.27717130282E+02  0.45361500441E+01  0.45045682859E+02  0.00000000000E+00 0. -1.
         11    1    3    3    0    0  0.10234084724E+02  0.82445600795E+01  0.29101418103E+01  0.13460244673E+02  0.51100000000E-03 0. -1.
        -11    1    3    3    0    0  0.64393838376E+01  0.61564381483E+01 -0.10346138290E+01  0.89687134484E+01  0.51100000000E-03 0.  1.
        -12    1    3    3    0    0  0.18544390203E+02  0.13316132054E+02 -0.64116780253E+01  0.23713359019E+02  0.00000000000E+00 0.  1.
</event>
<event>
 7    1  0.2478637E-008  0.4614232E+02  0.7816164E-02  0.1320468E+00
        -11   -1    0    0    0    0  0.00000000000E+00  0.00000000000E+00  0.45593999997E+02  0.45594000000E+02  0.51100000000E-03 0.  1.
         11   -1    0    0    0    0 -0.00000000000E+00 -0.00000000000E+00 -0.45593999997E+02  0.45594000000E+02  0.51100000000E-03 0. -1.
    9900012    2    1    2    0    0 -0.12340918648E+02  0.90078438845E+01  0.42375392799E+02  0.46142318305E+02  0.10000004961E+02 0.  0.
         12    1    1    2    0    0  0.12340918648E+02 -0.90078438845E+01 -0.42375392799E+02  0.45045681695E+02  0.00000000000E+00 0. -1.
         11    1    3    3    0    0 -0.17896976994E+01  0.45652595830E+01  0.23813258705E+02  0.24312875259E+02  0.51100000000E-03 0. -1.
        -11    1    3    3    0    0 -0.18224871098E+01  0.42317125340E+00  0.27469717839E+01  0.33236105996E+01  0.51100000000E-03 0.  1.
         12    1    3    3    0    0 -0.87287338390E+01  0.40194130481E+01  0.15815162309E+02  0.18505832447E+02  0.00000000000E+00 0. -1.
</event>
<event>
 7    1  0.2478637E-008  0.4614232E+02  0.7816164E-02  0.1320468E+00
        -11   -1    0    0    0    0  0.00000000000E+00  0.00000000000E+00  0.45593999997E+02  0.45594000000E+02  0.51100000000E-03 0.  1.
         11   -1    0    0    0    0 -0.00000000000E+00 -0.00000000000E+00 -0.45593999997E+02  0.45594000000E+02  0.51100000000E-03 0. -1.
    9900012    2    1    2    0    0 -0.35542904801E+02 -0.14127427440E+02  0.23795615270E+02  0.46142316590E+02  0.99999893234E+01 0.  0.
         12    1    1    2    0    0  0.35542904801E+02  0.14127427440E+02 -0.23795615270E+02  0.45045683410E+02  0.00000000000E+00 0. -1.
         11    1    3    3    0    0 -0.87860687046E+01 -0.28724535061E+01  0.96139678391E+01  0.13336955061E+02  0.51100000000E-03 0.  1.
        -11    1    3    3    0    0 -0.25820561317E+02 -0.97908777553E+01  0.12257951131E+02  0.30212911811E+02  0.51100000000E-03 0. -1.
         12    1    3    3    0    0 -0.93627477942E+00 -0.14640961791E+01  0.19236963004E+01  0.25924497180E+01  0.00000000000E+00 0. -1.
</event>
<event>
 7    1  0.2478637E-008  0.4614232E+02  0.7816164E-02  0.1320468E+00
        -11   -1    0    0    0    0  0.00000000000E+00  0.00000000000E+00  0.45593999997E+02  0.45594000000E+02  0.51100000000E-03 0. -1.
         11   -1    0    0    0    0 -0.00000000000E+00 -0.00000000000E+00 -0.45593999997E+02  0.45594000000E+02  0.51100000000E-03 0.  1.
    9900012    2    1    2    0    0  0.12884023965E+02 -0.22511514543E+02 -0.36828619447E+02  0.46142316844E+02  0.99999916406E+01 0.  0.
         12    1    1    2    0    0 -0.12884023965E+02  0.22511514543E+02  0.36828619447E+02  0.45045683156E+02  0.00000000000E+00 0. -1.
         11    1    3    3    0    0  0.82002604442E+01 -0.19902776273E+02 -0.29844773097E+02  0.36797761565E+02  0.51100000000E-03 0. -1.
        -11    1    3    3    0    0  0.20558430403E+01 -0.21842826616E+01 -0.55798697919E+01  0.63350239548E+01  0.51100000000E-03 0.  1.
         12    1    3    3    0    0  0.26279204808E+01 -0.42445560870E+00 -0.14039765581E+01  0.30095313244E+01  0.00000000000E+00 0. -1.
</event>
<event>
 7    1  0.2478637E-008  0.4614232E+02  0.7816164E-02  0.1320468E+00
        -11   -1    0    0    0    0  0.00000000000E+00  0.00000000000E+00  0.45593999997E+02  0.45594000000E+02  0.51100000000E-03 0.  1.
         11   -1    0    0    0    0 -0.00000000000E+00 -0.00000000000E+00 -0.45593999997E+02  0.45594000000E+02  0.51100000000E-03 0. -1.
    9900012    2    1    2    0    0 -0.27832805248E+02 -0.13242997774E+02  0.32849222898E+02  0.46142317820E+02  0.10000000537E+02 0.  0.
         12    1    1    2    0    0  0.27832805248E+02  0.13242997774E+02 -0.32849222898E+02  0.45045682180E+02  0.00000000000E+00 0. -1.
         11    1    3    3    0    0 -0.47908370003E+01 -0.75008175924E+00  0.33119562521E+01  0.58722905485E+01  0.51100000000E-03 0. -1.
        -11    1    3    3    0    0 -0.37600181171E+01 -0.98461797645E+00  0.11069691520E+01  0.40413598906E+01  0.51100000000E-03 0.  1.
        -12    1    3    3    0    0 -0.19281950131E+02 -0.11508298039E+02  0.28430297494E+02  0.36228667381E+02  0.00000000000E+00 0.  1.
</event>
<event>
 7    1  0.2478637E-008  0.4614231E+02  0.7816164E-02  0.1320468E+00
        -11   -1    0    0    0    0  0.00000000000E+00  0.00000000000E+00  0.45593999997E+02  0.45594000000E+02  0.51100000000E-03 0.  1.
         11   -1    0    0    0    0 -0.00000000000E+00 -0.00000000000E+00 -0.45593999997E+02  0.45594000000E+02  0.51100000000E-03 0. -1.
    9900012    2    1    2    0    0  0.18368401286E+02 -0.24497400875E+02  0.33039264934E+02  0.46142313827E+02  0.99999641224E+01 0.  0.
         12    1    1    2    0    0 -0.18368401286E+02  0.24497400875E+02 -0.33039264934E+02  0.45045686173E+02  0.00000000000E+00 0. -1.
         11    1    3    3    0    0  0.29678145539E+01 -0.29408308555E+01  0.67207283617E+01  0.79135705797E+01  0.51100000000E-03 0. -1.
        -11    1    3    3    0    0  0.16126441213E+02 -0.21497224569E+02  0.24909106464E+02  0.36642275522E+02  0.51100000000E-03 0.  1.
         12    1    3    3    0    0 -0.72585448111E+00 -0.59345450824E-01  0.14094301085E+01  0.15864677245E+01  0.00000000000E+00 0. -1.
</event>
<event>
 7    1  0.2478637E-008  0.4614232E+02  0.7816164E-02  0.1320468E+00
        -11   -1    0    0    0    0  0.00000000000E+00  0.00000000000E+00  0.45593999997E+02  0.45594000000E+02  0.51100000000E-03 0. -1.
         11   -1    0    0    0    0 -0.00000000000E+00 -0.00000000000E+00 -0.45593999997E+02  0.45594000000E+02  0.51100000000E-03 0.  1.
    9900012    2    1    2    0    0  0.36171152061E+02 -0.23053878051E+02 -0.13757907208E+02  0.46142317128E+02  0.99999942283E+01 0.  0.
         12    1    1    2    0    0 -0.36171152061E+02  0.23053878051E+02  0.13757907208E+02  0.45045682872E+02  0.00000000000E+00 0. -1.
         11    1    3    3    0    0  0.37832316027E+01 -0.34964485088E+01  0.59016725645E+00  0.51851992426E+01  0.51100000000E-03 0. -1.
        -11    1    3    3    0    0  0.31635289995E+02 -0.19347999163E+02 -0.12811847548E+02  0.39233660071E+02  0.51100000000E-03 0.  1.
        -12    1    3    3    0    0  0.75263046331E+00 -0.20943037882E+00 -0.15362269170E+01  0.17234578145E+01  0.00000000000E+00 0.  1.
</event>
<event>
 7    1  0.2478637E-008  0.4614232E+02  0.7816164E-02  0.1320468E+00
        -11   -1    0    0    0    0  0.00000000000E+00  0.00000000000E+00  0.45593999997E+02  0.45594000000E+02  0.51100000000E-03 0.  1.
         11   -1    0    0    0    0 -0.00000000000E+00 -0.00000000000E+00 -0.45593999997E+02  0.45594000000E+02  0.51100000000E-03 0. -1.
    9900012    2    1    2    0    0  0.10972291716E+02  0.23662960456E+02  0.36725831349E+02  0.46142316840E+02  0.99999915981E+01 0.  0.
         12    1    1    2    0    0 -0.10972291716E+02 -0.23662960456E+02 -0.36725831349E+02  0.45045683160E+02  0.00000000000E+00 0. -1.
         11    1    3    3    0    0  0.25294321795E+01  0.59126833504E+01  0.15323670345E+02  0.16618445314E+02  0.51100000000E-03 0. -1.
        -11    1    3    3    0    0  0.71071702559E+00  0.71556612617E+01  0.68167462173E+01  0.99084123871E+01  0.51100000000E-03 0.  1.
         12    1    3    3    0    0  0.77321425112E+01  0.10594615844E+02  0.14585414787E+02  0.19615459139E+02  0.00000000000E+00 0. -1.
</event>
<event>
 7    1  0.2478637E-008  0.4614232E+02  0.7816164E-02  0.1320468E+00
        -11   -1    0    0    0    0  0.00000000000E+00  0.00000000000E+00  0.45593999997E+02  0.45594000000E+02  0.51100000000E-03 0. -1.
         11   -1    0    0    0    0 -0.00000000000E+00 -0.00000000000E+00 -0.45593999997E+02  0.45594000000E+02  0.51100000000E-03 0.  1.
    9900012    2    1    2    0    0  0.34521157573E+02 -0.22467465633E+02 -0.18237767941E+02  0.46142317503E+02  0.99999976506E+01 0.  0.
         12    1    1    2    0    0 -0.34521157573E+02  0.22467465633E+02  0.18237767941E+02  0.45045682497E+02  0.00000000000E+00 0. -1.
         11    1    3    3    0    0  0.21075605451E+01 -0.61079530796E+00 -0.23017236869E+01  0.31800651804E+01  0.51100000000E-03 0.  1.
        -11    1    3    3    0    0 -0.42263143733E-01 -0.11101828894E+01 -0.14079965015E+01  0.17935290995E+01  0.51100000000E-03 0. -1.
         12    1    3    3    0    0  0.32455860171E+02 -0.20746487436E+02 -0.14528047752E+02  0.41168723224E+02  0.00000000000E+00 0. -1.
</event>
<event>
 7    1  0.2478637E-008  0.4614232E+02  0.7816164E-02  0.1320468E+00
        -11   -1    0    0    0    0  0.00000000000E+00  0.00000000000E+00  0.45593999997E+02  0.45594000000E+02  0.51100000000E-03 0. -1.
         11   -1    0    0    0    0 -0.00000000000E+00 -0.00000000000E+00 -0.45593999997E+02  0.45594000000E+02  0.51100000000E-03 0.  1.
    9900012    2    1    2    0    0  0.76315439214E+01  0.38059477400E+02 -0.22854963519E+02  0.46142316078E+02  0.99999846486E+01 0.  0.
         12    1    1    2    0    0 -0.76315439214E+01 -0.38059477400E+02  0.22854963519E+02  0.45045683922E+02  0.00000000000E+00 0. -1.
         11    1    3    3    0    0  0.37191647026E+01  0.66406068428E+01 -0.70190898317E+01  0.10353620992E+02  0.51100000000E-03 0. -1.
        -11    1    3    3    0    0  0.24177085957E+01  0.17729463651E+02 -0.11817178316E+02  0.21443528157E+02  0.51100000000E-03 0.  1.
        -12    1    3    3    0    0  0.14946706232E+01  0.13689406906E+02 -0.40186953711E+01  0.14345166928E+02  0.00000000000E+00 0.  1.
</event>
<event>
 7    1  0.2478637E-008  0.4614232E+02  0.7816164E-02  0.1320468E+00
        -11   -1    0    0    0    0  0.00000000000E+00  0.00000000000E+00  0.45593999997E+02  0.45594000000E+02  0.51100000000E-03 0.  1.
         11   -1    0    0    0    0 -0.00000000000E+00 -0.00000000000E+00 -0.45593999997E+02  0.45594000000E+02  0.51100000000E-03 0. -1.
    9900012    2    1    2    0    0 -0.16460648842E+02 -0.30666969995E+02  0.28595411067E+02  0.46142317154E+02  0.99999944656E+01 0.  0.
         12    1    1    2    0    0  0.16460648842E+02  0.30666969995E+02 -0.28595411067E+02  0.45045682846E+02  0.00000000000E+00 0. -1.
         11    1    3    3    0    0 -0.18135450469E+01 -0.51770930004E+01  0.15374225053E+01  0.56969207291E+01  0.51100000000E-03 0. -1.
        -11    1    3    3    0    0 -0.57773325497E+01 -0.14529082092E+02  0.11246902786E+02  0.19260441853E+02  0.51100000000E-03 0.  1.
         12    1    3    3    0    0 -0.88697712450E+01 -0.10960794903E+02  0.15811085775E+02  0.21184954572E+02  0.00000000000E+00 0. -1.
</event>
<event>
 7    1  0.2478637E-008  0.4614232E+02  0.7816164E-02  0.1320468E+00
        -11   -1    0    0    0    0  0.00000000000E+00  0.00000000000E+00  0.45593999997E+02  0.45594000000E+02  0.51100000000E-03 0.  1.
         11   -1    0    0    0    0 -0.00000000000E+00 -0.00000000000E+00 -0.45593999997E+02  0.45594000000E+02  0.51100000000E-03 0. -1.
    9900012    2    1    2    0    0  0.38181326034E+01 -0.18380258136E+02  0.40947545252E+02  0.46142317766E+02  0.10000000049E+02 0.  0.
         12    1    1    2    0    0 -0.38181326034E+01  0.18380258136E+02 -0.40947545252E+02  0.45045682234E+02  0.00000000000E+00 0. -1.
         11    1    3    3    0    0 -0.76283109810E+00 -0.24870150367E+01  0.14389328639E+02  0.14622583015E+02  0.51100000000E-03 0. -1.
        -11    1    3    3    0    0  0.72261078620E+00 -0.38165755590E+01  0.95217572167E+01  0.10283592568E+02  0.51100000000E-03 0.  1.
         12    1    3    3    0    0  0.38583529153E+01 -0.12076667540E+02  0.17036459396E+02  0.21236142184E+02  0.00000000000E+00 0. -1.
</event>
<event>
 7    1  0.2478637E-008  0.4614232E+02  0.7816164E-02  0.1320468E+00
        -11   -1    0    0    0    0  0.00000000000E+00  0.00000000000E+00  0.45593999997E+02  0.45594000000E+02  0.51100000000E-03 0.  1.
         11   -1    0    0    0    0 -0.00000000000E+00 -0.00000000000E+00 -0.45593999997E+02  0.45594000000E+02  0.51100000000E-03 0. -1.
    9900012    2    1    2    0    0 -0.12489129435E+02  0.65900819122E+01  0.42775062017E+02  0.46142318029E+02  0.10000002447E+02 0.  0.
         12    1    1    2    0    0  0.12489129435E+02 -0.65900819122E+01 -0.42775062017E+02  0.45045681971E+02  0.00000000000E+00 0. -1.
         11    1    3    3    0    0 -0.35862649264E+01  0.58699715799E+00  0.34776440004E+01  0.50298975974E+01  0.51100000000E-03 0. -1.
        -11    1    3    3    0    0 -0.16278022446E+01  0.18752182952E+01  0.31565342136E+01  0.40162037180E+01  0.51100000000E-03 0.  1.
         12    1    3    3    0    0 -0.72750622644E+01  0.41278664590E+01  0.36140883803E+02  0.37096216714E+02  0.00000000000E+00 0. -1.
</event>
<event>
 7    1  0.2478637E-008  0.4614232E+02  0.7816164E-02  0.1320468E+00
        -11   -1    0    0    0    0  0.00000000000E+00  0.00000000000E+00  0.45593999997E+02  0.45594000000E+02  0.51100000000E-03 0.  1.
         11   -1    0    0    0    0 -0.00000000000E+00 -0.00000000000E+00 -0.45593999997E+02  0.45594000000E+02  0.51100000000E-03 0. -1.
    9900012    2    1    2    0    0  0.26996726843E+02  0.31368228458E+02  0.17785514018E+02  0.46142317347E+02  0.99999962208E+01 0.  0.
         12    1    1    2    0    0 -0.26996726843E+02 -0.31368228458E+02 -0.17785514018E+02  0.45045682653E+02  0.00000000000E+00 0. -1.
         11    1    3    3    0    0  0.90938384633E+01  0.10212162435E+02  0.13567151861E+01  0.13741427726E+02  0.51100000000E-03 0. -1.
        -11    1    3    3    0    0  0.53897531271E+01  0.54322331448E+01  0.29369376859E+01  0.81965967903E+01  0.51100000000E-03 0.  1.
         12    1    3    3    0    0  0.12513135252E+02  0.15723832878E+02  0.13491861146E+02  0.24204292830E+02  0.00000000000E+00 0. -1.
</event>
<event>
 7    1  0.2478637E-008  0.4614232E+02  0.7816164E-02  0.1320468E+00
        -11   -1    0    0    0    0  0.00000000000E+00  0.00000000000E+00  0.45593999997E+02  0.45594000000E+02  0.51100000000E-03 0.  1.
         11   -1    0    0    0    0 -0.00000000000E+00 -0.00000000000E+00 -0.45593999997E+02  0.45594000000E+02  0.51100000000E-03 0. -1.
    9900012    2    1    2    0    0  0.38251332919E+01 -0.44410211218E+02  0.64973042590E+01  0.46142317990E+02  0.10000002085E+02 0.  0.
         12    1    1    2    0    0 -0.38251332919E+01  0.44410211218E+02 -0.64973042590E+01  0.45045682010E+02  0.00000000000E+00 0. -1.
         11    1    3    3    0    0 -0.21934788376E+00 -0.14391849284E+02  0.41744753974E+01  0.14986650206E+02  0.51100000000E-03 0. -1.
        -11    1    3    3    0    0  0.88311208452E+00 -0.13463722398E+02  0.43590466552E+01  0.14179315773E+02  0.51100000000E-03 0.  1.
         12    1    3    3    0    0  0.31613690912E+01 -0.16554639536E+02 -0.20362177936E+01  0.16976352011E+02  0.00000000000E+00 0. -1.
</event>
<event>
 7    1  0.2478637E-008  0.4614232E+02  0.7816164E-02  0.1320468E+00
        -11   -1    0    0    0    0  0.00000000000E+00  0.00000000000E+00  0.45593999997E+02  0.45594000000E+02  0.51100000000E-03 0.  1.
         11   -1    0    0    0    0 -0.00000000000E+00 -0.00000000000E+00 -0.45593999997E+02  0.45594000000E+02  0.51100000000E-03 0. -1.
    9900012    2    1    2    0    0 -0.34640133559E+02  0.74383023669E+00  0.28785783711E+02  0.46142317851E+02  0.10000000818E+02 0.  0.
         12    1    1    2    0    0  0.34640133559E+02 -0.74383023669E+00 -0.28785783711E+02  0.45045682149E+02  0.00000000000E+00 0. -1.
         11    1    3    3    0    0 -0.12567108757E+02  0.23114713749E+01  0.10863514638E+02  0.16771734346E+02  0.51100000000E-03 0. -1.
        -11    1    3    3    0    0 -0.13757495360E+01 -0.17125959821E+01  0.35409075608E+01  0.41669771296E+01  0.51100000000E-03 0.  1.
         12    1    3    3    0    0 -0.20697275267E+02  0.14495484385E+00  0.14381361512E+02  0.25203606375E+02  0.00000000000E+00 0. -1.
</event>
<event>
 7    1  0.2478637E-008  0.4614232E+02  0.7816164E-02  0.1320468E+00
        -11   -1    0    0    0    0  0.00000000000E+00  0.00000000000E+00  0.45593999997E+02  0.45594000000E+02  0.51100000000E-03 0. -1.
         11   -1    0    0    0    0 -0.00000000000E+00 -0.00000000000E+00 -0.45593999997E+02  0.45594000000E+02  0.51100000000E-03 0.  1.
    9900012    2    1    2    0    0 -0.47386023419E+01  0.42915210074E+02 -0.12843046715E+02  0.46142318112E+02  0.10000003195E+02 0.  0.
         12    1    1    2    0    0  0.47386023419E+01 -0.42915210074E+02  0.12843046715E+02  0.45045681888E+02  0.00000000000E+00 0. -1.
         11    1    3    3    0    0 -0.91461243247E+00  0.26261850526E+02 -0.98794905323E+01  0.28073575519E+02  0.51100000000E-03 0.  1.
        -11    1    3    3    0    0  0.64873108265E+00  0.48643441610E+01 -0.23598538951E+01  0.54453288975E+01  0.51100000000E-03 0. -1.
         12    1    3    3    0    0 -0.44727209921E+01  0.11789015387E+02 -0.60370228708E+00  0.12623413695E+02  0.00000000000E+00 0. -1.
</event>
<event>
 7    1  0.2478637E-008  0.4614232E+02  0.7816164E-02  0.1320468E+00
        -11   -1    0    0    0    0  0.00000000000E+00  0.00000000000E+00  0.45593999997E+02  0.45594000000E+02  0.51100000000E-03 0.  1.
         11   -1    0    0    0    0 -0.00000000000E+00 -0.00000000000E+00 -0.45593999997E+02  0.45594000000E+02  0.51100000000E-03 0. -1.
    9900012    2    1    2    0    0 -0.29980447323E+02  0.26637212259E+02  0.20512076819E+02  0.46142316588E+02  0.99999893065E+01 0.  0.
         12    1    1    2    0    0  0.29980447323E+02 -0.26637212259E+02 -0.20512076819E+02  0.45045683412E+02  0.00000000000E+00 0. -1.
         11    1    3    3    0    0 -0.16337594162E+02  0.13490320416E+02  0.81143090904E+01  0.22688052808E+02  0.51100000000E-03 0. -1.
        -11    1    3    3    0    0  0.15040351809E+00  0.23978499219E+01  0.18514676004E+01  0.30331894109E+01  0.51100000000E-03 0.  1.
        -12    1    3    3    0    0 -0.13793256679E+02  0.10749041921E+02  0.10546300128E+02  0.20421074370E+02  0.00000000000E+00 0.  1.
</event>
<event>
 7    1  0.2478637E-008  0.4614232E+02  0.7816164E-02  0.1320468E+00
        -11   -1    0    0    0    0  0.00000000000E+00  0.00000000000E+00  0.45593999997E+02  0.45594000000E+02  0.51100000000E-03 0. -1.
         11   -1    0    0    0    0 -0.00000000000E+00 -0.00000000000E+00 -0.45593999997E+02  0.45594000000E+02  0.51100000000E-03 0.  1.
    9900012    2    1    2    0    0 -0.18786809707E+02  0.21089719179E+01 -0.40886691072E+02  0.46142317761E+02  0.10000000002E+02 0.  0.
         12    1    1    2    0    0  0.18786809707E+02 -0.21089719179E+01  0.40886691072E+02  0.45045682239E+02  0.00000000000E+00 0. -1.
         11    1    3    3    0    0 -0.85046412953E+00  0.16507108493E+01 -0.57880453423E+01  0.60786186498E+01  0.51100000000E-03 0. -1.
        -11    1    3    3    0    0 -0.10231154275E+02  0.10153672613E+01 -0.26904452690E+02  0.28802032277E+02  0.51100000000E-03 0.  1.
         12    1    3    3    0    0 -0.77051913026E+01 -0.55710619279E+00 -0.81941930403E+01  0.11261666835E+02  0.00000000000E+00 0. -1.
</event>
<event>
 7    1  0.2478637E-008  0.4614232E+02  0.7816164E-02  0.1320468E+00
        -11   -1    0    0    0    0  0.00000000000E+00  0.00000000000E+00  0.45593999997E+02  0.45594000000E+02  0.51100000000E-03 0.  1.
         11   -1    0    0    0    0 -0.00000000000E+00 -0.00000000000E+00 -0.45593999997E+02  0.45594000000E+02  0.51100000000E-03 0. -1.
    9900012    2    1    2    0    0 -0.43194557134E+02  0.12676411274E+02 -0.16284932385E+01  0.46142321417E+02  0.10000033334E+02 0.  0.
         12    1    1    2    0    0  0.43194557134E+02 -0.12676411274E+02  0.16284932385E+01  0.45045678583E+02  0.00000000000E+00 0. -1.
         11    1    3    3    0    0 -0.54173176893E+01  0.12574799853E+01  0.84272596227E+00  0.56248354792E+01  0.51100000000E-03 0. -1.
        -11    1    3    3    0    0 -0.34509312801E+02  0.94352490716E+01 -0.47142045779E+01  0.36085181448E+02  0.51100000000E-03 0.  1.
         12    1    3    3    0    0 -0.32679266439E+01  0.19836822170E+01  0.22429853771E+01  0.44323044897E+01  0.00000000000E+00 0. -1.
</event>
<event>
 7    1  0.2478637E-008  0.4614232E+02  0.7816164E-02  0.1320468E+00
        -11   -1    0    0    0    0  0.00000000000E+00  0.00000000000E+00  0.45593999997E+02  0.45594000000E+02  0.51100000000E-03 0. -1.
         11   -1    0    0    0    0 -0.00000000000E+00 -0.00000000000E+00 -0.45593999997E+02  0.45594000000E+02  0.51100000000E-03 0.  1.
    9900012    2    1    2    0    0  0.37022939310E+02  0.77457321973E+01 -0.24462603126E+02  0.46142319251E+02  0.10000013589E+02 0.  0.
         12    1    1    2    0    0 -0.37022939310E+02 -0.77457321973E+01  0.24462603126E+02  0.45045680749E+02  0.00000000000E+00 0. -1.
         11    1    3    3    0    0  0.15383934088E+02  0.20365633618E+01 -0.76426945145E+01  0.17298086543E+02  0.51100000000E-03 0. -1.
        -11    1    3    3    0    0  0.14442789599E+02  0.22173457144E+01 -0.70681842625E+01  0.16231759684E+02  0.51100000000E-03 0.  1.
         12    1    3    3    0    0  0.71962156225E+01  0.34918231211E+01 -0.97517243491E+01  0.12612473024E+02  0.00000000000E+00 0. -1.
</event>
<event>
 7    1  0.2478637E-008  0.4614232E+02  0.7816164E-02  0.1320468E+00
        -11   -1    0    0    0    0  0.00000000000E+00  0.00000000000E+00  0.45593999997E+02  0.45594000000E+02  0.51100000000E-03 0. -1.
         11   -1    0    0    0    0 -0.00000000000E+00 -0.00000000000E+00 -0.45593999997E+02  0.45594000000E+02  0.51100000000E-03 0.  1.
    9900012    2    1    2    0    0 -0.31117604869E+02  0.14769564533E+02 -0.29028745868E+02  0.46142318121E+02  0.10000003280E+02 0.  0.
         12    1    1    2    0    0  0.31117604869E+02 -0.14769564533E+02  0.29028745868E+02  0.45045681879E+02  0.00000000000E+00 0. -1.
         11    1    3    3    0    0 -0.63529371338E+01  0.34715556687E+01 -0.24074058265E+01  0.76293585616E+01  0.51100000000E-03 0. -1.
        -11    1    3    3    0    0 -0.20069346466E+01  0.25030757353E+01 -0.48401538832E+01  0.58069152470E+01  0.51100000000E-03 0.  1.
        -12    1    3    3    0    0 -0.22757733089E+02  0.87949331286E+01 -0.21781186158E+02  0.32706044312E+02  0.00000000000E+00 0.  1.
</event>
<event>
 7    1  0.2478637E-008  0.4614232E+02  0.7816164E-02  0.1320468E+00
        -11   -1    0    0    0    0  0.00000000000E+00  0.00000000000E+00  0.45593999997E+02  0.45594000000E+02  0.51100000000E-03 0.  1.
         11   -1    0    0    0    0 -0.00000000000E+00 -0.00000000000E+00 -0.45593999997E+02  0.45594000000E+02  0.51100000000E-03 0. -1.
    9900012    2    1    2    0    0 -0.33549850508E+02 -0.30057980518E+02 -0.19700508613E+00  0.46142317932E+02  0.10000001561E+02 0.  0.
         12    1    1    2    0    0  0.33549850508E+02  0.30057980518E+02  0.19700508613E+00  0.45045682068E+02  0.00000000000E+00 0. -1.
         11    1    3    3    0    0 -0.20072072695E+02 -0.22330406392E+02 -0.13186184646E+01  0.30054515582E+02  0.51100000000E-03 0. -1.
        -11    1    3    3    0    0 -0.76008832003E+01 -0.48434064054E+01 -0.13033483912E+01  0.91066310084E+01  0.51100000000E-03 0.  1.
         12    1    3    3    0    0 -0.58768946125E+01 -0.28841677201E+01  0.24249617696E+01  0.69811713421E+01  0.00000000000E+00 0. -1.
</event>
<event>
 7    1  0.2478637E-008  0.4614232E+02  0.7816164E-02  0.1320468E+00
        -11   -1    0    0    0    0  0.00000000000E+00  0.00000000000E+00  0.45593999997E+02  0.45594000000E+02  0.51100000000E-03 0.  1.
         11   -1    0    0    0    0 -0.00000000000E+00 -0.00000000000E+00 -0.45593999997E+02  0.45594000000E+02  0.51100000000E-03 0. -1.
    9900012    2    1    2    0    0  0.11988431745E+02 -0.29515241036E+02  0.31847158969E+02  0.46142317816E+02  0.10000000497E+02 0.  0.
         12    1    1    2    0    0 -0.11988431745E+02  0.29515241036E+02 -0.31847158969E+02  0.45045682184E+02  0.00000000000E+00 0. -1.
         11    1    3    3    0    0  0.83497974365E+01 -0.19417395026E+02  0.16930791235E+02  0.27081470398E+02  0.51100000000E-03 0. -1.
        -11    1    3    3    0    0  0.42062156207E+01 -0.80696314179E+01  0.90764331295E+01  0.12852736661E+02  0.51100000000E-03 0.  1.
         12    1    3    3    0    0 -0.56758131270E+00 -0.20282145914E+01  0.58399346046E+01  0.62081107562E+01  0.00000000000E+00 0. -1.
</event>
<event>
 7    1  0.2478637E-008  0.4614232E+02  0.7816164E-02  0.1320468E+00
        -11   -1    0    0    0    0  0.00000000000E+00  0.00000000000E+00  0.45593999997E+02  0.45594000000E+02  0.51100000000E-03 0.  1.
         11   -1    0    0    0    0 -0.00000000000E+00 -0.00000000000E+00 -0.45593999997E+02  0.45594000000E+02  0.51100000000E-03 0. -1.
    9900012    2    1    2    0    0 -0.13168740969E+01 -0.25333183161E+02  0.37223770968E+02  0.46142318170E+02  0.10000003731E+02 0.  0.
         12    1    1    2    0    0  0.13168740969E+01  0.25333183161E+02 -0.37223770968E+02  0.45045681830E+02  0.00000000000E+00 0. -1.
         11    1    3    3    0    0  0.76167457703E+00 -0.17637523483E+01  0.55959255519E+01  0.59165322235E+01  0.51100000000E-03 0. -1.
        -11    1    3    3    0    0 -0.45928878320E+00 -0.18915448514E+02  0.29039442658E+02  0.34659693721E+02  0.51100000000E-03 0.  1.
        -12    1    3    3    0    0 -0.16192598908E+01 -0.46539822990E+01  0.25884027576E+01  0.55660922261E+01  0.00000000000E+00 0.  1.
</event>
<event>
 7    1  0.2478637E-008  0.4614232E+02  0.7816164E-02  0.1320468E+00
        -11   -1    0    0    0    0  0.00000000000E+00  0.00000000000E+00  0.45593999997E+02  0.45594000000E+02  0.51100000000E-03 0.  1.
         11   -1    0    0    0    0 -0.00000000000E+00 -0.00000000000E+00 -0.45593999997E+02  0.45594000000E+02  0.51100000000E-03 0. -1.
    9900012    2    1    2    0    0 -0.88847991367E+01  0.19556408060E+02  0.39594453550E+02  0.46142317590E+02  0.99999984355E+01 0.  0.
         12    1    1    2    0    0  0.88847991367E+01 -0.19556408060E+02 -0.39594453550E+02  0.45045682410E+02  0.00000000000E+00 0. -1.
         11    1    3    3    0    0 -0.14568694855E+01  0.27298667501E+01  0.12927632962E+02  0.13292792612E+02  0.51100000000E-03 0. -1.
        -11    1    3    3    0    0 -0.38212147949E+01  0.60357487663E+01  0.14662108773E+02  0.16309793978E+02  0.51100000000E-03 0.  1.
         12    1    3    3    0    0 -0.36067148563E+01  0.10790792543E+02  0.12004711816E+02  0.16539731000E+02  0.00000000000E+00 0. -1.
</event>
<event>
 7    1  0.2478637E-008  0.4614232E+02  0.7816164E-02  0.1320468E+00
        -11   -1    0    0    0    0  0.00000000000E+00  0.00000000000E+00  0.45593999997E+02  0.45594000000E+02  0.51100000000E-03 0.  1.
         11   -1    0    0    0    0 -0.00000000000E+00 -0.00000000000E+00 -0.45593999997E+02  0.45594000000E+02  0.51100000000E-03 0. -1.
    9900012    2    1    2    0    0  0.30180999933E+01 -0.44941393914E+02  0.52505099438E+00  0.46142317709E+02  0.99999995277E+01 0.  0.
         12    1    1    2    0    0 -0.30180999933E+01  0.44941393914E+02 -0.52505099438E+00  0.45045682291E+02  0.00000000000E+00 0. -1.
         11    1    3    3    0    0  0.18720266285E+01 -0.36408192778E+01 -0.18445864678E+00  0.40980573403E+01  0.51100000000E-03 0. -1.
        -11    1    3    3    0    0  0.41755423130E+01 -0.15611608986E+02  0.73916913661E+00  0.16177263675E+02  0.51100000000E-03 0.  1.
        -12    1    3    3    0    0 -0.30294689482E+01 -0.25688965650E+02 -0.29659495449E-01  0.25866996694E+02  0.00000000000E+00 0.  1.
</event>
<event>
 7    1  0.2478637E-008  0.4614232E+02  0.7816164E-02  0.1320468E+00
        -11   -1    0    0    0    0  0.00000000000E+00  0.00000000000E+00  0.45593999997E+02  0.45594000000E+02  0.51100000000E-03 0. -1.
         11   -1    0    0    0    0 -0.00000000000E+00 -0.00000000000E+00 -0.45593999997E+02  0.45594000000E+02  0.51100000000E-03 0.  1.
    9900012    2    1    2    0    0  0.40158124422E+02 -0.18681305720E+02 -0.82126400029E+01  0.46142316563E+02  0.99999890711E+01 0.  0.
         12    1    1    2    0    0 -0.40158124422E+02  0.18681305720E+02  0.82126400029E+01  0.45045683437E+02  0.00000000000E+00 0. -1.
         11    1    3    3    0    0  0.88257932770E+01 -0.25621722307E+01 -0.72938299176E-02  0.91901799203E+01  0.51100000000E-03 0. -1.
        -11    1    3    3    0    0  0.12981072408E+02 -0.45355894949E+01 -0.64258294293E+01  0.15177980664E+02  0.51100000000E-03 0.  1.
         12    1    3    3    0    0  0.18351258738E+02 -0.11583543994E+02 -0.17795167437E+01  0.21774155978E+02  0.00000000000E+00 0. -1.
</event>
<event>
 7    1  0.2478637E-008  0.4614232E+02  0.7816164E-02  0.1320468E+00
        -11   -1    0    0    0    0  0.00000000000E+00  0.00000000000E+00  0.45593999997E+02  0.45594000000E+02  0.51100000000E-03 0.  1.
         11   -1    0    0    0    0 -0.00000000000E+00 -0.00000000000E+00 -0.45593999997E+02  0.45594000000E+02  0.51100000000E-03 0. -1.
    9900012    2    1    2    0    0  0.15471414661E+02 -0.37177596369E+02  0.20188490346E+02  0.46142317789E+02  0.10000000252E+02 0.  0.
         12    1    1    2    0    0 -0.15471414661E+02  0.37177596369E+02 -0.20188490346E+02  0.45045682211E+02  0.00000000000E+00 0. -1.
         11    1    3    3    0    0  0.13916123552E+01 -0.19027382279E+01 -0.38712769645E+00  0.23889047334E+01  0.51100000000E-03 0. -1.
        -11    1    3    3    0    0  0.10817624879E+02 -0.30177458540E+02  0.19730095866E+02  0.37642750897E+02  0.51100000000E-03 0.  1.
         12    1    3    3    0    0  0.32621774271E+01 -0.50973996013E+01  0.84552217668E+00  0.61106621583E+01  0.00000000000E+00 0. -1.
</event>
<event>
 7    1  0.2478637E-008  0.4614232E+02  0.7816164E-02  0.1320468E+00
        -11   -1    0    0    0    0  0.00000000000E+00  0.00000000000E+00  0.45593999997E+02  0.45594000000E+02  0.51100000000E-03 0.  1.
         11   -1    0    0    0    0 -0.00000000000E+00 -0.00000000000E+00 -0.45593999997E+02  0.45594000000E+02  0.51100000000E-03 0. -1.
    9900012    2    1    2    0    0  0.37638092948E+02  0.11735370806E+02  0.21789182900E+02  0.46142318074E+02  0.10000002852E+02 0.  0.
         12    1    1    2    0    0 -0.37638092948E+02 -0.11735370806E+02 -0.21789182900E+02  0.45045681926E+02  0.00000000000E+00 0. -1.
         11    1    3    3    0    0  0.20151521116E+02  0.32035123769E+01  0.95229572524E+01  0.22517393498E+02  0.51100000000E-03 0. -1.
        -11    1    3    3    0    0  0.10406896215E+02  0.24279304220E+01  0.50699123607E+01  0.11828032236E+02  0.51100000000E-03 0.  1.
        -12    1    3    3    0    0  0.70796756164E+01  0.61039280074E+01  0.71963132869E+01  0.11796892340E+02  0.00000000000E+00 0.  1.
</event>
<event>
 7    1  0.2478637E-008  0.4614232E+02  0.7816164E-02  0.1320468E+00
        -11   -1    0    0    0    0  0.00000000000E+00  0.00000000000E+00  0.45593999997E+02  0.45594000000E+02  0.51100000000E-03 0.  1.
         11   -1    0    0    0    0 -0.00000000000E+00 -0.00000000000E+00 -0.45593999997E+02  0.45594000000E+02  0.51100000000E-03 0. -1.
    9900012    2    1    2    0    0  0.22045742147E+02  0.13432599609E+02  0.36914280767E+02  0.46142316481E+02  0.99999883303E+01 0.  0.
         12    1    1    2    0    0 -0.22045742147E+02 -0.13432599609E+02 -0.36914280767E+02  0.45045683519E+02  0.00000000000E+00 0. -1.
         11    1    3    3    0    0  0.76947692034E+01  0.26095574305E+00  0.83356681589E+01  0.11347287557E+02  0.51100000000E-03 0. -1.
        -11    1    3    3    0    0  0.27808910356E+01  0.10941594934E+01  0.59277561209E+01  0.66384360236E+01  0.51100000000E-03 0.  1.
         12    1    3    3    0    0  0.11570081908E+02  0.12077484373E+02  0.22650856488E+02  0.28156592900E+02  0.00000000000E+00 0. -1.
</event>
<event>
 7    1  0.2478637E-008  0.4614232E+02  0.7816164E-02  0.1320468E+00
        -11   -1    0    0    0    0  0.00000000000E+00  0.00000000000E+00  0.45593999997E+02  0.45594000000E+02  0.51100000000E-03 0.  1.
         11   -1    0    0    0    0 -0.00000000000E+00 -0.00000000000E+00 -0.45593999997E+02  0.45594000000E+02  0.51100000000E-03 0. -1.
    9900012    2    1    2    0    0 -0.43270971158E+02 -0.11491211642E+02  0.49687622963E+01  0.46142317757E+02  0.99999999667E+01 0.  0.
         12    1    1    2    0    0  0.43270971158E+02  0.11491211642E+02 -0.49687622963E+01  0.45045682243E+02  0.00000000000E+00 0. -1.
         11    1    3    3    0    0 -0.17227495478E+02 -0.18496205480E+01  0.36703583675E+01  0.17710991712E+02  0.51100000000E-03 0. -1.
        -11    1    3    3    0    0 -0.41705635371E+01 -0.32471996621E+01  0.19492530692E+01  0.56336039665E+01  0.51100000000E-03 0.  1.
        -12    1    3    3    0    0 -0.21872912143E+02 -0.63943914318E+01 -0.65084914035E+00  0.22797722079E+02  0.00000000000E+00 0.  1.
</event>
<event>
 7    1  0.2478637E-008  0.4614232E+02  0.7816164E-02  0.1320468E+00
        -11   -1    0    0    0    0  0.00000000000E+00  0.00000000000E+00  0.45593999997E+02  0.45594000000E+02  0.51100000000E-03 0.  1.
         11   -1    0    0    0    0 -0.00000000000E+00 -0.00000000000E+00 -0.45593999997E+02  0.45594000000E+02  0.51100000000E-03 0. -1.
    9900012    2    1    2    0    0  0.28194707412E+02 -0.49383022885E+01  0.34781965330E+02  0.46142317990E+02  0.10000002086E+02 0.  0.
         12    1    1    2    0    0 -0.28194707412E+02  0.49383022885E+01 -0.34781965330E+02  0.45045682010E+02  0.00000000000E+00 0. -1.
         11    1    3    3    0    0  0.76952190767E+01 -0.22203486806E+01  0.68983533004E+01  0.10570412642E+02  0.51100000000E-03 0. -1.
        -11    1    3    3    0    0  0.37393770555E+01  0.10324798549E+01  0.16483130648E+01  0.42149604547E+01  0.51100000000E-03 0.  1.
         12    1    3    3    0    0  0.16760111280E+02 -0.37504334628E+01  0.26235298965E+02  0.31356944893E+02  0.00000000000E+00 0. -1.
</event>
<event>
 7    1  0.2478637E-008  0.4614232E+02  0.7816164E-02  0.1320468E+00
        -11   -1    0    0    0    0  0.00000000000E+00  0.00000000000E+00  0.45593999997E+02  0.45594000000E+02  0.51100000000E-03 0.  1.
         11   -1    0    0    0    0 -0.00000000000E+00 -0.00000000000E+00 -0.45593999997E+02  0.45594000000E+02  0.51100000000E-03 0. -1.
    9900012    2    1    2    0    0 -0.33661797483E+02 -0.40258004760E+01  0.29661251991E+02  0.46142317089E+02  0.99999938673E+01 0.  0.
         12    1    1    2    0    0  0.33661797483E+02  0.40258004760E+01 -0.29661251991E+02  0.45045682911E+02  0.00000000000E+00 0. -1.
         11    1    3    3    0    0 -0.10214945288E+02 -0.27185816623E+01  0.72569332537E+01  0.12821812430E+02  0.51100000000E-03 0. -1.
        -11    1    3    3    0    0 -0.49384165558E+01 -0.19861520502E+01  0.90060628626E+01  0.10461449545E+02  0.51100000000E-03 0.  1.
         12    1    3    3    0    0 -0.18508435640E+02  0.67893323650E+00  0.13398255875E+02  0.22859055113E+02  0.00000000000E+00 0. -1.
</event>
<event>
 7    1  0.2478637E-008  0.4614232E+02  0.7816164E-02  0.1320468E+00
        -11   -1    0    0    0    0  0.00000000000E+00  0.00000000000E+00  0.45593999997E+02  0.45594000000E+02  0.51100000000E-03 0. -1.
         11   -1    0    0    0    0 -0.00000000000E+00 -0.00000000000E+00 -0.45593999997E+02  0.45594000000E+02  0.51100000000E-03 0.  1.
    9900012    2    1    2    0    0 -0.33707187860E+02  0.23200809636E+02 -0.18832452595E+02  0.46142319276E+02  0.10000013813E+02 0.  0.
         12    1    1    2    0    0  0.33707187860E+02 -0.23200809636E+02  0.18832452595E+02  0.45045680724E+02  0.00000000000E+00 0. -1.
         11    1    3    3    0    0 -0.45202926712E+00  0.26512637416E+00 -0.21128871254E-01  0.52447034513E+00  0.51100000000E-03 0. -1.
        -11    1    3    3    0    0 -0.97838381508E+01  0.12424583624E+02 -0.79624072833E+01  0.17705753223E+02  0.51100000000E-03 0.  1.
        -12    1    3    3    0    0 -0.23471320442E+02  0.10511099638E+02 -0.10848916440E+02  0.27912095708E+02  0.00000000000E+00 0.  1.
</event>
<event>
 7    1  0.2478637E-008  0.4614232E+02  0.7816164E-02  0.1320468E+00
        -11   -1    0    0    0    0  0.00000000000E+00  0.00000000000E+00  0.45593999997E+02  0.45594000000E+02  0.51100000000E-03 0. -1.
         11   -1    0    0    0    0 -0.00000000000E+00 -0.00000000000E+00 -0.45593999997E+02  0.45594000000E+02  0.51100000000E-03 0.  1.
    9900012    2    1    2    0    0  0.33971359109E+02  0.20204459798E+02 -0.21606482719E+02  0.46142317289E+02  0.99999956917E+01 0.  0.
         12    1    1    2    0    0 -0.33971359109E+02 -0.20204459798E+02  0.21606482719E+02  0.45045682711E+02  0.00000000000E+00 0. -1.
         11    1    3    3    0    0 -0.25412927993E+00 -0.41335125247E+00 -0.37354224714E+00  0.61235203956E+00  0.51100000000E-03 0. -1.
        -11    1    3    3    0    0  0.14232372667E+02  0.85323915073E+01 -0.60243459255E+01  0.17653749762E+02  0.51100000000E-03 0.  1.
        -12    1    3    3    0    0  0.19993115722E+02  0.12085419543E+02 -0.15208594547E+02  0.27876215487E+02  0.00000000000E+00 0.  1.
</event>
<event>
 7    1  0.2478637E-008  0.4614232E+02  0.7816164E-02  0.1320468E+00
        -11   -1    0    0    0    0  0.00000000000E+00  0.00000000000E+00  0.45593999997E+02  0.45594000000E+02  0.51100000000E-03 0.  1.
         11   -1    0    0    0    0 -0.00000000000E+00 -0.00000000000E+00 -0.45593999997E+02  0.45594000000E+02  0.51100000000E-03 0. -1.
    9900012    2    1    2    0    0 -0.84527611187E+01 -0.13166119495E+01  0.44225908441E+02  0.46142316356E+02  0.99999871873E+01 0.  0.
         12    1    1    2    0    0  0.84527611187E+01  0.13166119495E+01 -0.44225908441E+02  0.45045683644E+02  0.00000000000E+00 0. -1.
         11    1    3    3    0    0 -0.19000998249E+01  0.19085077393E+01  0.11603794487E+02  0.11912213392E+02  0.51100000000E-03 0. -1.
        -11    1    3    3    0    0 -0.64365026682E+01 -0.31369700421E+01  0.33029867307E+02  0.33797060260E+02  0.51100000000E-03 0.  1.
         12    1    3    3    0    0 -0.11615862555E+00 -0.88149646694E-01 -0.40775335330E+00  0.43304270417E+00  0.00000000000E+00 0. -1.
</event>
<event>
 7    1  0.2478637E-008  0.4614232E+02  0.7816164E-02  0.1320468E+00
        -11   -1    0    0    0    0  0.00000000000E+00  0.00000000000E+00  0.45593999997E+02  0.45594000000E+02  0.51100000000E-03 0.  1.
         11   -1    0    0    0    0 -0.00000000000E+00 -0.00000000000E+00 -0.45593999997E+02  0.45594000000E+02  0.51100000000E-03 0. -1.
    9900012    2    1    2    0    0  0.10683577889E+02  0.42642547933E+02 -0.98279034271E+01  0.46142318559E+02  0.10000007275E+02 0.  0.
         12    1    1    2    0    0 -0.10683577889E+02 -0.42642547933E+02  0.98279034271E+01  0.45045681441E+02  0.00000000000E+00 0. -1.
         11    1    3    3    0    0  0.14155873007E+01  0.21230773157E+02 -0.28830212464E+01  0.21472341000E+02  0.51100000000E-03 0. -1.
        -11    1    3    3    0    0  0.29125730046E+01  0.90324935769E+01 -0.10177984827E+01  0.95448905565E+01  0.51100000000E-03 0.  1.
         12    1    3    3    0    0  0.63554175842E+01  0.12379281199E+02 -0.59270836980E+01  0.15125087003E+02  0.00000000000E+00 0. -1.
</event>
<event>
 7    1  0.2478637E-008  0.4614232E+02  0.7816164E-02  0.1320468E+00
        -11   -1    0    0    0    0  0.00000000000E+00  0.00000000000E+00  0.45593999997E+02  0.45594000000E+02  0.51100000000E-03 0. -1.
         11   -1    0    0    0    0 -0.00000000000E+00 -0.00000000000E+00 -0.45593999997E+02  0.45594000000E+02  0.51100000000E-03 0.  1.
    9900012    2    1    2    0    0  0.22586430813E+02 -0.26107284282E+02 -0.28937454854E+02  0.46142318267E+02  0.10000004609E+02 0.  0.
         12    1    1    2    0    0 -0.22586430813E+02  0.26107284282E+02  0.28937454854E+02  0.45045681733E+02  0.00000000000E+00 0. -1.
         11    1    3    3    0    0  0.31683643641E+01 -0.34083971560E+01 -0.87527749431E+01  0.99129598699E+01  0.51100000000E-03 0. -1.
        -11    1    3    3    0    0  0.40610650771E+01 -0.68753703976E+01 -0.44588057070E+01  0.91457047983E+01  0.51100000000E-03 0.  1.
         12    1    3    3    0    0  0.15357001371E+02 -0.15823516728E+02 -0.15725874204E+02  0.27083653598E+02  0.00000000000E+00 0. -1.
</event>
<event>
 7    1  0.2478637E-008  0.4614232E+02  0.7816164E-02  0.1320468E+00
        -11   -1    0    0    0    0  0.00000000000E+00  0.00000000000E+00  0.45593999997E+02  0.45594000000E+02  0.51100000000E-03 0.  1.
         11   -1    0    0    0    0 -0.00000000000E+00 -0.00000000000E+00 -0.45593999997E+02  0.45594000000E+02  0.51100000000E-03 0. -1.
    9900012    2    1    2    0    0  0.92953995549E+01 -0.16001579091E+02  0.41068949153E+02  0.46142316845E+02  0.99999916506E+01 0.  0.
         12    1    1    2    0    0 -0.92953995549E+01  0.16001579091E+02 -0.41068949153E+02  0.45045683155E+02  0.00000000000E+00 0. -1.
         11    1    3    3    0    0  0.51484598708E+01 -0.46225309534E+01  0.98121776250E+01  0.12006384196E+02  0.51100000000E-03 0. -1.
        -11    1    3    3    0    0  0.48163638787E+01 -0.67818188237E+01  0.24969038569E+02  0.26318117617E+02  0.51100000000E-03 0.  1.
        -12    1    3    3    0    0 -0.66942419454E+00 -0.45972293138E+01  0.62877329592E+01  0.78178150325E+01  0.00000000000E+00 0.  1.
</event>
<event>
 7    1  0.2478637E-008  0.4614232E+02  0.7816164E-02  0.1320468E+00
        -11   -1    0    0    0    0  0.00000000000E+00  0.00000000000E+00  0.45593999997E+02  0.45594000000E+02  0.51100000000E-03 0.  1.
         11   -1    0    0    0    0 -0.00000000000E+00 -0.00000000000E+00 -0.45593999997E+02  0.45594000000E+02  0.51100000000E-03 0. -1.
    9900012    2    1    2    0    0 -0.22495479287E+02  0.93825986854E+01  0.37881839142E+02  0.46142317818E+02  0.10000000518E+02 0.  0.
         12    1    1    2    0    0  0.22495479287E+02 -0.93825986854E+01 -0.37881839142E+02  0.45045682182E+02  0.00000000000E+00 0. -1.
         11    1    3    3    0    0 -0.11170994949E+01  0.29968872307E+01  0.35790726233E+01  0.47998964009E+01  0.51100000000E-03 0. -1.
        -11    1    3    3    0    0 -0.73633727507E+00  0.10564678594E+01  0.46264399293E+01  0.48023185651E+01  0.51100000000E-03 0.  1.
        -12    1    3    3    0    0 -0.20642042517E+02  0.53292435954E+01  0.29676326590E+02  0.36540102852E+02  0.00000000000E+00 0.  1.
</event>
<event>
 7    1  0.2478637E-008  0.4614232E+02  0.7816164E-02  0.1320468E+00
        -11   -1    0    0    0    0  0.00000000000E+00  0.00000000000E+00  0.45593999997E+02  0.45594000000E+02  0.51100000000E-03 0.  1.
         11   -1    0    0    0    0 -0.00000000000E+00 -0.00000000000E+00 -0.45593999997E+02  0.45594000000E+02  0.51100000000E-03 0. -1.
    9900012    2    1    2    0    0  0.32685185048E+01 -0.37998956120E+02  0.23968930531E+02  0.46142317518E+02  0.99999977846E+01 0.  0.
         12    1    1    2    0    0 -0.32685185048E+01  0.37998956120E+02 -0.23968930531E+02  0.45045682482E+02  0.00000000000E+00 0. -1.
         11    1    3    3    0    0  0.29641179796E+01 -0.21059548196E+02  0.11780390383E+02  0.24311893457E+02  0.51100000000E-03 0.  1.
        -11    1    3    3    0    0  0.28827918290E+01 -0.13536156214E+02  0.91931063479E+01  0.16614789146E+02  0.51100000000E-03 0. -1.
         12    1    3    3    0    0 -0.25783913038E+01 -0.34032517101E+01  0.29954338002E+01  0.52156349152E+01  0.00000000000E+00 0. -1.
</event>
<event>
 7    1  0.2478637E-008  0.4614232E+02  0.7816164E-02  0.1320468E+00
        -11   -1    0    0    0    0  0.00000000000E+00  0.00000000000E+00  0.45593999997E+02  0.45594000000E+02  0.51100000000E-03 0.  1.
         11   -1    0    0    0    0 -0.00000000000E+00 -0.00000000000E+00 -0.45593999997E+02  0.45594000000E+02  0.51100000000E-03 0. -1.
    9900012    2    1    2    0    0  0.83645040503E+01 -0.41271556213E+02 -0.15993974791E+02  0.46142317523E+02  0.99999978243E+01 0.  0.
         12    1    1    2    0    0 -0.83645040503E+01  0.41271556213E+02  0.15993974791E+02  0.45045682477E+02  0.00000000000E+00 0. -1.
         11    1    3    3    0    0 -0.13289138768E+00 -0.71315367231E+01 -0.48836403001E+01  0.86444444006E+01  0.51100000000E-03 0. -1.
        -11    1    3    3    0    0  0.95578773578E+01 -0.29223811914E+02 -0.10138867175E+02  0.32375620924E+02  0.51100000000E-03 0.  1.
        -12    1    3    3    0    0 -0.10604819198E+01 -0.49162075759E+01 -0.97146731577E+00  0.51222521977E+01  0.00000000000E+00 0.  1.
</event>
<event>
 7    1  0.2478637E-008  0.4614232E+02  0.7816164E-02  0.1320468E+00
        -11   -1    0    0    0    0  0.00000000000E+00  0.00000000000E+00  0.45593999997E+02  0.45594000000E+02  0.51100000000E-03 0.  1.
         11   -1    0    0    0    0 -0.00000000000E+00 -0.00000000000E+00 -0.45593999997E+02  0.45594000000E+02  0.51100000000E-03 0. -1.
    9900012    2    1    2    0    0  0.41393314542E+02  0.29404223650E+01  0.17523153141E+02  0.46142317982E+02  0.10000002012E+02 0.  0.
         12    1    1    2    0    0 -0.41393314542E+02 -0.29404223650E+01 -0.17523153141E+02  0.45045682018E+02  0.00000000000E+00 0. -1.
         11    1    3    3    0    0  0.19455176990E+02  0.34518831367E+01  0.80423791775E+01  0.21333055852E+02  0.51100000000E-03 0.  1.
        -11    1    3    3    0    0  0.14089307398E+00  0.88275247702E+00 -0.20353561852E+00  0.91680412472E+00  0.51100000000E-03 0. -1.
        -12    1    3    3    0    0  0.21797244478E+02 -0.13942132487E+01  0.96843095820E+01  0.23892458005E+02  0.00000000000E+00 0.  1.
</event>
<event>
 7    1  0.2478637E-008  0.4614232E+02  0.7816164E-02  0.1320468E+00
        -11   -1    0    0    0    0  0.00000000000E+00  0.00000000000E+00  0.45593999997E+02  0.45594000000E+02  0.51100000000E-03 0.  1.
         11   -1    0    0    0    0 -0.00000000000E+00 -0.00000000000E+00 -0.45593999997E+02  0.45594000000E+02  0.51100000000E-03 0. -1.
    9900012    2    1    2    0    0  0.38721238665E+02  0.81935239765E+01 -0.21509190323E+02  0.46142318440E+02  0.10000006190E+02 0.  0.
         12    1    1    2    0    0 -0.38721238665E+02 -0.81935239765E+01  0.21509190323E+02  0.45045681560E+02  0.00000000000E+00 0. -1.
         11    1    3    3    0    0  0.50731742365E+00  0.16817174181E+01 -0.85119196830E+00  0.19519406934E+01  0.51100000000E-03 0. -1.
        -11    1    3    3    0    0  0.10330595606E+02  0.26466210364E+01 -0.35019929420E+01  0.11224516173E+02  0.51100000000E-03 0.  1.
         12    1    3    3    0    0  0.27883325635E+02  0.38651855220E+01 -0.17156005413E+02  0.32965861574E+02  0.00000000000E+00 0. -1.
</event>
<event>
 7    1  0.2478637E-008  0.4614232E+02  0.7816164E-02  0.1320468E+00
        -11   -1    0    0    0    0  0.00000000000E+00  0.00000000000E+00  0.45593999997E+02  0.45594000000E+02  0.51100000000E-03 0. -1.
         11   -1    0    0    0    0 -0.00000000000E+00 -0.00000000000E+00 -0.45593999997E+02  0.45594000000E+02  0.51100000000E-03 0.  1.
    9900012    2    1    2    0    0  0.70977551929E+01  0.41152421687E+02 -0.16888266249E+02  0.46142317894E+02  0.10000001216E+02 0.  0.
         12    1    1    2    0    0 -0.70977551929E+01 -0.41152421687E+02  0.16888266249E+02  0.45045682106E+02  0.00000000000E+00 0. -1.
         11    1    3    3    0    0  0.12781064822E+01  0.13353650412E+02 -0.88794231343E+01  0.16087190276E+02  0.51100000000E-03 0. -1.
        -11    1    3    3    0    0  0.30935635485E+01  0.14598233795E+02 -0.71548096421E+01  0.16549014069E+02  0.51100000000E-03 0.  1.
         12    1    3    3    0    0  0.27260851622E+01  0.13200537479E+02 -0.85403347280E+00  0.13506113550E+02  0.00000000000E+00 0. -1.
</event>
<event>
 7    1  0.2478637E-008  0.4614232E+02  0.7816164E-02  0.1320468E+00
        -11   -1    0    0    0    0  0.00000000000E+00  0.00000000000E+00  0.45593999997E+02  0.45594000000E+02  0.51100000000E-03 0.  1.
         11   -1    0    0    0    0 -0.00000000000E+00 -0.00000000000E+00 -0.45593999997E+02  0.45594000000E+02  0.51100000000E-03 0. -1.
    9900012    2    1    2    0    0  0.35225556273E+02 -0.24390009595E+02 -0.13906872845E+02  0.46142317686E+02  0.99999993166E+01 0.  0.
         12    1    1    2    0    0 -0.35225556273E+02  0.24390009595E+02  0.13906872845E+02  0.45045682314E+02  0.00000000000E+00 0. -1.
         11    1    3    3    0    0  0.36420367677E+01 -0.67070572614E+01 -0.11993560317E+01  0.77257688341E+01  0.51100000000E-03 0. -1.
        -11    1    3    3    0    0  0.16235551811E+02 -0.96159263666E+01 -0.75833971876E+01  0.20336349123E+02  0.51100000000E-03 0.  1.
         12    1    3    3    0    0  0.15347967694E+02 -0.80670259670E+01 -0.51241196261E+01  0.18080199729E+02  0.00000000000E+00 0. -1.
</event>
<event>
 7    1  0.2478637E-008  0.4614232E+02  0.7816164E-02  0.1320468E+00
        -11   -1    0    0    0    0  0.00000000000E+00  0.00000000000E+00  0.45593999997E+02  0.45594000000E+02  0.51100000000E-03 0.  1.
         11   -1    0    0    0    0 -0.00000000000E+00 -0.00000000000E+00 -0.45593999997E+02  0.45594000000E+02  0.51100000000E-03 0. -1.
    9900012    2    1    2    0    0  0.23147259129E+02 -0.28631155591E+01  0.38537260215E+02  0.46142318068E+02  0.10000002795E+02 0.  0.
         12    1    1    2    0    0 -0.23147259129E+02  0.28631155591E+01 -0.38537260215E+02  0.45045681932E+02  0.00000000000E+00 0. -1.
         11    1    3    3    0    0  0.34260593548E+01  0.57722172868E+00  0.36453972865E+01  0.50358702589E+01  0.51100000000E-03 0. -1.
        -11    1    3    3    0    0  0.11510978614E+02 -0.97544426521E+00  0.27346578919E+02  0.29686520493E+02  0.51100000000E-03 0.  1.
        -12    1    3    3    0    0  0.82102211601E+01 -0.24648930226E+01  0.75452840098E+01  0.11419927316E+02  0.00000000000E+00 0.  1.
</event>
<event>
 7    1  0.2478637E-008  0.4614232E+02  0.7816164E-02  0.1320468E+00
        -11   -1    0    0    0    0  0.00000000000E+00  0.00000000000E+00  0.45593999997E+02  0.45594000000E+02  0.51100000000E-03 0. -1.
         11   -1    0    0    0    0 -0.00000000000E+00 -0.00000000000E+00 -0.45593999997E+02  0.45594000000E+02  0.51100000000E-03 0.  1.
    9900012    2    1    2    0    0 -0.13715660935E+02 -0.23802710883E+02 -0.35699091395E+02  0.46142317336E+02  0.99999961204E+01 0.  0.
         12    1    1    2    0    0  0.13715660935E+02  0.23802710883E+02  0.35699091395E+02  0.45045682664E+02  0.00000000000E+00 0. -1.
         11    1    3    3    0    0 -0.15312794940E+01 -0.41597241820E+01 -0.98353739283E+01  0.10788081513E+02  0.51100000000E-03 0. -1.
        -11    1    3    3    0    0 -0.70874190652E+01 -0.89832695622E+01 -0.17379374744E+02  0.20808010664E+02  0.51100000000E-03 0.  1.
         12    1    3    3    0    0 -0.50969623754E+01 -0.10659717139E+02 -0.84843427231E+01  0.14546225159E+02  0.00000000000E+00 0. -1.
</event>
<event>
 7    1  0.2478637E-008  0.4614232E+02  0.7816164E-02  0.1320468E+00
        -11   -1    0    0    0    0  0.00000000000E+00  0.00000000000E+00  0.45593999997E+02  0.45594000000E+02  0.51100000000E-03 0.  1.
         11   -1    0    0    0    0 -0.00000000000E+00 -0.00000000000E+00 -0.45593999997E+02  0.45594000000E+02  0.51100000000E-03 0. -1.
    9900012    2    1    2    0    0  0.12724757977E+02 -0.16300448657E+02  0.40018613014E+02  0.46142317859E+02  0.10000000891E+02 0.  0.
         12    1    1    2    0    0 -0.12724757977E+02  0.16300448657E+02 -0.40018613014E+02  0.45045682141E+02  0.00000000000E+00 0. -1.
         11    1    3    3    0    0  0.68719707103E+01 -0.36230694537E+01  0.11209953815E+02  0.13638683166E+02  0.51100000000E-03 0. -1.
        -11    1    3    3    0    0 -0.72904554795E-01 -0.22550468873E+01  0.95914721259E+01  0.98532679523E+01  0.51100000000E-03 0.  1.
        -12    1    3    3    0    0  0.59256918219E+01 -0.10422332316E+02  0.19217187073E+02  0.22650366741E+02  0.00000000000E+00 0.  1.
</event>
<event>
 7    1  0.2478637E-008  0.4614232E+02  0.7816164E-02  0.1320468E+00
        -11   -1    0    0    0    0  0.00000000000E+00  0.00000000000E+00  0.45593999997E+02  0.45594000000E+02  0.51100000000E-03 0.  1.
         11   -1    0    0    0    0 -0.00000000000E+00 -0.00000000000E+00 -0.45593999997E+02  0.45594000000E+02  0.51100000000E-03 0. -1.
    9900012    2    1    2    0    0  0.15641376795E+02 -0.15766170276E+02  0.39190417759E+02  0.46142316108E+02  0.99999849218E+01 0.  0.
         12    1    1    2    0    0 -0.15641376795E+02  0.15766170276E+02 -0.39190417759E+02  0.45045683892E+02  0.00000000000E+00 0. -1.
         11    1    3    3    0    0  0.32303582678E+01 -0.29506729383E+01  0.43959047993E+01  0.62020693799E+01  0.51100000000E-03 0. -1.
        -11    1    3    3    0    0  0.12868912922E+02 -0.94067403703E+01  0.30709662148E+02  0.34600275053E+02  0.51100000000E-03 0.  1.
         12    1    3    3    0    0 -0.45789439500E+00 -0.34087569674E+01  0.40848508114E+01  0.53399716751E+01  0.00000000000E+00 0. -1.
</event>
<event>
 7    1  0.4091630E-008  0.4614232E+02  0.7816164E-02  0.1320468E+00
        -11   -1    0    0    0    0  0.00000000000E+00  0.00000000000E+00  0.45593999997E+02  0.45594000000E+02  0.51100000000E-03 0. -1.
         11   -1    0    0    0    0 -0.00000000000E+00 -0.00000000000E+00 -0.45593999997E+02  0.45594000000E+02  0.51100000000E-03 0.  1.
    9900012    2    1    2    0    0  0.19812163775E+02 -0.14992905903E+02 -0.37573985060E+02  0.46142318585E+02  0.10000007512E+02 0.  0.
         12    1    1    2    0    0 -0.19812163775E+02  0.14992905903E+02  0.37573985060E+02  0.45045681415E+02  0.00000000000E+00 0. -1.
         11    1    3    3    0    0  0.43188902924E+00  0.90501325622E+00 -0.13879426911E+01  0.17122973756E+01  0.51100000000E-03 0. -1.
        -11    1    3    3    0    0  0.25646744037E+01 -0.92445676009E+00 -0.16012609733E+01  0.31616786782E+01  0.51100000000E-03 0.  1.
        -12    1    3    3    0    0  0.16815600342E+02 -0.14973462399E+02 -0.34584781395E+02  0.41268342531E+02  0.00000000000E+00 0.  1.
</event>
<event>
 7    1  0.2478637E-008  0.4614231E+02  0.7816164E-02  0.1320468E+00
        -11   -1    0    0    0    0  0.00000000000E+00  0.00000000000E+00  0.45593999997E+02  0.45594000000E+02  0.51100000000E-03 0.  1.
         11   -1    0    0    0    0 -0.00000000000E+00 -0.00000000000E+00 -0.45593999997E+02  0.45594000000E+02  0.51100000000E-03 0. -1.
    9900012    2    1    2    0    0 -0.19238642002E+02  0.29023638685E+02  0.28576507701E+02  0.46142314957E+02  0.99999744296E+01 0.  0.
         12    1    1    2    0    0  0.19238642002E+02 -0.29023638685E+02 -0.28576507701E+02  0.45045685043E+02  0.00000000000E+00 0. -1.
         11    1    3    3    0    0 -0.30105783074E+01  0.12407817450E+02  0.87078662152E+01  0.15454593166E+02  0.51100000000E-03 0. -1.
        -11    1    3    3    0    0 -0.30785009505E+01  0.47544496659E+01  0.43577774242E+01  0.71464805372E+01  0.51100000000E-03 0.  1.
        -12    1    3    3    0    0 -0.13149562744E+02  0.11861371569E+02  0.15510864062E+02  0.23541241254E+02  0.00000000000E+00 0.  1.
</event>
<event>
 7    1  0.2478637E-008  0.4614232E+02  0.7816164E-02  0.1320468E+00
        -11   -1    0    0    0    0  0.00000000000E+00  0.00000000000E+00  0.45593999997E+02  0.45594000000E+02  0.51100000000E-03 0. -1.
         11   -1    0    0    0    0 -0.00000000000E+00 -0.00000000000E+00 -0.45593999997E+02  0.45594000000E+02  0.51100000000E-03 0.  1.
    9900012    2    1    2    0    0 -0.36905514501E+02 -0.20694976825E+02 -0.15453613158E+02  0.46142320673E+02  0.10000026556E+02 0.  0.
         12    1    1    2    0    0  0.36905514501E+02  0.20694976825E+02  0.15453613158E+02  0.45045679327E+02  0.00000000000E+00 0. -1.
         11    1    3    3    0    0 -0.32431348588E+01 -0.82151053481E+00 -0.29158670663E+01  0.44379144067E+01  0.51100000000E-03 0. -1.
        -11    1    3    3    0    0 -0.40149420837E+01 -0.11488516010E+01 -0.36105497613E+01  0.55204791256E+01  0.51100000000E-03 0.  1.
        -12    1    3    3    0    0 -0.29647437559E+02 -0.18724614689E+02 -0.89271963303E+01  0.36183927141E+02  0.00000000000E+00 0.  1.
</event>
<event>
 7    1  0.2478637E-008  0.4614232E+02  0.7816164E-02  0.1320468E+00
        -11   -1    0    0    0    0  0.00000000000E+00  0.00000000000E+00  0.45593999997E+02  0.45594000000E+02  0.51100000000E-03 0. -1.
         11   -1    0    0    0    0 -0.00000000000E+00 -0.00000000000E+00 -0.45593999997E+02  0.45594000000E+02  0.51100000000E-03 0.  1.
    9900012    2    1    2    0    0 -0.18636812610E+02 -0.39519617486E+02  0.10953655273E+02  0.46142317473E+02  0.99999973731E+01 0.  0.
         12    1    1    2    0    0  0.18636812610E+02  0.39519617486E+02 -0.10953655273E+02  0.45045682527E+02  0.00000000000E+00 0. -1.
         11    1    3    3    0    0 -0.45822453008E+01 -0.13022080840E+02  0.66559771686E+01  0.15325586244E+02  0.51100000000E-03 0. -1.
        -11    1    3    3    0    0 -0.53448801237E+01 -0.12017833832E+02 -0.77145038979E+00  0.13175401683E+02  0.51100000000E-03 0.  1.
         12    1    3    3    0    0 -0.87096871859E+01 -0.14479702814E+02  0.50691284939E+01  0.17641329546E+02  0.00000000000E+00 0. -1.
</event>
<event>
 7    1  0.2478637E-008  0.4614232E+02  0.7816164E-02  0.1320468E+00
        -11   -1    0    0    0    0  0.00000000000E+00  0.00000000000E+00  0.45593999997E+02  0.45594000000E+02  0.51100000000E-03 0. -1.
         11   -1    0    0    0    0 -0.00000000000E+00 -0.00000000000E+00 -0.45593999997E+02  0.45594000000E+02  0.51100000000E-03 0.  1.
    9900012    2    1    2    0    0 -0.92694775071E+01  0.14380351487E+02 -0.41670078007E+02  0.46142321814E+02  0.10000036956E+02 0.  0.
         12    1    1    2    0    0  0.92694775071E+01 -0.14380351487E+02  0.41670078007E+02  0.45045678186E+02  0.00000000000E+00 0. -1.
         11    1    3    3    0    0 -0.17049627152E+01  0.22050065148E+01 -0.45369439328E+01  0.53247358715E+01  0.51100000000E-03 0. -1.
        -11    1    3    3    0    0 -0.38138981304E+01  0.12587527976E+02 -0.29681627051E+02  0.32465222380E+02  0.51100000000E-03 0.  1.
         12    1    3    3    0    0 -0.37506166615E+01 -0.41218300374E+00 -0.74515070225E+01  0.83523635623E+01  0.00000000000E+00 0. -1.
</event>
<event>
 7    1  0.2478637E-008  0.4614232E+02  0.7816164E-02  0.1320468E+00
        -11   -1    0    0    0    0  0.00000000000E+00  0.00000000000E+00  0.45593999997E+02  0.45594000000E+02  0.51100000000E-03 0.  1.
         11   -1    0    0    0    0 -0.00000000000E+00 -0.00000000000E+00 -0.45593999997E+02  0.45594000000E+02  0.51100000000E-03 0. -1.
    9900012    2    1    2    0    0 -0.23479592891E+02 -0.38414361329E+02  0.14693667431E+01  0.46142317884E+02  0.10000001124E+02 0.  0.
         12    1    1    2    0    0  0.23479592891E+02  0.38414361329E+02 -0.14693667431E+01  0.45045682116E+02  0.00000000000E+00 0. -1.
         11    1    3    3    0    0 -0.51574042592E+01 -0.41864884160E+01  0.18715905972E+01  0.69013299860E+01  0.51100000000E-03 0. -1.
        -11    1    3    3    0    0 -0.62243027842E+01 -0.66518431612E+01 -0.56734310838E+00  0.91274772557E+01  0.51100000000E-03 0.  1.
         12    1    3    3    0    0 -0.12097885847E+02 -0.27576029752E+02  0.16511925425E+00  0.30113510643E+02  0.00000000000E+00 0. -1.
</event>
<event>
 7    1  0.2478637E-008  0.4614232E+02  0.7816164E-02  0.1320468E+00
        -11   -1    0    0    0    0  0.00000000000E+00  0.00000000000E+00  0.45593999997E+02  0.45594000000E+02  0.51100000000E-03 0.  1.
         11   -1    0    0    0    0 -0.00000000000E+00 -0.00000000000E+00 -0.45593999997E+02  0.45594000000E+02  0.51100000000E-03 0. -1.
    9900012    2    1    2    0    0  0.42083694850E+02  0.10986892522E+02 -0.11720248681E+02  0.46142318646E+02  0.10000008068E+02 0.  0.
         12    1    1    2    0    0 -0.42083694850E+02 -0.10986892522E+02  0.11720248681E+02  0.45045681354E+02  0.00000000000E+00 0. -1.
         11    1    3    3    0    0  0.78893658830E-01  0.12039978143E+01 -0.71396338431E+00  0.14019910561E+01  0.51100000000E-03 0. -1.
        -11    1    3    3    0    0  0.14096120408E+02  0.53255443566E+01 -0.46793257811E+01  0.15778406867E+02  0.51100000000E-03 0.  1.
         12    1    3    3    0    0  0.27908680783E+02  0.44573503511E+01 -0.63269595157E+01  0.28961920723E+02  0.00000000000E+00 0. -1.
</event>
<event>
 7    1  0.2478637E-008  0.4614231E+02  0.7816164E-02  0.1320468E+00
        -11   -1    0    0    0    0  0.00000000000E+00  0.00000000000E+00  0.45593999997E+02  0.45594000000E+02  0.51100000000E-03 0. -1.
         11   -1    0    0    0    0 -0.00000000000E+00 -0.00000000000E+00 -0.45593999997E+02  0.45594000000E+02  0.51100000000E-03 0.  1.
    9900012    2    1    2    0    0  0.29804446612E+02 -0.32190823444E+02 -0.10225443549E+02  0.46142313774E+02  0.99999636417E+01 0.  0.
         12    1    1    2    0    0 -0.29804446612E+02  0.32190823444E+02  0.10225443549E+02  0.45045686226E+02  0.00000000000E+00 0. -1.
         11    1    3    3    0    0  0.16932079612E+01 -0.52746634590E+00 -0.94429526270E+00  0.20091957968E+01  0.51100000000E-03 0. -1.
        -11    1    3    3    0    0  0.18637141042E+01 -0.65557168066E+01 -0.17806312601E+01  0.70442530517E+01  0.51100000000E-03 0.  1.
        -12    1    3    3    0    0  0.26247524546E+02 -0.25107640291E+02 -0.75005170258E+01  0.37088864925E+02  0.00000000000E+00 0.  1.
</event>
<event>
 7    1  0.2478637E-008  0.4614232E+02  0.7816164E-02  0.1320468E+00
        -11   -1    0    0    0    0  0.00000000000E+00  0.00000000000E+00  0.45593999997E+02  0.45594000000E+02  0.51100000000E-03 0.  1.
         11   -1    0    0    0    0 -0.00000000000E+00 -0.00000000000E+00 -0.45593999997E+02  0.45594000000E+02  0.51100000000E-03 0. -1.
    9900012    2    1    2    0    0  0.33355526444E+02 -0.29570044805E+02 -0.64911393999E+01  0.46142316691E+02  0.99999902376E+01 0.  0.
         12    1    1    2    0    0 -0.33355526444E+02  0.29570044805E+02  0.64911393999E+01  0.45045683309E+02  0.00000000000E+00 0. -1.
         11    1    3    3    0    0  0.31606783545E+01 -0.81274692235E+00 -0.10638469840E+01  0.34325232536E+01  0.51100000000E-03 0. -1.
        -11    1    3    3    0    0  0.24888423499E+02 -0.20699863113E+02 -0.64501205799E+01  0.33007908339E+02  0.51100000000E-03 0.  1.
        -12    1    3    3    0    0  0.53064245904E+01 -0.80574347697E+01  0.10228281640E+01  0.97018850980E+01  0.00000000000E+00 0.  1.
</event>
<event>
 7    1  0.2478637E-008  0.4614232E+02  0.7816164E-02  0.1320468E+00
        -11   -1    0    0    0    0  0.00000000000E+00  0.00000000000E+00  0.45593999997E+02  0.45594000000E+02  0.51100000000E-03 0. -1.
         11   -1    0    0    0    0 -0.00000000000E+00 -0.00000000000E+00 -0.45593999997E+02  0.45594000000E+02  0.51100000000E-03 0.  1.
    9900012    2    1    2    0    0  0.43812765032E+02 -0.94991074381E+01  0.43956842674E+01  0.46142318053E+02  0.10000002660E+02 0.  0.
         12    1    1    2    0    0 -0.43812765032E+02  0.94991074381E+01 -0.43956842674E+01  0.45045681947E+02  0.00000000000E+00 0. -1.
         11    1    3    3    0    0  0.28358997018E+01 -0.14267927022E+01  0.20236182564E+01  0.37647172062E+01  0.51100000000E-03 0. -1.
        -11    1    3    3    0    0  0.30422501615E+02 -0.51841059842E+01 -0.11496295574E+01  0.30882441739E+02  0.51100000000E-03 0.  1.
        -12    1    3    3    0    0  0.10554363716E+02 -0.28882087517E+01  0.35216955684E+01  0.11495159108E+02  0.00000000000E+00 0.  1.
</event>
<event>
 7    1  0.2478637E-008  0.4614232E+02  0.7816164E-02  0.1320468E+00
        -11   -1    0    0    0    0  0.00000000000E+00  0.00000000000E+00  0.45593999997E+02  0.45594000000E+02  0.51100000000E-03 0.  1.
         11   -1    0    0    0    0 -0.00000000000E+00 -0.00000000000E+00 -0.45593999997E+02  0.45594000000E+02  0.51100000000E-03 0. -1.
    9900012    2    1    2    0    0 -0.14815709415E+02  0.34521752790E+01  0.42399183861E+02  0.46142317057E+02  0.99999935838E+01 0.  0.
         12    1    1    2    0    0  0.14815709415E+02 -0.34521752790E+01 -0.42399183861E+02  0.45045682943E+02  0.00000000000E+00 0. -1.
         11    1    3    3    0    0 -0.54702537120E+01 -0.16560190240E+01  0.18237750018E+02  0.19112341580E+02  0.51100000000E-03 0. -1.
        -11    1    3    3    0    0 -0.67997628286E+01  0.73279961028E+00  0.11303471078E+02  0.13211443088E+02  0.51100000000E-03 0.  1.
         12    1    3    3    0    0 -0.25456928748E+01  0.43753946927E+01  0.12857962765E+02  0.13818532389E+02  0.00000000000E+00 0. -1.
</event>
<event>
 7    1  0.2478637E-008  0.4614232E+02  0.7816164E-02  0.1320468E+00
        -11   -1    0    0    0    0  0.00000000000E+00  0.00000000000E+00  0.45593999997E+02  0.45594000000E+02  0.51100000000E-03 0. -1.
         11   -1    0    0    0    0 -0.00000000000E+00 -0.00000000000E+00 -0.45593999997E+02  0.45594000000E+02  0.51100000000E-03 0.  1.
    9900012    2    1    2    0    0 -0.21700087044E+02 -0.26756174406E+02 -0.29022868910E+02  0.46142316896E+02  0.99999921118E+01 0.  0.
         12    1    1    2    0    0  0.21700087044E+02  0.26756174406E+02  0.29022868910E+02  0.45045683104E+02  0.00000000000E+00 0. -1.
         11    1    3    3    0    0 -0.18462623492E+02 -0.21891099836E+02 -0.19035903003E+02  0.34386833550E+02  0.51100000000E-03 0. -1.
        -11    1    3    3    0    0 -0.18089806371E+01 -0.10293062410E+01 -0.28667392212E+01  0.35426086867E+01  0.51100000000E-03 0.  1.
         12    1    3    3    0    0 -0.14284829152E+01 -0.38357683289E+01 -0.71202266855E+01  0.82128746590E+01  0.00000000000E+00 0. -1.
</event>
<event>
 7    1  0.2478637E-008  0.4614232E+02  0.7816164E-02  0.1320468E+00
        -11   -1    0    0    0    0  0.00000000000E+00  0.00000000000E+00  0.45593999997E+02  0.45594000000E+02  0.51100000000E-03 0. -1.
         11   -1    0    0    0    0 -0.00000000000E+00 -0.00000000000E+00 -0.45593999997E+02  0.45594000000E+02  0.51100000000E-03 0.  1.
    9900012    2    1    2    0    0  0.11701385883E+02  0.17064860360E+02 -0.40012267786E+02  0.46142318031E+02  0.10000002461E+02 0.  0.
         12    1    1    2    0    0 -0.11701385883E+02 -0.17064860360E+02  0.40012267786E+02  0.45045681969E+02  0.00000000000E+00 0. -1.
         11    1    3    3    0    0 -0.29100953921E+00  0.17927756232E+01 -0.28224865382E+01  0.33563613492E+01  0.51100000000E-03 0. -1.
        -11    1    3    3    0    0  0.12820991330E+02  0.12956765234E+02 -0.35132985323E+02  0.39580073800E+02  0.51100000000E-03 0.  1.
        -12    1    3    3    0    0 -0.82859590807E+00  0.23153195028E+01 -0.20567959247E+01  0.32058828822E+01  0.00000000000E+00 0.  1.
</event>
<event>
 7    1  0.2478637E-008  0.4614232E+02  0.7816164E-02  0.1320468E+00
        -11   -1    0    0    0    0  0.00000000000E+00  0.00000000000E+00  0.45593999997E+02  0.45594000000E+02  0.51100000000E-03 0.  1.
         11   -1    0    0    0    0 -0.00000000000E+00 -0.00000000000E+00 -0.45593999997E+02  0.45594000000E+02  0.51100000000E-03 0. -1.
    9900012    2    1    2    0    0 -0.43962119324E+02  0.96664906285E+00  0.97729696660E+01  0.46142320053E+02  0.10000020896E+02 0.  0.
         12    1    1    2    0    0  0.43962119324E+02 -0.96664906285E+00 -0.97729696660E+01  0.45045679947E+02  0.00000000000E+00 0. -1.
         11    1    3    3    0    0 -0.10429476610E+02 -0.33667676602E+00 -0.40616625088E+00  0.10442811158E+02  0.51100000000E-03 0. -1.
        -11    1    3    3    0    0 -0.12083607009E+02 -0.21401119320E+01  0.17409168406E+01  0.12394532227E+02  0.51100000000E-03 0.  1.
         12    1    3    3    0    0 -0.21449035704E+02  0.34434377609E+01  0.84382190763E+01  0.23304976667E+02  0.00000000000E+00 0. -1.
</event>
<event>
 7    1  0.2478637E-008  0.4614232E+02  0.7816164E-02  0.1320468E+00
        -11   -1    0    0    0    0  0.00000000000E+00  0.00000000000E+00  0.45593999997E+02  0.45594000000E+02  0.51100000000E-03 0.  1.
         11   -1    0    0    0    0 -0.00000000000E+00 -0.00000000000E+00 -0.45593999997E+02  0.45594000000E+02  0.51100000000E-03 0. -1.
    9900012    2    1    2    0    0 -0.41992293546E+02 -0.45955169129E+01  0.15641036859E+02  0.46142317333E+02  0.99999960952E+01 0.  0.
         12    1    1    2    0    0  0.41992293546E+02  0.45955169129E+01 -0.15641036859E+02  0.45045682667E+02  0.00000000000E+00 0. -1.
         11    1    3    3    0    0 -0.58021297575E+01  0.16947256339E+01  0.28200762075E+01  0.66700550803E+01  0.51100000000E-03 0. -1.
        -11    1    3    3    0    0 -0.14879942867E+02  0.44308778775E+00  0.65244316792E+01  0.16253529940E+02  0.51100000000E-03 0.  1.
         12    1    3    3    0    0 -0.21310220921E+02 -0.67333303346E+01  0.62965289719E+01  0.23218732313E+02  0.00000000000E+00 0. -1.
</event>
<event>
 7    1  0.2478637E-008  0.4614232E+02  0.7816164E-02  0.1320468E+00
        -11   -1    0    0    0    0  0.00000000000E+00  0.00000000000E+00  0.45593999997E+02  0.45594000000E+02  0.51100000000E-03 0.  1.
         11   -1    0    0    0    0 -0.00000000000E+00 -0.00000000000E+00 -0.45593999997E+02  0.45594000000E+02  0.51100000000E-03 0. -1.
    9900012    2    1    2    0    0 -0.40001524932E+02 -0.20582119368E+02  0.23168653545E+01  0.46142317637E+02  0.99999988638E+01 0.  0.
         12    1    1    2    0    0  0.40001524932E+02  0.20582119368E+02 -0.23168653545E+01  0.45045682363E+02  0.00000000000E+00 0. -1.
         11    1    3    3    0    0 -0.28678178626E+01  0.24336383103E+00 -0.25255202547E+00  0.28891846660E+01  0.51100000000E-03 0. -1.
        -11    1    3    3    0    0 -0.20191743060E+02 -0.73368352704E+01  0.21815184798E+01  0.21593857060E+02  0.51100000000E-03 0.  1.
         12    1    3    3    0    0 -0.16941964009E+02 -0.13488647928E+02  0.38789890013E+00  0.21659275911E+02  0.00000000000E+00 0. -1.
</event>
<event>
 7    1  0.2478637E-008  0.4614232E+02  0.7816164E-02  0.1320468E+00
        -11   -1    0    0    0    0  0.00000000000E+00  0.00000000000E+00  0.45593999997E+02  0.45594000000E+02  0.51100000000E-03 0. -1.
         11   -1    0    0    0    0 -0.00000000000E+00 -0.00000000000E+00 -0.45593999997E+02  0.45594000000E+02  0.51100000000E-03 0.  1.
    9900012    2    1    2    0    0  0.17837185399E+02 -0.39968398969E+02  0.10652486893E+02  0.46142316787E+02  0.99999911160E+01 0.  0.
         12    1    1    2    0    0 -0.17837185399E+02  0.39968398969E+02 -0.10652486893E+02  0.45045683213E+02  0.00000000000E+00 0. -1.
         11    1    3    3    0    0  0.27725001375E+01 -0.10765210504E+02  0.37502839951E+01  0.11732056278E+02  0.51100000000E-03 0. -1.
        -11    1    3    3    0    0  0.59618645002E+01 -0.92377858628E+01  0.58223776493E+01  0.12441085070E+02  0.51100000000E-03 0.  1.
        -12    1    3    3    0    0  0.91028207614E+01 -0.19965402602E+02  0.10798252488E+01  0.21969175439E+02  0.00000000000E+00 0.  1.
</event>
<event>
 7    1  0.2478637E-008  0.4614232E+02  0.7816164E-02  0.1320468E+00
        -11   -1    0    0    0    0  0.00000000000E+00  0.00000000000E+00  0.45593999997E+02  0.45594000000E+02  0.51100000000E-03 0.  1.
         11   -1    0    0    0    0 -0.00000000000E+00 -0.00000000000E+00 -0.45593999997E+02  0.45594000000E+02  0.51100000000E-03 0. -1.
    9900012    2    1    2    0    0 -0.34671604695E+02  0.19961003487E+02 -0.20701488000E+02  0.46142318323E+02  0.10000005128E+02 0.  0.
         12    1    1    2    0    0  0.34671604695E+02 -0.19961003487E+02  0.20701488000E+02  0.45045681677E+02  0.00000000000E+00 0. -1.
         11    1    3    3    0    0 -0.13973085407E+02  0.71004653942E+01 -0.93329347425E+01  0.18241913161E+02  0.51100000000E-03 0. -1.
        -11    1    3    3    0    0 -0.18037129268E+02  0.13323124529E+02 -0.85567772441E+01  0.24001294059E+02  0.51100000000E-03 0.  1.
         12    1    3    3    0    0 -0.26613900192E+01 -0.46258643634E+00 -0.28117760131E+01  0.38991111030E+01  0.00000000000E+00 0. -1.
</event>
<event>
 7    1  0.2478637E-008  0.4614232E+02  0.7816164E-02  0.1320468E+00
        -11   -1    0    0    0    0  0.00000000000E+00  0.00000000000E+00  0.45593999997E+02  0.45594000000E+02  0.51100000000E-03 0. -1.
         11   -1    0    0    0    0 -0.00000000000E+00 -0.00000000000E+00 -0.45593999997E+02  0.45594000000E+02  0.51100000000E-03 0.  1.
    9900012    2    1    2    0    0 -0.16939562333E+02  0.36002115823E+01 -0.41583688703E+02  0.46142318059E+02  0.10000002712E+02 0.  0.
         12    1    1    2    0    0  0.16939562333E+02 -0.36002115823E+01  0.41583688703E+02  0.45045681941E+02  0.00000000000E+00 0. -1.
         11    1    3    3    0    0 -0.95052229981E+01 -0.11483118699E+01 -0.16495542616E+02  0.19072776695E+02  0.51100000000E-03 0. -1.
        -11    1    3    3    0    0 -0.98008691289E-01 -0.81500678284E+00 -0.10811374504E+01  0.13574609414E+01  0.51100000000E-03 0.  1.
        -12    1    3    3    0    0 -0.73363306432E+01  0.55635302350E+01 -0.24007008636E+02  0.25712080423E+02  0.00000000000E+00 0.  1.
</event>
<event>
 7    1  0.2478637E-008  0.4614231E+02  0.7816164E-02  0.1320468E+00
        -11   -1    0    0    0    0  0.00000000000E+00  0.00000000000E+00  0.45593999997E+02  0.45594000000E+02  0.51100000000E-03 0. -1.
         11   -1    0    0    0    0 -0.00000000000E+00 -0.00000000000E+00 -0.45593999997E+02  0.45594000000E+02  0.51100000000E-03 0.  1.
    9900012    2    1    2    0    0 -0.35774720065E+02  0.17998951850E+02 -0.20623314622E+02  0.46142312421E+02  0.99999513069E+01 0.  0.
         12    1    1    2    0    0  0.35774720065E+02 -0.17998951850E+02  0.20623314622E+02  0.45045687579E+02  0.00000000000E+00 0. -1.
         11    1    3    3    0    0 -0.20393460014E+02  0.85679917102E+01 -0.83777589534E+01  0.23653552347E+02  0.51100000000E-03 0. -1.
        -11    1    3    3    0    0 -0.65152387577E+01  0.22673579016E+01 -0.73597118595E+01  0.10087348851E+02  0.51100000000E-03 0.  1.
         12    1    3    3    0    0 -0.88660212939E+01  0.71636022383E+01 -0.48858438087E+01  0.12401411224E+02  0.00000000000E+00 0. -1.
</event>
<event>
 7    1  0.2478637E-008  0.4614232E+02  0.7816164E-02  0.1320468E+00
        -11   -1    0    0    0    0  0.00000000000E+00  0.00000000000E+00  0.45593999997E+02  0.45594000000E+02  0.51100000000E-03 0.  1.
         11   -1    0    0    0    0 -0.00000000000E+00 -0.00000000000E+00 -0.45593999997E+02  0.45594000000E+02  0.51100000000E-03 0. -1.
    9900012    2    1    2    0    0 -0.25676491273E+02  0.34530576473E+02  0.13321804867E+02  0.46142318736E+02  0.10000008891E+02 0.  0.
         12    1    1    2    0    0  0.25676491273E+02 -0.34530576473E+02 -0.13321804867E+02  0.45045681264E+02  0.00000000000E+00 0. -1.
         11    1    3    3    0    0 -0.30979180979E+01  0.69315390990E+01  0.40502695066E+00  0.76031163291E+01  0.51100000000E-03 0. -1.
        -11    1    3    3    0    0 -0.77284477686E+01  0.11572912724E+02  0.83152897629E+01  0.16211269473E+02  0.51100000000E-03 0.  1.
        -12    1    3    3    0    0 -0.14850125407E+02  0.16026124650E+02  0.46014881531E+01  0.22327932934E+02  0.00000000000E+00 0.  1.
</event>
<event>
 7    1  0.2478637E-008  0.4614232E+02  0.7816164E-02  0.1320468E+00
        -11   -1    0    0    0    0  0.00000000000E+00  0.00000000000E+00  0.45593999997E+02  0.45594000000E+02  0.51100000000E-03 0.  1.
         11   -1    0    0    0    0 -0.00000000000E+00 -0.00000000000E+00 -0.45593999997E+02  0.45594000000E+02  0.51100000000E-03 0. -1.
    9900012    2    1    2    0    0  0.37510885180E+02 -0.16637476832E+02 -0.18580670589E+02  0.46142318055E+02  0.10000002683E+02 0.  0.
         12    1    1    2    0    0 -0.37510885180E+02  0.16637476832E+02  0.18580670589E+02  0.45045681945E+02  0.00000000000E+00 0. -1.
         11    1    3    3    0    0  0.21160283065E+02 -0.12031412830E+02 -0.89178187164E+01  0.25923733624E+02  0.51100000000E-03 0.  1.
        -11    1    3    3    0    0  0.16255219636E+02 -0.49193209409E+01 -0.10032157601E+02  0.19725011288E+02  0.51100000000E-03 0. -1.
        -12    1    3    3    0    0  0.95382479485E-01  0.31325693891E+00  0.36930572835E+00  0.49357314368E+00  0.00000000000E+00 0.  1.
</event>
<event>
 7    1  0.2478637E-008  0.4614231E+02  0.7816164E-02  0.1320468E+00
        -11   -1    0    0    0    0  0.00000000000E+00  0.00000000000E+00  0.45593999997E+02  0.45594000000E+02  0.51100000000E-03 0.  1.
         11   -1    0    0    0    0 -0.00000000000E+00 -0.00000000000E+00 -0.45593999997E+02  0.45594000000E+02  0.51100000000E-03 0. -1.
    9900012    2    1    2    0    0 -0.13282184034E+02 -0.37471280548E+02  0.21180191081E+02  0.46142314604E+02  0.99999712091E+01 0.  0.
         12    1    1    2    0    0  0.13282184034E+02  0.37471280548E+02 -0.21180191081E+02  0.45045685396E+02  0.00000000000E+00 0. -1.
         11    1    3    3    0    0 -0.14816913502E+00 -0.21565613428E+01  0.15089318868E+00  0.21669056125E+01  0.51100000000E-03 0. -1.
        -11    1    3    3    0    0 -0.72497855815E+01 -0.88003507802E+01  0.73485085012E+01  0.13564886372E+02  0.51100000000E-03 0.  1.
         12    1    3    3    0    0 -0.58842293172E+01 -0.26514368425E+02  0.13680789391E+02  0.30410522619E+02  0.00000000000E+00 0. -1.
</event>
<event>
 7    1  0.2478637E-008  0.4614232E+02  0.7816164E-02  0.1320468E+00
        -11   -1    0    0    0    0  0.00000000000E+00  0.00000000000E+00  0.45593999997E+02  0.45594000000E+02  0.51100000000E-03 0.  1.
         11   -1    0    0    0    0 -0.00000000000E+00 -0.00000000000E+00 -0.45593999997E+02  0.45594000000E+02  0.51100000000E-03 0. -1.
    9900012    2    1    2    0    0 -0.39605404576E+02  0.19872631867E+02 -0.80996238211E+01  0.46142317910E+02  0.10000001358E+02 0.  0.
         12    1    1    2    0    0  0.39605404576E+02 -0.19872631867E+02  0.80996238211E+01  0.45045682090E+02  0.00000000000E+00 0. -1.
         11    1    3    3    0    0 -0.16521429810E+02  0.40063492073E+01 -0.28324121749E+01  0.17234588360E+02  0.51100000000E-03 0. -1.
        -11    1    3    3    0    0 -0.11777631446E+02  0.57921854380E+01 -0.94105530598E+00  0.13158556151E+02  0.51100000000E-03 0.  1.
         12    1    3    3    0    0 -0.11306343320E+02  0.10074097221E+02 -0.43261563403E+01  0.15749173399E+02  0.00000000000E+00 0. -1.
</event>
<event>
 7    1  0.2478637E-008  0.4614232E+02  0.7816164E-02  0.1320468E+00
        -11   -1    0    0    0    0  0.00000000000E+00  0.00000000000E+00  0.45593999997E+02  0.45594000000E+02  0.51100000000E-03 0.  1.
         11   -1    0    0    0    0 -0.00000000000E+00 -0.00000000000E+00 -0.45593999997E+02  0.45594000000E+02  0.51100000000E-03 0. -1.
    9900012    2    1    2    0    0 -0.27231264624E+02 -0.35877174524E+02 -0.63246450163E+00  0.46142318340E+02  0.10000005281E+02 0.  0.
         12    1    1    2    0    0  0.27231264624E+02  0.35877174524E+02  0.63246450163E+00  0.45045681660E+02  0.00000000000E+00 0. -1.
         11    1    3    3    0    0 -0.15349459451E+02 -0.25959129898E+02 -0.85904188798E+00  0.30169857204E+02  0.51100000000E-03 0. -1.
        -11    1    3    3    0    0 -0.52781182542E+01 -0.44039709759E+01  0.20600006866E+01  0.71761476958E+01  0.51100000000E-03 0.  1.
        -12    1    3    3    0    0 -0.66036869189E+01 -0.55140736502E+01 -0.18334233002E+01  0.87963134404E+01  0.00000000000E+00 0.  1.
</event>
<event>
 7    1  0.2478637E-008  0.4614232E+02  0.7816164E-02  0.1320468E+00
        -11   -1    0    0    0    0  0.00000000000E+00  0.00000000000E+00  0.45593999997E+02  0.45594000000E+02  0.51100000000E-03 0.  1.
         11   -1    0    0    0    0 -0.00000000000E+00 -0.00000000000E+00 -0.45593999997E+02  0.45594000000E+02  0.51100000000E-03 0. -1.
    9900012    2    1    2    0    0  0.41771610654E+02  0.12414687042E+02  0.11407083204E+02  0.46142318095E+02  0.10000003049E+02 0.  0.
         12    1    1    2    0    0 -0.41771610654E+02 -0.12414687042E+02 -0.11407083204E+02  0.45045681905E+02  0.00000000000E+00 0. -1.
         11    1    3    3    0    0  0.38458496291E+01  0.26819662066E+01 -0.44402247616E+00  0.47096346273E+01  0.51100000000E-03 0. -1.
        -11    1    3    3    0    0  0.43894481549E+01  0.30412196153E+01  0.34375821853E+00  0.53511159422E+01  0.51100000000E-03 0.  1.
        -12    1    3    3    0    0  0.33536312870E+02  0.66915012205E+01  0.11507347461E+02  0.36081567526E+02  0.00000000000E+00 0.  1.
</event>
<event>
 7    1  0.2478637E-008  0.4614232E+02  0.7816164E-02  0.1320468E+00
        -11   -1    0    0    0    0  0.00000000000E+00  0.00000000000E+00  0.45593999997E+02  0.45594000000E+02  0.51100000000E-03 0.  1.
         11   -1    0    0    0    0 -0.00000000000E+00 -0.00000000000E+00 -0.45593999997E+02  0.45594000000E+02  0.51100000000E-03 0. -1.
    9900012    2    1    2    0    0 -0.43674777373E+02 -0.91250459010E+01 -0.61936162502E+01  0.46142317371E+02  0.99999964402E+01 0.  0.
         12    1    1    2    0    0  0.43674777373E+02  0.91250459010E+01  0.61936162502E+01  0.45045682629E+02  0.00000000000E+00 0. -1.
         11    1    3    3    0    0 -0.20515356276E+02 -0.10663057446E+01 -0.13541604083E+01  0.20587632252E+02  0.51100000000E-03 0.  1.
        -11    1    3    3    0    0 -0.20971447271E+02 -0.79545816389E+01 -0.28759374026E+01  0.22613004796E+02  0.51100000000E-03 0. -1.
        -12    1    3    3    0    0 -0.21879738259E+01 -0.10415851750E+00 -0.19635184393E+01  0.29416803228E+01  0.00000000000E+00 0.  1.
</event>
<event>
 7    1  0.2478637E-008  0.4614232E+02  0.7816164E-02  0.1320468E+00
        -11   -1    0    0    0    0  0.00000000000E+00  0.00000000000E+00  0.45593999997E+02  0.45594000000E+02  0.51100000000E-03 0.  1.
         11   -1    0    0    0    0 -0.00000000000E+00 -0.00000000000E+00 -0.45593999997E+02  0.45594000000E+02  0.51100000000E-03 0. -1.
    9900012    2    1    2    0    0 -0.37040211844E+02 -0.82239922232E+01  0.24279665286E+02  0.46142317766E+02  0.10000000045E+02 0.  0.
         12    1    1    2    0    0  0.37040211844E+02  0.82239922232E+01 -0.24279665286E+02  0.45045682234E+02  0.00000000000E+00 0. -1.
         11    1    3    3    0    0 -0.34578750790E+01  0.14202545388E+00  0.10959093066E+01  0.36301637375E+01  0.51100000000E-03 0. -1.
        -11    1    3    3    0    0 -0.26483008391E+02 -0.88304211134E+01  0.15081950046E+02  0.31729974597E+02  0.51100000000E-03 0.  1.
         12    1    3    3    0    0 -0.70993283738E+01  0.46440343632E+00  0.81018059332E+01  0.10782179431E+02  0.00000000000E+00 0. -1.
</event>
<event>
 7    1  0.2478637E-008  0.4614232E+02  0.7816164E-02  0.1320468E+00
        -11   -1    0    0    0    0  0.00000000000E+00  0.00000000000E+00  0.45593999997E+02  0.45594000000E+02  0.51100000000E-03 0.  1.
         11   -1    0    0    0    0 -0.00000000000E+00 -0.00000000000E+00 -0.45593999997E+02  0.45594000000E+02  0.51100000000E-03 0. -1.
    9900012    2    1    2    0    0  0.25397233375E+01  0.79403997199E+01  0.44267520603E+02  0.46142317380E+02  0.99999965256E+01 0.  0.
         12    1    1    2    0    0 -0.25397233375E+01 -0.79403997199E+01 -0.44267520603E+02  0.45045682620E+02  0.00000000000E+00 0. -1.
         11    1    3    3    0    0 -0.37435241009E+01  0.38602077149E+01  0.21702883693E+02  0.22359122012E+02  0.51100000000E-03 0. -1.
        -11    1    3    3    0    0  0.39361421525E+01  0.22873010346E+01  0.14253126192E+02  0.14962505391E+02  0.51100000000E-03 0.  1.
         12    1    3    3    0    0  0.23471052859E+01  0.17928909703E+01  0.83115107182E+01  0.88206899771E+01  0.00000000000E+00 0. -1.
</event>
<event>
 7    1  0.2478637E-008  0.4614232E+02  0.7816164E-02  0.1320468E+00
        -11   -1    0    0    0    0  0.00000000000E+00  0.00000000000E+00  0.45593999997E+02  0.45594000000E+02  0.51100000000E-03 0. -1.
         11   -1    0    0    0    0 -0.00000000000E+00 -0.00000000000E+00 -0.45593999997E+02  0.45594000000E+02  0.51100000000E-03 0.  1.
    9900012    2    1    2    0    0  0.38546619286E+02  0.20361448077E+02  0.11343860710E+02  0.46142316500E+02  0.99999884975E+01 0.  0.
         12    1    1    2    0    0 -0.38546619286E+02 -0.20361448077E+02 -0.11343860710E+02  0.45045683500E+02  0.00000000000E+00 0. -1.
         11    1    3    3    0    0  0.52580047053E+01  0.32351441042E+01  0.32057633759E+00  0.61818719095E+01  0.51100000000E-03 0. -1.
        -11    1    3    3    0    0  0.29699073631E+02  0.17883661042E+02  0.92217526346E+01  0.35873402803E+02  0.51100000000E-03 0.  1.
         12    1    3    3    0    0  0.35895409503E+01 -0.75735706904E+00  0.18015317380E+01  0.40870417868E+01  0.00000000000E+00 0. -1.
</event>
<event>
 7    1  0.2478637E-008  0.4614232E+02  0.7816164E-02  0.1320468E+00
        -11   -1    0    0    0    0  0.00000000000E+00  0.00000000000E+00  0.45593999997E+02  0.45594000000E+02  0.51100000000E-03 0.  1.
         11   -1    0    0    0    0 -0.00000000000E+00 -0.00000000000E+00 -0.45593999997E+02  0.45594000000E+02  0.51100000000E-03 0. -1.
    9900012    2    1    2    0    0 -0.39911602740E+01 -0.31430696110E+01  0.44758297624E+02  0.46142318152E+02  0.10000003568E+02 0.  0.
         12    1    1    2    0    0  0.39911602740E+01  0.31430696110E+01 -0.44758297624E+02  0.45045681848E+02  0.00000000000E+00 0. -1.
         11    1    3    3    0    0 -0.30114755928E+01 -0.59696463439E+00  0.58135127918E+01  0.65743656167E+01  0.51100000000E-03 0. -1.
        -11    1    3    3    0    0 -0.31833657819E+01  0.33533807581E+00  0.14033397833E+02  0.14393836332E+02  0.51100000000E-03 0.  1.
         12    1    3    3    0    0  0.22036811007E+01 -0.28814430525E+01  0.24911386999E+02  0.25174116204E+02  0.00000000000E+00 0. -1.
</event>
<event>
 7    1  0.2478637E-008  0.4614232E+02  0.7816164E-02  0.1320468E+00
        -11   -1    0    0    0    0  0.00000000000E+00  0.00000000000E+00  0.45593999997E+02  0.45594000000E+02  0.51100000000E-03 0.  1.
         11   -1    0    0    0    0 -0.00000000000E+00 -0.00000000000E+00 -0.45593999997E+02  0.45594000000E+02  0.51100000000E-03 0. -1.
    9900012    2    1    2    0    0  0.37008946242E+02  0.22775139445E+02  0.11863580882E+02  0.46142316189E+02  0.99999856650E+01 0.  0.
         12    1    1    2    0    0 -0.37008946242E+02 -0.22775139445E+02 -0.11863580882E+02  0.45045683811E+02  0.00000000000E+00 0. -1.
         11    1    3    3    0    0  0.76494734348E+01  0.65323767841E+01  0.30943891810E+01  0.10524335368E+02  0.51100000000E-03 0. -1.
        -11    1    3    3    0    0  0.11908925379E+01  0.14930926978E+01  0.26038870384E+01  0.32292071490E+01  0.51100000000E-03 0.  1.
         12    1    3    3    0    0  0.28168580269E+02  0.14749669963E+02  0.61653046623E+01  0.32388773672E+02  0.00000000000E+00 0. -1.
</event>
<event>
 7    1  0.2478637E-008  0.4614232E+02  0.7816164E-02  0.1320468E+00
        -11   -1    0    0    0    0  0.00000000000E+00  0.00000000000E+00  0.45593999997E+02  0.45594000000E+02  0.51100000000E-03 0.  1.
         11   -1    0    0    0    0 -0.00000000000E+00 -0.00000000000E+00 -0.45593999997E+02  0.45594000000E+02  0.51100000000E-03 0. -1.
    9900012    2    1    2    0    0  0.26066111626E+02  0.20532647270E+02  0.30464433997E+02  0.46142317432E+02  0.99999970013E+01 0.  0.
         12    1    1    2    0    0 -0.26066111626E+02 -0.20532647270E+02 -0.30464433997E+02  0.45045682568E+02  0.00000000000E+00 0. -1.
         11    1    3    3    0    0  0.92340923238E+01  0.71014038216E+01  0.76680482569E+01  0.13946231090E+02  0.51100000000E-03 0. -1.
        -11    1    3    3    0    0  0.29168702153E+01  0.24020568118E+00  0.83735066548E+00  0.30441726331E+01  0.51100000000E-03 0.  1.
        -12    1    3    3    0    0  0.13915149087E+02  0.13191037767E+02  0.21959035075E+02  0.29151913709E+02  0.00000000000E+00 0.  1.
</event>
<event>
 7    1  0.2478637E-008  0.4614232E+02  0.7816164E-02  0.1320468E+00
        -11   -1    0    0    0    0  0.00000000000E+00  0.00000000000E+00  0.45593999997E+02  0.45594000000E+02  0.51100000000E-03 0.  1.
         11   -1    0    0    0    0 -0.00000000000E+00 -0.00000000000E+00 -0.45593999997E+02  0.45594000000E+02  0.51100000000E-03 0. -1.
    9900012    2    1    2    0    0  0.44239646266E+02  0.82068329102E+01  0.21482709708E+01  0.46142317895E+02  0.10000001221E+02 0.  0.
         12    1    1    2    0    0 -0.44239646266E+02 -0.82068329102E+01 -0.21482709708E+01  0.45045682105E+02  0.00000000000E+00 0. -1.
         11    1    3    3    0    0  0.11157347441E+01  0.71527614211E+00 -0.13628382832E+01  0.19010030052E+01  0.51100000000E-03 0. -1.
        -11    1    3    3    0    0  0.22365377248E+02  0.61485048381E+01  0.33717031797E+01  0.23438911958E+02  0.51100000000E-03 0.  1.
         12    1    3    3    0    0  0.20758534273E+02  0.13430519301E+01  0.13940607422E+00  0.20802402931E+02  0.00000000000E+00 0. -1.
</event>
<event>
 7    1  0.2478637E-008  0.4614232E+02  0.7816164E-02  0.1320468E+00
        -11   -1    0    0    0    0  0.00000000000E+00  0.00000000000E+00  0.45593999997E+02  0.45594000000E+02  0.51100000000E-03 0.  1.
         11   -1    0    0    0    0 -0.00000000000E+00 -0.00000000000E+00 -0.45593999997E+02  0.45594000000E+02  0.51100000000E-03 0. -1.
    9900012    2    1    2    0    0 -0.33007879529E+02 -0.29999408856E+02  0.62951426070E+01  0.46142318041E+02  0.10000002556E+02 0.  0.
         12    1    1    2    0    0  0.33007879529E+02  0.29999408856E+02 -0.62951426070E+01  0.45045681959E+02  0.00000000000E+00 0. -1.
         11    1    3    3    0    0 -0.19689232216E+02 -0.15188202091E+02 -0.31611315203E+00  0.24868600198E+02  0.51100000000E-03 0.  1.
        -11    1    3    3    0    0 -0.19754844042E+01 -0.34040883893E+01  0.15280241089E+00  0.39387441185E+01  0.51100000000E-03 0. -1.
        -12    1    3    3    0    0 -0.11343162909E+02 -0.11407118375E+02  0.64584533481E+01  0.17334973725E+02  0.00000000000E+00 0.  1.
</event>
<event>
 7    1  0.2478637E-008  0.4614232E+02  0.7816164E-02  0.1320468E+00
        -11   -1    0    0    0    0  0.00000000000E+00  0.00000000000E+00  0.45593999997E+02  0.45594000000E+02  0.51100000000E-03 0. -1.
         11   -1    0    0    0    0 -0.00000000000E+00 -0.00000000000E+00 -0.45593999997E+02  0.45594000000E+02  0.51100000000E-03 0.  1.
    9900012    2    1    2    0    0  0.33063588832E+02 -0.14439795023E+02 -0.26970446524E+02  0.46142316827E+02  0.99999914860E+01 0.  0.
         12    1    1    2    0    0 -0.33063588832E+02  0.14439795023E+02  0.26970446524E+02  0.45045683173E+02  0.00000000000E+00 0. -1.
         11    1    3    3    0    0  0.12439148630E+02 -0.18814758860E+01 -0.78587838389E+01  0.14833504435E+02  0.51100000000E-03 0. -1.
        -11    1    3    3    0    0  0.11732204125E+02 -0.38404916247E+01 -0.96751650557E+01  0.15684476678E+02  0.51100000000E-03 0.  1.
         12    1    3    3    0    0  0.88922360775E+01 -0.87178275126E+01 -0.94364976293E+01  0.15624335714E+02  0.00000000000E+00 0. -1.
</event>
<event>
 7    1  0.2478637E-008  0.4614232E+02  0.7816164E-02  0.1320468E+00
        -11   -1    0    0    0    0  0.00000000000E+00  0.00000000000E+00  0.45593999997E+02  0.45594000000E+02  0.51100000000E-03 0.  1.
         11   -1    0    0    0    0 -0.00000000000E+00 -0.00000000000E+00 -0.45593999997E+02  0.45594000000E+02  0.51100000000E-03 0. -1.
    9900012    2    1    2    0    0 -0.26687053135E+02 -0.58148634223E+01  0.35820412565E+02  0.46142318764E+02  0.10000009146E+02 0.  0.
         12    1    1    2    0    0  0.26687053135E+02  0.58148634223E+01 -0.35820412565E+02  0.45045681236E+02  0.00000000000E+00 0. -1.
         11    1    3    3    0    0 -0.12585417353E+01 -0.19051215164E+01  0.56318802833E+01  0.60771285224E+01  0.51100000000E-03 0. -1.
        -11    1    3    3    0    0 -0.11544005442E+02 -0.97386673261E+00  0.17739035387E+02  0.21186926506E+02  0.51100000000E-03 0.  1.
         12    1    3    3    0    0 -0.13884505958E+02 -0.29358751732E+01  0.12449496895E+02  0.18878263735E+02  0.00000000000E+00 0. -1.
</event>
<event>
 7    1  0.2478637E-008  0.4614232E+02  0.7816164E-02  0.1320468E+00
        -11   -1    0    0    0    0  0.00000000000E+00  0.00000000000E+00  0.45593999997E+02  0.45594000000E+02  0.51100000000E-03 0.  1.
         11   -1    0    0    0    0 -0.00000000000E+00 -0.00000000000E+00 -0.45593999997E+02  0.45594000000E+02  0.51100000000E-03 0. -1.
    9900012    2    1    2    0    0 -0.25909441137E+01 -0.28465563258E+02  0.34815401728E+02  0.46142317849E+02  0.10000000801E+02 0.  0.
         12    1    1    2    0    0  0.25909441137E+01  0.28465563258E+02 -0.34815401728E+02  0.45045682151E+02  0.00000000000E+00 0. -1.
         11    1    3    3    0    0 -0.53700533003E+01 -0.13362612878E+02  0.19197231841E+02  0.23998554248E+02  0.51100000000E-03 0. -1.
        -11    1    3    3    0    0 -0.73316948903E+00 -0.34019486243E+01  0.35621902786E+01  0.49799590143E+01  0.51100000000E-03 0.  1.
        -12    1    3    3    0    0  0.35122786756E+01 -0.11701001755E+02  0.12055979608E+02  0.17163804587E+02  0.00000000000E+00 0.  1.
</event>
<event>
 7    1  0.2478637E-008  0.4614232E+02  0.7816164E-02  0.1320468E+00
        -11   -1    0    0    0    0  0.00000000000E+00  0.00000000000E+00  0.45593999997E+02  0.45594000000E+02  0.51100000000E-03 0.  1.
         11   -1    0    0    0    0 -0.00000000000E+00 -0.00000000000E+00 -0.45593999997E+02  0.45594000000E+02  0.51100000000E-03 0. -1.
    9900012    2    1    2    0    0 -0.37183797183E+02  0.14164643845E+02  0.21114961712E+02  0.46142317451E+02  0.99999971730E+01 0.  0.
         12    1    1    2    0    0  0.37183797183E+02 -0.14164643845E+02 -0.21114961712E+02  0.45045682549E+02  0.00000000000E+00 0. -1.
         11    1    3    3    0    0 -0.25358962065E+01  0.24986543729E+01  0.43533273261E+00  0.35865802786E+01  0.51100000000E-03 0. -1.
        -11    1    3    3    0    0 -0.14533030475E+01  0.30545666947E+00  0.28193487868E+01  0.31865532111E+01  0.51100000000E-03 0.  1.
        -12    1    3    3    0    0 -0.33194597929E+02  0.11360532802E+02  0.17860280192E+02  0.39369183961E+02  0.00000000000E+00 0.  1.
</event>
<event>
 7    1  0.2478637E-008  0.4614232E+02  0.7816164E-02  0.1320468E+00
        -11   -1    0    0    0    0  0.00000000000E+00  0.00000000000E+00  0.45593999997E+02  0.45594000000E+02  0.51100000000E-03 0. -1.
         11   -1    0    0    0    0 -0.00000000000E+00 -0.00000000000E+00 -0.45593999997E+02  0.45594000000E+02  0.51100000000E-03 0.  1.
    9900012    2    1    2    0    0  0.29106131474E+02  0.15914595706E+02 -0.30474126248E+02  0.46142316339E+02  0.99999870315E+01 0.  0.
         12    1    1    2    0    0 -0.29106131474E+02 -0.15914595706E+02  0.30474126248E+02  0.45045683661E+02  0.00000000000E+00 0. -1.
         11    1    3    3    0    0  0.19762726309E+02  0.82906729024E+01 -0.17540864589E+02  0.27694449609E+02  0.51100000000E-03 0. -1.
        -11    1    3    3    0    0  0.92211097446E+01  0.80771818246E+01 -0.11039146878E+02  0.16496438865E+02  0.51100000000E-03 0.  1.
         12    1    3    3    0    0  0.12229542056E+00 -0.45325902104E+00 -0.18941147813E+01  0.19514278656E+01  0.00000000000E+00 0. -1.
</event>
<event>
 7    1  0.2478637E-008  0.4614232E+02  0.7816164E-02  0.1320468E+00
        -11   -1    0    0    0    0  0.00000000000E+00  0.00000000000E+00  0.45593999997E+02  0.45594000000E+02  0.51100000000E-03 0. -1.
         11   -1    0    0    0    0 -0.00000000000E+00 -0.00000000000E+00 -0.45593999997E+02  0.45594000000E+02  0.51100000000E-03 0.  1.
    9900012    2    1    2    0    0 -0.49348208850E+01  0.43526079883E+02  0.10499593305E+02  0.46142317113E+02  0.99999940899E+01 0.  0.
         12    1    1    2    0    0  0.49348208850E+01 -0.43526079883E+02 -0.10499593305E+02  0.45045682887E+02  0.00000000000E+00 0. -1.
         11    1    3    3    0    0 -0.26853790647E+01  0.14291277935E+02  0.47032432414E+01  0.15283075050E+02  0.51100000000E-03 0. -1.
        -11    1    3    3    0    0 -0.80212564972E+00  0.28674343152E+02  0.59613655285E+01  0.29298451154E+02  0.51100000000E-03 0.  1.
         12    1    3    3    0    0 -0.14473161706E+01  0.56045879646E+00 -0.16501546474E+00  0.15607909097E+01  0.00000000000E+00 0. -1.
</event>
<event>
 7    1  0.2478637E-008  0.4614232E+02  0.7816164E-02  0.1320468E+00
        -11   -1    0    0    0    0  0.00000000000E+00  0.00000000000E+00  0.45593999997E+02  0.45594000000E+02  0.51100000000E-03 0.  1.
         11   -1    0    0    0    0 -0.00000000000E+00 -0.00000000000E+00 -0.45593999997E+02  0.45594000000E+02  0.51100000000E-03 0. -1.
    9900012    2    1    2    0    0  0.93096012906E+01 -0.16134942133E+02  0.41013516934E+02  0.46142316465E+02  0.99999881845E+01 0.  0.
         12    1    1    2    0    0 -0.93096012906E+01  0.16134942133E+02 -0.41013516934E+02  0.45045683535E+02  0.00000000000E+00 0. -1.
         11    1    3    3    0    0  0.99328436423E-01 -0.71596338677E+00  0.92384876785E+00  0.11730159916E+01  0.51100000000E-03 0. -1.
        -11    1    3    3    0    0 -0.43299396006E+00  0.39864364388E+00  0.71774284776E+01  0.72015193075E+01  0.51100000000E-03 0.  1.
        -12    1    3    3    0    0  0.96432668143E+01 -0.15817622390E+02  0.32912239688E+02  0.37767781166E+02  0.00000000000E+00 0.  1.
</event>
<event>
 7    1  0.2478637E-008  0.4614232E+02  0.7816164E-02  0.1320468E+00
        -11   -1    0    0    0    0  0.00000000000E+00  0.00000000000E+00  0.45593999997E+02  0.45594000000E+02  0.51100000000E-03 0. -1.
         11   -1    0    0    0    0 -0.00000000000E+00 -0.00000000000E+00 -0.45593999997E+02  0.45594000000E+02  0.51100000000E-03 0.  1.
    9900012    2    1    2    0    0  0.27929457860E+02  0.12615046468E+02 -0.33013930042E+02  0.46142316627E+02  0.99999896608E+01 0.  0.
         12    1    1    2    0    0 -0.27929457860E+02 -0.12615046468E+02  0.33013930042E+02  0.45045683373E+02  0.00000000000E+00 0. -1.
         11    1    3    3    0    0  0.16478455353E+01  0.27264967502E+01 -0.70139925461E+01  0.77035881987E+01  0.51100000000E-03 0. -1.
        -11    1    3    3    0    0  0.58748362806E+01  0.18509307055E+01 -0.77962360122E+01  0.99358412839E+01  0.51100000000E-03 0.  1.
         12    1    3    3    0    0  0.20406776044E+02  0.80376190122E+01 -0.18203701483E+02  0.28502887145E+02  0.00000000000E+00 0. -1.
</event>
<event>
 7    1  0.2478637E-008  0.4614232E+02  0.7816164E-02  0.1320468E+00
        -11   -1    0    0    0    0  0.00000000000E+00  0.00000000000E+00  0.45593999997E+02  0.45594000000E+02  0.51100000000E-03 0.  1.
         11   -1    0    0    0    0 -0.00000000000E+00 -0.00000000000E+00 -0.45593999997E+02  0.45594000000E+02  0.51100000000E-03 0. -1.
    9900012    2    1    2    0    0 -0.70037121179E+01  0.16834167444E+02  0.41190682871E+02  0.46142317273E+02  0.99999955515E+01 0.  0.
         12    1    1    2    0    0  0.70037121179E+01 -0.16834167444E+02 -0.41190682871E+02  0.45045682727E+02  0.00000000000E+00 0. -1.
         11    1    3    3    0    0  0.68419710917E+00  0.48479191368E+01  0.67903672183E+01  0.83713519136E+01  0.51100000000E-03 0. -1.
        -11    1    3    3    0    0 -0.43652338416E+01  0.74334462065E+01  0.27725712381E+02  0.29034918913E+02  0.51100000000E-03 0.  1.
        -12    1    3    3    0    0 -0.33226753855E+01  0.45528021008E+01  0.66746032715E+01  0.87360464466E+01  0.00000000000E+00 0.  1.
</event>
<event>
 7    1  0.2478637E-008  0.4614232E+02  0.7816164E-02  0.1320468E+00
        -11   -1    0    0    0    0  0.00000000000E+00  0.00000000000E+00  0.45593999997E+02  0.45594000000E+02  0.51100000000E-03 0.  1.
         11   -1    0    0    0    0 -0.00000000000E+00 -0.00000000000E+00 -0.45593999997E+02  0.45594000000E+02  0.51100000000E-03 0. -1.
    9900012    2    1    2    0    0 -0.17891621219E+02  0.41338044508E+02  0.41160280234E+00  0.46142318182E+02  0.10000003836E+02 0.  0.
         12    1    1    2    0    0  0.17891621219E+02 -0.41338044508E+02 -0.41160280234E+00  0.45045681818E+02  0.00000000000E+00 0. -1.
         11    1    3    3    0    0 -0.36095004699E+01  0.46479247236E+01  0.23876784633E+00  0.58897120664E+01  0.51100000000E-03 0. -1.
        -11    1    3    3    0    0 -0.75590833563E+01  0.10147649052E+02 -0.18914193444E+01  0.12794217048E+02  0.51100000000E-03 0.  1.
         12    1    3    3    0    0 -0.67230373932E+01  0.26542470732E+02  0.20642543004E+01  0.27458389067E+02  0.00000000000E+00 0. -1.
</event>
<event>
 7    1  0.2478637E-008  0.4614232E+02  0.7816164E-02  0.1320468E+00
        -11   -1    0    0    0    0  0.00000000000E+00  0.00000000000E+00  0.45593999997E+02  0.45594000000E+02  0.51100000000E-03 0.  1.
         11   -1    0    0    0    0 -0.00000000000E+00 -0.00000000000E+00 -0.45593999997E+02  0.45594000000E+02  0.51100000000E-03 0. -1.
    9900012    2    1    2    0    0  0.85373707156E+01  0.28988840886E+02  0.33404699216E+02  0.46142317362E+02  0.99999963562E+01 0.  0.
         12    1    1    2    0    0 -0.85373707156E+01 -0.28988840886E+02 -0.33404699216E+02  0.45045682638E+02  0.00000000000E+00 0. -1.
         11    1    3    3    0    0  0.75640871226E+00  0.35227188286E+01  0.78898908092E+01  0.86736427946E+01  0.51100000000E-03 0. -1.
        -11    1    3    3    0    0  0.75324729673E+01  0.19963723439E+02  0.23123342705E+02  0.31463905998E+02  0.51100000000E-03 0.  1.
        -12    1    3    3    0    0  0.24848903596E+00  0.55023986188E+01  0.23914657014E+01  0.60047685686E+01  0.00000000000E+00 0.  1.
</event>
<event>
 7    1  0.2478637E-008  0.4614232E+02  0.7816164E-02  0.1320468E+00
        -11   -1    0    0    0    0  0.00000000000E+00  0.00000000000E+00  0.45593999997E+02  0.45594000000E+02  0.51100000000E-03 0. -1.
         11   -1    0    0    0    0 -0.00000000000E+00 -0.00000000000E+00 -0.45593999997E+02  0.45594000000E+02  0.51100000000E-03 0.  1.
    9900012    2    1    2    0    0  0.34949530518E+02 -0.17729439684E+02 -0.22210600641E+02  0.46142317679E+02  0.99999992494E+01 0.  0.
         12    1    1    2    0    0 -0.34949530518E+02  0.17729439684E+02  0.22210600641E+02  0.45045682321E+02  0.00000000000E+00 0. -1.
         11    1    3    3    0    0  0.13796372537E+02 -0.22902417783E+01 -0.95946536684E+01  0.16960025999E+02  0.51100000000E-03 0.  1.
        -11    1    3    3    0    0  0.63633664670E+01 -0.39010466973E+01 -0.25074418967E+01  0.78738721893E+01  0.51100000000E-03 0. -1.
        -12    1    3    3    0    0  0.14789791513E+02 -0.11538151209E+02 -0.10108505076E+02  0.21308419491E+02  0.00000000000E+00 0.  1.
</event>
<event>
 7    1  0.2478637E-008  0.4614232E+02  0.7816164E-02  0.1320468E+00
        -11   -1    0    0    0    0  0.00000000000E+00  0.00000000000E+00  0.45593999997E+02  0.45594000000E+02  0.51100000000E-03 0.  1.
         11   -1    0    0    0    0 -0.00000000000E+00 -0.00000000000E+00 -0.45593999997E+02  0.45594000000E+02  0.51100000000E-03 0. -1.
    9900012    2    1    2    0    0  0.19157334611E+02 -0.27220807742E+02  0.30350249026E+02  0.46142318082E+02  0.10000002928E+02 0.  0.
         12    1    1    2    0    0 -0.19157334611E+02  0.27220807742E+02 -0.30350249026E+02  0.45045681918E+02  0.00000000000E+00 0. -1.
         11    1    3    3    0    0  0.46010180863E+00 -0.53849857190E+01  0.62931905440E+01  0.82954211679E+01  0.51100000000E-03 0. -1.
        -11    1    3    3    0    0  0.78061137608E+01 -0.54527408848E+01  0.85470564389E+01  0.12795310439E+02  0.51100000000E-03 0.  1.
        -12    1    3    3    0    0  0.10891119042E+02 -0.16383081138E+02  0.15510002043E+02  0.25051586475E+02  0.00000000000E+00 0.  1.
</event>
<event>
 7    1  0.2478637E-008  0.4614232E+02  0.7816164E-02  0.1320468E+00
        -11   -1    0    0    0    0  0.00000000000E+00  0.00000000000E+00  0.45593999997E+02  0.45594000000E+02  0.51100000000E-03 0. -1.
         11   -1    0    0    0    0 -0.00000000000E+00 -0.00000000000E+00 -0.45593999997E+02  0.45594000000E+02  0.51100000000E-03 0.  1.
    9900012    2    1    2    0    0  0.42918223862E+02 -0.12554082242E+01 -0.13622169679E+02  0.46142317676E+02  0.99999992258E+01 0.  0.
         12    1    1    2    0    0 -0.42918223862E+02  0.12554082242E+01  0.13622169679E+02  0.45045682324E+02  0.00000000000E+00 0. -1.
         11    1    3    3    0    0  0.75426243895E+01  0.14070207213E+01 -0.49768153946E+01  0.91454678242E+01  0.51100000000E-03 0. -1.
        -11    1    3    3    0    0  0.64023934505E+01 -0.27826780869E+01 -0.21459643388E+01  0.73033624061E+01  0.51100000000E-03 0.  1.
         12    1    3    3    0    0  0.28973206022E+02  0.12024914149E+00 -0.64993899456E+01  0.29693487446E+02  0.00000000000E+00 0. -1.
</event>
<event>
 7    1  0.2478637E-008  0.4614232E+02  0.7816164E-02  0.1320468E+00
        -11   -1    0    0    0    0  0.00000000000E+00  0.00000000000E+00  0.45593999997E+02  0.45594000000E+02  0.51100000000E-03 0.  1.
         11   -1    0    0    0    0 -0.00000000000E+00 -0.00000000000E+00 -0.45593999997E+02  0.45594000000E+02  0.51100000000E-03 0. -1.
    9900012    2    1    2    0    0 -0.41002397177E+02 -0.14226486505E+02 -0.12063331733E+02  0.46142318020E+02  0.10000002360E+02 0.  0.
         12    1    1    2    0    0  0.41002397177E+02  0.14226486505E+02  0.12063331733E+02  0.45045681980E+02  0.00000000000E+00 0. -1.
         11    1    3    3    0    0 -0.62809952658E+01 -0.11156614712E+01  0.80642015503E+00  0.64300789867E+01  0.51100000000E-03 0. -1.
        -11    1    3    3    0    0 -0.61343566501E+00 -0.12453752382E+01 -0.95322891668E+00  0.16840155663E+01  0.51100000000E-03 0.  1.
        -12    1    3    3    0    0 -0.34107966246E+02 -0.11865449795E+02 -0.11916522972E+02  0.38028223467E+02  0.00000000000E+00 0.  1.
</event>
<event>
 7    1  0.2478637E-008  0.4614232E+02  0.7816164E-02  0.1320468E+00
        -11   -1    0    0    0    0  0.00000000000E+00  0.00000000000E+00  0.45593999997E+02  0.45594000000E+02  0.51100000000E-03 0.  1.
         11   -1    0    0    0    0 -0.00000000000E+00 -0.00000000000E+00 -0.45593999997E+02  0.45594000000E+02  0.51100000000E-03 0. -1.
    9900012    2    1    2    0    0 -0.10815436244E+02  0.17519098889E+02  0.40065209550E+02  0.46142317595E+02  0.99999984859E+01 0.  0.
         12    1    1    2    0    0  0.10815436244E+02 -0.17519098889E+02 -0.40065209550E+02  0.45045682405E+02  0.00000000000E+00 0. -1.
         11    1    3    3    0    0 -0.14574791583E+01  0.22266699695E+01  0.64956471306E+01  0.70196678380E+01  0.51100000000E-03 0. -1.
        -11    1    3    3    0    0 -0.11097289580E+02  0.13461274432E+02  0.27744645758E+02  0.32773786993E+02  0.51100000000E-03 0.  1.
         12    1    3    3    0    0  0.17393324945E+01  0.18311544873E+01  0.58249166612E+01  0.63488627638E+01  0.00000000000E+00 0. -1.
</event>
<event>
 7    1  0.2478637E-008  0.4614232E+02  0.7816164E-02  0.1320468E+00
        -11   -1    0    0    0    0  0.00000000000E+00  0.00000000000E+00  0.45593999997E+02  0.45594000000E+02  0.51100000000E-03 0.  1.
         11   -1    0    0    0    0 -0.00000000000E+00 -0.00000000000E+00 -0.45593999997E+02  0.45594000000E+02  0.51100000000E-03 0. -1.
    9900012    2    1    2    0    0 -0.22932873653E+02 -0.17411484418E+02  0.34641551750E+02  0.46142316618E+02  0.99999895799E+01 0.  0.
         12    1    1    2    0    0  0.22932873653E+02  0.17411484418E+02 -0.34641551750E+02  0.45045683382E+02  0.00000000000E+00 0. -1.
         11    1    3    3    0    0 -0.80263602533E+01 -0.43880566015E+01  0.14097453042E+02  0.16805227823E+02  0.51100000000E-03 0.  1.
        -11    1    3    3    0    0 -0.62365013558E+01 -0.99403604596E+01  0.11869947728E+02  0.16691326327E+02  0.51100000000E-03 0. -1.
         12    1    3    3    0    0 -0.86700120444E+01 -0.30830673571E+01  0.86741509807E+01  0.12645762469E+02  0.00000000000E+00 0. -1.
</event>
<event>
 7    1  0.2478637E-008  0.4614232E+02  0.7816164E-02  0.1320468E+00
        -11   -1    0    0    0    0  0.00000000000E+00  0.00000000000E+00  0.45593999997E+02  0.45594000000E+02  0.51100000000E-03 0. -1.
         11   -1    0    0    0    0 -0.00000000000E+00 -0.00000000000E+00 -0.45593999997E+02  0.45594000000E+02  0.51100000000E-03 0.  1.
    9900012    2    1    2    0    0 -0.66488645576E+01 -0.39404281277E+02 -0.20789632359E+02  0.46142316561E+02  0.99999890600E+01 0.  0.
         12    1    1    2    0    0  0.66488645576E+01  0.39404281277E+02  0.20789632359E+02  0.45045683439E+02  0.00000000000E+00 0. -1.
         11    1    3    3    0    0 -0.20516598668E+01 -0.82692113710E+01 -0.59594140438E+01  0.10397296808E+02  0.51100000000E-03 0. -1.
        -11    1    3    3    0    0 -0.35040593374E+01 -0.19958091916E+02 -0.13695511810E+02  0.24457532761E+02  0.51100000000E-03 0.  1.
         12    1    3    3    0    0 -0.10931453534E+01 -0.11176977990E+02 -0.11347065050E+01  0.11287486992E+02  0.00000000000E+00 0. -1.
</event>
<event>
 7    1  0.2478637E-008  0.4614232E+02  0.7816164E-02  0.1320468E+00
        -11   -1    0    0    0    0  0.00000000000E+00  0.00000000000E+00  0.45593999997E+02  0.45594000000E+02  0.51100000000E-03 0. -1.
         11   -1    0    0    0    0 -0.00000000000E+00 -0.00000000000E+00 -0.45593999997E+02  0.45594000000E+02  0.51100000000E-03 0.  1.
    9900012    2    1    2    0    0 -0.12716388096E+02 -0.29899390726E+01 -0.43109944262E+02  0.46142317009E+02  0.99999931421E+01 0.  0.
         12    1    1    2    0    0  0.12716388096E+02  0.29899390726E+01  0.43109944262E+02  0.45045682991E+02  0.00000000000E+00 0. -1.
         11    1    3    3    0    0 -0.86969072929E+01 -0.45179685156E-01 -0.14596424927E+02  0.16990993455E+02  0.51100000000E-03 0. -1.
        -11    1    3    3    0    0 -0.32067495404E+00 -0.71840007988E+00 -0.13673070762E+02  0.13695685285E+02  0.51100000000E-03 0.  1.
         12    1    3    3    0    0 -0.36988058491E+01 -0.22263593075E+01 -0.14840448573E+02  0.15455638269E+02  0.00000000000E+00 0. -1.
</event>
<event>
 7    1  0.2478637E-008  0.4614232E+02  0.7816164E-02  0.1320468E+00
        -11   -1    0    0    0    0  0.00000000000E+00  0.00000000000E+00  0.45593999997E+02  0.45594000000E+02  0.51100000000E-03 0.  1.
         11   -1    0    0    0    0 -0.00000000000E+00 -0.00000000000E+00 -0.45593999997E+02  0.45594000000E+02  0.51100000000E-03 0. -1.
    9900012    2    1    2    0    0  0.43993413225E+02  0.90900960591E+01  0.33261413607E+01  0.46142317967E+02  0.10000001873E+02 0.  0.
         12    1    1    2    0    0 -0.43993413225E+02 -0.90900960591E+01 -0.33261413607E+01  0.45045682033E+02  0.00000000000E+00 0. -1.
         11    1    3    3    0    0  0.74425402685E+01 -0.18111864721E+01  0.82569611556E+00  0.77041272329E+01  0.51100000000E-03 0. -1.
        -11    1    3    3    0    0  0.23062034626E+02  0.61430377526E+01 -0.27579746249E+00  0.23867769448E+02  0.51100000000E-03 0.  1.
         12    1    3    3    0    0  0.13488838330E+02  0.47582447787E+01  0.27762427076E+01  0.14570421286E+02  0.00000000000E+00 0. -1.
</event>
<event>
 7    1  0.2478637E-008  0.4614232E+02  0.7816164E-02  0.1320468E+00
        -11   -1    0    0    0    0  0.00000000000E+00  0.00000000000E+00  0.45593999997E+02  0.45594000000E+02  0.51100000000E-03 0.  1.
         11   -1    0    0    0    0 -0.00000000000E+00 -0.00000000000E+00 -0.45593999997E+02  0.45594000000E+02  0.51100000000E-03 0. -1.
    9900012    2    1    2    0    0  0.19191285281E+02 -0.34685074117E+02  0.21395181692E+02  0.46142316557E+02  0.99999890157E+01 0.  0.
         12    1    1    2    0    0 -0.19191285281E+02  0.34685074117E+02 -0.21395181692E+02  0.45045683443E+02  0.00000000000E+00 0. -1.
         11    1    3    3    0    0  0.42902648168E+01 -0.28548299967E+01  0.11489595726E+01  0.52798233748E+01  0.51100000000E-03 0. -1.
        -11    1    3    3    0    0  0.64549955763E+01 -0.91112134728E+01  0.50533865504E+01  0.12256341001E+02  0.51100000000E-03 0.  1.
        -12    1    3    3    0    0  0.84460248882E+01 -0.22719030647E+02  0.15192835569E+02  0.28606152181E+02  0.00000000000E+00 0.  1.
</event>
<event>
 7    1  0.2478637E-008  0.4614232E+02  0.7816164E-02  0.1320468E+00
        -11   -1    0    0    0    0  0.00000000000E+00  0.00000000000E+00  0.45593999997E+02  0.45594000000E+02  0.51100000000E-03 0. -1.
         11   -1    0    0    0    0 -0.00000000000E+00 -0.00000000000E+00 -0.45593999997E+02  0.45594000000E+02  0.51100000000E-03 0.  1.
    9900012    2    1    2    0    0  0.38131821483E+02  0.22269518994E+02 -0.88964168036E+01  0.46142317435E+02  0.99999970255E+01 0.  0.
         12    1    1    2    0    0 -0.38131821483E+02 -0.22269518994E+02  0.88964168036E+01  0.45045682565E+02  0.00000000000E+00 0. -1.
         11    1    3    3    0    0  0.97481451007E+00  0.30296517325E+01 -0.12115381915E+01  0.34054189169E+01  0.51100000000E-03 0. -1.
        -11    1    3    3    0    0  0.61384971124E+01  0.15488170043E+01 -0.10780952662E+01  0.64220145263E+01  0.51100000000E-03 0.  1.
         12    1    3    3    0    0  0.31018509860E+02  0.17691050257E+02 -0.66067833459E+01  0.36314883992E+02  0.00000000000E+00 0. -1.
</event>
<event>
 7    1  0.2478637E-008  0.4614232E+02  0.7816164E-02  0.1320468E+00
        -11   -1    0    0    0    0  0.00000000000E+00  0.00000000000E+00  0.45593999997E+02  0.45594000000E+02  0.51100000000E-03 0. -1.
         11   -1    0    0    0    0 -0.00000000000E+00 -0.00000000000E+00 -0.45593999997E+02  0.45594000000E+02  0.51100000000E-03 0.  1.
    9900012    2    1    2    0    0  0.19298922602E+02 -0.84931089066E+01 -0.39806181898E+02  0.46142318411E+02  0.10000005927E+02 0.  0.
         12    1    1    2    0    0 -0.19298922602E+02  0.84931089066E+01  0.39806181898E+02  0.45045681589E+02  0.00000000000E+00 0. -1.
         11    1    3    3    0    0 -0.35396111956E+00 -0.14880218819E+00  0.41773283281E+00  0.56739011808E+00  0.51100000000E-03 0. -1.
        -11    1    3    3    0    0  0.54231673898E+01 -0.19421768831E+01 -0.93510826620E+01  0.10982966029E+02  0.51100000000E-03 0.  1.
         12    1    3    3    0    0  0.14229716332E+02 -0.64021298353E+01 -0.30872832069E+02  0.34591962264E+02  0.00000000000E+00 0. -1.
</event>
<event>
 7    1  0.2478637E-008  0.4614232E+02  0.7816164E-02  0.1320468E+00
        -11   -1    0    0    0    0  0.00000000000E+00  0.00000000000E+00  0.45593999997E+02  0.45594000000E+02  0.51100000000E-03 0.  1.
         11   -1    0    0    0    0 -0.00000000000E+00 -0.00000000000E+00 -0.45593999997E+02  0.45594000000E+02  0.51100000000E-03 0. -1.
    9900012    2    1    2    0    0 -0.18819116350E+02  0.40716706782E+02  0.41357226155E+01  0.46142317044E+02  0.99999934630E+01 0.  0.
         12    1    1    2    0    0  0.18819116350E+02 -0.40716706782E+02 -0.41357226155E+01  0.45045682956E+02  0.00000000000E+00 0. -1.
         11    1    3    3    0    0 -0.28649168243E+00 -0.18764490809E+00  0.97388833503E-01  0.35605188055E+00  0.51100000000E-03 0. -1.
        -11    1    3    3    0    0 -0.44114434950E+01  0.18828409597E+02  0.52151071250E+00  0.19345330583E+02  0.51100000000E-03 0.  1.
        -12    1    3    3    0    0 -0.14121181172E+02  0.22075942093E+02  0.35168230695E+01  0.26440934581E+02  0.00000000000E+00 0.  1.
</event>
<event>
 7    1  0.2478637E-008  0.4614232E+02  0.7816164E-02  0.1320468E+00
        -11   -1    0    0    0    0  0.00000000000E+00  0.00000000000E+00  0.45593999997E+02  0.45594000000E+02  0.51100000000E-03 0.  1.
         11   -1    0    0    0    0 -0.00000000000E+00 -0.00000000000E+00 -0.45593999997E+02  0.45594000000E+02  0.51100000000E-03 0. -1.
    9900012    2    1    2    0    0 -0.35375299112E+02  0.26610038696E+02 -0.83431131604E+01  0.46142317811E+02  0.10000000455E+02 0.  0.
         12    1    1    2    0    0  0.35375299112E+02 -0.26610038696E+02  0.83431131604E+01  0.45045682189E+02  0.00000000000E+00 0. -1.
         11    1    3    3    0    0 -0.77605138521E+00  0.55679096127E+00 -0.92724217819E+00  0.13311837759E+01  0.51100000000E-03 0. -1.
        -11    1    3    3    0    0 -0.12600687279E+02  0.11262898661E+02  0.11858300887E+01  0.16942148607E+02  0.51100000000E-03 0.  1.
        -12    1    3    3    0    0 -0.21998560448E+02  0.14790349074E+02 -0.86017010709E+01  0.27868985429E+02  0.00000000000E+00 0.  1.
</event>
<event>
 7    1  0.2478637E-008  0.4614232E+02  0.7816164E-02  0.1320468E+00
        -11   -1    0    0    0    0  0.00000000000E+00  0.00000000000E+00  0.45593999997E+02  0.45594000000E+02  0.51100000000E-03 0. -1.
         11   -1    0    0    0    0 -0.00000000000E+00 -0.00000000000E+00 -0.45593999997E+02  0.45594000000E+02  0.51100000000E-03 0.  1.
    9900012    2    1    2    0    0 -0.43250746606E+02 -0.59218673628E+01 -0.11109358719E+02  0.46142318229E+02  0.10000004266E+02 0.  0.
         12    1    1    2    0    0  0.43250746606E+02  0.59218673628E+01  0.11109358719E+02  0.45045681771E+02  0.00000000000E+00 0. -1.
         11    1    3    3    0    0 -0.78119126936E+01 -0.32432074867E+01 -0.66251865827E+00  0.84842976119E+01  0.51100000000E-03 0. -1.
        -11    1    3    3    0    0 -0.24723432148E+02 -0.39988795383E+01 -0.48982269286E+01  0.25519242976E+02  0.51100000000E-03 0.  1.
         12    1    3    3    0    0 -0.10715401765E+02  0.13202196622E+01 -0.55486131322E+01  0.12138777641E+02  0.00000000000E+00 0. -1.
</event>
<event>
 7    1  0.2478637E-008  0.4614232E+02  0.7816164E-02  0.1320468E+00
        -11   -1    0    0    0    0  0.00000000000E+00  0.00000000000E+00  0.45593999997E+02  0.45594000000E+02  0.51100000000E-03 0. -1.
         11   -1    0    0    0    0 -0.00000000000E+00 -0.00000000000E+00 -0.45593999997E+02  0.45594000000E+02  0.51100000000E-03 0.  1.
    9900012    2    1    2    0    0  0.24243932948E+02 -0.27096793590E+02 -0.26591520439E+02  0.46142318000E+02  0.10000002174E+02 0.  0.
         12    1    1    2    0    0 -0.24243932948E+02  0.27096793590E+02  0.26591520439E+02  0.45045682000E+02  0.00000000000E+00 0. -1.
         11    1    3    3    0    0  0.35852626131E+01 -0.56879090007E+01 -0.51797257913E+01  0.84874010356E+01  0.51100000000E-03 0. -1.
        -11    1    3    3    0    0  0.14791133302E+02 -0.19598522607E+02 -0.14979418137E+02  0.28762174478E+02  0.51100000000E-03 0.  1.
         12    1    3    3    0    0  0.58675370322E+01 -0.18103619819E+01 -0.64323765115E+01  0.88927424856E+01  0.00000000000E+00 0. -1.
</event>
<event>
 7    1  0.2478637E-008  0.4614232E+02  0.7816164E-02  0.1320468E+00
        -11   -1    0    0    0    0  0.00000000000E+00  0.00000000000E+00  0.45593999997E+02  0.45594000000E+02  0.51100000000E-03 0.  1.
         11   -1    0    0    0    0 -0.00000000000E+00 -0.00000000000E+00 -0.45593999997E+02  0.45594000000E+02  0.51100000000E-03 0. -1.
    9900012    2    1    2    0    0  0.24070642155E+02  0.37478063650E+02  0.67165740566E+01  0.46142318345E+02  0.10000005326E+02 0.  0.
         12    1    1    2    0    0 -0.24070642155E+02 -0.37478063650E+02 -0.67165740566E+01  0.45045681655E+02  0.00000000000E+00 0. -1.
         11    1    3    3    0    0  0.54013772699E+01  0.65232885800E+01  0.14152042768E+01  0.85866741941E+01  0.51100000000E-03 0. -1.
        -11    1    3    3    0    0  0.10673053602E+02  0.24663570723E+02  0.52457397226E+01  0.27381080685E+02  0.51100000000E-03 0.  1.
         12    1    3    3    0    0  0.79962112833E+01  0.62912043471E+01  0.55630057237E-01  0.10174563466E+02  0.00000000000E+00 0. -1.
</event>
<event>
 7    1  0.2478637E-008  0.4614232E+02  0.7816164E-02  0.1320468E+00
        -11   -1    0    0    0    0  0.00000000000E+00  0.00000000000E+00  0.45593999997E+02  0.45594000000E+02  0.51100000000E-03 0.  1.
         11   -1    0    0    0    0 -0.00000000000E+00 -0.00000000000E+00 -0.45593999997E+02  0.45594000000E+02  0.51100000000E-03 0. -1.
    9900012    2    1    2    0    0 -0.28354256649E+02  0.32689566720E+02  0.12511671585E+02  0.46142316874E+02  0.99999919067E+01 0.  0.
         12    1    1    2    0    0  0.28354256649E+02 -0.32689566720E+02 -0.12511671585E+02  0.45045683126E+02  0.00000000000E+00 0. -1.
         11    1    3    3    0    0 -0.73972943524E+01  0.81261372028E+01  0.66523968645E+01  0.12845561641E+02  0.51100000000E-03 0. -1.
        -11    1    3    3    0    0 -0.73504021579E+00  0.43750381878E+00  0.12003220390E+01  0.14739290922E+01  0.51100000000E-03 0.  1.
        -12    1    3    3    0    0 -0.20221922081E+02  0.24125925699E+02  0.46589526815E+01  0.31822826140E+02  0.00000000000E+00 0.  1.
</event>
<event>
 7    1  0.2478637E-008  0.4614232E+02  0.7816164E-02  0.1320468E+00
        -11   -1    0    0    0    0  0.00000000000E+00  0.00000000000E+00  0.45593999997E+02  0.45594000000E+02  0.51100000000E-03 0.  1.
         11   -1    0    0    0    0 -0.00000000000E+00 -0.00000000000E+00 -0.45593999997E+02  0.45594000000E+02  0.51100000000E-03 0. -1.
    9900012    2    1    2    0    0 -0.69009275095E+01 -0.18287101689E+02  0.40584141815E+02  0.46142318125E+02  0.10000003320E+02 0.  0.
         12    1    1    2    0    0  0.69009275095E+01  0.18287101689E+02 -0.40584141815E+02  0.45045681875E+02  0.00000000000E+00 0. -1.
         11    1    3    3    0    0 -0.73617842613E+01 -0.11713555929E+02  0.19531643894E+02  0.23935086661E+02  0.51100000000E-03 0. -1.
        -11    1    3    3    0    0 -0.97692090414E+00 -0.34425802437E+01  0.94871554117E+01  0.10139617905E+02  0.51100000000E-03 0.  1.
        -12    1    3    3    0    0  0.14377776559E+01 -0.31309655166E+01  0.11565342510E+02  0.12067613560E+02  0.00000000000E+00 0.  1.
</event>
<event>
 7    1  0.2478637E-008  0.4614232E+02  0.7816164E-02  0.1320468E+00
        -11   -1    0    0    0    0  0.00000000000E+00  0.00000000000E+00  0.45593999997E+02  0.45594000000E+02  0.51100000000E-03 0.  1.
         11   -1    0    0    0    0 -0.00000000000E+00 -0.00000000000E+00 -0.45593999997E+02  0.45594000000E+02  0.51100000000E-03 0. -1.
    9900012    2    1    2    0    0  0.40906763548E+02 -0.86321527707E+01  0.16770093848E+02  0.46142318596E+02  0.10000007616E+02 0.  0.
         12    1    1    2    0    0 -0.40906763548E+02  0.86321527707E+01 -0.16770093848E+02  0.45045681404E+02  0.00000000000E+00 0. -1.
         11    1    3    3    0    0  0.31864809346E+01 -0.30755351252E+01  0.14632027517E+01  0.46640689968E+01  0.51100000000E-03 0. -1.
        -11    1    3    3    0    0  0.19616963168E+02 -0.25633786258E+01  0.48925896205E+01  0.20379734722E+02  0.51100000000E-03 0.  1.
         12    1    3    3    0    0  0.18103319446E+02 -0.29932390197E+01  0.10414301476E+02  0.21098514877E+02  0.00000000000E+00 0. -1.
</event>
<event>
 7    1  0.2478637E-008  0.4614232E+02  0.7816164E-02  0.1320468E+00
        -11   -1    0    0    0    0  0.00000000000E+00  0.00000000000E+00  0.45593999997E+02  0.45594000000E+02  0.51100000000E-03 0. -1.
         11   -1    0    0    0    0 -0.00000000000E+00 -0.00000000000E+00 -0.45593999997E+02  0.45594000000E+02  0.51100000000E-03 0.  1.
    9900012    2    1    2    0    0 -0.16375290215E+02  0.20636331795E+02  0.36539093925E+02  0.46142315363E+02  0.99999781335E+01 0.  0.
         12    1    1    2    0    0  0.16375290215E+02 -0.20636331795E+02 -0.36539093925E+02  0.45045684637E+02  0.00000000000E+00 0. -1.
         11    1    3    3    0    0  0.81083413692E-01  0.16783218893E+00  0.41269556553E+01  0.41311627184E+01  0.51100000000E-03 0. -1.
        -11    1    3    3    0    0 -0.33953619363E+01  0.22660979765E+01  0.31426917903E+01  0.51517176424E+01  0.51100000000E-03 0.  1.
        -12    1    3    3    0    0 -0.13061011693E+02  0.18202401629E+02  0.29269446479E+02  0.36859435002E+02  0.00000000000E+00 0.  1.
</event>
<event>
 7    1  0.2478637E-008  0.4614232E+02  0.7816164E-02  0.1320468E+00
        -11   -1    0    0    0    0  0.00000000000E+00  0.00000000000E+00  0.45593999997E+02  0.45594000000E+02  0.51100000000E-03 0. -1.
         11   -1    0    0    0    0 -0.00000000000E+00 -0.00000000000E+00 -0.45593999997E+02  0.45594000000E+02  0.51100000000E-03 0.  1.
    9900012    2    1    2    0    0 -0.35302581215E+02 -0.27165910345E+02 -0.66973574468E+01  0.46142317386E+02  0.99999965821E+01 0.  0.
         12    1    1    2    0    0  0.35302581215E+02  0.27165910345E+02  0.66973574468E+01  0.45045682614E+02  0.00000000000E+00 0. -1.
         11    1    3    3    0    0 -0.50672547544E+01 -0.44618776539E+01 -0.41773787380E+01  0.79395161267E+01  0.51100000000E-03 0. -1.
        -11    1    3    3    0    0 -0.25185124763E+02 -0.17599187974E+02 -0.36228650486E+01  0.30937793685E+02  0.51100000000E-03 0.  1.
         12    1    3    3    0    0 -0.50502016976E+01 -0.51048447175E+01  0.11028863397E+01  0.72650075743E+01  0.00000000000E+00 0. -1.
</event>
<event>
 7    1  0.2478637E-008  0.4614232E+02  0.7816164E-02  0.1320468E+00
        -11   -1    0    0    0    0  0.00000000000E+00  0.00000000000E+00  0.45593999997E+02  0.45594000000E+02  0.51100000000E-03 0.  1.
         11   -1    0    0    0    0 -0.00000000000E+00 -0.00000000000E+00 -0.45593999997E+02  0.45594000000E+02  0.51100000000E-03 0. -1.
    9900012    2    1    2    0    0  0.40188309152E+02  0.72817076596E+01  0.18999736214E+02  0.46142318352E+02  0.10000005386E+02 0.  0.
         12    1    1    2    0    0 -0.40188309152E+02 -0.72817076596E+01 -0.18999736214E+02  0.45045681648E+02  0.00000000000E+00 0. -1.
         11    1    3    3    0    0  0.40711983665E+01  0.35039948919E+01  0.37120420925E+01  0.65293103082E+01  0.51100000000E-03 0. -1.
        -11    1    3    3    0    0  0.17951919118E+02  0.99281594463E+00  0.95641529414E+01  0.20364923404E+02  0.51100000000E-03 0.  1.
         12    1    3    3    0    0  0.18165191668E+02  0.27848968231E+01  0.57235411804E+01  0.19248084639E+02  0.00000000000E+00 0. -1.
</event>
<event>
 7    1  0.2478637E-008  0.4614232E+02  0.7816164E-02  0.1320468E+00
        -11   -1    0    0    0    0  0.00000000000E+00  0.00000000000E+00  0.45593999997E+02  0.45594000000E+02  0.51100000000E-03 0. -1.
         11   -1    0    0    0    0 -0.00000000000E+00 -0.00000000000E+00 -0.45593999997E+02  0.45594000000E+02  0.51100000000E-03 0.  1.
    9900012    2    1    2    0    0 -0.16640263753E+02  0.30499163529E+02  0.28670823573E+02  0.46142317875E+02  0.10000001043E+02 0.  0.
         12    1    1    2    0    0  0.16640263753E+02 -0.30499163529E+02 -0.28670823573E+02  0.45045682125E+02  0.00000000000E+00 0. -1.
         11    1    3    3    0    0 -0.57812394443E+00 -0.21179197343E+00  0.23901233377E+01  0.24681517307E+01  0.51100000000E-03 0. -1.
        -11    1    3    3    0    0 -0.37906534487E+01  0.99978947419E+01  0.97470970241E+01  0.14468339694E+02  0.51100000000E-03 0.  1.
        -12    1    3    3    0    0 -0.12271486360E+02  0.20713060761E+02  0.16533603211E+02  0.29205826451E+02  0.00000000000E+00 0.  1.
</event>
<event>
 7    1  0.2478637E-008  0.4614232E+02  0.7816164E-02  0.1320468E+00
        -11   -1    0    0    0    0  0.00000000000E+00  0.00000000000E+00  0.45593999997E+02  0.45594000000E+02  0.51100000000E-03 0.  1.
         11   -1    0    0    0    0 -0.00000000000E+00 -0.00000000000E+00 -0.45593999997E+02  0.45594000000E+02  0.51100000000E-03 0. -1.
    9900012    2    1    2    0    0  0.12316503809E+02  0.12107042855E+02  0.41603325618E+02  0.46142318128E+02  0.10000003349E+02 0.  0.
         12    1    1    2    0    0 -0.12316503809E+02 -0.12107042855E+02 -0.41603325618E+02  0.45045681872E+02  0.00000000000E+00 0. -1.
         11    1    3    3    0    0  0.32882033058E+01  0.10740502454E+01  0.47013174231E+01  0.58368014086E+01  0.51100000000E-03 0. -1.
        -11    1    3    3    0    0  0.23632135611E+01  0.68940206272E+00  0.14850435191E+02  0.15053088692E+02  0.51100000000E-03 0.  1.
        -12    1    3    3    0    0  0.66650869421E+01  0.10343590547E+02  0.22051573005E+02  0.25252428028E+02  0.00000000000E+00 0.  1.
</event>
<event>
 7    1  0.2478637E-008  0.4614232E+02  0.7816164E-02  0.1320468E+00
        -11   -1    0    0    0    0  0.00000000000E+00  0.00000000000E+00  0.45593999997E+02  0.45594000000E+02  0.51100000000E-03 0.  1.
         11   -1    0    0    0    0 -0.00000000000E+00 -0.00000000000E+00 -0.45593999997E+02  0.45594000000E+02  0.51100000000E-03 0. -1.
    9900012    2    1    2    0    0  0.37301243001E+02  0.22057983130E+02  0.12295365266E+02  0.46142319228E+02  0.10000013376E+02 0.  0.
         12    1    1    2    0    0 -0.37301243001E+02 -0.22057983130E+02 -0.12295365266E+02  0.45045680772E+02  0.00000000000E+00 0. -1.
         11    1    3    3    0    0  0.15354259530E+00  0.70222727382E+00 -0.92558212567E+00  0.11719219279E+01  0.51100000000E-03 0. -1.
        -11    1    3    3    0    0  0.20461648526E+02  0.11898773974E+02  0.55371172637E+01  0.24308836878E+02  0.51100000000E-03 0.  1.
        -12    1    3    3    0    0  0.16686051880E+02  0.94569818820E+01  0.76838301282E+01  0.20661560423E+02  0.00000000000E+00 0.  1.
</event>
<event>
 7    1  0.2478637E-008  0.4614232E+02  0.7816164E-02  0.1320468E+00
        -11   -1    0    0    0    0  0.00000000000E+00  0.00000000000E+00  0.45593999997E+02  0.45594000000E+02  0.51100000000E-03 0. -1.
         11   -1    0    0    0    0 -0.00000000000E+00 -0.00000000000E+00 -0.45593999997E+02  0.45594000000E+02  0.51100000000E-03 0.  1.
    9900012    2    1    2    0    0 -0.22071360989E+02  0.38692809448E+02 -0.66958901363E+01  0.46142318480E+02  0.10000006557E+02 0.  0.
         12    1    1    2    0    0  0.22071360989E+02 -0.38692809448E+02  0.66958901363E+01  0.45045681520E+02  0.00000000000E+00 0. -1.
         11    1    3    3    0    0 -0.11100181911E+02  0.20577947928E+02 -0.35762347513E+01  0.23652810291E+02  0.51100000000E-03 0. -1.
        -11    1    3    3    0    0 -0.74373323007E+00  0.64215408724E+01 -0.25344726259E+01  0.69435493838E+01  0.51100000000E-03 0.  1.
         12    1    3    3    0    0 -0.10227445847E+02  0.11693320648E+02 -0.58518275906E+00  0.15545958806E+02  0.00000000000E+00 0. -1.
</event>
<event>
 7    1  0.2478637E-008  0.4614232E+02  0.7816164E-02  0.1320468E+00
        -11   -1    0    0    0    0  0.00000000000E+00  0.00000000000E+00  0.45593999997E+02  0.45594000000E+02  0.51100000000E-03 0.  1.
         11   -1    0    0    0    0 -0.00000000000E+00 -0.00000000000E+00 -0.45593999997E+02  0.45594000000E+02  0.51100000000E-03 0. -1.
    9900012    2    1    2    0    0 -0.23861239312E+02  0.18933371610E+02  0.33185571793E+02  0.46142317884E+02  0.10000001122E+02 0.  0.
         12    1    1    2    0    0  0.23861239312E+02 -0.18933371610E+02 -0.33185571793E+02  0.45045682116E+02  0.00000000000E+00 0. -1.
         11    1    3    3    0    0 -0.48143214231E+01  0.24446179410E+01  0.30769483658E+01  0.62146165730E+01  0.51100000000E-03 0. -1.
        -11    1    3    3    0    0 -0.19383376422E+02  0.16374007288E+02  0.27988695682E+02  0.37778174684E+02  0.51100000000E-03 0.  1.
        -12    1    3    3    0    0  0.33645853305E+00  0.11474638102E+00  0.21199277454E+01  0.21495266275E+01  0.00000000000E+00 0.  1.
</event>
<event>
 7    1  0.2478637E-008  0.4614232E+02  0.7816164E-02  0.1320468E+00
        -11   -1    0    0    0    0  0.00000000000E+00  0.00000000000E+00  0.45593999997E+02  0.45594000000E+02  0.51100000000E-03 0. -1.
         11   -1    0    0    0    0 -0.00000000000E+00 -0.00000000000E+00 -0.45593999997E+02  0.45594000000E+02  0.51100000000E-03 0.  1.
    9900012    2    1    2    0    0 -0.17525551505E+02  0.40044795658E+02 -0.10880382707E+02  0.46142319378E+02  0.10000014743E+02 0.  0.
         12    1    1    2    0    0  0.17525551505E+02 -0.40044795658E+02  0.10880382707E+02  0.45045680622E+02  0.00000000000E+00 0. -1.
         11    1    3    3    0    0 -0.98819719294E+00  0.57958978074E+00  0.86303691702E+00  0.14343259697E+01  0.51100000000E-03 0. -1.
        -11    1    3    3    0    0 -0.36106512842E+01  0.49280786814E+01 -0.30121721249E+01  0.68114567720E+01  0.51100000000E-03 0.  1.
        -12    1    3    3    0    0 -0.12926703028E+02  0.34537127196E+02 -0.87312474989E+01  0.37896536636E+02  0.00000000000E+00 0.  1.
</event>
<event>
 7    1  0.2478637E-008  0.4614232E+02  0.7816164E-02  0.1320468E+00
        -11   -1    0    0    0    0  0.00000000000E+00  0.00000000000E+00  0.45593999997E+02  0.45594000000E+02  0.51100000000E-03 0. -1.
         11   -1    0    0    0    0 -0.00000000000E+00 -0.00000000000E+00 -0.45593999997E+02  0.45594000000E+02  0.51100000000E-03 0.  1.
    9900012    2    1    2    0    0  0.16704849651E+02  0.33265598639E+02 -0.25366542439E+02  0.46142317299E+02  0.99999957858E+01 0.  0.
         12    1    1    2    0    0 -0.16704849651E+02 -0.33265598639E+02  0.25366542439E+02  0.45045682701E+02  0.00000000000E+00 0. -1.
         11    1    3    3    0    0 -0.34686019534E+00  0.60394152469E+01 -0.31957607967E+01  0.68416179264E+01  0.51100000000E-03 0. -1.
        -11    1    3    3    0    0  0.40310747976E+01  0.58579635453E+01 -0.27438387631E+01  0.76219388833E+01  0.51100000000E-03 0.  1.
        -12    1    3    3    0    0  0.13020635049E+02  0.21368219847E+02 -0.19426942879E+02  0.31678760489E+02  0.00000000000E+00 0.  1.
</event>
<event>
 7    1  0.2478637E-008  0.4614232E+02  0.7816164E-02  0.1320468E+00
        -11   -1    0    0    0    0  0.00000000000E+00  0.00000000000E+00  0.45593999997E+02  0.45594000000E+02  0.51100000000E-03 0.  1.
         11   -1    0    0    0    0 -0.00000000000E+00 -0.00000000000E+00 -0.45593999997E+02  0.45594000000E+02  0.51100000000E-03 0. -1.
    9900012    2    1    2    0    0  0.21796203748E+01  0.32010022270E+02  0.31618368217E+02  0.46142317861E+02  0.10000000911E+02 0.  0.
         12    1    1    2    0    0 -0.21796203748E+01 -0.32010022270E+02 -0.31618368217E+02  0.45045682139E+02  0.00000000000E+00 0. -1.
         11    1    3    3    0    0  0.32283623517E+01  0.41080965176E+01  0.59616612131E+01  0.79271801514E+01  0.51100000000E-03 0. -1.
        -11    1    3    3    0    0 -0.49799630046E+00  0.28112842028E+01  0.97941805582E+00  0.30183735974E+01  0.51100000000E-03 0.  1.
        -12    1    3    3    0    0 -0.55074567645E+00  0.25090641549E+02  0.24677288948E+02  0.35196764112E+02  0.00000000000E+00 0.  1.
</event>
<event>
 7    1  0.2478637E-008  0.4614232E+02  0.7816164E-02  0.1320468E+00
        -11   -1    0    0    0    0  0.00000000000E+00  0.00000000000E+00  0.45593999997E+02  0.45594000000E+02  0.51100000000E-03 0.  1.
         11   -1    0    0    0    0 -0.00000000000E+00 -0.00000000000E+00 -0.45593999997E+02  0.45594000000E+02  0.51100000000E-03 0. -1.
    9900012    2    1    2    0    0 -0.44948037112E+02  0.24766832495E+01 -0.16289479434E+01  0.46142317947E+02  0.10000001699E+02 0.  0.
         12    1    1    2    0    0  0.44948037112E+02 -0.24766832495E+01  0.16289479434E+01  0.45045682053E+02  0.00000000000E+00 0. -1.
         11    1    3    3    0    0 -0.11944412352E+02  0.20096643444E+01  0.15736968281E+01  0.12214100834E+02  0.51100000000E-03 0. -1.
        -11    1    3    3    0    0 -0.15673533449E+02  0.23111854779E+01 -0.44487801737E+01  0.16455785438E+02  0.51100000000E-03 0.  1.
        -12    1    3    3    0    0 -0.17330091311E+02 -0.18441665729E+01  0.12461354023E+01  0.17472431675E+02  0.00000000000E+00 0.  1.
</event>
<event>
 7    1  0.2478637E-008  0.4614232E+02  0.7816164E-02  0.1320468E+00
        -11   -1    0    0    0    0  0.00000000000E+00  0.00000000000E+00  0.45593999997E+02  0.45594000000E+02  0.51100000000E-03 0.  1.
         11   -1    0    0    0    0 -0.00000000000E+00 -0.00000000000E+00 -0.45593999997E+02  0.45594000000E+02  0.51100000000E-03 0. -1.
    9900012    2    1    2    0    0  0.25342964190E+02 -0.18275958229E+02  0.32447449380E+02  0.46142318138E+02  0.10000003438E+02 0.  0.
         12    1    1    2    0    0 -0.25342964190E+02  0.18275958229E+02 -0.32447449380E+02  0.45045681862E+02  0.00000000000E+00 0. -1.
         11    1    3    3    0    0  0.47366765201E+01 -0.23987297917E+01  0.90915099162E+01  0.10528321893E+02  0.51100000000E-03 0.  1.
        -11    1    3    3    0    0  0.96311985672E+01 -0.72606286181E+01  0.15367894001E+02  0.19535835791E+02  0.51100000000E-03 0. -1.
        -12    1    3    3    0    0  0.10975089103E+02 -0.86165998195E+01  0.79880454629E+01  0.16078160454E+02  0.00000000000E+00 0.  1.
</event>
<event>
 7    1  0.2478637E-008  0.4614232E+02  0.7816164E-02  0.1320468E+00
        -11   -1    0    0    0    0  0.00000000000E+00  0.00000000000E+00  0.45593999997E+02  0.45594000000E+02  0.51100000000E-03 0. -1.
         11   -1    0    0    0    0 -0.00000000000E+00 -0.00000000000E+00 -0.45593999997E+02  0.45594000000E+02  0.51100000000E-03 0.  1.
    9900012    2    1    2    0    0 -0.21631558699E+02  0.24386652807E+02 -0.31088268880E+02  0.46142316202E+02  0.99999857834E+01 0.  0.
         12    1    1    2    0    0  0.21631558699E+02 -0.24386652807E+02  0.31088268880E+02  0.45045683798E+02  0.00000000000E+00 0. -1.
         11    1    3    3    0    0 -0.74760113476E+01  0.12490269800E+02 -0.12546597098E+02  0.19217561873E+02  0.51100000000E-03 0. -1.
        -11    1    3    3    0    0 -0.43221147591E+01  0.62542899300E+01 -0.10756837093E+02  0.13172181407E+02  0.51100000000E-03 0.  1.
        -12    1    3    3    0    0 -0.98334325924E+01  0.56420930775E+01 -0.77848346892E+01  0.13752572922E+02  0.00000000000E+00 0.  1.
</event>
<event>
 7    1  0.2478637E-008  0.4614232E+02  0.7816164E-02  0.1320468E+00
        -11   -1    0    0    0    0  0.00000000000E+00  0.00000000000E+00  0.45593999997E+02  0.45594000000E+02  0.51100000000E-03 0.  1.
         11   -1    0    0    0    0 -0.00000000000E+00 -0.00000000000E+00 -0.45593999997E+02  0.45594000000E+02  0.51100000000E-03 0. -1.
    9900012    2    1    2    0    0  0.38573610558E+02  0.85215458614E+01  0.21646555508E+02  0.46142317180E+02  0.99999947031E+01 0.  0.
         12    1    1    2    0    0 -0.38573610558E+02 -0.85215458614E+01 -0.21646555508E+02  0.45045682820E+02  0.00000000000E+00 0. -1.
         11    1    3    3    0    0  0.54068769824E+01  0.46635248389E+01  0.34595639606E+01  0.79341896678E+01  0.51100000000E-03 0. -1.
        -11    1    3    3    0    0  0.12679553145E+02  0.21899222850E+01  0.51031431582E+01  0.13842286586E+02  0.51100000000E-03 0.  1.
         12    1    3    3    0    0  0.20487180431E+02  0.16680987376E+01  0.13083848389E+02  0.24365840927E+02  0.00000000000E+00 0. -1.
</event>
<event>
 7    1  0.2478637E-008  0.4614232E+02  0.7816164E-02  0.1320468E+00
        -11   -1    0    0    0    0  0.00000000000E+00  0.00000000000E+00  0.45593999997E+02  0.45594000000E+02  0.51100000000E-03 0.  1.
         11   -1    0    0    0    0 -0.00000000000E+00 -0.00000000000E+00 -0.45593999997E+02  0.45594000000E+02  0.51100000000E-03 0. -1.
    9900012    2    1    2    0    0  0.18969690114E+02 -0.37431305044E+02  0.16375651809E+02  0.46142315273E+02  0.99999773144E+01 0.  0.
         12    1    1    2    0    0 -0.18969690114E+02  0.37431305044E+02 -0.16375651809E+02  0.45045684727E+02  0.00000000000E+00 0. -1.
         11    1    3    3    0    0  0.45490114720E+01 -0.13092897630E+02  0.24255886176E+01  0.14071281183E+02  0.51100000000E-03 0.  1.
        -11    1    3    3    0    0  0.10473610619E+02 -0.13342088303E+02  0.10238089278E+02  0.19812276800E+02  0.51100000000E-03 0. -1.
         12    1    3    3    0    0  0.39470680224E+01 -0.10996319111E+02  0.37119739138E+01  0.12258757290E+02  0.00000000000E+00 0. -1.
</event>
<event>
 7    1  0.2478637E-008  0.4614232E+02  0.7816164E-02  0.1320468E+00
        -11   -1    0    0    0    0  0.00000000000E+00  0.00000000000E+00  0.45593999997E+02  0.45594000000E+02  0.51100000000E-03 0. -1.
         11   -1    0    0    0    0 -0.00000000000E+00 -0.00000000000E+00 -0.45593999997E+02  0.45594000000E+02  0.51100000000E-03 0.  1.
    9900012    2    1    2    0    0  0.26241627045E+02  0.32736435677E+02 -0.16395616774E+02  0.46142318074E+02  0.10000002849E+02 0.  0.
         12    1    1    2    0    0 -0.26241627045E+02 -0.32736435677E+02  0.16395616774E+02  0.45045681926E+02  0.00000000000E+00 0. -1.
         11    1    3    3    0    0  0.16904398536E+02  0.14269758460E+02 -0.10732312961E+02  0.24587949043E+02  0.51100000000E-03 0. -1.
        -11    1    3    3    0    0  0.32976778443E+01  0.58841871764E+01 -0.28188531483E+01  0.73105588859E+01  0.51100000000E-03 0.  1.
         12    1    3    3    0    0  0.60395506645E+01  0.12582490041E+02 -0.28444506644E+01  0.14243810145E+02  0.00000000000E+00 0. -1.
</event>
<event>
 7    1  0.2478637E-008  0.4614232E+02  0.7816164E-02  0.1320468E+00
        -11   -1    0    0    0    0  0.00000000000E+00  0.00000000000E+00  0.45593999997E+02  0.45594000000E+02  0.51100000000E-03 0.  1.
         11   -1    0    0    0    0 -0.00000000000E+00 -0.00000000000E+00 -0.45593999997E+02  0.45594000000E+02  0.51100000000E-03 0. -1.
    9900012    2    1    2    0    0  0.29025148817E+02 -0.26080523731E+02  0.22504678574E+02  0.46142317192E+02  0.99999948071E+01 0.  0.
         12    1    1    2    0    0 -0.29025148817E+02  0.26080523731E+02 -0.22504678574E+02  0.45045682808E+02  0.00000000000E+00 0. -1.
         11    1    3    3    0    0  0.12707546629E+02 -0.77043903919E+01  0.99795580629E+01  0.17900585243E+02  0.51100000000E-03 0. -1.
        -11    1    3    3    0    0  0.16558854768E+02 -0.16535267927E+02  0.12068398387E+02  0.26329773955E+02  0.51100000000E-03 0.  1.
         12    1    3    3    0    0 -0.24125257911E+00 -0.18408654118E+01  0.45672212369E+00  0.19119579937E+01  0.00000000000E+00 0. -1.
</event>
<event>
 7    1  0.2478637E-008  0.4614232E+02  0.7816164E-02  0.1320468E+00
        -11   -1    0    0    0    0  0.00000000000E+00  0.00000000000E+00  0.45593999997E+02  0.45594000000E+02  0.51100000000E-03 0.  1.
         11   -1    0    0    0    0 -0.00000000000E+00 -0.00000000000E+00 -0.45593999997E+02  0.45594000000E+02  0.51100000000E-03 0. -1.
    9900012    2    1    2    0    0 -0.23000721058E+02 -0.38621328057E+02  0.29108999497E+01  0.46142317759E+02  0.99999999827E+01 0.  0.
         12    1    1    2    0    0  0.23000721058E+02  0.38621328057E+02 -0.29108999497E+01  0.45045682241E+02  0.00000000000E+00 0. -1.
         11    1    3    3    0    0 -0.10985755020E+02 -0.15570774190E+02 -0.14568328498E+01  0.19111728976E+02  0.51100000000E-03 0.  1.
        -11    1    3    3    0    0  0.69046335458E+00 -0.14203912074E+01  0.82095847335E-01  0.15814521224E+01  0.51100000000E-03 0. -1.
         12    1    3    3    0    0 -0.12705429392E+02 -0.21630162659E+02  0.42856369522E+01  0.25449136661E+02  0.00000000000E+00 0. -1.
</event>
<event>
 7    1  0.2478637E-008  0.4614232E+02  0.7816164E-02  0.1320468E+00
        -11   -1    0    0    0    0  0.00000000000E+00  0.00000000000E+00  0.45593999997E+02  0.45594000000E+02  0.51100000000E-03 0.  1.
         11   -1    0    0    0    0 -0.00000000000E+00 -0.00000000000E+00 -0.45593999997E+02  0.45594000000E+02  0.51100000000E-03 0. -1.
    9900012    2    1    2    0    0  0.15016930567E+02 -0.42468389757E+02  0.20286095625E+00  0.46142317801E+02  0.10000000364E+02 0.  0.
         12    1    1    2    0    0 -0.15016930567E+02  0.42468389757E+02 -0.20286095625E+00  0.45045682199E+02  0.00000000000E+00 0. -1.
         11    1    3    3    0    0  0.52956175996E+01 -0.11646210175E+02  0.22272325168E+01  0.12986082633E+02  0.51100000000E-03 0. -1.
        -11    1    3    3    0    0  0.23689621890E+01 -0.95036714726E+01  0.26055381294E+01  0.10135116305E+02  0.51100000000E-03 0.  1.
        -12    1    3    3    0    0  0.73523507788E+01 -0.21318508109E+02 -0.46299096900E+01  0.23021118863E+02  0.00000000000E+00 0.  1.
</event>
<event>
 7    1  0.2478637E-008  0.4614232E+02  0.7816164E-02  0.1320468E+00
        -11   -1    0    0    0    0  0.00000000000E+00  0.00000000000E+00  0.45593999997E+02  0.45594000000E+02  0.51100000000E-03 0. -1.
         11   -1    0    0    0    0 -0.00000000000E+00 -0.00000000000E+00 -0.45593999997E+02  0.45594000000E+02  0.51100000000E-03 0.  1.
    9900012    2    1    2    0    0 -0.13300763285E+02  0.26045089674E+02  0.34261587286E+02  0.46142319147E+02  0.10000012641E+02 0.  0.
         12    1    1    2    0    0  0.13300763285E+02 -0.26045089674E+02 -0.34261587286E+02  0.45045680853E+02  0.00000000000E+00 0. -1.
         11    1    3    3    0    0 -0.40170202004E+01  0.11606508447E+02  0.13756736645E+02  0.18441672728E+02  0.51100000000E-03 0. -1.
        -11    1    3    3    0    0 -0.31808506155E+01  0.42436400283E+01  0.11905473412E+02  0.13033287718E+02  0.51100000000E-03 0.  1.
        -12    1    3    3    0    0 -0.61028924687E+01  0.10194941199E+02  0.85993772295E+01  0.14667358701E+02  0.00000000000E+00 0.  1.
</event>
<event>
 7    1  0.2478637E-008  0.4614232E+02  0.7816164E-02  0.1320468E+00
        -11   -1    0    0    0    0  0.00000000000E+00  0.00000000000E+00  0.45593999997E+02  0.45594000000E+02  0.51100000000E-03 0.  1.
         11   -1    0    0    0    0 -0.00000000000E+00 -0.00000000000E+00 -0.45593999997E+02  0.45594000000E+02  0.51100000000E-03 0. -1.
    9900012    2    1    2    0    0 -0.35101973206E+02 -0.17788981632E+02  0.21920699189E+02  0.46142318260E+02  0.10000004552E+02 0.  0.
         12    1    1    2    0    0  0.35101973206E+02  0.17788981632E+02 -0.21920699189E+02  0.45045681740E+02  0.00000000000E+00 0. -1.
         11    1    3    3    0    0 -0.91534718035E+01 -0.38300982918E+01  0.72563495473E+01  0.12292693277E+02  0.51100000000E-03 0. -1.
        -11    1    3    3    0    0 -0.16431761864E+02 -0.49987483217E+01  0.61171763854E+01  0.18232118087E+02  0.51100000000E-03 0.  1.
         12    1    3    3    0    0 -0.95167395379E+01 -0.89601350183E+01  0.85471732566E+01  0.15617506896E+02  0.00000000000E+00 0. -1.
</event>
<event>
 7    1  0.2478637E-008  0.4614232E+02  0.7816164E-02  0.1320468E+00
        -11   -1    0    0    0    0  0.00000000000E+00  0.00000000000E+00  0.45593999997E+02  0.45594000000E+02  0.51100000000E-03 0. -1.
         11   -1    0    0    0    0 -0.00000000000E+00 -0.00000000000E+00 -0.45593999997E+02  0.45594000000E+02  0.51100000000E-03 0.  1.
    9900012    2    1    2    0    0  0.21623646655E+02  0.24548958119E+02 -0.30965788202E+02  0.46142317872E+02  0.10000001012E+02 0.  0.
         12    1    1    2    0    0 -0.21623646655E+02 -0.24548958119E+02  0.30965788202E+02  0.45045682128E+02  0.00000000000E+00 0. -1.
         11    1    3    3    0    0  0.11341801435E+02  0.15339628931E+02 -0.23958627878E+02  0.30626075909E+02  0.51100000000E-03 0. -1.
        -11    1    3    3    0    0  0.40257901482E+01  0.34215133318E+01 -0.21288845881E+01  0.56961293566E+01  0.51100000000E-03 0.  1.
         12    1    3    3    0    0  0.62560550717E+01  0.57878158559E+01 -0.48782757362E+01  0.98201126062E+01  0.00000000000E+00 0. -1.
</event>
<event>
 7    1  0.2478637E-008  0.4614232E+02  0.7816164E-02  0.1320468E+00
        -11   -1    0    0    0    0  0.00000000000E+00  0.00000000000E+00  0.45593999997E+02  0.45594000000E+02  0.51100000000E-03 0. -1.
         11   -1    0    0    0    0 -0.00000000000E+00 -0.00000000000E+00 -0.45593999997E+02  0.45594000000E+02  0.51100000000E-03 0.  1.
    9900012    2    1    2    0    0 -0.25352037685E+02  0.33026198113E+02 -0.17194707438E+02  0.46142317183E+02  0.99999947313E+01 0.  0.
         12    1    1    2    0    0  0.25352037685E+02 -0.33026198113E+02  0.17194707438E+02  0.45045682817E+02  0.00000000000E+00 0. -1.
         11    1    3    3    0    0 -0.14696485201E+01  0.48652151766E+01 -0.46853124461E+01  0.69124770138E+01  0.51100000000E-03 0. -1.
        -11    1    3    3    0    0 -0.17104833330E+02  0.18170987827E+02 -0.10089424762E+02  0.26917589308E+02  0.51100000000E-03 0.  1.
         12    1    3    3    0    0 -0.67775558345E+01  0.99899951091E+01 -0.24199702304E+01  0.12312250862E+02  0.00000000000E+00 0. -1.
</event>
<event>
 7    1  0.2478637E-008  0.4614232E+02  0.7816164E-02  0.1320468E+00
        -11   -1    0    0    0    0  0.00000000000E+00  0.00000000000E+00  0.45593999997E+02  0.45594000000E+02  0.51100000000E-03 0.  1.
         11   -1    0    0    0    0 -0.00000000000E+00 -0.00000000000E+00 -0.45593999997E+02  0.45594000000E+02  0.51100000000E-03 0. -1.
    9900012    2    1    2    0    0  0.37755404219E+02 -0.10829847281E+02  0.22053508727E+02  0.46142318886E+02  0.10000010258E+02 0.  0.
         12    1    1    2    0    0 -0.37755404219E+02  0.10829847281E+02 -0.22053508727E+02  0.45045681114E+02  0.00000000000E+00 0. -1.
         11    1    3    3    0    0  0.15372425104E+01 -0.15169488714E+01  0.86065729104E+00  0.23248612105E+01  0.51100000000E-03 0. -1.
        -11    1    3    3    0    0  0.85571246111E+01  0.13419296987E+01  0.38937056256E+01  0.94966362827E+01  0.51100000000E-03 0.  1.
        -12    1    3    3    0    0  0.27661037097E+02 -0.10654828108E+02  0.17299145811E+02  0.34320821393E+02  0.00000000000E+00 0.  1.
</event>
<event>
 7    1  0.2478637E-008  0.4614232E+02  0.7816164E-02  0.1320468E+00
        -11   -1    0    0    0    0  0.00000000000E+00  0.00000000000E+00  0.45593999997E+02  0.45594000000E+02  0.51100000000E-03 0. -1.
         11   -1    0    0    0    0 -0.00000000000E+00 -0.00000000000E+00 -0.45593999997E+02  0.45594000000E+02  0.51100000000E-03 0.  1.
    9900012    2    1    2    0    0  0.93148315859E+01 -0.42927490548E+02  0.99788870618E+01  0.46142315199E+02  0.99999766380E+01 0.  0.
         12    1    1    2    0    0 -0.93148315859E+01  0.42927490548E+02 -0.99788870618E+01  0.45045684801E+02  0.00000000000E+00 0. -1.
         11    1    3    3    0    0  0.44211680318E+01 -0.19285097826E+02  0.12034534284E+01  0.19821958161E+02  0.51100000000E-03 0.  1.
        -11    1    3    3    0    0  0.44007319815E+01 -0.23262223895E+02  0.73898475691E+01  0.24801357823E+02  0.51100000000E-03 0. -1.
        -12    1    3    3    0    0  0.49293157257E+00 -0.38016882582E+00  0.13855860643E+01  0.15189992143E+01  0.00000000000E+00 0.  1.
</event>
<event>
 7    1  0.2478637E-008  0.4614232E+02  0.7816164E-02  0.1320468E+00
        -11   -1    0    0    0    0  0.00000000000E+00  0.00000000000E+00  0.45593999997E+02  0.45594000000E+02  0.51100000000E-03 0.  1.
         11   -1    0    0    0    0 -0.00000000000E+00 -0.00000000000E+00 -0.45593999997E+02  0.45594000000E+02  0.51100000000E-03 0. -1.
    9900012    2    1    2    0    0 -0.67098155804E+01 -0.35843688344E+02  0.26444695600E+02  0.46142317137E+02  0.99999943088E+01 0.  0.
         12    1    1    2    0    0  0.67098155804E+01  0.35843688344E+02 -0.26444695600E+02  0.45045682863E+02  0.00000000000E+00 0. -1.
         11    1    3    3    0    0 -0.30517322802E+01 -0.18901439985E+02  0.14135533795E+02  0.23798966771E+02  0.51100000000E-03 0. -1.
        -11    1    3    3    0    0 -0.36057890711E+01 -0.17413863510E+02  0.10903561299E+02  0.20859817987E+02  0.51100000000E-03 0.  1.
         12    1    3    3    0    0 -0.52294229155E-01  0.47161515184E+00  0.14056005059E+01  0.14835323792E+01  0.00000000000E+00 0. -1.
</event>
<event>
 7    1  0.2478637E-008  0.4614232E+02  0.7816164E-02  0.1320468E+00
        -11   -1    0    0    0    0  0.00000000000E+00  0.00000000000E+00  0.45593999997E+02  0.45594000000E+02  0.51100000000E-03 0.  1.
         11   -1    0    0    0    0 -0.00000000000E+00 -0.00000000000E+00 -0.45593999997E+02  0.45594000000E+02  0.51100000000E-03 0. -1.
    9900012    2    1    2    0    0 -0.68662010196E+01  0.44519112025E+02 -0.13201287506E+00  0.46142317861E+02  0.10000000913E+02 0.  0.
         12    1    1    2    0    0  0.68662010196E+01 -0.44519112025E+02  0.13201287506E+00  0.45045682139E+02  0.00000000000E+00 0. -1.
         11    1    3    3    0    0 -0.59850916942E+01  0.28936420053E+02  0.21947563466E+01  0.29630300095E+02  0.51100000000E-03 0. -1.
        -11    1    3    3    0    0 -0.24503032462E+01  0.10017851455E+02 -0.28690188116E+01  0.10704793458E+02  0.51100000000E-03 0.  1.
        -12    1    3    3    0    0  0.15691939208E+01  0.55648405172E+01  0.54224958995E+00  0.58072243078E+01  0.00000000000E+00 0.  1.
</event>
<event>
 7    1  0.2478637E-008  0.4614232E+02  0.7816164E-02  0.1320468E+00
        -11   -1    0    0    0    0  0.00000000000E+00  0.00000000000E+00  0.45593999997E+02  0.45594000000E+02  0.51100000000E-03 0. -1.
         11   -1    0    0    0    0 -0.00000000000E+00 -0.00000000000E+00 -0.45593999997E+02  0.45594000000E+02  0.51100000000E-03 0.  1.
    9900012    2    1    2    0    0  0.19388069547E+02 -0.25739098517E+02 -0.31475627360E+02  0.46142317066E+02  0.99999936658E+01 0.  0.
         12    1    1    2    0    0 -0.19388069547E+02  0.25739098517E+02  0.31475627360E+02  0.45045682934E+02  0.00000000000E+00 0. -1.
         11    1    3    3    0    0  0.86759007105E+01 -0.16372799240E+02 -0.16246198580E+02  0.24643026938E+02  0.51100000000E-03 0. -1.
        -11    1    3    3    0    0  0.55806242814E+01 -0.19900944423E+01 -0.41478748166E+01  0.72324759947E+01  0.51100000000E-03 0.  1.
        -12    1    3    3    0    0  0.51315445549E+01 -0.73762048348E+01 -0.11081553963E+02  0.14266814134E+02  0.00000000000E+00 0.  1.
</event>
<event>
 7    1  0.2478637E-008  0.4614232E+02  0.7816164E-02  0.1320468E+00
        -11   -1    0    0    0    0  0.00000000000E+00  0.00000000000E+00  0.45593999997E+02  0.45594000000E+02  0.51100000000E-03 0. -1.
         11   -1    0    0    0    0 -0.00000000000E+00 -0.00000000000E+00 -0.45593999997E+02  0.45594000000E+02  0.51100000000E-03 0.  1.
    9900012    2    1    2    0    0 -0.39712522582E+02  0.12428878228E+02  0.17249695924E+02  0.46142317928E+02  0.10000001525E+02 0.  0.
         12    1    1    2    0    0  0.39712522582E+02 -0.12428878228E+02 -0.17249695924E+02  0.45045682072E+02  0.00000000000E+00 0. -1.
         11    1    3    3    0    0 -0.99989790397E+01  0.15216203888E+01  0.31955594072E+01  0.10606908627E+02  0.51100000000E-03 0. -1.
        -11    1    3    3    0    0 -0.64588454228E+01  0.56147185732E+00  0.60149973063E+01  0.88437620783E+01  0.51100000000E-03 0.  1.
        -12    1    3    3    0    0 -0.23254698119E+02  0.10345785982E+02  0.80391392105E+01  0.26691647223E+02  0.00000000000E+00 0.  1.
</event>
<event>
 7    1  0.2478637E-008  0.4614232E+02  0.7816164E-02  0.1320468E+00
        -11   -1    0    0    0    0  0.00000000000E+00  0.00000000000E+00  0.45593999997E+02  0.45594000000E+02  0.51100000000E-03 0.  1.
         11   -1    0    0    0    0 -0.00000000000E+00 -0.00000000000E+00 -0.45593999997E+02  0.45594000000E+02  0.51100000000E-03 0. -1.
    9900012    2    1    2    0    0 -0.14866565316E+02  0.42162576916E+02  0.55150528976E+01  0.46142318021E+02  0.10000002367E+02 0.  0.
         12    1    1    2    0    0  0.14866565316E+02 -0.42162576916E+02 -0.55150528976E+01  0.45045681979E+02  0.00000000000E+00 0. -1.
         11    1    3    3    0    0 -0.14046324806E+01  0.10466049301E+02  0.13969578438E+00  0.10560809417E+02  0.51100000000E-03 0.  1.
        -11    1    3    3    0    0 -0.23648434249E+01  0.16284287030E+01  0.16593644701E+01  0.33162863523E+01  0.51100000000E-03 0. -1.
         12    1    3    3    0    0 -0.11097089411E+02  0.30068098912E+02  0.37159926431E+01  0.32265222251E+02  0.00000000000E+00 0. -1.
</event>
<event>
 7    1  0.2478637E-008  0.4614232E+02  0.7816164E-02  0.1320468E+00
        -11   -1    0    0    0    0  0.00000000000E+00  0.00000000000E+00  0.45593999997E+02  0.45594000000E+02  0.51100000000E-03 0. -1.
         11   -1    0    0    0    0 -0.00000000000E+00 -0.00000000000E+00 -0.45593999997E+02  0.45594000000E+02  0.51100000000E-03 0.  1.
    9900012    2    1    2    0    0 -0.39374973695E+02  0.21879739151E+02 -0.44209464493E-01  0.46142317707E+02  0.99999995081E+01 0.  0.
         12    1    1    2    0    0  0.39374973695E+02 -0.21879739151E+02  0.44209464493E-01  0.45045682293E+02  0.00000000000E+00 0. -1.
         11    1    3    3    0    0 -0.85031497242E+01  0.28353480128E+01 -0.24852324033E+01  0.93015662092E+01  0.51100000000E-03 0. -1.
        -11    1    3    3    0    0 -0.55624699064E+01  0.94019881644E+00  0.44390164801E+00  0.56588067831E+01  0.51100000000E-03 0.  1.
        -12    1    3    3    0    0 -0.25309354064E+02  0.18104192322E+02  0.19971212908E+01  0.31181944715E+02  0.00000000000E+00 0.  1.
</event>
<event>
 7    1  0.2478637E-008  0.4614232E+02  0.7816164E-02  0.1320468E+00
        -11   -1    0    0    0    0  0.00000000000E+00  0.00000000000E+00  0.45593999997E+02  0.45594000000E+02  0.51100000000E-03 0.  1.
         11   -1    0    0    0    0 -0.00000000000E+00 -0.00000000000E+00 -0.45593999997E+02  0.45594000000E+02  0.51100000000E-03 0. -1.
    9900012    2    1    2    0    0 -0.28822907362E+02 -0.50471865254E+01  0.34247327129E+02  0.46142317675E+02  0.99999992156E+01 0.  0.
         12    1    1    2    0    0  0.28822907362E+02  0.50471865254E+01 -0.34247327129E+02  0.45045682325E+02  0.00000000000E+00 0. -1.
         11    1    3    3    0    0 -0.28188342295E+00 -0.78404558603E+00  0.19145914854E+01  0.20880245598E+01  0.51100000000E-03 0. -1.
        -11    1    3    3    0    0 -0.25585064074E+01  0.10976290100E+01  0.62887795604E+01  0.68774626935E+01  0.51100000000E-03 0.  1.
        -12    1    3    3    0    0 -0.25982517532E+02 -0.53607699494E+01  0.26043956083E+02  0.37176830422E+02  0.00000000000E+00 0.  1.
</event>
<event>
 7    1  0.2478637E-008  0.4614232E+02  0.7816164E-02  0.1320468E+00
        -11   -1    0    0    0    0  0.00000000000E+00  0.00000000000E+00  0.45593999997E+02  0.45594000000E+02  0.51100000000E-03 0.  1.
         11   -1    0    0    0    0 -0.00000000000E+00 -0.00000000000E+00 -0.45593999997E+02  0.45594000000E+02  0.51100000000E-03 0. -1.
    9900012    2    1    2    0    0 -0.41240629029E+00  0.83505170857E+01  0.44262990109E+02  0.46142317544E+02  0.99999980209E+01 0.  0.
         12    1    1    2    0    0  0.41240629029E+00 -0.83505170857E+01 -0.44262990109E+02  0.45045682456E+02  0.00000000000E+00 0. -1.
         11    1    3    3    0    0  0.59606274749E+00  0.62115852592E+00  0.11049081255E+01  0.14006965910E+01  0.51100000000E-03 0. -1.
        -11    1    3    3    0    0 -0.26866517475E+01  0.72300784867E+01  0.41853170851E+02  0.42557960984E+02  0.51100000000E-03 0.  1.
        -12    1    3    3    0    0  0.16781827097E+01  0.49928007311E+00  0.13049111321E+01  0.21836599692E+01  0.00000000000E+00 0.  1.
</event>
<event>
 7    1  0.2478637E-008  0.4614232E+02  0.7816164E-02  0.1320468E+00
        -11   -1    0    0    0    0  0.00000000000E+00  0.00000000000E+00  0.45593999997E+02  0.45594000000E+02  0.51100000000E-03 0.  1.
         11   -1    0    0    0    0 -0.00000000000E+00 -0.00000000000E+00 -0.45593999997E+02  0.45594000000E+02  0.51100000000E-03 0. -1.
    9900012    2    1    2    0    0 -0.92837528296E+01  0.45457658314E+01  0.43843602143E+02  0.46142317605E+02  0.99999985731E+01 0.  0.
         12    1    1    2    0    0  0.92837528296E+01 -0.45457658314E+01 -0.43843602143E+02  0.45045682395E+02  0.00000000000E+00 0. -1.
         11    1    3    3    0    0 -0.13167958548E+00 -0.12123978349E+01  0.11409965472E+01  0.16700662877E+01  0.51100000000E-03 0. -1.
        -11    1    3    3    0    0 -0.28163844609E+01  0.35389015178E+01  0.86166664687E+01  0.97315356794E+01  0.51100000000E-03 0.  1.
        -12    1    3    3    0    0 -0.63356887833E+01  0.22192621485E+01  0.34085939127E+02  0.34740715638E+02  0.00000000000E+00 0.  1.
</event>
<event>
 7    1  0.2478637E-008  0.4614232E+02  0.7816164E-02  0.1320468E+00
        -11   -1    0    0    0    0  0.00000000000E+00  0.00000000000E+00  0.45593999997E+02  0.45594000000E+02  0.51100000000E-03 0.  1.
         11   -1    0    0    0    0 -0.00000000000E+00 -0.00000000000E+00 -0.45593999997E+02  0.45594000000E+02  0.51100000000E-03 0. -1.
    9900012    2    1    2    0    0  0.28487988358E+02 -0.10081170980E+02  0.33405359346E+02  0.46142317387E+02  0.99999965901E+01 0.  0.
         12    1    1    2    0    0 -0.28487988358E+02  0.10081170980E+02 -0.33405359346E+02  0.45045682613E+02  0.00000000000E+00 0. -1.
         11    1    3    3    0    0  0.22447392503E+01 -0.24030849673E+01  0.13273980984E+01  0.35462173699E+01  0.51100000000E-03 0. -1.
        -11    1    3    3    0    0  0.13130400937E+02 -0.40047840783E+01  0.11435950626E+02  0.17866916110E+02  0.51100000000E-03 0.  1.
         12    1    3    3    0    0  0.13112848171E+02 -0.36733019344E+01  0.20642010621E+02  0.24729183908E+02  0.00000000000E+00 0. -1.
</event>
<event>
 7    1  0.2478637E-008  0.4614232E+02  0.7816164E-02  0.1320468E+00
        -11   -1    0    0    0    0  0.00000000000E+00  0.00000000000E+00  0.45593999997E+02  0.45594000000E+02  0.51100000000E-03 0.  1.
         11   -1    0    0    0    0 -0.00000000000E+00 -0.00000000000E+00 -0.45593999997E+02  0.45594000000E+02  0.51100000000E-03 0. -1.
    9900012    2    1    2    0    0  0.42859587803E+02 -0.13556083178E+02  0.28985865573E+01  0.46142318056E+02  0.10000002693E+02 0.  0.
         12    1    1    2    0    0 -0.42859587803E+02  0.13556083178E+02 -0.28985865573E+01  0.45045681944E+02  0.00000000000E+00 0. -1.
         11    1    3    3    0    0  0.38689472552E+00  0.80747795823E-01 -0.72174248197E+00  0.82287314123E+00  0.51100000000E-03 0. -1.
        -11    1    3    3    0    0  0.20986016881E+02 -0.36996817211E+01  0.37982822530E+01  0.21645496014E+02  0.51100000000E-03 0.  1.
        -12    1    3    3    0    0  0.21486676196E+02 -0.99371492524E+01 -0.17795321380E+00  0.23673948901E+02  0.00000000000E+00 0.  1.
</event>
<event>
 7    1  0.2478637E-008  0.4614232E+02  0.7816164E-02  0.1320468E+00
        -11   -1    0    0    0    0  0.00000000000E+00  0.00000000000E+00  0.45593999997E+02  0.45594000000E+02  0.51100000000E-03 0.  1.
         11   -1    0    0    0    0 -0.00000000000E+00 -0.00000000000E+00 -0.45593999997E+02  0.45594000000E+02  0.51100000000E-03 0. -1.
    9900012    2    1    2    0    0 -0.10001609187E+02 -0.41720039826E+02 -0.13730246907E+02  0.46142316638E+02  0.99999897582E+01 0.  0.
         12    1    1    2    0    0  0.10001609187E+02  0.41720039826E+02  0.13730246907E+02  0.45045683362E+02  0.00000000000E+00 0. -1.
         11    1    3    3    0    0 -0.21970881501E+00 -0.93723044049E+01 -0.18309321768E+01  0.95519984673E+01  0.51100000000E-03 0. -1.
        -11    1    3    3    0    0 -0.27654968298E+01 -0.15384674579E+02 -0.89078655567E+01  0.17991282713E+02  0.51100000000E-03 0.  1.
         12    1    3    3    0    0 -0.70164035419E+01 -0.16963060842E+02 -0.29914491735E+01  0.18599035458E+02  0.00000000000E+00 0. -1.
</event>
<event>
 7    1  0.2478637E-008  0.4614232E+02  0.7816164E-02  0.1320468E+00
        -11   -1    0    0    0    0  0.00000000000E+00  0.00000000000E+00  0.45593999997E+02  0.45594000000E+02  0.51100000000E-03 0.  1.
         11   -1    0    0    0    0 -0.00000000000E+00 -0.00000000000E+00 -0.45593999997E+02  0.45594000000E+02  0.51100000000E-03 0. -1.
    9900012    2    1    2    0    0 -0.21256131604E+01  0.35814945880E+02  0.27237564234E+02  0.46142317798E+02  0.10000000333E+02 0.  0.
         12    1    1    2    0    0  0.21256131604E+01 -0.35814945880E+02 -0.27237564234E+02  0.45045682202E+02  0.00000000000E+00 0. -1.
         11    1    3    3    0    0 -0.91659139442E+00  0.11090492866E+02  0.84651071512E+01  0.13982031724E+02  0.51100000000E-03 0. -1.
        -11    1    3    3    0    0 -0.39866976350E+01  0.20614534308E+02  0.16500114526E+02  0.26704055168E+02  0.51100000000E-03 0.  1.
         12    1    3    3    0    0  0.27776758690E+01  0.41099187055E+01  0.22723425565E+01  0.54562309054E+01  0.00000000000E+00 0. -1.
</event>
<event>
 7    1  0.2478637E-008  0.4614231E+02  0.7816164E-02  0.1320468E+00
        -11   -1    0    0    0    0  0.00000000000E+00  0.00000000000E+00  0.45593999997E+02  0.45594000000E+02  0.51100000000E-03 0.  1.
         11   -1    0    0    0    0 -0.00000000000E+00 -0.00000000000E+00 -0.45593999997E+02  0.45594000000E+02  0.51100000000E-03 0. -1.
    9900012    2    1    2    0    0 -0.14795934228E+02  0.19394816997E+02  0.37868659845E+02  0.46142312143E+02  0.99999487718E+01 0.  0.
         12    1    1    2    0    0  0.14795934228E+02 -0.19394816997E+02 -0.37868659845E+02  0.45045687857E+02  0.00000000000E+00 0. -1.
         11    1    3    3    0    0 -0.56433653919E+01  0.68753693792E+01  0.87851670413E+01  0.12501897346E+02  0.51100000000E-03 0. -1.
        -11    1    3    3    0    0 -0.10124193529E+02  0.10245093204E+02  0.25491765495E+02  0.29279537867E+02  0.51100000000E-03 0.  1.
        -12    1    3    3    0    0  0.97162469284E+00  0.22743544136E+01  0.35917273087E+01  0.43608769305E+01  0.00000000000E+00 0.  1.
</event>
<event>
 7    1  0.2478637E-008  0.4614232E+02  0.7816164E-02  0.1320468E+00
        -11   -1    0    0    0    0  0.00000000000E+00  0.00000000000E+00  0.45593999997E+02  0.45594000000E+02  0.51100000000E-03 0.  1.
         11   -1    0    0    0    0 -0.00000000000E+00 -0.00000000000E+00 -0.45593999997E+02  0.45594000000E+02  0.51100000000E-03 0. -1.
    9900012    2    1    2    0    0  0.13156877329E+02  0.14630375851E+02  0.40521131648E+02  0.46142318425E+02  0.10000006050E+02 0.  0.
         12    1    1    2    0    0 -0.13156877329E+02 -0.14630375851E+02 -0.40521131648E+02  0.45045681575E+02  0.00000000000E+00 0. -1.
         11    1    3    3    0    0  0.48675020122E+01  0.75479268596E+01  0.15499119262E+02  0.17913304382E+02  0.51100000000E-03 0. -1.
        -11    1    3    3    0    0 -0.41868836959E+00  0.37022665303E+01  0.73066161851E+01  0.82017508954E+01  0.51100000000E-03 0.  1.
         12    1    3    3    0    0  0.87080636861E+01  0.33801824608E+01  0.17715396200E+02  0.20027263147E+02  0.00000000000E+00 0. -1.
</event>
<event>
 7    1  0.2478637E-008  0.4614232E+02  0.7816164E-02  0.1320468E+00
        -11   -1    0    0    0    0  0.00000000000E+00  0.00000000000E+00  0.45593999997E+02  0.45594000000E+02  0.51100000000E-03 0. -1.
         11   -1    0    0    0    0 -0.00000000000E+00 -0.00000000000E+00 -0.45593999997E+02  0.45594000000E+02  0.51100000000E-03 0.  1.
    9900012    2    1    2    0    0 -0.11819822404E+02 -0.43381447664E+01 -0.43250269523E+02  0.46142317460E+02  0.99999972575E+01 0.  0.
         12    1    1    2    0    0  0.11819822404E+02  0.43381447664E+01  0.43250269523E+02  0.45045682540E+02  0.00000000000E+00 0. -1.
         11    1    3    3    0    0 -0.15371075988E+01 -0.30831547361E+01 -0.50184106089E+01  0.60871165750E+01  0.51100000000E-03 0. -1.
        -11    1    3    3    0    0 -0.84508118745E+01  0.15547887055E+01 -0.27691441953E+02  0.28993957077E+02  0.51100000000E-03 0.  1.
         12    1    3    3    0    0 -0.18319029305E+01 -0.28097787358E+01 -0.10540416961E+02  0.11061243809E+02  0.00000000000E+00 0. -1.
</event>
<event>
 7    1  0.2478637E-008  0.4614232E+02  0.7816164E-02  0.1320468E+00
        -11   -1    0    0    0    0  0.00000000000E+00  0.00000000000E+00  0.45593999997E+02  0.45594000000E+02  0.51100000000E-03 0. -1.
         11   -1    0    0    0    0 -0.00000000000E+00 -0.00000000000E+00 -0.45593999997E+02  0.45594000000E+02  0.51100000000E-03 0.  1.
    9900012    2    1    2    0    0 -0.37186819803E+02  0.24875046162E+02 -0.52427095522E+01  0.46142317720E+02  0.99999996261E+01 0.  0.
         12    1    1    2    0    0  0.37186819803E+02 -0.24875046162E+02  0.52427095522E+01  0.45045682280E+02  0.00000000000E+00 0. -1.
         11    1    3    3    0    0  0.38963138953E+00  0.39808045809E+00  0.11005550472E+00  0.56779674714E+00  0.51100000000E-03 0. -1.
        -11    1    3    3    0    0 -0.22510502577E+02  0.13782385362E+02 -0.60743797142E+01  0.27084589007E+02  0.51100000000E-03 0.  1.
        -12    1    3    3    0    0 -0.15065948616E+02  0.10694580342E+02  0.72161465727E+00  0.18489931966E+02  0.00000000000E+00 0.  1.
</event>
<event>
 7    1  0.2478637E-008  0.4614232E+02  0.7816164E-02  0.1320468E+00
        -11   -1    0    0    0    0  0.00000000000E+00  0.00000000000E+00  0.45593999997E+02  0.45594000000E+02  0.51100000000E-03 0. -1.
         11   -1    0    0    0    0 -0.00000000000E+00 -0.00000000000E+00 -0.45593999997E+02  0.45594000000E+02  0.51100000000E-03 0.  1.
    9900012    2    1    2    0    0  0.37640443923E+02 -0.24451218533E+02 -0.38010591896E+01  0.46142321435E+02  0.10000033502E+02 0.  0.
         12    1    1    2    0    0 -0.37640443923E+02  0.24451218533E+02  0.38010591896E+01  0.45045678565E+02  0.00000000000E+00 0. -1.
         11    1    3    3    0    0  0.64380154238E+01 -0.12758307720E+01  0.98001043755E+00  0.66359782606E+01  0.51100000000E-03 0. -1.
        -11    1    3    3    0    0  0.13348324965E+02 -0.76526437255E+01 -0.86802426305E-01  0.15386626345E+02  0.51100000000E-03 0.  1.
         12    1    3    3    0    0  0.17854103533E+02 -0.15522744035E+02 -0.46942672009E+01  0.24119716829E+02  0.00000000000E+00 0. -1.
</event>
<event>
 7    1  0.2478637E-008  0.4614232E+02  0.7816164E-02  0.1320468E+00
        -11   -1    0    0    0    0  0.00000000000E+00  0.00000000000E+00  0.45593999997E+02  0.45594000000E+02  0.51100000000E-03 0.  1.
         11   -1    0    0    0    0 -0.00000000000E+00 -0.00000000000E+00 -0.45593999997E+02  0.45594000000E+02  0.51100000000E-03 0. -1.
    9900012    2    1    2    0    0 -0.21314767070E+02  0.22047956918E+02  0.32995179208E+02  0.46142317072E+02  0.99999937188E+01 0.  0.
         12    1    1    2    0    0  0.21314767070E+02 -0.22047956918E+02 -0.32995179208E+02  0.45045682928E+02  0.00000000000E+00 0. -1.
         11    1    3    3    0    0 -0.97243170574E+00  0.50188748564E+01  0.38181134052E+01  0.63806518854E+01  0.51100000000E-03 0. -1.
        -11    1    3    3    0    0 -0.16579041763E+02  0.15146139506E+02  0.26664094560E+02  0.34860351500E+02  0.51100000000E-03 0.  1.
        -12    1    3    3    0    0 -0.37632936013E+01  0.18829425556E+01  0.25129712421E+01  0.49013136872E+01  0.00000000000E+00 0.  1.
</event>
<event>
 7    1  0.2478637E-008  0.4614232E+02  0.7816164E-02  0.1320468E+00
        -11   -1    0    0    0    0  0.00000000000E+00  0.00000000000E+00  0.45593999997E+02  0.45594000000E+02  0.51100000000E-03 0.  1.
         11   -1    0    0    0    0 -0.00000000000E+00 -0.00000000000E+00 -0.45593999997E+02  0.45594000000E+02  0.51100000000E-03 0. -1.
    9900012    2    1    2    0    0 -0.22600392870E+02  0.28158851658E+02  0.26933524323E+02  0.46142318553E+02  0.10000007220E+02 0.  0.
         12    1    1    2    0    0  0.22600392870E+02 -0.28158851658E+02 -0.26933524323E+02  0.45045681447E+02  0.00000000000E+00 0. -1.
         11    1    3    3    0    0 -0.82530938677E+01  0.41500931704E+01  0.71373407140E+01  0.11673836749E+02  0.51100000000E-03 0. -1.
        -11    1    3    3    0    0 -0.25426315184E+01  0.21014732941E+01  0.28696226602E+01  0.43721733174E+01  0.51100000000E-03 0.  1.
        -12    1    3    3    0    0 -0.11804667484E+02  0.21907285194E+02  0.16926560949E+02  0.30096308486E+02  0.00000000000E+00 0.  1.
</event>
<event>
 7    1  0.2478637E-008  0.4614232E+02  0.7816164E-02  0.1320468E+00
        -11   -1    0    0    0    0  0.00000000000E+00  0.00000000000E+00  0.45593999997E+02  0.45594000000E+02  0.51100000000E-03 0. -1.
         11   -1    0    0    0    0 -0.00000000000E+00 -0.00000000000E+00 -0.45593999997E+02  0.45594000000E+02  0.51100000000E-03 0.  1.
    9900012    2    1    2    0    0 -0.43141865465E+02  0.11323700221E+02  0.62981509422E+01  0.46142318212E+02  0.10000004112E+02 0.  0.
         12    1    1    2    0    0  0.43141865465E+02 -0.11323700221E+02 -0.62981509422E+01  0.45045681788E+02  0.00000000000E+00 0. -1.
         11    1    3    3    0    0 -0.54787931069E+01 -0.67956068982E+00  0.12310023038E+01  0.56563542651E+01  0.51100000000E-03 0. -1.
        -11    1    3    3    0    0 -0.23707073254E+02  0.95963427859E+01  0.41378757095E+00  0.25579021434E+02  0.51100000000E-03 0.  1.
        -12    1    3    3    0    0 -0.13955999104E+02  0.24069181248E+01  0.46533610675E+01  0.14906942513E+02  0.00000000000E+00 0.  1.
</event>
<event>
 7    1  0.2478637E-008  0.4614232E+02  0.7816164E-02  0.1320468E+00
        -11   -1    0    0    0    0  0.00000000000E+00  0.00000000000E+00  0.45593999997E+02  0.45594000000E+02  0.51100000000E-03 0. -1.
         11   -1    0    0    0    0 -0.00000000000E+00 -0.00000000000E+00 -0.45593999997E+02  0.45594000000E+02  0.51100000000E-03 0.  1.
    9900012    2    1    2    0    0  0.81048227143E+01 -0.51118843319E+01 -0.44014701737E+02  0.46142317836E+02  0.10000000684E+02 0.  0.
         12    1    1    2    0    0 -0.81048227143E+01  0.51118843319E+01  0.44014701737E+02  0.45045682164E+02  0.00000000000E+00 0. -1.
         11    1    3    3    0    0  0.17212287492E+01  0.22119462485E+00 -0.45301533793E+01  0.48511694849E+01  0.51100000000E-03 0. -1.
        -11    1    3    3    0    0  0.63206357030E+01 -0.16679500573E+01 -0.34442853776E+02  0.35057704854E+02  0.51100000000E-03 0.  1.
         12    1    3    3    0    0  0.62958262033E-01 -0.36651288995E+01 -0.50416945808E+01  0.62334434977E+01  0.00000000000E+00 0. -1.
</event>
<event>
 7    1  0.2478637E-008  0.4614232E+02  0.7816164E-02  0.1320468E+00
        -11   -1    0    0    0    0  0.00000000000E+00  0.00000000000E+00  0.45593999997E+02  0.45594000000E+02  0.51100000000E-03 0.  1.
         11   -1    0    0    0    0 -0.00000000000E+00 -0.00000000000E+00 -0.45593999997E+02  0.45594000000E+02  0.51100000000E-03 0. -1.
    9900012    2    1    2    0    0 -0.52679789893E+01  0.12503379076E+02  0.42953779791E+02  0.46142319970E+02  0.10000020147E+02 0.  0.
         12    1    1    2    0    0  0.52679789893E+01 -0.12503379076E+02 -0.42953779791E+02  0.45045680030E+02  0.00000000000E+00 0. -1.
         11    1    3    3    0    0 -0.34076240621E+01  0.13528684999E+01  0.37594578119E+01  0.52512549193E+01  0.51100000000E-03 0. -1.
        -11    1    3    3    0    0 -0.99079150772E+00  0.14337126826E+01  0.87503407398E+01  0.89222005801E+01  0.51100000000E-03 0.  1.
        -12    1    3    3    0    0 -0.86956341949E+00  0.97167978938E+01  0.30443981240E+02  0.31968864471E+02  0.00000000000E+00 0.  1.
</event>
<event>
 7    1  0.2478637E-008  0.4614232E+02  0.7816164E-02  0.1320468E+00
        -11   -1    0    0    0    0  0.00000000000E+00  0.00000000000E+00  0.45593999997E+02  0.45594000000E+02  0.51100000000E-03 0.  1.
         11   -1    0    0    0    0 -0.00000000000E+00 -0.00000000000E+00 -0.45593999997E+02  0.45594000000E+02  0.51100000000E-03 0. -1.
    9900012    2    1    2    0    0 -0.12635385567E+02  0.13214830876E+02  0.41168297505E+02  0.46142318265E+02  0.10000004597E+02 0.  0.
         12    1    1    2    0    0  0.12635385567E+02 -0.13214830876E+02 -0.41168297505E+02  0.45045681735E+02  0.00000000000E+00 0. -1.
         11    1    3    3    0    0 -0.21461999499E+01  0.51832642184E+00  0.20071935059E+01  0.29839005573E+01  0.51100000000E-03 0. -1.
        -11    1    3    3    0    0 -0.20407928005E+01 -0.79949952495E+00  0.40277514777E+01  0.45855007330E+01  0.51100000000E-03 0.  1.
        -12    1    3    3    0    0 -0.84483928168E+01  0.13496003979E+02  0.35133352521E+02  0.38572916975E+02  0.00000000000E+00 0.  1.
</event>
<event>
 7    1  0.2478637E-008  0.4614232E+02  0.7816164E-02  0.1320468E+00
        -11   -1    0    0    0    0  0.00000000000E+00  0.00000000000E+00  0.45593999997E+02  0.45594000000E+02  0.51100000000E-03 0.  1.
         11   -1    0    0    0    0 -0.00000000000E+00 -0.00000000000E+00 -0.45593999997E+02  0.45594000000E+02  0.51100000000E-03 0. -1.
    9900012    2    1    2    0    0 -0.42594679178E+02 -0.14643384359E+02 -0.61489115974E+00  0.46142317733E+02  0.99999997406E+01 0.  0.
         12    1    1    2    0    0  0.42594679178E+02  0.14643384359E+02  0.61489115974E+00  0.45045682267E+02  0.00000000000E+00 0. -1.
         11    1    3    3    0    0 -0.26097781351E+02 -0.10217116474E+02  0.19182696142E+01  0.28092052597E+02  0.51100000000E-03 0. -1.
        -11    1    3    3    0    0 -0.12606881034E+02 -0.28016560621E+01  0.38996937123E+00  0.12920325168E+02  0.51100000000E-03 0.  1.
         12    1    3    3    0    0 -0.38900167934E+01 -0.16246118227E+01 -0.29231301451E+01  0.51299399677E+01  0.00000000000E+00 0. -1.
</event>
<event>
 7    1  0.2478637E-008  0.4614232E+02  0.7816164E-02  0.1320468E+00
        -11   -1    0    0    0    0  0.00000000000E+00  0.00000000000E+00  0.45593999997E+02  0.45594000000E+02  0.51100000000E-03 0.  1.
         11   -1    0    0    0    0 -0.00000000000E+00 -0.00000000000E+00 -0.45593999997E+02  0.45594000000E+02  0.51100000000E-03 0. -1.
    9900012    2    1    2    0    0 -0.41931146751E+01  0.61460760153E+01  0.44426986854E+02  0.46142316278E+02  0.99999864722E+01 0.  0.
         12    1    1    2    0    0  0.41931146751E+01 -0.61460760153E+01 -0.44426986854E+02  0.45045683722E+02  0.00000000000E+00 0. -1.
         11    1    3    3    0    0  0.31351638112E+00  0.16860966461E+01  0.91297659472E+01  0.92894478271E+01  0.51100000000E-03 0. -1.
        -11    1    3    3    0    0 -0.34059487613E+01 -0.10087777625E+01  0.55665400231E+01  0.66033694148E+01  0.51100000000E-03 0.  1.
        -12    1    3    3    0    0 -0.11006822950E+01  0.54687571317E+01  0.29730680884E+02  0.30249499036E+02  0.00000000000E+00 0.  1.
</event>
<event>
 7    1  0.2478637E-008  0.4614232E+02  0.7816164E-02  0.1320468E+00
        -11   -1    0    0    0    0  0.00000000000E+00  0.00000000000E+00  0.45593999997E+02  0.45594000000E+02  0.51100000000E-03 0.  1.
         11   -1    0    0    0    0 -0.00000000000E+00 -0.00000000000E+00 -0.45593999997E+02  0.45594000000E+02  0.51100000000E-03 0. -1.
    9900012    2    1    2    0    0  0.16120336139E+02 -0.81859383944E+01  0.41258194175E+02  0.46142318617E+02  0.10000007809E+02 0.  0.
         12    1    1    2    0    0 -0.16120336139E+02  0.81859383944E+01 -0.41258194175E+02  0.45045681383E+02  0.00000000000E+00 0. -1.
         11    1    3    3    0    0  0.68650340862E+01 -0.40060978619E+01  0.13481446178E+02  0.15650140715E+02  0.51100000000E-03 0. -1.
        -11    1    3    3    0    0  0.10349768046E+02 -0.39951224047E+01  0.22336857274E+02  0.24940206390E+02  0.51100000000E-03 0.  1.
         12    1    3    3    0    0 -0.10944659936E+01 -0.18471812789E+00  0.54398907223E+01  0.55519715119E+01  0.00000000000E+00 0. -1.
</event>
<event>
 7    1  0.2478637E-008  0.4614232E+02  0.7816164E-02  0.1320468E+00
        -11   -1    0    0    0    0  0.00000000000E+00  0.00000000000E+00  0.45593999997E+02  0.45594000000E+02  0.51100000000E-03 0.  1.
         11   -1    0    0    0    0 -0.00000000000E+00 -0.00000000000E+00 -0.45593999997E+02  0.45594000000E+02  0.51100000000E-03 0. -1.
    9900012    2    1    2    0    0  0.20928925563E+02 -0.12703011267E+02  0.37811729363E+02  0.46142319876E+02  0.10000019281E+02 0.  0.
         12    1    1    2    0    0 -0.20928925563E+02  0.12703011267E+02 -0.37811729363E+02  0.45045680124E+02  0.00000000000E+00 0. -1.
         11    1    3    3    0    0  0.81537086183E+01 -0.42604258355E+00  0.87260315742E+01  0.11950234467E+02  0.51100000000E-03 0. -1.
        -11    1    3    3    0    0  0.17660296058E+00  0.10830947706E+00  0.65622067779E-01  0.21731558942E+00  0.51100000000E-03 0.  1.
        -12    1    3    3    0    0  0.12598613984E+02 -0.12385278160E+02  0.29020075721E+02  0.33974769819E+02  0.00000000000E+00 0.  1.
</event>
<event>
 7    1  0.2478637E-008  0.4614232E+02  0.7816164E-02  0.1320468E+00
        -11   -1    0    0    0    0  0.00000000000E+00  0.00000000000E+00  0.45593999997E+02  0.45594000000E+02  0.51100000000E-03 0.  1.
         11   -1    0    0    0    0 -0.00000000000E+00 -0.00000000000E+00 -0.45593999997E+02  0.45594000000E+02  0.51100000000E-03 0. -1.
    9900012    2    1    2    0    0 -0.26809247793E+02  0.27119339235E+02  0.23977474143E+02  0.46142316588E+02  0.99999893026E+01 0.  0.
         12    1    1    2    0    0  0.26809247793E+02 -0.27119339235E+02 -0.23977474143E+02  0.45045683412E+02  0.00000000000E+00 0. -1.
         11    1    3    3    0    0 -0.18916870046E+01  0.52979346830E+01  0.41105076255E+01  0.69672709743E+01  0.51100000000E-03 0. -1.
        -11    1    3    3    0    0 -0.14383773731E+02  0.16673080405E+02  0.12334612625E+02  0.25239398286E+02  0.51100000000E-03 0.  1.
         12    1    3    3    0    0 -0.10533787057E+02  0.51483241466E+01  0.75323538928E+01  0.13935647328E+02  0.00000000000E+00 0. -1.
</event>
<event>
 7    1  0.2478637E-008  0.4614232E+02  0.7816164E-02  0.1320468E+00
        -11   -1    0    0    0    0  0.00000000000E+00  0.00000000000E+00  0.45593999997E+02  0.45594000000E+02  0.51100000000E-03 0. -1.
         11   -1    0    0    0    0 -0.00000000000E+00 -0.00000000000E+00 -0.45593999997E+02  0.45594000000E+02  0.51100000000E-03 0.  1.
    9900012    2    1    2    0    0 -0.33399716754E+02 -0.57349801428E+01 -0.29676287074E+02  0.46142322172E+02  0.10000040218E+02 0.  0.
         12    1    1    2    0    0  0.33399716754E+02  0.57349801428E+01  0.29676287074E+02  0.45045677828E+02  0.00000000000E+00 0. -1.
         11    1    3    3    0    0 -0.10822756728E+01  0.92708102679E+00 -0.72465616830E+00  0.15987265825E+01  0.51100000000E-03 0. -1.
        -11    1    3    3    0    0 -0.98531416748E+01  0.79617076726E-01 -0.51113430795E+01  0.11100295856E+02  0.51100000000E-03 0.  1.
        -12    1    3    3    0    0 -0.22464299407E+02 -0.67416782463E+01 -0.23840287826E+02  0.33443299733E+02  0.00000000000E+00 0.  1.
</event>
<event>
 7    1  0.2478637E-008  0.4614232E+02  0.7816164E-02  0.1320468E+00
        -11   -1    0    0    0    0  0.00000000000E+00  0.00000000000E+00  0.45593999997E+02  0.45594000000E+02  0.51100000000E-03 0. -1.
         11   -1    0    0    0    0 -0.00000000000E+00 -0.00000000000E+00 -0.45593999997E+02  0.45594000000E+02  0.51100000000E-03 0.  1.
    9900012    2    1    2    0    0  0.63445100343E+01 -0.32806520884E+02 -0.30209152187E+02  0.46142317677E+02  0.99999992296E+01 0.  0.
         12    1    1    2    0    0 -0.63445100343E+01  0.32806520884E+02  0.30209152187E+02  0.45045682323E+02  0.00000000000E+00 0. -1.
         11    1    3    3    0    0 -0.29972620216E+00 -0.27385017491E+01 -0.92717474792E+00  0.29066958734E+01  0.51100000000E-03 0. -1.
        -11    1    3    3    0    0  0.48982478189E+01 -0.12953088010E+02 -0.84682178192E+01  0.16232252893E+02  0.51100000000E-03 0.  1.
        -12    1    3    3    0    0  0.17459884176E+01 -0.17114931125E+02 -0.20813759620E+02  0.27003368910E+02  0.00000000000E+00 0.  1.
</event>
<event>
 7    1  0.2478637E-008  0.4614232E+02  0.7816164E-02  0.1320468E+00
        -11   -1    0    0    0    0  0.00000000000E+00  0.00000000000E+00  0.45593999997E+02  0.45594000000E+02  0.51100000000E-03 0.  1.
         11   -1    0    0    0    0 -0.00000000000E+00 -0.00000000000E+00 -0.45593999997E+02  0.45594000000E+02  0.51100000000E-03 0. -1.
    9900012    2    1    2    0    0 -0.10104531615E+02  0.38595657510E+02  0.20913802878E+02  0.46142317758E+02  0.99999999761E+01 0.  0.
         12    1    1    2    0    0  0.10104531615E+02 -0.38595657510E+02 -0.20913802878E+02  0.45045682242E+02  0.00000000000E+00 0. -1.
         11    1    3    3    0    0 -0.91617773909E+01  0.35235044949E+02  0.16943393859E+02  0.40156259204E+02  0.51100000000E-03 0.  1.
        -11    1    3    3    0    0  0.81521560299E+00  0.14519465261E+01  0.68761198038E+00  0.18015370356E+01  0.51100000000E-03 0. -1.
        -12    1    3    3    0    0 -0.17579698274E+01  0.19086660346E+01  0.32827970386E+01  0.41845215190E+01  0.00000000000E+00 0.  1.
</event>
<event>
 7    1  0.2478637E-008  0.4614232E+02  0.7816164E-02  0.1320468E+00
        -11   -1    0    0    0    0  0.00000000000E+00  0.00000000000E+00  0.45593999997E+02  0.45594000000E+02  0.51100000000E-03 0.  1.
         11   -1    0    0    0    0 -0.00000000000E+00 -0.00000000000E+00 -0.45593999997E+02  0.45594000000E+02  0.51100000000E-03 0. -1.
    9900012    2    1    2    0    0  0.11525571581E+02 -0.41216370334E+01  0.43350742386E+02  0.46142316994E+02  0.99999930015E+01 0.  0.
         12    1    1    2    0    0 -0.11525571581E+02  0.41216370334E+01 -0.43350742386E+02  0.45045683006E+02  0.00000000000E+00 0. -1.
         11    1    3    3    0    0  0.33471301936E+00  0.20236197847E+01  0.95699189925E+01  0.97872580237E+01  0.51100000000E-03 0. -1.
        -11    1    3    3    0    0 -0.30197315329E+00  0.79598937717E-01  0.14291348978E+01  0.14628569969E+01  0.51100000000E-03 0.  1.
        -12    1    3    3    0    0  0.11492831715E+02 -0.62248557559E+01  0.32351688495E+02  0.34892201973E+02  0.00000000000E+00 0.  1.
</event>
<event>
 7    1  0.2478637E-008  0.4614232E+02  0.7816164E-02  0.1320468E+00
        -11   -1    0    0    0    0  0.00000000000E+00  0.00000000000E+00  0.45593999997E+02  0.45594000000E+02  0.51100000000E-03 0.  1.
         11   -1    0    0    0    0 -0.00000000000E+00 -0.00000000000E+00 -0.45593999997E+02  0.45594000000E+02  0.51100000000E-03 0. -1.
    9900012    2    1    2    0    0  0.39833352170E+02  0.99033411799E+01  0.18556441416E+02  0.46142316192E+02  0.99999856950E+01 0.  0.
         12    1    1    2    0    0 -0.39833352170E+02 -0.99033411799E+01 -0.18556441416E+02  0.45045683808E+02  0.00000000000E+00 0. -1.
         11    1    3    3    0    0  0.12049711746E+00 -0.56684983906E+00  0.36073929755E+00  0.68262097630E+00  0.51100000000E-03 0. -1.
        -11    1    3    3    0    0  0.14708331293E+02  0.43163787619E+00  0.63433949124E+01  0.16023731774E+02  0.51100000000E-03 0.  1.
        -12    1    3    3    0    0  0.25004523760E+02  0.10038553143E+02  0.11852307206E+02  0.29435963442E+02  0.00000000000E+00 0.  1.
</event>
<event>
 7    1  0.2478637E-008  0.4614232E+02  0.7816164E-02  0.1320468E+00
        -11   -1    0    0    0    0  0.00000000000E+00  0.00000000000E+00  0.45593999997E+02  0.45594000000E+02  0.51100000000E-03 0.  1.
         11   -1    0    0    0    0 -0.00000000000E+00 -0.00000000000E+00 -0.45593999997E+02  0.45594000000E+02  0.51100000000E-03 0. -1.
    9900012    2    1    2    0    0 -0.31461578868E+02 -0.14324429833E+02  0.28880673997E+02  0.46142316906E+02  0.99999922021E+01 0.  0.
         12    1    1    2    0    0  0.31461578868E+02  0.14324429833E+02 -0.28880673997E+02  0.45045683094E+02  0.00000000000E+00 0. -1.
         11    1    3    3    0    0 -0.11830194765E+01 -0.16366181568E+01 -0.38311071145E+00  0.20554386761E+01  0.51100000000E-03 0. -1.
        -11    1    3    3    0    0 -0.99721439746E+01 -0.52085674553E+01  0.85451789963E+01  0.14127735655E+02  0.51100000000E-03 0.  1.
         12    1    3    3    0    0 -0.20306415417E+02 -0.74792442204E+01  0.20718605712E+02  0.29959142575E+02  0.00000000000E+00 0. -1.
</event>
<event>
 7    1  0.2478637E-008  0.4614232E+02  0.7816164E-02  0.1320468E+00
        -11   -1    0    0    0    0  0.00000000000E+00  0.00000000000E+00  0.45593999997E+02  0.45594000000E+02  0.51100000000E-03 0.  1.
         11   -1    0    0    0    0 -0.00000000000E+00 -0.00000000000E+00 -0.45593999997E+02  0.45594000000E+02  0.51100000000E-03 0. -1.
    9900012    2    1    2    0    0  0.81266251834E+01  0.10438440594E+02  0.43059382652E+02  0.46142317485E+02  0.99999974806E+01 0.  0.
         12    1    1    2    0    0 -0.81266251834E+01 -0.10438440594E+02 -0.43059382652E+02  0.45045682515E+02  0.00000000000E+00 0. -1.
         11    1    3    3    0    0  0.15634987784E+00  0.23509092617E+01  0.20518941053E+01  0.31243382214E+01  0.51100000000E-03 0. -1.
        -11    1    3    3    0    0 -0.10040657425E+01  0.19533543710E+00  0.39962255907E+01  0.41250603851E+01  0.51100000000E-03 0.  1.
        -12    1    3    3    0    0  0.89743410480E+01  0.78921958951E+01  0.37011262956E+02  0.38892918878E+02  0.00000000000E+00 0.  1.
</event>
<event>
 7    1  0.2478637E-008  0.4614232E+02  0.7816164E-02  0.1320468E+00
        -11   -1    0    0    0    0  0.00000000000E+00  0.00000000000E+00  0.45593999997E+02  0.45594000000E+02  0.51100000000E-03 0.  1.
         11   -1    0    0    0    0 -0.00000000000E+00 -0.00000000000E+00 -0.45593999997E+02  0.45594000000E+02  0.51100000000E-03 0. -1.
    9900012    2    1    2    0    0 -0.24721784909E+02 -0.33010922801E+02  0.18117001531E+02  0.46142318545E+02  0.10000007149E+02 0.  0.
         12    1    1    2    0    0  0.24721784909E+02  0.33010922801E+02 -0.18117001531E+02  0.45045681455E+02  0.00000000000E+00 0. -1.
         11    1    3    3    0    0 -0.10512603953E+01 -0.33555511791E+01  0.34515657545E+01  0.49272891688E+01  0.51100000000E-03 0. -1.
        -11    1    3    3    0    0 -0.47872779314E+01 -0.89163231908E+01  0.64020317306E+01  0.11975176816E+02  0.51100000000E-03 0.  1.
         12    1    3    3    0    0 -0.18883246582E+02 -0.20739048431E+02  0.82634040463E+01  0.29239852560E+02  0.00000000000E+00 0. -1.
</event>
<event>
 7    1  0.2478637E-008  0.4614232E+02  0.7816164E-02  0.1320468E+00
        -11   -1    0    0    0    0  0.00000000000E+00  0.00000000000E+00  0.45593999997E+02  0.45594000000E+02  0.51100000000E-03 0.  1.
         11   -1    0    0    0    0 -0.00000000000E+00 -0.00000000000E+00 -0.45593999997E+02  0.45594000000E+02  0.51100000000E-03 0. -1.
    9900012    2    1    2    0    0  0.58013647936E+01  0.18922783744E+02  0.40464624782E+02  0.46142318333E+02  0.10000005218E+02 0.  0.
         12    1    1    2    0    0 -0.58013647936E+01 -0.18922783744E+02 -0.40464624782E+02  0.45045681667E+02  0.00000000000E+00 0. -1.
         11    1    3    3    0    0  0.31998447271E+01  0.78557588705E+01  0.90654815419E+01  0.12415108117E+02  0.51100000000E-03 0. -1.
        -11    1    3    3    0    0 -0.10393590355E+01  0.19215952497E+01  0.89859283761E+01  0.92476864431E+01  0.51100000000E-03 0.  1.
        -12    1    3    3    0    0  0.36408791021E+01  0.91454296233E+01  0.22413214864E+02  0.24479523773E+02  0.00000000000E+00 0.  1.
</event>
<event>
 7    1  0.2478637E-008  0.4614232E+02  0.7816164E-02  0.1320468E+00
        -11   -1    0    0    0    0  0.00000000000E+00  0.00000000000E+00  0.45593999997E+02  0.45594000000E+02  0.51100000000E-03 0.  1.
         11   -1    0    0    0    0 -0.00000000000E+00 -0.00000000000E+00 -0.45593999997E+02  0.45594000000E+02  0.51100000000E-03 0. -1.
    9900012    2    1    2    0    0  0.62120898208E+01 -0.44157119146E+02  0.63774825264E+01  0.46142317470E+02  0.99999973430E+01 0.  0.
         12    1    1    2    0    0 -0.62120898208E+01  0.44157119146E+02 -0.63774825264E+01  0.45045682530E+02  0.00000000000E+00 0. -1.
         11    1    3    3    0    0  0.12105204013E+01 -0.92964308881E+01 -0.15267751009E+01  0.94984224674E+01  0.51100000000E-03 0. -1.
        -11    1    3    3    0    0 -0.92402128225E+00 -0.14535232990E+02  0.23197545059E+01  0.14748154957E+02  0.51100000000E-03 0.  1.
        -12    1    3    3    0    0  0.59255907018E+01 -0.20325455268E+02  0.55845031214E+01  0.21895740046E+02  0.00000000000E+00 0.  1.
</event>
<event>
 7    1  0.2478637E-008  0.4614232E+02  0.7816164E-02  0.1320468E+00
        -11   -1    0    0    0    0  0.00000000000E+00  0.00000000000E+00  0.45593999997E+02  0.45594000000E+02  0.51100000000E-03 0. -1.
         11   -1    0    0    0    0 -0.00000000000E+00 -0.00000000000E+00 -0.45593999997E+02  0.45594000000E+02  0.51100000000E-03 0.  1.
    9900012    2    1    2    0    0 -0.55946255126E+01 -0.98481415180E+01 -0.43598482485E+02  0.46142318731E+02  0.10000008846E+02 0.  0.
         12    1    1    2    0    0  0.55946255126E+01  0.98481415180E+01  0.43598482485E+02  0.45045681269E+02  0.00000000000E+00 0. -1.
         11    1    3    3    0    0 -0.22251821499E+00 -0.47196892785E+00 -0.26323409127E+01  0.26835588249E+01  0.51100000000E-03 0. -1.
        -11    1    3    3    0    0 -0.73008788897E+01 -0.10052577900E+02 -0.36206289574E+02  0.38278617529E+02  0.51100000000E-03 0.  1.
         12    1    3    3    0    0  0.19287715922E+01  0.67640530972E+00 -0.47598519987E+01  0.51801423771E+01  0.00000000000E+00 0. -1.
</event>
<event>
 7    1  0.2478637E-008  0.4614232E+02  0.7816164E-02  0.1320468E+00
        -11   -1    0    0    0    0  0.00000000000E+00  0.00000000000E+00  0.45593999997E+02  0.45594000000E+02  0.51100000000E-03 0.  1.
         11   -1    0    0    0    0 -0.00000000000E+00 -0.00000000000E+00 -0.45593999997E+02  0.45594000000E+02  0.51100000000E-03 0. -1.
    9900012    2    1    2    0    0 -0.19517133107E+02 -0.40567895524E+02  0.15622943227E+01  0.46142318792E+02  0.10000009399E+02 0.  0.
         12    1    1    2    0    0  0.19517133107E+02  0.40567895524E+02 -0.15622943227E+01  0.45045681208E+02  0.00000000000E+00 0. -1.
         11    1    3    3    0    0 -0.11962210172E+02 -0.32432310465E+02  0.10934487497E+01  0.34585327304E+02  0.51100000000E-03 0.  1.
        -11    1    3    3    0    0  0.28367130396E+00 -0.36382401880E+00  0.23145882732E+00  0.51614995419E+00  0.51100000000E-03 0. -1.
        -12    1    3    3    0    0 -0.78385942387E+01 -0.77717610402E+01  0.23738674567E+00  0.11040841534E+02  0.00000000000E+00 0.  1.
</event>
<event>
 7    1  0.2478637E-008  0.4614232E+02  0.7816164E-02  0.1320468E+00
        -11   -1    0    0    0    0  0.00000000000E+00  0.00000000000E+00  0.45593999997E+02  0.45594000000E+02  0.51100000000E-03 0.  1.
         11   -1    0    0    0    0 -0.00000000000E+00 -0.00000000000E+00 -0.45593999997E+02  0.45594000000E+02  0.51100000000E-03 0. -1.
    9900012    2    1    2    0    0 -0.31134977990E+02 -0.17099248987E+02  0.27700936509E+02  0.46142322584E+02  0.10000043981E+02 0.  0.
         12    1    1    2    0    0  0.31134977990E+02  0.17099248987E+02 -0.27700936509E+02  0.45045677416E+02  0.00000000000E+00 0. -1.
         11    1    3    3    0    0 -0.11165763553E+02 -0.56993906682E+01  0.13099653438E+02  0.18131691873E+02  0.51100000000E-03 0.  1.
        -11    1    3    3    0    0 -0.91865682952E+01 -0.48070323684E+01  0.28493988591E+01  0.10752658804E+02  0.51100000000E-03 0. -1.
         12    1    3    3    0    0 -0.10782646143E+02 -0.65928259502E+01  0.11751884211E+02  0.17257971908E+02  0.00000000000E+00 0. -1.
</event>
<event>
 7    1  0.2478637E-008  0.4614232E+02  0.7816164E-02  0.1320468E+00
        -11   -1    0    0    0    0  0.00000000000E+00  0.00000000000E+00  0.45593999997E+02  0.45594000000E+02  0.51100000000E-03 0.  1.
         11   -1    0    0    0    0 -0.00000000000E+00 -0.00000000000E+00 -0.45593999997E+02  0.45594000000E+02  0.51100000000E-03 0. -1.
    9900012    2    1    2    0    0  0.36482628269E+01 -0.38546762790E+02  0.23020657802E+02  0.46142318422E+02  0.10000006027E+02 0.  0.
         12    1    1    2    0    0 -0.36482628269E+01  0.38546762790E+02 -0.23020657802E+02  0.45045681578E+02  0.00000000000E+00 0. -1.
         11    1    3    3    0    0 -0.14583002623E+00 -0.87909791680E+01  0.49806749751E+01  0.10104934666E+02  0.51100000000E-03 0. -1.
        -11    1    3    3    0    0 -0.99995005699E-01 -0.10865853861E+02  0.11116595133E+02  0.15545271523E+02  0.51100000000E-03 0.  1.
         12    1    3    3    0    0  0.38940878589E+01 -0.18889929761E+02  0.69233876937E+01  0.20492112233E+02  0.00000000000E+00 0. -1.
</event>
<event>
 7    1  0.2478637E-008  0.4614232E+02  0.7816164E-02  0.1320468E+00
        -11   -1    0    0    0    0  0.00000000000E+00  0.00000000000E+00  0.45593999997E+02  0.45594000000E+02  0.51100000000E-03 0. -1.
         11   -1    0    0    0    0 -0.00000000000E+00 -0.00000000000E+00 -0.45593999997E+02  0.45594000000E+02  0.51100000000E-03 0.  1.
    9900012    2    1    2    0    0 -0.24197180010E+01  0.42307970939E+02  0.15273966146E+02  0.46142317832E+02  0.10000000645E+02 0.  0.
         12    1    1    2    0    0  0.24197180010E+01 -0.42307970939E+02 -0.15273966146E+02  0.45045682168E+02  0.00000000000E+00 0. -1.
         11    1    3    3    0    0  0.15353964340E+01  0.27809152055E+01  0.15086350657E+01  0.35166619986E+01  0.51100000000E-03 0. -1.
        -11    1    3    3    0    0  0.14508914759E+01  0.17846187548E+02  0.46966570967E+01  0.18510809929E+02  0.51100000000E-03 0.  1.
        -12    1    3    3    0    0 -0.54060059109E+01  0.21680868185E+02  0.90686739840E+01  0.24114845904E+02  0.00000000000E+00 0.  1.
</event>
<event>
 7    1  0.2478637E-008  0.4614232E+02  0.7816164E-02  0.1320468E+00
        -11   -1    0    0    0    0  0.00000000000E+00  0.00000000000E+00  0.45593999997E+02  0.45594000000E+02  0.51100000000E-03 0.  1.
         11   -1    0    0    0    0 -0.00000000000E+00 -0.00000000000E+00 -0.45593999997E+02  0.45594000000E+02  0.51100000000E-03 0. -1.
    9900012    2    1    2    0    0  0.19234018381E+02  0.14079128304E+02  0.38222299360E+02  0.46142317796E+02  0.10000000317E+02 0.  0.
         12    1    1    2    0    0 -0.19234018381E+02 -0.14079128304E+02 -0.38222299360E+02  0.45045682204E+02  0.00000000000E+00 0. -1.
         11    1    3    3    0    0  0.48016248724E+00  0.30763614936E+01  0.67643444405E+01  0.74465369149E+01  0.51100000000E-03 0. -1.
        -11    1    3    3    0    0  0.37855923485E+01  0.99415515694E+00  0.96588281954E+01  0.10421708894E+02  0.51100000000E-03 0.  1.
        -12    1    3    3    0    0  0.14968263545E+02  0.10008611654E+02  0.21799126724E+02  0.28274071987E+02  0.00000000000E+00 0.  1.
</event>
<event>
 7    1  0.2478637E-008  0.4614232E+02  0.7816164E-02  0.1320468E+00
        -11   -1    0    0    0    0  0.00000000000E+00  0.00000000000E+00  0.45593999997E+02  0.45594000000E+02  0.51100000000E-03 0.  1.
         11   -1    0    0    0    0 -0.00000000000E+00 -0.00000000000E+00 -0.45593999997E+02  0.45594000000E+02  0.51100000000E-03 0. -1.
    9900012    2    1    2    0    0 -0.38886671668E+02 -0.16733384580E+02  0.15392662853E+02  0.46142318047E+02  0.10000002603E+02 0.  0.
         12    1    1    2    0    0  0.38886671668E+02  0.16733384580E+02 -0.15392662853E+02  0.45045681953E+02  0.00000000000E+00 0. -1.
         11    1    3    3    0    0 -0.50635016431E+01 -0.25464026513E+01  0.21711618458E+01  0.60693623532E+01  0.51100000000E-03 0.  1.
        -11    1    3    3    0    0 -0.21727018275E+02 -0.44440451929E+01  0.93394198326E+01  0.24063200615E+02  0.51100000000E-03 0. -1.
        -12    1    3    3    0    0 -0.12096151751E+02 -0.97429367357E+01  0.38820811747E+01  0.16009755078E+02  0.00000000000E+00 0.  1.
</event>
<event>
 7    1  0.2478637E-008  0.4614232E+02  0.7816164E-02  0.1320468E+00
        -11   -1    0    0    0    0  0.00000000000E+00  0.00000000000E+00  0.45593999997E+02  0.45594000000E+02  0.51100000000E-03 0.  1.
         11   -1    0    0    0    0 -0.00000000000E+00 -0.00000000000E+00 -0.45593999997E+02  0.45594000000E+02  0.51100000000E-03 0. -1.
    9900012    2    1    2    0    0 -0.34531741058E+02 -0.28492152810E+02 -0.49869450778E+01  0.46142317260E+02  0.99999954344E+01 0.  0.
         12    1    1    2    0    0  0.34531741058E+02  0.28492152810E+02  0.49869450778E+01  0.45045682740E+02  0.00000000000E+00 0. -1.
         11    1    3    3    0    0 -0.19040917944E+02 -0.10596754128E+02 -0.53353766633E+01  0.22434660653E+02  0.51100000000E-03 0. -1.
        -11    1    3    3    0    0 -0.72195189457E+01 -0.77471822039E+01  0.68006311521E+00  0.10611445331E+02  0.51100000000E-03 0.  1.
         12    1    3    3    0    0 -0.82713041683E+01 -0.10148216478E+02 -0.33163152975E+00  0.13096211277E+02  0.00000000000E+00 0. -1.
</event>
<event>
 7    1  0.2478637E-008  0.4614232E+02  0.7816164E-02  0.1320468E+00
        -11   -1    0    0    0    0  0.00000000000E+00  0.00000000000E+00  0.45593999997E+02  0.45594000000E+02  0.51100000000E-03 0.  1.
         11   -1    0    0    0    0 -0.00000000000E+00 -0.00000000000E+00 -0.45593999997E+02  0.45594000000E+02  0.51100000000E-03 0. -1.
    9900012    2    1    2    0    0  0.39603073491E+01  0.12810676520E+02  0.43003673935E+02  0.46142318308E+02  0.10000004985E+02 0.  0.
         12    1    1    2    0    0 -0.39603073491E+01 -0.12810676520E+02 -0.43003673935E+02  0.45045681692E+02  0.00000000000E+00 0. -1.
         11    1    3    3    0    0 -0.14545888949E+01  0.16685858473E+01  0.35010279557E+01  0.41421256126E+01  0.51100000000E-03 0. -1.
        -11    1    3    3    0    0  0.55805733953E+01  0.11333478406E+02  0.30749397399E+02  0.33243284629E+02  0.51100000000E-03 0.  1.
        -12    1    3    3    0    0 -0.16567715128E+00 -0.19138773353E+00  0.87532485800E+01  0.87569080666E+01  0.00000000000E+00 0.  1.
</event>
<event>
 7    1  0.2478637E-008  0.4614232E+02  0.7816164E-02  0.1320468E+00
        -11   -1    0    0    0    0  0.00000000000E+00  0.00000000000E+00  0.45593999997E+02  0.45594000000E+02  0.51100000000E-03 0.  1.
         11   -1    0    0    0    0 -0.00000000000E+00 -0.00000000000E+00 -0.45593999997E+02  0.45594000000E+02  0.51100000000E-03 0. -1.
    9900012    2    1    2    0    0 -0.10602224638E+02  0.14234635322E+02  0.41401469553E+02  0.46142315510E+02  0.99999794693E+01 0.  0.
         12    1    1    2    0    0  0.10602224638E+02 -0.14234635322E+02 -0.41401469553E+02  0.45045684490E+02  0.00000000000E+00 0. -1.
         11    1    3    3    0    0 -0.11079466483E+02  0.11050276366E+02  0.35098237295E+02  0.38428497848E+02  0.51100000000E-03 0.  1.
        -11    1    3    3    0    0  0.72297743801E+00  0.58983715851E-01  0.32775376715E+01  0.33568480609E+01  0.51100000000E-03 0. -1.
         12    1    3    3    0    0 -0.24573559320E+00  0.31253752407E+01  0.30256945863E+01  0.43569696012E+01  0.00000000000E+00 0. -1.
</event>
<event>
 7    1  0.2478637E-008  0.4614232E+02  0.7816164E-02  0.1320468E+00
        -11   -1    0    0    0    0  0.00000000000E+00  0.00000000000E+00  0.45593999997E+02  0.45594000000E+02  0.51100000000E-03 0.  1.
         11   -1    0    0    0    0 -0.00000000000E+00 -0.00000000000E+00 -0.45593999997E+02  0.45594000000E+02  0.51100000000E-03 0. -1.
    9900012    2    1    2    0    0 -0.14479964420E+02 -0.32358095450E+02  0.27792046792E+02  0.46142316792E+02  0.99999911644E+01 0.  0.
         12    1    1    2    0    0  0.14479964420E+02  0.32358095450E+02 -0.27792046792E+02  0.45045683208E+02  0.00000000000E+00 0. -1.
         11    1    3    3    0    0 -0.41902950908E+00 -0.82454310706E+01  0.84008201929E+01  0.11778645909E+02  0.51100000000E-03 0. -1.
        -11    1    3    3    0    0  0.18085354240E+00 -0.15957821886E+00  0.87051808426E+00  0.90331346048E+00  0.51100000000E-03 0.  1.
        -12    1    3    3    0    0 -0.14241788454E+02 -0.23953086161E+02  0.18520708515E+02  0.33460357423E+02  0.00000000000E+00 0.  1.
</event>
<event>
 7    1  0.2478637E-008  0.4614232E+02  0.7816164E-02  0.1320468E+00
        -11   -1    0    0    0    0  0.00000000000E+00  0.00000000000E+00  0.45593999997E+02  0.45594000000E+02  0.51100000000E-03 0. -1.
         11   -1    0    0    0    0 -0.00000000000E+00 -0.00000000000E+00 -0.45593999997E+02  0.45594000000E+02  0.51100000000E-03 0.  1.
    9900012    2    1    2    0    0 -0.27065693706E+02  0.35834586481E+02  0.35276527123E+01  0.46142315438E+02  0.99999788116E+01 0.  0.
         12    1    1    2    0    0  0.27065693706E+02 -0.35834586481E+02 -0.35276527123E+01  0.45045684562E+02  0.00000000000E+00 0. -1.
         11    1    3    3    0    0 -0.43940242810E+01  0.29507777087E+01  0.34649789896E+00  0.53042058334E+01  0.51100000000E-03 0. -1.
        -11    1    3    3    0    0 -0.11193404300E+02  0.12978925892E+02 -0.20842629617E+01  0.17265253242E+02  0.51100000000E-03 0.  1.
        -12    1    3    3    0    0 -0.11478265125E+02  0.19904882879E+02  0.52654177750E+01  0.23572856362E+02  0.00000000000E+00 0.  1.
</event>
<event>
 7    1  0.2478637E-008  0.4614232E+02  0.7816164E-02  0.1320468E+00
        -11   -1    0    0    0    0  0.00000000000E+00  0.00000000000E+00  0.45593999997E+02  0.45594000000E+02  0.51100000000E-03 0. -1.
         11   -1    0    0    0    0 -0.00000000000E+00 -0.00000000000E+00 -0.45593999997E+02  0.45594000000E+02  0.51100000000E-03 0.  1.
    9900012    2    1    2    0    0  0.23835710705E+02 -0.29150958840E+01 -0.38111344442E+02  0.46142318032E+02  0.10000002469E+02 0.  0.
         12    1    1    2    0    0 -0.23835710705E+02  0.29150958840E+01  0.38111344442E+02  0.45045681968E+02  0.00000000000E+00 0. -1.
         11    1    3    3    0    0  0.20647323104E+00 -0.11399005755E+01 -0.46397570946E+01  0.47821909911E+01  0.51100000000E-03 0. -1.
        -11    1    3    3    0    0  0.15601271294E+02 -0.13583490260E+01 -0.26183781273E+02  0.30509591608E+02  0.51100000000E-03 0.  1.
        -12    1    3    3    0    0  0.80279661795E+01 -0.41684628254E+00 -0.72878060735E+01  0.10850535432E+02  0.00000000000E+00 0.  1.
</event>
<event>
 7    1  0.2478637E-008  0.4614232E+02  0.7816164E-02  0.1320468E+00
        -11   -1    0    0    0    0  0.00000000000E+00  0.00000000000E+00  0.45593999997E+02  0.45594000000E+02  0.51100000000E-03 0.  1.
         11   -1    0    0    0    0 -0.00000000000E+00 -0.00000000000E+00 -0.45593999997E+02  0.45594000000E+02  0.51100000000E-03 0. -1.
    9900012    2    1    2    0    0  0.53691730800E+00  0.24415325430E+02  0.37851248755E+02  0.46142318427E+02  0.10000006073E+02 0.  0.
         12    1    1    2    0    0 -0.53691730800E+00 -0.24415325430E+02 -0.37851248755E+02  0.45045681573E+02  0.00000000000E+00 0. -1.
         11    1    3    3    0    0 -0.30170513380E+01  0.16156913072E+02  0.29180543633E+02  0.33491081884E+02  0.51100000000E-03 0. -1.
        -11    1    3    3    0    0  0.20466630454E+01  0.53723203727E+01  0.67677723879E+01  0.88799436464E+01  0.51100000000E-03 0.  1.
         12    1    3    3    0    0  0.15073056007E+01  0.28860919849E+01  0.19029327345E+01  0.37712928964E+01  0.00000000000E+00 0. -1.
</event>
<event>
 7    1  0.2478637E-008  0.4614232E+02  0.7816164E-02  0.1320468E+00
        -11   -1    0    0    0    0  0.00000000000E+00  0.00000000000E+00  0.45593999997E+02  0.45594000000E+02  0.51100000000E-03 0.  1.
         11   -1    0    0    0    0 -0.00000000000E+00 -0.00000000000E+00 -0.45593999997E+02  0.45594000000E+02  0.51100000000E-03 0. -1.
    9900012    2    1    2    0    0 -0.51388659217E+01  0.67686871390E+00  0.44746479312E+02  0.46142317577E+02  0.99999983171E+01 0.  0.
         12    1    1    2    0    0  0.51388659217E+01 -0.67686871390E+00 -0.44746479312E+02  0.45045682423E+02  0.00000000000E+00 0. -1.
         11    1    3    3    0    0 -0.23311471793E+01 -0.42530069869E+01  0.19680250704E+02  0.20269054829E+02  0.51100000000E-03 0. -1.
        -11    1    3    3    0    0 -0.15928200056E+01  0.37225780897E+01  0.11351937808E+02  0.12052433591E+02  0.51100000000E-03 0.  1.
        -12    1    3    3    0    0 -0.12148987369E+01  0.12072976111E+01  0.13714290799E+02  0.13820829157E+02  0.00000000000E+00 0.  1.
</event>
<event>
 7    1  0.2478637E-008  0.4614232E+02  0.7816164E-02  0.1320468E+00
        -11   -1    0    0    0    0  0.00000000000E+00  0.00000000000E+00  0.45593999997E+02  0.45594000000E+02  0.51100000000E-03 0.  1.
         11   -1    0    0    0    0 -0.00000000000E+00 -0.00000000000E+00 -0.45593999997E+02  0.45594000000E+02  0.51100000000E-03 0. -1.
    9900012    2    1    2    0    0 -0.16469599230E+02  0.31148589347E+02  0.28064765426E+02  0.46142319013E+02  0.10000011420E+02 0.  0.
         12    1    1    2    0    0  0.16469599230E+02 -0.31148589347E+02 -0.28064765426E+02  0.45045680987E+02  0.00000000000E+00 0. -1.
         11    1    3    3    0    0 -0.19289575138E+00  0.37499157683E+00  0.23479466653E+01  0.23855148831E+01  0.51100000000E-03 0.  1.
        -11    1    3    3    0    0 -0.75204714799E+01  0.82744260127E+01  0.68134153372E+01  0.13093748353E+02  0.51100000000E-03 0. -1.
        -12    1    3    3    0    0 -0.87562319992E+01  0.22499171758E+02  0.18903403423E+02  0.30663055777E+02  0.00000000000E+00 0.  1.
</event>
<event>
 7    1  0.2478637E-008  0.4614232E+02  0.7816164E-02  0.1320468E+00
        -11   -1    0    0    0    0  0.00000000000E+00  0.00000000000E+00  0.45593999997E+02  0.45594000000E+02  0.51100000000E-03 0. -1.
         11   -1    0    0    0    0 -0.00000000000E+00 -0.00000000000E+00 -0.45593999997E+02  0.45594000000E+02  0.51100000000E-03 0.  1.
    9900012    2    1    2    0    0 -0.28728311368E+02 -0.61694410054E+01 -0.34142870051E+02  0.46142318168E+02  0.10000003710E+02 0.  0.
         12    1    1    2    0    0  0.28728311368E+02  0.61694410054E+01  0.34142870051E+02  0.45045681832E+02  0.00000000000E+00 0. -1.
         11    1    3    3    0    0 -0.10431344094E+02 -0.46748836235E+01 -0.99385369048E+01  0.15147342756E+02  0.51100000000E-03 0.  1.
        -11    1    3    3    0    0 -0.18373181252E+02 -0.23020672148E+01 -0.23515920802E+02  0.29931118159E+02  0.51100000000E-03 0. -1.
         12    1    3    3    0    0  0.76213977604E-01  0.80750983291E+00 -0.68841234400E+00  0.10638572536E+01  0.00000000000E+00 0. -1.
</event>
<event>
 7    1  0.2478637E-008  0.4614232E+02  0.7816164E-02  0.1320468E+00
        -11   -1    0    0    0    0  0.00000000000E+00  0.00000000000E+00  0.45593999997E+02  0.45594000000E+02  0.51100000000E-03 0.  1.
         11   -1    0    0    0    0 -0.00000000000E+00 -0.00000000000E+00 -0.45593999997E+02  0.45594000000E+02  0.51100000000E-03 0. -1.
    9900012    2    1    2    0    0 -0.97411224574E+01 -0.14961488639E+02  0.41356715181E+02  0.46142317636E+02  0.99999988629E+01 0.  0.
         12    1    1    2    0    0  0.97411224574E+01  0.14961488639E+02 -0.41356715181E+02  0.45045682364E+02  0.00000000000E+00 0. -1.
         11    1    3    3    0    0 -0.73706813307E+01 -0.67599088287E+01  0.15889766247E+02  0.18775195933E+02  0.51100000000E-03 0.  1.
        -11    1    3    3    0    0 -0.13422745431E+01 -0.87421723729E+01  0.22029638493E+02  0.23738834242E+02  0.51100000000E-03 0. -1.
         12    1    3    3    0    0 -0.10281665836E+01  0.54059256294E+00  0.34373104404E+01  0.36282874619E+01  0.00000000000E+00 0. -1.
</event>
<event>
 7    1  0.2478637E-008  0.4614232E+02  0.7816164E-02  0.1320468E+00
        -11   -1    0    0    0    0  0.00000000000E+00  0.00000000000E+00  0.45593999997E+02  0.45594000000E+02  0.51100000000E-03 0.  1.
         11   -1    0    0    0    0 -0.00000000000E+00 -0.00000000000E+00 -0.45593999997E+02  0.45594000000E+02  0.51100000000E-03 0. -1.
    9900012    2    1    2    0    0 -0.43419591549E+02 -0.11503921909E+02 -0.33929576246E+01  0.46142319730E+02  0.10000017953E+02 0.  0.
         12    1    1    2    0    0  0.43419591549E+02  0.11503921909E+02  0.33929576246E+01  0.45045680270E+02  0.00000000000E+00 0. -1.
         11    1    3    3    0    0 -0.15087570009E+01  0.83460701393E+00  0.39597093274E+00  0.17690985829E+01  0.51100000000E-03 0. -1.
        -11    1    3    3    0    0 -0.18049657152E+01  0.30275979469E+00  0.93953239658E+00  0.20572520778E+01  0.51100000000E-03 0.  1.
        -12    1    3    3    0    0 -0.40105868833E+02 -0.12641288718E+02 -0.47284609540E+01  0.42315969069E+02  0.00000000000E+00 0.  1.
</event>
<event>
 7    1  0.2478637E-008  0.4614232E+02  0.7816164E-02  0.1320468E+00
        -11   -1    0    0    0    0  0.00000000000E+00  0.00000000000E+00  0.45593999997E+02  0.45594000000E+02  0.51100000000E-03 0.  1.
         11   -1    0    0    0    0 -0.00000000000E+00 -0.00000000000E+00 -0.45593999997E+02  0.45594000000E+02  0.51100000000E-03 0. -1.
    9900012    2    1    2    0    0  0.21581499042E+02  0.37510917984E+02  0.12501338250E+02  0.46142317333E+02  0.99999960934E+01 0.  0.
         12    1    1    2    0    0 -0.21581499042E+02 -0.37510917984E+02 -0.12501338250E+02  0.45045682667E+02  0.00000000000E+00 0. -1.
         11    1    3    3    0    0  0.41917777193E+01  0.11318289768E+02  0.28434715183E+01  0.12400000575E+02  0.51100000000E-03 0.  1.
        -11    1    3    3    0    0  0.10696186778E+02  0.18274696932E+02  0.29150931243E+01  0.21374534561E+02  0.51100000000E-03 0. -1.
        -12    1    3    3    0    0  0.66935345455E+01  0.79179312838E+01  0.67427736077E+01  0.12367782196E+02  0.00000000000E+00 0.  1.
</event>
<event>
 7    1  0.2478637E-008  0.4614232E+02  0.7816164E-02  0.1320468E+00
        -11   -1    0    0    0    0  0.00000000000E+00  0.00000000000E+00  0.45593999997E+02  0.45594000000E+02  0.51100000000E-03 0.  1.
         11   -1    0    0    0    0 -0.00000000000E+00 -0.00000000000E+00 -0.45593999997E+02  0.45594000000E+02  0.51100000000E-03 0. -1.
    9900012    2    1    2    0    0 -0.22036074531E+02 -0.35474853597E+02  0.16883711680E+02  0.46142317204E+02  0.99999949187E+01 0.  0.
         12    1    1    2    0    0  0.22036074531E+02  0.35474853597E+02 -0.16883711680E+02  0.45045682796E+02  0.00000000000E+00 0. -1.
         11    1    3    3    0    0 -0.75405780076E+01 -0.10161150844E+02  0.66191026613E+01  0.14280119869E+02  0.51100000000E-03 0. -1.
        -11    1    3    3    0    0 -0.49940503198E+01 -0.10456696954E+02  0.80015120309E+01  0.14082160517E+02  0.51100000000E-03 0.  1.
         12    1    3    3    0    0 -0.95014462034E+01 -0.14857005799E+02  0.22630969875E+01  0.17780036818E+02  0.00000000000E+00 0. -1.
</event>
<event>
 7    1  0.2478637E-008  0.4614232E+02  0.7816164E-02  0.1320468E+00
        -11   -1    0    0    0    0  0.00000000000E+00  0.00000000000E+00  0.45593999997E+02  0.45594000000E+02  0.51100000000E-03 0.  1.
         11   -1    0    0    0    0 -0.00000000000E+00 -0.00000000000E+00 -0.45593999997E+02  0.45594000000E+02  0.51100000000E-03 0. -1.
    9900012    2    1    2    0    0 -0.14933535964E+02 -0.33087157902E+02  0.26671013454E+02  0.46142317931E+02  0.10000001546E+02 0.  0.
         12    1    1    2    0    0  0.14933535964E+02  0.33087157902E+02 -0.26671013454E+02  0.45045682069E+02  0.00000000000E+00 0. -1.
         11    1    3    3    0    0 -0.54120511516E-01 -0.32074218435E+01  0.28659394220E+00  0.32206552533E+01  0.51100000000E-03 0. -1.
        -11    1    3    3    0    0 -0.34753546561E+01 -0.56444646627E+01  0.26644471682E+01  0.71440429931E+01  0.51100000000E-03 0.  1.
        -12    1    3    3    0    0 -0.11404060796E+02 -0.24235271396E+02  0.23719972344E+02  0.35777619684E+02  0.00000000000E+00 0.  1.
</event>
<event>
 7    1  0.2478637E-008  0.4614232E+02  0.7816164E-02  0.1320468E+00
        -11   -1    0    0    0    0  0.00000000000E+00  0.00000000000E+00  0.45593999997E+02  0.45594000000E+02  0.51100000000E-03 0.  1.
         11   -1    0    0    0    0 -0.00000000000E+00 -0.00000000000E+00 -0.45593999997E+02  0.45594000000E+02  0.51100000000E-03 0. -1.
    9900012    2    1    2    0    0  0.17213907395E+00  0.35222001627E+02  0.28080145006E+02  0.46142316810E+02  0.99999913279E+01 0.  0.
         12    1    1    2    0    0 -0.17213907395E+00 -0.35222001627E+02 -0.28080145006E+02  0.45045683190E+02  0.00000000000E+00 0. -1.
         11    1    3    3    0    0 -0.29465907978E+00  0.82853965499E+00 -0.27982630195E+00  0.92282444353E+00  0.51100000000E-03 0. -1.
        -11    1    3    3    0    0 -0.10964683849E+01  0.33286917511E+02  0.26881982804E+02  0.42800258411E+02  0.51100000000E-03 0.  1.
        -12    1    3    3    0    0  0.15632665386E+01  0.11065444618E+01  0.14779885037E+01  0.24192339560E+01  0.00000000000E+00 0.  1.
</event>
<event>
 7    1  0.2478637E-008  0.4614232E+02  0.7816164E-02  0.1320468E+00
        -11   -1    0    0    0    0  0.00000000000E+00  0.00000000000E+00  0.45593999997E+02  0.45594000000E+02  0.51100000000E-03 0.  1.
         11   -1    0    0    0    0 -0.00000000000E+00 -0.00000000000E+00 -0.45593999997E+02  0.45594000000E+02  0.51100000000E-03 0. -1.
    9900012    2    1    2    0    0  0.20492090672E+02  0.19556497812E+02  0.35024723598E+02  0.46142315968E+02  0.99999836486E+01 0.  0.
         12    1    1    2    0    0 -0.20492090672E+02 -0.19556497812E+02 -0.35024723598E+02  0.45045684032E+02  0.00000000000E+00 0. -1.
         11    1    3    3    0    0  0.15950785302E+02  0.15148770141E+02  0.24519266047E+02  0.32940965320E+02  0.51100000000E-03 0. -1.
        -11    1    3    3    0    0  0.34282041737E+01  0.32793080918E+01  0.31917080808E+01  0.57178183035E+01  0.51100000000E-03 0.  1.
         12    1    3    3    0    0  0.11131011966E+01  0.11284195793E+01  0.73137494709E+01  0.74835323440E+01  0.00000000000E+00 0. -1.
</event>
<event>
 7    1  0.2478637E-008  0.4614232E+02  0.7816164E-02  0.1320468E+00
        -11   -1    0    0    0    0  0.00000000000E+00  0.00000000000E+00  0.45593999997E+02  0.45594000000E+02  0.51100000000E-03 0. -1.
         11   -1    0    0    0    0 -0.00000000000E+00 -0.00000000000E+00 -0.45593999997E+02  0.45594000000E+02  0.51100000000E-03 0.  1.
    9900012    2    1    2    0    0 -0.37270541315E+02 -0.25003282495E+02 -0.38543560886E+01  0.46142318228E+02  0.10000004256E+02 0.  0.
         12    1    1    2    0    0  0.37270541315E+02  0.25003282495E+02  0.38543560886E+01  0.45045681772E+02  0.00000000000E+00 0. -1.
         11    1    3    3    0    0 -0.22787335817E+02 -0.14432177851E+02 -0.69702655363E+01  0.27859200151E+02  0.51100000000E-03 0. -1.
        -11    1    3    3    0    0 -0.59832857674E+01 -0.34769528266E+01  0.73969574472E+00  0.69596019706E+01  0.51100000000E-03 0.  1.
        -12    1    3    3    0    0 -0.84999197310E+01 -0.70941518183E+01  0.23762137029E+01  0.11323516107E+02  0.00000000000E+00 0.  1.
</event>
<event>
 7    1  0.2478637E-008  0.4614232E+02  0.7816164E-02  0.1320468E+00
        -11   -1    0    0    0    0  0.00000000000E+00  0.00000000000E+00  0.45593999997E+02  0.45594000000E+02  0.51100000000E-03 0.  1.
         11   -1    0    0    0    0 -0.00000000000E+00 -0.00000000000E+00 -0.45593999997E+02  0.45594000000E+02  0.51100000000E-03 0. -1.
    9900012    2    1    2    0    0  0.31952221278E+02 -0.31663745524E+02  0.23614223571E+01  0.46142317180E+02  0.99999946975E+01 0.  0.
         12    1    1    2    0    0 -0.31952221278E+02  0.31663745524E+02 -0.23614223571E+01  0.45045682820E+02  0.00000000000E+00 0. -1.
         11    1    3    3    0    0  0.93408635611E+01 -0.11864416713E+02  0.13858748654E+01  0.15163665962E+02  0.51100000000E-03 0. -1.
        -11    1    3    3    0    0  0.93136497824E+01 -0.11520226087E+02  0.32036258635E+01  0.15156612428E+02  0.51100000000E-03 0.  1.
        -12    1    3    3    0    0  0.13297707934E+02 -0.82791027248E+01 -0.22280783718E+01  0.15822038790E+02  0.00000000000E+00 0.  1.
</event>
<event>
 7    1  0.2478637E-008  0.4614232E+02  0.7816164E-02  0.1320468E+00
        -11   -1    0    0    0    0  0.00000000000E+00  0.00000000000E+00  0.45593999997E+02  0.45594000000E+02  0.51100000000E-03 0.  1.
         11   -1    0    0    0    0 -0.00000000000E+00 -0.00000000000E+00 -0.45593999997E+02  0.45594000000E+02  0.51100000000E-03 0. -1.
    9900012    2    1    2    0    0 -0.21674517405E+02 -0.39287728666E+02  0.39753093884E+01  0.46142318595E+02  0.10000007606E+02 0.  0.
         12    1    1    2    0    0  0.21674517405E+02  0.39287728666E+02 -0.39753093884E+01  0.45045681405E+02  0.00000000000E+00 0. -1.
         11    1    3    3    0    0 -0.60265071745E+01 -0.48977105527E+01 -0.96841258020E-01  0.77663206136E+01  0.51100000000E-03 0. -1.
        -11    1    3    3    0    0 -0.52264158309E+01 -0.66827815755E+01 -0.77691457593E-01  0.84841633794E+01  0.51100000000E-03 0.  1.
        -12    1    3    3    0    0 -0.10421594399E+02 -0.27707236538E+02  0.41498421040E+01  0.29891834602E+02  0.00000000000E+00 0.  1.
</event>
<event>
 7    1  0.2478637E-008  0.4614233E+02  0.7816164E-02  0.1320468E+00
        -11   -1    0    0    0    0  0.00000000000E+00  0.00000000000E+00  0.45593999997E+02  0.45594000000E+02  0.51100000000E-03 0.  1.
         11   -1    0    0    0    0 -0.00000000000E+00 -0.00000000000E+00 -0.45593999997E+02  0.45594000000E+02  0.51100000000E-03 0. -1.
    9900012    2    1    2    0    0 -0.40584801531E+02 -0.16505226047E+02  0.10467261580E+02  0.46142332426E+02  0.10000133728E+02 0.  0.
         12    1    1    2    0    0  0.40584801531E+02  0.16505226047E+02 -0.10467261580E+02  0.45045667574E+02  0.00000000000E+00 0. -1.
         11    1    3    3    0    0 -0.11078124861E+02 -0.29720166253E+01  0.53373110207E+01  0.12650874375E+02  0.51100000000E-03 0.  1.
        -11    1    3    3    0    0 -0.37749002175E+01 -0.33964179422E+01 -0.97132585113E+00  0.51700097351E+01  0.51100000000E-03 0. -1.
         12    1    3    3    0    0 -0.25731776452E+02 -0.10136791480E+02  0.61012764105E+01  0.28321448316E+02  0.00000000000E+00 0. -1.
</event>
<event>
 7    1  0.2478637E-008  0.4614232E+02  0.7816164E-02  0.1320468E+00
        -11   -1    0    0    0    0  0.00000000000E+00  0.00000000000E+00  0.45593999997E+02  0.45594000000E+02  0.51100000000E-03 0. -1.
         11   -1    0    0    0    0 -0.00000000000E+00 -0.00000000000E+00 -0.45593999997E+02  0.45594000000E+02  0.51100000000E-03 0.  1.
    9900012    2    1    2    0    0 -0.30714884553E+02  0.26416108764E+01 -0.32844042861E+02  0.46142318824E+02  0.10000009694E+02 0.  0.
         12    1    1    2    0    0  0.30714884553E+02 -0.26416108764E+01  0.32844042861E+02  0.45045681176E+02  0.00000000000E+00 0. -1.
         11    1    3    3    0    0 -0.10766307326E+02  0.68526525995E-01 -0.79518559912E+01  0.13384695861E+02  0.51100000000E-03 0. -1.
        -11    1    3    3    0    0 -0.39345287458E+01 -0.22043042898E+01 -0.42301957080E+01  0.61833671930E+01  0.51100000000E-03 0.  1.
         12    1    3    3    0    0 -0.16014048482E+02  0.47773886403E+01 -0.20661991162E+02  0.26574255770E+02  0.00000000000E+00 0. -1.
</event>
<event>
 7    1  0.2478637E-008  0.4614232E+02  0.7816164E-02  0.1320468E+00
        -11   -1    0    0    0    0  0.00000000000E+00  0.00000000000E+00  0.45593999997E+02  0.45594000000E+02  0.51100000000E-03 0. -1.
         11   -1    0    0    0    0 -0.00000000000E+00 -0.00000000000E+00 -0.45593999997E+02  0.45594000000E+02  0.51100000000E-03 0.  1.
    9900012    2    1    2    0    0  0.40344721151E+02 -0.19949702869E+02  0.18510230680E+01  0.46142318123E+02  0.10000003303E+02 0.  0.
         12    1    1    2    0    0 -0.40344721151E+02  0.19949702869E+02 -0.18510230680E+01  0.45045681877E+02  0.00000000000E+00 0. -1.
         11    1    3    3    0    0  0.21836852289E+02 -0.12413419844E+02  0.24196230767E+00  0.25119706530E+02  0.51100000000E-03 0. -1.
        -11    1    3    3    0    0  0.78440349436E+01 -0.56591728945E+01 -0.14273460951E+01  0.97771385989E+01  0.51100000000E-03 0.  1.
         12    1    3    3    0    0  0.10663833918E+02 -0.18771101311E+01  0.30364068554E+01  0.11245472995E+02  0.00000000000E+00 0. -1.
</event>
<event>
 7    1  0.2478637E-008  0.4614232E+02  0.7816164E-02  0.1320468E+00
        -11   -1    0    0    0    0  0.00000000000E+00  0.00000000000E+00  0.45593999997E+02  0.45594000000E+02  0.51100000000E-03 0.  1.
         11   -1    0    0    0    0 -0.00000000000E+00 -0.00000000000E+00 -0.45593999997E+02  0.45594000000E+02  0.51100000000E-03 0. -1.
    9900012    2    1    2    0    0 -0.29776626028E+02  0.33782596454E+02 -0.10964712539E+01  0.46142317300E+02  0.99999957923E+01 0.  0.
         12    1    1    2    0    0  0.29776626028E+02 -0.33782596454E+02  0.10964712539E+01  0.45045682700E+02  0.00000000000E+00 0. -1.
         11    1    3    3    0    0 -0.95684393166E+01  0.72900503965E+01 -0.12823809057E+01  0.12097287580E+02  0.51100000000E-03 0. -1.
        -11    1    3    3    0    0 -0.19756405650E+02  0.25524069269E+02  0.15477811655E+01  0.32313918102E+02  0.51100000000E-03 0.  1.
        -12    1    3    3    0    0 -0.45178106075E+00  0.96847678762E+00 -0.13618715137E+01  0.17311116182E+01  0.00000000000E+00 0.  1.
</event>
<event>
 7    1  0.2616933E-008  0.4614232E+02  0.7816164E-02  0.1320468E+00
        -11   -1    0    0    0    0  0.00000000000E+00  0.00000000000E+00  0.45593999997E+02  0.45594000000E+02  0.51100000000E-03 0.  1.
         11   -1    0    0    0    0 -0.00000000000E+00 -0.00000000000E+00 -0.45593999997E+02  0.45594000000E+02  0.51100000000E-03 0. -1.
    9900012    2    1    2    0    0  0.23278830714E+02 -0.38539790523E+02  0.13762248399E+01  0.46142318656E+02  0.10000008157E+02 0.  0.
         12    1    1    2    0    0 -0.23278830714E+02  0.38539790523E+02 -0.13762248399E+01  0.45045681344E+02  0.00000000000E+00 0. -1.
         11    1    3    3    0    0  0.15348627834E+01 -0.66033275020E+01  0.17401915050E+01  0.69991431331E+01  0.51100000000E-03 0.  1.
        -11    1    3    3    0    0  0.77698946930E+00 -0.27600635680E+01  0.13590426596E+01  0.31731153063E+01  0.51100000000E-03 0. -1.
        -12    1    3    3    0    0  0.20966978461E+02 -0.29176399453E+02 -0.17230093248E+01  0.35970060216E+02  0.00000000000E+00 0.  1.
</event>
<event>
 7    1  0.2478637E-008  0.4614232E+02  0.7816164E-02  0.1320468E+00
        -11   -1    0    0    0    0  0.00000000000E+00  0.00000000000E+00  0.45593999997E+02  0.45594000000E+02  0.51100000000E-03 0. -1.
         11   -1    0    0    0    0 -0.00000000000E+00 -0.00000000000E+00 -0.45593999997E+02  0.45594000000E+02  0.51100000000E-03 0.  1.
    9900012    2    1    2    0    0  0.21477001994E+02  0.29931350208E+02 -0.25922309736E+02  0.46142317832E+02  0.10000000643E+02 0.  0.
         12    1    1    2    0    0 -0.21477001994E+02 -0.29931350208E+02  0.25922309736E+02  0.45045682168E+02  0.00000000000E+00 0. -1.
         11    1    3    3    0    0  0.45343750483E+01  0.39915709147E+01 -0.82599733692E+01  0.10233296427E+02  0.51100000000E-03 0. -1.
        -11    1    3    3    0    0  0.71836635213E+01  0.78934143572E+01 -0.48699295402E+01  0.11731463071E+02  0.51100000000E-03 0.  1.
         12    1    3    3    0    0  0.97589634246E+01  0.18046364936E+02 -0.12792406827E+02  0.24177558333E+02  0.00000000000E+00 0. -1.
</event>
<event>
 7    1  0.2478637E-008  0.4614231E+02  0.7816164E-02  0.1320468E+00
        -11   -1    0    0    0    0  0.00000000000E+00  0.00000000000E+00  0.45593999997E+02  0.45594000000E+02  0.51100000000E-03 0.  1.
         11   -1    0    0    0    0 -0.00000000000E+00 -0.00000000000E+00 -0.45593999997E+02  0.45594000000E+02  0.51100000000E-03 0. -1.
    9900012    2    1    2    0    0 -0.24044158451E+01 -0.24710560940E+02  0.37586178529E+02  0.46142313703E+02  0.99999629991E+01 0.  0.
         12    1    1    2    0    0  0.24044158451E+01  0.24710560940E+02 -0.37586178529E+02  0.45045686297E+02  0.00000000000E+00 0. -1.
         11    1    3    3    0    0  0.13019795536E+01 -0.71484395871E+01  0.14617623300E+02  0.16323916518E+02  0.51100000000E-03 0. -1.
        -11    1    3    3    0    0 -0.24691929340E+01 -0.17560753378E+02  0.20916126008E+02  0.27421912778E+02  0.51100000000E-03 0.  1.
        -12    1    3    3    0    0 -0.12372024648E+01 -0.13679751348E-02  0.20524292202E+01  0.23964844072E+01  0.00000000000E+00 0.  1.
</event>
<event>
 7    1  0.2478637E-008  0.4614232E+02  0.7816164E-02  0.1320468E+00
        -11   -1    0    0    0    0  0.00000000000E+00  0.00000000000E+00  0.45593999997E+02  0.45594000000E+02  0.51100000000E-03 0. -1.
         11   -1    0    0    0    0 -0.00000000000E+00 -0.00000000000E+00 -0.45593999997E+02  0.45594000000E+02  0.51100000000E-03 0.  1.
    9900012    2    1    2    0    0  0.22221942780E+02 -0.31064361698E+02 -0.23881041096E+02  0.46142318382E+02  0.10000005664E+02 0.  0.
         12    1    1    2    0    0 -0.22221942780E+02  0.31064361698E+02  0.23881041096E+02  0.45045681618E+02  0.00000000000E+00 0. -1.
         11    1    3    3    0    0  0.64263192280E+01 -0.95413293221E+01 -0.61265666634E+01  0.13033394163E+02  0.51100000000E-03 0. -1.
        -11    1    3    3    0    0  0.39451953028E+01 -0.11983519749E+02 -0.65504505754E+01  0.14215404129E+02  0.51100000000E-03 0.  1.
         12    1    3    3    0    0  0.11850428249E+02 -0.95395126270E+01 -0.11204023857E+02  0.18893520091E+02  0.00000000000E+00 0. -1.
</event>
<event>
 7    1  0.2478637E-008  0.4614232E+02  0.7816164E-02  0.1320468E+00
        -11   -1    0    0    0    0  0.00000000000E+00  0.00000000000E+00  0.45593999997E+02  0.45594000000E+02  0.51100000000E-03 0.  1.
         11   -1    0    0    0    0 -0.00000000000E+00 -0.00000000000E+00 -0.45593999997E+02  0.45594000000E+02  0.51100000000E-03 0. -1.
    9900012    2    1    2    0    0 -0.10659347031E+01  0.37921410603E+02  0.24288760716E+02  0.46142317676E+02  0.99999992245E+01 0.  0.
         12    1    1    2    0    0  0.10659347031E+01 -0.37921410603E+02 -0.24288760716E+02  0.45045682324E+02  0.00000000000E+00 0. -1.
         11    1    3    3    0    0  0.11672459561E+01  0.10958458131E+02  0.86698553545E+01  0.14022006271E+02  0.51100000000E-03 0.  1.
        -11    1    3    3    0    0 -0.45676379069E+01  0.15948200003E+02  0.73181019688E+01  0.18131823297E+02  0.51100000000E-03 0. -1.
         12    1    3    3    0    0  0.23344572477E+01  0.11014752470E+02  0.83008033922E+01  0.13988488109E+02  0.00000000000E+00 0. -1.
</event>
<event>
 7    1  0.2478637E-008  0.4614232E+02  0.7816164E-02  0.1320468E+00
        -11   -1    0    0    0    0  0.00000000000E+00  0.00000000000E+00  0.45593999997E+02  0.45594000000E+02  0.51100000000E-03 0.  1.
         11   -1    0    0    0    0 -0.00000000000E+00 -0.00000000000E+00 -0.45593999997E+02  0.45594000000E+02  0.51100000000E-03 0. -1.
    9900012    2    1    2    0    0 -0.11070869554E+02  0.38709800636E+01  0.43492122234E+02  0.46142319455E+02  0.10000015450E+02 0.  0.
         12    1    1    2    0    0  0.11070869554E+02 -0.38709800636E+01 -0.43492122234E+02  0.45045680545E+02  0.00000000000E+00 0. -1.
         11    1    3    3    0    0 -0.11572165615E+01  0.21937663762E+01  0.58791398720E+01  0.63809127074E+01  0.51100000000E-03 0. -1.
        -11    1    3    3    0    0 -0.30199963484E+01  0.45093901438E+01  0.16740784025E+02  0.17598546174E+02  0.51100000000E-03 0.  1.
        -12    1    3    3    0    0 -0.68936566446E+01 -0.28321764564E+01  0.20872198337E+02  0.22162860574E+02  0.00000000000E+00 0.  1.
</event>
<event>
 7    1  0.2478637E-008  0.4614232E+02  0.7816164E-02  0.1320468E+00
        -11   -1    0    0    0    0  0.00000000000E+00  0.00000000000E+00  0.45593999997E+02  0.45594000000E+02  0.51100000000E-03 0.  1.
         11   -1    0    0    0    0 -0.00000000000E+00 -0.00000000000E+00 -0.45593999997E+02  0.45594000000E+02  0.51100000000E-03 0. -1.
    9900012    2    1    2    0    0  0.16483618577E+02 -0.25691802306E+02  0.33126047498E+02  0.46142318631E+02  0.10000007935E+02 0.  0.
         12    1    1    2    0    0 -0.16483618577E+02  0.25691802306E+02 -0.33126047498E+02  0.45045681369E+02  0.00000000000E+00 0. -1.
         11    1    3    3    0    0  0.40178584417E+01 -0.41793712048E+01  0.10819255203E+02  0.12274632929E+02  0.51100000000E-03 0. -1.
        -11    1    3    3    0    0  0.66972798859E+01 -0.86662110885E+01  0.66655309063E+01  0.12821313311E+02  0.51100000000E-03 0.  1.
        -12    1    3    3    0    0  0.57684802490E+01 -0.12846220013E+02  0.15641261389E+02  0.21046372391E+02  0.00000000000E+00 0.  1.
</event>
<event>
 7    1  0.2478637E-008  0.4614232E+02  0.7816164E-02  0.1320468E+00
        -11   -1    0    0    0    0  0.00000000000E+00  0.00000000000E+00  0.45593999997E+02  0.45594000000E+02  0.51100000000E-03 0.  1.
         11   -1    0    0    0    0 -0.00000000000E+00 -0.00000000000E+00 -0.45593999997E+02  0.45594000000E+02  0.51100000000E-03 0. -1.
    9900012    2    1    2    0    0  0.15869402477E+02  0.33971906112E+02  0.24963679595E+02  0.46142316092E+02  0.99999847767E+01 0.  0.
         12    1    1    2    0    0 -0.15869402477E+02 -0.33971906112E+02 -0.24963679595E+02  0.45045683908E+02  0.00000000000E+00 0. -1.
         11    1    3    3    0    0  0.39613814454E+00  0.50455353498E+01  0.51367295442E+01  0.72111263383E+01  0.51100000000E-03 0. -1.
        -11    1    3    3    0    0  0.10285756341E+02  0.23442535407E+02  0.17581076189E+02  0.31055490498E+02  0.51100000000E-03 0.  1.
         12    1    3    3    0    0  0.51875079918E+01  0.54838353550E+01  0.22458738615E+01  0.78756992558E+01  0.00000000000E+00 0. -1.
</event>
<event>
 7    1  0.2478637E-008  0.4614232E+02  0.7816164E-02  0.1320468E+00
        -11   -1    0    0    0    0  0.00000000000E+00  0.00000000000E+00  0.45593999997E+02  0.45594000000E+02  0.51100000000E-03 0.  1.
         11   -1    0    0    0    0 -0.00000000000E+00 -0.00000000000E+00 -0.45593999997E+02  0.45594000000E+02  0.51100000000E-03 0. -1.
    9900012    2    1    2    0    0 -0.28396690515E+02 -0.16885737420E+02  0.30620473594E+02  0.46142316926E+02  0.99999923866E+01 0.  0.
         12    1    1    2    0    0  0.28396690515E+02  0.16885737420E+02 -0.30620473594E+02  0.45045683074E+02  0.00000000000E+00 0. -1.
         11    1    3    3    0    0 -0.82910352365E+01 -0.19899638720E+01  0.40267345896E+01  0.94295181861E+01  0.51100000000E-03 0. -1.
        -11    1    3    3    0    0 -0.16336015859E+02 -0.10100837501E+02  0.19894010984E+02  0.27652558754E+02  0.51100000000E-03 0.  1.
        -12    1    3    3    0    0 -0.37696394201E+01 -0.47949360467E+01  0.66997280208E+01  0.90602399859E+01  0.00000000000E+00 0.  1.
</event>
<event>
 7    1  0.2478637E-008  0.4614233E+02  0.7816164E-02  0.1320468E+00
        -11   -1    0    0    0    0  0.00000000000E+00  0.00000000000E+00  0.45593999997E+02  0.45594000000E+02  0.51100000000E-03 0.  1.
         11   -1    0    0    0    0 -0.00000000000E+00 -0.00000000000E+00 -0.45593999997E+02  0.45594000000E+02  0.51100000000E-03 0. -1.
    9900012    2    1    2    0    0  0.25564335480E+02 -0.33103425220E+02  0.16725433413E+02  0.46142332809E+02  0.10000137216E+02 0.  0.
         12    1    1    2    0    0 -0.25564335480E+02  0.33103425220E+02 -0.16725433413E+02  0.45045667191E+02  0.00000000000E+00 0. -1.
         11    1    3    3    0    0  0.63685991844E+01 -0.64009299417E+01  0.17020236174E+01  0.91884625670E+01  0.51100000000E-03 0. -1.
        -11    1    3    3    0    0  0.14532545176E+02 -0.14172710922E+02  0.10394272052E+02  0.22805733839E+02  0.51100000000E-03 0.  1.
         12    1    3    3    0    0  0.46631911202E+01 -0.12529784356E+02  0.46291377431E+01  0.14148136403E+02  0.00000000000E+00 0. -1.
</event>
<event>
 7    1  0.2478637E-008  0.4614232E+02  0.7816164E-02  0.1320468E+00
        -11   -1    0    0    0    0  0.00000000000E+00  0.00000000000E+00  0.45593999997E+02  0.45594000000E+02  0.51100000000E-03 0.  1.
         11   -1    0    0    0    0 -0.00000000000E+00 -0.00000000000E+00 -0.45593999997E+02  0.45594000000E+02  0.51100000000E-03 0. -1.
    9900012    2    1    2    0    0 -0.36052794738E+02  0.47674577382E+01  0.26581590229E+02  0.46142316513E+02  0.99999886181E+01 0.  0.
         12    1    1    2    0    0  0.36052794738E+02 -0.47674577382E+01 -0.26581590229E+02  0.45045683487E+02  0.00000000000E+00 0. -1.
         11    1    3    3    0    0 -0.22322277624E+01 -0.64294591487E+00  0.20864727244E+01  0.31224331736E+01  0.51100000000E-03 0. -1.
        -11    1    3    3    0    0 -0.24665605842E+02  0.74950654223E+01  0.15884552864E+02  0.30280144273E+02  0.51100000000E-03 0.  1.
        -12    1    3    3    0    0 -0.91549611339E+01 -0.20846617692E+01  0.86105646404E+01  0.12739739067E+02  0.00000000000E+00 0.  1.
</event>
<event>
 7    1  0.2478637E-008  0.4614232E+02  0.7816164E-02  0.1320468E+00
        -11   -1    0    0    0    0  0.00000000000E+00  0.00000000000E+00  0.45593999997E+02  0.45594000000E+02  0.51100000000E-03 0.  1.
         11   -1    0    0    0    0 -0.00000000000E+00 -0.00000000000E+00 -0.45593999997E+02  0.45594000000E+02  0.51100000000E-03 0. -1.
    9900012    2    1    2    0    0 -0.27782850692E+02  0.29110858217E+02  0.20243140174E+02  0.46142316713E+02  0.99999904426E+01 0.  0.
         12    1    1    2    0    0  0.27782850692E+02 -0.29110858217E+02 -0.20243140174E+02  0.45045683287E+02  0.00000000000E+00 0. -1.
         11    1    3    3    0    0 -0.17202154979E+02  0.15707813763E+02  0.91585042101E+01  0.25030536326E+02  0.51100000000E-03 0. -1.
        -11    1    3    3    0    0 -0.30567996773E-01 -0.32627951931E+00  0.10488889178E+01  0.10988907817E+01  0.51100000000E-03 0.  1.
        -12    1    3    3    0    0 -0.10550127716E+02  0.13729323974E+02  0.10035747046E+02  0.20012889606E+02  0.00000000000E+00 0.  1.
</event>
<event>
 7    1  0.2478637E-008  0.4614232E+02  0.7816164E-02  0.1320468E+00
        -11   -1    0    0    0    0  0.00000000000E+00  0.00000000000E+00  0.45593999997E+02  0.45594000000E+02  0.51100000000E-03 0. -1.
         11   -1    0    0    0    0 -0.00000000000E+00 -0.00000000000E+00 -0.45593999997E+02  0.45594000000E+02  0.51100000000E-03 0.  1.
    9900012    2    1    2    0    0 -0.26351528145E+02 -0.28471572386E+02 -0.22892797368E+02  0.46142316066E+02  0.99999845438E+01 0.  0.
         12    1    1    2    0    0  0.26351528145E+02  0.28471572386E+02  0.22892797368E+02  0.45045683934E+02  0.00000000000E+00 0. -1.
         11    1    3    3    0    0 -0.10425788049E+02 -0.89886802343E+01 -0.75636198854E+01  0.15706742974E+02  0.51100000000E-03 0. -1.
        -11    1    3    3    0    0 -0.95215196496E+01 -0.15542233354E+02 -0.13541042471E+02  0.22706390852E+02  0.51100000000E-03 0.  1.
        -12    1    3    3    0    0 -0.64042204465E+01 -0.39406587982E+01 -0.17881350117E+01  0.77291822408E+01  0.00000000000E+00 0.  1.
</event>
<event>
 7    1  0.2478637E-008  0.4614231E+02  0.7816164E-02  0.1320468E+00
        -11   -1    0    0    0    0  0.00000000000E+00  0.00000000000E+00  0.45593999997E+02  0.45594000000E+02  0.51100000000E-03 0. -1.
         11   -1    0    0    0    0 -0.00000000000E+00 -0.00000000000E+00 -0.45593999997E+02  0.45594000000E+02  0.51100000000E-03 0.  1.
    9900012    2    1    2    0    0 -0.38534597128E+02  0.18705508149E+02 -0.13939244126E+02  0.46142314994E+02  0.99999747646E+01 0.  0.
         12    1    1    2    0    0  0.38534597128E+02 -0.18705508149E+02  0.13939244126E+02  0.45045685006E+02  0.00000000000E+00 0. -1.
         11    1    3    3    0    0 -0.11209740289E+02  0.76297756739E+01 -0.64326393681E+01  0.15008351131E+02  0.51100000000E-03 0. -1.
        -11    1    3    3    0    0 -0.19060611502E+02  0.85782008408E+01 -0.22416452450E+01  0.21021831846E+02  0.51100000000E-03 0.  1.
        -12    1    3    3    0    0 -0.82642453372E+01  0.24975316339E+01 -0.52649595126E+01  0.10112132017E+02  0.00000000000E+00 0.  1.
</event>
<event>
 7    1  0.2478637E-008  0.4614232E+02  0.7816164E-02  0.1320468E+00
        -11   -1    0    0    0    0  0.00000000000E+00  0.00000000000E+00  0.45593999997E+02  0.45594000000E+02  0.51100000000E-03 0. -1.
         11   -1    0    0    0    0 -0.00000000000E+00 -0.00000000000E+00 -0.45593999997E+02  0.45594000000E+02  0.51100000000E-03 0.  1.
    9900012    2    1    2    0    0 -0.15034675367E+02  0.41526909343E+02 -0.88649774177E+01  0.46142317770E+02  0.10000000082E+02 0.  0.
         12    1    1    2    0    0  0.15034675367E+02 -0.41526909343E+02  0.88649774177E+01  0.45045682230E+02  0.00000000000E+00 0. -1.
         11    1    3    3    0    0 -0.30867731506E+01  0.30303380757E+01 -0.17590238388E+00  0.43292100026E+01  0.51100000000E-03 0. -1.
        -11    1    3    3    0    0 -0.55870493504E+01  0.10377415712E+02 -0.47858017911E+01  0.12720447176E+02  0.51100000000E-03 0.  1.
         12    1    3    3    0    0 -0.63608528663E+01  0.28119155555E+02 -0.39032732428E+01  0.29092660592E+02  0.00000000000E+00 0. -1.
</event>
<event>
 7    1  0.2478637E-008  0.4614232E+02  0.7816164E-02  0.1320468E+00
        -11   -1    0    0    0    0  0.00000000000E+00  0.00000000000E+00  0.45593999997E+02  0.45594000000E+02  0.51100000000E-03 0.  1.
         11   -1    0    0    0    0 -0.00000000000E+00 -0.00000000000E+00 -0.45593999997E+02  0.45594000000E+02  0.51100000000E-03 0. -1.
    9900012    2    1    2    0    0  0.29828775219E+02 -0.23290935852E+02  0.24431330041E+02  0.46142318614E+02  0.10000007778E+02 0.  0.
         12    1    1    2    0    0 -0.29828775219E+02  0.23290935852E+02 -0.24431330041E+02  0.45045681386E+02  0.00000000000E+00 0. -1.
         11    1    3    3    0    0  0.11365480181E+02 -0.67563496539E+01  0.13350545814E+02  0.18789876907E+02  0.51100000000E-03 0. -1.
        -11    1    3    3    0    0  0.30029994459E+01 -0.22225708618E+01  0.29871762957E+01  0.47834139890E+01  0.51100000000E-03 0.  1.
         12    1    3    3    0    0  0.15460295593E+02 -0.14312015336E+02  0.80936079319E+01  0.22569027718E+02  0.00000000000E+00 0. -1.
</event>
<event>
 7    1  0.2478637E-008  0.4614232E+02  0.7816164E-02  0.1320468E+00
        -11   -1    0    0    0    0  0.00000000000E+00  0.00000000000E+00  0.45593999997E+02  0.45594000000E+02  0.51100000000E-03 0.  1.
         11   -1    0    0    0    0 -0.00000000000E+00 -0.00000000000E+00 -0.45593999997E+02  0.45594000000E+02  0.51100000000E-03 0. -1.
    9900012    2    1    2    0    0 -0.42000613630E+01 -0.33249200534E+02  0.30099230525E+02  0.46142317301E+02  0.99999958022E+01 0.  0.
         12    1    1    2    0    0  0.42000613630E+01  0.33249200534E+02 -0.30099230525E+02  0.45045682699E+02  0.00000000000E+00 0. -1.
         11    1    3    3    0    0 -0.27647355965E+01 -0.23368146596E+02  0.25705355638E+02  0.34849380870E+02  0.51100000000E-03 0. -1.
        -11    1    3    3    0    0 -0.12065204998E+00 -0.38635041818E+01  0.32016191727E+01  0.50191221412E+01  0.51100000000E-03 0.  1.
         12    1    3    3    0    0 -0.13146737166E+01 -0.60175497567E+01  0.11922557141E+01  0.62738142899E+01  0.00000000000E+00 0. -1.
</event>
<event>
 7    1  0.2478637E-008  0.4614232E+02  0.7816164E-02  0.1320468E+00
        -11   -1    0    0    0    0  0.00000000000E+00  0.00000000000E+00  0.45593999997E+02  0.45594000000E+02  0.51100000000E-03 0.  1.
         11   -1    0    0    0    0 -0.00000000000E+00 -0.00000000000E+00 -0.45593999997E+02  0.45594000000E+02  0.51100000000E-03 0. -1.
    9900012    2    1    2    0    0  0.55821072579E+01  0.42522912200E+02  0.13775182027E+02  0.46142316264E+02  0.99999863444E+01 0.  0.
         12    1    1    2    0    0 -0.55821072579E+01 -0.42522912200E+02 -0.13775182027E+02  0.45045683736E+02  0.00000000000E+00 0. -1.
         11    1    3    3    0    0  0.20518335014E+01  0.20125549106E+02  0.10873617005E+02  0.22967004475E+02  0.51100000000E-03 0.  1.
        -11    1    3    3    0    0  0.28627415889E+01  0.17901587646E+02  0.38475912958E+01  0.18532838118E+02  0.51100000000E-03 0. -1.
        -12    1    3    3    0    0  0.66753216760E+00  0.44957754476E+01 -0.94602627371E+00  0.46424736704E+01  0.00000000000E+00 0.  1.
</event>
<event>
 7    1  0.2478637E-008  0.4614232E+02  0.7816164E-02  0.1320468E+00
        -11   -1    0    0    0    0  0.00000000000E+00  0.00000000000E+00  0.45593999997E+02  0.45594000000E+02  0.51100000000E-03 0.  1.
         11   -1    0    0    0    0 -0.00000000000E+00 -0.00000000000E+00 -0.45593999997E+02  0.45594000000E+02  0.51100000000E-03 0. -1.
    9900012    2    1    2    0    0  0.29136550943E+02 -0.22589252740E+02  0.25882437363E+02  0.46142317587E+02  0.99999984123E+01 0.  0.
         12    1    1    2    0    0 -0.29136550943E+02  0.22589252740E+02 -0.25882437363E+02  0.45045682413E+02  0.00000000000E+00 0. -1.
         11    1    3    3    0    0  0.89158972438E+01 -0.30263163892E+01  0.66209650942E+01  0.11510386335E+02  0.51100000000E-03 0. -1.
        -11    1    3    3    0    0  0.87971454842E+01 -0.45151448873E+01  0.67151698793E+01  0.11952815936E+02  0.51100000000E-03 0.  1.
         12    1    3    3    0    0  0.11423508215E+02 -0.15047791463E+02  0.12546302390E+02  0.22679115316E+02  0.00000000000E+00 0. -1.
</event>
<event>
 7    1  0.2478637E-008  0.4614232E+02  0.7816164E-02  0.1320468E+00
        -11   -1    0    0    0    0  0.00000000000E+00  0.00000000000E+00  0.45593999997E+02  0.45594000000E+02  0.51100000000E-03 0. -1.
         11   -1    0    0    0    0 -0.00000000000E+00 -0.00000000000E+00 -0.45593999997E+02  0.45594000000E+02  0.51100000000E-03 0.  1.
    9900012    2    1    2    0    0 -0.23221847844E+02  0.24547554869E+02 -0.29787192139E+02  0.46142317822E+02  0.10000000559E+02 0.  0.
         12    1    1    2    0    0  0.23221847844E+02 -0.24547554869E+02  0.29787192139E+02  0.45045682178E+02  0.00000000000E+00 0. -1.
         11    1    3    3    0    0 -0.16091757666E+02  0.21382220056E+02 -0.26438919444E+02  0.37618618541E+02  0.51100000000E-03 0. -1.
        -11    1    3    3    0    0 -0.54179411302E+01  0.26834137384E+01 -0.27959240596E+01  0.66612301409E+01  0.51100000000E-03 0.  1.
         12    1    3    3    0    0 -0.17121490479E+01  0.48192107402E+00 -0.55234863507E+00  0.18624691403E+01  0.00000000000E+00 0. -1.
</event>
<event>
 7    1  0.2478637E-008  0.4614232E+02  0.7816164E-02  0.1320468E+00
        -11   -1    0    0    0    0  0.00000000000E+00  0.00000000000E+00  0.45593999997E+02  0.45594000000E+02  0.51100000000E-03 0.  1.
         11   -1    0    0    0    0 -0.00000000000E+00 -0.00000000000E+00 -0.45593999997E+02  0.45594000000E+02  0.51100000000E-03 0. -1.
    9900012    2    1    2    0    0  0.32562250704E+01 -0.15336019072E+02  0.42229339369E+02  0.46142316675E+02  0.99999900941E+01 0.  0.
         12    1    1    2    0    0 -0.32562250704E+01  0.15336019072E+02 -0.42229339369E+02  0.45045683325E+02  0.00000000000E+00 0. -1.
         11    1    3    3    0    0  0.90838231981E+00 -0.61039678303E+01  0.13802980754E+02  0.15119717579E+02  0.51100000000E-03 0. -1.
        -11    1    3    3    0    0  0.14364683866E+01 -0.32617838591E+01  0.21667025597E+02  0.21958202883E+02  0.51100000000E-03 0.  1.
         12    1    3    3    0    0  0.91137436403E+00 -0.59702673827E+01  0.67593330178E+01  0.90643962126E+01  0.00000000000E+00 0. -1.
</event>
<event>
 7    1  0.2478637E-008  0.4614232E+02  0.7816164E-02  0.1320468E+00
        -11   -1    0    0    0    0  0.00000000000E+00  0.00000000000E+00  0.45593999997E+02  0.45594000000E+02  0.51100000000E-03 0.  1.
         11   -1    0    0    0    0 -0.00000000000E+00 -0.00000000000E+00 -0.45593999997E+02  0.45594000000E+02  0.51100000000E-03 0. -1.
    9900012    2    1    2    0    0  0.36568826930E+02 -0.11642310700E+02  0.23585821207E+02  0.46142318037E+02  0.10000002518E+02 0.  0.
         12    1    1    2    0    0 -0.36568826930E+02  0.11642310700E+02 -0.23585821207E+02  0.45045681963E+02  0.00000000000E+00 0. -1.
         11    1    3    3    0    0  0.54858950747E+01 -0.50066842490E+01  0.52999271967E+01  0.91242073898E+01  0.51100000000E-03 0. -1.
        -11    1    3    3    0    0  0.11030521605E+02 -0.48069232426E+01  0.62368265486E+01  0.13552745980E+02  0.51100000000E-03 0.  1.
        -12    1    3    3    0    0  0.20052410251E+02 -0.18287032080E+01  0.12049067462E+02  0.23465364668E+02  0.00000000000E+00 0.  1.
</event>
<event>
 7    1  0.2478637E-008  0.4614232E+02  0.7816164E-02  0.1320468E+00
        -11   -1    0    0    0    0  0.00000000000E+00  0.00000000000E+00  0.45593999997E+02  0.45594000000E+02  0.51100000000E-03 0. -1.
         11   -1    0    0    0    0 -0.00000000000E+00 -0.00000000000E+00 -0.45593999997E+02  0.45594000000E+02  0.51100000000E-03 0.  1.
    9900012    2    1    2    0    0 -0.58088862743E+01 -0.44653491354E+02  0.11983181655E+01  0.46142318561E+02  0.10000007297E+02 0.  0.
         12    1    1    2    0    0  0.58088862743E+01  0.44653491354E+02 -0.11983181655E+01  0.45045681439E+02  0.00000000000E+00 0. -1.
         11    1    3    3    0    0 -0.97654958712E-01 -0.14714635601E+02  0.61862209465E+00  0.14727957460E+02  0.51100000000E-03 0. -1.
        -11    1    3    3    0    0 -0.28480396852E+01 -0.24289165058E+02 -0.20819846609E+01  0.24544032465E+02  0.51100000000E-03 0.  1.
         12    1    3    3    0    0 -0.28631916304E+01 -0.56496906946E+01  0.26616807317E+01  0.68703286366E+01  0.00000000000E+00 0. -1.
</event>
<event>
 7    1  0.2478637E-008  0.4614232E+02  0.7816164E-02  0.1320468E+00
        -11   -1    0    0    0    0  0.00000000000E+00  0.00000000000E+00  0.45593999997E+02  0.45594000000E+02  0.51100000000E-03 0.  1.
         11   -1    0    0    0    0 -0.00000000000E+00 -0.00000000000E+00 -0.45593999997E+02  0.45594000000E+02  0.51100000000E-03 0. -1.
    9900012    2    1    2    0    0 -0.21419066545E+02 -0.19966639386E+02  0.34229672351E+02  0.46142316863E+02  0.99999918121E+01 0.  0.
         12    1    1    2    0    0  0.21419066545E+02  0.19966639386E+02 -0.34229672351E+02  0.45045683137E+02  0.00000000000E+00 0. -1.
         11    1    3    3    0    0 -0.15358995821E+01 -0.19097150671E+01  0.30718286840E+01  0.39296476800E+01  0.51100000000E-03 0. -1.
        -11    1    3    3    0    0 -0.10660157235E+02 -0.15657455072E+02  0.20257335051E+02  0.27733634368E+02  0.51100000000E-03 0.  1.
         12    1    3    3    0    0 -0.92230097281E+01 -0.23994692467E+01  0.10900508615E+02  0.14479034815E+02  0.00000000000E+00 0. -1.
</event>
<event>
 7    1  0.2478637E-008  0.4614231E+02  0.7816164E-02  0.1320468E+00
        -11   -1    0    0    0    0  0.00000000000E+00  0.00000000000E+00  0.45593999997E+02  0.45594000000E+02  0.51100000000E-03 0. -1.
         11   -1    0    0    0    0 -0.00000000000E+00 -0.00000000000E+00 -0.45593999997E+02  0.45594000000E+02  0.51100000000E-03 0.  1.
    9900012    2    1    2    0    0  0.11205959552E+02 -0.41632282259E+02 -0.13049677548E+02  0.46142306092E+02  0.99998935916E+01 0.  0.
         12    1    1    2    0    0 -0.11205959552E+02  0.41632282259E+02  0.13049677548E+02  0.45045693908E+02  0.00000000000E+00 0. -1.
         11    1    3    3    0    0 -0.46667674345E+00 -0.95677705069E+01 -0.44959406630E+00  0.95896900232E+01  0.51100000000E-03 0. -1.
        -11    1    3    3    0    0  0.27436015506E+01 -0.11343345449E+02 -0.31313387588E+01  0.12083216381E+02  0.51100000000E-03 0.  1.
        -12    1    3    3    0    0  0.89290347450E+01 -0.20721166303E+02 -0.94687447232E+01  0.24469399687E+02  0.00000000000E+00 0.  1.
</event>
<event>
 7    1  0.2478637E-008  0.4614232E+02  0.7816164E-02  0.1320468E+00
        -11   -1    0    0    0    0  0.00000000000E+00  0.00000000000E+00  0.45593999997E+02  0.45594000000E+02  0.51100000000E-03 0.  1.
         11   -1    0    0    0    0 -0.00000000000E+00 -0.00000000000E+00 -0.45593999997E+02  0.45594000000E+02  0.51100000000E-03 0. -1.
    9900012    2    1    2    0    0 -0.19388759605E+02 -0.27541108835E+02  0.29911148902E+02  0.46142317593E+02  0.99999984668E+01 0.  0.
         12    1    1    2    0    0  0.19388759605E+02  0.27541108835E+02 -0.29911148902E+02  0.45045682407E+02  0.00000000000E+00 0. -1.
         11    1    3    3    0    0 -0.65944187714E+01 -0.81892046970E+01  0.88361923272E+01  0.13734180995E+02  0.51100000000E-03 0. -1.
        -11    1    3    3    0    0 -0.11359547387E+02 -0.20034318288E+02  0.19751709517E+02  0.30340455751E+02  0.51100000000E-03 0.  1.
         12    1    3    3    0    0 -0.14347934463E+01  0.68241415020E+00  0.13232470586E+01  0.20676808467E+01  0.00000000000E+00 0. -1.
</event>
<event>
 7    1  0.2478637E-008  0.4614232E+02  0.7816164E-02  0.1320468E+00
        -11   -1    0    0    0    0  0.00000000000E+00  0.00000000000E+00  0.45593999997E+02  0.45594000000E+02  0.51100000000E-03 0.  1.
         11   -1    0    0    0    0 -0.00000000000E+00 -0.00000000000E+00 -0.45593999997E+02  0.45594000000E+02  0.51100000000E-03 0. -1.
    9900012    2    1    2    0    0  0.24328759468E+02 -0.19133079334E+02  0.32728431365E+02  0.46142317835E+02  0.10000000675E+02 0.  0.
         12    1    1    2    0    0 -0.24328759468E+02  0.19133079334E+02 -0.32728431365E+02  0.45045682165E+02  0.00000000000E+00 0. -1.
         11    1    3    3    0    0  0.16368650507E+01 -0.13964263086E+00  0.59750711880E+01  0.61967978199E+01  0.51100000000E-03 0. -1.
        -11    1    3    3    0    0  0.17019616939E+02 -0.13338100535E+02  0.20305935139E+02  0.29663163836E+02  0.51100000000E-03 0.  1.
         12    1    3    3    0    0  0.56722774784E+01 -0.56553361684E+01  0.64474250384E+01  0.10282356179E+02  0.00000000000E+00 0. -1.
</event>
<event>
 7    1  0.2478637E-008  0.4614232E+02  0.7816164E-02  0.1320468E+00
        -11   -1    0    0    0    0  0.00000000000E+00  0.00000000000E+00  0.45593999997E+02  0.45594000000E+02  0.51100000000E-03 0.  1.
         11   -1    0    0    0    0 -0.00000000000E+00 -0.00000000000E+00 -0.45593999997E+02  0.45594000000E+02  0.51100000000E-03 0. -1.
    9900012    2    1    2    0    0  0.21501440181E+02  0.93696218779E+01  0.38457921349E+02  0.46142318092E+02  0.10000003021E+02 0.  0.
         12    1    1    2    0    0 -0.21501440181E+02 -0.93696218779E+01 -0.38457921349E+02  0.45045681908E+02  0.00000000000E+00 0. -1.
         11    1    3    3    0    0  0.84588768782E+01  0.73525201845E+01  0.14214668447E+02  0.18101628391E+02  0.51100000000E-03 0. -1.
        -11    1    3    3    0    0  0.74614585183E+01  0.35708241111E+01  0.15077835462E+02  0.17197827494E+02  0.51100000000E-03 0.  1.
        -12    1    3    3    0    0  0.55811047849E+01 -0.15537224177E+01  0.91654174407E+01  0.10842862207E+02  0.00000000000E+00 0.  1.
</event>
<event>
 7    1  0.2478637E-008  0.4614232E+02  0.7816164E-02  0.1320468E+00
        -11   -1    0    0    0    0  0.00000000000E+00  0.00000000000E+00  0.45593999997E+02  0.45594000000E+02  0.51100000000E-03 0. -1.
         11   -1    0    0    0    0 -0.00000000000E+00 -0.00000000000E+00 -0.45593999997E+02  0.45594000000E+02  0.51100000000E-03 0.  1.
    9900012    2    1    2    0    0  0.37373455361E+02 -0.16136135132E+02 -0.19286351297E+02  0.46142319086E+02  0.10000012085E+02 0.  0.
         12    1    1    2    0    0 -0.37373455361E+02  0.16136135132E+02  0.19286351297E+02  0.45045680914E+02  0.00000000000E+00 0. -1.
         11    1    3    3    0    0  0.15059264788E+02 -0.41557059118E+01 -0.54655311906E+01  0.16550630775E+02  0.51100000000E-03 0. -1.
        -11    1    3    3    0    0  0.20742092537E+02 -0.97895810033E+01 -0.10263540191E+02  0.25127884044E+02  0.51100000000E-03 0.  1.
         12    1    3    3    0    0  0.15720980366E+01 -0.21908482170E+01 -0.35572799150E+01  0.44638042677E+01  0.00000000000E+00 0. -1.
</event>
<event>
 7    1  0.2478637E-008  0.4614231E+02  0.7816164E-02  0.1320468E+00
        -11   -1    0    0    0    0  0.00000000000E+00  0.00000000000E+00  0.45593999997E+02  0.45594000000E+02  0.51100000000E-03 0.  1.
         11   -1    0    0    0    0 -0.00000000000E+00 -0.00000000000E+00 -0.45593999997E+02  0.45594000000E+02  0.51100000000E-03 0. -1.
    9900012    2    1    2    0    0 -0.13351509742E+02 -0.91512561097E+01  0.42036960665E+02  0.46142308056E+02  0.99999114985E+01 0.  0.
         12    1    1    2    0    0  0.13351509742E+02  0.91512561097E+01 -0.42036960665E+02  0.45045691944E+02  0.00000000000E+00 0. -1.
         11    1    3    3    0    0 -0.51731952116E+01 -0.30451900580E+01  0.99129048917E+01  0.11588822841E+02  0.51100000000E-03 0.  1.
        -11    1    3    3    0    0 -0.58767778834E+01  0.12452928859E+00  0.18213282290E+02  0.19138330070E+02  0.51100000000E-03 0. -1.
         12    1    3    3    0    0 -0.23015366474E+01 -0.62305953403E+01  0.13910773484E+02  0.15415155145E+02  0.00000000000E+00 0. -1.
</event>
<event>
 7    1  0.2478637E-008  0.4614232E+02  0.7816164E-02  0.1320468E+00
        -11   -1    0    0    0    0  0.00000000000E+00  0.00000000000E+00  0.45593999997E+02  0.45594000000E+02  0.51100000000E-03 0. -1.
         11   -1    0    0    0    0 -0.00000000000E+00 -0.00000000000E+00 -0.45593999997E+02  0.45594000000E+02  0.51100000000E-03 0.  1.
    9900012    2    1    2    0    0 -0.31779607138E+02  0.20909239926E+02 -0.24124133189E+02  0.46142317118E+02  0.99999941374E+01 0.  0.
         12    1    1    2    0    0  0.31779607138E+02 -0.20909239926E+02  0.24124133189E+02  0.45045682882E+02  0.00000000000E+00 0. -1.
         11    1    3    3    0    0 -0.91668517069E+01  0.24703220159E+01 -0.63657836731E+01  0.11430523309E+02  0.51100000000E-03 0. -1.
        -11    1    3    3    0    0 -0.19437409658E+02  0.14202506551E+02 -0.12030912236E+02  0.26912207937E+02  0.51100000000E-03 0.  1.
        -12    1    3    3    0    0 -0.31753457737E+01  0.42364113588E+01 -0.57274372806E+01  0.77995858728E+01  0.00000000000E+00 0.  1.
</event>
<event>
 7    1  0.2478637E-008  0.4614232E+02  0.7816164E-02  0.1320468E+00
        -11   -1    0    0    0    0  0.00000000000E+00  0.00000000000E+00  0.45593999997E+02  0.45594000000E+02  0.51100000000E-03 0.  1.
         11   -1    0    0    0    0 -0.00000000000E+00 -0.00000000000E+00 -0.45593999997E+02  0.45594000000E+02  0.51100000000E-03 0. -1.
    9900012    2    1    2    0    0 -0.44826673698E+02 -0.37567168583E+01  0.23600587123E+01  0.46142317926E+02  0.10000001503E+02 0.  0.
         12    1    1    2    0    0  0.44826673698E+02  0.37567168583E+01 -0.23600587123E+01  0.45045682074E+02  0.00000000000E+00 0. -1.
         11    1    3    3    0    0 -0.11237951602E+02 -0.17266347712E+01  0.67174842860E+00  0.11389647495E+02  0.51100000000E-03 0. -1.
        -11    1    3    3    0    0 -0.32423586193E+02 -0.22277217921E+01 -0.22850624855E+00  0.32500829242E+02  0.51100000000E-03 0.  1.
         12    1    3    3    0    0 -0.11651359026E+01  0.19763970488E+00  0.19168165322E+01  0.22518411895E+01  0.00000000000E+00 0. -1.
</event>
<event>
 7    1  0.2478637E-008  0.4614232E+02  0.7816164E-02  0.1320468E+00
        -11   -1    0    0    0    0  0.00000000000E+00  0.00000000000E+00  0.45593999997E+02  0.45594000000E+02  0.51100000000E-03 0.  1.
         11   -1    0    0    0    0 -0.00000000000E+00 -0.00000000000E+00 -0.45593999997E+02  0.45594000000E+02  0.51100000000E-03 0. -1.
    9900012    2    1    2    0    0 -0.21496934549E+02 -0.39585201164E+02  0.84183687704E-01  0.46142318375E+02  0.10000005597E+02 0.  0.
         12    1    1    2    0    0  0.21496934549E+02  0.39585201164E+02 -0.84183687704E-01  0.45045681625E+02  0.00000000000E+00 0. -1.
         11    1    3    3    0    0 -0.10167335211E+02 -0.16121023426E+02  0.27821048647E+01  0.19261417635E+02  0.51100000000E-03 0. -1.
        -11    1    3    3    0    0 -0.59535552050E+01 -0.17565355846E+02 -0.30717727748E+00  0.18549417881E+02  0.51100000000E-03 0.  1.
         12    1    3    3    0    0 -0.53760441333E+01 -0.58988218925E+01 -0.23907438995E+01  0.83314828593E+01  0.00000000000E+00 0. -1.
</event>
<event>
 7    1  0.2478637E-008  0.4614232E+02  0.7816164E-02  0.1320468E+00
        -11   -1    0    0    0    0  0.00000000000E+00  0.00000000000E+00  0.45593999997E+02  0.45594000000E+02  0.51100000000E-03 0. -1.
         11   -1    0    0    0    0 -0.00000000000E+00 -0.00000000000E+00 -0.45593999997E+02  0.45594000000E+02  0.51100000000E-03 0.  1.
    9900012    2    1    2    0    0  0.14491941067E+02 -0.20015627753E+02 -0.37662605941E+02  0.46142316561E+02  0.99999890589E+01 0.  0.
         12    1    1    2    0    0 -0.14491941067E+02  0.20015627753E+02  0.37662605941E+02  0.45045683439E+02  0.00000000000E+00 0. -1.
         11    1    3    3    0    0  0.63981637814E+01 -0.51793463459E+01 -0.12036814818E+02  0.14582422281E+02  0.51100000000E-03 0. -1.
        -11    1    3    3    0    0  0.43479544320E+01 -0.13064742290E+02 -0.22462484120E+02  0.26346828879E+02  0.51100000000E-03 0.  1.
        -12    1    3    3    0    0  0.37458228541E+01 -0.17715391167E+01 -0.31633070023E+01  0.52130654021E+01  0.00000000000E+00 0.  1.
</event>
<event>
 7    1  0.2478637E-008  0.4614232E+02  0.7816164E-02  0.1320468E+00
        -11   -1    0    0    0    0  0.00000000000E+00  0.00000000000E+00  0.45593999997E+02  0.45594000000E+02  0.51100000000E-03 0.  1.
         11   -1    0    0    0    0 -0.00000000000E+00 -0.00000000000E+00 -0.45593999997E+02  0.45594000000E+02  0.51100000000E-03 0. -1.
    9900012    2    1    2    0    0 -0.26098831640E+02 -0.35565652083E+02  0.91131167851E+01  0.46142317425E+02  0.99999969396E+01 0.  0.
         12    1    1    2    0    0  0.26098831640E+02  0.35565652083E+02 -0.91131167851E+01  0.45045682575E+02  0.00000000000E+00 0. -1.
         11    1    3    3    0    0 -0.11645764999E+02 -0.10638064559E+02  0.10618401126E+01  0.15808850833E+02  0.51100000000E-03 0. -1.
        -11    1    3    3    0    0 -0.10268937467E+02 -0.14417917692E+02  0.30357937800E+01  0.17959495299E+02  0.51100000000E-03 0.  1.
         12    1    3    3    0    0 -0.41841291746E+01 -0.10509669832E+02  0.50154828925E+01  0.12373971293E+02  0.00000000000E+00 0. -1.
</event>
<event>
 7    1  0.2478637E-008  0.4614232E+02  0.7816164E-02  0.1320468E+00
        -11   -1    0    0    0    0  0.00000000000E+00  0.00000000000E+00  0.45593999997E+02  0.45594000000E+02  0.51100000000E-03 0.  1.
         11   -1    0    0    0    0 -0.00000000000E+00 -0.00000000000E+00 -0.45593999997E+02  0.45594000000E+02  0.51100000000E-03 0. -1.
    9900012    2    1    2    0    0 -0.87139878663E+01 -0.15404647671E+02  0.41423142298E+02  0.46142317940E+02  0.10000001635E+02 0.  0.
         12    1    1    2    0    0  0.87139878663E+01  0.15404647671E+02 -0.41423142298E+02  0.45045682060E+02  0.00000000000E+00 0. -1.
         11    1    3    3    0    0  0.14379897129E+00  0.48899079659E+00  0.81412385112E+00  0.96051447120E+00  0.51100000000E-03 0. -1.
        -11    1    3    3    0    0 -0.77286387930E+01 -0.63125991728E+01  0.17600799536E+02  0.20232867085E+02  0.51100000000E-03 0.  1.
        -12    1    3    3    0    0 -0.11291480446E+01 -0.95810392946E+01  0.23008218910E+02  0.24948936384E+02  0.00000000000E+00 0.  1.
</event>
<event>
 7    1  0.2478637E-008  0.4614232E+02  0.7816164E-02  0.1320468E+00
        -11   -1    0    0    0    0  0.00000000000E+00  0.00000000000E+00  0.45593999997E+02  0.45594000000E+02  0.51100000000E-03 0.  1.
         11   -1    0    0    0    0 -0.00000000000E+00 -0.00000000000E+00 -0.45593999997E+02  0.45594000000E+02  0.51100000000E-03 0. -1.
    9900012    2    1    2    0    0  0.37727692346E+02  0.87347936073E+00  0.24596175856E+02  0.46142316492E+02  0.99999884294E+01 0.  0.
         12    1    1    2    0    0 -0.37727692346E+02 -0.87347936073E+00 -0.24596175856E+02  0.45045683508E+02  0.00000000000E+00 0. -1.
         11    1    3    3    0    0  0.11182032763E+02 -0.17015304589E+01  0.64325325057E+01  0.13011938261E+02  0.51100000000E-03 0. -1.
        -11    1    3    3    0    0  0.10429111304E+02  0.36676343427E+01  0.43654522175E+01  0.11885919299E+02  0.51100000000E-03 0.  1.
         12    1    3    3    0    0  0.16116548280E+02 -0.10926245231E+01  0.13798191132E+02  0.21244458932E+02  0.00000000000E+00 0. -1.
</event>
<event>
 7    1  0.2478637E-008  0.4614232E+02  0.7816164E-02  0.1320468E+00
        -11   -1    0    0    0    0  0.00000000000E+00  0.00000000000E+00  0.45593999997E+02  0.45594000000E+02  0.51100000000E-03 0.  1.
         11   -1    0    0    0    0 -0.00000000000E+00 -0.00000000000E+00 -0.45593999997E+02  0.45594000000E+02  0.51100000000E-03 0. -1.
    9900012    2    1    2    0    0  0.90376523106E+01  0.43405584381E+02  0.79617578390E+01  0.46142317603E+02  0.99999985566E+01 0.  0.
         12    1    1    2    0    0 -0.90376523106E+01 -0.43405584381E+02 -0.79617578390E+01  0.45045682397E+02  0.00000000000E+00 0. -1.
         11    1    3    3    0    0  0.44704744285E+00  0.15222056832E+01  0.20502497330E+01  0.25923899759E+01  0.51100000000E-03 0. -1.
        -11    1    3    3    0    0  0.90529171033E+01  0.33611786969E+02  0.56196310561E+01  0.35260286227E+02  0.51100000000E-03 0.  1.
         12    1    3    3    0    0 -0.46231223556E+00  0.82715917285E+01  0.29187704988E+00  0.82896413999E+01  0.00000000000E+00 0. -1.
</event>
<event>
 7    1  0.2478637E-008  0.4614232E+02  0.7816164E-02  0.1320468E+00
        -11   -1    0    0    0    0  0.00000000000E+00  0.00000000000E+00  0.45593999997E+02  0.45594000000E+02  0.51100000000E-03 0.  1.
         11   -1    0    0    0    0 -0.00000000000E+00 -0.00000000000E+00 -0.45593999997E+02  0.45594000000E+02  0.51100000000E-03 0. -1.
    9900012    2    1    2    0    0  0.39994269534E+02  0.16023939040E+02  0.13145529884E+02  0.46142321252E+02  0.10000031833E+02 0.  0.
         12    1    1    2    0    0 -0.39994269534E+02 -0.16023939040E+02 -0.13145529884E+02  0.45045678748E+02  0.00000000000E+00 0. -1.
         11    1    3    3    0    0  0.28367723708E+02  0.12361151189E+02  0.12957513100E+02  0.33547324082E+02  0.51100000000E-03 0.  1.
        -11    1    3    3    0    0  0.72112401177E+01  0.32105974382E+01  0.13470102680E+01  0.80077685324E+01  0.51100000000E-03 0. -1.
        -12    1    3    3    0    0  0.44153057089E+01  0.45219041249E+00 -0.11589934848E+01  0.45872286372E+01  0.00000000000E+00 0.  1.
</event>
<event>
 7    1  0.2478637E-008  0.4614232E+02  0.7816164E-02  0.1320468E+00
        -11   -1    0    0    0    0  0.00000000000E+00  0.00000000000E+00  0.45593999997E+02  0.45594000000E+02  0.51100000000E-03 0.  1.
         11   -1    0    0    0    0 -0.00000000000E+00 -0.00000000000E+00 -0.45593999997E+02  0.45594000000E+02  0.51100000000E-03 0. -1.
    9900012    2    1    2    0    0  0.31621622708E+02  0.25377234714E+02 -0.19626067956E+02  0.46142316435E+02  0.99999879077E+01 0.  0.
         12    1    1    2    0    0 -0.31621622708E+02 -0.25377234714E+02  0.19626067956E+02  0.45045683565E+02  0.00000000000E+00 0. -1.
         11    1    3    3    0    0  0.45567377323E+01  0.27764090597E+01 -0.54289300607E+01  0.76121999378E+01  0.51100000000E-03 0. -1.
        -11    1    3    3    0    0  0.11218007225E+02  0.11311632769E+02 -0.93743276110E+01  0.18484445905E+02  0.51100000000E-03 0.  1.
        -12    1    3    3    0    0  0.15846877751E+02  0.11289192885E+02 -0.48228102844E+01  0.20045670592E+02  0.00000000000E+00 0.  1.
</event>
<event>
 7    1  0.2478637E-008  0.4614232E+02  0.7816164E-02  0.1320468E+00
        -11   -1    0    0    0    0  0.00000000000E+00  0.00000000000E+00  0.45593999997E+02  0.45594000000E+02  0.51100000000E-03 0.  1.
         11   -1    0    0    0    0 -0.00000000000E+00 -0.00000000000E+00 -0.45593999997E+02  0.45594000000E+02  0.51100000000E-03 0. -1.
    9900012    2    1    2    0    0 -0.18813918005E+01  0.39860493579E+02  0.20897724745E+02  0.46142317821E+02  0.10000000547E+02 0.  0.
         12    1    1    2    0    0  0.18813918005E+01 -0.39860493579E+02 -0.20897724745E+02  0.45045682179E+02  0.00000000000E+00 0. -1.
         11    1    3    3    0    0  0.27217007883E+01  0.12285964435E+02  0.33496391102E+01  0.13022006747E+02  0.51100000000E-03 0. -1.
        -11    1    3    3    0    0 -0.13185516671E+01  0.97658686506E+01  0.77047793146E+01  0.12508972522E+02  0.51100000000E-03 0.  1.
         12    1    3    3    0    0 -0.32845409216E+01  0.17808660493E+02  0.98433063201E+01  0.20611338553E+02  0.00000000000E+00 0. -1.
</event>
<event>
 7    1  0.2478637E-008  0.4614233E+02  0.7816164E-02  0.1320468E+00
        -11   -1    0    0    0    0  0.00000000000E+00  0.00000000000E+00  0.45593999997E+02  0.45594000000E+02  0.51100000000E-03 0. -1.
         11   -1    0    0    0    0 -0.00000000000E+00 -0.00000000000E+00 -0.45593999997E+02  0.45594000000E+02  0.51100000000E-03 0.  1.
    9900012    2    1    2    0    0 -0.43633704101E+02 -0.59766865291E+01 -0.94599804611E+01  0.46142332664E+02  0.10000135893E+02 0.  0.
         12    1    1    2    0    0  0.43633704101E+02  0.59766865291E+01  0.94599804611E+01  0.45045667336E+02  0.00000000000E+00 0. -1.
         11    1    3    3    0    0 -0.14308614429E+02  0.22457855230E+00 -0.52939882883E+01  0.15258217283E+02  0.51100000000E-03 0. -1.
        -11    1    3    3    0    0 -0.19470051928E+02 -0.13274932784E+01 -0.38120344189E+01  0.19884083261E+02  0.51100000000E-03 0.  1.
         12    1    3    3    0    0 -0.98550377450E+01 -0.48737718030E+01 -0.35395775383E+00  0.11000032120E+02  0.00000000000E+00 0. -1.
</event>
<event>
 7    1  0.2478637E-008  0.4614232E+02  0.7816164E-02  0.1320468E+00
        -11   -1    0    0    0    0  0.00000000000E+00  0.00000000000E+00  0.45593999997E+02  0.45594000000E+02  0.51100000000E-03 0. -1.
         11   -1    0    0    0    0 -0.00000000000E+00 -0.00000000000E+00 -0.45593999997E+02  0.45594000000E+02  0.51100000000E-03 0.  1.
    9900012    2    1    2    0    0  0.52073914359E+01  0.44246123687E+02 -0.66541136560E+01  0.46142316351E+02  0.99999871413E+01 0.  0.
         12    1    1    2    0    0 -0.52073914359E+01 -0.44246123687E+02  0.66541136560E+01  0.45045683649E+02  0.00000000000E+00 0. -1.
         11    1    3    3    0    0  0.49384144401E+00  0.79282523494E+01  0.62655812092E+00  0.79682896552E+01  0.51100000000E-03 0. -1.
        -11    1    3    3    0    0  0.62776159571E+01  0.20514593088E+02 -0.25543006123E+01  0.21605125400E+02  0.51100000000E-03 0.  1.
         12    1    3    3    0    0 -0.15640659651E+01  0.15803278250E+02 -0.47263711646E+01  0.16568901296E+02  0.00000000000E+00 0. -1.
</event>
<event>
 7    1  0.2478637E-008  0.4614232E+02  0.7816164E-02  0.1320468E+00
        -11   -1    0    0    0    0  0.00000000000E+00  0.00000000000E+00  0.45593999997E+02  0.45594000000E+02  0.51100000000E-03 0.  1.
         11   -1    0    0    0    0 -0.00000000000E+00 -0.00000000000E+00 -0.45593999997E+02  0.45594000000E+02  0.51100000000E-03 0. -1.
    9900012    2    1    2    0    0 -0.13045549002E+02 -0.93521025185E+01  0.42088780101E+02  0.46142316736E+02  0.99999906558E+01 0.  0.
         12    1    1    2    0    0  0.13045549002E+02  0.93521025185E+01 -0.42088780101E+02  0.45045683264E+02  0.00000000000E+00 0. -1.
         11    1    3    3    0    0 -0.20652494004E+01 -0.10798241300E+01  0.65442207708E+01  0.69468050927E+01  0.51100000000E-03 0. -1.
        -11    1    3    3    0    0 -0.83365430362E+01 -0.16604446783E+01  0.25526295198E+02  0.26904400628E+02  0.51100000000E-03 0.  1.
         12    1    3    3    0    0 -0.26437565653E+01 -0.66118337101E+01  0.10018264132E+02  0.12291111016E+02  0.00000000000E+00 0. -1.
</event>
<event>
 7    1  0.2478637E-008  0.4614232E+02  0.7816164E-02  0.1320468E+00
        -11   -1    0    0    0    0  0.00000000000E+00  0.00000000000E+00  0.45593999997E+02  0.45594000000E+02  0.51100000000E-03 0.  1.
         11   -1    0    0    0    0 -0.00000000000E+00 -0.00000000000E+00 -0.45593999997E+02  0.45594000000E+02  0.51100000000E-03 0. -1.
    9900012    2    1    2    0    0  0.41342426907E+00  0.25669373686E+02  0.37013859896E+02  0.46142317748E+02  0.99999998849E+01 0.  0.
         12    1    1    2    0    0 -0.41342426907E+00 -0.25669373686E+02 -0.37013859896E+02  0.45045682252E+02  0.00000000000E+00 0. -1.
         11    1    3    3    0    0  0.14936198124E+01  0.23291063861E+01  0.76944031060E+00  0.28718766259E+01  0.51100000000E-03 0. -1.
        -11    1    3    3    0    0  0.68832677924E+00  0.51841111810E+01  0.60872045010E+01  0.80251393378E+01  0.51100000000E-03 0.  1.
         12    1    3    3    0    0 -0.17685223226E+01  0.18156156119E+02  0.30157215085E+02  0.35245301785E+02  0.00000000000E+00 0. -1.
</event>
<event>
 7    1  0.2478637E-008  0.4614232E+02  0.7816164E-02  0.1320468E+00
        -11   -1    0    0    0    0  0.00000000000E+00  0.00000000000E+00  0.45593999997E+02  0.45594000000E+02  0.51100000000E-03 0.  1.
         11   -1    0    0    0    0 -0.00000000000E+00 -0.00000000000E+00 -0.45593999997E+02  0.45594000000E+02  0.51100000000E-03 0. -1.
    9900012    2    1    2    0    0 -0.57313494569E+01  0.38001318585E+00  0.44677966662E+02  0.46142317835E+02  0.10000000675E+02 0.  0.
         12    1    1    2    0    0  0.57313494569E+01 -0.38001318585E+00 -0.44677966662E+02  0.45045682165E+02  0.00000000000E+00 0. -1.
         11    1    3    3    0    0 -0.25663402375E+01  0.23817845692E+01  0.48784425689E+01  0.60048482169E+01  0.51100000000E-03 0. -1.
        -11    1    3    3    0    0  0.29178285484E-01  0.15108421217E+00  0.19222467949E-02  0.15388881592E+00  0.51100000000E-03 0.  1.
        -12    1    3    3    0    0 -0.31941875048E+01 -0.21528555955E+01  0.39797601847E+02  0.39983580802E+02  0.00000000000E+00 0.  1.
</event>
<event>
 7    1  0.2478637E-008  0.4614232E+02  0.7816164E-02  0.1320468E+00
        -11   -1    0    0    0    0  0.00000000000E+00  0.00000000000E+00  0.45593999997E+02  0.45594000000E+02  0.51100000000E-03 0.  1.
         11   -1    0    0    0    0 -0.00000000000E+00 -0.00000000000E+00 -0.45593999997E+02  0.45594000000E+02  0.51100000000E-03 0. -1.
    9900012    2    1    2    0    0 -0.36773234587E+01 -0.67313606780E+01  0.44387831783E+02  0.46142317246E+02  0.99999953015E+01 0.  0.
         12    1    1    2    0    0  0.36773234587E+01  0.67313606780E+01 -0.44387831783E+02  0.45045682754E+02  0.00000000000E+00 0. -1.
         11    1    3    3    0    0 -0.52359501728E+01 -0.21892533231E+01  0.21373934101E+02  0.22114544163E+02  0.51100000000E-03 0.  1.
        -11    1    3    3    0    0 -0.44780029277E+00 -0.34007634613E+01  0.64644543749E+01  0.73181205134E+01  0.51100000000E-03 0. -1.
        -12    1    3    3    0    0  0.20064270069E+01 -0.11413438935E+01  0.16549443307E+02  0.16709652569E+02  0.00000000000E+00 0.  1.
</event>
<event>
 7    1  0.2478637E-008  0.4614232E+02  0.7816164E-02  0.1320468E+00
        -11   -1    0    0    0    0  0.00000000000E+00  0.00000000000E+00  0.45593999997E+02  0.45594000000E+02  0.51100000000E-03 0.  1.
         11   -1    0    0    0    0 -0.00000000000E+00 -0.00000000000E+00 -0.45593999997E+02  0.45594000000E+02  0.51100000000E-03 0. -1.
    9900012    2    1    2    0    0  0.36760696532E+02 -0.18179706267E+02  0.18634992767E+02  0.46142317799E+02  0.10000000347E+02 0.  0.
         12    1    1    2    0    0 -0.36760696532E+02  0.18179706267E+02 -0.18634992767E+02  0.45045682201E+02  0.00000000000E+00 0. -1.
         11    1    3    3    0    0  0.93320580062E+01 -0.79706671269E+01  0.18737412270E+01  0.12414900222E+02  0.51100000000E-03 0. -1.
        -11    1    3    3    0    0  0.11482869140E+02 -0.41632484628E+01  0.69874846816E+01  0.14071739903E+02  0.51100000000E-03 0.  1.
         12    1    3    3    0    0  0.15945769386E+02 -0.60457906775E+01  0.97737668589E+01  0.19655677674E+02  0.00000000000E+00 0. -1.
</event>
<event>
 7    1  0.2478637E-008  0.4614232E+02  0.7816164E-02  0.1320468E+00
        -11   -1    0    0    0    0  0.00000000000E+00  0.00000000000E+00  0.45593999997E+02  0.45594000000E+02  0.51100000000E-03 0. -1.
         11   -1    0    0    0    0 -0.00000000000E+00 -0.00000000000E+00 -0.45593999997E+02  0.45594000000E+02  0.51100000000E-03 0.  1.
    9900012    2    1    2    0    0 -0.31792300187E+02  0.29621731400E+02 -0.11870813385E+02  0.46142317268E+02  0.99999955056E+01 0.  0.
         12    1    1    2    0    0  0.31792300187E+02 -0.29621731400E+02  0.11870813385E+02  0.45045682732E+02  0.00000000000E+00 0. -1.
         11    1    3    3    0    0 -0.14983544871E+02  0.11461067681E+02 -0.19436980140E+01  0.18964193933E+02  0.51100000000E-03 0. -1.
        -11    1    3    3    0    0 -0.85822338864E+01  0.55943687042E+01 -0.33155723219E+01  0.10767762988E+02  0.51100000000E-03 0.  1.
        -12    1    3    3    0    0 -0.82265214291E+01  0.12566295015E+02 -0.66115430495E+01  0.16410360347E+02  0.00000000000E+00 0.  1.
</event>
<event>
 7    1  0.2478637E-008  0.4614232E+02  0.7816164E-02  0.1320468E+00
        -11   -1    0    0    0    0  0.00000000000E+00  0.00000000000E+00  0.45593999997E+02  0.45594000000E+02  0.51100000000E-03 0.  1.
         11   -1    0    0    0    0 -0.00000000000E+00 -0.00000000000E+00 -0.45593999997E+02  0.45594000000E+02  0.51100000000E-03 0. -1.
    9900012    2    1    2    0    0 -0.42407906937E+02  0.11983667647E+02  0.93313782956E+01  0.46142317832E+02  0.10000000647E+02 0.  0.
         12    1    1    2    0    0  0.42407906937E+02 -0.11983667647E+02 -0.93313782956E+01  0.45045682168E+02  0.00000000000E+00 0. -1.
         11    1    3    3    0    0 -0.17391397033E+02  0.17983023619E+01  0.39058939319E+01  0.17915093911E+02  0.51100000000E-03 0. -1.
        -11    1    3    3    0    0 -0.23537459143E+02  0.10418300544E+02  0.38031458821E+01  0.26019548189E+02  0.51100000000E-03 0.  1.
         12    1    3    3    0    0 -0.14790507614E+01 -0.23293525898E+00  0.16223384816E+01  0.22076757322E+01  0.00000000000E+00 0. -1.
</event>
<event>
 7    1  0.2478637E-008  0.4614232E+02  0.7816164E-02  0.1320468E+00
        -11   -1    0    0    0    0  0.00000000000E+00  0.00000000000E+00  0.45593999997E+02  0.45594000000E+02  0.51100000000E-03 0.  1.
         11   -1    0    0    0    0 -0.00000000000E+00 -0.00000000000E+00 -0.45593999997E+02  0.45594000000E+02  0.51100000000E-03 0. -1.
    9900012    2    1    2    0    0  0.95555307057E+00  0.28359702823E+02  0.34984677410E+02  0.46142317861E+02  0.10000000915E+02 0.  0.
         12    1    1    2    0    0 -0.95555307057E+00 -0.28359702823E+02 -0.34984677410E+02  0.45045682139E+02  0.00000000000E+00 0. -1.
         11    1    3    3    0    0  0.39571555123E+00  0.88873266504E+01  0.68776873192E+01  0.11244720935E+02  0.51100000000E-03 0. -1.
        -11    1    3    3    0    0  0.28719254338E+01  0.68180222909E+01  0.13798713942E+02  0.15656879969E+02  0.51100000000E-03 0.  1.
        -12    1    3    3    0    0 -0.23120879144E+01  0.12654353881E+02  0.14308276149E+02  0.19240716957E+02  0.00000000000E+00 0.  1.
</event>
<event>
 7    1  0.2478637E-008  0.4614231E+02  0.7816164E-02  0.1320468E+00
        -11   -1    0    0    0    0  0.00000000000E+00  0.00000000000E+00  0.45593999997E+02  0.45594000000E+02  0.51100000000E-03 0.  1.
         11   -1    0    0    0    0 -0.00000000000E+00 -0.00000000000E+00 -0.45593999997E+02  0.45594000000E+02  0.51100000000E-03 0. -1.
    9900012    2    1    2    0    0  0.48745621385E+01 -0.73462034305E+01  0.44174493740E+02  0.46142312548E+02  0.99999524609E+01 0.  0.
         12    1    1    2    0    0 -0.48745621385E+01  0.73462034305E+01 -0.44174493740E+02  0.45045687452E+02  0.00000000000E+00 0. -1.
         11    1    3    3    0    0 -0.12462990613E+01  0.44593359542E+00  0.32743187981E+01  0.35317533852E+01  0.51100000000E-03 0. -1.
        -11    1    3    3    0    0  0.52928191922E+01 -0.62213066606E+01  0.39537024308E+02  0.40371956640E+02  0.51100000000E-03 0.  1.
        -12    1    3    3    0    0  0.82804200759E+00 -0.15708303653E+01  0.13631506334E+01  0.22386025222E+01  0.00000000000E+00 0.  1.
</event>
<event>
 7    1  0.2478637E-008  0.4614232E+02  0.7816164E-02  0.1320468E+00
        -11   -1    0    0    0    0  0.00000000000E+00  0.00000000000E+00  0.45593999997E+02  0.45594000000E+02  0.51100000000E-03 0.  1.
         11   -1    0    0    0    0 -0.00000000000E+00 -0.00000000000E+00 -0.45593999997E+02  0.45594000000E+02  0.51100000000E-03 0. -1.
    9900012    2    1    2    0    0  0.14032910445E+02  0.42600337204E+02 -0.41715977753E+01  0.46142317261E+02  0.99999954406E+01 0.  0.
         12    1    1    2    0    0 -0.14032910445E+02 -0.42600337204E+02  0.41715977753E+01  0.45045682739E+02  0.00000000000E+00 0. -1.
         11    1    3    3    0    0  0.12447751014E+01  0.66259398081E+01  0.25697651373E+01  0.72150007980E+01  0.51100000000E-03 0. -1.
        -11    1    3    3    0    0  0.37239430761E+01  0.13388212070E+02 -0.38440324919E+01  0.14418341116E+02  0.51100000000E-03 0.  1.
         12    1    3    3    0    0  0.90641922673E+01  0.22586185326E+02 -0.28973304207E+01  0.24508975348E+02  0.00000000000E+00 0. -1.
</event>
<event>
 7    1  0.2478637E-008  0.4614232E+02  0.7816164E-02  0.1320468E+00
        -11   -1    0    0    0    0  0.00000000000E+00  0.00000000000E+00  0.45593999997E+02  0.45594000000E+02  0.51100000000E-03 0.  1.
         11   -1    0    0    0    0 -0.00000000000E+00 -0.00000000000E+00 -0.45593999997E+02  0.45594000000E+02  0.51100000000E-03 0. -1.
    9900012    2    1    2    0    0  0.20775996508E+02 -0.37594075088E+02  0.13570440157E+02  0.46142319200E+02  0.10000013122E+02 0.  0.
         12    1    1    2    0    0 -0.20775996508E+02  0.37594075088E+02 -0.13570440157E+02  0.45045680800E+02  0.00000000000E+00 0. -1.
         11    1    3    3    0    0  0.36173710447E+01 -0.17661622929E+01 -0.26164334137E+00  0.40340004981E+01  0.51100000000E-03 0. -1.
        -11    1    3    3    0    0  0.53488170890E+01 -0.97874843103E+01  0.32187079594E+01  0.11608823134E+02  0.51100000000E-03 0.  1.
         12    1    3    3    0    0  0.11809808375E+02 -0.26040428485E+02  0.10613375539E+02  0.30499495568E+02  0.00000000000E+00 0. -1.
</event>
<event>
 7    1  0.2478637E-008  0.4614232E+02  0.7816164E-02  0.1320468E+00
        -11   -1    0    0    0    0  0.00000000000E+00  0.00000000000E+00  0.45593999997E+02  0.45594000000E+02  0.51100000000E-03 0. -1.
         11   -1    0    0    0    0 -0.00000000000E+00 -0.00000000000E+00 -0.45593999997E+02  0.45594000000E+02  0.51100000000E-03 0.  1.
    9900012    2    1    2    0    0 -0.23784078163E+02 -0.18379284095E+02 -0.33550455757E+02  0.46142317194E+02  0.99999948326E+01 0.  0.
         12    1    1    2    0    0  0.23784078163E+02  0.18379284095E+02  0.33550455757E+02  0.45045682806E+02  0.00000000000E+00 0. -1.
         11    1    3    3    0    0 -0.82350379404E+01 -0.80289652608E+01 -0.18109557420E+02  0.21453116399E+02  0.51100000000E-03 0. -1.
        -11    1    3    3    0    0 -0.69562768909E+01 -0.72461922606E+01 -0.92322453224E+01  0.13642999832E+02  0.51100000000E-03 0.  1.
        -12    1    3    3    0    0 -0.85927633318E+01 -0.31041265738E+01 -0.62086530148E+01  0.11046200963E+02  0.00000000000E+00 0.  1.
</event>
<event>
 7    1  0.2478637E-008  0.4614232E+02  0.7816164E-02  0.1320468E+00
        -11   -1    0    0    0    0  0.00000000000E+00  0.00000000000E+00  0.45593999997E+02  0.45594000000E+02  0.51100000000E-03 0. -1.
         11   -1    0    0    0    0 -0.00000000000E+00 -0.00000000000E+00 -0.45593999997E+02  0.45594000000E+02  0.51100000000E-03 0.  1.
    9900012    2    1    2    0    0 -0.36001457910E+02 -0.24261324375E+02 -0.12016515995E+02  0.46142317758E+02  0.99999999678E+01 0.  0.
         12    1    1    2    0    0  0.36001457910E+02  0.24261324375E+02  0.12016515995E+02  0.45045682242E+02  0.00000000000E+00 0. -1.
         11    1    3    3    0    0 -0.10252978520E+02 -0.53242909463E+01 -0.51073205276E+01  0.12631562288E+02  0.51100000000E-03 0. -1.
        -11    1    3    3    0    0 -0.97666475242E+01 -0.11311265493E+02 -0.46976274022E+01  0.15665242877E+02  0.51100000000E-03 0.  1.
         12    1    3    3    0    0 -0.15981831865E+02 -0.76257679350E+01 -0.22115680648E+01  0.17845512592E+02  0.00000000000E+00 0. -1.
</event>
<event>
 7    1  0.2478637E-008  0.4614232E+02  0.7816164E-02  0.1320468E+00
        -11   -1    0    0    0    0  0.00000000000E+00  0.00000000000E+00  0.45593999997E+02  0.45594000000E+02  0.51100000000E-03 0.  1.
         11   -1    0    0    0    0 -0.00000000000E+00 -0.00000000000E+00 -0.45593999997E+02  0.45594000000E+02  0.51100000000E-03 0. -1.
    9900012    2    1    2    0    0  0.27039321595E+02  0.25893933371E+02  0.25049807730E+02  0.46142316910E+02  0.99999922399E+01 0.  0.
         12    1    1    2    0    0 -0.27039321595E+02 -0.25893933371E+02 -0.25049807730E+02  0.45045683090E+02  0.00000000000E+00 0. -1.
         11    1    3    3    0    0  0.31428424129E+01  0.32708104060E+00  0.18378235542E+01  0.36554118943E+01  0.51100000000E-03 0. -1.
        -11    1    3    3    0    0  0.20289273995E+02  0.21171868968E+02  0.16345614640E+02  0.33572038858E+02  0.51100000000E-03 0.  1.
         12    1    3    3    0    0  0.36072051869E+01  0.43949833626E+01  0.68663695358E+01  0.89148661583E+01  0.00000000000E+00 0. -1.
</event>
<event>
 7    1  0.2478637E-008  0.4614233E+02  0.7816164E-02  0.1320468E+00
        -11   -1    0    0    0    0  0.00000000000E+00  0.00000000000E+00  0.45593999997E+02  0.45594000000E+02  0.51100000000E-03 0.  1.
         11   -1    0    0    0    0 -0.00000000000E+00 -0.00000000000E+00 -0.45593999997E+02  0.45594000000E+02  0.51100000000E-03 0. -1.
    9900012    2    1    2    0    0 -0.18976215215E+02 -0.82029666290E+00  0.40845353157E+02  0.46142328676E+02  0.10000099530E+02 0.  0.
         12    1    1    2    0    0  0.18976215215E+02  0.82029666290E+00 -0.40845353157E+02  0.45045671324E+02  0.00000000000E+00 0. -1.
         11    1    3    3    0    0 -0.81186755827E+01 -0.40742046585E+01  0.17713445390E+02  0.19906737168E+02  0.51100000000E-03 0. -1.
        -11    1    3    3    0    0 -0.42311486149E+01  0.13608885187E+01  0.14636501790E+02  0.15296464332E+02  0.51100000000E-03 0.  1.
         12    1    3    3    0    0 -0.66263910174E+01  0.18930194768E+01  0.84954059772E+01  0.10939127176E+02  0.00000000000E+00 0. -1.
</event>
<event>
 7    1  0.2478637E-008  0.4614232E+02  0.7816164E-02  0.1320468E+00
        -11   -1    0    0    0    0  0.00000000000E+00  0.00000000000E+00  0.45593999997E+02  0.45594000000E+02  0.51100000000E-03 0.  1.
         11   -1    0    0    0    0 -0.00000000000E+00 -0.00000000000E+00 -0.45593999997E+02  0.45594000000E+02  0.51100000000E-03 0. -1.
    9900012    2    1    2    0    0  0.23964898024E+02 -0.24441514473E+02  0.29281554925E+02  0.46142318455E+02  0.10000006328E+02 0.  0.
         12    1    1    2    0    0 -0.23964898024E+02  0.24441514473E+02 -0.29281554925E+02  0.45045681545E+02  0.00000000000E+00 0. -1.
         11    1    3    3    0    0  0.14357576533E+02 -0.20608092732E+02  0.19581090764E+02  0.31847332788E+02  0.51100000000E-03 0. -1.
        -11    1    3    3    0    0  0.57680806587E+01 -0.27126551271E+01  0.70105521122E+01  0.94750774932E+01  0.51100000000E-03 0.  1.
         12    1    3    3    0    0  0.38392408326E+01 -0.11207666134E+01  0.26899120484E+01  0.48199081735E+01  0.00000000000E+00 0. -1.
</event>
<event>
 7    1  0.2478637E-008  0.4614232E+02  0.7816164E-02  0.1320468E+00
        -11   -1    0    0    0    0  0.00000000000E+00  0.00000000000E+00  0.45593999997E+02  0.45594000000E+02  0.51100000000E-03 0. -1.
         11   -1    0    0    0    0 -0.00000000000E+00 -0.00000000000E+00 -0.45593999997E+02  0.45594000000E+02  0.51100000000E-03 0.  1.
    9900012    2    1    2    0    0 -0.41167518512E+02  0.89714255850E+01 -0.15933054500E+02  0.46142320039E+02  0.10000020772E+02 0.  0.
         12    1    1    2    0    0  0.41167518512E+02 -0.89714255850E+01  0.15933054500E+02  0.45045679961E+02  0.00000000000E+00 0. -1.
         11    1    3    3    0    0 -0.33349420372E+01  0.31667976004E+01 -0.75656319297E+00  0.46607760683E+01  0.51100000000E-03 0. -1.
        -11    1    3    3    0    0 -0.27004546373E+02  0.60838855476E+01 -0.96006376014E+01  0.29299000509E+02  0.51100000000E-03 0.  1.
         12    1    3    3    0    0 -0.10828030101E+02 -0.27925756293E+00 -0.55758537056E+01  0.12182543462E+02  0.00000000000E+00 0. -1.
</event>
<event>
 7    1  0.2478637E-008  0.4614232E+02  0.7816164E-02  0.1320468E+00
        -11   -1    0    0    0    0  0.00000000000E+00  0.00000000000E+00  0.45593999997E+02  0.45594000000E+02  0.51100000000E-03 0.  1.
         11   -1    0    0    0    0 -0.00000000000E+00 -0.00000000000E+00 -0.45593999997E+02  0.45594000000E+02  0.51100000000E-03 0. -1.
    9900012    2    1    2    0    0 -0.20312889619E+02  0.37976059467E+02  0.13202983554E+02  0.46142319274E+02  0.10000013799E+02 0.  0.
         12    1    1    2    0    0  0.20312889619E+02 -0.37976059467E+02 -0.13202983554E+02  0.45045680726E+02  0.00000000000E+00 0. -1.
         11    1    3    3    0    0 -0.16937507708E+01  0.11726757178E+02  0.53749389767E+01  0.13010595484E+02  0.51100000000E-03 0. -1.
        -11    1    3    3    0    0 -0.50826657620E+01  0.75769334436E+01  0.25328482255E+01  0.94688294975E+01  0.51100000000E-03 0.  1.
         12    1    3    3    0    0 -0.13536473087E+02  0.18672368845E+02  0.52951963516E+01  0.23662894293E+02  0.00000000000E+00 0. -1.
</event>
<event>
 7    1  0.2478637E-008  0.4614232E+02  0.7816164E-02  0.1320468E+00
        -11   -1    0    0    0    0  0.00000000000E+00  0.00000000000E+00  0.45593999997E+02  0.45594000000E+02  0.51100000000E-03 0.  1.
         11   -1    0    0    0    0 -0.00000000000E+00 -0.00000000000E+00 -0.45593999997E+02  0.45594000000E+02  0.51100000000E-03 0. -1.
    9900012    2    1    2    0    0  0.19043772184E+02 -0.17445850875E+02  0.36906510645E+02  0.46142317635E+02  0.99999988489E+01 0.  0.
         12    1    1    2    0    0 -0.19043772184E+02  0.17445850875E+02 -0.36906510645E+02  0.45045682365E+02  0.00000000000E+00 0. -1.
         11    1    3    3    0    0  0.14806360822E+01  0.72904110836E+00  0.34608047093E+01  0.38341822652E+01  0.51100000000E-03 0. -1.
        -11    1    3    3    0    0  0.11732398623E+02 -0.97788490600E+01  0.16231059068E+02  0.22287268677E+02  0.51100000000E-03 0.  1.
        -12    1    3    3    0    0  0.58307374795E+01 -0.83960429233E+01  0.17214646868E+02  0.20020866692E+02  0.00000000000E+00 0.  1.
</event>
<event>
 7    1  0.2478637E-008  0.4614232E+02  0.7816164E-02  0.1320468E+00
        -11   -1    0    0    0    0  0.00000000000E+00  0.00000000000E+00  0.45593999997E+02  0.45594000000E+02  0.51100000000E-03 0.  1.
         11   -1    0    0    0    0 -0.00000000000E+00 -0.00000000000E+00 -0.45593999997E+02  0.45594000000E+02  0.51100000000E-03 0. -1.
    9900012    2    1    2    0    0  0.16651418687E+02  0.38692114737E+02  0.15961328694E+02  0.46142317623E+02  0.99999987436E+01 0.  0.
         12    1    1    2    0    0 -0.16651418687E+02 -0.38692114737E+02 -0.15961328694E+02  0.45045682377E+02  0.00000000000E+00 0. -1.
         11    1    3    3    0    0  0.20980039934E+01  0.14196826928E+01  0.35062720970E+00  0.25573539853E+01  0.51100000000E-03 0. -1.
        -11    1    3    3    0    0  0.89636264344E+01  0.19698411673E+02  0.46628103218E+01  0.22138559611E+02  0.51100000000E-03 0.  1.
         12    1    3    3    0    0  0.55897882594E+01  0.17574020371E+02  0.10947891162E+02  0.21446404027E+02  0.00000000000E+00 0. -1.
</event>
<event>
 7    1  0.2478637E-008  0.4614232E+02  0.7816164E-02  0.1320468E+00
        -11   -1    0    0    0    0  0.00000000000E+00  0.00000000000E+00  0.45593999997E+02  0.45594000000E+02  0.51100000000E-03 0.  1.
         11   -1    0    0    0    0 -0.00000000000E+00 -0.00000000000E+00 -0.45593999997E+02  0.45594000000E+02  0.51100000000E-03 0. -1.
    9900012    2    1    2    0    0 -0.15936568645E+02  0.26988537311E+02  0.32353645079E+02  0.46142315231E+02  0.99999769303E+01 0.  0.
         12    1    1    2    0    0  0.15936568645E+02 -0.26988537311E+02 -0.32353645079E+02  0.45045684769E+02  0.00000000000E+00 0. -1.
         11    1    3    3    0    0 -0.24568429623E+01  0.18773915499E+01  0.14191776364E+01  0.34021672208E+01  0.51100000000E-03 0. -1.
        -11    1    3    3    0    0 -0.86697385880E+01  0.21891063343E+02  0.22964329216E+02  0.32889868320E+02  0.51100000000E-03 0.  1.
        -12    1    3    3    0    0 -0.48099870949E+01  0.32200824179E+01  0.79701382269E+01  0.98502796908E+01  0.00000000000E+00 0.  1.
</event>
<event>
 7    1  0.2478637E-008  0.4614232E+02  0.7816164E-02  0.1320468E+00
        -11   -1    0    0    0    0  0.00000000000E+00  0.00000000000E+00  0.45593999997E+02  0.45594000000E+02  0.51100000000E-03 0.  1.
         11   -1    0    0    0    0 -0.00000000000E+00 -0.00000000000E+00 -0.45593999997E+02  0.45594000000E+02  0.51100000000E-03 0. -1.
    9900012    2    1    2    0    0 -0.35914491470E+02  0.23300740941E+02  0.14012074920E+02  0.46142317970E+02  0.10000001908E+02 0.  0.
         12    1    1    2    0    0  0.35914491470E+02 -0.23300740941E+02 -0.14012074920E+02  0.45045682030E+02  0.00000000000E+00 0. -1.
         11    1    3    3    0    0 -0.19318094187E+02  0.11270596957E+02  0.47013480972E+01  0.22854272970E+02  0.51100000000E-03 0. -1.
        -11    1    3    3    0    0 -0.52206850561E-01  0.14335655864E+01  0.16856549670E+01  0.22134291890E+01  0.51100000000E-03 0.  1.
        -12    1    3    3    0    0 -0.16544190432E+02  0.10596578398E+02  0.76250718559E+01  0.21074615812E+02  0.00000000000E+00 0.  1.
</event>
<event>
 7    1  0.2478637E-008  0.4614232E+02  0.7816164E-02  0.1320468E+00
        -11   -1    0    0    0    0  0.00000000000E+00  0.00000000000E+00  0.45593999997E+02  0.45594000000E+02  0.51100000000E-03 0.  1.
         11   -1    0    0    0    0 -0.00000000000E+00 -0.00000000000E+00 -0.45593999997E+02  0.45594000000E+02  0.51100000000E-03 0. -1.
    9900012    2    1    2    0    0  0.83761009002E+01  0.35643411556E+01  0.44116321730E+02  0.46142318329E+02  0.10000005181E+02 0.  0.
         12    1    1    2    0    0 -0.83761009002E+01 -0.35643411556E+01 -0.44116321730E+02  0.45045681671E+02  0.00000000000E+00 0. -1.
         11    1    3    3    0    0  0.48606355397E+01  0.21191790866E+01  0.16444265182E+02  0.17278036795E+02  0.51100000000E-03 0. -1.
        -11    1    3    3    0    0  0.31523466564E+01  0.16460654387E+01  0.28066997738E+02  0.28291397688E+02  0.51100000000E-03 0.  1.
         12    1    3    3    0    0  0.36311870415E+00 -0.20090336972E+00 -0.39494118987E+00  0.57288384575E+00  0.00000000000E+00 0. -1.
</event>
<event>
 7    1  0.2478637E-008  0.4614231E+02  0.7816164E-02  0.1320468E+00
        -11   -1    0    0    0    0  0.00000000000E+00  0.00000000000E+00  0.45593999997E+02  0.45594000000E+02  0.51100000000E-03 0.  1.
         11   -1    0    0    0    0 -0.00000000000E+00 -0.00000000000E+00 -0.45593999997E+02  0.45594000000E+02  0.51100000000E-03 0. -1.
    9900012    2    1    2    0    0  0.52611058148E+01 -0.13057939791E+02  0.42789309724E+02  0.46142311498E+02  0.99999428873E+01 0.  0.
         12    1    1    2    0    0 -0.52611058148E+01  0.13057939791E+02 -0.42789309724E+02  0.45045688502E+02  0.00000000000E+00 0. -1.
         11    1    3    3    0    0 -0.20398061496E+01 -0.24893863880E+01  0.84541678462E+01  0.90460382461E+01  0.51100000000E-03 0. -1.
        -11    1    3    3    0    0  0.51668608525E+01 -0.10522025831E+02  0.30936885077E+02  0.33083233476E+02  0.51100000000E-03 0.  1.
        -12    1    3    3    0    0  0.21340511119E+01 -0.46527571657E-01  0.33982568002E+01  0.40130397759E+01  0.00000000000E+00 0.  1.
</event>
<event>
 7    1  0.2478637E-008  0.4614232E+02  0.7816164E-02  0.1320468E+00
        -11   -1    0    0    0    0  0.00000000000E+00  0.00000000000E+00  0.45593999997E+02  0.45594000000E+02  0.51100000000E-03 0. -1.
         11   -1    0    0    0    0 -0.00000000000E+00 -0.00000000000E+00 -0.45593999997E+02  0.45594000000E+02  0.51100000000E-03 0.  1.
    9900012    2    1    2    0    0  0.10913118058E+02  0.34117061921E+02 -0.27313796310E+02  0.46142317313E+02  0.99999959122E+01 0.  0.
         12    1    1    2    0    0 -0.10913118058E+02 -0.34117061921E+02  0.27313796310E+02  0.45045682687E+02  0.00000000000E+00 0. -1.
         11    1    3    3    0    0  0.10030227060E+02  0.23393004680E+02 -0.15313177035E+02  0.29704065614E+02  0.51100000000E-03 0. -1.
        -11    1    3    3    0    0  0.13693613341E+01  0.69689616965E+01 -0.57850374920E+01  0.91601439200E+01  0.51100000000E-03 0.  1.
         12    1    3    3    0    0 -0.48647033594E+00  0.37550955448E+01 -0.62155817833E+01  0.72781077790E+01  0.00000000000E+00 0. -1.
</event>
<event>
 7    1  0.2478637E-008  0.4614232E+02  0.7816164E-02  0.1320468E+00
        -11   -1    0    0    0    0  0.00000000000E+00  0.00000000000E+00  0.45593999997E+02  0.45594000000E+02  0.51100000000E-03 0. -1.
         11   -1    0    0    0    0 -0.00000000000E+00 -0.00000000000E+00 -0.45593999997E+02  0.45594000000E+02  0.51100000000E-03 0.  1.
    9900012    2    1    2    0    0 -0.39810935726E+02  0.25125101122E+01  0.20925827980E+02  0.46142316665E+02  0.99999900022E+01 0.  0.
         12    1    1    2    0    0  0.39810935726E+02 -0.25125101122E+01 -0.20925827980E+02  0.45045683335E+02  0.00000000000E+00 0. -1.
         11    1    3    3    0    0 -0.20727298635E+01  0.84476266557E-01 -0.10644725810E+00  0.20771799649E+01  0.51100000000E-03 0. -1.
        -11    1    3    3    0    0 -0.29704901157E+02  0.65432608855E+00  0.12565845158E+02  0.32260033480E+02  0.51100000000E-03 0.  1.
         12    1    3    3    0    0 -0.80333047061E+01  0.17737077571E+01  0.84664300808E+01  0.11805103219E+02  0.00000000000E+00 0. -1.
</event>
<event>
 7    1  0.2478637E-008  0.4614232E+02  0.7816164E-02  0.1320468E+00
        -11   -1    0    0    0    0  0.00000000000E+00  0.00000000000E+00  0.45593999997E+02  0.45594000000E+02  0.51100000000E-03 0. -1.
         11   -1    0    0    0    0 -0.00000000000E+00 -0.00000000000E+00 -0.45593999997E+02  0.45594000000E+02  0.51100000000E-03 0.  1.
    9900012    2    1    2    0    0  0.26473438596E+02 -0.18542790070E+02 -0.31375714216E+02  0.46142318107E+02  0.10000003150E+02 0.  0.
         12    1    1    2    0    0 -0.26473438596E+02  0.18542790070E+02  0.31375714216E+02  0.45045681893E+02  0.00000000000E+00 0. -1.
         11    1    3    3    0    0  0.10052278179E+02 -0.25746258720E+01 -0.69134221277E+01  0.12468857235E+02  0.51100000000E-03 0. -1.
        -11    1    3    3    0    0  0.26246678770E+01 -0.11370253209E+01 -0.25360011704E+01  0.38226967238E+01  0.51100000000E-03 0.  1.
        -12    1    3    3    0    0  0.13796492541E+02 -0.14831138877E+02 -0.21926290918E+02  0.29850764148E+02  0.00000000000E+00 0.  1.
</event>
<event>
 7    1  0.2478637E-008  0.4614232E+02  0.7816164E-02  0.1320468E+00
        -11   -1    0    0    0    0  0.00000000000E+00  0.00000000000E+00  0.45593999997E+02  0.45594000000E+02  0.51100000000E-03 0.  1.
         11   -1    0    0    0    0 -0.00000000000E+00 -0.00000000000E+00 -0.45593999997E+02  0.45594000000E+02  0.51100000000E-03 0. -1.
    9900012    2    1    2    0    0 -0.23835671139E+02 -0.36926629814E+02  0.98690583109E+01  0.46142317409E+02  0.99999967931E+01 0.  0.
         12    1    1    2    0    0  0.23835671139E+02  0.36926629814E+02 -0.98690583109E+01  0.45045682591E+02  0.00000000000E+00 0. -1.
         11    1    3    3    0    0 -0.25659914150E+01 -0.36603238488E+01 -0.52688898935E+00  0.45010992977E+01  0.51100000000E-03 0. -1.
        -11    1    3    3    0    0 -0.59292662770E+01 -0.13932521262E+02  0.80613928632E+00  0.15163152974E+02  0.51100000000E-03 0.  1.
        -12    1    3    3    0    0 -0.15340413447E+02 -0.19333784704E+02  0.95898080140E+01  0.26478065138E+02  0.00000000000E+00 0.  1.
</event>
<event>
 7    1  0.2478637E-008  0.4614232E+02  0.7816164E-02  0.1320468E+00
        -11   -1    0    0    0    0  0.00000000000E+00  0.00000000000E+00  0.45593999997E+02  0.45594000000E+02  0.51100000000E-03 0.  1.
         11   -1    0    0    0    0 -0.00000000000E+00 -0.00000000000E+00 -0.45593999997E+02  0.45594000000E+02  0.51100000000E-03 0. -1.
    9900012    2    1    2    0    0 -0.77111523039E-01  0.34501960656E+02  0.28960696357E+02  0.46142321309E+02  0.10000032351E+02 0.  0.
         12    1    1    2    0    0  0.77111523039E-01 -0.34501960656E+02 -0.28960696357E+02  0.45045678691E+02  0.00000000000E+00 0. -1.
         11    1    3    3    0    0  0.12319607643E+01  0.20281312341E+02  0.18278995464E+02  0.27330770809E+02  0.51100000000E-03 0. -1.
        -11    1    3    3    0    0 -0.85240793602E+00  0.14477747373E+02  0.90431551775E+01  0.17091238227E+02  0.51100000000E-03 0.  1.
         12    1    3    3    0    0 -0.45666435133E+00 -0.25709905845E+00  0.16385457149E+01  0.17203122726E+01  0.00000000000E+00 0. -1.
</event>
<event>
 7    1  0.2562566E-008  0.4614232E+02  0.7816164E-02  0.1320468E+00
        -11   -1    0    0    0    0  0.00000000000E+00  0.00000000000E+00  0.45593999997E+02  0.45594000000E+02  0.51100000000E-03 0. -1.
         11   -1    0    0    0    0 -0.00000000000E+00 -0.00000000000E+00 -0.45593999997E+02  0.45594000000E+02  0.51100000000E-03 0.  1.
    9900012    2    1    2    0    0 -0.17920150432E+02  0.28882230366E+02 -0.29560083188E+02  0.46142317183E+02  0.99999947251E+01 0.  0.
         12    1    1    2    0    0  0.17920150432E+02 -0.28882230366E+02  0.29560083188E+02  0.45045682817E+02  0.00000000000E+00 0. -1.
         11    1    3    3    0    0 -0.17357574283E+01  0.10348886533E+01 -0.41456435015E+00  0.20629377684E+01  0.51100000000E-03 0. -1.
        -11    1    3    3    0    0 -0.55942608976E+01  0.13144136367E+02 -0.85536552270E+01  0.16650198011E+02  0.51100000000E-03 0.  1.
        -12    1    3    3    0    0 -0.10590132106E+02  0.14703205346E+02 -0.20591863611E+02  0.27429181403E+02  0.00000000000E+00 0.  1.
</event>
<event>
 7    1  0.2478637E-008  0.4614232E+02  0.7816164E-02  0.1320468E+00
        -11   -1    0    0    0    0  0.00000000000E+00  0.00000000000E+00  0.45593999997E+02  0.45594000000E+02  0.51100000000E-03 0.  1.
         11   -1    0    0    0    0 -0.00000000000E+00 -0.00000000000E+00 -0.45593999997E+02  0.45594000000E+02  0.51100000000E-03 0. -1.
    9900012    2    1    2    0    0 -0.96749003841E+01 -0.12230012935E+02  0.42260342879E+02  0.46142317698E+02  0.99999994240E+01 0.  0.
         12    1    1    2    0    0  0.96749003841E+01  0.12230012935E+02 -0.42260342879E+02  0.45045682302E+02  0.00000000000E+00 0. -1.
         11    1    3    3    0    0  0.52554287492E+00 -0.15156622490E+01  0.53722858931E+01  0.56066820263E+01  0.51100000000E-03 0. -1.
        -11    1    3    3    0    0 -0.15269868805E+00 -0.92526687585E+00 -0.13188236618E+00  0.94701050707E+00  0.51100000000E-03 0.  1.
        -12    1    3    3    0    0 -0.10047744571E+02 -0.97890838101E+01  0.37019939352E+02  0.39588625165E+02  0.00000000000E+00 0.  1.
</event>
<event>
 7    1  0.2478637E-008  0.4614232E+02  0.7816164E-02  0.1320468E+00
        -11   -1    0    0    0    0  0.00000000000E+00  0.00000000000E+00  0.45593999997E+02  0.45594000000E+02  0.51100000000E-03 0.  1.
         11   -1    0    0    0    0 -0.00000000000E+00 -0.00000000000E+00 -0.45593999997E+02  0.45594000000E+02  0.51100000000E-03 0. -1.
    9900012    2    1    2    0    0 -0.14038762876E+01 -0.35049185659E+02  0.28261231601E+02  0.46142317681E+02  0.99999992683E+01 0.  0.
         12    1    1    2    0    0  0.14038762876E+01  0.35049185659E+02 -0.28261231601E+02  0.45045682319E+02  0.00000000000E+00 0. -1.
         11    1    3    3    0    0 -0.64591267868E+00 -0.32540419411E+00 -0.42322598606E+00  0.83798065278E+00  0.51100000000E-03 0. -1.
        -11    1    3    3    0    0 -0.20592544344E+01 -0.14646123516E+02  0.10056644018E+02  0.17885344616E+02  0.51100000000E-03 0.  1.
        -12    1    3    3    0    0  0.13012908255E+01 -0.20077657949E+02  0.18627813569E+02  0.27418992412E+02  0.00000000000E+00 0.  1.
</event>
<event>
 7    1  0.2478637E-008  0.4614232E+02  0.7816164E-02  0.1320468E+00
        -11   -1    0    0    0    0  0.00000000000E+00  0.00000000000E+00  0.45593999997E+02  0.45594000000E+02  0.51100000000E-03 0. -1.
         11   -1    0    0    0    0 -0.00000000000E+00 -0.00000000000E+00 -0.45593999997E+02  0.45594000000E+02  0.51100000000E-03 0.  1.
    9900012    2    1    2    0    0 -0.31038055132E+02  0.31219247261E+02 -0.95452163355E+01  0.46142318511E+02  0.10000006834E+02 0.  0.
         12    1    1    2    0    0  0.31038055132E+02 -0.31219247261E+02  0.95452163355E+01  0.45045681489E+02  0.00000000000E+00 0. -1.
         11    1    3    3    0    0 -0.70524232919E+01  0.87584267826E+01  0.42563078159E+00  0.11252905217E+02  0.51100000000E-03 0. -1.
        -11    1    3    3    0    0 -0.57440557095E+01  0.36984710838E+01  0.14661839891E+00  0.68333272692E+01  0.51100000000E-03 0.  1.
        -12    1    3    3    0    0 -0.18241576131E+02  0.18762349395E+02 -0.10117465516E+02  0.28056086025E+02  0.00000000000E+00 0.  1.
</event>
<event>
 7    1  0.2478637E-008  0.4614232E+02  0.7816164E-02  0.1320468E+00
        -11   -1    0    0    0    0  0.00000000000E+00  0.00000000000E+00  0.45593999997E+02  0.45594000000E+02  0.51100000000E-03 0. -1.
         11   -1    0    0    0    0 -0.00000000000E+00 -0.00000000000E+00 -0.45593999997E+02  0.45594000000E+02  0.51100000000E-03 0.  1.
    9900012    2    1    2    0    0 -0.43440668678E+02 -0.10676255291E+02 -0.52952221231E+01  0.46142317637E+02  0.99999988639E+01 0.  0.
         12    1    1    2    0    0  0.43440668678E+02  0.10676255291E+02  0.52952221231E+01  0.45045682363E+02  0.00000000000E+00 0. -1.
         11    1    3    3    0    0 -0.13826645035E+01 -0.43738512582E+00  0.14974226771E+01  0.20845483474E+01  0.51100000000E-03 0. -1.
        -11    1    3    3    0    0 -0.20650198927E+02 -0.65109123632E+01 -0.15710322671E+01  0.21709233938E+02  0.51100000000E-03 0.  1.
        -12    1    3    3    0    0 -0.21407805247E+02 -0.37279578020E+01 -0.52216125331E+01  0.22348535351E+02  0.00000000000E+00 0.  1.
</event>
<event>
 7    1  0.2478637E-008  0.4614232E+02  0.7816164E-02  0.1320468E+00
        -11   -1    0    0    0    0  0.00000000000E+00  0.00000000000E+00  0.45593999997E+02  0.45594000000E+02  0.51100000000E-03 0.  1.
         11   -1    0    0    0    0 -0.00000000000E+00 -0.00000000000E+00 -0.45593999997E+02  0.45594000000E+02  0.51100000000E-03 0. -1.
    9900012    2    1    2    0    0  0.39865258450E+02 -0.91893245083E+01  0.18852879729E+02  0.46142316630E+02  0.99999896824E+01 0.  0.
         12    1    1    2    0    0 -0.39865258450E+02  0.91893245083E+01 -0.18852879729E+02  0.45045683370E+02  0.00000000000E+00 0. -1.
         11    1    3    3    0    0  0.15873123873E+02 -0.40436515740E+01  0.11802264188E+02  0.20189121323E+02  0.51100000000E-03 0. -1.
        -11    1    3    3    0    0  0.10525046220E+02 -0.76416485753E-02  0.36853523937E+01  0.11151613285E+02  0.51100000000E-03 0.  1.
        -12    1    3    3    0    0  0.13467088357E+02 -0.51380312857E+01  0.33652631467E+01  0.14801582022E+02  0.00000000000E+00 0.  1.
</event>
<event>
 7    1  0.2478637E-008  0.4614232E+02  0.7816164E-02  0.1320468E+00
        -11   -1    0    0    0    0  0.00000000000E+00  0.00000000000E+00  0.45593999997E+02  0.45594000000E+02  0.51100000000E-03 0. -1.
         11   -1    0    0    0    0 -0.00000000000E+00 -0.00000000000E+00 -0.45593999997E+02  0.45594000000E+02  0.51100000000E-03 0.  1.
    9900012    2    1    2    0    0  0.30662143060E+02 -0.99955880727E+01 -0.31448922750E+02  0.46142317187E+02  0.99999947651E+01 0.  0.
         12    1    1    2    0    0 -0.30662143060E+02  0.99955880727E+01  0.31448922750E+02  0.45045682813E+02  0.00000000000E+00 0. -1.
         11    1    3    3    0    0  0.73655831126E+01  0.94353120434E+00 -0.53045468265E+01  0.91258031437E+01  0.51100000000E-03 0. -1.
        -11    1    3    3    0    0  0.87778071184E+01 -0.67031816867E+01 -0.12000735901E+02  0.16309512713E+02  0.51100000000E-03 0.  1.
        -12    1    3    3    0    0  0.14518752829E+02 -0.42359375903E+01 -0.14143640023E+02  0.20707001330E+02  0.00000000000E+00 0.  1.
</event>
<event>
 7    1  0.2478637E-008  0.4614232E+02  0.7816164E-02  0.1320468E+00
        -11   -1    0    0    0    0  0.00000000000E+00  0.00000000000E+00  0.45593999997E+02  0.45594000000E+02  0.51100000000E-03 0.  1.
         11   -1    0    0    0    0 -0.00000000000E+00 -0.00000000000E+00 -0.45593999997E+02  0.45594000000E+02  0.51100000000E-03 0. -1.
    9900012    2    1    2    0    0 -0.47392609307E+01 -0.42156501588E+02  0.15148672805E+02  0.46142317543E+02  0.99999980083E+01 0.  0.
         12    1    1    2    0    0  0.47392609307E+01  0.42156501588E+02 -0.15148672805E+02  0.45045682457E+02  0.00000000000E+00 0. -1.
         11    1    3    3    0    0 -0.94699361652E+00 -0.18338320955E+01  0.33228395826E+01  0.39116492963E+01  0.51100000000E-03 0. -1.
        -11    1    3    3    0    0 -0.27525199961E+01 -0.21461304409E+02  0.68666336342E+01  0.22700542086E+02  0.51100000000E-03 0.  1.
         12    1    3    3    0    0 -0.10397473180E+01 -0.18861365083E+02  0.49591995884E+01  0.19530126161E+02  0.00000000000E+00 0. -1.
</event>
<event>
 7    1  0.2478637E-008  0.4614232E+02  0.7816164E-02  0.1320468E+00
        -11   -1    0    0    0    0  0.00000000000E+00  0.00000000000E+00  0.45593999997E+02  0.45594000000E+02  0.51100000000E-03 0.  1.
         11   -1    0    0    0    0 -0.00000000000E+00 -0.00000000000E+00 -0.45593999997E+02  0.45594000000E+02  0.51100000000E-03 0. -1.
    9900012    2    1    2    0    0  0.23758537526E+02 -0.20825696542E+02  0.32108190074E+02  0.46142316393E+02  0.99999875209E+01 0.  0.
         12    1    1    2    0    0 -0.23758537526E+02  0.20825696542E+02 -0.32108190074E+02  0.45045683607E+02  0.00000000000E+00 0. -1.
         11    1    3    3    0    0  0.25634664688E+01 -0.68348212874E+00  0.29712604750E+01  0.39833274066E+01  0.51100000000E-03 0. -1.
        -11    1    3    3    0    0  0.99867509490E+01 -0.13230916157E+02  0.11616511602E+02  0.20241928736E+02  0.51100000000E-03 0.  1.
         12    1    3    3    0    0  0.11208320108E+02 -0.69112982559E+01  0.17520417997E+02  0.21917060250E+02  0.00000000000E+00 0. -1.
</event>
<event>
 7    1  0.2478637E-008  0.4614232E+02  0.7816164E-02  0.1320468E+00
        -11   -1    0    0    0    0  0.00000000000E+00  0.00000000000E+00  0.45593999997E+02  0.45594000000E+02  0.51100000000E-03 0. -1.
         11   -1    0    0    0    0 -0.00000000000E+00 -0.00000000000E+00 -0.45593999997E+02  0.45594000000E+02  0.51100000000E-03 0.  1.
    9900012    2    1    2    0    0 -0.55300114773E+00 -0.30967484634E+02 -0.32708144282E+02  0.46142316331E+02  0.99999869603E+01 0.  0.
         12    1    1    2    0    0  0.55300114773E+00  0.30967484634E+02  0.32708144282E+02  0.45045683669E+02  0.00000000000E+00 0. -1.
         11    1    3    3    0    0  0.34995841468E+01 -0.75300798979E+01 -0.65396432615E+01  0.10569584983E+02  0.51100000000E-03 0. -1.
        -11    1    3    3    0    0  0.43201237962E+00 -0.25407967755E+01 -0.17148110793E+01  0.30956195259E+01  0.51100000000E-03 0.  1.
        -12    1    3    3    0    0 -0.44845976742E+01 -0.20896607961E+02 -0.24453689941E+02  0.32477111822E+02  0.00000000000E+00 0.  1.
</event>
<event>
 7    1  0.2478637E-008  0.4614232E+02  0.7816164E-02  0.1320468E+00
        -11   -1    0    0    0    0  0.00000000000E+00  0.00000000000E+00  0.45593999997E+02  0.45594000000E+02  0.51100000000E-03 0.  1.
         11   -1    0    0    0    0 -0.00000000000E+00 -0.00000000000E+00 -0.45593999997E+02  0.45594000000E+02  0.51100000000E-03 0. -1.
    9900012    2    1    2    0    0  0.92849878406E+01  0.15417612367E+02  0.41294064010E+02  0.46142317712E+02  0.99999995547E+01 0.  0.
         12    1    1    2    0    0 -0.92849878406E+01 -0.15417612367E+02 -0.41294064010E+02  0.45045682288E+02  0.00000000000E+00 0. -1.
         11    1    3    3    0    0  0.68549107668E-01  0.49243955355E+00  0.58487300023E+00  0.76764078942E+00  0.51100000000E-03 0. -1.
        -11    1    3    3    0    0 -0.19318035135E+01  0.18222588975E+01  0.36189981052E+01  0.44888350216E+01  0.51100000000E-03 0.  1.
        -12    1    3    3    0    0  0.11148242246E+02  0.13102913916E+02  0.37090192905E+02  0.40885841901E+02  0.00000000000E+00 0.  1.
</event>
<event>
 7    1  0.2478637E-008  0.4614232E+02  0.7816164E-02  0.1320468E+00
        -11   -1    0    0    0    0  0.00000000000E+00  0.00000000000E+00  0.45593999997E+02  0.45594000000E+02  0.51100000000E-03 0.  1.
         11   -1    0    0    0    0 -0.00000000000E+00 -0.00000000000E+00 -0.45593999997E+02  0.45594000000E+02  0.51100000000E-03 0. -1.
    9900012    2    1    2    0    0  0.80087404717E+01  0.38667704805E+02  0.21674455844E+02  0.46142319242E+02  0.10000013502E+02 0.  0.
         12    1    1    2    0    0 -0.80087404717E+01 -0.38667704805E+02 -0.21674455844E+02  0.45045680758E+02  0.00000000000E+00 0. -1.
         11    1    3    3    0    0  0.22838553432E+01  0.19139003313E+02  0.11906334036E+02  0.22655644627E+02  0.51100000000E-03 0.  1.
        -11    1    3    3    0    0  0.19310846909E+01  0.14280844861E+02  0.43774927769E+01  0.15061011298E+02  0.51100000000E-03 0. -1.
        -12    1    3    3    0    0  0.37938004375E+01  0.52478566307E+01  0.53906290311E+01  0.84256633167E+01  0.00000000000E+00 0.  1.
</event>
<event>
 7    1  0.2478637E-008  0.4614232E+02  0.7816164E-02  0.1320468E+00
        -11   -1    0    0    0    0  0.00000000000E+00  0.00000000000E+00  0.45593999997E+02  0.45594000000E+02  0.51100000000E-03 0.  1.
         11   -1    0    0    0    0 -0.00000000000E+00 -0.00000000000E+00 -0.45593999997E+02  0.45594000000E+02  0.51100000000E-03 0. -1.
    9900012    2    1    2    0    0  0.93060661146E+01 -0.23682474113E+02  0.37170567097E+02  0.46142317578E+02  0.99999983263E+01 0.  0.
         12    1    1    2    0    0 -0.93060661146E+01  0.23682474113E+02 -0.37170567097E+02  0.45045682422E+02  0.00000000000E+00 0. -1.
         11    1    3    3    0    0 -0.15288147555E+01 -0.14398517324E+01  0.35954911724E+01  0.41638929621E+01  0.51100000000E-03 0. -1.
        -11    1    3    3    0    0  0.21683380365E+01 -0.17491599287E+01  0.23989319038E+01  0.36764282717E+01  0.51100000000E-03 0.  1.
        -12    1    3    3    0    0  0.86665428337E+01 -0.20493462451E+02  0.31176144020E+02  0.38301996344E+02  0.00000000000E+00 0.  1.
</event>
<event>
 7    1  0.2478637E-008  0.4614232E+02  0.7816164E-02  0.1320468E+00
        -11   -1    0    0    0    0  0.00000000000E+00  0.00000000000E+00  0.45593999997E+02  0.45594000000E+02  0.51100000000E-03 0.  1.
         11   -1    0    0    0    0 -0.00000000000E+00 -0.00000000000E+00 -0.45593999997E+02  0.45594000000E+02  0.51100000000E-03 0. -1.
    9900012    2    1    2    0    0  0.31602789721E+02  0.31925256283E+02  0.33399359781E+01  0.46142317862E+02  0.10000000922E+02 0.  0.
         12    1    1    2    0    0 -0.31602789721E+02 -0.31925256283E+02 -0.33399359781E+01  0.45045682138E+02  0.00000000000E+00 0. -1.
         11    1    3    3    0    0  0.41624604447E+01  0.37449199870E+01  0.37352937206E+01  0.67307445430E+01  0.51100000000E-03 0. -1.
        -11    1    3    3    0    0  0.10184583498E+02  0.11631310107E+02 -0.10302487383E+01  0.15494338597E+02  0.51100000000E-03 0.  1.
        -12    1    3    3    0    0  0.17255745778E+02  0.16549026189E+02  0.63489099589E+00  0.23917234722E+02  0.00000000000E+00 0.  1.
</event>
<event>
 7    1  0.2478637E-008  0.4614232E+02  0.7816164E-02  0.1320468E+00
        -11   -1    0    0    0    0  0.00000000000E+00  0.00000000000E+00  0.45593999997E+02  0.45594000000E+02  0.51100000000E-03 0.  1.
         11   -1    0    0    0    0 -0.00000000000E+00 -0.00000000000E+00 -0.45593999997E+02  0.45594000000E+02  0.51100000000E-03 0. -1.
    9900012    2    1    2    0    0  0.42514541113E+01  0.19350654879E+01  0.44802836314E+02  0.46142317829E+02  0.10000000615E+02 0.  0.
         12    1    1    2    0    0 -0.42514541113E+01 -0.19350654879E+01 -0.44802836314E+02  0.45045682171E+02  0.00000000000E+00 0. -1.
         11    1    3    3    0    0  0.20929763246E+00  0.16831600255E+01  0.14466845728E+02  0.14565934874E+02  0.51100000000E-03 0. -1.
        -11    1    3    3    0    0  0.68367233896E+00 -0.62316921866E+00  0.26027388404E+02  0.26043822591E+02  0.51100000000E-03 0.  1.
         12    1    3    3    0    0  0.33584841399E+01  0.87507468111E+00  0.43086021817E+01  0.55325603635E+01  0.00000000000E+00 0. -1.
</event>
<event>
 7    1  0.2478637E-008  0.4614231E+02  0.7816164E-02  0.1320468E+00
        -11   -1    0    0    0    0  0.00000000000E+00  0.00000000000E+00  0.45593999997E+02  0.45594000000E+02  0.51100000000E-03 0.  1.
         11   -1    0    0    0    0 -0.00000000000E+00 -0.00000000000E+00 -0.45593999997E+02  0.45594000000E+02  0.51100000000E-03 0. -1.
    9900012    2    1    2    0    0  0.31696572418E+02  0.31504997756E+02  0.56459127496E+01  0.46142312998E+02  0.99999565675E+01 0.  0.
         12    1    1    2    0    0 -0.31696572418E+02 -0.31504997756E+02 -0.56459127496E+01  0.45045687002E+02  0.00000000000E+00 0. -1.
         11    1    3    3    0    0  0.99033539702E+01  0.10216067171E+02  0.18802665301E+01  0.14351998146E+02  0.51100000000E-03 0. -1.
        -11    1    3    3    0    0  0.21822500872E+02  0.21577550499E+02  0.28397847053E+01  0.30820068256E+02  0.51100000000E-03 0.  1.
         12    1    3    3    0    0 -0.29282423481E-01 -0.28861991376E+00  0.92586151419E+00  0.97024659669E+00  0.00000000000E+00 0. -1.
</event>
<event>
 7    1  0.2478637E-008  0.4614232E+02  0.7816164E-02  0.1320468E+00
        -11   -1    0    0    0    0  0.00000000000E+00  0.00000000000E+00  0.45593999997E+02  0.45594000000E+02  0.51100000000E-03 0.  1.
         11   -1    0    0    0    0 -0.00000000000E+00 -0.00000000000E+00 -0.45593999997E+02  0.45594000000E+02  0.51100000000E-03 0. -1.
    9900012    2    1    2    0    0  0.19915176702E+02 -0.40053741635E+02  0.53100501758E+01  0.46142321906E+02  0.10000037797E+02 0.  0.
         12    1    1    2    0    0 -0.19915176702E+02  0.40053741635E+02 -0.53100501758E+01  0.45045678094E+02  0.00000000000E+00 0. -1.
         11    1    3    3    0    0  0.11342177686E+02 -0.16793600230E+02  0.20460229225E+01  0.20368019379E+02  0.51100000000E-03 0. -1.
        -11    1    3    3    0    0  0.14171142202E+01 -0.12750022426E+02  0.10888112558E+01  0.12874657075E+02  0.51100000000E-03 0.  1.
        -12    1    3    3    0    0  0.71558847961E+01 -0.10510118979E+02  0.21752159975E+01  0.12899645452E+02  0.00000000000E+00 0.  1.
</event>
<event>
 7    1  0.2478637E-008  0.4614232E+02  0.7816164E-02  0.1320468E+00
        -11   -1    0    0    0    0  0.00000000000E+00  0.00000000000E+00  0.45593999997E+02  0.45594000000E+02  0.51100000000E-03 0.  1.
         11   -1    0    0    0    0 -0.00000000000E+00 -0.00000000000E+00 -0.45593999997E+02  0.45594000000E+02  0.51100000000E-03 0. -1.
    9900012    2    1    2    0    0 -0.21223685126E+02  0.16005529252E+02  0.36366079268E+02  0.46142317652E+02  0.99999990018E+01 0.  0.
         12    1    1    2    0    0  0.21223685126E+02 -0.16005529252E+02 -0.36366079268E+02  0.45045682348E+02  0.00000000000E+00 0. -1.
         11    1    3    3    0    0 -0.14748744979E+02  0.62683094844E+01  0.17350423349E+02  0.23618940977E+02  0.51100000000E-03 0. -1.
        -11    1    3    3    0    0 -0.27699261003E+01  0.28212931687E+01  0.87586405684E+01  0.96096810880E+01  0.51100000000E-03 0.  1.
         12    1    3    3    0    0 -0.37050140464E+01  0.69159265984E+01  0.10257015350E+02  0.12913695586E+02  0.00000000000E+00 0. -1.
</event>
<event>
 7    1  0.2478637E-008  0.4614232E+02  0.7816164E-02  0.1320468E+00
        -11   -1    0    0    0    0  0.00000000000E+00  0.00000000000E+00  0.45593999997E+02  0.45594000000E+02  0.51100000000E-03 0. -1.
         11   -1    0    0    0    0 -0.00000000000E+00 -0.00000000000E+00 -0.45593999997E+02  0.45594000000E+02  0.51100000000E-03 0.  1.
    9900012    2    1    2    0    0  0.39739067974E+01 -0.28284038765E+02 -0.34832953555E+02  0.46142318326E+02  0.10000005152E+02 0.  0.
         12    1    1    2    0    0 -0.39739067974E+01  0.28284038765E+02  0.34832953555E+02  0.45045681674E+02  0.00000000000E+00 0. -1.
         11    1    3    3    0    0 -0.86667141580E+00 -0.22800884137E+01 -0.27706930769E+01  0.36914310104E+01  0.51100000000E-03 0. -1.
        -11    1    3    3    0    0 -0.18064185071E+00 -0.16676891929E+02 -0.23572349126E+02  0.28875716432E+02  0.51100000000E-03 0.  1.
        -12    1    3    3    0    0  0.50212200640E+01 -0.93270584227E+01 -0.84899113518E+01  0.13575170883E+02  0.00000000000E+00 0.  1.
</event>
<event>
 7    1  0.2478637E-008  0.4614232E+02  0.7816164E-02  0.1320468E+00
        -11   -1    0    0    0    0  0.00000000000E+00  0.00000000000E+00  0.45593999997E+02  0.45594000000E+02  0.51100000000E-03 0.  1.
         11   -1    0    0    0    0 -0.00000000000E+00 -0.00000000000E+00 -0.45593999997E+02  0.45594000000E+02  0.51100000000E-03 0. -1.
    9900012    2    1    2    0    0  0.34480198334E+02 -0.73910714704E+01  0.28028584156E+02  0.46142317139E+02  0.99999943284E+01 0.  0.
         12    1    1    2    0    0 -0.34480198334E+02  0.73910714704E+01 -0.28028584156E+02  0.45045682861E+02  0.00000000000E+00 0. -1.
         11    1    3    3    0    0  0.26915332440E+01 -0.85641814711E+00  0.30459164762E+01  0.41539632506E+01  0.51100000000E-03 0. -1.
        -11    1    3    3    0    0  0.17799569187E+02 -0.30898520248E+01  0.19476209238E+02  0.26564912485E+02  0.51100000000E-03 0.  1.
         12    1    3    3    0    0  0.13989095903E+02 -0.34448012984E+01  0.55064584416E+01  0.15423441404E+02  0.00000000000E+00 0. -1.
</event>
<event>
 7    1  0.2478637E-008  0.4614232E+02  0.7816164E-02  0.1320468E+00
        -11   -1    0    0    0    0  0.00000000000E+00  0.00000000000E+00  0.45593999997E+02  0.45594000000E+02  0.51100000000E-03 0. -1.
         11   -1    0    0    0    0 -0.00000000000E+00 -0.00000000000E+00 -0.45593999997E+02  0.45594000000E+02  0.51100000000E-03 0.  1.
    9900012    2    1    2    0    0 -0.38116159431E+02  0.69950064761E+01 -0.22963921721E+02  0.46142318451E+02  0.10000006291E+02 0.  0.
         12    1    1    2    0    0  0.38116159431E+02 -0.69950064761E+01  0.22963921721E+02  0.45045681549E+02  0.00000000000E+00 0. -1.
         11    1    3    3    0    0 -0.24320379967E+01 -0.67790408100E+00 -0.27020379235E+01  0.36980227097E+01  0.51100000000E-03 0. -1.
        -11    1    3    3    0    0 -0.18000719213E+02  0.12342603087E+01 -0.13148798079E+02  0.22325773937E+02  0.51100000000E-03 0.  1.
        -12    1    3    3    0    0 -0.17683402221E+02  0.64386502484E+01 -0.71130857187E+01  0.20118521804E+02  0.00000000000E+00 0.  1.
</event>
<event>
 7    1  0.2478637E-008  0.4614232E+02  0.7816164E-02  0.1320468E+00
        -11   -1    0    0    0    0  0.00000000000E+00  0.00000000000E+00  0.45593999997E+02  0.45594000000E+02  0.51100000000E-03 0.  1.
         11   -1    0    0    0    0 -0.00000000000E+00 -0.00000000000E+00 -0.45593999997E+02  0.45594000000E+02  0.51100000000E-03 0. -1.
    9900012    2    1    2    0    0  0.96710980227E+01 -0.29397595840E+02  0.32731708495E+02  0.46142317420E+02  0.99999968857E+01 0.  0.
         12    1    1    2    0    0 -0.96710980227E+01  0.29397595840E+02 -0.32731708495E+02  0.45045682580E+02  0.00000000000E+00 0. -1.
         11    1    3    3    0    0 -0.10232898063E+01 -0.57116328651E+01  0.33576269319E+01  0.67039936522E+01  0.51100000000E-03 0. -1.
        -11    1    3    3    0    0  0.35923997802E+01 -0.72724861059E+01  0.64493673162E+01  0.10362853342E+02  0.51100000000E-03 0.  1.
        -12    1    3    3    0    0  0.71019880489E+01 -0.16413476869E+02  0.22924714247E+02  0.29075470426E+02  0.00000000000E+00 0.  1.
</event>
<event>
 7    1  0.2478637E-008  0.4614232E+02  0.7816164E-02  0.1320468E+00
        -11   -1    0    0    0    0  0.00000000000E+00  0.00000000000E+00  0.45593999997E+02  0.45594000000E+02  0.51100000000E-03 0.  1.
         11   -1    0    0    0    0 -0.00000000000E+00 -0.00000000000E+00 -0.45593999997E+02  0.45594000000E+02  0.51100000000E-03 0. -1.
    9900012    2    1    2    0    0 -0.10057479438E+02  0.44406079504E+01  0.43683424594E+02  0.46142317900E+02  0.10000001263E+02 0.  0.
         12    1    1    2    0    0  0.10057479438E+02 -0.44406079504E+01 -0.43683424594E+02  0.45045682100E+02  0.00000000000E+00 0. -1.
         11    1    3    3    0    0 -0.79307739175E+01  0.59185285658E+01  0.21914246525E+02  0.24044965301E+02  0.51100000000E-03 0. -1.
        -11    1    3    3    0    0  0.14237101226E+00 -0.10515606205E+01  0.29112401994E+01  0.30986075911E+01  0.51100000000E-03 0.  1.
        -12    1    3    3    0    0 -0.22690765329E+01 -0.42635999490E+00  0.18857937870E+02  0.18998745008E+02  0.00000000000E+00 0.  1.
</event>
<event>
 7    1  0.2478637E-008  0.4614232E+02  0.7816164E-02  0.1320468E+00
        -11   -1    0    0    0    0  0.00000000000E+00  0.00000000000E+00  0.45593999997E+02  0.45594000000E+02  0.51100000000E-03 0. -1.
         11   -1    0    0    0    0 -0.00000000000E+00 -0.00000000000E+00 -0.45593999997E+02  0.45594000000E+02  0.51100000000E-03 0.  1.
    9900012    2    1    2    0    0 -0.10499474996E+01 -0.76544594037E+01 -0.44378152032E+02  0.46142317452E+02  0.99999971768E+01 0.  0.
         12    1    1    2    0    0  0.10499474996E+01  0.76544594037E+01  0.44378152032E+02  0.45045682548E+02  0.00000000000E+00 0. -1.
         11    1    3    3    0    0 -0.58901944554E+00  0.18760080734E-01 -0.40821102161E+01  0.41244296485E+01  0.51100000000E-03 0.  1.
        -11    1    3    3    0    0  0.14694511260E+01 -0.65199641869E+01 -0.38669032521E+02  0.39242366086E+02  0.51100000000E-03 0. -1.
         12    1    3    3    0    0 -0.19303791800E+01 -0.11532552975E+01 -0.16270092943E+01  0.27755217173E+01  0.00000000000E+00 0. -1.
</event>
<event>
 7    1  0.2478637E-008  0.4614232E+02  0.7816164E-02  0.1320468E+00
        -11   -1    0    0    0    0  0.00000000000E+00  0.00000000000E+00  0.45593999997E+02  0.45594000000E+02  0.51100000000E-03 0.  1.
         11   -1    0    0    0    0 -0.00000000000E+00 -0.00000000000E+00 -0.45593999997E+02  0.45594000000E+02  0.51100000000E-03 0. -1.
    9900012    2    1    2    0    0 -0.30220314402E+02 -0.24897967182E+02  0.22269649049E+02  0.46142318285E+02  0.10000004781E+02 0.  0.
         12    1    1    2    0    0  0.30220314402E+02  0.24897967182E+02 -0.22269649049E+02  0.45045681715E+02  0.00000000000E+00 0. -1.
         11    1    3    3    0    0 -0.20971460167E+02 -0.14206165252E+02  0.94765115585E+01  0.27044806235E+02  0.51100000000E-03 0. -1.
        -11    1    3    3    0    0 -0.29980986333E+01 -0.28518239384E+01  0.33486340190E+01  0.53230484917E+01  0.51100000000E-03 0.  1.
         12    1    3    3    0    0 -0.62507556015E+01 -0.78399779917E+01  0.94445034716E+01  0.13774463559E+02  0.00000000000E+00 0. -1.
</event>
<event>
 7    1  0.2478637E-008  0.4614232E+02  0.7816164E-02  0.1320468E+00
        -11   -1    0    0    0    0  0.00000000000E+00  0.00000000000E+00  0.45593999997E+02  0.45594000000E+02  0.51100000000E-03 0.  1.
         11   -1    0    0    0    0 -0.00000000000E+00 -0.00000000000E+00 -0.45593999997E+02  0.45594000000E+02  0.51100000000E-03 0. -1.
    9900012    2    1    2    0    0 -0.29960199149E+02  0.26571081809E+02  0.20627107697E+02  0.46142317704E+02  0.99999994807E+01 0.  0.
         12    1    1    2    0    0  0.29960199149E+02 -0.26571081809E+02 -0.20627107697E+02  0.45045682296E+02  0.00000000000E+00 0. -1.
         11    1    3    3    0    0 -0.10085434419E+02  0.11860490321E+02  0.10956443519E+02  0.19037617312E+02  0.51100000000E-03 0. -1.
        -11    1    3    3    0    0 -0.66593079350E+01  0.64834454835E+01  0.61493251586E+01  0.11144310103E+02  0.51100000000E-03 0.  1.
         12    1    3    3    0    0 -0.13215456795E+02  0.82271460047E+01  0.35213390197E+01  0.15960390289E+02  0.00000000000E+00 0. -1.
</event>
<event>
 7    1  0.2478637E-008  0.4614232E+02  0.7816164E-02  0.1320468E+00
        -11   -1    0    0    0    0  0.00000000000E+00  0.00000000000E+00  0.45593999997E+02  0.45594000000E+02  0.51100000000E-03 0. -1.
         11   -1    0    0    0    0 -0.00000000000E+00 -0.00000000000E+00 -0.45593999997E+02  0.45594000000E+02  0.51100000000E-03 0.  1.
    9900012    2    1    2    0    0  0.16630094866E+02  0.22848455546E+01 -0.41801111923E+02  0.46142317271E+02  0.99999955346E+01 0.  0.
         12    1    1    2    0    0 -0.16630094866E+02 -0.22848455546E+01  0.41801111923E+02  0.45045682729E+02  0.00000000000E+00 0. -1.
         11    1    3    3    0    0  0.23136382953E+01 -0.92207160265E+00 -0.83410087337E+01  0.87049161488E+01  0.51100000000E-03 0. -1.
        -11    1    3    3    0    0  0.96702049141E+01  0.10562489035E+00 -0.12842935916E+02  0.16076847418E+02  0.51100000000E-03 0.  1.
        -12    1    3    3    0    0  0.46462516569E+01  0.31012922669E+01 -0.20617167273E+02  0.21360553704E+02  0.00000000000E+00 0.  1.
</event>
<event>
 7    1  0.2478637E-008  0.4614231E+02  0.7816164E-02  0.1320468E+00
        -11   -1    0    0    0    0  0.00000000000E+00  0.00000000000E+00  0.45593999997E+02  0.45594000000E+02  0.51100000000E-03 0. -1.
         11   -1    0    0    0    0 -0.00000000000E+00 -0.00000000000E+00 -0.45593999997E+02  0.45594000000E+02  0.51100000000E-03 0.  1.
    9900012    2    1    2    0    0 -0.15808677973E+02  0.37032606742E+02 -0.20193700450E+02  0.46142314311E+02  0.99999685374E+01 0.  0.
         12    1    1    2    0    0  0.15808677973E+02 -0.37032606742E+02  0.20193700450E+02  0.45045685689E+02  0.00000000000E+00 0. -1.
         11    1    3    3    0    0  0.49769384230E+00 -0.76803999050E-01 -0.23334730651E+00  0.55502183877E+00  0.51100000000E-03 0. -1.
        -11    1    3    3    0    0 -0.20175215677E+01  0.40402224963E+01 -0.24865654164E+00  0.45227891210E+01  0.51100000000E-03 0.  1.
        -12    1    3    3    0    0 -0.14288850248E+02  0.33069188244E+02 -0.19711696602E+02  0.41064503351E+02  0.00000000000E+00 0.  1.
</event>
<event>
 7    1  0.2478637E-008  0.4614232E+02  0.7816164E-02  0.1320468E+00
        -11   -1    0    0    0    0  0.00000000000E+00  0.00000000000E+00  0.45593999997E+02  0.45594000000E+02  0.51100000000E-03 0.  1.
         11   -1    0    0    0    0 -0.00000000000E+00 -0.00000000000E+00 -0.45593999997E+02  0.45594000000E+02  0.51100000000E-03 0. -1.
    9900012    2    1    2    0    0 -0.20920165196E+02 -0.67097813857E+01  0.39324789473E+02  0.46142317131E+02  0.99999942497E+01 0.  0.
         12    1    1    2    0    0  0.20920165196E+02  0.67097813857E+01 -0.39324789473E+02  0.45045682869E+02  0.00000000000E+00 0. -1.
         11    1    3    3    0    0 -0.75462856434E+01 -0.39597240335E+01  0.90847485024E+01  0.12456263366E+02  0.51100000000E-03 0. -1.
        -11    1    3    3    0    0 -0.10701568581E+02 -0.44837321523E+01  0.22483310493E+02  0.25300724794E+02  0.51100000000E-03 0.  1.
         12    1    3    3    0    0 -0.26723109723E+01  0.17336748002E+01  0.77567304771E+01  0.83853289702E+01  0.00000000000E+00 0. -1.
</event>
<event>
 7    1  0.2478637E-008  0.4614232E+02  0.7816164E-02  0.1320468E+00
        -11   -1    0    0    0    0  0.00000000000E+00  0.00000000000E+00  0.45593999997E+02  0.45594000000E+02  0.51100000000E-03 0.  1.
         11   -1    0    0    0    0 -0.00000000000E+00 -0.00000000000E+00 -0.45593999997E+02  0.45594000000E+02  0.51100000000E-03 0. -1.
    9900012    2    1    2    0    0  0.20012400942E+02 -0.93024259450E+01  0.39269354295E+02  0.46142317558E+02  0.99999981442E+01 0.  0.
         12    1    1    2    0    0 -0.20012400942E+02  0.93024259450E+01 -0.39269354295E+02  0.45045682442E+02  0.00000000000E+00 0. -1.
         11    1    3    3    0    0 -0.20771665862E+00  0.21349224528E+00  0.44581686231E+01  0.44681084233E+01  0.51100000000E-03 0. -1.
        -11    1    3    3    0    0  0.91221340239E+01 -0.39717749341E+01  0.20121497261E+02  0.22446892381E+02  0.51100000000E-03 0.  1.
         12    1    3    3    0    0  0.11097983577E+02 -0.55441432562E+01  0.14689688412E+02  0.19227316754E+02  0.00000000000E+00 0. -1.
</event>
<event>
 7    1  0.2478637E-008  0.4614232E+02  0.7816164E-02  0.1320468E+00
        -11   -1    0    0    0    0  0.00000000000E+00  0.00000000000E+00  0.45593999997E+02  0.45594000000E+02  0.51100000000E-03 0. -1.
         11   -1    0    0    0    0 -0.00000000000E+00 -0.00000000000E+00 -0.45593999997E+02  0.45594000000E+02  0.51100000000E-03 0.  1.
    9900012    2    1    2    0    0 -0.10199560022E+02 -0.40088322573E+02 -0.17832797612E+02  0.46142319829E+02  0.10000018860E+02 0.  0.
         12    1    1    2    0    0  0.10199560022E+02  0.40088322573E+02  0.17832797612E+02  0.45045680171E+02  0.00000000000E+00 0. -1.
         11    1    3    3    0    0 -0.71966284670E+01 -0.28284239164E+02 -0.84622394196E+01  0.30387483322E+02  0.51100000000E-03 0. -1.
        -11    1    3    3    0    0 -0.24266070097E+01 -0.46113934213E+01 -0.24549960954E+01  0.57602410501E+01  0.51100000000E-03 0.  1.
         12    1    3    3    0    0 -0.57632454570E+00 -0.71926899878E+01 -0.69155620973E+01  0.99945954577E+01  0.00000000000E+00 0. -1.
</event>
<event>
 7    1  0.2478637E-008  0.4614232E+02  0.7816164E-02  0.1320468E+00
        -11   -1    0    0    0    0  0.00000000000E+00  0.00000000000E+00  0.45593999997E+02  0.45594000000E+02  0.51100000000E-03 0. -1.
         11   -1    0    0    0    0 -0.00000000000E+00 -0.00000000000E+00 -0.45593999997E+02  0.45594000000E+02  0.51100000000E-03 0.  1.
    9900012    2    1    2    0    0  0.34441781362E+02 -0.21907542587E+01 -0.28949572724E+02  0.46142317982E+02  0.10000002012E+02 0.  0.
         12    1    1    2    0    0 -0.34441781362E+02  0.21907542587E+01  0.28949572724E+02  0.45045682018E+02  0.00000000000E+00 0. -1.
         11    1    3    3    0    0  0.72282116800E+01 -0.78468318580E+00 -0.22897342721E+01  0.76227065463E+01  0.51100000000E-03 0. -1.
        -11    1    3    3    0    0  0.90511743537E+01  0.19719510116E+01 -0.76754245482E+01  0.12030149219E+02  0.51100000000E-03 0.  1.
        -12    1    3    3    0    0  0.18162395328E+02 -0.33780220846E+01 -0.18984413904E+02  0.26489462217E+02  0.00000000000E+00 0.  1.
</event>
<event>
 7    1  0.2478637E-008  0.4614232E+02  0.7816164E-02  0.1320468E+00
        -11   -1    0    0    0    0  0.00000000000E+00  0.00000000000E+00  0.45593999997E+02  0.45594000000E+02  0.51100000000E-03 0.  1.
         11   -1    0    0    0    0 -0.00000000000E+00 -0.00000000000E+00 -0.45593999997E+02  0.45594000000E+02  0.51100000000E-03 0. -1.
    9900012    2    1    2    0    0 -0.39788205111E+02 -0.10508647939E+02  0.18318860779E+02  0.46142316437E+02  0.99999879243E+01 0.  0.
         12    1    1    2    0    0  0.39788205111E+02  0.10508647939E+02 -0.18318860779E+02  0.45045683563E+02  0.00000000000E+00 0. -1.
         11    1    3    3    0    0  0.29675889164E+00 -0.17243614847E+00 -0.12608148069E+00  0.36564582038E+00  0.51100000000E-03 0. -1.
        -11    1    3    3    0    0 -0.15738902194E+02 -0.56837683458E+01  0.10467434091E+02  0.19737918877E+02  0.51100000000E-03 0.  1.
        -12    1    3    3    0    0 -0.24346061808E+02 -0.46524434451E+01  0.79775081688E+01  0.26038751740E+02  0.00000000000E+00 0.  1.
</event>
<event>
 7    1  0.2478637E-008  0.4614232E+02  0.7816164E-02  0.1320468E+00
        -11   -1    0    0    0    0  0.00000000000E+00  0.00000000000E+00  0.45593999997E+02  0.45594000000E+02  0.51100000000E-03 0. -1.
         11   -1    0    0    0    0 -0.00000000000E+00 -0.00000000000E+00 -0.45593999997E+02  0.45594000000E+02  0.51100000000E-03 0.  1.
    9900012    2    1    2    0    0  0.28678187410E+02 -0.26148491326E+02 -0.22867695778E+02  0.46142317166E+02  0.99999945760E+01 0.  0.
         12    1    1    2    0    0 -0.28678187410E+02  0.26148491326E+02  0.22867695778E+02  0.45045682834E+02  0.00000000000E+00 0. -1.
         11    1    3    3    0    0  0.18173332517E+02 -0.17082020744E+02 -0.13547208668E+02  0.28382958099E+02  0.51100000000E-03 0.  1.
        -11    1    3    3    0    0  0.52423445184E+01 -0.79891846140E+01 -0.45861317524E+01  0.10599143907E+02  0.51100000000E-03 0. -1.
         12    1    3    3    0    0  0.52625103745E+01 -0.10772859685E+01 -0.47343553575E+01  0.71602151610E+01  0.00000000000E+00 0. -1.
</event>
<event>
 7    1  0.2478637E-008  0.4614232E+02  0.7816164E-02  0.1320468E+00
        -11   -1    0    0    0    0  0.00000000000E+00  0.00000000000E+00  0.45593999997E+02  0.45594000000E+02  0.51100000000E-03 0. -1.
         11   -1    0    0    0    0 -0.00000000000E+00 -0.00000000000E+00 -0.45593999997E+02  0.45594000000E+02  0.51100000000E-03 0.  1.
    9900012    2    1    2    0    0  0.37093697917E+02  0.47217268223E+01  0.25117253046E+02  0.46142317300E+02  0.99999957958E+01 0.  0.
         12    1    1    2    0    0 -0.37093697917E+02 -0.47217268223E+01 -0.25117253046E+02  0.45045682700E+02  0.00000000000E+00 0. -1.
         11    1    3    3    0    0  0.99843933301E+01  0.25798605275E+01  0.11349837053E+02  0.15335011963E+02  0.51100000000E-03 0. -1.
        -11    1    3    3    0    0  0.22045252868E+02  0.34849275500E+01  0.11286755801E+02  0.25010572781E+02  0.51100000000E-03 0.  1.
        -12    1    3    3    0    0  0.50640517185E+01 -0.13430612552E+01  0.24806601921E+01  0.57967325565E+01  0.00000000000E+00 0.  1.
</event>
<event>
 7    1  0.2478637E-008  0.4614232E+02  0.7816164E-02  0.1320468E+00
        -11   -1    0    0    0    0  0.00000000000E+00  0.00000000000E+00  0.45593999997E+02  0.45594000000E+02  0.51100000000E-03 0. -1.
         11   -1    0    0    0    0 -0.00000000000E+00 -0.00000000000E+00 -0.45593999997E+02  0.45594000000E+02  0.51100000000E-03 0.  1.
    9900012    2    1    2    0    0 -0.15810052281E+02  0.14088827310E+02 -0.39757522733E+02  0.46142318498E+02  0.10000006722E+02 0.  0.
         12    1    1    2    0    0  0.15810052281E+02 -0.14088827310E+02  0.39757522733E+02  0.45045681502E+02  0.00000000000E+00 0. -1.
         11    1    3    3    0    0 -0.57442781715E+01  0.76349852394E+01 -0.19876850015E+02  0.22053999594E+02  0.51100000000E-03 0. -1.
        -11    1    3    3    0    0 -0.44154486431E+01 -0.71481658592E+00 -0.66762037700E+01  0.80360964722E+01  0.51100000000E-03 0.  1.
         12    1    3    3    0    0 -0.56503254667E+01  0.71686586566E+01 -0.13204468947E+02  0.16052222432E+02  0.00000000000E+00 0. -1.
</event>
<event>
 7    1  0.2478637E-008  0.4614232E+02  0.7816164E-02  0.1320468E+00
        -11   -1    0    0    0    0  0.00000000000E+00  0.00000000000E+00  0.45593999997E+02  0.45594000000E+02  0.51100000000E-03 0.  1.
         11   -1    0    0    0    0 -0.00000000000E+00 -0.00000000000E+00 -0.45593999997E+02  0.45594000000E+02  0.51100000000E-03 0. -1.
    9900012    2    1    2    0    0 -0.15613051174E+02  0.10670509200E+02  0.40883815218E+02  0.46142317850E+02  0.10000000809E+02 0.  0.
         12    1    1    2    0    0  0.15613051174E+02 -0.10670509200E+02 -0.40883815218E+02  0.45045682150E+02  0.00000000000E+00 0. -1.
         11    1    3    3    0    0 -0.10465035197E+02  0.10920242510E+02  0.24865955092E+02  0.29104714069E+02  0.51100000000E-03 0. -1.
        -11    1    3    3    0    0 -0.42190539967E+00 -0.26946046407E+00  0.21798592293E+00  0.54601394825E+00  0.51100000000E-03 0.  1.
        -12    1    3    3    0    0 -0.47261105774E+01  0.19727154500E-01  0.15799874204E+02  0.16491589833E+02  0.00000000000E+00 0.  1.
</event>
<event>
 7    1  0.2478637E-008  0.4614232E+02  0.7816164E-02  0.1320468E+00
        -11   -1    0    0    0    0  0.00000000000E+00  0.00000000000E+00  0.45593999997E+02  0.45594000000E+02  0.51100000000E-03 0. -1.
         11   -1    0    0    0    0 -0.00000000000E+00 -0.00000000000E+00 -0.45593999997E+02  0.45594000000E+02  0.51100000000E-03 0.  1.
    9900012    2    1    2    0    0 -0.16258310348E+02  0.96712748759E+01  0.40880891566E+02  0.46142317540E+02  0.99999979814E+01 0.  0.
         12    1    1    2    0    0  0.16258310348E+02 -0.96712748759E+01 -0.40880891566E+02  0.45045682460E+02  0.00000000000E+00 0. -1.
         11    1    3    3    0    0 -0.56118783553E+01  0.42130933407E+01  0.22432229217E+02  0.23504217538E+02  0.51100000000E-03 0. -1.
        -11    1    3    3    0    0 -0.70425050779E-01 -0.74703526114E-01  0.35337342028E+01  0.35352253084E+01  0.51100000000E-03 0.  1.
        -12    1    3    3    0    0 -0.10576006942E+02  0.55328850613E+01  0.14914928145E+02  0.19102874693E+02  0.00000000000E+00 0.  1.
</event>
<event>
 7    1  0.2478637E-008  0.4614232E+02  0.7816164E-02  0.1320468E+00
        -11   -1    0    0    0    0  0.00000000000E+00  0.00000000000E+00  0.45593999997E+02  0.45594000000E+02  0.51100000000E-03 0.  1.
         11   -1    0    0    0    0 -0.00000000000E+00 -0.00000000000E+00 -0.45593999997E+02  0.45594000000E+02  0.51100000000E-03 0. -1.
    9900012    2    1    2    0    0  0.18033078651E+02 -0.16693787777E+02  0.37752337234E+02  0.46142318269E+02  0.10000004630E+02 0.  0.
         12    1    1    2    0    0 -0.18033078651E+02  0.16693787777E+02 -0.37752337234E+02  0.45045681731E+02  0.00000000000E+00 0. -1.
         11    1    3    3    0    0  0.44985598367E+00 -0.44143408716E+01  0.40168844393E+01  0.59853267744E+01  0.51100000000E-03 0. -1.
        -11    1    3    3    0    0  0.10511063144E+02 -0.91554828593E+01  0.23602196581E+02  0.27411110859E+02  0.51100000000E-03 0.  1.
         12    1    3    3    0    0  0.70721595234E+01 -0.31239640466E+01  0.10133256214E+02  0.12745880636E+02  0.00000000000E+00 0. -1.
</event>
<event>
 7    1  0.2478637E-008  0.4614232E+02  0.7816164E-02  0.1320468E+00
        -11   -1    0    0    0    0  0.00000000000E+00  0.00000000000E+00  0.45593999997E+02  0.45594000000E+02  0.51100000000E-03 0.  1.
         11   -1    0    0    0    0 -0.00000000000E+00 -0.00000000000E+00 -0.45593999997E+02  0.45594000000E+02  0.51100000000E-03 0. -1.
    9900012    2    1    2    0    0 -0.24774758451E+02  0.33470389598E+02  0.17177244112E+02  0.46142319281E+02  0.10000013862E+02 0.  0.
         12    1    1    2    0    0  0.24774758451E+02 -0.33470389598E+02 -0.17177244112E+02  0.45045680719E+02  0.00000000000E+00 0. -1.
         11    1    3    3    0    0 -0.34736903070E+01  0.68017540135E+01  0.66195451921E+01  0.10106867013E+02  0.51100000000E-03 0. -1.
        -11    1    3    3    0    0 -0.60248041966E+01  0.11161022855E+02  0.36683003374E+01  0.13203148277E+02  0.51100000000E-03 0.  1.
         12    1    3    3    0    0 -0.15276263947E+02  0.15507612729E+02  0.68893985827E+01  0.22832303992E+02  0.00000000000E+00 0. -1.
</event>
<event>
 7    1  0.2478637E-008  0.4614232E+02  0.7816164E-02  0.1320468E+00
        -11   -1    0    0    0    0  0.00000000000E+00  0.00000000000E+00  0.45593999997E+02  0.45594000000E+02  0.51100000000E-03 0. -1.
         11   -1    0    0    0    0 -0.00000000000E+00 -0.00000000000E+00 -0.45593999997E+02  0.45594000000E+02  0.51100000000E-03 0.  1.
    9900012    2    1    2    0    0  0.48153176000E+01 -0.25057588602E+02 -0.37122008721E+02  0.46142316949E+02  0.99999925901E+01 0.  0.
         12    1    1    2    0    0 -0.48153176000E+01  0.25057588602E+02  0.37122008721E+02  0.45045683051E+02  0.00000000000E+00 0. -1.
         11    1    3    3    0    0 -0.17624436188E+01 -0.17156468172E+01 -0.29777460307E+01  0.38622044476E+01  0.51100000000E-03 0. -1.
        -11    1    3    3    0    0  0.28326603328E+01 -0.83098273654E+01 -0.79302089845E+01  0.11830697790E+02  0.51100000000E-03 0.  1.
        -12    1    3    3    0    0  0.37451008860E+01 -0.15032114419E+02 -0.26214053705E+02  0.30449414711E+02  0.00000000000E+00 0.  1.
</event>
<event>
 7    1  0.2478637E-008  0.4614232E+02  0.7816164E-02  0.1320468E+00
        -11   -1    0    0    0    0  0.00000000000E+00  0.00000000000E+00  0.45593999997E+02  0.45594000000E+02  0.51100000000E-03 0.  1.
         11   -1    0    0    0    0 -0.00000000000E+00 -0.00000000000E+00 -0.45593999997E+02  0.45594000000E+02  0.51100000000E-03 0. -1.
    9900012    2    1    2    0    0 -0.34464326594E+02 -0.11037961227E+02  0.26823256271E+02  0.46142317936E+02  0.10000001597E+02 0.  0.
         12    1    1    2    0    0  0.34464326594E+02  0.11037961227E+02 -0.26823256271E+02  0.45045682064E+02  0.00000000000E+00 0. -1.
         11    1    3    3    0    0 -0.17848766415E+02 -0.68192675769E+01  0.12479798771E+02  0.22821618051E+02  0.51100000000E-03 0. -1.
        -11    1    3    3    0    0 -0.12307453820E+02 -0.57829762850E+01  0.91301247551E+01  0.16379115133E+02  0.51100000000E-03 0.  1.
        -12    1    3    3    0    0 -0.43081063581E+01  0.15642826352E+01  0.52133327453E+01  0.69415847520E+01  0.00000000000E+00 0.  1.
</event>
<event>
 7    1  0.2478637E-008  0.4614232E+02  0.7816164E-02  0.1320468E+00
        -11   -1    0    0    0    0  0.00000000000E+00  0.00000000000E+00  0.45593999997E+02  0.45594000000E+02  0.51100000000E-03 0.  1.
         11   -1    0    0    0    0 -0.00000000000E+00 -0.00000000000E+00 -0.45593999997E+02  0.45594000000E+02  0.51100000000E-03 0. -1.
    9900012    2    1    2    0    0 -0.18647422384E+02  0.32561174664E+02  0.24923019332E+02  0.46142319300E+02  0.10000014037E+02 0.  0.
         12    1    1    2    0    0  0.18647422384E+02 -0.32561174664E+02 -0.24923019332E+02  0.45045680700E+02  0.00000000000E+00 0. -1.
         11    1    3    3    0    0 -0.91410524579E+01  0.10968079799E+02  0.72850229312E+01  0.16029010384E+02  0.51100000000E-03 0.  1.
        -11    1    3    3    0    0 -0.74749320323E+01  0.99720142568E+01  0.10709296961E+02  0.16431820315E+02  0.51100000000E-03 0. -1.
        -12    1    3    3    0    0 -0.20314378940E+01  0.11621080608E+02  0.69286994402E+01  0.13681488601E+02  0.00000000000E+00 0.  1.
</event>
<event>
 7    1  0.2478637E-008  0.4614232E+02  0.7816164E-02  0.1320468E+00
        -11   -1    0    0    0    0  0.00000000000E+00  0.00000000000E+00  0.45593999997E+02  0.45594000000E+02  0.51100000000E-03 0.  1.
         11   -1    0    0    0    0 -0.00000000000E+00 -0.00000000000E+00 -0.45593999997E+02  0.45594000000E+02  0.51100000000E-03 0. -1.
    9900012    2    1    2    0    0 -0.38521798044E+02  0.12949330220E+02  0.19429344611E+02  0.46142317525E+02  0.99999978434E+01 0.  0.
         12    1    1    2    0    0  0.38521798044E+02 -0.12949330220E+02 -0.19429344611E+02  0.45045682475E+02  0.00000000000E+00 0. -1.
         11    1    3    3    0    0 -0.20158511347E+01 -0.68197981156E+00  0.12639476752E+00  0.21318368040E+01  0.51100000000E-03 0. -1.
        -11    1    3    3    0    0 -0.22164104371E+02  0.11051525618E+02  0.14328705067E+02  0.28612856030E+02  0.51100000000E-03 0.  1.
        -12    1    3    3    0    0 -0.14341842538E+02  0.25797844132E+01  0.49742447766E+01  0.15397624691E+02  0.00000000000E+00 0.  1.
</event>
<event>
 7    1  0.2478637E-008  0.4614232E+02  0.7816164E-02  0.1320468E+00
        -11   -1    0    0    0    0  0.00000000000E+00  0.00000000000E+00  0.45593999997E+02  0.45594000000E+02  0.51100000000E-03 0. -1.
         11   -1    0    0    0    0 -0.00000000000E+00 -0.00000000000E+00 -0.45593999997E+02  0.45594000000E+02  0.51100000000E-03 0.  1.
    9900012    2    1    2    0    0  0.16432154993E+02 -0.21104625095E+02 -0.36244896810E+02  0.46142318044E+02  0.10000002580E+02 0.  0.
         12    1    1    2    0    0 -0.16432154993E+02  0.21104625095E+02  0.36244896810E+02  0.45045681956E+02  0.00000000000E+00 0. -1.
         11    1    3    3    0    0  0.26019817337E+01 -0.66916601953E+01 -0.51389518920E+01  0.88293517271E+01  0.51100000000E-03 0. -1.
        -11    1    3    3    0    0  0.93256590768E+01 -0.12169891304E+02 -0.20758107045E+02  0.25806456168E+02  0.51100000000E-03 0.  1.
        -12    1    3    3    0    0  0.45045141826E+01 -0.22430735958E+01 -0.10347837873E+02  0.11506510149E+02  0.00000000000E+00 0.  1.
</event>
<event>
 7    1  0.2478637E-008  0.4614232E+02  0.7816164E-02  0.1320468E+00
        -11   -1    0    0    0    0  0.00000000000E+00  0.00000000000E+00  0.45593999997E+02  0.45594000000E+02  0.51100000000E-03 0.  1.
         11   -1    0    0    0    0 -0.00000000000E+00 -0.00000000000E+00 -0.45593999997E+02  0.45594000000E+02  0.51100000000E-03 0. -1.
    9900012    2    1    2    0    0 -0.39000600464E+01  0.10847996414E+02  0.43545653758E+02  0.46142318123E+02  0.10000003297E+02 0.  0.
         12    1    1    2    0    0  0.39000600464E+01 -0.10847996414E+02 -0.43545653758E+02  0.45045681877E+02  0.00000000000E+00 0. -1.
         11    1    3    3    0    0 -0.27500348879E+00  0.28855738715E+01  0.83806337236E+01  0.88677610114E+01  0.51100000000E-03 0. -1.
        -11    1    3    3    0    0  0.20735089642E+01  0.45408048183E+01  0.91420720689E+01  0.10416133150E+02  0.51100000000E-03 0.  1.
         12    1    3    3    0    0 -0.56985655218E+01  0.34216177245E+01  0.26022947966E+02  0.26858423961E+02  0.00000000000E+00 0. -1.
</event>
<event>
 7    1  0.2478637E-008  0.4614232E+02  0.7816164E-02  0.1320468E+00
        -11   -1    0    0    0    0  0.00000000000E+00  0.00000000000E+00  0.45593999997E+02  0.45594000000E+02  0.51100000000E-03 0.  1.
         11   -1    0    0    0    0 -0.00000000000E+00 -0.00000000000E+00 -0.45593999997E+02  0.45594000000E+02  0.51100000000E-03 0. -1.
    9900012    2    1    2    0    0 -0.30173382656E+02 -0.87993387538E+01  0.32268441847E+02  0.46142315161E+02  0.99999762874E+01 0.  0.
         12    1    1    2    0    0  0.30173382656E+02  0.87993387538E+01 -0.32268441847E+02  0.45045684839E+02  0.00000000000E+00 0. -1.
         11    1    3    3    0    0 -0.70913451855E+01 -0.78433369954E+00  0.72347568180E+01  0.10160908541E+02  0.51100000000E-03 0. -1.
        -11    1    3    3    0    0 -0.19287685713E+02 -0.74232835903E+01  0.15907085849E+02  0.26079787957E+02  0.51100000000E-03 0.  1.
         12    1    3    3    0    0 -0.37943517572E+01 -0.59172146396E+00  0.91265991802E+01  0.99016186628E+01  0.00000000000E+00 0. -1.
</event>
<event>
 7    1  0.2478637E-008  0.4614232E+02  0.7816164E-02  0.1320468E+00
        -11   -1    0    0    0    0  0.00000000000E+00  0.00000000000E+00  0.45593999997E+02  0.45594000000E+02  0.51100000000E-03 0. -1.
         11   -1    0    0    0    0 -0.00000000000E+00 -0.00000000000E+00 -0.45593999997E+02  0.45594000000E+02  0.51100000000E-03 0.  1.
    9900012    2    1    2    0    0  0.18461318438E+02  0.40004848219E+02  0.93757845460E+01  0.46142317683E+02  0.99999992916E+01 0.  0.
         12    1    1    2    0    0 -0.18461318438E+02 -0.40004848219E+02 -0.93757845460E+01  0.45045682317E+02  0.00000000000E+00 0. -1.
         11    1    3    3    0    0 -0.33034658440E+00  0.81978958477E+01  0.22469246604E+01  0.85066618533E+01  0.51100000000E-03 0. -1.
        -11    1    3    3    0    0  0.24375315619E+01  0.35654922292E+01  0.88545463324E+00  0.44088915977E+01  0.51100000000E-03 0.  1.
         12    1    3    3    0    0  0.16354133460E+02  0.28241460142E+02  0.62434052523E+01  0.33226764232E+02  0.00000000000E+00 0. -1.
</event>
<event>
 7    1  0.2478637E-008  0.4614232E+02  0.7816164E-02  0.1320468E+00
        -11   -1    0    0    0    0  0.00000000000E+00  0.00000000000E+00  0.45593999997E+02  0.45594000000E+02  0.51100000000E-03 0. -1.
         11   -1    0    0    0    0 -0.00000000000E+00 -0.00000000000E+00 -0.45593999997E+02  0.45594000000E+02  0.51100000000E-03 0.  1.
    9900012    2    1    2    0    0 -0.30314182639E+02 -0.32633571335E+02 -0.67241324801E+01  0.46142316470E+02  0.99999882240E+01 0.  0.
         12    1    1    2    0    0  0.30314182639E+02  0.32633571335E+02  0.67241324801E+01  0.45045683530E+02  0.00000000000E+00 0. -1.
         11    1    3    3    0    0 -0.58071970455E+01 -0.45250124377E+01  0.15367385798E+00  0.73636194227E+01  0.51100000000E-03 0. -1.
        -11    1    3    3    0    0 -0.18044582975E+02 -0.25053707175E+02 -0.42678280097E+01  0.31169048335E+02  0.51100000000E-03 0.  1.
        -12    1    3    3    0    0 -0.64624026182E+01 -0.30548517223E+01 -0.26099783284E+01  0.76096487120E+01  0.00000000000E+00 0.  1.
</event>
<event>
 7    1  0.2478637E-008  0.4614232E+02  0.7816164E-02  0.1320468E+00
        -11   -1    0    0    0    0  0.00000000000E+00  0.00000000000E+00  0.45593999997E+02  0.45594000000E+02  0.51100000000E-03 0.  1.
         11   -1    0    0    0    0 -0.00000000000E+00 -0.00000000000E+00 -0.45593999997E+02  0.45594000000E+02  0.51100000000E-03 0. -1.
    9900012    2    1    2    0    0  0.31620662757E+02 -0.31229021444E+02 -0.73481627977E+01  0.46142316633E+02  0.99999897085E+01 0.  0.
         12    1    1    2    0    0 -0.31620662757E+02  0.31229021444E+02  0.73481627977E+01  0.45045683367E+02  0.00000000000E+00 0. -1.
         11    1    3    3    0    0  0.71956783023E+01 -0.51184908754E+01 -0.45931403634E+01  0.99535759268E+01  0.51100000000E-03 0. -1.
        -11    1    3    3    0    0  0.12187649807E+02 -0.10574936711E+02 -0.29915773644E+01  0.16410899720E+02  0.51100000000E-03 0.  1.
         12    1    3    3    0    0  0.12237334648E+02 -0.15535593858E+02  0.23655493000E+00  0.19777840985E+02  0.00000000000E+00 0. -1.
</event>
<event>
 7    1  0.2478637E-008  0.4614232E+02  0.7816164E-02  0.1320468E+00
        -11   -1    0    0    0    0  0.00000000000E+00  0.00000000000E+00  0.45593999997E+02  0.45594000000E+02  0.51100000000E-03 0.  1.
         11   -1    0    0    0    0 -0.00000000000E+00 -0.00000000000E+00 -0.45593999997E+02  0.45594000000E+02  0.51100000000E-03 0. -1.
    9900012    2    1    2    0    0  0.89963738169E+01 -0.15187487414E+02  0.41442960529E+02  0.46142317707E+02  0.99999995107E+01 0.  0.
         12    1    1    2    0    0 -0.89963738169E+01  0.15187487414E+02 -0.41442960529E+02  0.45045682293E+02  0.00000000000E+00 0. -1.
         11    1    3    3    0    0  0.36973310463E+01 -0.45013540882E+01  0.21603385732E+02  0.22374957449E+02  0.51100000000E-03 0. -1.
        -11    1    3    3    0    0  0.42275366101E+01 -0.26969359695E+01  0.81095433448E+01  0.95346852562E+01  0.51100000000E-03 0.  1.
         12    1    3    3    0    0  0.10715061605E+01 -0.79891973567E+01  0.11730031451E+02  0.14232675002E+02  0.00000000000E+00 0. -1.
</event>
<event>
 7    1  0.2478637E-008  0.4614232E+02  0.7816164E-02  0.1320468E+00
        -11   -1    0    0    0    0  0.00000000000E+00  0.00000000000E+00  0.45593999997E+02  0.45594000000E+02  0.51100000000E-03 0.  1.
         11   -1    0    0    0    0 -0.00000000000E+00 -0.00000000000E+00 -0.45593999997E+02  0.45594000000E+02  0.51100000000E-03 0. -1.
    9900012    2    1    2    0    0  0.39795489246E+02 -0.17427274494E+02  0.11904720026E+02  0.46142320746E+02  0.10000027217E+02 0.  0.
         12    1    1    2    0    0 -0.39795489246E+02  0.17427274494E+02 -0.11904720026E+02  0.45045679254E+02  0.00000000000E+00 0. -1.
         11    1    3    3    0    0  0.43954562982E+01 -0.19355845521E+01 -0.17904186689E+01  0.51256339021E+01  0.51100000000E-03 0. -1.
        -11    1    3    3    0    0  0.10020541353E+01 -0.36265062626E+00  0.59602960963E+00  0.12210157753E+01  0.51100000000E-03 0.  1.
         12    1    3    3    0    0  0.34397978812E+02 -0.15129039315E+02  0.13099109085E+02  0.39795671068E+02  0.00000000000E+00 0. -1.
</event>
<event>
 7    1  0.2478637E-008  0.4614231E+02  0.7816164E-02  0.1320468E+00
        -11   -1    0    0    0    0  0.00000000000E+00  0.00000000000E+00  0.45593999997E+02  0.45594000000E+02  0.51100000000E-03 0.  1.
         11   -1    0    0    0    0 -0.00000000000E+00 -0.00000000000E+00 -0.45593999997E+02  0.45594000000E+02  0.51100000000E-03 0. -1.
    9900012    2    1    2    0    0  0.16317685377E+01 -0.43980292762E+02  0.96013097154E+01  0.46142312434E+02  0.99999514261E+01 0.  0.
         12    1    1    2    0    0 -0.16317685377E+01  0.43980292762E+02 -0.96013097154E+01  0.45045687566E+02  0.00000000000E+00 0. -1.
         11    1    3    3    0    0  0.46314498750E+01 -0.33531599343E+02  0.89214017937E+01  0.35005855120E+02  0.51100000000E-03 0.  1.
        -11    1    3    3    0    0 -0.32510781348E+00 -0.12497544585E+01  0.86589824567E+00  0.15547865866E+01  0.51100000000E-03 0. -1.
         12    1    3    3    0    0 -0.26745735238E+01 -0.91989389609E+01 -0.18599032392E+00  0.95816707281E+01  0.00000000000E+00 0. -1.
</event>
<event>
 7    1  0.2478637E-008  0.4614232E+02  0.7816164E-02  0.1320468E+00
        -11   -1    0    0    0    0  0.00000000000E+00  0.00000000000E+00  0.45593999997E+02  0.45594000000E+02  0.51100000000E-03 0.  1.
         11   -1    0    0    0    0 -0.00000000000E+00 -0.00000000000E+00 -0.45593999997E+02  0.45594000000E+02  0.51100000000E-03 0. -1.
    9900012    2    1    2    0    0  0.35783311233E+02 -0.24982806672E+02  0.11159193862E+02  0.46142316526E+02  0.99999887364E+01 0.  0.
         12    1    1    2    0    0 -0.35783311233E+02  0.24982806672E+02 -0.11159193862E+02  0.45045683474E+02  0.00000000000E+00 0. -1.
         11    1    3    3    0    0  0.80147900033E+00 -0.14558817931E+01 -0.11587611799E+01  0.20260029902E+01  0.51100000000E-03 0. -1.
        -11    1    3    3    0    0  0.24423034449E+02 -0.14698069813E+02  0.69247352091E+01  0.29333765968E+02  0.51100000000E-03 0.  1.
         12    1    3    3    0    0  0.10558797784E+02 -0.88288550662E+01  0.53932198324E+01  0.14782547567E+02  0.00000000000E+00 0. -1.
</event>
<event>
 7    1  0.2478637E-008  0.4614232E+02  0.7816164E-02  0.1320468E+00
        -11   -1    0    0    0    0  0.00000000000E+00  0.00000000000E+00  0.45593999997E+02  0.45594000000E+02  0.51100000000E-03 0.  1.
         11   -1    0    0    0    0 -0.00000000000E+00 -0.00000000000E+00 -0.45593999997E+02  0.45594000000E+02  0.51100000000E-03 0. -1.
    9900012    2    1    2    0    0 -0.15906272951E+02  0.42105646426E+02 -0.17940188043E+01  0.46142317813E+02  0.10000000477E+02 0.  0.
         12    1    1    2    0    0  0.15906272951E+02 -0.42105646426E+02  0.17940188043E+01  0.45045682187E+02  0.00000000000E+00 0. -1.
         11    1    3    3    0    0 -0.14911124524E+02  0.34790477502E+02 -0.33477433101E+01  0.37999030842E+02  0.51100000000E-03 0. -1.
        -11    1    3    3    0    0 -0.71763172221E+00  0.35738635438E+01 -0.77640129420E+00  0.37269686273E+01  0.51100000000E-03 0.  1.
         12    1    3    3    0    0 -0.27751670480E+00  0.37413053802E+01  0.23301258000E+01  0.44163183437E+01  0.00000000000E+00 0. -1.
</event>
<event>
 7    1  0.2478637E-008  0.4614232E+02  0.7816164E-02  0.1320468E+00
        -11   -1    0    0    0    0  0.00000000000E+00  0.00000000000E+00  0.45593999997E+02  0.45594000000E+02  0.51100000000E-03 0. -1.
         11   -1    0    0    0    0 -0.00000000000E+00 -0.00000000000E+00 -0.45593999997E+02  0.45594000000E+02  0.51100000000E-03 0.  1.
    9900012    2    1    2    0    0  0.25762402560E+02  0.36597003753E+02 -0.51060187589E+01  0.46142317666E+02  0.99999991313E+01 0.  0.
         12    1    1    2    0    0 -0.25762402560E+02 -0.36597003753E+02  0.51060187589E+01  0.45045682334E+02  0.00000000000E+00 0. -1.
         11    1    3    3    0    0  0.12163833633E+02  0.22234930403E+02 -0.15862207177E+01  0.25394233107E+02  0.51100000000E-03 0.  1.
        -11    1    3    3    0    0  0.31631980724E+01  0.43905618692E+01 -0.32493413220E+01  0.63119786803E+01  0.51100000000E-03 0. -1.
         12    1    3    3    0    0  0.10435370855E+02  0.99715114809E+01 -0.27045671914E+00  0.14436105878E+02  0.00000000000E+00 0. -1.
</event>
<event>
 7    1  0.2478637E-008  0.4614232E+02  0.7816164E-02  0.1320468E+00
        -11   -1    0    0    0    0  0.00000000000E+00  0.00000000000E+00  0.45593999997E+02  0.45594000000E+02  0.51100000000E-03 0. -1.
         11   -1    0    0    0    0 -0.00000000000E+00 -0.00000000000E+00 -0.45593999997E+02  0.45594000000E+02  0.51100000000E-03 0.  1.
    9900012    2    1    2    0    0 -0.20121260274E+02 -0.31561494798E+02 -0.25062329251E+02  0.46142318560E+02  0.10000007285E+02 0.  0.
         12    1    1    2    0    0  0.20121260274E+02  0.31561494798E+02  0.25062329251E+02  0.45045681440E+02  0.00000000000E+00 0. -1.
         11    1    3    3    0    0 -0.70806109884E+01 -0.82421944816E+01 -0.82877212277E+01  0.13665838622E+02  0.51100000000E-03 0. -1.
        -11    1    3    3    0    0 -0.10124170434E+02 -0.12017331619E+02 -0.12379652693E+02  0.20004271726E+02  0.51100000000E-03 0.  1.
        -12    1    3    3    0    0 -0.29164788516E+01 -0.11301968697E+02 -0.43949553305E+01  0.12472208212E+02  0.00000000000E+00 0.  1.
</event>
<event>
 7    1  0.2478637E-008  0.4614232E+02  0.7816164E-02  0.1320468E+00
        -11   -1    0    0    0    0  0.00000000000E+00  0.00000000000E+00  0.45593999997E+02  0.45594000000E+02  0.51100000000E-03 0.  1.
         11   -1    0    0    0    0 -0.00000000000E+00 -0.00000000000E+00 -0.45593999997E+02  0.45594000000E+02  0.51100000000E-03 0. -1.
    9900012    2    1    2    0    0 -0.11543418377E+02  0.20031368178E+02  0.38660150921E+02  0.46142317764E+02  0.10000000023E+02 0.  0.
         12    1    1    2    0    0  0.11543418377E+02 -0.20031368178E+02 -0.38660150921E+02  0.45045682236E+02  0.00000000000E+00 0. -1.
         11    1    3    3    0    0 -0.18099178881E+01  0.29049927875E+01  0.20470412856E+01  0.39881278995E+01  0.51100000000E-03 0. -1.
        -11    1    3    3    0    0  0.43339885591E+00  0.20592203271E+01  0.78667188479E+01  0.81433094388E+01  0.51100000000E-03 0.  1.
         12    1    3    3    0    0 -0.10166899345E+02  0.15067155064E+02  0.28746390787E+02  0.34010880425E+02  0.00000000000E+00 0. -1.
</event>
<event>
 7    1  0.2478637E-008  0.4614232E+02  0.7816164E-02  0.1320468E+00
        -11   -1    0    0    0    0  0.00000000000E+00  0.00000000000E+00  0.45593999997E+02  0.45594000000E+02  0.51100000000E-03 0.  1.
         11   -1    0    0    0    0 -0.00000000000E+00 -0.00000000000E+00 -0.45593999997E+02  0.45594000000E+02  0.51100000000E-03 0. -1.
    9900012    2    1    2    0    0 -0.12183874960E+02 -0.15375703935E+02  0.40549406152E+02  0.46142318522E+02  0.10000006942E+02 0.  0.
         12    1    1    2    0    0  0.12183874960E+02  0.15375703935E+02 -0.40549406152E+02  0.45045681478E+02  0.00000000000E+00 0. -1.
         11    1    3    3    0    0 -0.24650706040E+00 -0.18026972393E+01  0.10483882480E+02  0.10640595622E+02  0.51100000000E-03 0. -1.
        -11    1    3    3    0    0 -0.28581693008E+01 -0.59742958169E+01  0.14537855481E+02  0.15975311719E+02  0.51100000000E-03 0.  1.
         12    1    3    3    0    0 -0.90791985988E+01 -0.75987108783E+01  0.15527668191E+02  0.19526411182E+02  0.00000000000E+00 0. -1.
</event>
<event>
 7    1  0.2478637E-008  0.4614232E+02  0.7816164E-02  0.1320468E+00
        -11   -1    0    0    0    0  0.00000000000E+00  0.00000000000E+00  0.45593999997E+02  0.45594000000E+02  0.51100000000E-03 0. -1.
         11   -1    0    0    0    0 -0.00000000000E+00 -0.00000000000E+00 -0.45593999997E+02  0.45594000000E+02  0.51100000000E-03 0.  1.
    9900012    2    1    2    0    0  0.28835313853E+02 -0.34130235451E+02  0.57240911029E+01  0.46142317455E+02  0.99999972114E+01 0.  0.
         12    1    1    2    0    0 -0.28835313853E+02  0.34130235451E+02 -0.57240911029E+01  0.45045682545E+02  0.00000000000E+00 0. -1.
         11    1    3    3    0    0  0.69293190016E+01 -0.10041248818E+02  0.25867345651E+01  0.12471300478E+02  0.51100000000E-03 0. -1.
        -11    1    3    3    0    0  0.21256563867E+02 -0.24579994016E+02  0.24208434695E+01  0.32586471068E+02  0.51100000000E-03 0.  1.
         12    1    3    3    0    0  0.64943098412E+00  0.49100738252E+00  0.71651306829E+00  0.10845459095E+01  0.00000000000E+00 0. -1.
</event>
<event>
 7    1  0.2478637E-008  0.4614232E+02  0.7816164E-02  0.1320468E+00
        -11   -1    0    0    0    0  0.00000000000E+00  0.00000000000E+00  0.45593999997E+02  0.45594000000E+02  0.51100000000E-03 0.  1.
         11   -1    0    0    0    0 -0.00000000000E+00 -0.00000000000E+00 -0.45593999997E+02  0.45594000000E+02  0.51100000000E-03 0. -1.
    9900012    2    1    2    0    0 -0.22217533230E+02  0.18659074694E+02  0.34457706958E+02  0.46142318519E+02  0.10000006915E+02 0.  0.
         12    1    1    2    0    0  0.22217533230E+02 -0.18659074694E+02 -0.34457706958E+02  0.45045681481E+02  0.00000000000E+00 0. -1.
         11    1    3    3    0    0  0.20094024347E-01  0.96672572212E+00  0.14840882458E+01  0.17712934748E+01  0.51100000000E-03 0.  1.
        -11    1    3    3    0    0 -0.58400440269E+00  0.27635374370E+00  0.46404070071E+01  0.46851691524E+01  0.51100000000E-03 0. -1.
        -12    1    3    3    0    0 -0.21653622851E+02  0.17415995228E+02  0.28333211705E+02  0.39685855892E+02  0.00000000000E+00 0.  1.
</event>
<event>
 7    1  0.2478637E-008  0.4614232E+02  0.7816164E-02  0.1320468E+00
        -11   -1    0    0    0    0  0.00000000000E+00  0.00000000000E+00  0.45593999997E+02  0.45594000000E+02  0.51100000000E-03 0.  1.
         11   -1    0    0    0    0 -0.00000000000E+00 -0.00000000000E+00 -0.45593999997E+02  0.45594000000E+02  0.51100000000E-03 0. -1.
    9900012    2    1    2    0    0  0.22703569634E+02  0.44014621628E+01  0.38656029919E+02  0.46142316606E+02  0.99999894700E+01 0.  0.
         12    1    1    2    0    0 -0.22703569634E+02 -0.44014621628E+01 -0.38656029919E+02  0.45045683394E+02  0.00000000000E+00 0. -1.
         11    1    3    3    0    0  0.23871385917E+01 -0.10780904206E+01  0.80537825122E+01  0.84690095422E+01  0.51100000000E-03 0. -1.
        -11    1    3    3    0    0  0.16071094823E+02  0.35575598088E+01  0.27581683833E+02  0.32119863075E+02  0.51100000000E-03 0.  1.
         12    1    3    3    0    0  0.42453362194E+01  0.19219927746E+01  0.30205635735E+01  0.55534439894E+01  0.00000000000E+00 0. -1.
</event>
<event>
 7    1  0.2478637E-008  0.4614232E+02  0.7816164E-02  0.1320468E+00
        -11   -1    0    0    0    0  0.00000000000E+00  0.00000000000E+00  0.45593999997E+02  0.45594000000E+02  0.51100000000E-03 0.  1.
         11   -1    0    0    0    0 -0.00000000000E+00 -0.00000000000E+00 -0.45593999997E+02  0.45594000000E+02  0.51100000000E-03 0. -1.
    9900012    2    1    2    0    0  0.42251719708E+02 -0.89420130553E+01  0.12804141740E+02  0.46142318060E+02  0.10000002724E+02 0.  0.
         12    1    1    2    0    0 -0.42251719708E+02  0.89420130553E+01 -0.12804141740E+02  0.45045681940E+02  0.00000000000E+00 0. -1.
         11    1    3    3    0    0  0.15670576225E+02 -0.41009025555E+01  0.48780667951E+01  0.16916852453E+02  0.51100000000E-03 0. -1.
        -11    1    3    3    0    0  0.14273270301E+02  0.10768188121E+01  0.56090980131E+01  0.15373606104E+02  0.51100000000E-03 0.  1.
         12    1    3    3    0    0  0.12307873181E+02 -0.59179293118E+01  0.23169769319E+01  0.13851859503E+02  0.00000000000E+00 0. -1.
</event>
<event>
 7    1  0.2478637E-008  0.4614232E+02  0.7816164E-02  0.1320468E+00
        -11   -1    0    0    0    0  0.00000000000E+00  0.00000000000E+00  0.45593999997E+02  0.45594000000E+02  0.51100000000E-03 0. -1.
         11   -1    0    0    0    0 -0.00000000000E+00 -0.00000000000E+00 -0.45593999997E+02  0.45594000000E+02  0.51100000000E-03 0.  1.
    9900012    2    1    2    0    0 -0.39382644777E+01 -0.31143887862E+02 -0.32305754789E+02  0.46142317957E+02  0.10000001782E+02 0.  0.
         12    1    1    2    0    0  0.39382644777E+01  0.31143887862E+02  0.32305754789E+02  0.45045682043E+02  0.00000000000E+00 0. -1.
         11    1    3    3    0    0 -0.12726731033E+00 -0.16242499916E+02 -0.15835638064E+02  0.22684850312E+02  0.51100000000E-03 0. -1.
        -11    1    3    3    0    0 -0.12430216336E+01 -0.89809370168E-01 -0.12784612099E+00  0.12528022176E+01  0.51100000000E-03 0.  1.
        -12    1    3    3    0    0 -0.25679755338E+01 -0.14811578576E+02 -0.16342270604E+02  0.22204665427E+02  0.00000000000E+00 0.  1.
</event>
<event>
 7    1  0.2908981E-008  0.4614232E+02  0.7816164E-02  0.1320468E+00
        -11   -1    0    0    0    0  0.00000000000E+00  0.00000000000E+00  0.45593999997E+02  0.45594000000E+02  0.51100000000E-03 0. -1.
         11   -1    0    0    0    0 -0.00000000000E+00 -0.00000000000E+00 -0.45593999997E+02  0.45594000000E+02  0.51100000000E-03 0.  1.
    9900012    2    1    2    0    0  0.40160937512E+02 -0.15937613376E+02 -0.12735977348E+02  0.46142317178E+02  0.99999946789E+01 0.  0.
         12    1    1    2    0    0 -0.40160937512E+02  0.15937613376E+02  0.12735977348E+02  0.45045682822E+02  0.00000000000E+00 0. -1.
         11    1    3    3    0    0  0.17471949111E+01  0.85787809139E+00 -0.67410261077E+00  0.20598687987E+01  0.51100000000E-03 0. -1.
        -11    1    3    3    0    0  0.80496346284E+01 -0.49414251654E+01 -0.51632413823E+01  0.10764448994E+02  0.51100000000E-03 0.  1.
        -12    1    3    3    0    0  0.30364107972E+02 -0.11854066302E+02 -0.68986333554E+01  0.33317999385E+02  0.00000000000E+00 0.  1.
</event>
<event>
 7    1  0.2478637E-008  0.4614232E+02  0.7816164E-02  0.1320468E+00
        -11   -1    0    0    0    0  0.00000000000E+00  0.00000000000E+00  0.45593999997E+02  0.45594000000E+02  0.51100000000E-03 0. -1.
         11   -1    0    0    0    0 -0.00000000000E+00 -0.00000000000E+00 -0.45593999997E+02  0.45594000000E+02  0.51100000000E-03 0.  1.
    9900012    2    1    2    0    0 -0.44922768293E+02  0.12669222586E+01  0.30746139833E+01  0.46142318139E+02  0.10000003449E+02 0.  0.
         12    1    1    2    0    0  0.44922768293E+02 -0.12669222586E+01 -0.30746139833E+01  0.45045681861E+02  0.00000000000E+00 0. -1.
         11    1    3    3    0    0 -0.79290085136E+01  0.27359832928E+01  0.10234413890E+01  0.84499830251E+01  0.51100000000E-03 0. -1.
        -11    1    3    3    0    0 -0.18526386098E+02 -0.39057147377E+01  0.22265479358E+01  0.19064078930E+02  0.51100000000E-03 0.  1.
        -12    1    3    3    0    0 -0.18467373682E+02  0.24366537034E+01 -0.17537534155E+00  0.18628256184E+02  0.00000000000E+00 0.  1.
</event>
<event>
 7    1  0.2478637E-008  0.4614232E+02  0.7816164E-02  0.1320468E+00
        -11   -1    0    0    0    0  0.00000000000E+00  0.00000000000E+00  0.45593999997E+02  0.45594000000E+02  0.51100000000E-03 0.  1.
         11   -1    0    0    0    0 -0.00000000000E+00 -0.00000000000E+00 -0.45593999997E+02  0.45594000000E+02  0.51100000000E-03 0. -1.
    9900012    2    1    2    0    0 -0.16774130953E+02  0.94611487096E+01  0.40721349833E+02  0.46142321668E+02  0.10000035626E+02 0.  0.
         12    1    1    2    0    0  0.16774130953E+02 -0.94611487096E+01 -0.40721349833E+02  0.45045678332E+02  0.00000000000E+00 0. -1.
         11    1    3    3    0    0 -0.14524518152E+01  0.15261352510E+01  0.50594687461E+01  0.54805957097E+01  0.51100000000E-03 0. -1.
        -11    1    3    3    0    0 -0.31642337728E+01  0.45545717854E+01  0.18800476695E+02  0.19601388312E+02  0.51100000000E-03 0.  1.
        -12    1    3    3    0    0 -0.12157445365E+02  0.33804416732E+01  0.16861404392E+02  0.21060337647E+02  0.00000000000E+00 0.  1.
</event>
<event>
 7    1  0.2478637E-008  0.4614232E+02  0.7816164E-02  0.1320468E+00
        -11   -1    0    0    0    0  0.00000000000E+00  0.00000000000E+00  0.45593999997E+02  0.45594000000E+02  0.51100000000E-03 0. -1.
         11   -1    0    0    0    0 -0.00000000000E+00 -0.00000000000E+00 -0.45593999997E+02  0.45594000000E+02  0.51100000000E-03 0.  1.
    9900012    2    1    2    0    0 -0.24337115618E+02  0.32057728115E+02 -0.20226724548E+02  0.46142317472E+02  0.99999973623E+01 0.  0.
         12    1    1    2    0    0  0.24337115618E+02 -0.32057728115E+02  0.20226724548E+02  0.45045682528E+02  0.00000000000E+00 0. -1.
         11    1    3    3    0    0 -0.10987692896E+02  0.85845698066E+01 -0.58750279739E+01  0.15130769574E+02  0.51100000000E-03 0. -1.
        -11    1    3    3    0    0 -0.11176884810E+02  0.15473141771E+02 -0.11276278609E+02  0.22169693951E+02  0.51100000000E-03 0.  1.
         12    1    3    3    0    0 -0.21725379121E+01  0.80000165369E+01 -0.30754179651E+01  0.88418539476E+01  0.00000000000E+00 0. -1.
</event>
<event>
 7    1  0.2478637E-008  0.4614231E+02  0.7816164E-02  0.1320468E+00
        -11   -1    0    0    0    0  0.00000000000E+00  0.00000000000E+00  0.45593999997E+02  0.45594000000E+02  0.51100000000E-03 0.  1.
         11   -1    0    0    0    0 -0.00000000000E+00 -0.00000000000E+00 -0.45593999997E+02  0.45594000000E+02  0.51100000000E-03 0. -1.
    9900012    2    1    2    0    0 -0.21112773262E+02 -0.10541866463E+01  0.39777547008E+02  0.46142314854E+02  0.99999734926E+01 0.  0.
         12    1    1    2    0    0  0.21112773262E+02  0.10541866463E+01 -0.39777547008E+02  0.45045685146E+02  0.00000000000E+00 0. -1.
         11    1    3    3    0    0  0.51825692232E+00  0.11358936349E+01  0.15796016989E+01  0.20134513592E+01  0.51100000000E-03 0. -1.
        -11    1    3    3    0    0 -0.25036416900E+01  0.30616642663E+00  0.24926972653E+01  0.35461950751E+01  0.51100000000E-03 0.  1.
        -12    1    3    3    0    0 -0.19127388494E+02 -0.24962467078E+01  0.35705248044E+02  0.40582668420E+02  0.00000000000E+00 0.  1.
</event>
<event>
 7    1  0.2478637E-008  0.4614232E+02  0.7816164E-02  0.1320468E+00
        -11   -1    0    0    0    0  0.00000000000E+00  0.00000000000E+00  0.45593999997E+02  0.45594000000E+02  0.51100000000E-03 0.  1.
         11   -1    0    0    0    0 -0.00000000000E+00 -0.00000000000E+00 -0.45593999997E+02  0.45594000000E+02  0.51100000000E-03 0. -1.
    9900012    2    1    2    0    0 -0.38462525629E+02 -0.14244290845E+02  0.18623853296E+02  0.46142316399E+02  0.99999875830E+01 0.  0.
         12    1    1    2    0    0  0.38462525629E+02  0.14244290845E+02 -0.18623853296E+02  0.45045683601E+02  0.00000000000E+00 0. -1.
         11    1    3    3    0    0 -0.21361377220E+01  0.88509765440E+00 -0.28603174267E+00  0.23298705209E+01  0.51100000000E-03 0. -1.
        -11    1    3    3    0    0 -0.55231819938E+01 -0.13711624123E+01  0.16947881234E+01  0.59378390633E+01  0.51100000000E-03 0.  1.
         12    1    3    3    0    0 -0.30803205913E+02 -0.13758226087E+02  0.17215096915E+02  0.37874606815E+02  0.00000000000E+00 0. -1.
</event>
<event>
 7    1  0.2478637E-008  0.4614232E+02  0.7816164E-02  0.1320468E+00
        -11   -1    0    0    0    0  0.00000000000E+00  0.00000000000E+00  0.45593999997E+02  0.45594000000E+02  0.51100000000E-03 0.  1.
         11   -1    0    0    0    0 -0.00000000000E+00 -0.00000000000E+00 -0.45593999997E+02  0.45594000000E+02  0.51100000000E-03 0. -1.
    9900012    2    1    2    0    0  0.40863750234E+02  0.15635892786E+02  0.10713836657E+02  0.46142317384E+02  0.99999965634E+01 0.  0.
         12    1    1    2    0    0 -0.40863750234E+02 -0.15635892786E+02 -0.10713836657E+02  0.45045682616E+02  0.00000000000E+00 0. -1.
         11    1    3    3    0    0  0.15818251958E+01 -0.27054837439E+00  0.14648185465E+01  0.21728002688E+01  0.51100000000E-03 0. -1.
        -11    1    3    3    0    0  0.27636910803E+02  0.14483107255E+02  0.57513870345E+01  0.31727554075E+02  0.51100000000E-03 0.  1.
        -12    1    3    3    0    0  0.11645014235E+02  0.14233339057E+01  0.34976310758E+01  0.12241963040E+02  0.00000000000E+00 0.  1.
</event>
<event>
 7    1  0.2478637E-008  0.4614232E+02  0.7816164E-02  0.1320468E+00
        -11   -1    0    0    0    0  0.00000000000E+00  0.00000000000E+00  0.45593999997E+02  0.45594000000E+02  0.51100000000E-03 0. -1.
         11   -1    0    0    0    0 -0.00000000000E+00 -0.00000000000E+00 -0.45593999997E+02  0.45594000000E+02  0.51100000000E-03 0.  1.
    9900012    2    1    2    0    0 -0.16042406650E+02 -0.51235902313E+01 -0.41779223221E+02  0.46142317843E+02  0.10000000749E+02 0.  0.
         12    1    1    2    0    0  0.16042406650E+02  0.51235902313E+01  0.41779223221E+02  0.45045682157E+02  0.00000000000E+00 0. -1.
         11    1    3    3    0    0 -0.17094047102E+01 -0.12549091271E+01 -0.53687237947E+00  0.21874856784E+01  0.51100000000E-03 0. -1.
        -11    1    3    3    0    0 -0.79141290133E+01 -0.35359812566E+01 -0.21074331355E+02  0.22787365881E+02  0.51100000000E-03 0.  1.
         12    1    3    3    0    0 -0.64188729268E+01 -0.33269984761E+00 -0.20168019487E+02  0.21167466283E+02  0.00000000000E+00 0. -1.
</event>
<event>
 7    1  0.2478637E-008  0.4614232E+02  0.7816164E-02  0.1320468E+00
        -11   -1    0    0    0    0  0.00000000000E+00  0.00000000000E+00  0.45593999997E+02  0.45594000000E+02  0.51100000000E-03 0.  1.
         11   -1    0    0    0    0 -0.00000000000E+00 -0.00000000000E+00 -0.45593999997E+02  0.45594000000E+02  0.51100000000E-03 0. -1.
    9900012    2    1    2    0    0  0.15362143055E+02 -0.60750779570E+01  0.41907176401E+02  0.46142318239E+02  0.10000004357E+02 0.  0.
         12    1    1    2    0    0 -0.15362143055E+02  0.60750779570E+01 -0.41907176401E+02  0.45045681761E+02  0.00000000000E+00 0. -1.
         11    1    3    3    0    0  0.55313564735E+00 -0.29635886145E+01  0.70540814515E+01  0.76713024908E+01  0.51100000000E-03 0. -1.
        -11    1    3    3    0    0  0.65043282013E+01 -0.33441844568E+01  0.21839721416E+02  0.23031788616E+02  0.51100000000E-03 0.  1.
        -12    1    3    3    0    0  0.83046792061E+01  0.23269511429E+00  0.13013373533E+02  0.15439227132E+02  0.00000000000E+00 0.  1.
</event>
<event>
 7    1  0.2478637E-008  0.4614232E+02  0.7816164E-02  0.1320468E+00
        -11   -1    0    0    0    0  0.00000000000E+00  0.00000000000E+00  0.45593999997E+02  0.45594000000E+02  0.51100000000E-03 0. -1.
         11   -1    0    0    0    0 -0.00000000000E+00 -0.00000000000E+00 -0.45593999997E+02  0.45594000000E+02  0.51100000000E-03 0.  1.
    9900012    2    1    2    0    0  0.76710222855E+01 -0.44387225668E+02 -0.20778472991E+00  0.46142316967E+02  0.99999927566E+01 0.  0.
         12    1    1    2    0    0 -0.76710222855E+01  0.44387225668E+02  0.20778472991E+00  0.45045683033E+02  0.00000000000E+00 0. -1.
         11    1    3    3    0    0  0.30838173632E+01 -0.38315965416E+01  0.58728648421E+00  0.49533793780E+01  0.51100000000E-03 0. -1.
        -11    1    3    3    0    0  0.13274822315E+00  0.16133504771E+00  0.68692104153E-01  0.21993170455E+00  0.51100000000E-03 0.  1.
        -12    1    3    3    0    0  0.44544566992E+01 -0.40716964174E+02 -0.86376331827E+00  0.40969005884E+02  0.00000000000E+00 0.  1.
</event>
<event>
 7    1  0.2478637E-008  0.4614232E+02  0.7816164E-02  0.1320468E+00
        -11   -1    0    0    0    0  0.00000000000E+00  0.00000000000E+00  0.45593999997E+02  0.45594000000E+02  0.51100000000E-03 0.  1.
         11   -1    0    0    0    0 -0.00000000000E+00 -0.00000000000E+00 -0.45593999997E+02  0.45594000000E+02  0.51100000000E-03 0. -1.
    9900012    2    1    2    0    0 -0.17939127039E+02 -0.90938141099E+01  0.40306371252E+02  0.46142319880E+02  0.10000019321E+02 0.  0.
         12    1    1    2    0    0  0.17939127039E+02  0.90938141099E+01 -0.40306371252E+02  0.45045680120E+02  0.00000000000E+00 0. -1.
         11    1    3    3    0    0 -0.46971642168E+01 -0.69062750692E+01  0.10931618074E+02  0.13757189429E+02  0.51100000000E-03 0. -1.
        -11    1    3    3    0    0 -0.10747120481E+02 -0.24753933502E+01  0.22304659300E+02  0.24882242616E+02  0.51100000000E-03 0.  1.
         12    1    3    3    0    0 -0.24948423406E+01  0.28785430959E+00  0.70700938787E+01  0.75028878348E+01  0.00000000000E+00 0. -1.
</event>
<event>
 7    1  0.2478637E-008  0.4614232E+02  0.7816164E-02  0.1320468E+00
        -11   -1    0    0    0    0  0.00000000000E+00  0.00000000000E+00  0.45593999997E+02  0.45594000000E+02  0.51100000000E-03 0.  1.
         11   -1    0    0    0    0 -0.00000000000E+00 -0.00000000000E+00 -0.45593999997E+02  0.45594000000E+02  0.51100000000E-03 0. -1.
    9900012    2    1    2    0    0 -0.57799671300E+01  0.58166838371E+01  0.44293019661E+02  0.46142318502E+02  0.10000006759E+02 0.  0.
         12    1    1    2    0    0  0.57799671300E+01 -0.58166838371E+01 -0.44293019661E+02  0.45045681498E+02  0.00000000000E+00 0. -1.
         11    1    3    3    0    0  0.12750377829E+01  0.91325088851E+00  0.57591024021E+01  0.59688365091E+01  0.51100000000E-03 0. -1.
        -11    1    3    3    0    0 -0.64794520390E+01  0.65579496552E+01  0.35425778705E+02  0.36605679881E+02  0.51100000000E-03 0.  1.
        -12    1    3    3    0    0 -0.57555287382E+00 -0.16545167066E+01  0.31081385536E+01  0.35678021121E+01  0.00000000000E+00 0.  1.
</event>
<event>
 7    1  0.2478637E-008  0.4614232E+02  0.7816164E-02  0.1320468E+00
        -11   -1    0    0    0    0  0.00000000000E+00  0.00000000000E+00  0.45593999997E+02  0.45594000000E+02  0.51100000000E-03 0.  1.
         11   -1    0    0    0    0 -0.00000000000E+00 -0.00000000000E+00 -0.45593999997E+02  0.45594000000E+02  0.51100000000E-03 0. -1.
    9900012    2    1    2    0    0 -0.22991545877E+02  0.13077594947E+02  0.36462019461E+02  0.46142317248E+02  0.99999953256E+01 0.  0.
         12    1    1    2    0    0  0.22991545877E+02 -0.13077594947E+02 -0.36462019461E+02  0.45045682752E+02  0.00000000000E+00 0. -1.
         11    1    3    3    0    0 -0.99685845167E+01  0.88852937944E+01  0.12253749134E+02  0.18123892826E+02  0.51100000000E-03 0. -1.
        -11    1    3    3    0    0 -0.40275406030E+01  0.68196401858E+00  0.45368496751E+01  0.61048475384E+01  0.51100000000E-03 0.  1.
         12    1    3    3    0    0 -0.89954207568E+01  0.35103371343E+01  0.19671420652E+02  0.21913576884E+02  0.00000000000E+00 0. -1.
</event>
<event>
 7    1  0.2478637E-008  0.4614232E+02  0.7816164E-02  0.1320468E+00
        -11   -1    0    0    0    0  0.00000000000E+00  0.00000000000E+00  0.45593999997E+02  0.45594000000E+02  0.51100000000E-03 0. -1.
         11   -1    0    0    0    0 -0.00000000000E+00 -0.00000000000E+00 -0.45593999997E+02  0.45594000000E+02  0.51100000000E-03 0.  1.
    9900012    2    1    2    0    0  0.39447292625E+02  0.20976899487E+01 -0.21647732891E+02  0.46142317211E+02  0.99999949878E+01 0.  0.
         12    1    1    2    0    0 -0.39447292625E+02 -0.20976899487E+01  0.21647732891E+02  0.45045682789E+02  0.00000000000E+00 0. -1.
         11    1    3    3    0    0  0.15556440969E+02 -0.18609288096E+01 -0.86034709492E+01  0.17874160799E+02  0.51100000000E-03 0. -1.
        -11    1    3    3    0    0  0.15746011025E+02  0.40169603515E+01 -0.54717856360E+01  0.17146815214E+02  0.51100000000E-03 0.  1.
        -12    1    3    3    0    0  0.81448406316E+01 -0.58341593180E-01 -0.75724763056E+01  0.11121341199E+02  0.00000000000E+00 0.  1.
</event>
<event>
 7    1  0.2478637E-008  0.4614232E+02  0.7816164E-02  0.1320468E+00
        -11   -1    0    0    0    0  0.00000000000E+00  0.00000000000E+00  0.45593999997E+02  0.45594000000E+02  0.51100000000E-03 0.  1.
         11   -1    0    0    0    0 -0.00000000000E+00 -0.00000000000E+00 -0.45593999997E+02  0.45594000000E+02  0.51100000000E-03 0. -1.
    9900012    2    1    2    0    0  0.15960269048E+01 -0.98820033707E+01  0.43919382175E+02  0.46142318485E+02  0.10000006604E+02 0.  0.
         12    1    1    2    0    0 -0.15960269048E+01  0.98820033707E+01 -0.43919382175E+02  0.45045681515E+02  0.00000000000E+00 0. -1.
         11    1    3    3    0    0  0.16503950190E+01 -0.21454006108E+01  0.42809545375E+01  0.50648908688E+01  0.51100000000E-03 0. -1.
        -11    1    3    3    0    0 -0.32167666322E+01 -0.25587902709E+01  0.97770706699E+01  0.10605946745E+02  0.51100000000E-03 0.  1.
        -12    1    3    3    0    0  0.31623985180E+01 -0.51778124890E+01  0.29861356967E+02  0.30471480871E+02  0.00000000000E+00 0.  1.
</event>
<event>
 7    1  0.2478637E-008  0.4614232E+02  0.7816164E-02  0.1320468E+00
        -11   -1    0    0    0    0  0.00000000000E+00  0.00000000000E+00  0.45593999997E+02  0.45594000000E+02  0.51100000000E-03 0. -1.
         11   -1    0    0    0    0 -0.00000000000E+00 -0.00000000000E+00 -0.45593999997E+02  0.45594000000E+02  0.51100000000E-03 0.  1.
    9900012    2    1    2    0    0  0.23579256941E+02  0.23748461272E+02 -0.30151993181E+02  0.46142318038E+02  0.10000002523E+02 0.  0.
         12    1    1    2    0    0 -0.23579256941E+02 -0.23748461272E+02  0.30151993181E+02  0.45045681962E+02  0.00000000000E+00 0. -1.
         11    1    3    3    0    0  0.30021386856E+01  0.31006656282E+01 -0.24493032612E+01  0.49624641815E+01  0.51100000000E-03 0. -1.
        -11    1    3    3    0    0  0.15084123280E+01  0.48060612343E+01 -0.82584008943E+01  0.96734026036E+01  0.51100000000E-03 0.  1.
        -12    1    3    3    0    0  0.19068705927E+02  0.15841734409E+02 -0.19444289026E+02  0.31506451253E+02  0.00000000000E+00 0.  1.
</event>
<event>
 7    1  0.2478637E-008  0.4614232E+02  0.7816164E-02  0.1320468E+00
        -11   -1    0    0    0    0  0.00000000000E+00  0.00000000000E+00  0.45593999997E+02  0.45594000000E+02  0.51100000000E-03 0.  1.
         11   -1    0    0    0    0 -0.00000000000E+00 -0.00000000000E+00 -0.45593999997E+02  0.45594000000E+02  0.51100000000E-03 0. -1.
    9900012    2    1    2    0    0 -0.20631862627E+01 -0.43566893285E+02 -0.11259770780E+02  0.46142319118E+02  0.10000012375E+02 0.  0.
         12    1    1    2    0    0  0.20631862627E+01  0.43566893285E+02  0.11259770780E+02  0.45045680882E+02  0.00000000000E+00 0. -1.
         11    1    3    3    0    0 -0.73363286253E+00 -0.30156638416E+01  0.13322531535E+01  0.33774760263E+01  0.51100000000E-03 0. -1.
        -11    1    3    3    0    0 -0.17314789552E+01 -0.10064967570E+02 -0.15073465568E+01  0.10323453175E+02  0.51100000000E-03 0.  1.
         12    1    3    3    0    0  0.40192555508E+00 -0.30486261874E+02 -0.11084677376E+02  0.32441389917E+02  0.00000000000E+00 0. -1.
</event>
<event>
 7    1  0.2478637E-008  0.4614232E+02  0.7816164E-02  0.1320468E+00
        -11   -1    0    0    0    0  0.00000000000E+00  0.00000000000E+00  0.45593999997E+02  0.45594000000E+02  0.51100000000E-03 0. -1.
         11   -1    0    0    0    0 -0.00000000000E+00 -0.00000000000E+00 -0.45593999997E+02  0.45594000000E+02  0.51100000000E-03 0.  1.
    9900012    2    1    2    0    0  0.21469926157E+01  0.26172209060E+02 -0.36599448196E+02  0.46142315272E+02  0.99999773034E+01 0.  0.
         12    1    1    2    0    0 -0.21469926157E+01 -0.26172209060E+02  0.36599448196E+02  0.45045684728E+02  0.00000000000E+00 0. -1.
         11    1    3    3    0    0  0.19049592547E+01  0.28349172721E+01 -0.73157497373E+01  0.80737736023E+01  0.51100000000E-03 0. -1.
        -11    1    3    3    0    0 -0.24557282984E+01  0.14576961792E+02 -0.21212882306E+02  0.25855459627E+02  0.51100000000E-03 0.  1.
         12    1    3    3    0    0  0.26977616594E+01  0.87603299955E+01 -0.80708161529E+01  0.12213082042E+02  0.00000000000E+00 0. -1.
</event>
<event>
 7    1  0.2478637E-008  0.4614232E+02  0.7816164E-02  0.1320468E+00
        -11   -1    0    0    0    0  0.00000000000E+00  0.00000000000E+00  0.45593999997E+02  0.45594000000E+02  0.51100000000E-03 0.  1.
         11   -1    0    0    0    0 -0.00000000000E+00 -0.00000000000E+00 -0.45593999997E+02  0.45594000000E+02  0.51100000000E-03 0. -1.
    9900012    2    1    2    0    0  0.11428814525E+02 -0.10689514417E+02  0.42240146455E+02  0.46142317716E+02  0.99999995877E+01 0.  0.
         12    1    1    2    0    0 -0.11428814525E+02  0.10689514417E+02 -0.42240146455E+02  0.45045682284E+02  0.00000000000E+00 0. -1.
         11    1    3    3    0    0  0.41169325940E+01 -0.65545794265E+01  0.23419839874E+02  0.24665776806E+02  0.51100000000E-03 0. -1.
        -11    1    3    3    0    0  0.67508296074E+01 -0.18707579741E+01  0.91211127814E+01  0.11500788426E+02  0.51100000000E-03 0.  1.
        -12    1    3    3    0    0  0.56105232398E+00 -0.22641770167E+01  0.96991937992E+01  0.99757524843E+01  0.00000000000E+00 0.  1.
</event>
<event>
 7    1  0.2478637E-008  0.4614232E+02  0.7816164E-02  0.1320468E+00
        -11   -1    0    0    0    0  0.00000000000E+00  0.00000000000E+00  0.45593999997E+02  0.45594000000E+02  0.51100000000E-03 0.  1.
         11   -1    0    0    0    0 -0.00000000000E+00 -0.00000000000E+00 -0.45593999997E+02  0.45594000000E+02  0.51100000000E-03 0. -1.
    9900012    2    1    2    0    0  0.17348326620E+02 -0.15487767966E+02  0.38578206196E+02  0.46142318893E+02  0.10000010320E+02 0.  0.
         12    1    1    2    0    0 -0.17348326620E+02  0.15487767966E+02 -0.38578206196E+02  0.45045681107E+02  0.00000000000E+00 0. -1.
         11    1    3    3    0    0  0.34464366877E+01 -0.75486777310E+01  0.77732096897E+01  0.11370279261E+02  0.51100000000E-03 0. -1.
        -11    1    3    3    0    0  0.52069803858E+01 -0.19198519608E+01  0.10987768169E+02  0.12309732973E+02  0.51100000000E-03 0.  1.
         12    1    3    3    0    0  0.86949095465E+01 -0.60192382739E+01  0.19817228338E+02  0.22462306659E+02  0.00000000000E+00 0. -1.
</event>
<event>
 7    1  0.2478637E-008  0.4614232E+02  0.7816164E-02  0.1320468E+00
        -11   -1    0    0    0    0  0.00000000000E+00  0.00000000000E+00  0.45593999997E+02  0.45594000000E+02  0.51100000000E-03 0. -1.
         11   -1    0    0    0    0 -0.00000000000E+00 -0.00000000000E+00 -0.45593999997E+02  0.45594000000E+02  0.51100000000E-03 0.  1.
    9900012    2    1    2    0    0  0.37764323683E+02  0.17542760119E+02 -0.17181995701E+02  0.46142317054E+02  0.99999935505E+01 0.  0.
         12    1    1    2    0    0 -0.37764323683E+02 -0.17542760119E+02  0.17181995701E+02  0.45045682946E+02  0.00000000000E+00 0. -1.
         11    1    3    3    0    0  0.29850783328E+01  0.45499732553E+01 -0.10385585945E+01  0.55399958026E+01  0.51100000000E-03 0. -1.
        -11    1    3    3    0    0  0.21836000748E+01  0.14612572839E+01 -0.17127146283E+01  0.31363631479E+01  0.51100000000E-03 0.  1.
         12    1    3    3    0    0  0.32595645275E+02  0.11531529580E+02 -0.14430722478E+02  0.37465958103E+02  0.00000000000E+00 0. -1.
</event>
<event>
 7    1  0.2478637E-008  0.4614232E+02  0.7816164E-02  0.1320468E+00
        -11   -1    0    0    0    0  0.00000000000E+00  0.00000000000E+00  0.45593999997E+02  0.45594000000E+02  0.51100000000E-03 0.  1.
         11   -1    0    0    0    0 -0.00000000000E+00 -0.00000000000E+00 -0.45593999997E+02  0.45594000000E+02  0.51100000000E-03 0. -1.
    9900012    2    1    2    0    0  0.68969531349E+01 -0.24060493599E+02  0.37451811090E+02  0.46142317980E+02  0.10000001995E+02 0.  0.
         12    1    1    2    0    0 -0.68969531349E+01  0.24060493599E+02 -0.37451811090E+02  0.45045682020E+02  0.00000000000E+00 0. -1.
         11    1    3    3    0    0  0.20312763009E+01 -0.57164068461E+01  0.10659243368E+02  0.12264699755E+02  0.51100000000E-03 0.  1.
        -11    1    3    3    0    0  0.37008617395E+01 -0.47889861132E+01  0.13784010230E+02  0.15054225450E+02  0.51100000000E-03 0. -1.
         12    1    3    3    0    0  0.11648150945E+01 -0.13555100639E+02  0.13008557491E+02  0.18823392775E+02  0.00000000000E+00 0. -1.
</event>
<event>
 7    1  0.2478637E-008  0.4614232E+02  0.7816164E-02  0.1320468E+00
        -11   -1    0    0    0    0  0.00000000000E+00  0.00000000000E+00  0.45593999997E+02  0.45594000000E+02  0.51100000000E-03 0.  1.
         11   -1    0    0    0    0 -0.00000000000E+00 -0.00000000000E+00 -0.45593999997E+02  0.45594000000E+02  0.51100000000E-03 0. -1.
    9900012    2    1    2    0    0  0.29011130647E+02 -0.92720819858E+01  0.33188793412E+02  0.46142320808E+02  0.10000027781E+02 0.  0.
         12    1    1    2    0    0 -0.29011130647E+02  0.92720819858E+01 -0.33188793412E+02  0.45045679192E+02  0.00000000000E+00 0. -1.
         11    1    3    3    0    0  0.16311117893E+02 -0.71979795816E+01  0.14854965362E+02  0.23206323991E+02  0.51100000000E-03 0. -1.
        -11    1    3    3    0    0  0.71918872789E+00  0.46168370516E+00 -0.39426129168E-01  0.85553430715E+00  0.51100000000E-03 0.  1.
        -12    1    3    3    0    0  0.11980824025E+02 -0.25357861093E+01  0.18373254179E+02  0.22080462510E+02  0.00000000000E+00 0.  1.
</event>
<event>
 7    1  0.2478637E-008  0.4614232E+02  0.7816164E-02  0.1320468E+00
        -11   -1    0    0    0    0  0.00000000000E+00  0.00000000000E+00  0.45593999997E+02  0.45594000000E+02  0.51100000000E-03 0. -1.
         11   -1    0    0    0    0 -0.00000000000E+00 -0.00000000000E+00 -0.45593999997E+02  0.45594000000E+02  0.51100000000E-03 0.  1.
    9900012    2    1    2    0    0  0.16658795919E+02  0.24191882110E+02 -0.34151880090E+02  0.46142317019E+02  0.99999932337E+01 0.  0.
         12    1    1    2    0    0 -0.16658795919E+02 -0.24191882110E+02  0.34151880090E+02  0.45045682981E+02  0.00000000000E+00 0. -1.
         11    1    3    3    0    0  0.73181119027E+01  0.15149486335E+02 -0.17230405189E+02  0.24082121196E+02  0.51100000000E-03 0. -1.
        -11    1    3    3    0    0  0.22027964436E+01  0.49312504863E+01 -0.97161967554E+01  0.11116385347E+02  0.51100000000E-03 0.  1.
         12    1    3    3    0    0  0.71378875727E+01  0.41111452887E+01 -0.72052781462E+01  0.10943810477E+02  0.00000000000E+00 0. -1.
</event>
<event>
 7    1  0.2478637E-008  0.4614232E+02  0.7816164E-02  0.1320468E+00
        -11   -1    0    0    0    0  0.00000000000E+00  0.00000000000E+00  0.45593999997E+02  0.45594000000E+02  0.51100000000E-03 0. -1.
         11   -1    0    0    0    0 -0.00000000000E+00 -0.00000000000E+00 -0.45593999997E+02  0.45594000000E+02  0.51100000000E-03 0.  1.
    9900012    2    1    2    0    0 -0.31023290137E+01  0.30345545271E+02 -0.33145691722E+02  0.46142318266E+02  0.10000004609E+02 0.  0.
         12    1    1    2    0    0  0.31023290137E+01 -0.30345545271E+02  0.33145691722E+02  0.45045681734E+02  0.00000000000E+00 0. -1.
         11    1    3    3    0    0 -0.24025496173E+00  0.88208802502E+01 -0.59812109437E+01  0.10660231491E+02  0.51100000000E-03 0. -1.
        -11    1    3    3    0    0 -0.19443215160E+01  0.18630920905E+02 -0.18610359342E+02  0.26405247111E+02  0.51100000000E-03 0.  1.
         12    1    3    3    0    0 -0.91775253595E+00  0.28937441155E+01 -0.85541214370E+01  0.90768396638E+01  0.00000000000E+00 0. -1.
</event>
<event>
 7    1  0.2478637E-008  0.4614232E+02  0.7816164E-02  0.1320468E+00
        -11   -1    0    0    0    0  0.00000000000E+00  0.00000000000E+00  0.45593999997E+02  0.45594000000E+02  0.51100000000E-03 0.  1.
         11   -1    0    0    0    0 -0.00000000000E+00 -0.00000000000E+00 -0.45593999997E+02  0.45594000000E+02  0.51100000000E-03 0. -1.
    9900012    2    1    2    0    0  0.17451552010E+02 -0.41271888326E+02  0.46030493558E+01  0.46142317667E+02  0.99999991387E+01 0.  0.
         12    1    1    2    0    0 -0.17451552010E+02  0.41271888326E+02 -0.46030493558E+01  0.45045682333E+02  0.00000000000E+00 0. -1.
         11    1    3    3    0    0  0.18217359566E+01 -0.11645002505E+02 -0.85389868801E+00  0.11817527172E+02  0.51100000000E-03 0. -1.
        -11    1    3    3    0    0  0.71269082618E+01 -0.17503013657E+02  0.12950601889E+01  0.18942689609E+02  0.51100000000E-03 0.  1.
         12    1    3    3    0    0  0.85029077912E+01 -0.12123872163E+02  0.41618878549E+01  0.15382100885E+02  0.00000000000E+00 0. -1.
</event>
<event>
 7    1  0.2478637E-008  0.4614232E+02  0.7816164E-02  0.1320468E+00
        -11   -1    0    0    0    0  0.00000000000E+00  0.00000000000E+00  0.45593999997E+02  0.45594000000E+02  0.51100000000E-03 0. -1.
         11   -1    0    0    0    0 -0.00000000000E+00 -0.00000000000E+00 -0.45593999997E+02  0.45594000000E+02  0.51100000000E-03 0.  1.
    9900012    2    1    2    0    0  0.30910375925E+02  0.59802645954E+01 -0.32216434010E+02  0.46142317357E+02  0.99999963151E+01 0.  0.
         12    1    1    2    0    0 -0.30910375925E+02 -0.59802645954E+01  0.32216434010E+02  0.45045682643E+02  0.00000000000E+00 0. -1.
         11    1    3    3    0    0  0.10042807678E+02  0.15031780726E+01 -0.14513349184E+02  0.17713126070E+02  0.51100000000E-03 0. -1.
        -11    1    3    3    0    0  0.79323453466E+01 -0.83807417954E-01 -0.97680609601E+01  0.12583486860E+02  0.51100000000E-03 0.  1.
         12    1    3    3    0    0  0.12935222901E+02  0.45608939407E+01 -0.79350238652E+01  0.15845704426E+02  0.00000000000E+00 0. -1.
</event>
<event>
 7    1  0.2478637E-008  0.4614232E+02  0.7816164E-02  0.1320468E+00
        -11   -1    0    0    0    0  0.00000000000E+00  0.00000000000E+00  0.45593999997E+02  0.45594000000E+02  0.51100000000E-03 0.  1.
         11   -1    0    0    0    0 -0.00000000000E+00 -0.00000000000E+00 -0.45593999997E+02  0.45594000000E+02  0.51100000000E-03 0. -1.
    9900012    2    1    2    0    0  0.27497254819E+02 -0.34555861872E+02  0.88829566243E+01  0.46142317291E+02  0.99999957151E+01 0.  0.
         12    1    1    2    0    0 -0.27497254819E+02  0.34555861872E+02 -0.88829566243E+01  0.45045682709E+02  0.00000000000E+00 0. -1.
         11    1    3    3    0    0  0.20385885321E+02 -0.21412729067E+02  0.75199280237E+01  0.30506369895E+02  0.51100000000E-03 0. -1.
        -11    1    3    3    0    0  0.51711025844E+01 -0.59939426516E+01  0.21041588041E+01  0.81911620044E+01  0.51100000000E-03 0.  1.
         12    1    3    3    0    0  0.19402669128E+01 -0.71491901536E+01 -0.74113020360E+00  0.74447853914E+01  0.00000000000E+00 0. -1.
</event>
<event>
 7    1  0.2478637E-008  0.4614232E+02  0.7816164E-02  0.1320468E+00
        -11   -1    0    0    0    0  0.00000000000E+00  0.00000000000E+00  0.45593999997E+02  0.45594000000E+02  0.51100000000E-03 0.  1.
         11   -1    0    0    0    0 -0.00000000000E+00 -0.00000000000E+00 -0.45593999997E+02  0.45594000000E+02  0.51100000000E-03 0. -1.
    9900012    2    1    2    0    0 -0.10182884976E+02  0.30482167675E+02  0.31563583178E+02  0.46142317902E+02  0.10000001288E+02 0.  0.
         12    1    1    2    0    0  0.10182884976E+02 -0.30482167675E+02 -0.31563583178E+02  0.45045682098E+02  0.00000000000E+00 0. -1.
         11    1    3    3    0    0 -0.22724754998E+01  0.15089766616E+02  0.13290250774E+02  0.20236006704E+02  0.51100000000E-03 0. -1.
        -11    1    3    3    0    0  0.32242133191E+00  0.38109762584E+01  0.60773009829E+01  0.71806046441E+01  0.51100000000E-03 0.  1.
         12    1    3    3    0    0 -0.82328308083E+01  0.11581424801E+02  0.12196031421E+02  0.18725706554E+02  0.00000000000E+00 0. -1.
</event>
<event>
 7    1  0.2478637E-008  0.4614232E+02  0.7816164E-02  0.1320468E+00
        -11   -1    0    0    0    0  0.00000000000E+00  0.00000000000E+00  0.45593999997E+02  0.45594000000E+02  0.51100000000E-03 0.  1.
         11   -1    0    0    0    0 -0.00000000000E+00 -0.00000000000E+00 -0.45593999997E+02  0.45594000000E+02  0.51100000000E-03 0. -1.
    9900012    2    1    2    0    0  0.12800952738E+02  0.17315037444E+02  0.39565622441E+02  0.46142318833E+02  0.10000009773E+02 0.  0.
         12    1    1    2    0    0 -0.12800952738E+02 -0.17315037444E+02 -0.39565622441E+02  0.45045681167E+02  0.00000000000E+00 0. -1.
         11    1    3    3    0    0 -0.81398312641E+00  0.96992109934E+00  0.61227562579E+00  0.14064839750E+01  0.51100000000E-03 0. -1.
        -11    1    3    3    0    0  0.23326094002E+01  0.68652082476E+00  0.69540387077E+01  0.73668875426E+01  0.51100000000E-03 0.  1.
        -12    1    3    3    0    0  0.11282326465E+02  0.15658595520E+02  0.31999308107E+02  0.37368947315E+02  0.00000000000E+00 0.  1.
</event>
<event>
 7    1  0.2478637E-008  0.4614232E+02  0.7816164E-02  0.1320468E+00
        -11   -1    0    0    0    0  0.00000000000E+00  0.00000000000E+00  0.45593999997E+02  0.45594000000E+02  0.51100000000E-03 0. -1.
         11   -1    0    0    0    0 -0.00000000000E+00 -0.00000000000E+00 -0.45593999997E+02  0.45594000000E+02  0.51100000000E-03 0.  1.
    9900012    2    1    2    0    0  0.19941089036E+02 -0.10104011389E+02 -0.39107229499E+02  0.46142317885E+02  0.10000001133E+02 0.  0.
         12    1    1    2    0    0 -0.19941089036E+02  0.10104011389E+02  0.39107229499E+02  0.45045682115E+02  0.00000000000E+00 0. -1.
         11    1    3    3    0    0  0.12205588601E+01 -0.17879565311E+01 -0.34521321105E+00  0.21921963667E+01  0.51100000000E-03 0. -1.
        -11    1    3    3    0    0  0.49758183924E+01 -0.84463203940E+00 -0.10387553794E+02  0.11548742185E+02  0.51100000000E-03 0.  1.
         12    1    3    3    0    0  0.13744711783E+02 -0.74714228183E+01 -0.28374462493E+02  0.32401379334E+02  0.00000000000E+00 0. -1.
</event>
<event>
 7    1  0.2478637E-008  0.4614232E+02  0.7816164E-02  0.1320468E+00
        -11   -1    0    0    0    0  0.00000000000E+00  0.00000000000E+00  0.45593999997E+02  0.45594000000E+02  0.51100000000E-03 0.  1.
         11   -1    0    0    0    0 -0.00000000000E+00 -0.00000000000E+00 -0.45593999997E+02  0.45594000000E+02  0.51100000000E-03 0. -1.
    9900012    2    1    2    0    0 -0.34011236839E+02 -0.16254893005E+02  0.24660247752E+02  0.46142316554E+02  0.99999889948E+01 0.  0.
         12    1    1    2    0    0  0.34011236839E+02  0.16254893005E+02 -0.24660247752E+02  0.45045683446E+02  0.00000000000E+00 0. -1.
         11    1    3    3    0    0 -0.26137176381E+02 -0.12130458398E+02  0.16008823422E+02  0.32963349917E+02  0.51100000000E-03 0. -1.
        -11    1    3    3    0    0 -0.75600301231E+01 -0.45820764892E+01  0.89233773283E+01  0.12560897405E+02  0.51100000000E-03 0.  1.
         12    1    3    3    0    0 -0.31403033418E+00  0.45764188183E+00 -0.27195299808E+00  0.61806923234E+00  0.00000000000E+00 0. -1.
</event>
<event>
 7    1  0.2478637E-008  0.4614232E+02  0.7816164E-02  0.1320468E+00
        -11   -1    0    0    0    0  0.00000000000E+00  0.00000000000E+00  0.45593999997E+02  0.45594000000E+02  0.51100000000E-03 0. -1.
         11   -1    0    0    0    0 -0.00000000000E+00 -0.00000000000E+00 -0.45593999997E+02  0.45594000000E+02  0.51100000000E-03 0.  1.
    9900012    2    1    2    0    0  0.32317296006E+02 -0.11428760571E+02 -0.29224805174E+02  0.46142318445E+02  0.10000006232E+02 0.  0.
         12    1    1    2    0    0 -0.32317296006E+02  0.11428760571E+02  0.29224805174E+02  0.45045681555E+02  0.00000000000E+00 0. -1.
         11    1    3    3    0    0  0.21435216582E+01  0.10021248065E+01 -0.33128259557E+01  0.40710877295E+01  0.51100000000E-03 0. -1.
        -11    1    3    3    0    0  0.13599850379E+02 -0.57817553471E+01 -0.81149715032E+01  0.16859341268E+02  0.51100000000E-03 0.  1.
        -12    1    3    3    0    0  0.16573923969E+02 -0.66491300302E+01 -0.17797007715E+02  0.25211889447E+02  0.00000000000E+00 0.  1.
</event>
<event>
 7    1  0.2478637E-008  0.4614232E+02  0.7816164E-02  0.1320468E+00
        -11   -1    0    0    0    0  0.00000000000E+00  0.00000000000E+00  0.45593999997E+02  0.45594000000E+02  0.51100000000E-03 0.  1.
         11   -1    0    0    0    0 -0.00000000000E+00 -0.00000000000E+00 -0.45593999997E+02  0.45594000000E+02  0.51100000000E-03 0. -1.
    9900012    2    1    2    0    0  0.39695865973E+01  0.28282430383E+02  0.34834752903E+02  0.46142317677E+02  0.99999992333E+01 0.  0.
         12    1    1    2    0    0 -0.39695865973E+01 -0.28282430383E+02 -0.34834752903E+02  0.45045682323E+02  0.00000000000E+00 0. -1.
         11    1    3    3    0    0 -0.23634618313E+01  0.92797044563E+01  0.80388468054E+01  0.12502876663E+02  0.51100000000E-03 0. -1.
        -11    1    3    3    0    0  0.61389078615E+01  0.18901566146E+02  0.25522660498E+02  0.32347512913E+02  0.51100000000E-03 0.  1.
        -12    1    3    3    0    0  0.19414056710E+00  0.10115978069E+00  0.12732456001E+01  0.12919281014E+01  0.00000000000E+00 0.  1.
</event>
<event>
 7    1  0.2478637E-008  0.4614232E+02  0.7816164E-02  0.1320468E+00
        -11   -1    0    0    0    0  0.00000000000E+00  0.00000000000E+00  0.45593999997E+02  0.45594000000E+02  0.51100000000E-03 0.  1.
         11   -1    0    0    0    0 -0.00000000000E+00 -0.00000000000E+00 -0.45593999997E+02  0.45594000000E+02  0.51100000000E-03 0. -1.
    9900012    2    1    2    0    0 -0.42474936795E+01  0.34834104869E+02  0.28242831373E+02  0.46142316649E+02  0.99999898616E+01 0.  0.
         12    1    1    2    0    0  0.42474936795E+01 -0.34834104869E+02 -0.28242831373E+02  0.45045683351E+02  0.00000000000E+00 0. -1.
         11    1    3    3    0    0 -0.10511416826E+01  0.23810999074E+02  0.14172695277E+02  0.27729656821E+02  0.51100000000E-03 0. -1.
        -11    1    3    3    0    0 -0.24033771219E+01  0.54515843933E+01  0.52003750891E+01  0.79082169492E+01  0.51100000000E-03 0.  1.
         12    1    3    3    0    0 -0.79297487509E+00  0.55715214016E+01  0.88697610071E+01  0.10504442879E+02  0.00000000000E+00 0. -1.
</event>
<event>
 7    1  0.2478637E-008  0.4614232E+02  0.7816164E-02  0.1320468E+00
        -11   -1    0    0    0    0  0.00000000000E+00  0.00000000000E+00  0.45593999997E+02  0.45594000000E+02  0.51100000000E-03 0.  1.
         11   -1    0    0    0    0 -0.00000000000E+00 -0.00000000000E+00 -0.45593999997E+02  0.45594000000E+02  0.51100000000E-03 0. -1.
    9900012    2    1    2    0    0 -0.18192099930E+02 -0.41039142591E+02 -0.37349184531E+01  0.46142319404E+02  0.10000014985E+02 0.  0.
         12    1    1    2    0    0  0.18192099930E+02  0.41039142591E+02  0.37349184531E+01  0.45045680596E+02  0.00000000000E+00 0. -1.
         11    1    3    3    0    0 -0.74261530832E+01 -0.15689234461E+02  0.25785738548E+01  0.17548472041E+02  0.51100000000E-03 0. -1.
        -11    1    3    3    0    0 -0.25546095192E+01 -0.46692205900E+01 -0.29636942756E+01  0.60918908997E+01  0.51100000000E-03 0.  1.
        -12    1    3    3    0    0 -0.82113373280E+01 -0.20680687540E+02 -0.33497980323E+01  0.22501956463E+02  0.00000000000E+00 0.  1.
</event>
<event>
 7    1  0.2478637E-008  0.4614232E+02  0.7816164E-02  0.1320468E+00
        -11   -1    0    0    0    0  0.00000000000E+00  0.00000000000E+00  0.45593999997E+02  0.45594000000E+02  0.51100000000E-03 0.  1.
         11   -1    0    0    0    0 -0.00000000000E+00 -0.00000000000E+00 -0.45593999997E+02  0.45594000000E+02  0.51100000000E-03 0. -1.
    9900012    2    1    2    0    0  0.15512615518E+01  0.25827150842E+02  0.36873641132E+02  0.46142317151E+02  0.99999944351E+01 0.  0.
         12    1    1    2    0    0 -0.15512615518E+01 -0.25827150842E+02 -0.36873641132E+02  0.45045682849E+02  0.00000000000E+00 0. -1.
         11    1    3    3    0    0  0.11157977606E+01  0.27509482324E+01  0.33894159909E+01  0.45056477715E+01  0.51100000000E-03 0. -1.
        -11    1    3    3    0    0  0.46469903694E+01  0.13244380535E+02  0.18275892585E+02  0.23043792772E+02  0.51100000000E-03 0.  1.
         12    1    3    3    0    0 -0.42115265782E+01  0.98318220743E+01  0.15208332556E+02  0.18592876608E+02  0.00000000000E+00 0. -1.
</event>
<event>
 7    1  0.2478637E-008  0.4614232E+02  0.7816164E-02  0.1320468E+00
        -11   -1    0    0    0    0  0.00000000000E+00  0.00000000000E+00  0.45593999997E+02  0.45594000000E+02  0.51100000000E-03 0.  1.
         11   -1    0    0    0    0 -0.00000000000E+00 -0.00000000000E+00 -0.45593999997E+02  0.45594000000E+02  0.51100000000E-03 0. -1.
    9900012    2    1    2    0    0  0.17629749202E+02 -0.13915486557E+01  0.41429084780E+02  0.46142317295E+02  0.99999957522E+01 0.  0.
         12    1    1    2    0    0 -0.17629749202E+02  0.13915486557E+01 -0.41429084780E+02  0.45045682705E+02  0.00000000000E+00 0. -1.
         11    1    3    3    0    0  0.12040190468E+01 -0.15542100220E+01  0.49801295344E+01  0.53541498950E+01  0.51100000000E-03 0. -1.
        -11    1    3    3    0    0  0.16258319016E+01  0.27890294859E+01  0.76290913033E+01  0.82840237337E+01  0.51100000000E-03 0.  1.
        -12    1    3    3    0    0  0.14799898254E+02 -0.26263681196E+01  0.28819863943E+02  0.32504143667E+02  0.00000000000E+00 0.  1.
</event>
<event>
 7    1  0.2478637E-008  0.4614232E+02  0.7816164E-02  0.1320468E+00
        -11   -1    0    0    0    0  0.00000000000E+00  0.00000000000E+00  0.45593999997E+02  0.45594000000E+02  0.51100000000E-03 0. -1.
         11   -1    0    0    0    0 -0.00000000000E+00 -0.00000000000E+00 -0.45593999997E+02  0.45594000000E+02  0.51100000000E-03 0.  1.
    9900012    2    1    2    0    0 -0.23679661505E+02  0.50110981079E+01 -0.37990471616E+02  0.46142318666E+02  0.10000008251E+02 0.  0.
         12    1    1    2    0    0  0.23679661505E+02 -0.50110981079E+01  0.37990471616E+02  0.45045681334E+02  0.00000000000E+00 0. -1.
         11    1    3    3    0    0 -0.10762784033E+02  0.32880321892E+01 -0.12372006372E+02  0.16724688869E+02  0.51100000000E-03 0. -1.
        -11    1    3    3    0    0 -0.45356960785E+01  0.34903391177E+01 -0.81079107198E+01  0.99243751731E+01  0.51100000000E-03 0.  1.
         12    1    3    3    0    0 -0.83811813937E+01 -0.17672731990E+01 -0.17510554524E+02  0.19493254624E+02  0.00000000000E+00 0. -1.
</event>
<event>
 7    1  0.2478637E-008  0.4614232E+02  0.7816164E-02  0.1320468E+00
        -11   -1    0    0    0    0  0.00000000000E+00  0.00000000000E+00  0.45593999997E+02  0.45594000000E+02  0.51100000000E-03 0. -1.
         11   -1    0    0    0    0 -0.00000000000E+00 -0.00000000000E+00 -0.45593999997E+02  0.45594000000E+02  0.51100000000E-03 0.  1.
    9900012    2    1    2    0    0  0.34463632533E+02 -0.85118681961E+01 -0.27729402723E+02  0.46142316045E+02  0.99999843555E+01 0.  0.
         12    1    1    2    0    0 -0.34463632533E+02  0.85118681961E+01  0.27729402723E+02  0.45045683955E+02  0.00000000000E+00 0. -1.
         11    1    3    3    0    0  0.15795339737E+02  0.24096145327E+00 -0.12284953401E+02  0.20011769041E+02  0.51100000000E-03 0. -1.
        -11    1    3    3    0    0  0.59831050012E+01 -0.14191824955E+01 -0.65766116579E+01  0.90035240640E+01  0.51100000000E-03 0.  1.
        -12    1    3    3    0    0  0.12685187795E+02 -0.73336471538E+01 -0.88678376649E+01  0.17127022941E+02  0.00000000000E+00 0.  1.
</event>
<event>
 7    1  0.2478637E-008  0.4614231E+02  0.7816164E-02  0.1320468E+00
        -11   -1    0    0    0    0  0.00000000000E+00  0.00000000000E+00  0.45593999997E+02  0.45594000000E+02  0.51100000000E-03 0.  1.
         11   -1    0    0    0    0 -0.00000000000E+00 -0.00000000000E+00 -0.45593999997E+02  0.45594000000E+02  0.51100000000E-03 0. -1.
    9900012    2    1    2    0    0 -0.23958286464E+02  0.26193355870E+01  0.38055926104E+02  0.46142312961E+02  0.99999562246E+01 0.  0.
         12    1    1    2    0    0  0.23958286464E+02 -0.26193355870E+01 -0.38055926104E+02  0.45045687039E+02  0.00000000000E+00 0. -1.
         11    1    3    3    0    0 -0.62802458383E+01 -0.15449978372E+01  0.11209261303E+02  0.12941253623E+02  0.51100000000E-03 0.  1.
        -11    1    3    3    0    0 -0.27349156976E+01 -0.17329622715E+01  0.66340977719E+01  0.73820170425E+01  0.51100000000E-03 0. -1.
        -12    1    3    3    0    0 -0.14943124928E+02  0.58972956956E+01  0.20212567029E+02  0.25819042295E+02  0.00000000000E+00 0.  1.
</event>
<event>
 7    1  0.2478637E-008  0.4614232E+02  0.7816164E-02  0.1320468E+00
        -11   -1    0    0    0    0  0.00000000000E+00  0.00000000000E+00  0.45593999997E+02  0.45594000000E+02  0.51100000000E-03 0. -1.
         11   -1    0    0    0    0 -0.00000000000E+00 -0.00000000000E+00 -0.45593999997E+02  0.45594000000E+02  0.51100000000E-03 0.  1.
    9900012    2    1    2    0    0 -0.31419045234E+02 -0.31341622618E+02 -0.77239754710E+01  0.46142317534E+02  0.99999979250E+01 0.  0.
         12    1    1    2    0    0  0.31419045234E+02  0.31341622618E+02  0.77239754710E+01  0.45045682466E+02  0.00000000000E+00 0. -1.
         11    1    3    3    0    0 -0.52861305201E+01 -0.60291864019E+01  0.13430122171E+01  0.81300643676E+01  0.51100000000E-03 0. -1.
        -11    1    3    3    0    0 -0.12104675135E+02 -0.75755769614E+01 -0.41405964114E+01  0.14867987938E+02  0.51100000000E-03 0.  1.
        -12    1    3    3    0    0 -0.14028239579E+02 -0.17736859255E+02 -0.49263912767E+01  0.23144265228E+02  0.00000000000E+00 0.  1.
</event>
<event>
 7    1  0.2478637E-008  0.4614231E+02  0.7816164E-02  0.1320468E+00
        -11   -1    0    0    0    0  0.00000000000E+00  0.00000000000E+00  0.45593999997E+02  0.45594000000E+02  0.51100000000E-03 0.  1.
         11   -1    0    0    0    0 -0.00000000000E+00 -0.00000000000E+00 -0.45593999997E+02  0.45594000000E+02  0.51100000000E-03 0. -1.
    9900012    2    1    2    0    0  0.97167721261E-02  0.44966868826E+02 -0.26635895716E+01  0.46142311018E+02  0.99999385095E+01 0.  0.
         12    1    1    2    0    0 -0.97167721261E-02 -0.44966868826E+02  0.26635895716E+01  0.45045688982E+02  0.00000000000E+00 0. -1.
         11    1    3    3    0    0 -0.22571719531E+01  0.31389379937E+01  0.27579845573E+00  0.38760575335E+01  0.51100000000E-03 0. -1.
        -11    1    3    3    0    0  0.37805554132E+00  0.32167138346E+02 -0.72997650439E+00  0.32177641016E+02  0.51100000000E-03 0.  1.
         12    1    3    3    0    0  0.18888331839E+01  0.96607924863E+01 -0.22094115229E+01  0.10088612468E+02  0.00000000000E+00 0. -1.
</event>
<event>
 7    1  0.2478637E-008  0.4614232E+02  0.7816164E-02  0.1320468E+00
        -11   -1    0    0    0    0  0.00000000000E+00  0.00000000000E+00  0.45593999997E+02  0.45594000000E+02  0.51100000000E-03 0. -1.
         11   -1    0    0    0    0 -0.00000000000E+00 -0.00000000000E+00 -0.45593999997E+02  0.45594000000E+02  0.51100000000E-03 0.  1.
    9900012    2    1    2    0    0  0.21685349602E+02 -0.25800359217E+02 -0.29886460694E+02  0.46142318122E+02  0.10000003291E+02 0.  0.
         12    1    1    2    0    0 -0.21685349602E+02  0.25800359217E+02  0.29886460694E+02  0.45045681878E+02  0.00000000000E+00 0. -1.
         11    1    3    3    0    0  0.24316948685E+01 -0.27388256231E+00 -0.25203020659E+01  0.35128441975E+01  0.51100000000E-03 0. -1.
        -11    1    3    3    0    0  0.73757055948E+01 -0.15208937436E+02 -0.13000152898E+02  0.21324089350E+02  0.51100000000E-03 0.  1.
         12    1    3    3    0    0  0.11877949138E+02 -0.10317539218E+02 -0.14366005730E+02  0.21305384575E+02  0.00000000000E+00 0. -1.
</event>
<event>
 7    1  0.2478637E-008  0.4614232E+02  0.7816164E-02  0.1320468E+00
        -11   -1    0    0    0    0  0.00000000000E+00  0.00000000000E+00  0.45593999997E+02  0.45594000000E+02  0.51100000000E-03 0. -1.
         11   -1    0    0    0    0 -0.00000000000E+00 -0.00000000000E+00 -0.45593999997E+02  0.45594000000E+02  0.51100000000E-03 0.  1.
    9900012    2    1    2    0    0  0.31028050848E+02  0.11539228932E+02 -0.30548644820E+02  0.46142318252E+02  0.10000004479E+02 0.  0.
         12    1    1    2    0    0 -0.31028050848E+02 -0.11539228932E+02  0.30548644820E+02  0.45045681748E+02  0.00000000000E+00 0. -1.
         11    1    3    3    0    0  0.87153032189E+01 -0.89766910284E+00 -0.71621949269E+01  0.11316331404E+02  0.51100000000E-03 0. -1.
        -11    1    3    3    0    0  0.16468967796E+02  0.74980433753E+01 -0.15341652511E+02  0.23723698210E+02  0.51100000000E-03 0.  1.
         12    1    3    3    0    0  0.58437798326E+01  0.49388546590E+01 -0.80447973822E+01  0.11102288638E+02  0.00000000000E+00 0. -1.
</event>
<event>
 7    1  0.2478637E-008  0.4614232E+02  0.7816164E-02  0.1320468E+00
        -11   -1    0    0    0    0  0.00000000000E+00  0.00000000000E+00  0.45593999997E+02  0.45594000000E+02  0.51100000000E-03 0.  1.
         11   -1    0    0    0    0 -0.00000000000E+00 -0.00000000000E+00 -0.45593999997E+02  0.45594000000E+02  0.51100000000E-03 0. -1.
    9900012    2    1    2    0    0  0.38403210090E+01  0.92242877077E+01  0.43923546614E+02  0.46142317672E+02  0.99999991918E+01 0.  0.
         12    1    1    2    0    0 -0.38403210090E+01 -0.92242877077E+01 -0.43923546614E+02  0.45045682328E+02  0.00000000000E+00 0. -1.
         11    1    3    3    0    0  0.55150773007E+00  0.29345425148E+01  0.25743783489E+01  0.39424769742E+01  0.51100000000E-03 0. -1.
        -11    1    3    3    0    0 -0.87417931419E+00  0.19883036059E+01  0.16368218011E+02  0.16511695910E+02  0.51100000000E-03 0.  1.
         12    1    3    3    0    0  0.41629925932E+01  0.43014415871E+01  0.24980950254E+02  0.25688144788E+02  0.00000000000E+00 0. -1.
</event>
<event>
 7    1  0.2478637E-008  0.4614232E+02  0.7816164E-02  0.1320468E+00
        -11   -1    0    0    0    0  0.00000000000E+00  0.00000000000E+00  0.45593999997E+02  0.45594000000E+02  0.51100000000E-03 0. -1.
         11   -1    0    0    0    0 -0.00000000000E+00 -0.00000000000E+00 -0.45593999997E+02  0.45594000000E+02  0.51100000000E-03 0.  1.
    9900012    2    1    2    0    0  0.40449487572E+02  0.85026990334E+01 -0.17906887255E+02  0.46142317112E+02  0.99999940830E+01 0.  0.
         12    1    1    2    0    0 -0.40449487572E+02 -0.85026990334E+01  0.17906887255E+02  0.45045682888E+02  0.00000000000E+00 0. -1.
         11    1    3    3    0    0  0.61873938092E+01  0.21093571534E+01  0.62666533767E+00  0.65670342969E+01  0.51100000000E-03 0. -1.
        -11    1    3    3    0    0  0.84193470462E+01  0.28074413125E+01 -0.48816379385E+01  0.10129043421E+02  0.51100000000E-03 0.  1.
         12    1    3    3    0    0  0.25842746716E+02  0.35859005675E+01 -0.13651914654E+02  0.29446239394E+02  0.00000000000E+00 0. -1.
</event>
<event>
 7    1  0.2478637E-008  0.4614232E+02  0.7816164E-02  0.1320468E+00
        -11   -1    0    0    0    0  0.00000000000E+00  0.00000000000E+00  0.45593999997E+02  0.45594000000E+02  0.51100000000E-03 0.  1.
         11   -1    0    0    0    0 -0.00000000000E+00 -0.00000000000E+00 -0.45593999997E+02  0.45594000000E+02  0.51100000000E-03 0. -1.
    9900012    2    1    2    0    0 -0.20248130435E+02  0.35571066651E+01  0.40080839253E+02  0.46142317974E+02  0.10000001941E+02 0.  0.
         12    1    1    2    0    0  0.20248130435E+02 -0.35571066651E+01 -0.40080839253E+02  0.45045682026E+02  0.00000000000E+00 0. -1.
         11    1    3    3    0    0 -0.11843377209E+02  0.10203510543E+01  0.23548223458E+02  0.26378505043E+02  0.51100000000E-03 0.  1.
        -11    1    3    3    0    0 -0.85707459329E+01  0.65773095116E+00  0.15172280419E+02  0.17438130325E+02  0.51100000000E-03 0. -1.
         12    1    3    3    0    0  0.16599270697E+00  0.18790246596E+01  0.13603353760E+01  0.23256826064E+01  0.00000000000E+00 0. -1.
</event>
<event>
 7    1  0.2478637E-008  0.4614232E+02  0.7816164E-02  0.1320468E+00
        -11   -1    0    0    0    0  0.00000000000E+00  0.00000000000E+00  0.45593999997E+02  0.45594000000E+02  0.51100000000E-03 0.  1.
         11   -1    0    0    0    0 -0.00000000000E+00 -0.00000000000E+00 -0.45593999997E+02  0.45594000000E+02  0.51100000000E-03 0. -1.
    9900012    2    1    2    0    0  0.81452820884E+00  0.35066512258E+02  0.28262870321E+02  0.46142316778E+02  0.99999910385E+01 0.  0.
         12    1    1    2    0    0 -0.81452820884E+00 -0.35066512258E+02 -0.28262870321E+02  0.45045683222E+02  0.00000000000E+00 0. -1.
         11    1    3    3    0    0  0.19679739654E+01  0.26521226410E+01  0.24359974945E+01  0.41037495154E+01  0.51100000000E-03 0. -1.
        -11    1    3    3    0    0  0.22733317652E+01  0.21919451938E+02  0.18660518532E+02  0.28876380707E+02  0.51100000000E-03 0.  1.
        -12    1    3    3    0    0 -0.34267775218E+01  0.10494937679E+02  0.71663542942E+01  0.13162186556E+02  0.00000000000E+00 0.  1.
</event>
<event>
 7    1  0.2478637E-008  0.4614231E+02  0.7816164E-02  0.1320468E+00
        -11   -1    0    0    0    0  0.00000000000E+00  0.00000000000E+00  0.45593999997E+02  0.45594000000E+02  0.51100000000E-03 0.  1.
         11   -1    0    0    0    0 -0.00000000000E+00 -0.00000000000E+00 -0.45593999997E+02  0.45594000000E+02  0.51100000000E-03 0. -1.
    9900012    2    1    2    0    0  0.19908492854E+02  0.39714139500E+02  0.74533762099E+01  0.46142314515E+02  0.99999703954E+01 0.  0.
         12    1    1    2    0    0 -0.19908492854E+02 -0.39714139500E+02 -0.74533762099E+01  0.45045685485E+02  0.00000000000E+00 0. -1.
         11    1    3    3    0    0  0.14862727046E+02  0.27595820301E+02  0.35626890557E+01  0.31545565566E+02  0.51100000000E-03 0.  1.
        -11    1    3    3    0    0  0.82764446028E+00  0.84121673574E+01  0.24186610551E+01  0.87920120883E+01  0.51100000000E-03 0. -1.
         12    1    3    3    0    0  0.42181213478E+01  0.37061518412E+01  0.14720260991E+01  0.58047368597E+01  0.00000000000E+00 0. -1.
</event>
<event>
 7    1  0.2478637E-008  0.4614232E+02  0.7816164E-02  0.1320468E+00
        -11   -1    0    0    0    0  0.00000000000E+00  0.00000000000E+00  0.45593999997E+02  0.45594000000E+02  0.51100000000E-03 0. -1.
         11   -1    0    0    0    0 -0.00000000000E+00 -0.00000000000E+00 -0.45593999997E+02  0.45594000000E+02  0.51100000000E-03 0.  1.
    9900012    2    1    2    0    0  0.11851995426E+02 -0.42017770695E+02  0.11097325494E+02  0.46142317822E+02  0.10000000555E+02 0.  0.
         12    1    1    2    0    0 -0.11851995426E+02  0.42017770695E+02 -0.11097325494E+02  0.45045682178E+02  0.00000000000E+00 0. -1.
         11    1    3    3    0    0  0.59911887810E+01 -0.23671512881E+02  0.96619193258E+01  0.26259999055E+02  0.51100000000E-03 0.  1.
        -11    1    3    3    0    0  0.15707525009E+01 -0.22854335922E+01  0.17065471402E+01  0.32561900323E+01  0.51100000000E-03 0. -1.
        -12    1    3    3    0    0  0.42900541442E+01 -0.16060824222E+02 -0.27114097239E+00  0.16626128734E+02  0.00000000000E+00 0.  1.
</event>
<event>
 7    1  0.2478637E-008  0.4614232E+02  0.7816164E-02  0.1320468E+00
        -11   -1    0    0    0    0  0.00000000000E+00  0.00000000000E+00  0.45593999997E+02  0.45594000000E+02  0.51100000000E-03 0. -1.
         11   -1    0    0    0    0 -0.00000000000E+00 -0.00000000000E+00 -0.45593999997E+02  0.45594000000E+02  0.51100000000E-03 0.  1.
    9900012    2    1    2    0    0 -0.29382870838E+02 -0.28912834403E+02 -0.18160626887E+02  0.46142318067E+02  0.10000002785E+02 0.  0.
         12    1    1    2    0    0  0.29382870838E+02  0.28912834403E+02  0.18160626887E+02  0.45045681933E+02  0.00000000000E+00 0. -1.
         11    1    3    3    0    0 -0.57906970685E+01 -0.34146317918E+01 -0.66225905880E+01  0.94366619718E+01  0.51100000000E-03 0. -1.
        -11    1    3    3    0    0 -0.58667689237E+00 -0.34790376161E+00  0.98179071982E-01  0.68910535819E+00  0.51100000000E-03 0.  1.
        -12    1    3    3    0    0 -0.23005496877E+02 -0.25150298849E+02 -0.11636215371E+02  0.36016550737E+02  0.00000000000E+00 0.  1.
</event>
<event>
 7    1  0.2478637E-008  0.4614232E+02  0.7816164E-02  0.1320468E+00
        -11   -1    0    0    0    0  0.00000000000E+00  0.00000000000E+00  0.45593999997E+02  0.45594000000E+02  0.51100000000E-03 0.  1.
         11   -1    0    0    0    0 -0.00000000000E+00 -0.00000000000E+00 -0.45593999997E+02  0.45594000000E+02  0.51100000000E-03 0. -1.
    9900012    2    1    2    0    0  0.31459584136E+02 -0.14273066562E+02  0.28908264882E+02  0.46142316060E+02  0.99999844904E+01 0.  0.
         12    1    1    2    0    0 -0.31459584136E+02  0.14273066562E+02 -0.28908264882E+02  0.45045683940E+02  0.00000000000E+00 0. -1.
         11    1    3    3    0    0  0.14550103836E+02 -0.51776361900E+01  0.13895456820E+02  0.20774916574E+02  0.51100000000E-03 0.  1.
        -11    1    3    3    0    0  0.13475974560E+02 -0.96452440270E+01  0.14134084845E+02  0.21780839684E+02  0.51100000000E-03 0. -1.
        -12    1    3    3    0    0  0.34335057396E+01  0.54981365494E+00  0.87872321685E+00  0.35865598017E+01  0.00000000000E+00 0.  1.
</event>
<event>
 7    1  0.2478637E-008  0.4614232E+02  0.7816164E-02  0.1320468E+00
        -11   -1    0    0    0    0  0.00000000000E+00  0.00000000000E+00  0.45593999997E+02  0.45594000000E+02  0.51100000000E-03 0.  1.
         11   -1    0    0    0    0 -0.00000000000E+00 -0.00000000000E+00 -0.45593999997E+02  0.45594000000E+02  0.51100000000E-03 0. -1.
    9900012    2    1    2    0    0  0.42636326945E+01  0.16018724790E+02  0.41884789135E+02  0.46142315761E+02  0.99999817653E+01 0.  0.
         12    1    1    2    0    0 -0.42636326945E+01 -0.16018724790E+02 -0.41884789135E+02  0.45045684239E+02  0.00000000000E+00 0. -1.
         11    1    3    3    0    0  0.91697798554E+00 -0.23820076861E+00  0.95702956107E+01  0.96170757806E+01  0.51100000000E-03 0. -1.
        -11    1    3    3    0    0  0.18715027237E+01  0.22898045323E+01  0.49240258497E+01  0.57438452339E+01  0.51100000000E-03 0.  1.
         12    1    3    3    0    0  0.14751519853E+01  0.13967121027E+02  0.27390467674E+02  0.30781394747E+02  0.00000000000E+00 0. -1.
</event>
<event>
 7    1  0.2478637E-008  0.4614232E+02  0.7816164E-02  0.1320468E+00
        -11   -1    0    0    0    0  0.00000000000E+00  0.00000000000E+00  0.45593999997E+02  0.45594000000E+02  0.51100000000E-03 0. -1.
         11   -1    0    0    0    0 -0.00000000000E+00 -0.00000000000E+00 -0.45593999997E+02  0.45594000000E+02  0.51100000000E-03 0.  1.
    9900012    2    1    2    0    0  0.22859656142E+01  0.10125306199E+02 -0.43833390397E+02  0.46142316765E+02  0.99999909167E+01 0.  0.
         12    1    1    2    0    0 -0.22859656142E+01 -0.10125306199E+02  0.43833390397E+02  0.45045683235E+02  0.00000000000E+00 0. -1.
         11    1    3    3    0    0 -0.49253223095E+00  0.59662426592E+01 -0.12323299581E+02  0.13700450806E+02  0.51100000000E-03 0. -1.
        -11    1    3    3    0    0 -0.10798678429E+01  0.33885648745E+01 -0.18917843198E+02  0.19249240972E+02  0.51100000000E-03 0.  1.
        -12    1    3    3    0    0  0.38583656881E+01  0.77049866574E+00 -0.12592247618E+02  0.13192624987E+02  0.00000000000E+00 0.  1.
</event>
<event>
 7    1  0.2478637E-008  0.4614232E+02  0.7816164E-02  0.1320468E+00
        -11   -1    0    0    0    0  0.00000000000E+00  0.00000000000E+00  0.45593999997E+02  0.45594000000E+02  0.51100000000E-03 0.  1.
         11   -1    0    0    0    0 -0.00000000000E+00 -0.00000000000E+00 -0.45593999997E+02  0.45594000000E+02  0.51100000000E-03 0. -1.
    9900012    2    1    2    0    0  0.65334106512E+01  0.56548827832E+01  0.44209165395E+02  0.46142318087E+02  0.10000002976E+02 0.  0.
         12    1    1    2    0    0 -0.65334106512E+01 -0.56548827832E+01 -0.44209165395E+02  0.45045681913E+02  0.00000000000E+00 0. -1.
         11    1    3    3    0    0  0.43366152900E+00  0.14299450759E+00  0.30128687877E+00  0.54706836444E+00  0.51100000000E-03 0. -1.
        -11    1    3    3    0    0 -0.11548283696E+01  0.40571393254E+01  0.23764208304E+02  0.24135691510E+02  0.51100000000E-03 0.  1.
        -12    1    3    3    0    0  0.72545774918E+01  0.14547489502E+01  0.20143670212E+02  0.21459558213E+02  0.00000000000E+00 0.  1.
</event>
<event>
 7    1  0.2478637E-008  0.4614232E+02  0.7816164E-02  0.1320468E+00
        -11   -1    0    0    0    0  0.00000000000E+00  0.00000000000E+00  0.45593999997E+02  0.45594000000E+02  0.51100000000E-03 0.  1.
         11   -1    0    0    0    0 -0.00000000000E+00 -0.00000000000E+00 -0.45593999997E+02  0.45594000000E+02  0.51100000000E-03 0. -1.
    9900012    2    1    2    0    0  0.10291647575E+00 -0.22538990860E+02  0.39001241133E+02  0.46142317513E+02  0.99999977409E+01 0.  0.
         12    1    1    2    0    0 -0.10291647575E+00  0.22538990860E+02 -0.39001241133E+02  0.45045682487E+02  0.00000000000E+00 0. -1.
         11    1    3    3    0    0 -0.28657924091E+01 -0.11528941508E+02  0.18485313255E+02  0.21973531005E+02  0.51100000000E-03 0. -1.
        -11    1    3    3    0    0 -0.10497979034E+01 -0.32874468140E+01  0.28553057076E+01  0.44790794967E+01  0.51100000000E-03 0.  1.
         12    1    3    3    0    0  0.40185067883E+01 -0.77226025374E+01  0.17660622171E+02  0.19689707012E+02  0.00000000000E+00 0. -1.
</event>
<event>
 7    1  0.2478637E-008  0.4614231E+02  0.7816164E-02  0.1320468E+00
        -11   -1    0    0    0    0  0.00000000000E+00  0.00000000000E+00  0.45593999997E+02  0.45594000000E+02  0.51100000000E-03 0.  1.
         11   -1    0    0    0    0 -0.00000000000E+00 -0.00000000000E+00 -0.45593999997E+02  0.45594000000E+02  0.51100000000E-03 0. -1.
    9900012    2    1    2    0    0 -0.44062480677E+02  0.91885621346E+01  0.17837877010E+01  0.46142314567E+02  0.99999708776E+01 0.  0.
         12    1    1    2    0    0  0.44062480677E+02 -0.91885621346E+01 -0.17837877010E+01  0.45045685433E+02  0.00000000000E+00 0. -1.
         11    1    3    3    0    0 -0.27610400633E+01 -0.30675692187E+00 -0.14806780056E+01  0.31479913687E+01  0.51100000000E-03 0.  1.
        -11    1    3    3    0    0 -0.28198602675E+01  0.24649389158E+01  0.49485188770E+00  0.37778849160E+01  0.51100000000E-03 0. -1.
        -12    1    3    3    0    0 -0.38481580346E+02  0.70303801406E+01  0.27696138189E+01  0.39216438283E+02  0.00000000000E+00 0.  1.
</event>
<event>
 7    1  0.2478637E-008  0.4614232E+02  0.7816164E-02  0.1320468E+00
        -11   -1    0    0    0    0  0.00000000000E+00  0.00000000000E+00  0.45593999997E+02  0.45594000000E+02  0.51100000000E-03 0.  1.
         11   -1    0    0    0    0 -0.00000000000E+00 -0.00000000000E+00 -0.45593999997E+02  0.45594000000E+02  0.51100000000E-03 0. -1.
    9900012    2    1    2    0    0 -0.13689689483E+02 -0.38943418588E+02  0.18030972053E+02  0.46142318713E+02  0.10000008677E+02 0.  0.
         12    1    1    2    0    0  0.13689689483E+02  0.38943418588E+02 -0.18030972053E+02  0.45045681287E+02  0.00000000000E+00 0. -1.
         11    1    3    3    0    0 -0.35315589552E+00 -0.70499769136E+01  0.51474538593E+01  0.87363135854E+01  0.51100000000E-03 0. -1.
        -11    1    3    3    0    0 -0.52008813414E+01 -0.20277923825E+02  0.78628820670E+01  0.22362206422E+02  0.51100000000E-03 0.  1.
        -12    1    3    3    0    0 -0.81356522459E+01 -0.11615517849E+02  0.50206361270E+01  0.15043798705E+02  0.00000000000E+00 0.  1.
</event>
<event>
 7    1  0.2478637E-008  0.4614231E+02  0.7816164E-02  0.1320468E+00
        -11   -1    0    0    0    0  0.00000000000E+00  0.00000000000E+00  0.45593999997E+02  0.45594000000E+02  0.51100000000E-03 0.  1.
         11   -1    0    0    0    0 -0.00000000000E+00 -0.00000000000E+00 -0.45593999997E+02  0.45594000000E+02  0.51100000000E-03 0. -1.
    9900012    2    1    2    0    0 -0.37987601770E+02 -0.23281960044E+02  0.66337232697E+01  0.46142313901E+02  0.99999647973E+01 0.  0.
         12    1    1    2    0    0  0.37987601770E+02  0.23281960044E+02 -0.66337232697E+01  0.45045686099E+02  0.00000000000E+00 0. -1.
         11    1    3    3    0    0 -0.23349181732E+01 -0.37284841254E+01  0.26806933145E+01  0.51516554288E+01  0.51100000000E-03 0. -1.
        -11    1    3    3    0    0 -0.11969968790E+02 -0.80306677560E+01  0.44761057866E+00  0.14421238953E+02  0.51100000000E-03 0.  1.
        -12    1    3    3    0    0 -0.23682714807E+02 -0.11522808163E+02  0.35054193765E+01  0.26569419519E+02  0.00000000000E+00 0.  1.
</event>
<event>
 7    1  0.2478637E-008  0.4614232E+02  0.7816164E-02  0.1320468E+00
        -11   -1    0    0    0    0  0.00000000000E+00  0.00000000000E+00  0.45593999997E+02  0.45594000000E+02  0.51100000000E-03 0. -1.
         11   -1    0    0    0    0 -0.00000000000E+00 -0.00000000000E+00 -0.45593999997E+02  0.45594000000E+02  0.51100000000E-03 0.  1.
    9900012    2    1    2    0    0 -0.31802474779E+02 -0.28041172153E+02 -0.15212115727E+02  0.46142320932E+02  0.10000028915E+02 0.  0.
         12    1    1    2    0    0  0.31802474779E+02  0.28041172153E+02  0.15212115727E+02  0.45045679068E+02  0.00000000000E+00 0. -1.
         11    1    3    3    0    0 -0.99883625987E+01 -0.52236534342E+01 -0.56706423188E+01  0.12617849546E+02  0.51100000000E-03 0. -1.
        -11    1    3    3    0    0 -0.17055452622E+02 -0.13790442087E+02 -0.65729719792E+01  0.22896915032E+02  0.51100000000E-03 0.  1.
         12    1    3    3    0    0 -0.47586595588E+01 -0.90270766318E+01 -0.29685014290E+01  0.10627556353E+02  0.00000000000E+00 0. -1.
</event>
<event>
 7    1  0.2478637E-008  0.4614232E+02  0.7816164E-02  0.1320468E+00
        -11   -1    0    0    0    0  0.00000000000E+00  0.00000000000E+00  0.45593999997E+02  0.45594000000E+02  0.51100000000E-03 0.  1.
         11   -1    0    0    0    0 -0.00000000000E+00 -0.00000000000E+00 -0.45593999997E+02  0.45594000000E+02  0.51100000000E-03 0. -1.
    9900012    2    1    2    0    0  0.10878619453E+02  0.97742853429E+01  0.42605545276E+02  0.46142317594E+02  0.99999984754E+01 0.  0.
         12    1    1    2    0    0 -0.10878619453E+02 -0.97742853429E+01 -0.42605545276E+02  0.45045682406E+02  0.00000000000E+00 0. -1.
         11    1    3    3    0    0  0.22072408616E+01 -0.88100291425E+00  0.94770186380E+01  0.97704636984E+01  0.51100000000E-03 0. -1.
        -11    1    3    3    0    0 -0.33969533027E+00  0.31451246201E+01  0.90720381840E+01  0.96077613868E+01  0.51100000000E-03 0.  1.
        -12    1    3    3    0    0  0.90110739216E+01  0.75101636371E+01  0.24056488454E+02  0.26764092509E+02  0.00000000000E+00 0.  1.
</event>
<event>
 7    1  0.2478637E-008  0.4614232E+02  0.7816164E-02  0.1320468E+00
        -11   -1    0    0    0    0  0.00000000000E+00  0.00000000000E+00  0.45593999997E+02  0.45594000000E+02  0.51100000000E-03 0.  1.
         11   -1    0    0    0    0 -0.00000000000E+00 -0.00000000000E+00 -0.45593999997E+02  0.45594000000E+02  0.51100000000E-03 0. -1.
    9900012    2    1    2    0    0  0.26783524361E+02  0.11958326444E+02  0.34187058268E+02  0.46142315394E+02  0.99999784187E+01 0.  0.
         12    1    1    2    0    0 -0.26783524361E+02 -0.11958326444E+02 -0.34187058268E+02  0.45045684606E+02  0.00000000000E+00 0. -1.
         11    1    3    3    0    0  0.25502897440E+01 -0.37102385062E+00  0.32337114589E+01  0.41350364614E+01  0.51100000000E-03 0. -1.
        -11    1    3    3    0    0  0.20199194406E+02  0.84497558627E+01  0.28387073393E+02  0.35850129217E+02  0.51100000000E-03 0.  1.
         12    1    3    3    0    0  0.40340402113E+01  0.38795944318E+01  0.25662734166E+01  0.61571497164E+01  0.00000000000E+00 0. -1.
</event>
<event>
 7    1  0.2478637E-008  0.4614232E+02  0.7816164E-02  0.1320468E+00
        -11   -1    0    0    0    0  0.00000000000E+00  0.00000000000E+00  0.45593999997E+02  0.45594000000E+02  0.51100000000E-03 0.  1.
         11   -1    0    0    0    0 -0.00000000000E+00 -0.00000000000E+00 -0.45593999997E+02  0.45594000000E+02  0.51100000000E-03 0. -1.
    9900012    2    1    2    0    0 -0.51179122683E+01  0.43626743117E+02  0.99813715162E+01  0.46142317429E+02  0.99999969675E+01 0.  0.
         12    1    1    2    0    0  0.51179122683E+01 -0.43626743117E+02 -0.99813715162E+01  0.45045682571E+02  0.00000000000E+00 0. -1.
         11    1    3    3    0    0 -0.55207386343E+01  0.26282966295E+02  0.51882730872E+01  0.27353081184E+02  0.51100000000E-03 0. -1.
        -11    1    3    3    0    0  0.24446263191E+01  0.79212609397E+01  0.71391077979E+00  0.83205914199E+01  0.51100000000E-03 0.  1.
         12    1    3    3    0    0 -0.20417999532E+01  0.94225158819E+01  0.40791876492E+01  0.10468644825E+02  0.00000000000E+00 0. -1.
</event>
<event>
 7    1  0.2478637E-008  0.4614232E+02  0.7816164E-02  0.1320468E+00
        -11   -1    0    0    0    0  0.00000000000E+00  0.00000000000E+00  0.45593999997E+02  0.45594000000E+02  0.51100000000E-03 0.  1.
         11   -1    0    0    0    0 -0.00000000000E+00 -0.00000000000E+00 -0.45593999997E+02  0.45594000000E+02  0.51100000000E-03 0. -1.
    9900012    2    1    2    0    0 -0.38824738300E+02  0.12547757505E+02  0.19086822908E+02  0.46142319506E+02  0.10000015912E+02 0.  0.
         12    1    1    2    0    0  0.38824738300E+02 -0.12547757505E+02 -0.19086822908E+02  0.45045680494E+02  0.00000000000E+00 0. -1.
         11    1    3    3    0    0 -0.22448474220E+01  0.12682015933E+00  0.82974963180E+00  0.23966451580E+01  0.51100000000E-03 0. -1.
        -11    1    3    3    0    0 -0.34384857849E+02  0.10461521048E+02  0.14001733233E+02  0.38572145464E+02  0.51100000000E-03 0.  1.
         12    1    3    3    0    0 -0.21950330289E+01  0.19594162977E+01  0.42553400439E+01  0.51735288842E+01  0.00000000000E+00 0. -1.
</event>
<event>
 7    1  0.2478637E-008  0.4614232E+02  0.7816164E-02  0.1320468E+00
        -11   -1    0    0    0    0  0.00000000000E+00  0.00000000000E+00  0.45593999997E+02  0.45594000000E+02  0.51100000000E-03 0. -1.
         11   -1    0    0    0    0 -0.00000000000E+00 -0.00000000000E+00 -0.45593999997E+02  0.45594000000E+02  0.51100000000E-03 0.  1.
    9900012    2    1    2    0    0  0.36401256122E+02 -0.25511496701E+02 -0.72955870247E+01  0.46142317619E+02  0.99999987021E+01 0.  0.
         12    1    1    2    0    0 -0.36401256122E+02  0.25511496701E+02  0.72955870247E+01  0.45045682381E+02  0.00000000000E+00 0. -1.
         11    1    3    3    0    0  0.13614607698E+02 -0.89115391002E+01 -0.12269788592E+01  0.16318043672E+02  0.51100000000E-03 0. -1.
        -11    1    3    3    0    0  0.22453275498E+02 -0.15207967698E+02 -0.41561251286E+01  0.27435474088E+02  0.51100000000E-03 0.  1.
        -12    1    3    3    0    0  0.33337292539E+00 -0.13919899026E+01 -0.19124830369E+01  0.23887998582E+01  0.00000000000E+00 0.  1.
</event>
<event>
 7    1  0.2478637E-008  0.4614232E+02  0.7816164E-02  0.1320468E+00
        -11   -1    0    0    0    0  0.00000000000E+00  0.00000000000E+00  0.45593999997E+02  0.45594000000E+02  0.51100000000E-03 0.  1.
         11   -1    0    0    0    0 -0.00000000000E+00 -0.00000000000E+00 -0.45593999997E+02  0.45594000000E+02  0.51100000000E-03 0. -1.
    9900012    2    1    2    0    0 -0.14972295192E+02  0.24800303768E+02  0.34494765316E+02  0.46142317360E+02  0.99999963418E+01 0.  0.
         12    1    1    2    0    0  0.14972295192E+02 -0.24800303768E+02 -0.34494765316E+02  0.45045682640E+02  0.00000000000E+00 0. -1.
         11    1    3    3    0    0 -0.16107510442E+01  0.33407045805E+01  0.19543747044E+01  0.41921840092E+01  0.51100000000E-03 0. -1.
        -11    1    3    3    0    0 -0.10883321798E+01  0.75065571857E+01  0.12489141303E+02  0.14612033344E+02  0.51100000000E-03 0.  1.
        -12    1    3    3    0    0 -0.12273211968E+02  0.13953042002E+02  0.20051249309E+02  0.27338100006E+02  0.00000000000E+00 0.  1.
</event>
<event>
 7    1  0.2478637E-008  0.4614232E+02  0.7816164E-02  0.1320468E+00
        -11   -1    0    0    0    0  0.00000000000E+00  0.00000000000E+00  0.45593999997E+02  0.45594000000E+02  0.51100000000E-03 0.  1.
         11   -1    0    0    0    0 -0.00000000000E+00 -0.00000000000E+00 -0.45593999997E+02  0.45594000000E+02  0.51100000000E-03 0. -1.
    9900012    2    1    2    0    0  0.24550248279E+02 -0.17662104153E+02  0.33383358005E+02  0.46142320902E+02  0.10000028641E+02 0.  0.
         12    1    1    2    0    0 -0.24550248279E+02  0.17662104153E+02 -0.33383358005E+02  0.45045679098E+02  0.00000000000E+00 0. -1.
         11    1    3    3    0    0  0.80972982320E+01 -0.98199856327E+01  0.12643285642E+02  0.17940207038E+02  0.51100000000E-03 0. -1.
        -11    1    3    3    0    0  0.16525109227E+02 -0.83718981718E+01  0.20453316638E+02  0.27595399539E+02  0.51100000000E-03 0.  1.
         12    1    3    3    0    0 -0.72159179694E-01  0.52977965127E+00  0.28675572568E+00  0.60671432514E+00  0.00000000000E+00 0. -1.
</event>
<event>
 7    1  0.2478637E-008  0.4614232E+02  0.7816164E-02  0.1320468E+00
        -11   -1    0    0    0    0  0.00000000000E+00  0.00000000000E+00  0.45593999997E+02  0.45594000000E+02  0.51100000000E-03 0.  1.
         11   -1    0    0    0    0 -0.00000000000E+00 -0.00000000000E+00 -0.45593999997E+02  0.45594000000E+02  0.51100000000E-03 0. -1.
    9900012    2    1    2    0    0 -0.23201603623E+02  0.16804551057E+01  0.38574281737E+02  0.46142317059E+02  0.99999936017E+01 0.  0.
         12    1    1    2    0    0  0.23201603623E+02 -0.16804551057E+01 -0.38574281737E+02  0.45045682941E+02  0.00000000000E+00 0. -1.
         11    1    3    3    0    0  0.13895909182E+00  0.36240203899E+00  0.38207407220E+00  0.54463356933E+00  0.51100000000E-03 0. -1.
        -11    1    3    3    0    0 -0.60960370346E+01 -0.48089310947E+00  0.17854131227E+02  0.18872279350E+02  0.51100000000E-03 0.  1.
        -12    1    3    3    0    0 -0.17244525681E+02  0.17989461762E+01  0.20338076437E+02  0.26725404140E+02  0.00000000000E+00 0.  1.
</event>
<event>
 7    1  0.2478637E-008  0.4614232E+02  0.7816164E-02  0.1320468E+00
        -11   -1    0    0    0    0  0.00000000000E+00  0.00000000000E+00  0.45593999997E+02  0.45594000000E+02  0.51100000000E-03 0.  1.
         11   -1    0    0    0    0 -0.00000000000E+00 -0.00000000000E+00 -0.45593999997E+02  0.45594000000E+02  0.51100000000E-03 0. -1.
    9900012    2    1    2    0    0  0.22524658478E+02  0.59611115634E+01  0.38551502596E+02  0.46142318264E+02  0.10000004586E+02 0.  0.
         12    1    1    2    0    0 -0.22524658478E+02 -0.59611115634E+01 -0.38551502596E+02  0.45045681736E+02  0.00000000000E+00 0. -1.
         11    1    3    3    0    0  0.14774676715E+01 -0.15778602889E+00  0.16972456516E+00  0.14955312904E+01  0.51100000000E-03 0. -1.
        -11    1    3    3    0    0  0.25097864708E+01 -0.12785368292E+01  0.55638090944E+01  0.62361571864E+01  0.51100000000E-03 0.  1.
        -12    1    3    3    0    0  0.18537404336E+02  0.73974344215E+01  0.32817968937E+02  0.38410629787E+02  0.00000000000E+00 0.  1.
</event>
<event>
 7    1  0.2478637E-008  0.4614232E+02  0.7816164E-02  0.1320468E+00
        -11   -1    0    0    0    0  0.00000000000E+00  0.00000000000E+00  0.45593999997E+02  0.45594000000E+02  0.51100000000E-03 0. -1.
         11   -1    0    0    0    0 -0.00000000000E+00 -0.00000000000E+00 -0.45593999997E+02  0.45594000000E+02  0.51100000000E-03 0.  1.
    9900012    2    1    2    0    0  0.40852452864E+02  0.15301378035E+02  0.11227571253E+02  0.46142318398E+02  0.10000005804E+02 0.  0.
         12    1    1    2    0    0 -0.40852452864E+02 -0.15301378035E+02 -0.11227571253E+02  0.45045681602E+02  0.00000000000E+00 0. -1.
         11    1    3    3    0    0  0.21321068125E+02  0.81890524679E+01  0.84147046781E+01  0.24340414569E+02  0.51100000000E-03 0. -1.
        -11    1    3    3    0    0  0.14872333057E+02  0.73553245264E+01  0.38273405721E+01  0.17027496162E+02  0.51100000000E-03 0.  1.
         12    1    3    3    0    0  0.46590516824E+01 -0.24299895978E+00 -0.10144739968E+01  0.47744076662E+01  0.00000000000E+00 0. -1.
</event>
<event>
 7    1  0.2478637E-008  0.4614232E+02  0.7816164E-02  0.1320468E+00
        -11   -1    0    0    0    0  0.00000000000E+00  0.00000000000E+00  0.45593999997E+02  0.45594000000E+02  0.51100000000E-03 0. -1.
         11   -1    0    0    0    0 -0.00000000000E+00 -0.00000000000E+00 -0.45593999997E+02  0.45594000000E+02  0.51100000000E-03 0.  1.
    9900012    2    1    2    0    0  0.39017211360E+02  0.41995015817E+01  0.22116394896E+02  0.46142317420E+02  0.99999968922E+01 0.  0.
         12    1    1    2    0    0 -0.39017211360E+02 -0.41995015817E+01 -0.22116394896E+02  0.45045682580E+02  0.00000000000E+00 0. -1.
         11    1    3    3    0    0  0.24657160133E+02 -0.10068673711E+00  0.15636176996E+02  0.29197186764E+02  0.51100000000E-03 0.  1.
        -11    1    3    3    0    0  0.80195930487E+01  0.24679433731E+01  0.11653838074E+01  0.84712889716E+01  0.51100000000E-03 0. -1.
         12    1    3    3    0    0  0.63404581781E+01  0.18322449458E+01  0.53148340935E+01  0.84738416844E+01  0.00000000000E+00 0. -1.
</event>
<event>
 7    1  0.2478637E-008  0.4614232E+02  0.7816164E-02  0.1320468E+00
        -11   -1    0    0    0    0  0.00000000000E+00  0.00000000000E+00  0.45593999997E+02  0.45594000000E+02  0.51100000000E-03 0. -1.
         11   -1    0    0    0    0 -0.00000000000E+00 -0.00000000000E+00 -0.45593999997E+02  0.45594000000E+02  0.51100000000E-03 0.  1.
    9900012    2    1    2    0    0 -0.32858364190E+02 -0.20036682234E+02 -0.23408817818E+02  0.46142317812E+02  0.10000000464E+02 0.  0.
         12    1    1    2    0    0  0.32858364190E+02  0.20036682234E+02  0.23408817818E+02  0.45045682188E+02  0.00000000000E+00 0. -1.
         11    1    3    3    0    0 -0.38806752086E+01 -0.22282029468E+01 -0.74477543448E+00  0.45364324260E+01  0.51100000000E-03 0. -1.
        -11    1    3    3    0    0 -0.29141764041E+02 -0.16935020943E+02 -0.22819847121E+02  0.40703596507E+02  0.51100000000E-03 0.  1.
        -12    1    3    3    0    0  0.16407505947E+00 -0.87345834396E+00  0.15580473825E+00  0.90228887849E+00  0.00000000000E+00 0.  1.
</event>
<event>
 7    1  0.2478637E-008  0.4614232E+02  0.7816164E-02  0.1320468E+00
        -11   -1    0    0    0    0  0.00000000000E+00  0.00000000000E+00  0.45593999997E+02  0.45594000000E+02  0.51100000000E-03 0.  1.
         11   -1    0    0    0    0 -0.00000000000E+00 -0.00000000000E+00 -0.45593999997E+02  0.45594000000E+02  0.51100000000E-03 0. -1.
    9900012    2    1    2    0    0 -0.13598977877E+02  0.16549932177E+02  0.39626771450E+02  0.46142317966E+02  0.10000001872E+02 0.  0.
         12    1    1    2    0    0  0.13598977877E+02 -0.16549932177E+02 -0.39626771450E+02  0.45045682034E+02  0.00000000000E+00 0. -1.
         11    1    3    3    0    0 -0.78517928320E+01  0.10591934292E+02  0.19476606296E+02  0.23519734603E+02  0.51100000000E-03 0. -1.
        -11    1    3    3    0    0 -0.59523872181E+01  0.59276505049E+01  0.13053863145E+02  0.15523250219E+02  0.51100000000E-03 0.  1.
         12    1    3    3    0    0  0.20520217354E+00  0.30347380573E-01  0.70963020088E+01  0.70993331444E+01  0.00000000000E+00 0. -1.
</event>
<event>
 7    1  0.2922427E-008  0.4614232E+02  0.7816164E-02  0.1320468E+00
        -11   -1    0    0    0    0  0.00000000000E+00  0.00000000000E+00  0.45593999997E+02  0.45594000000E+02  0.51100000000E-03 0. -1.
         11   -1    0    0    0    0 -0.00000000000E+00 -0.00000000000E+00 -0.45593999997E+02  0.45594000000E+02  0.51100000000E-03 0.  1.
    9900012    2    1    2    0    0  0.28865302640E+02  0.16601058952E+01 -0.34542030350E+02  0.46142317534E+02  0.99999979293E+01 0.  0.
         12    1    1    2    0    0 -0.28865302640E+02 -0.16601058952E+01  0.34542030350E+02  0.45045682466E+02  0.00000000000E+00 0. -1.
         11    1    3    3    0    0  0.32402189794E+01  0.18866720295E+01 -0.13214932942E+01  0.39755370920E+01  0.51100000000E-03 0. -1.
        -11    1    3    3    0    0  0.23683648899E+00  0.17639839751E+00 -0.15323242691E+01  0.15605210168E+01  0.51100000000E-03 0.  1.
        -12    1    3    3    0    0  0.25388247172E+02 -0.40296453183E+00 -0.31688212787E+02  0.40606259425E+02  0.00000000000E+00 0.  1.
</event>
<event>
 7    1  0.2478637E-008  0.4614232E+02  0.7816164E-02  0.1320468E+00
        -11   -1    0    0    0    0  0.00000000000E+00  0.00000000000E+00  0.45593999997E+02  0.45594000000E+02  0.51100000000E-03 0.  1.
         11   -1    0    0    0    0 -0.00000000000E+00 -0.00000000000E+00 -0.45593999997E+02  0.45594000000E+02  0.51100000000E-03 0. -1.
    9900012    2    1    2    0    0 -0.43386736589E+02  0.12109346627E+02  0.26132799420E+00  0.46142317855E+02  0.10000000854E+02 0.  0.
         12    1    1    2    0    0  0.43386736589E+02 -0.12109346627E+02 -0.26132799420E+00  0.45045682145E+02  0.00000000000E+00 0. -1.
         11    1    3    3    0    0 -0.41200808496E+01  0.28330750151E+01  0.12666952744E+00  0.50017422643E+01  0.51100000000E-03 0. -1.
        -11    1    3    3    0    0 -0.17616725247E+02  0.82756057150E+01  0.33680409275E+00  0.19466589214E+02  0.51100000000E-03 0.  1.
         12    1    3    3    0    0 -0.21649930493E+02  0.10006658968E+01 -0.20214562599E+00  0.21673986376E+02  0.00000000000E+00 0. -1.
</event>
<event>
 7    1  0.2478637E-008  0.4614231E+02  0.7816164E-02  0.1320468E+00
        -11   -1    0    0    0    0  0.00000000000E+00  0.00000000000E+00  0.45593999997E+02  0.45594000000E+02  0.51100000000E-03 0. -1.
         11   -1    0    0    0    0 -0.00000000000E+00 -0.00000000000E+00 -0.45593999997E+02  0.45594000000E+02  0.51100000000E-03 0.  1.
    9900012    2    1    2    0    0 -0.44964505316E+02  0.19969739151E+01  0.18219292696E+01  0.46142311312E+02  0.99999411890E+01 0.  0.
         12    1    1    2    0    0  0.44964505316E+02 -0.19969739151E+01 -0.18219292696E+01  0.45045688688E+02  0.00000000000E+00 0. -1.
         11    1    3    3    0    0 -0.23649851760E+02  0.47661776472E+00  0.35998954219E+01  0.23927011933E+02  0.51100000000E-03 0. -1.
        -11    1    3    3    0    0 -0.10984796789E+01  0.14746463512E+01 -0.70921285375E+00  0.19708431189E+01  0.51100000000E-03 0.  1.
        -12    1    3    3    0    0 -0.20216173878E+02  0.45709799184E-01 -0.10687532985E+01  0.20244456260E+02  0.00000000000E+00 0.  1.
</event>
<event>
 7    1  0.2478637E-008  0.4614231E+02  0.7816164E-02  0.1320468E+00
        -11   -1    0    0    0    0  0.00000000000E+00  0.00000000000E+00  0.45593999997E+02  0.45594000000E+02  0.51100000000E-03 0. -1.
         11   -1    0    0    0    0 -0.00000000000E+00 -0.00000000000E+00 -0.45593999997E+02  0.45594000000E+02  0.51100000000E-03 0.  1.
    9900012    2    1    2    0    0  0.40484567483E+02  0.13714281232E+02 -0.14213807535E+02  0.46142311653E+02  0.99999442993E+01 0.  0.
         12    1    1    2    0    0 -0.40484567483E+02 -0.13714281232E+02  0.14213807535E+02  0.45045688347E+02  0.00000000000E+00 0. -1.
         11    1    3    3    0    0  0.16621464874E+02  0.54256467590E+01 -0.53748092404E+01  0.18292055979E+02  0.51100000000E-03 0. -1.
        -11    1    3    3    0    0  0.21698120538E+02  0.57195102340E+01 -0.95981603958E+01  0.24405858220E+02  0.51100000000E-03 0.  1.
         12    1    3    3    0    0  0.21649820717E+01  0.25691242390E+01  0.75916210123E+00  0.34443974541E+01  0.00000000000E+00 0. -1.
</event>
<event>
 7    1  0.2478637E-008  0.4614232E+02  0.7816164E-02  0.1320468E+00
        -11   -1    0    0    0    0  0.00000000000E+00  0.00000000000E+00  0.45593999997E+02  0.45594000000E+02  0.51100000000E-03 0. -1.
         11   -1    0    0    0    0 -0.00000000000E+00 -0.00000000000E+00 -0.45593999997E+02  0.45594000000E+02  0.51100000000E-03 0.  1.
    9900012    2    1    2    0    0  0.16640024480E+00 -0.44353462516E+02 -0.78648700172E+01  0.46142317559E+02  0.99999981543E+01 0.  0.
         12    1    1    2    0    0 -0.16640024480E+00  0.44353462516E+02  0.78648700172E+01  0.45045682441E+02  0.00000000000E+00 0. -1.
         11    1    3    3    0    0  0.14314721809E+01 -0.89436558444E+01 -0.39303009740E+01  0.98734673988E+01  0.51100000000E-03 0. -1.
        -11    1    3    3    0    0  0.69310768153E+00 -0.90747320208E+01 -0.37950438700E+01  0.98607057427E+01  0.51100000000E-03 0.  1.
        -12    1    3    3    0    0 -0.19581796176E+01 -0.26335074651E+02 -0.13952517320E+00  0.26408144417E+02  0.00000000000E+00 0.  1.
</event>
<event>
 7    1  0.2478637E-008  0.4614232E+02  0.7816164E-02  0.1320468E+00
        -11   -1    0    0    0    0  0.00000000000E+00  0.00000000000E+00  0.45593999997E+02  0.45594000000E+02  0.51100000000E-03 0. -1.
         11   -1    0    0    0    0 -0.00000000000E+00 -0.00000000000E+00 -0.45593999997E+02  0.45594000000E+02  0.51100000000E-03 0.  1.
    9900012    2    1    2    0    0 -0.31231652984E+02 -0.17547760556E+02  0.27308852939E+02  0.46142317659E+02  0.99999990722E+01 0.  0.
         12    1    1    2    0    0  0.31231652984E+02  0.17547760556E+02 -0.27308852939E+02  0.45045682341E+02  0.00000000000E+00 0. -1.
         11    1    3    3    0    0 -0.55681553044E+01 -0.10262031235E+01  0.23985166230E+01  0.61490103754E+01  0.51100000000E-03 0. -1.
        -11    1    3    3    0    0 -0.12914732993E+02 -0.91497420995E+01  0.85800928220E+01  0.18003502489E+02  0.51100000000E-03 0.  1.
         12    1    3    3    0    0 -0.12748764687E+02 -0.73718153335E+01  0.16330243494E+02  0.21989804795E+02  0.00000000000E+00 0. -1.
</event>
<event>
 7    1  0.2478637E-008  0.4614232E+02  0.7816164E-02  0.1320468E+00
        -11   -1    0    0    0    0  0.00000000000E+00  0.00000000000E+00  0.45593999997E+02  0.45594000000E+02  0.51100000000E-03 0.  1.
         11   -1    0    0    0    0 -0.00000000000E+00 -0.00000000000E+00 -0.45593999997E+02  0.45594000000E+02  0.51100000000E-03 0. -1.
    9900012    2    1    2    0    0 -0.39901287333E+02  0.18549639864E+02  0.96390678078E+01  0.46142317653E+02  0.99999990111E+01 0.  0.
         12    1    1    2    0    0  0.39901287333E+02 -0.18549639864E+02 -0.96390678078E+01  0.45045682347E+02  0.00000000000E+00 0. -1.
         11    1    3    3    0    0 -0.10685630706E+02  0.10013288420E+01  0.65718107884E+00  0.10752546222E+02  0.51100000000E-03 0. -1.
        -11    1    3    3    0    0 -0.80324509375E+01  0.42774216757E+01  0.10295841912E+01  0.91584195210E+01  0.51100000000E-03 0.  1.
        -12    1    3    3    0    0 -0.21183205690E+02  0.13270889346E+02  0.79523025378E+01  0.26231351909E+02  0.00000000000E+00 0.  1.
</event>
<event>
 7    1  0.2478637E-008  0.4614232E+02  0.7816164E-02  0.1320468E+00
        -11   -1    0    0    0    0  0.00000000000E+00  0.00000000000E+00  0.45593999997E+02  0.45594000000E+02  0.51100000000E-03 0. -1.
         11   -1    0    0    0    0 -0.00000000000E+00 -0.00000000000E+00 -0.45593999997E+02  0.45594000000E+02  0.51100000000E-03 0.  1.
    9900012    2    1    2    0    0 -0.12927825899E+02  0.42803898399E+02 -0.54599535014E+01  0.46142317711E+02  0.99999995448E+01 0.  0.
         12    1    1    2    0    0  0.12927825899E+02 -0.42803898399E+02  0.54599535014E+01  0.45045682289E+02  0.00000000000E+00 0. -1.
         11    1    3    3    0    0 -0.36219278644E+01  0.30632819126E+01  0.20071110496E+00  0.47478777090E+01  0.51100000000E-03 0. -1.
        -11    1    3    3    0    0 -0.39118232257E+01  0.25071859353E+02 -0.36619862408E+01  0.25638070049E+02  0.51100000000E-03 0.  1.
         12    1    3    3    0    0 -0.53940748085E+01  0.14668757133E+02 -0.19986783655E+01  0.15756369953E+02  0.00000000000E+00 0. -1.
</event>
<event>
 7    1  0.2478637E-008  0.4614232E+02  0.7816164E-02  0.1320468E+00
        -11   -1    0    0    0    0  0.00000000000E+00  0.00000000000E+00  0.45593999997E+02  0.45594000000E+02  0.51100000000E-03 0.  1.
         11   -1    0    0    0    0 -0.00000000000E+00 -0.00000000000E+00 -0.45593999997E+02  0.45594000000E+02  0.51100000000E-03 0. -1.
    9900012    2    1    2    0    0 -0.40069922817E+02 -0.18793009848E+02 -0.83867444816E+01  0.46142318556E+02  0.10000007252E+02 0.  0.
         12    1    1    2    0    0  0.40069922817E+02  0.18793009848E+02  0.83867444816E+01  0.45045681444E+02  0.00000000000E+00 0. -1.
         11    1    3    3    0    0 -0.10725470928E+02 -0.61189426039E+01 -0.46558593684E+01  0.13196750052E+02  0.51100000000E-03 0. -1.
        -11    1    3    3    0    0 -0.10736597857E+02 -0.10424234657E+01 -0.14158279318E+01  0.10879602438E+02  0.51100000000E-03 0.  1.
         12    1    3    3    0    0 -0.18607854032E+02 -0.11631643778E+02 -0.23150571815E+01  0.22065966066E+02  0.00000000000E+00 0. -1.
</event>
<event>
 7    1  0.2478637E-008  0.4614232E+02  0.7816164E-02  0.1320468E+00
        -11   -1    0    0    0    0  0.00000000000E+00  0.00000000000E+00  0.45593999997E+02  0.45594000000E+02  0.51100000000E-03 0. -1.
         11   -1    0    0    0    0 -0.00000000000E+00 -0.00000000000E+00 -0.45593999997E+02  0.45594000000E+02  0.51100000000E-03 0.  1.
    9900012    2    1    2    0    0  0.24285282720E+02  0.13495888627E+02 -0.35457009708E+02  0.46142317587E+02  0.99999984099E+01 0.  0.
         12    1    1    2    0    0 -0.24285282720E+02 -0.13495888627E+02  0.35457009708E+02  0.45045682413E+02  0.00000000000E+00 0. -1.
         11    1    3    3    0    0  0.68529593126E+01  0.29206119586E-01 -0.69885229357E+01  0.97879189526E+01  0.51100000000E-03 0. -1.
        -11    1    3    3    0    0  0.75060876879E+01  0.43893685485E+01 -0.77227754595E+01  0.11629667652E+02  0.51100000000E-03 0.  1.
         12    1    3    3    0    0  0.99262357198E+01  0.90773139587E+01 -0.20745711313E+02  0.24724730982E+02  0.00000000000E+00 0. -1.
</event>
<event>
 7    1  0.2478637E-008  0.4614232E+02  0.7816164E-02  0.1320468E+00
        -11   -1    0    0    0    0  0.00000000000E+00  0.00000000000E+00  0.45593999997E+02  0.45594000000E+02  0.51100000000E-03 0. -1.
         11   -1    0    0    0    0 -0.00000000000E+00 -0.00000000000E+00 -0.45593999997E+02  0.45594000000E+02  0.51100000000E-03 0.  1.
    9900012    2    1    2    0    0  0.14571083716E+02  0.23096366511E+02 -0.35823942288E+02  0.46142317990E+02  0.10000002085E+02 0.  0.
         12    1    1    2    0    0 -0.14571083716E+02 -0.23096366511E+02  0.35823942288E+02  0.45045682010E+02  0.00000000000E+00 0. -1.
         11    1    3    3    0    0 -0.10562486906E+01  0.48556683229E+00 -0.35826945531E+00  0.12164677180E+01  0.51100000000E-03 0. -1.
        -11    1    3    3    0    0  0.28771864676E+01  0.50929599504E+01 -0.63573448518E+01  0.86389974449E+01  0.51100000000E-03 0.  1.
         12    1    3    3    0    0  0.12750145939E+02  0.17517839728E+02 -0.29108327981E+02  0.36286852827E+02  0.00000000000E+00 0. -1.
</event>
<event>
 7    1  0.2478637E-008  0.4614232E+02  0.7816164E-02  0.1320468E+00
        -11   -1    0    0    0    0  0.00000000000E+00  0.00000000000E+00  0.45593999997E+02  0.45594000000E+02  0.51100000000E-03 0.  1.
         11   -1    0    0    0    0 -0.00000000000E+00 -0.00000000000E+00 -0.45593999997E+02  0.45594000000E+02  0.51100000000E-03 0. -1.
    9900012    2    1    2    0    0 -0.33569369325E+02 -0.12787768695E+02  0.27178743625E+02  0.46142315522E+02  0.99999795837E+01 0.  0.
         12    1    1    2    0    0  0.33569369325E+02  0.12787768695E+02 -0.27178743625E+02  0.45045684478E+02  0.00000000000E+00 0. -1.
         11    1    3    3    0    0 -0.39284176938E+01 -0.23461021462E+01  0.76444065189E+01  0.89091869520E+01  0.51100000000E-03 0. -1.
        -11    1    3    3    0    0 -0.63377935175E+01 -0.12209256595E+01  0.56785250787E+01  0.85967396999E+01  0.51100000000E-03 0.  1.
        -12    1    3    3    0    0 -0.23303158113E+02 -0.92207408891E+01  0.13855812027E+02  0.28636388870E+02  0.00000000000E+00 0.  1.
</event>
<event>
 7    1  0.2478637E-008  0.4614232E+02  0.7816164E-02  0.1320468E+00
        -11   -1    0    0    0    0  0.00000000000E+00  0.00000000000E+00  0.45593999997E+02  0.45594000000E+02  0.51100000000E-03 0. -1.
         11   -1    0    0    0    0 -0.00000000000E+00 -0.00000000000E+00 -0.45593999997E+02  0.45594000000E+02  0.51100000000E-03 0.  1.
    9900012    2    1    2    0    0 -0.11520599141E+02  0.25446096941E+01 -0.43473144530E+02  0.46142317206E+02  0.99999949365E+01 0.  0.
         12    1    1    2    0    0  0.11520599141E+02 -0.25446096941E+01  0.43473144530E+02  0.45045682794E+02  0.00000000000E+00 0. -1.
         11    1    3    3    0    0 -0.73478679345E+01 -0.13224489222E+01 -0.14872944960E+02  0.16641650350E+02  0.51100000000E-03 0. -1.
        -11    1    3    3    0    0 -0.49375381884E+01  0.38960675000E+01 -0.27053066930E+02  0.27774575710E+02  0.51100000000E-03 0.  1.
        -12    1    3    3    0    0  0.76480698194E+00 -0.29008883661E-01 -0.15471326409E+01  0.17260911458E+01  0.00000000000E+00 0.  1.
</event>
<event>
 7    1  0.2478637E-008  0.4614232E+02  0.7816164E-02  0.1320468E+00
        -11   -1    0    0    0    0  0.00000000000E+00  0.00000000000E+00  0.45593999997E+02  0.45594000000E+02  0.51100000000E-03 0. -1.
         11   -1    0    0    0    0 -0.00000000000E+00 -0.00000000000E+00 -0.45593999997E+02  0.45594000000E+02  0.51100000000E-03 0.  1.
    9900012    2    1    2    0    0  0.34882327949E+02 -0.27881122542E+02  0.59143406217E+01  0.46142320714E+02  0.10000026923E+02 0.  0.
         12    1    1    2    0    0 -0.34882327949E+02  0.27881122542E+02 -0.59143406217E+01  0.45045679286E+02  0.00000000000E+00 0. -1.
         11    1    3    3    0    0  0.29172172702E+02 -0.21809252030E+02  0.23533691761E+01  0.36499280554E+02  0.51100000000E-03 0. -1.
        -11    1    3    3    0    0  0.45729921610E+01 -0.38065760210E+01  0.98833255157E+00  0.60315072579E+01  0.51100000000E-03 0.  1.
         12    1    3    3    0    0  0.11371630866E+01 -0.22652944914E+01  0.25726388940E+01  0.36115329013E+01  0.00000000000E+00 0. -1.
</event>
<event>
 7    1  0.2478637E-008  0.4614232E+02  0.7816164E-02  0.1320468E+00
        -11   -1    0    0    0    0  0.00000000000E+00  0.00000000000E+00  0.45593999997E+02  0.45594000000E+02  0.51100000000E-03 0.  1.
         11   -1    0    0    0    0 -0.00000000000E+00 -0.00000000000E+00 -0.45593999997E+02  0.45594000000E+02  0.51100000000E-03 0. -1.
    9900012    2    1    2    0    0  0.21515824399E+02  0.26915509824E+02  0.29012723467E+02  0.46142317725E+02  0.99999996736E+01 0.  0.
         12    1    1    2    0    0 -0.21515824399E+02 -0.26915509824E+02 -0.29012723467E+02  0.45045682275E+02  0.00000000000E+00 0. -1.
         11    1    3    3    0    0  0.37882528172E+01  0.51200739272E+01  0.20569182857E+01  0.66930508381E+01  0.51100000000E-03 0. -1.
        -11    1    3    3    0    0  0.52811723443E+01  0.34546677516E+01  0.86190270224E+01  0.10682375095E+02  0.51100000000E-03 0.  1.
        -12    1    3    3    0    0  0.12446399237E+02  0.18340768145E+02  0.18336778159E+02  0.28766891792E+02  0.00000000000E+00 0.  1.
</event>
<event>
 7    1  0.2478637E-008  0.4614232E+02  0.7816164E-02  0.1320468E+00
        -11   -1    0    0    0    0  0.00000000000E+00  0.00000000000E+00  0.45593999997E+02  0.45594000000E+02  0.51100000000E-03 0. -1.
         11   -1    0    0    0    0 -0.00000000000E+00 -0.00000000000E+00 -0.45593999997E+02  0.45594000000E+02  0.51100000000E-03 0.  1.
    9900012    2    1    2    0    0  0.24961570123E+02 -0.24209287245E+02 -0.28634662913E+02  0.46142317720E+02  0.99999996266E+01 0.  0.
         12    1    1    2    0    0 -0.24961570123E+02  0.24209287245E+02  0.28634662913E+02  0.45045682280E+02  0.00000000000E+00 0. -1.
         11    1    3    3    0    0  0.16416646363E+02 -0.14629970869E+02 -0.17947224692E+02  0.28383889794E+02  0.51100000000E-03 0.  1.
        -11    1    3    3    0    0  0.60505453406E+01 -0.87336015806E+01 -0.55541976889E+01  0.11988911865E+02  0.51100000000E-03 0. -1.
         12    1    3    3    0    0  0.24943784196E+01 -0.84571479553E+00 -0.51332405325E+01  0.57695160612E+01  0.00000000000E+00 0. -1.
</event>
<event>
 7    1  0.2478637E-008  0.4614232E+02  0.7816164E-02  0.1320468E+00
        -11   -1    0    0    0    0  0.00000000000E+00  0.00000000000E+00  0.45593999997E+02  0.45594000000E+02  0.51100000000E-03 0. -1.
         11   -1    0    0    0    0 -0.00000000000E+00 -0.00000000000E+00 -0.45593999997E+02  0.45594000000E+02  0.51100000000E-03 0.  1.
    9900012    2    1    2    0    0 -0.36365539424E+02 -0.10623940367E+02 -0.24367865625E+02  0.46142318280E+02  0.10000004735E+02 0.  0.
         12    1    1    2    0    0  0.36365539424E+02  0.10623940367E+02  0.24367865625E+02  0.45045681720E+02  0.00000000000E+00 0. -1.
         11    1    3    3    0    0 -0.65427457642E+01  0.97529033199E+00 -0.14546744010E+01  0.67730931812E+01  0.51100000000E-03 0. -1.
        -11    1    3    3    0    0 -0.10172030205E+02 -0.43574561482E+01 -0.82748691350E+01  0.13817781372E+02  0.51100000000E-03 0.  1.
         12    1    3    3    0    0 -0.19650763454E+02 -0.72417745505E+01 -0.14638322089E+02  0.25551443727E+02  0.00000000000E+00 0. -1.
</event>
<event>
 7    1  0.2478637E-008  0.4614232E+02  0.7816164E-02  0.1320468E+00
        -11   -1    0    0    0    0  0.00000000000E+00  0.00000000000E+00  0.45593999997E+02  0.45594000000E+02  0.51100000000E-03 0.  1.
         11   -1    0    0    0    0 -0.00000000000E+00 -0.00000000000E+00 -0.45593999997E+02  0.45594000000E+02  0.51100000000E-03 0. -1.
    9900012    2    1    2    0    0 -0.41882747900E+01 -0.43171096930E+02  0.12158456747E+02  0.46142319559E+02  0.10000016399E+02 0.  0.
         12    1    1    2    0    0  0.41882747900E+01  0.43171096930E+02 -0.12158456747E+02  0.45045680441E+02  0.00000000000E+00 0. -1.
         11    1    3    3    0    0  0.10762148125E+01 -0.22557703023E+02  0.65083815813E+01  0.23502494231E+02  0.51100000000E-03 0. -1.
        -11    1    3    3    0    0 -0.24741268926E+01 -0.16419148432E+02  0.27608655946E+01  0.16832472136E+02  0.51100000000E-03 0.  1.
         12    1    3    3    0    0 -0.27903627098E+01 -0.41942454748E+01  0.28892095711E+01  0.58073531924E+01  0.00000000000E+00 0. -1.
</event>
<event>
 7    1  0.2478637E-008  0.4614232E+02  0.7816164E-02  0.1320468E+00
        -11   -1    0    0    0    0  0.00000000000E+00  0.00000000000E+00  0.45593999997E+02  0.45594000000E+02  0.51100000000E-03 0.  1.
         11   -1    0    0    0    0 -0.00000000000E+00 -0.00000000000E+00 -0.45593999997E+02  0.45594000000E+02  0.51100000000E-03 0. -1.
    9900012    2    1    2    0    0 -0.20152192732E+02  0.18535200137E+02  0.35769384767E+02  0.46142318713E+02  0.10000008679E+02 0.  0.
         12    1    1    2    0    0  0.20152192732E+02 -0.18535200137E+02 -0.35769384767E+02  0.45045681287E+02  0.00000000000E+00 0. -1.
         11    1    3    3    0    0 -0.19586981796E+01  0.30512681250E+01  0.38861290974E+01  0.53149539370E+01  0.51100000000E-03 0. -1.
        -11    1    3    3    0    0 -0.13163045456E+02  0.10531620982E+02  0.15145867322E+02  0.22662261656E+02  0.51100000000E-03 0.  1.
         12    1    3    3    0    0 -0.50304490959E+01  0.49523110300E+01  0.16737388348E+02  0.18165103119E+02  0.00000000000E+00 0. -1.
</event>
<event>
 7    1  0.2478637E-008  0.4614232E+02  0.7816164E-02  0.1320468E+00
        -11   -1    0    0    0    0  0.00000000000E+00  0.00000000000E+00  0.45593999997E+02  0.45594000000E+02  0.51100000000E-03 0.  1.
         11   -1    0    0    0    0 -0.00000000000E+00 -0.00000000000E+00 -0.45593999997E+02  0.45594000000E+02  0.51100000000E-03 0. -1.
    9900012    2    1    2    0    0  0.38593033377E+02 -0.20643638197E+02  0.10655096405E+02  0.46142322043E+02  0.10000039045E+02 0.  0.
         12    1    1    2    0    0 -0.38593033377E+02  0.20643638197E+02 -0.10655096405E+02  0.45045677957E+02  0.00000000000E+00 0. -1.
         11    1    3    3    0    0 -0.26451353259E+00 -0.16943372207E+00  0.16096077945E+00  0.35296434486E+00  0.51100000000E-03 0. -1.
        -11    1    3    3    0    0  0.19403967142E+02 -0.65701632882E+01  0.28367083944E+01  0.20681583625E+02  0.51100000000E-03 0.  1.
        -12    1    3    3    0    0  0.19453579767E+02 -0.13904041187E+02  0.76574272313E+01  0.25107774073E+02  0.00000000000E+00 0.  1.
</event>
<event>
 7    1  0.2478637E-008  0.4614232E+02  0.7816164E-02  0.1320468E+00
        -11   -1    0    0    0    0  0.00000000000E+00  0.00000000000E+00  0.45593999997E+02  0.45594000000E+02  0.51100000000E-03 0.  1.
         11   -1    0    0    0    0 -0.00000000000E+00 -0.00000000000E+00 -0.45593999997E+02  0.45594000000E+02  0.51100000000E-03 0. -1.
    9900012    2    1    2    0    0  0.17247593245E+02  0.11535815239E+02  0.39981984245E+02  0.46142316853E+02  0.99999917205E+01 0.  0.
         12    1    1    2    0    0 -0.17247593245E+02 -0.11535815239E+02 -0.39981984245E+02  0.45045683147E+02  0.00000000000E+00 0. -1.
         11    1    3    3    0    0  0.49069501389E+01  0.19109343351E+00  0.13491407398E+02  0.14357323922E+02  0.51100000000E-03 0. -1.
        -11    1    3    3    0    0  0.10850056553E+02  0.88245232147E+01  0.24606200430E+02  0.28303021695E+02  0.51100000000E-03 0.  1.
         12    1    3    3    0    0  0.14905865531E+01  0.25201985911E+01  0.18843764172E+01  0.34819712367E+01  0.00000000000E+00 0. -1.
</event>
<event>
 7    1  0.2478637E-008  0.4614232E+02  0.7816164E-02  0.1320468E+00
        -11   -1    0    0    0    0  0.00000000000E+00  0.00000000000E+00  0.45593999997E+02  0.45594000000E+02  0.51100000000E-03 0. -1.
         11   -1    0    0    0    0 -0.00000000000E+00 -0.00000000000E+00 -0.45593999997E+02  0.45594000000E+02  0.51100000000E-03 0.  1.
    9900012    2    1    2    0    0  0.15428968890E+02  0.33494527414E+02  0.25868455762E+02  0.46142318173E+02  0.10000003758E+02 0.  0.
         12    1    1    2    0    0 -0.15428968890E+02 -0.33494527414E+02 -0.25868455762E+02  0.45045681827E+02  0.00000000000E+00 0. -1.
         11    1    3    3    0    0  0.13981093614E+00  0.54141919200E+01  0.23539308999E+01  0.59054222700E+01  0.51100000000E-03 0. -1.
        -11    1    3    3    0    0  0.88724521964E+01  0.10572638017E+02  0.78137116462E+01  0.15860490931E+02  0.51100000000E-03 0.  1.
         12    1    3    3    0    0  0.64167057575E+01  0.17507697477E+02  0.15700813216E+02  0.24376404972E+02  0.00000000000E+00 0. -1.
</event>
<event>
 7    1  0.2478637E-008  0.4614232E+02  0.7816164E-02  0.1320468E+00
        -11   -1    0    0    0    0  0.00000000000E+00  0.00000000000E+00  0.45593999997E+02  0.45594000000E+02  0.51100000000E-03 0. -1.
         11   -1    0    0    0    0 -0.00000000000E+00 -0.00000000000E+00 -0.45593999997E+02  0.45594000000E+02  0.51100000000E-03 0.  1.
    9900012    2    1    2    0    0 -0.17067843591E+02  0.41577421627E+02  0.30199681255E+01  0.46142317837E+02  0.10000000695E+02 0.  0.
         12    1    1    2    0    0  0.17067843591E+02 -0.41577421627E+02 -0.30199681255E+01  0.45045682163E+02  0.00000000000E+00 0. -1.
         11    1    3    3    0    0 -0.23678035737E+01  0.11022767376E+02  0.48763782304E+00  0.11284754552E+02  0.51100000000E-03 0. -1.
        -11    1    3    3    0    0 -0.31043099494E+01  0.10705595660E+02 -0.22649458930E+01  0.11374379054E+02  0.51100000000E-03 0.  1.
         12    1    3    3    0    0 -0.11595730068E+02  0.19849058591E+02  0.47972761954E+01  0.23483184232E+02  0.00000000000E+00 0. -1.
</event>
<event>
 7    1  0.2478637E-008  0.4614232E+02  0.7816164E-02  0.1320468E+00
        -11   -1    0    0    0    0  0.00000000000E+00  0.00000000000E+00  0.45593999997E+02  0.45594000000E+02  0.51100000000E-03 0.  1.
         11   -1    0    0    0    0 -0.00000000000E+00 -0.00000000000E+00 -0.45593999997E+02  0.45594000000E+02  0.51100000000E-03 0. -1.
    9900012    2    1    2    0    0 -0.98555753163E+01 -0.28137852648E+02  0.33767478186E+02  0.46142315418E+02  0.99999786311E+01 0.  0.
         12    1    1    2    0    0  0.98555753163E+01  0.28137852648E+02 -0.33767478186E+02  0.45045684582E+02  0.00000000000E+00 0. -1.
         11    1    3    3    0    0 -0.22305316576E+00 -0.28256310109E+01  0.53674786932E+01  0.60699070098E+01  0.51100000000E-03 0. -1.
        -11    1    3    3    0    0 -0.68229211598E+01 -0.19870071574E+02  0.26158415161E+02  0.33550479602E+02  0.51100000000E-03 0.  1.
        -12    1    3    3    0    0 -0.28096009906E+01 -0.54421500632E+01  0.22415843314E+01  0.65219288061E+01  0.00000000000E+00 0.  1.
</event>
<event>
 7    1  0.2478637E-008  0.4614232E+02  0.7816164E-02  0.1320468E+00
        -11   -1    0    0    0    0  0.00000000000E+00  0.00000000000E+00  0.45593999997E+02  0.45594000000E+02  0.51100000000E-03 0.  1.
         11   -1    0    0    0    0 -0.00000000000E+00 -0.00000000000E+00 -0.45593999997E+02  0.45594000000E+02  0.51100000000E-03 0. -1.
    9900012    2    1    2    0    0 -0.11890734815E+02  0.27043700454E+02  0.34005322743E+02  0.46142320035E+02  0.10000020731E+02 0.  0.
         12    1    1    2    0    0  0.11890734815E+02 -0.27043700454E+02 -0.34005322743E+02  0.45045679965E+02  0.00000000000E+00 0. -1.
         11    1    3    3    0    0  0.56392015559E+00  0.42932988364E+01  0.29539072811E+01  0.52417544131E+01  0.51100000000E-03 0. -1.
        -11    1    3    3    0    0 -0.11574621119E+01  0.59279542908E+01  0.46687784131E+01  0.76339932372E+01  0.51100000000E-03 0.  1.
        -12    1    3    3    0    0 -0.11297192858E+02  0.16822447327E+02  0.26382637049E+02  0.33266572384E+02  0.00000000000E+00 0.  1.
</event>
<event>
 7    1  0.2478637E-008  0.4614232E+02  0.7816164E-02  0.1320468E+00
        -11   -1    0    0    0    0  0.00000000000E+00  0.00000000000E+00  0.45593999997E+02  0.45594000000E+02  0.51100000000E-03 0. -1.
         11   -1    0    0    0    0 -0.00000000000E+00 -0.00000000000E+00 -0.45593999997E+02  0.45594000000E+02  0.51100000000E-03 0.  1.
    9900012    2    1    2    0    0  0.33365973661E+01  0.22818156040E+02 -0.38695120398E+02  0.46142317968E+02  0.10000001887E+02 0.  0.
         12    1    1    2    0    0 -0.33365973661E+01 -0.22818156040E+02  0.38695120398E+02  0.45045682032E+02  0.00000000000E+00 0. -1.
         11    1    3    3    0    0 -0.18525394327E+01  0.40202603656E+01 -0.13528008239E+02  0.14233811961E+02  0.51100000000E-03 0. -1.
        -11    1    3    3    0    0  0.17581393792E+01  0.54025908100E+01 -0.58767521279E+01  0.81740600298E+01  0.51100000000E-03 0.  1.
         12    1    3    3    0    0  0.34309974196E+01  0.13395304865E+02 -0.19290360032E+02  0.23734445978E+02  0.00000000000E+00 0. -1.
</event>
<event>
 7    1  0.2478637E-008  0.4614232E+02  0.7816164E-02  0.1320468E+00
        -11   -1    0    0    0    0  0.00000000000E+00  0.00000000000E+00  0.45593999997E+02  0.45594000000E+02  0.51100000000E-03 0.  1.
         11   -1    0    0    0    0 -0.00000000000E+00 -0.00000000000E+00 -0.45593999997E+02  0.45594000000E+02  0.51100000000E-03 0. -1.
    9900012    2    1    2    0    0  0.21496849804E+02 -0.37039549464E+02  0.13966777920E+02  0.46142315840E+02  0.99999824795E+01 0.  0.
         12    1    1    2    0    0 -0.21496849804E+02  0.37039549464E+02 -0.13966777920E+02  0.45045684160E+02  0.00000000000E+00 0. -1.
         11    1    3    3    0    0  0.20311712167E+01 -0.64998920653E+00  0.75815576030E+00  0.22633919011E+01  0.51100000000E-03 0. -1.
        -11    1    3    3    0    0  0.10265205318E+02 -0.16462770990E+02  0.95635916313E+01  0.21630061350E+02  0.51100000000E-03 0.  1.
        -12    1    3    3    0    0  0.92004732696E+01 -0.19926789268E+02  0.36450305282E+01  0.22248862588E+02  0.00000000000E+00 0.  1.
</event>
<event>
 7    1  0.2478637E-008  0.4614232E+02  0.7816164E-02  0.1320468E+00
        -11   -1    0    0    0    0  0.00000000000E+00  0.00000000000E+00  0.45593999997E+02  0.45594000000E+02  0.51100000000E-03 0.  1.
         11   -1    0    0    0    0 -0.00000000000E+00 -0.00000000000E+00 -0.45593999997E+02  0.45594000000E+02  0.51100000000E-03 0. -1.
    9900012    2    1    2    0    0  0.22589984520E+02 -0.90213830110E+01  0.37913332242E+02  0.46142317479E+02  0.99999974316E+01 0.  0.
         12    1    1    2    0    0 -0.22589984520E+02  0.90213830110E+01 -0.37913332242E+02  0.45045682521E+02  0.00000000000E+00 0. -1.
         11    1    3    3    0    0  0.39888203296E+01 -0.58274035977E+01  0.13647615762E+02  0.15366415866E+02  0.51100000000E-03 0. -1.
        -11    1    3    3    0    0  0.98925559572E+01 -0.22505251741E+01  0.13804434380E+02  0.17131547967E+02  0.51100000000E-03 0.  1.
        -12    1    3    3    0    0  0.87086082337E+01 -0.94345423925E+00  0.10461282100E+02  0.13644353647E+02  0.00000000000E+00 0.  1.
</event>
<event>
 7    1  0.2478637E-008  0.4614232E+02  0.7816164E-02  0.1320468E+00
        -11   -1    0    0    0    0  0.00000000000E+00  0.00000000000E+00  0.45593999997E+02  0.45594000000E+02  0.51100000000E-03 0.  1.
         11   -1    0    0    0    0 -0.00000000000E+00 -0.00000000000E+00 -0.45593999997E+02  0.45594000000E+02  0.51100000000E-03 0. -1.
    9900012    2    1    2    0    0 -0.71643159745E+01  0.21470070926E+02  0.38946397846E+02  0.46142320139E+02  0.10000021684E+02 0.  0.
         12    1    1    2    0    0  0.71643159745E+01 -0.21470070926E+02 -0.38946397846E+02  0.45045679861E+02  0.00000000000E+00 0. -1.
         11    1    3    3    0    0  0.29252354890E+00  0.48910512628E+01  0.13565595612E+02  0.14423360810E+02  0.51100000000E-03 0. -1.
        -11    1    3    3    0    0  0.29110491786E+00  0.43475329056E+01  0.41236317900E+01  0.59991769302E+01  0.51100000000E-03 0.  1.
        -12    1    3    3    0    0 -0.77479444413E+01  0.12231486757E+02  0.21257170444E+02  0.25719782399E+02  0.00000000000E+00 0.  1.
</event>
<event>
 7    1  0.2478637E-008  0.4614232E+02  0.7816164E-02  0.1320468E+00
        -11   -1    0    0    0    0  0.00000000000E+00  0.00000000000E+00  0.45593999997E+02  0.45594000000E+02  0.51100000000E-03 0.  1.
         11   -1    0    0    0    0 -0.00000000000E+00 -0.00000000000E+00 -0.45593999997E+02  0.45594000000E+02  0.51100000000E-03 0. -1.
    9900012    2    1    2    0    0  0.86615950185E+01 -0.10926635732E+02  0.42833384803E+02  0.46142318183E+02  0.10000003845E+02 0.  0.
         12    1    1    2    0    0 -0.86615950185E+01  0.10926635732E+02 -0.42833384803E+02  0.45045681817E+02  0.00000000000E+00 0. -1.
         11    1    3    3    0    0  0.73776139009E+01 -0.81381576524E+01  0.22914606500E+02  0.25411375172E+02  0.51100000000E-03 0. -1.
        -11    1    3    3    0    0  0.28352569990E+01 -0.81174483918E+00  0.13887013184E+02  0.14196716077E+02  0.51100000000E-03 0.  1.
        -12    1    3    3    0    0 -0.15512758814E+01 -0.19767332407E+01  0.60317651196E+01  0.65342269339E+01  0.00000000000E+00 0.  1.
</event>
<event>
 7    1  0.2478637E-008  0.4614232E+02  0.7816164E-02  0.1320468E+00
        -11   -1    0    0    0    0  0.00000000000E+00  0.00000000000E+00  0.45593999997E+02  0.45594000000E+02  0.51100000000E-03 0.  1.
         11   -1    0    0    0    0 -0.00000000000E+00 -0.00000000000E+00 -0.45593999997E+02  0.45594000000E+02  0.51100000000E-03 0. -1.
    9900012    2    1    2    0    0 -0.32716613951E+01  0.40347118206E+02  0.19761572449E+02  0.46142318060E+02  0.10000002721E+02 0.  0.
         12    1    1    2    0    0  0.32716613951E+01 -0.40347118206E+02 -0.19761572449E+02  0.45045681940E+02  0.00000000000E+00 0. -1.
         11    1    3    3    0    0 -0.16286066896E+00  0.12427904699E+01  0.13118086933E+01  0.18143577537E+01  0.51100000000E-03 0. -1.
        -11    1    3    3    0    0 -0.57119579862E+01  0.28113954222E+02  0.10646952374E+02  0.30600301978E+02  0.51100000000E-03 0.  1.
        -12    1    3    3    0    0  0.26031572600E+01  0.10990373515E+02  0.78028113817E+01  0.13727658328E+02  0.00000000000E+00 0.  1.
</event>
<event>
 7    1  0.2478637E-008  0.4614232E+02  0.7816164E-02  0.1320468E+00
        -11   -1    0    0    0    0  0.00000000000E+00  0.00000000000E+00  0.45593999997E+02  0.45594000000E+02  0.51100000000E-03 0.  1.
         11   -1    0    0    0    0 -0.00000000000E+00 -0.00000000000E+00 -0.45593999997E+02  0.45594000000E+02  0.51100000000E-03 0. -1.
    9900012    2    1    2    0    0  0.14126072111E+02 -0.19904880929E+02  0.37859784639E+02  0.46142317732E+02  0.99999997357E+01 0.  0.
         12    1    1    2    0    0 -0.14126072111E+02  0.19904880929E+02 -0.37859784639E+02  0.45045682268E+02  0.00000000000E+00 0. -1.
         11    1    3    3    0    0  0.62917245580E+01 -0.44038783017E+01  0.13985327110E+02  0.15955228505E+02  0.51100000000E-03 0. -1.
        -11    1    3    3    0    0  0.39582489931E+00 -0.41540666209E+01  0.97314055580E+01  0.10588352149E+02  0.51100000000E-03 0.  1.
        -12    1    3    3    0    0  0.74385226538E+01 -0.11346936006E+02  0.14143051971E+02  0.19598737078E+02  0.00000000000E+00 0.  1.
</event>
<event>
 7    1  0.2478637E-008  0.4614232E+02  0.7816164E-02  0.1320468E+00
        -11   -1    0    0    0    0  0.00000000000E+00  0.00000000000E+00  0.45593999997E+02  0.45594000000E+02  0.51100000000E-03 0.  1.
         11   -1    0    0    0    0 -0.00000000000E+00 -0.00000000000E+00 -0.45593999997E+02  0.45594000000E+02  0.51100000000E-03 0. -1.
    9900012    2    1    2    0    0  0.18796183541E+02 -0.27511271831E+02  0.30314138556E+02  0.46142316635E+02  0.99999897304E+01 0.  0.
         12    1    1    2    0    0 -0.18796183541E+02  0.27511271831E+02 -0.30314138556E+02  0.45045683365E+02  0.00000000000E+00 0. -1.
         11    1    3    3    0    0  0.38687446067E+01 -0.12996520508E+02  0.10442279868E+02  0.17114845581E+02  0.51100000000E-03 0. -1.
        -11    1    3    3    0    0  0.32046528671E+01 -0.28365378878E+01  0.21783517434E+01  0.48021832292E+01  0.51100000000E-03 0.  1.
        -12    1    3    3    0    0  0.11722786067E+02 -0.11678213434E+02  0.17693506944E+02  0.24225287825E+02  0.00000000000E+00 0.  1.
</event>
<event>
 7    1  0.2478637E-008  0.4614232E+02  0.7816164E-02  0.1320468E+00
        -11   -1    0    0    0    0  0.00000000000E+00  0.00000000000E+00  0.45593999997E+02  0.45594000000E+02  0.51100000000E-03 0. -1.
         11   -1    0    0    0    0 -0.00000000000E+00 -0.00000000000E+00 -0.45593999997E+02  0.45594000000E+02  0.51100000000E-03 0.  1.
    9900012    2    1    2    0    0 -0.28214148502E+02  0.22090664235E+02 -0.27296111766E+02  0.46142319412E+02  0.10000015058E+02 0.  0.
         12    1    1    2    0    0  0.28214148502E+02 -0.22090664235E+02  0.27296111766E+02  0.45045680588E+02  0.00000000000E+00 0. -1.
         11    1    3    3    0    0 -0.16287853966E+02  0.88008172229E+01 -0.96267975708E+01  0.20866811025E+02  0.51100000000E-03 0. -1.
        -11    1    3    3    0    0 -0.98912127740E+00  0.75443244694E+00 -0.23573579895E+01  0.26654579663E+01  0.51100000000E-03 0.  1.
        -12    1    3    3    0    0 -0.10937173259E+02  0.12535414565E+02 -0.15311956205E+02  0.22610050421E+02  0.00000000000E+00 0.  1.
</event>
<event>
 7    1  0.2478637E-008  0.4614232E+02  0.7816164E-02  0.1320468E+00
        -11   -1    0    0    0    0  0.00000000000E+00  0.00000000000E+00  0.45593999997E+02  0.45594000000E+02  0.51100000000E-03 0.  1.
         11   -1    0    0    0    0 -0.00000000000E+00 -0.00000000000E+00 -0.45593999997E+02  0.45594000000E+02  0.51100000000E-03 0. -1.
    9900012    2    1    2    0    0  0.59298091065E+01  0.19440137325E+02  0.40199899134E+02  0.46142318013E+02  0.10000002301E+02 0.  0.
         12    1    1    2    0    0 -0.59298091065E+01 -0.19440137325E+02 -0.40199899134E+02  0.45045681987E+02  0.00000000000E+00 0. -1.
         11    1    3    3    0    0  0.69084457253E+00 -0.59785138624E+00  0.19156238308E+01  0.21223353707E+01  0.51100000000E-03 0. -1.
        -11    1    3    3    0    0 -0.10728528357E+01  0.64117379017E+00  0.32227883955E+01  0.34566576833E+01  0.51100000000E-03 0.  1.
         12    1    3    3    0    0  0.63118173696E+01  0.19396814921E+02  0.35061486908E+02  0.40563324960E+02  0.00000000000E+00 0. -1.
</event>
<event>
 7    1  0.2478637E-008  0.4614232E+02  0.7816164E-02  0.1320468E+00
        -11   -1    0    0    0    0  0.00000000000E+00  0.00000000000E+00  0.45593999997E+02  0.45594000000E+02  0.51100000000E-03 0.  1.
         11   -1    0    0    0    0 -0.00000000000E+00 -0.00000000000E+00 -0.45593999997E+02  0.45594000000E+02  0.51100000000E-03 0. -1.
    9900012    2    1    2    0    0 -0.45956552268E+01 -0.21516647682E+02  0.39306835481E+02  0.46142317743E+02  0.99999998339E+01 0.  0.
         12    1    1    2    0    0  0.45956552268E+01  0.21516647682E+02 -0.39306835481E+02  0.45045682257E+02  0.00000000000E+00 0. -1.
         11    1    3    3    0    0  0.11102370892E+01 -0.39226633535E+01  0.10271570641E+02  0.11051021576E+02  0.51100000000E-03 0. -1.
        -11    1    3    3    0    0  0.54704500224E+00 -0.73514767927E+01  0.80366687366E+01  0.10905572608E+02  0.51100000000E-03 0.  1.
         12    1    3    3    0    0 -0.62529373182E+01 -0.10242507536E+02  0.20998596104E+02  0.24185723559E+02  0.00000000000E+00 0. -1.
</event>
<event>
 7    1  0.2478637E-008  0.4614232E+02  0.7816164E-02  0.1320468E+00
        -11   -1    0    0    0    0  0.00000000000E+00  0.00000000000E+00  0.45593999997E+02  0.45594000000E+02  0.51100000000E-03 0.  1.
         11   -1    0    0    0    0 -0.00000000000E+00 -0.00000000000E+00 -0.45593999997E+02  0.45594000000E+02  0.51100000000E-03 0. -1.
    9900012    2    1    2    0    0 -0.20004300090E+02  0.20108175408E+02  0.34994324718E+02  0.46142317601E+02  0.99999985365E+01 0.  0.
         12    1    1    2    0    0  0.20004300090E+02 -0.20108175408E+02 -0.34994324718E+02  0.45045682399E+02  0.00000000000E+00 0. -1.
         11    1    3    3    0    0 -0.49673441542E+01  0.84018114292E+01  0.10582355158E+02  0.14396221177E+02  0.51100000000E-03 0. -1.
        -11    1    3    3    0    0 -0.11337297499E+02  0.46429991042E+01  0.13484261834E+02  0.18218591404E+02  0.51100000000E-03 0.  1.
        -12    1    3    3    0    0 -0.36996584366E+01  0.70633648748E+01  0.10927707726E+02  0.13527505019E+02  0.00000000000E+00 0.  1.
</event>
<event>
 7    1  0.2478637E-008  0.4614232E+02  0.7816164E-02  0.1320468E+00
        -11   -1    0    0    0    0  0.00000000000E+00  0.00000000000E+00  0.45593999997E+02  0.45594000000E+02  0.51100000000E-03 0.  1.
         11   -1    0    0    0    0 -0.00000000000E+00 -0.00000000000E+00 -0.45593999997E+02  0.45594000000E+02  0.51100000000E-03 0. -1.
    9900012    2    1    2    0    0 -0.17592768979E+02  0.25010530699E+02  0.33076900512E+02  0.46142317481E+02  0.99999974421E+01 0.  0.
         12    1    1    2    0    0  0.17592768979E+02 -0.25010530699E+02 -0.33076900512E+02  0.45045682519E+02  0.00000000000E+00 0. -1.
         11    1    3    3    0    0 -0.17084078536E+01  0.36564892468E+01  0.18788569700E+01  0.44518170201E+01  0.51100000000E-03 0. -1.
        -11    1    3    3    0    0 -0.48660385788E+01  0.12836893894E+02  0.15501686857E+02  0.20706676990E+02  0.51100000000E-03 0.  1.
         12    1    3    3    0    0 -0.11018322546E+02  0.85171475577E+01  0.15696356685E+02  0.20983823470E+02  0.00000000000E+00 0. -1.
</event>
<event>
 7    1  0.2478637E-008  0.4614232E+02  0.7816164E-02  0.1320468E+00
        -11   -1    0    0    0    0  0.00000000000E+00  0.00000000000E+00  0.45593999997E+02  0.45594000000E+02  0.51100000000E-03 0.  1.
         11   -1    0    0    0    0 -0.00000000000E+00 -0.00000000000E+00 -0.45593999997E+02  0.45594000000E+02  0.51100000000E-03 0. -1.
    9900012    2    1    2    0    0 -0.38962266134E+02  0.14451081838E+02  0.17384521900E+02  0.46142317074E+02  0.99999937303E+01 0.  0.
         12    1    1    2    0    0  0.38962266134E+02 -0.14451081838E+02 -0.17384521900E+02  0.45045682926E+02  0.00000000000E+00 0. -1.
         11    1    3    3    0    0 -0.85750540793E+01  0.48192183286E+01  0.58251060520E+01  0.11431897416E+02  0.51100000000E-03 0. -1.
        -11    1    3    3    0    0 -0.25943508791E+02  0.52151383057E+01  0.92245143347E+01  0.28024185642E+02  0.51100000000E-03 0.  1.
         12    1    3    3    0    0 -0.44437032644E+01  0.44167252041E+01  0.23349015130E+01  0.66862340152E+01  0.00000000000E+00 0. -1.
</event>
<event>
 7    1  0.2478637E-008  0.4614232E+02  0.7816164E-02  0.1320468E+00
        -11   -1    0    0    0    0  0.00000000000E+00  0.00000000000E+00  0.45593999997E+02  0.45594000000E+02  0.51100000000E-03 0.  1.
         11   -1    0    0    0    0 -0.00000000000E+00 -0.00000000000E+00 -0.45593999997E+02  0.45594000000E+02  0.51100000000E-03 0. -1.
    9900012    2    1    2    0    0  0.17117892877E+01  0.19958497655E+02  0.40346520465E+02  0.46142316913E+02  0.99999922638E+01 0.  0.
         12    1    1    2    0    0 -0.17117892877E+01 -0.19958497655E+02 -0.40346520465E+02  0.45045683087E+02  0.00000000000E+00 0. -1.
         11    1    3    3    0    0 -0.74132537988E+00  0.41437284574E+00  0.13957187990E+01  0.16337990700E+01  0.51100000000E-03 0. -1.
        -11    1    3    3    0    0 -0.24667801567E+01  0.29664307595E+01  0.10826093035E+02  0.11492998150E+02  0.51100000000E-03 0.  1.
        -12    1    3    3    0    0  0.49198948243E+01  0.16577694050E+02  0.28124708630E+02  0.33015519693E+02  0.00000000000E+00 0.  1.
</event>
<event>
 7    1  0.2478637E-008  0.4614232E+02  0.7816164E-02  0.1320468E+00
        -11   -1    0    0    0    0  0.00000000000E+00  0.00000000000E+00  0.45593999997E+02  0.45594000000E+02  0.51100000000E-03 0. -1.
         11   -1    0    0    0    0 -0.00000000000E+00 -0.00000000000E+00 -0.45593999997E+02  0.45594000000E+02  0.51100000000E-03 0.  1.
    9900012    2    1    2    0    0  0.43352281125E+02  0.12148560610E+02 -0.14509670990E+01  0.46142321971E+02  0.10000038385E+02 0.  0.
         12    1    1    2    0    0 -0.43352281125E+02 -0.12148560610E+02  0.14509670990E+01  0.45045678029E+02  0.00000000000E+00 0. -1.
         11    1    3    3    0    0  0.11262323190E+01  0.10747838277E+01  0.18746055356E+00  0.15680246276E+01  0.51100000000E-03 0. -1.
        -11    1    3    3    0    0  0.19527008574E+02  0.67017676133E+01 -0.49282849773E+01  0.21225120638E+02  0.51100000000E-03 0.  1.
        -12    1    3    3    0    0  0.22699040231E+02  0.43720091692E+01  0.32898573248E+01  0.23349176705E+02  0.00000000000E+00 0.  1.
</event>
<event>
 7    1  0.2478637E-008  0.4614232E+02  0.7816164E-02  0.1320468E+00
        -11   -1    0    0    0    0  0.00000000000E+00  0.00000000000E+00  0.45593999997E+02  0.45594000000E+02  0.51100000000E-03 0.  1.
         11   -1    0    0    0    0 -0.00000000000E+00 -0.00000000000E+00 -0.45593999997E+02  0.45594000000E+02  0.51100000000E-03 0. -1.
    9900012    2    1    2    0    0 -0.28711532874E+02 -0.17406245368E+02  0.30029720511E+02  0.46142316392E+02  0.99999875148E+01 0.  0.
         12    1    1    2    0    0  0.28711532874E+02  0.17406245368E+02 -0.30029720511E+02  0.45045683608E+02  0.00000000000E+00 0. -1.
         11    1    3    3    0    0 -0.12419039812E+02 -0.85953777845E+01  0.12732712666E+02  0.19754367649E+02  0.51100000000E-03 0. -1.
        -11    1    3    3    0    0 -0.37708853002E+01 -0.52560557846E+01  0.84832144610E+01  0.10668206326E+02  0.51100000000E-03 0.  1.
        -12    1    3    3    0    0 -0.12521607761E+02 -0.35548117992E+01  0.88137933836E+01  0.15719742417E+02  0.00000000000E+00 0.  1.
</event>
<event>
 7    1  0.2478637E-008  0.4614232E+02  0.7816164E-02  0.1320468E+00
        -11   -1    0    0    0    0  0.00000000000E+00  0.00000000000E+00  0.45593999997E+02  0.45594000000E+02  0.51100000000E-03 0.  1.
         11   -1    0    0    0    0 -0.00000000000E+00 -0.00000000000E+00 -0.45593999997E+02  0.45594000000E+02  0.51100000000E-03 0. -1.
    9900012    2    1    2    0    0 -0.41664863950E+02  0.17120443918E+02  0.20739284369E+00  0.46142317635E+02  0.99999988500E+01 0.  0.
         12    1    1    2    0    0  0.41664863950E+02 -0.17120443918E+02 -0.20739284369E+00  0.45045682365E+02  0.00000000000E+00 0. -1.
         11    1    3    3    0    0 -0.83838658148E+01  0.49145906365E+01 -0.93986654040E+00  0.97634909996E+01  0.51100000000E-03 0. -1.
        -11    1    3    3    0    0 -0.28436947832E+02  0.10233642481E+02 -0.19764609572E+01  0.30286859174E+02  0.51100000000E-03 0.  1.
        -12    1    3    3    0    0 -0.48440503032E+01  0.19722108004E+01  0.31237203413E+01  0.60919674615E+01  0.00000000000E+00 0.  1.
</event>
<event>
 7    1  0.2478637E-008  0.4614232E+02  0.7816164E-02  0.1320468E+00
        -11   -1    0    0    0    0  0.00000000000E+00  0.00000000000E+00  0.45593999997E+02  0.45594000000E+02  0.51100000000E-03 0. -1.
         11   -1    0    0    0    0 -0.00000000000E+00 -0.00000000000E+00 -0.45593999997E+02  0.45594000000E+02  0.51100000000E-03 0.  1.
    9900012    2    1    2    0    0  0.10723114275E+02  0.41639566784E+02  0.13426647335E+02  0.46142316962E+02  0.99999927117E+01 0.  0.
         12    1    1    2    0    0 -0.10723114275E+02 -0.41639566784E+02 -0.13426647335E+02  0.45045683038E+02  0.00000000000E+00 0. -1.
         11    1    3    3    0    0  0.10693116231E+02  0.31608888813E+02  0.95699088260E+01  0.34713797572E+02  0.51100000000E-03 0. -1.
        -11    1    3    3    0    0  0.14761695539E+01  0.15039939235E+01  0.66323191467E+00  0.22092874660E+01  0.51100000000E-03 0.  1.
         12    1    3    3    0    0 -0.14461715099E+01  0.85266840480E+01  0.31935065943E+01  0.92192319234E+01  0.00000000000E+00 0. -1.
</event>
<event>
 7    1  0.2478637E-008  0.4614232E+02  0.7816164E-02  0.1320468E+00
        -11   -1    0    0    0    0  0.00000000000E+00  0.00000000000E+00  0.45593999997E+02  0.45594000000E+02  0.51100000000E-03 0.  1.
         11   -1    0    0    0    0 -0.00000000000E+00 -0.00000000000E+00 -0.45593999997E+02  0.45594000000E+02  0.51100000000E-03 0. -1.
    9900012    2    1    2    0    0 -0.41427471571E+02  0.48010410520E+01  0.17024331896E+02  0.46142320158E+02  0.10000021852E+02 0.  0.
         12    1    1    2    0    0  0.41427471571E+02 -0.48010410520E+01 -0.17024331896E+02  0.45045679842E+02  0.00000000000E+00 0. -1.
         11    1    3    3    0    0 -0.13926402418E+00 -0.23796237638E+00  0.42483082670E+00  0.50646031773E+00  0.51100000000E-03 0. -1.
        -11    1    3    3    0    0 -0.41554689232E+02  0.47649516519E+01  0.15731733739E+02  0.44687631490E+02  0.51100000000E-03 0.  1.
        -12    1    3    3    0    0  0.26648168540E+00  0.27405177653E+00  0.86776733009E+00  0.94822835016E+00  0.00000000000E+00 0.  1.
</event>
<event>
 7    1  0.2478637E-008  0.4614232E+02  0.7816164E-02  0.1320468E+00
        -11   -1    0    0    0    0  0.00000000000E+00  0.00000000000E+00  0.45593999997E+02  0.45594000000E+02  0.51100000000E-03 0.  1.
         11   -1    0    0    0    0 -0.00000000000E+00 -0.00000000000E+00 -0.45593999997E+02  0.45594000000E+02  0.51100000000E-03 0. -1.
    9900012    2    1    2    0    0  0.10111787036E+02 -0.33330281636E+02  0.28564963771E+02  0.46142322447E+02  0.10000042730E+02 0.  0.
         12    1    1    2    0    0 -0.10111787036E+02  0.33330281636E+02 -0.28564963771E+02  0.45045677553E+02  0.00000000000E+00 0. -1.
         11    1    3    3    0    0  0.45187421278E+01 -0.14285378488E+02  0.13877213976E+02  0.20422246130E+02  0.51100000000E-03 0. -1.
        -11    1    3    3    0    0  0.63675581150E+01 -0.18524672425E+02  0.12234229792E+02  0.23095143725E+02  0.51100000000E-03 0.  1.
         12    1    3    3    0    0 -0.77451320708E+00 -0.52023072213E+00  0.24535200024E+01  0.26249325923E+01  0.00000000000E+00 0. -1.
</event>
<event>
 7    1  0.2478637E-008  0.4614232E+02  0.7816164E-02  0.1320468E+00
        -11   -1    0    0    0    0  0.00000000000E+00  0.00000000000E+00  0.45593999997E+02  0.45594000000E+02  0.51100000000E-03 0.  1.
         11   -1    0    0    0    0 -0.00000000000E+00 -0.00000000000E+00 -0.45593999997E+02  0.45594000000E+02  0.51100000000E-03 0. -1.
    9900012    2    1    2    0    0  0.12945643144E+02 -0.19471924498E+02  0.38501527507E+02  0.46142321623E+02  0.10000035220E+02 0.  0.
         12    1    1    2    0    0 -0.12945643144E+02  0.19471924498E+02 -0.38501527507E+02  0.45045678377E+02  0.00000000000E+00 0. -1.
         11    1    3    3    0    0 -0.42678360335E+00 -0.53550384135E+01  0.80108746730E+01  0.96453457139E+01  0.51100000000E-03 0. -1.
        -11    1    3    3    0    0  0.20727282173E+01 -0.48198392871E+01  0.60240628667E+01  0.79885159260E+01  0.51100000000E-03 0.  1.
         12    1    3    3    0    0  0.11299698530E+02 -0.92970467971E+01  0.24466589967E+02  0.28508459983E+02  0.00000000000E+00 0. -1.
</event>
<event>
 7    1  0.2478637E-008  0.4614232E+02  0.7816164E-02  0.1320468E+00
        -11   -1    0    0    0    0  0.00000000000E+00  0.00000000000E+00  0.45593999997E+02  0.45594000000E+02  0.51100000000E-03 0.  1.
         11   -1    0    0    0    0 -0.00000000000E+00 -0.00000000000E+00 -0.45593999997E+02  0.45594000000E+02  0.51100000000E-03 0. -1.
    9900012    2    1    2    0    0  0.37703923604E+02 -0.60895463806E+01  0.23883989330E+02  0.46142319002E+02  0.10000011313E+02 0.  0.
         12    1    1    2    0    0 -0.37703923604E+02  0.60895463806E+01 -0.23883989330E+02  0.45045680998E+02  0.00000000000E+00 0. -1.
         11    1    3    3    0    0  0.83825366614E+01 -0.32485892969E+01  0.63236696070E+01  0.10991317067E+02  0.51100000000E-03 0. -1.
        -11    1    3    3    0    0  0.15023924723E+02 -0.48487046480E+01  0.70324366138E+01  0.17282459774E+02  0.51100000000E-03 0.  1.
         12    1    3    3    0    0  0.14297462220E+02  0.20077475643E+01  0.10527883109E+02  0.17868542162E+02  0.00000000000E+00 0. -1.
</event>
<event>
 7    1  0.2478637E-008  0.4614232E+02  0.7816164E-02  0.1320468E+00
        -11   -1    0    0    0    0  0.00000000000E+00  0.00000000000E+00  0.45593999997E+02  0.45594000000E+02  0.51100000000E-03 0. -1.
         11   -1    0    0    0    0 -0.00000000000E+00 -0.00000000000E+00 -0.45593999997E+02  0.45594000000E+02  0.51100000000E-03 0.  1.
    9900012    2    1    2    0    0 -0.17030275724E+01 -0.39571638006E+02 -0.21454573636E+02  0.46142316885E+02  0.99999920069E+01 0.  0.
         12    1    1    2    0    0  0.17030275724E+01  0.39571638006E+02  0.21454573636E+02  0.45045683115E+02  0.00000000000E+00 0. -1.
         11    1    3    3    0    0 -0.68819423908E+00 -0.20844428504E+00  0.29203889981E+00  0.77611037281E+00  0.51100000000E-03 0. -1.
        -11    1    3    3    0    0 -0.17421983854E+00 -0.30304606543E+00  0.33874214215E+00  0.48676069059E+00  0.51100000000E-03 0.  1.
        -12    1    3    3    0    0 -0.84061349479E+00 -0.39060147656E+02 -0.22085354678E+02  0.44879445821E+02  0.00000000000E+00 0.  1.
</event>
<event>
 7    1  0.2478637E-008  0.4614231E+02  0.7816164E-02  0.1320468E+00
        -11   -1    0    0    0    0  0.00000000000E+00  0.00000000000E+00  0.45593999997E+02  0.45594000000E+02  0.51100000000E-03 0.  1.
         11   -1    0    0    0    0 -0.00000000000E+00 -0.00000000000E+00 -0.45593999997E+02  0.45594000000E+02  0.51100000000E-03 0. -1.
    9900012    2    1    2    0    0  0.20627552710E+02  0.39503692751E+02  0.65632512180E+01  0.46142312767E+02  0.99999544573E+01 0.  0.
         12    1    1    2    0    0 -0.20627552710E+02 -0.39503692751E+02 -0.65632512180E+01  0.45045687233E+02  0.00000000000E+00 0. -1.
         11    1    3    3    0    0  0.14912520530E+01  0.27756146517E+01  0.22532975280E+01  0.38736571081E+01  0.51100000000E-03 0. -1.
        -11    1    3    3    0    0  0.66714075104E+01  0.18520411424E+02 -0.47106572294E+00  0.19690993390E+02  0.51100000000E-03 0.  1.
        -12    1    3    3    0    0  0.12464893147E+02  0.18207666675E+02  0.47810194129E+01  0.22577662269E+02  0.00000000000E+00 0.  1.
</event>
<event>
 7    1  0.2478637E-008  0.4614232E+02  0.7816164E-02  0.1320468E+00
        -11   -1    0    0    0    0  0.00000000000E+00  0.00000000000E+00  0.45593999997E+02  0.45594000000E+02  0.51100000000E-03 0.  1.
         11   -1    0    0    0    0 -0.00000000000E+00 -0.00000000000E+00 -0.45593999997E+02  0.45594000000E+02  0.51100000000E-03 0. -1.
    9900012    2    1    2    0    0 -0.14966809396E+02  0.37265223751E+02  0.20406146247E+02  0.46142322190E+02  0.10000040386E+02 0.  0.
         12    1    1    2    0    0  0.14966809396E+02 -0.37265223751E+02 -0.20406146247E+02  0.45045677810E+02  0.00000000000E+00 0. -1.
         11    1    3    3    0    0 -0.13215867992E+01  0.21091594200E+01  0.38852181910E+01  0.46141159261E+01  0.51100000000E-03 0. -1.
        -11    1    3    3    0    0 -0.22446429967E+01  0.44069131714E+01  0.42239974821E+01  0.65039573241E+01  0.51100000000E-03 0.  1.
        -12    1    3    3    0    0 -0.11400579600E+02  0.30749151160E+02  0.12296930574E+02  0.35024248940E+02  0.00000000000E+00 0.  1.
</event>
<event>
 7    1  0.2478637E-008  0.4614232E+02  0.7816164E-02  0.1320468E+00
        -11   -1    0    0    0    0  0.00000000000E+00  0.00000000000E+00  0.45593999997E+02  0.45594000000E+02  0.51100000000E-03 0.  1.
         11   -1    0    0    0    0 -0.00000000000E+00 -0.00000000000E+00 -0.45593999997E+02  0.45594000000E+02  0.51100000000E-03 0. -1.
    9900012    2    1    2    0    0 -0.12724496298E+02 -0.53685076778E+01  0.42876330132E+02  0.46142319116E+02  0.10000012358E+02 0.  0.
         12    1    1    2    0    0  0.12724496298E+02  0.53685076778E+01 -0.42876330132E+02  0.45045680884E+02  0.00000000000E+00 0. -1.
         11    1    3    3    0    0 -0.60417024134E+01 -0.63424645040E+00  0.10474135571E+02  0.12108342283E+02  0.51100000000E-03 0. -1.
        -11    1    3    3    0    0 -0.69021323430E+01 -0.59304275245E+01  0.26850236260E+02  0.28350389574E+02  0.51100000000E-03 0.  1.
         12    1    3    3    0    0  0.21933845871E+00  0.11961662970E+01  0.55519583006E+01  0.56835872599E+01  0.00000000000E+00 0. -1.
</event>
<event>
 7    1  0.2478637E-008  0.4614232E+02  0.7816164E-02  0.1320468E+00
        -11   -1    0    0    0    0  0.00000000000E+00  0.00000000000E+00  0.45593999997E+02  0.45594000000E+02  0.51100000000E-03 0. -1.
         11   -1    0    0    0    0 -0.00000000000E+00 -0.00000000000E+00 -0.45593999997E+02  0.45594000000E+02  0.51100000000E-03 0.  1.
    9900012    2    1    2    0    0  0.27125527438E+02  0.17869480261E+02 -0.31208987641E+02  0.46142317930E+02  0.10000001540E+02 0.  0.
         12    1    1    2    0    0 -0.27125527438E+02 -0.17869480261E+02  0.31208987641E+02  0.45045682070E+02  0.00000000000E+00 0. -1.
         11    1    3    3    0    0  0.11731842427E+02  0.80759085914E+01 -0.17063041652E+02  0.22226196638E+02  0.51100000000E-03 0. -1.
        -11    1    3    3    0    0  0.84343514618E+01  0.25333771171E+01 -0.41462010918E+01  0.97338208301E+01  0.51100000000E-03 0.  1.
        -12    1    3    3    0    0  0.69593335497E+01  0.72601945520E+01 -0.99997448974E+01  0.14182300462E+02  0.00000000000E+00 0.  1.
</event>
<event>
 7    1  0.2478637E-008  0.4614231E+02  0.7816164E-02  0.1320468E+00
        -11   -1    0    0    0    0  0.00000000000E+00  0.00000000000E+00  0.45593999997E+02  0.45594000000E+02  0.51100000000E-03 0.  1.
         11   -1    0    0    0    0 -0.00000000000E+00 -0.00000000000E+00 -0.45593999997E+02  0.45594000000E+02  0.51100000000E-03 0. -1.
    9900012    2    1    2    0    0 -0.75528421614E+01  0.39533774881E+02  0.20227432691E+02  0.46142314143E+02  0.99999670045E+01 0.  0.
         12    1    1    2    0    0  0.75528421614E+01 -0.39533774881E+02 -0.20227432691E+02  0.45045685857E+02  0.00000000000E+00 0. -1.
         11    1    3    3    0    0  0.13842339717E+01  0.81467896170E+01  0.29405867644E+01  0.87711650042E+01  0.51100000000E-03 0. -1.
        -11    1    3    3    0    0 -0.95659160314E+01  0.26350181633E+02  0.14116794681E+02  0.31386664587E+02  0.51100000000E-03 0.  1.
        -12    1    3    3    0    0  0.62883989831E+00  0.50368036317E+01  0.31700512458E+01  0.59844845512E+01  0.00000000000E+00 0.  1.
</event>
<event>
 7    1  0.2478637E-008  0.4614232E+02  0.7816164E-02  0.1320468E+00
        -11   -1    0    0    0    0  0.00000000000E+00  0.00000000000E+00  0.45593999997E+02  0.45594000000E+02  0.51100000000E-03 0.  1.
         11   -1    0    0    0    0 -0.00000000000E+00 -0.00000000000E+00 -0.45593999997E+02  0.45594000000E+02  0.51100000000E-03 0. -1.
    9900012    2    1    2    0    0 -0.20434446306E+02 -0.22617910317E+02  0.33165899363E+02  0.46142319369E+02  0.10000014661E+02 0.  0.
         12    1    1    2    0    0  0.20434446306E+02  0.22617910317E+02 -0.33165899363E+02  0.45045680631E+02  0.00000000000E+00 0. -1.
         11    1    3    3    0    0 -0.92932911357E+01 -0.67755602603E+01  0.15427976166E+02  0.19243074749E+02  0.51100000000E-03 0. -1.
        -11    1    3    3    0    0 -0.10652744343E+02 -0.15274910174E+02  0.18183708423E+02  0.26027890716E+02  0.51100000000E-03 0.  1.
        -12    1    3    3    0    0 -0.48841082754E+00 -0.56743988315E+00 -0.44578522585E+00  0.87135390344E+00  0.00000000000E+00 0.  1.
</event>
<event>
 7    1  0.2478637E-008  0.4614232E+02  0.7816164E-02  0.1320468E+00
        -11   -1    0    0    0    0  0.00000000000E+00  0.00000000000E+00  0.45593999997E+02  0.45594000000E+02  0.51100000000E-03 0.  1.
         11   -1    0    0    0    0 -0.00000000000E+00 -0.00000000000E+00 -0.45593999997E+02  0.45594000000E+02  0.51100000000E-03 0. -1.
    9900012    2    1    2    0    0  0.37394162214E+02  0.19028997561E+02  0.16391666936E+02  0.46142324727E+02  0.10000063519E+02 0.  0.
         12    1    1    2    0    0 -0.37394162214E+02 -0.19028997561E+02 -0.16391666936E+02  0.45045675273E+02  0.00000000000E+00 0. -1.
         11    1    3    3    0    0  0.86159669470E+01  0.38461144179E+01  0.66057406506E+01  0.11517955216E+02  0.51100000000E-03 0. -1.
        -11    1    3    3    0    0  0.21785541884E+02  0.11063536046E+02  0.10246910489E+02  0.26495487161E+02  0.51100000000E-03 0.  1.
         12    1    3    3    0    0  0.69926533828E+01  0.41193470966E+01 -0.46098420327E+00  0.81288823506E+01  0.00000000000E+00 0. -1.
</event>
<event>
 7    1  0.2478637E-008  0.4614232E+02  0.7816164E-02  0.1320468E+00
        -11   -1    0    0    0    0  0.00000000000E+00  0.00000000000E+00  0.45593999997E+02  0.45594000000E+02  0.51100000000E-03 0. -1.
         11   -1    0    0    0    0 -0.00000000000E+00 -0.00000000000E+00 -0.45593999997E+02  0.45594000000E+02  0.51100000000E-03 0.  1.
    9900012    2    1    2    0    0  0.40220847511E+02  0.19037043902E+02  0.69991261570E+01  0.46142318942E+02  0.10000010767E+02 0.  0.
         12    1    1    2    0    0 -0.40220847511E+02 -0.19037043902E+02 -0.69991261570E+01  0.45045681058E+02  0.00000000000E+00 0. -1.
         11    1    3    3    0    0  0.10440989412E+02  0.31926886206E+01 -0.11081376440E+01  0.10974310449E+02  0.51100000000E-03 0. -1.
        -11    1    3    3    0    0  0.29108397431E+02  0.14532190722E+02  0.68889296515E+01  0.33255687035E+02  0.51100000000E-03 0.  1.
         12    1    3    3    0    0  0.67146066874E+00  0.13121645591E+01  0.12183341496E+01  0.19123214583E+01  0.00000000000E+00 0. -1.
</event>
<event>
 7    1  0.2478637E-008  0.4614232E+02  0.7816164E-02  0.1320468E+00
        -11   -1    0    0    0    0  0.00000000000E+00  0.00000000000E+00  0.45593999997E+02  0.45594000000E+02  0.51100000000E-03 0.  1.
         11   -1    0    0    0    0 -0.00000000000E+00 -0.00000000000E+00 -0.45593999997E+02  0.45594000000E+02  0.51100000000E-03 0. -1.
    9900012    2    1    2    0    0  0.40788174416E+02  0.18438113741E+02 -0.50472046804E+01  0.46142317792E+02  0.10000000278E+02 0.  0.
         12    1    1    2    0    0 -0.40788174416E+02 -0.18438113741E+02  0.50472046804E+01  0.45045682208E+02  0.00000000000E+00 0. -1.
         11    1    3    3    0    0  0.41838486292E+01  0.41989860657E+01  0.43416339965E+00  0.59434477747E+01  0.51100000000E-03 0. -1.
        -11    1    3    3    0    0  0.15550862316E+01  0.48099337563E+00  0.11144116302E+01  0.19727040725E+01  0.51100000000E-03 0.  1.
        -12    1    3    3    0    0  0.35049239556E+02  0.13758134299E+02 -0.65957797103E+01  0.38226165944E+02  0.00000000000E+00 0.  1.
</event>
<event>
 7    1  0.2478637E-008  0.4614232E+02  0.7816164E-02  0.1320468E+00
        -11   -1    0    0    0    0  0.00000000000E+00  0.00000000000E+00  0.45593999997E+02  0.45594000000E+02  0.51100000000E-03 0.  1.
         11   -1    0    0    0    0 -0.00000000000E+00 -0.00000000000E+00 -0.45593999997E+02  0.45594000000E+02  0.51100000000E-03 0. -1.
    9900012    2    1    2    0    0 -0.82876242465E+00 -0.37227712805E+01  0.44883935061E+02  0.46142317635E+02  0.99999988527E+01 0.  0.
         12    1    1    2    0    0  0.82876242465E+00  0.37227712805E+01 -0.44883935061E+02  0.45045682365E+02  0.00000000000E+00 0. -1.
         11    1    3    3    0    0 -0.10137962865E+01 -0.40603500743E+00  0.49261851116E+00  0.11980486620E+01  0.51100000000E-03 0. -1.
        -11    1    3    3    0    0 -0.13478437117E+01  0.81122206047E+00  0.25419860676E+02  0.25468491925E+02  0.51100000000E-03 0.  1.
        -12    1    3    3    0    0  0.15328775736E+01 -0.41279583335E+01  0.18971455874E+02  0.19475777048E+02  0.00000000000E+00 0.  1.
</event>
<event>
 7    1  0.2478637E-008  0.4614232E+02  0.7816164E-02  0.1320468E+00
        -11   -1    0    0    0    0  0.00000000000E+00  0.00000000000E+00  0.45593999997E+02  0.45594000000E+02  0.51100000000E-03 0.  1.
         11   -1    0    0    0    0 -0.00000000000E+00 -0.00000000000E+00 -0.45593999997E+02  0.45594000000E+02  0.51100000000E-03 0. -1.
    9900012    2    1    2    0    0  0.27336759709E+02  0.35583521328E+02  0.39532330896E+01  0.46142317928E+02  0.10000001520E+02 0.  0.
         12    1    1    2    0    0 -0.27336759709E+02 -0.35583521328E+02 -0.39532330896E+01  0.45045682072E+02  0.00000000000E+00 0. -1.
         11    1    3    3    0    0  0.81488290482E+01  0.10403308860E+02  0.27686214968E+01  0.13501759713E+02  0.51100000000E-03 0. -1.
        -11    1    3    3    0    0  0.60530427622E+01  0.14340346455E+02 -0.50987719498E-01  0.15565585859E+02  0.51100000000E-03 0.  1.
        -12    1    3    3    0    0  0.13134887898E+02  0.10839866013E+02  0.12355993122E+01  0.17074972356E+02  0.00000000000E+00 0.  1.
</event>
<event>
 7    1  0.2478637E-008  0.4614231E+02  0.7816164E-02  0.1320468E+00
        -11   -1    0    0    0    0  0.00000000000E+00  0.00000000000E+00  0.45593999997E+02  0.45594000000E+02  0.51100000000E-03 0. -1.
         11   -1    0    0    0    0 -0.00000000000E+00 -0.00000000000E+00 -0.45593999997E+02  0.45594000000E+02  0.51100000000E-03 0.  1.
    9900012    2    1    2    0    0 -0.35696977521E+02 -0.21345591589E+02 -0.17297565980E+02  0.46142309049E+02  0.99999205601E+01 0.  0.
         12    1    1    2    0    0  0.35696977521E+02  0.21345591589E+02  0.17297565980E+02  0.45045690951E+02  0.00000000000E+00 0. -1.
         11    1    3    3    0    0 -0.60547656872E+00 -0.91143128208E+00 -0.27114173147E+00  0.11273096100E+01  0.51100000000E-03 0. -1.
        -11    1    3    3    0    0 -0.28006696989E+02 -0.20137597611E+02 -0.13018915218E+02  0.36869907343E+02  0.51100000000E-03 0.  1.
         12    1    3    3    0    0 -0.70848039627E+01 -0.29656269523E+00 -0.40075090306E+01  0.81450920960E+01  0.00000000000E+00 0. -1.
</event>
<event>
 7    1  0.2478637E-008  0.4614232E+02  0.7816164E-02  0.1320468E+00
        -11   -1    0    0    0    0  0.00000000000E+00  0.00000000000E+00  0.45593999997E+02  0.45594000000E+02  0.51100000000E-03 0. -1.
         11   -1    0    0    0    0 -0.00000000000E+00 -0.00000000000E+00 -0.45593999997E+02  0.45594000000E+02  0.51100000000E-03 0.  1.
    9900012    2    1    2    0    0 -0.19548157977E+02 -0.40574250552E+02 -0.84448252368E+00  0.46142318310E+02  0.10000005009E+02 0.  0.
         12    1    1    2    0    0  0.19548157977E+02  0.40574250552E+02  0.84448252368E+00  0.45045681690E+02  0.00000000000E+00 0. -1.
         11    1    3    3    0    0 -0.78403084392E+01 -0.96537988493E+01 -0.15785514050E+01  0.12536271114E+02  0.51100000000E-03 0. -1.
        -11    1    3    3    0    0 -0.25491702230E+01 -0.32520635680E+01 -0.14509289684E+01  0.43794270640E+01  0.51100000000E-03 0.  1.
         12    1    3    3    0    0 -0.91586793152E+01 -0.27668388134E+02  0.21849978497E+01  0.29226620132E+02  0.00000000000E+00 0. -1.
</event>
<event>
 7    1  0.2478637E-008  0.4614232E+02  0.7816164E-02  0.1320468E+00
        -11   -1    0    0    0    0  0.00000000000E+00  0.00000000000E+00  0.45593999997E+02  0.45594000000E+02  0.51100000000E-03 0.  1.
         11   -1    0    0    0    0 -0.00000000000E+00 -0.00000000000E+00 -0.45593999997E+02  0.45594000000E+02  0.51100000000E-03 0. -1.
    9900012    2    1    2    0    0  0.36488274802E+02  0.26410758005E+02  0.43724770675E+00  0.46142317388E+02  0.99999965956E+01 0.  0.
         12    1    1    2    0    0 -0.36488274802E+02 -0.26410758005E+02 -0.43724770675E+00  0.45045682612E+02  0.00000000000E+00 0. -1.
         11    1    3    3    0    0  0.13582332294E+02  0.14098407678E+02 -0.11442795974E+01  0.19610054198E+02  0.51100000000E-03 0. -1.
        -11    1    3    3    0    0  0.89608449222E+01  0.76470146998E+01  0.73317086258E+00  0.11803012976E+02  0.51100000000E-03 0.  1.
         12    1    3    3    0    0  0.13945097586E+02  0.46653356272E+01  0.84835644162E+00  0.14729250213E+02  0.00000000000E+00 0. -1.
</event>
<event>
 7    1  0.2478637E-008  0.4614232E+02  0.7816164E-02  0.1320468E+00
        -11   -1    0    0    0    0  0.00000000000E+00  0.00000000000E+00  0.45593999997E+02  0.45594000000E+02  0.51100000000E-03 0.  1.
         11   -1    0    0    0    0 -0.00000000000E+00 -0.00000000000E+00 -0.45593999997E+02  0.45594000000E+02  0.51100000000E-03 0. -1.
    9900012    2    1    2    0    0  0.12754051423E+02 -0.23215395987E+02  0.36434777462E+02  0.46142318217E+02  0.10000004159E+02 0.  0.
         12    1    1    2    0    0 -0.12754051423E+02  0.23215395987E+02 -0.36434777462E+02  0.45045681783E+02  0.00000000000E+00 0. -1.
         11    1    3    3    0    0  0.12537180350E+01 -0.15103139124E+01  0.82268301898E-01  0.19645929247E+01  0.51100000000E-03 0. -1.
        -11    1    3    3    0    0  0.58122251852E+01 -0.61343036028E+01  0.13928008130E+02  0.16291134185E+02  0.51100000000E-03 0.  1.
        -12    1    3    3    0    0  0.56881082033E+01 -0.15570778472E+02  0.22424501030E+02  0.27886591108E+02  0.00000000000E+00 0.  1.
</event>
<event>
 7    1  0.2478637E-008  0.4614231E+02  0.7816164E-02  0.1320468E+00
        -11   -1    0    0    0    0  0.00000000000E+00  0.00000000000E+00  0.45593999997E+02  0.45594000000E+02  0.51100000000E-03 0. -1.
         11   -1    0    0    0    0 -0.00000000000E+00 -0.00000000000E+00 -0.45593999997E+02  0.45594000000E+02  0.51100000000E-03 0.  1.
    9900012    2    1    2    0    0  0.21910945679E+02 -0.39337398155E+02 -0.12622758585E+01  0.46142314585E+02  0.99999710398E+01 0.  0.
         12    1    1    2    0    0 -0.21910945679E+02  0.39337398155E+02  0.12622758585E+01  0.45045685415E+02  0.00000000000E+00 0. -1.
         11    1    3    3    0    0  0.34634994335E+00 -0.27296412318E+01 -0.20909380910E+01  0.34558532809E+01  0.51100000000E-03 0. -1.
        -11    1    3    3    0    0  0.52593595715E+01 -0.12468296189E+02  0.80625241596E+00  0.13556154181E+02  0.51100000000E-03 0.  1.
        -12    1    3    3    0    0  0.16305236164E+02 -0.24139460734E+02  0.22409816533E-01  0.29130307123E+02  0.00000000000E+00 0.  1.
</event>
<event>
 7    1  0.2478637E-008  0.4614232E+02  0.7816164E-02  0.1320468E+00
        -11   -1    0    0    0    0  0.00000000000E+00  0.00000000000E+00  0.45593999997E+02  0.45594000000E+02  0.51100000000E-03 0.  1.
         11   -1    0    0    0    0 -0.00000000000E+00 -0.00000000000E+00 -0.45593999997E+02  0.45594000000E+02  0.51100000000E-03 0. -1.
    9900012    2    1    2    0    0 -0.37144494842E+02  0.17678228715E+02  0.18354297725E+02  0.46142317492E+02  0.99999975501E+01 0.  0.
         12    1    1    2    0    0  0.37144494842E+02 -0.17678228715E+02 -0.18354297725E+02  0.45045682508E+02  0.00000000000E+00 0. -1.
         11    1    3    3    0    0 -0.64086708493E+01  0.80010534611E+00  0.18363937993E+01  0.67144302117E+01  0.51100000000E-03 0.  1.
        -11    1    3    3    0    0 -0.15376353011E+02  0.50361445797E+01  0.97273081427E+01  0.18878969996E+02  0.51100000000E-03 0. -1.
         12    1    3    3    0    0 -0.15359470982E+02  0.11841978789E+02  0.67905957833E+01  0.20548917285E+02  0.00000000000E+00 0. -1.
</event>
<event>
 7    1  0.2478637E-008  0.4614232E+02  0.7816164E-02  0.1320468E+00
        -11   -1    0    0    0    0  0.00000000000E+00  0.00000000000E+00  0.45593999997E+02  0.45594000000E+02  0.51100000000E-03 0.  1.
         11   -1    0    0    0    0 -0.00000000000E+00 -0.00000000000E+00 -0.45593999997E+02  0.45594000000E+02  0.51100000000E-03 0. -1.
    9900012    2    1    2    0    0  0.28214075947E+00 -0.39724960855E+02  0.21235842662E+02  0.46142321718E+02  0.10000036084E+02 0.  0.
         12    1    1    2    0    0 -0.28214075947E+00  0.39724960855E+02 -0.21235842662E+02  0.45045678282E+02  0.00000000000E+00 0. -1.
         11    1    3    3    0    0  0.36331010121E+00 -0.14669427016E+02  0.79371370602E+01  0.16682992183E+02  0.51100000000E-03 0. -1.
        -11    1    3    3    0    0 -0.31985240901E+01 -0.20055706624E+02  0.92911120317E+01  0.22333532806E+02  0.51100000000E-03 0.  1.
         12    1    3    3    0    0  0.31173547484E+01 -0.49998272142E+01  0.40075935699E+01  0.71257967288E+01  0.00000000000E+00 0. -1.
</event>
<event>
 7    1  0.2478637E-008  0.4614232E+02  0.7816164E-02  0.1320468E+00
        -11   -1    0    0    0    0  0.00000000000E+00  0.00000000000E+00  0.45593999997E+02  0.45594000000E+02  0.51100000000E-03 0.  1.
         11   -1    0    0    0    0 -0.00000000000E+00 -0.00000000000E+00 -0.45593999997E+02  0.45594000000E+02  0.51100000000E-03 0. -1.
    9900012    2    1    2    0    0 -0.60345111069E+00 -0.20079174348E+02  0.40318429429E+02  0.46142321547E+02  0.10000034518E+02 0.  0.
         12    1    1    2    0    0  0.60345111069E+00  0.20079174348E+02 -0.40318429429E+02  0.45045678453E+02  0.00000000000E+00 0. -1.
         11    1    3    3    0    0  0.32061594516E+00 -0.13188306209E+02  0.25022447359E+02  0.28287048050E+02  0.51100000000E-03 0.  1.
        -11    1    3    3    0    0 -0.18059813230E+00 -0.75716205061E+01  0.10452563097E+02  0.12908064469E+02  0.51100000000E-03 0. -1.
         12    1    3    3    0    0 -0.74346892355E+00  0.68075236724E+00  0.48434189722E+01  0.49472090280E+01  0.00000000000E+00 0. -1.
</event>
<event>
 7    1  0.2478637E-008  0.4614232E+02  0.7816164E-02  0.1320468E+00
        -11   -1    0    0    0    0  0.00000000000E+00  0.00000000000E+00  0.45593999997E+02  0.45594000000E+02  0.51100000000E-03 0.  1.
         11   -1    0    0    0    0 -0.00000000000E+00 -0.00000000000E+00 -0.45593999997E+02  0.45594000000E+02  0.51100000000E-03 0. -1.
    9900012    2    1    2    0    0  0.28412393341E+02  0.34948303209E+02  0.68225317334E+00  0.46142318054E+02  0.10000002669E+02 0.  0.
         12    1    1    2    0    0 -0.28412393341E+02 -0.34948303209E+02 -0.68225317334E+00  0.45045681946E+02  0.00000000000E+00 0. -1.
         11    1    3    3    0    0  0.11455646074E+01  0.40310551282E+01 -0.57025495259E-01  0.41910590410E+01  0.51100000000E-03 0. -1.
        -11    1    3    3    0    0  0.63004694112E+01  0.12299655772E+02 -0.10182386027E+01  0.13856920907E+02  0.51100000000E-03 0.  1.
        -12    1    3    3    0    0  0.20966359323E+02  0.18617592309E+02  0.17575172713E+01  0.28094338106E+02  0.00000000000E+00 0.  1.
</event>
<event>
 7    1  0.2478637E-008  0.4614231E+02  0.7816164E-02  0.1320468E+00
        -11   -1    0    0    0    0  0.00000000000E+00  0.00000000000E+00  0.45593999997E+02  0.45594000000E+02  0.51100000000E-03 0.  1.
         11   -1    0    0    0    0 -0.00000000000E+00 -0.00000000000E+00 -0.45593999997E+02  0.45594000000E+02  0.51100000000E-03 0. -1.
    9900012    2    1    2    0    0 -0.97752324231E+01  0.37809687208E+02  0.22449635288E+02  0.46142314966E+02  0.99999745088E+01 0.  0.
         12    1    1    2    0    0  0.97752324231E+01 -0.37809687208E+02 -0.22449635288E+02  0.45045685034E+02  0.00000000000E+00 0. -1.
         11    1    3    3    0    0 -0.27795834545E+00  0.30964180845E+01  0.10872275003E+01  0.32934980938E+01  0.51100000000E-03 0. -1.
        -11    1    3    3    0    0 -0.32970933083E+01  0.76692886225E+01  0.95750232284E+01  0.12703144585E+02  0.51100000000E-03 0.  1.
        -12    1    3    3    0    0 -0.62001807693E+01  0.27043980501E+02  0.11787384559E+02  0.30145672287E+02  0.00000000000E+00 0.  1.
</event>
<event>
 7    1  0.2478637E-008  0.4614232E+02  0.7816164E-02  0.1320468E+00
        -11   -1    0    0    0    0  0.00000000000E+00  0.00000000000E+00  0.45593999997E+02  0.45594000000E+02  0.51100000000E-03 0.  1.
         11   -1    0    0    0    0 -0.00000000000E+00 -0.00000000000E+00 -0.45593999997E+02  0.45594000000E+02  0.51100000000E-03 0. -1.
    9900012    2    1    2    0    0 -0.18687233964E+02 -0.34618213954E+02  0.21942655201E+02  0.46142316879E+02  0.99999919545E+01 0.  0.
         12    1    1    2    0    0  0.18687233964E+02  0.34618213954E+02 -0.21942655201E+02  0.45045683121E+02  0.00000000000E+00 0. -1.
         11    1    3    3    0    0 -0.26990678088E+00  0.11708777864E+00 -0.62356198333E+00  0.68948460929E+00  0.51100000000E-03 0. -1.
        -11    1    3    3    0    0 -0.16556015561E+01 -0.15651047225E+01  0.15752797573E+01  0.27698512379E+01  0.51100000000E-03 0.  1.
         12    1    3    3    0    0 -0.16761725627E+02 -0.33170197011E+02  0.20990937427E+02  0.42682981032E+02  0.00000000000E+00 0. -1.
</event>
<event>
 7    1  0.3467633E-008  0.4614232E+02  0.7816164E-02  0.1320468E+00
        -11   -1    0    0    0    0  0.00000000000E+00  0.00000000000E+00  0.45593999997E+02  0.45594000000E+02  0.51100000000E-03 0. -1.
         11   -1    0    0    0    0 -0.00000000000E+00 -0.00000000000E+00 -0.45593999997E+02  0.45594000000E+02  0.51100000000E-03 0.  1.
    9900012    2    1    2    0    0  0.12424003385E+02 -0.15097619428E+02 -0.40581021882E+02  0.46142319747E+02  0.10000018107E+02 0.  0.
         12    1    1    2    0    0 -0.12424003385E+02  0.15097619428E+02  0.40581021882E+02  0.45045680253E+02  0.00000000000E+00 0. -1.
         11    1    3    3    0    0 -0.68326098117E+00 -0.21755075375E+01 -0.34613577025E+01  0.41449579033E+01  0.51100000000E-03 0. -1.
        -11    1    3    3    0    0  0.27997291587E+01 -0.37429900495E+00 -0.25571892309E+01  0.38102231077E+01  0.51100000000E-03 0.  1.
        -12    1    3    3    0    0  0.10307535208E+02 -0.12547812886E+02 -0.34562474948E+02  0.38187138736E+02  0.00000000000E+00 0.  1.
</event>
<event>
 7    1  0.2478637E-008  0.4614232E+02  0.7816164E-02  0.1320468E+00
        -11   -1    0    0    0    0  0.00000000000E+00  0.00000000000E+00  0.45593999997E+02  0.45594000000E+02  0.51100000000E-03 0.  1.
         11   -1    0    0    0    0 -0.00000000000E+00 -0.00000000000E+00 -0.45593999997E+02  0.45594000000E+02  0.51100000000E-03 0. -1.
    9900012    2    1    2    0    0 -0.15876510775E+02  0.41796120632E+02  0.54894583698E+01  0.46142318215E+02  0.10000004135E+02 0.  0.
         12    1    1    2    0    0  0.15876510775E+02 -0.41796120632E+02 -0.54894583698E+01  0.45045681785E+02  0.00000000000E+00 0. -1.
         11    1    3    3    0    0 -0.19361012509E+01  0.68495811288E+01 -0.86021519965E+00  0.71697433807E+01  0.51100000000E-03 0. -1.
        -11    1    3    3    0    0 -0.97337479664E+01  0.21670051627E+02  0.77190907088E+01  0.24978417656E+02  0.51100000000E-03 0.  1.
        -12    1    3    3    0    0 -0.42066615579E+01  0.13276487877E+02 -0.13694171394E+01  0.13994157178E+02  0.00000000000E+00 0.  1.
</event>
<event>
 7    1  0.2478637E-008  0.4614232E+02  0.7816164E-02  0.1320468E+00
        -11   -1    0    0    0    0  0.00000000000E+00  0.00000000000E+00  0.45593999997E+02  0.45594000000E+02  0.51100000000E-03 0.  1.
         11   -1    0    0    0    0 -0.00000000000E+00 -0.00000000000E+00 -0.45593999997E+02  0.45594000000E+02  0.51100000000E-03 0. -1.
    9900012    2    1    2    0    0 -0.44133588457E+02  0.56596680448E+01  0.70219678250E+01  0.46142317581E+02  0.99999983540E+01 0.  0.
         12    1    1    2    0    0  0.44133588457E+02 -0.56596680448E+01 -0.70219678250E+01  0.45045682419E+02  0.00000000000E+00 0. -1.
         11    1    3    3    0    0 -0.15107842846E+02  0.35489886257E+01  0.66524954570E+01  0.16884843256E+02  0.51100000000E-03 0. -1.
        -11    1    3    3    0    0 -0.18836293693E+02  0.20861374689E+01  0.14718654294E+01  0.19008532761E+02  0.51100000000E-03 0.  1.
         12    1    3    3    0    0 -0.10189451919E+02  0.24541950200E-01 -0.11023930614E+01  0.10248941563E+02  0.00000000000E+00 0. -1.
</event>
<event>
 7    1  0.2478637E-008  0.4614232E+02  0.7816164E-02  0.1320468E+00
        -11   -1    0    0    0    0  0.00000000000E+00  0.00000000000E+00  0.45593999997E+02  0.45594000000E+02  0.51100000000E-03 0.  1.
         11   -1    0    0    0    0 -0.00000000000E+00 -0.00000000000E+00 -0.45593999997E+02  0.45594000000E+02  0.51100000000E-03 0. -1.
    9900012    2    1    2    0    0 -0.40538917505E+01  0.44621043315E+02  0.46521135453E+01  0.46142315354E+02  0.99999780485E+01 0.  0.
         12    1    1    2    0    0  0.40538917505E+01 -0.44621043315E+02 -0.46521135453E+01  0.45045684646E+02  0.00000000000E+00 0. -1.
         11    1    3    3    0    0 -0.25827551179E+00  0.47014765483E+01  0.24894032996E+01  0.53261352802E+01  0.51100000000E-03 0. -1.
        -11    1    3    3    0    0 -0.56735194351E+01  0.27550844190E+02  0.29364571886E+01  0.28281807217E+02  0.51100000000E-03 0.  1.
        -12    1    3    3    0    0  0.18779031964E+01  0.12368722576E+02 -0.77374694287E+00  0.12534372857E+02  0.00000000000E+00 0.  1.
</event>
<event>
 7    1  0.2478637E-008  0.4614232E+02  0.7816164E-02  0.1320468E+00
        -11   -1    0    0    0    0  0.00000000000E+00  0.00000000000E+00  0.45593999997E+02  0.45594000000E+02  0.51100000000E-03 0.  1.
         11   -1    0    0    0    0 -0.00000000000E+00 -0.00000000000E+00 -0.45593999997E+02  0.45594000000E+02  0.51100000000E-03 0. -1.
    9900012    2    1    2    0    0 -0.17842750178E+02 -0.16628945938E+02  0.37871202531E+02  0.46142316987E+02  0.99999929436E+01 0.  0.
         12    1    1    2    0    0  0.17842750178E+02  0.16628945938E+02 -0.37871202531E+02  0.45045683013E+02  0.00000000000E+00 0. -1.
         11    1    3    3    0    0 -0.54923756718E+01 -0.81319500857E+01  0.10345656749E+02  0.14259292287E+02  0.51100000000E-03 0.  1.
        -11    1    3    3    0    0 -0.60568930596E+01 -0.27102676045E+01  0.69857942757E+01  0.96349792915E+01  0.51100000000E-03 0. -1.
         12    1    3    3    0    0 -0.62934814470E+01 -0.57867282479E+01  0.20539751507E+02  0.22248045408E+02  0.00000000000E+00 0. -1.
</event>
<event>
 7    1  0.2478637E-008  0.4614232E+02  0.7816164E-02  0.1320468E+00
        -11   -1    0    0    0    0  0.00000000000E+00  0.00000000000E+00  0.45593999997E+02  0.45594000000E+02  0.51100000000E-03 0.  1.
         11   -1    0    0    0    0 -0.00000000000E+00 -0.00000000000E+00 -0.45593999997E+02  0.45594000000E+02  0.51100000000E-03 0. -1.
    9900012    2    1    2    0    0 -0.25531806640E+02  0.77501942177E+01  0.36292901316E+02  0.46142319334E+02  0.10000014344E+02 0.  0.
         12    1    1    2    0    0  0.25531806640E+02 -0.77501942177E+01 -0.36292901316E+02  0.45045680666E+02  0.00000000000E+00 0. -1.
         11    1    3    3    0    0 -0.57400349450E+01  0.30438970053E+01  0.13421153255E+02  0.14911092016E+02  0.51100000000E-03 0. -1.
        -11    1    3    3    0    0 -0.74001359927E+01  0.14073548428E+01  0.13091427216E+02  0.15103910989E+02  0.51100000000E-03 0.  1.
         12    1    3    3    0    0 -0.12391635703E+02  0.32989423696E+01  0.97803208450E+01  0.16127316329E+02  0.00000000000E+00 0. -1.
</event>
<event>
 7    1  0.2478637E-008  0.4614232E+02  0.7816164E-02  0.1320468E+00
        -11   -1    0    0    0    0  0.00000000000E+00  0.00000000000E+00  0.45593999997E+02  0.45594000000E+02  0.51100000000E-03 0.  1.
         11   -1    0    0    0    0 -0.00000000000E+00 -0.00000000000E+00 -0.45593999997E+02  0.45594000000E+02  0.51100000000E-03 0. -1.
    9900012    2    1    2    0    0  0.84239554963E+01  0.21752493295E+02  0.38535432172E+02  0.46142317371E+02  0.99999964460E+01 0.  0.
         12    1    1    2    0    0 -0.84239554963E+01 -0.21752493295E+02 -0.38535432172E+02  0.45045682629E+02  0.00000000000E+00 0. -1.
         11    1    3    3    0    0  0.18828969709E+01  0.21658154576E+01  0.10027185214E+01  0.30399839299E+01  0.51100000000E-03 0. -1.
        -11    1    3    3    0    0  0.62148032488E+01  0.12230628044E+02  0.22275190875E+02  0.26160966545E+02  0.51100000000E-03 0.  1.
         12    1    3    3    0    0  0.32625527656E+00  0.73560497935E+01  0.15257522776E+02  0.16941366897E+02  0.00000000000E+00 0. -1.
</event>
<event>
 7    1  0.2478637E-008  0.4614232E+02  0.7816164E-02  0.1320468E+00
        -11   -1    0    0    0    0  0.00000000000E+00  0.00000000000E+00  0.45593999997E+02  0.45594000000E+02  0.51100000000E-03 0.  1.
         11   -1    0    0    0    0 -0.00000000000E+00 -0.00000000000E+00 -0.45593999997E+02  0.45594000000E+02  0.51100000000E-03 0. -1.
    9900012    2    1    2    0    0 -0.36688231747E+02 -0.79632500909E+01 -0.24893248323E+02  0.46142317490E+02  0.99999975274E+01 0.  0.
         12    1    1    2    0    0  0.36688231747E+02  0.79632500909E+01  0.24893248323E+02  0.45045682510E+02  0.00000000000E+00 0. -1.
         11    1    3    3    0    0 -0.94355007068E+01 -0.22481704498E+01 -0.40195083045E+01  0.10499494808E+02  0.51100000000E-03 0. -1.
        -11    1    3    3    0    0 -0.49034926418E+01  0.19304727270E+01 -0.38890902616E+01  0.65495029095E+01  0.51100000000E-03 0.  1.
        -12    1    3    3    0    0 -0.22349238398E+02 -0.76455523681E+01 -0.16984649757E+02  0.29093319772E+02  0.00000000000E+00 0.  1.
</event>
<event>
 7    1  0.2478637E-008  0.4614232E+02  0.7816164E-02  0.1320468E+00
        -11   -1    0    0    0    0  0.00000000000E+00  0.00000000000E+00  0.45593999997E+02  0.45594000000E+02  0.51100000000E-03 0.  1.
         11   -1    0    0    0    0 -0.00000000000E+00 -0.00000000000E+00 -0.45593999997E+02  0.45594000000E+02  0.51100000000E-03 0. -1.
    9900012    2    1    2    0    0  0.18612135376E+02 -0.19504789672E+02  0.36086910596E+02  0.46142317413E+02  0.99999968225E+01 0.  0.
         12    1    1    2    0    0 -0.18612135376E+02  0.19504789672E+02 -0.36086910596E+02  0.45045682587E+02  0.00000000000E+00 0. -1.
         11    1    3    3    0    0  0.63017402118E+01 -0.98489313033E+01  0.13790897629E+02  0.18080437915E+02  0.51100000000E-03 0. -1.
        -11    1    3    3    0    0  0.80740579594E+01 -0.94183631231E+01  0.13740907999E+02  0.18512388521E+02  0.51100000000E-03 0.  1.
         12    1    3    3    0    0  0.42363372050E+01 -0.23749524522E+00  0.85551049682E+01  0.95494909772E+01  0.00000000000E+00 0. -1.
</event>
<event>
 7    1  0.2478637E-008  0.4614232E+02  0.7816164E-02  0.1320468E+00
        -11   -1    0    0    0    0  0.00000000000E+00  0.00000000000E+00  0.45593999997E+02  0.45594000000E+02  0.51100000000E-03 0.  1.
         11   -1    0    0    0    0 -0.00000000000E+00 -0.00000000000E+00 -0.45593999997E+02  0.45594000000E+02  0.51100000000E-03 0. -1.
    9900012    2    1    2    0    0 -0.37221392207E+02 -0.13937720948E+01  0.25332567050E+02  0.46142316613E+02  0.99999895310E+01 0.  0.
         12    1    1    2    0    0  0.37221392207E+02  0.13937720948E+01 -0.25332567050E+02  0.45045683387E+02  0.00000000000E+00 0. -1.
         11    1    3    3    0    0 -0.13297501815E+02  0.14509034231E+01  0.50562882904E+01  0.14300165271E+02  0.51100000000E-03 0. -1.
        -11    1    3    3    0    0 -0.10074606574E+02  0.96699603555E+00  0.95461322972E+01  0.13912635302E+02  0.51100000000E-03 0.  1.
        -12    1    3    3    0    0 -0.13849283818E+02 -0.38116715535E+01  0.10730146462E+02  0.17929516040E+02  0.00000000000E+00 0.  1.
</event>
<event>
 7    1  0.2478637E-008  0.4614232E+02  0.7816164E-02  0.1320468E+00
        -11   -1    0    0    0    0  0.00000000000E+00  0.00000000000E+00  0.45593999997E+02  0.45594000000E+02  0.51100000000E-03 0.  1.
         11   -1    0    0    0    0 -0.00000000000E+00 -0.00000000000E+00 -0.45593999997E+02  0.45594000000E+02  0.51100000000E-03 0. -1.
    9900012    2    1    2    0    0 -0.65662527592E+01 -0.32718210529E+02  0.30257504293E+02  0.46142317171E+02  0.99999946160E+01 0.  0.
         12    1    1    2    0    0  0.65662527592E+01  0.32718210529E+02 -0.30257504293E+02  0.45045682829E+02  0.00000000000E+00 0. -1.
         11    1    3    3    0    0 -0.32078444608E+01 -0.59031433644E+01  0.77098495721E+01  0.10226394690E+02  0.51100000000E-03 0. -1.
        -11    1    3    3    0    0 -0.51451890642E+01 -0.12743223287E+02  0.11910188553E+02  0.18185579504E+02  0.51100000000E-03 0.  1.
         12    1    3    3    0    0  0.17867807659E+01 -0.14071843878E+02  0.10637466167E+02  0.17730342977E+02  0.00000000000E+00 0. -1.
</event>
<event>
 7    1  0.2478637E-008  0.4614232E+02  0.7816164E-02  0.1320468E+00
        -11   -1    0    0    0    0  0.00000000000E+00  0.00000000000E+00  0.45593999997E+02  0.45594000000E+02  0.51100000000E-03 0. -1.
         11   -1    0    0    0    0 -0.00000000000E+00 -0.00000000000E+00 -0.45593999997E+02  0.45594000000E+02  0.51100000000E-03 0.  1.
    9900012    2    1    2    0    0  0.43392536452E+02  0.12063783980E+02 -0.81638321045E+00  0.46142316686E+02  0.99999901972E+01 0.  0.
         12    1    1    2    0    0 -0.43392536452E+02 -0.12063783980E+02  0.81638321045E+00  0.45045683314E+02  0.00000000000E+00 0. -1.
         11    1    3    3    0    0  0.34712204262E+02  0.94886917552E+01 -0.19815696300E+01  0.36040241597E+02  0.51100000000E-03 0. -1.
        -11    1    3    3    0    0  0.87144431911E+01  0.32926783084E+01  0.10556118921E+01  0.93753702488E+01  0.51100000000E-03 0.  1.
         12    1    3    3    0    0 -0.34111000866E-01 -0.71758608326E+00  0.10957452748E+00  0.72670483991E+00  0.00000000000E+00 0. -1.
</event>
<event>
 7    1  0.2478637E-008  0.4614232E+02  0.7816164E-02  0.1320468E+00
        -11   -1    0    0    0    0  0.00000000000E+00  0.00000000000E+00  0.45593999997E+02  0.45594000000E+02  0.51100000000E-03 0.  1.
         11   -1    0    0    0    0 -0.00000000000E+00 -0.00000000000E+00 -0.45593999997E+02  0.45594000000E+02  0.51100000000E-03 0. -1.
    9900012    2    1    2    0    0  0.74791669455E+01 -0.94879069866E+01  0.43395335372E+02  0.46142318195E+02  0.10000003958E+02 0.  0.
         12    1    1    2    0    0 -0.74791669455E+01  0.94879069866E+01 -0.43395335372E+02  0.45045681805E+02  0.00000000000E+00 0. -1.
         11    1    3    3    0    0 -0.51856642362E+00  0.78457499094E+00  0.11784361873E+02  0.11821829557E+02  0.51100000000E-03 0. -1.
        -11    1    3    3    0    0  0.10802733569E+01 -0.29328748352E+01  0.98911883671E+01  0.10373251800E+02  0.51100000000E-03 0.  1.
        -12    1    3    3    0    0  0.69174600122E+01 -0.73396071424E+01  0.21719785132E+02  0.23947236839E+02  0.00000000000E+00 0.  1.
</event>
<event>
 7    1  0.2478637E-008  0.4614232E+02  0.7816164E-02  0.1320468E+00
        -11   -1    0    0    0    0  0.00000000000E+00  0.00000000000E+00  0.45593999997E+02  0.45594000000E+02  0.51100000000E-03 0.  1.
         11   -1    0    0    0    0 -0.00000000000E+00 -0.00000000000E+00 -0.45593999997E+02  0.45594000000E+02  0.51100000000E-03 0. -1.
    9900012    2    1    2    0    0 -0.88017418014E+01  0.85175266546E+01  0.43348524312E+02  0.46142317865E+02  0.10000000944E+02 0.  0.
         12    1    1    2    0    0  0.88017418014E+01 -0.85175266546E+01 -0.43348524312E+02  0.45045682135E+02  0.00000000000E+00 0. -1.
         11    1    3    3    0    0  0.21250271503E+00  0.34094688966E+01  0.14224371207E+02  0.14628819914E+02  0.51100000000E-03 0. -1.
        -11    1    3    3    0    0 -0.40600179579E+01  0.46683707544E+01  0.10051246713E+02  0.11802753580E+02  0.51100000000E-03 0.  1.
        -12    1    3    3    0    0 -0.49542265585E+01  0.43968700357E+00  0.19072906391E+02  0.19710744371E+02  0.00000000000E+00 0.  1.
</event>
<event>
 7    1  0.2478637E-008  0.4614232E+02  0.7816164E-02  0.1320468E+00
        -11   -1    0    0    0    0  0.00000000000E+00  0.00000000000E+00  0.45593999997E+02  0.45594000000E+02  0.51100000000E-03 0.  1.
         11   -1    0    0    0    0 -0.00000000000E+00 -0.00000000000E+00 -0.45593999997E+02  0.45594000000E+02  0.51100000000E-03 0. -1.
    9900012    2    1    2    0    0 -0.14480330086E+02  0.16641577045E+02  0.39274566025E+02  0.46142316717E+02  0.99999904811E+01 0.  0.
         12    1    1    2    0    0  0.14480330086E+02 -0.16641577045E+02 -0.39274566025E+02  0.45045683283E+02  0.00000000000E+00 0. -1.
         11    1    3    3    0    0  0.10293783412E+01 -0.21857898112E+00  0.22433466377E+01  0.24779025280E+01  0.51100000000E-03 0. -1.
        -11    1    3    3    0    0 -0.20010276801E+01  0.27411722355E+01  0.77656771497E+01  0.84748969820E+01  0.51100000000E-03 0.  1.
        -12    1    3    3    0    0 -0.13508680747E+02  0.14118983791E+02  0.29265542238E+02  0.35189517207E+02  0.00000000000E+00 0.  1.
</event>
<event>
 7    1  0.2478637E-008  0.4614232E+02  0.7816164E-02  0.1320468E+00
        -11   -1    0    0    0    0  0.00000000000E+00  0.00000000000E+00  0.45593999997E+02  0.45594000000E+02  0.51100000000E-03 0.  1.
         11   -1    0    0    0    0 -0.00000000000E+00 -0.00000000000E+00 -0.45593999997E+02  0.45594000000E+02  0.51100000000E-03 0. -1.
    9900012    2    1    2    0    0 -0.12762584474E+02 -0.29023487286E+02  0.31997923985E+02  0.46142317454E+02  0.99999971971E+01 0.  0.
         12    1    1    2    0    0  0.12762584474E+02  0.29023487286E+02 -0.31997923985E+02  0.45045682546E+02  0.00000000000E+00 0. -1.
         11    1    3    3    0    0 -0.45409604083E+01 -0.81481751664E+01  0.65255746862E+01  0.11384032907E+02  0.51100000000E-03 0. -1.
        -11    1    3    3    0    0 -0.32984367103E+01 -0.20039381877E+01  0.23892835420E+01  0.45391771388E+01  0.51100000000E-03 0.  1.
        -12    1    3    3    0    0 -0.49231873551E+01 -0.18871373932E+02  0.23083065757E+02  0.30219107408E+02  0.00000000000E+00 0.  1.
</event>
<event>
 7    1  0.2478637E-008  0.4614232E+02  0.7816164E-02  0.1320468E+00
        -11   -1    0    0    0    0  0.00000000000E+00  0.00000000000E+00  0.45593999997E+02  0.45594000000E+02  0.51100000000E-03 0.  1.
         11   -1    0    0    0    0 -0.00000000000E+00 -0.00000000000E+00 -0.45593999997E+02  0.45594000000E+02  0.51100000000E-03 0. -1.
    9900012    2    1    2    0    0 -0.16451531043E+02  0.18462794738E+02  0.37650840525E+02  0.46142318127E+02  0.10000003337E+02 0.  0.
         12    1    1    2    0    0  0.16451531043E+02 -0.18462794738E+02 -0.37650840525E+02  0.45045681873E+02  0.00000000000E+00 0. -1.
         11    1    3    3    0    0 -0.74377241105E+01  0.32522520179E+01  0.93469498087E+01  0.12379917371E+02  0.51100000000E-03 0.  1.
        -11    1    3    3    0    0  0.25239506789E-01 -0.36820967174E+00  0.86245425161E+00  0.93810606666E+00  0.51100000000E-03 0. -1.
        -12    1    3    3    0    0 -0.90390464394E+01  0.15578752392E+02  0.27441436464E+02  0.32824294689E+02  0.00000000000E+00 0.  1.
</event>
<event>
 7    1  0.2478637E-008  0.4614232E+02  0.7816164E-02  0.1320468E+00
        -11   -1    0    0    0    0  0.00000000000E+00  0.00000000000E+00  0.45593999997E+02  0.45594000000E+02  0.51100000000E-03 0.  1.
         11   -1    0    0    0    0 -0.00000000000E+00 -0.00000000000E+00 -0.45593999997E+02  0.45594000000E+02  0.51100000000E-03 0. -1.
    9900012    2    1    2    0    0 -0.23073543322E+02 -0.34862973130E+02  0.16771947249E+02  0.46142317505E+02  0.99999976610E+01 0.  0.
         12    1    1    2    0    0  0.23073543322E+02  0.34862973130E+02 -0.16771947249E+02  0.45045682495E+02  0.00000000000E+00 0. -1.
         11    1    3    3    0    0 -0.40702415651E+01 -0.94644160246E+01  0.22586146107E+01  0.10547197604E+02  0.51100000000E-03 0. -1.
        -11    1    3    3    0    0 -0.18606129367E+02 -0.25058292959E+02  0.12679073777E+02  0.33687757541E+02  0.51100000000E-03 0.  1.
         12    1    3    3    0    0 -0.39717239022E+00 -0.34026414681E+00  0.18342588618E+01  0.19073623592E+01  0.00000000000E+00 0. -1.
</event>
<event>
 7    1  0.2478637E-008  0.4614231E+02  0.7816164E-02  0.1320468E+00
        -11   -1    0    0    0    0  0.00000000000E+00  0.00000000000E+00  0.45593999997E+02  0.45594000000E+02  0.51100000000E-03 0.  1.
         11   -1    0    0    0    0 -0.00000000000E+00 -0.00000000000E+00 -0.45593999997E+02  0.45594000000E+02  0.51100000000E-03 0. -1.
    9900012    2    1    2    0    0 -0.12506567058E+02 -0.29270573176E+02  0.31873713087E+02  0.46142309201E+02  0.99999219415E+01 0.  0.
         12    1    1    2    0    0  0.12506567058E+02  0.29270573176E+02 -0.31873713087E+02  0.45045690799E+02  0.00000000000E+00 0. -1.
         11    1    3    3    0    0 -0.34880656825E+00 -0.25657458647E+01  0.47536622914E+00  0.26326205912E+01  0.51100000000E-03 0. -1.
        -11    1    3    3    0    0 -0.89015592051E+00 -0.93339790982E+01  0.10825406301E+02  0.14321486138E+02  0.51100000000E-03 0.  1.
        -12    1    3    3    0    0 -0.11267604569E+02 -0.17370848213E+02  0.20572940557E+02  0.29188202472E+02  0.00000000000E+00 0.  1.
</event>
<event>
 7    1  0.2478637E-008  0.4614232E+02  0.7816164E-02  0.1320468E+00
        -11   -1    0    0    0    0  0.00000000000E+00  0.00000000000E+00  0.45593999997E+02  0.45594000000E+02  0.51100000000E-03 0.  1.
         11   -1    0    0    0    0 -0.00000000000E+00 -0.00000000000E+00 -0.45593999997E+02  0.45594000000E+02  0.51100000000E-03 0. -1.
    9900012    2    1    2    0    0  0.77438665035E+01  0.63660091785E+01  0.43916057157E+02  0.46142316328E+02  0.99999869319E+01 0.  0.
         12    1    1    2    0    0 -0.77438665035E+01 -0.63660091785E+01 -0.43916057157E+02  0.45045683672E+02  0.00000000000E+00 0. -1.
         11    1    3    3    0    0  0.83388371429E+00  0.25317686861E+01  0.17766229830E+02  0.17965081056E+02  0.51100000000E-03 0. -1.
        -11    1    3    3    0    0  0.59250581725E+01  0.23959622814E+01  0.95815699211E+01  0.11517527166E+02  0.51100000000E-03 0.  1.
        -12    1    3    3    0    0  0.98492461674E+00  0.14382782110E+01  0.16568257405E+02  0.16659708106E+02  0.00000000000E+00 0.  1.
</event>
<event>
 7    1  0.3784673E-008  0.4614232E+02  0.7816164E-02  0.1320468E+00
        -11   -1    0    0    0    0  0.00000000000E+00  0.00000000000E+00  0.45593999997E+02  0.45594000000E+02  0.51100000000E-03 0.  1.
         11   -1    0    0    0    0 -0.00000000000E+00 -0.00000000000E+00 -0.45593999997E+02  0.45594000000E+02  0.51100000000E-03 0. -1.
    9900012    2    1    2    0    0  0.31900439110E+02  0.31786318735E+02 -0.10514180607E+01  0.46142317031E+02  0.99999933454E+01 0.  0.
         12    1    1    2    0    0 -0.31900439110E+02 -0.31786318735E+02  0.10514180607E+01  0.45045682969E+02  0.00000000000E+00 0. -1.
         11    1    3    3    0    0  0.18625352703E+01  0.31297317270E+01 -0.18653116304E+01  0.40919000545E+01  0.51100000000E-03 0.  1.
        -11    1    3    3    0    0  0.33596993238E+01  0.77072449046E+00 -0.82095122906E-01  0.34479465856E+01  0.51100000000E-03 0. -1.
        -12    1    3    3    0    0  0.26678204516E+02  0.27885862518E+02  0.89598869265E+00  0.38602470391E+02  0.00000000000E+00 0.  1.
</event>
<event>
 7    1  0.2478637E-008  0.4614232E+02  0.7816164E-02  0.1320468E+00
        -11   -1    0    0    0    0  0.00000000000E+00  0.00000000000E+00  0.45593999997E+02  0.45594000000E+02  0.51100000000E-03 0.  1.
         11   -1    0    0    0    0 -0.00000000000E+00 -0.00000000000E+00 -0.45593999997E+02  0.45594000000E+02  0.51100000000E-03 0. -1.
    9900012    2    1    2    0    0  0.25416306316E+01  0.20984798123E+02  0.39778032019E+02  0.46142317967E+02  0.10000001877E+02 0.  0.
         12    1    1    2    0    0 -0.25416306316E+01 -0.20984798123E+02 -0.39778032019E+02  0.45045682033E+02  0.00000000000E+00 0. -1.
         11    1    3    3    0    0  0.75047433722E+00  0.28897278606E+01  0.20147380643E+01  0.36017924105E+01  0.51100000000E-03 0. -1.
        -11    1    3    3    0    0  0.25060997303E+01  0.17091886326E+02  0.29498429974E+02  0.34184360243E+02  0.51100000000E-03 0.  1.
         12    1    3    3    0    0 -0.71494343593E+00  0.10031839363E+01  0.82648639806E+01  0.83561653133E+01  0.00000000000E+00 0. -1.
</event>
<event>
 7    1  0.2478637E-008  0.4614232E+02  0.7816164E-02  0.1320468E+00
        -11   -1    0    0    0    0  0.00000000000E+00  0.00000000000E+00  0.45593999997E+02  0.45594000000E+02  0.51100000000E-03 0.  1.
         11   -1    0    0    0    0 -0.00000000000E+00 -0.00000000000E+00 -0.45593999997E+02  0.45594000000E+02  0.51100000000E-03 0. -1.
    9900012    2    1    2    0    0 -0.36467381337E+02  0.23914665383E+00  0.26442132810E+02  0.46142317851E+02  0.10000000819E+02 0.  0.
         12    1    1    2    0    0  0.36467381337E+02 -0.23914665383E+00 -0.26442132810E+02  0.45045682149E+02  0.00000000000E+00 0. -1.
         11    1    3    3    0    0 -0.16535461498E+02 -0.13494924013E+01  0.16385790874E+02  0.23318163725E+02  0.51100000000E-03 0. -1.
        -11    1    3    3    0    0  0.14120590813E+00 -0.27158395717E+00  0.29863314730E+00  0.42764351049E+00  0.51100000000E-03 0.  1.
        -12    1    3    3    0    0 -0.20073125747E+02  0.18602230123E+01  0.97577087891E+01  0.22396510615E+02  0.00000000000E+00 0.  1.
</event>
<event>
 7    1  0.2478637E-008  0.4614232E+02  0.7816164E-02  0.1320468E+00
        -11   -1    0    0    0    0  0.00000000000E+00  0.00000000000E+00  0.45593999997E+02  0.45594000000E+02  0.51100000000E-03 0. -1.
         11   -1    0    0    0    0 -0.00000000000E+00 -0.00000000000E+00 -0.45593999997E+02  0.45594000000E+02  0.51100000000E-03 0.  1.
    9900012    2    1    2    0    0  0.15636631653E+01 -0.41886667714E+02 -0.16497742028E+02  0.46142318001E+02  0.10000002189E+02 0.  0.
         12    1    1    2    0    0 -0.15636631653E+01  0.41886667714E+02  0.16497742028E+02  0.45045681999E+02  0.00000000000E+00 0. -1.
         11    1    3    3    0    0  0.18187693264E+01 -0.28215483253E+01 -0.14300125583E+01  0.36488344704E+01  0.51100000000E-03 0.  1.
        -11    1    3    3    0    0 -0.28457476588E+01 -0.17343404264E+02 -0.42149636986E+01  0.18073678940E+02  0.51100000000E-03 0. -1.
        -12    1    3    3    0    0  0.25906414977E+01 -0.21721715125E+02 -0.10852765771E+02  0.24419804591E+02  0.00000000000E+00 0.  1.
</event>
<event>
 7    1  0.2478637E-008  0.4614231E+02  0.7816164E-02  0.1320468E+00
        -11   -1    0    0    0    0  0.00000000000E+00  0.00000000000E+00  0.45593999997E+02  0.45594000000E+02  0.51100000000E-03 0. -1.
         11   -1    0    0    0    0 -0.00000000000E+00 -0.00000000000E+00 -0.45593999997E+02  0.45594000000E+02  0.51100000000E-03 0.  1.
    9900012    2    1    2    0    0  0.43054211417E+02  0.48082375298E+01  0.12342194609E+02  0.46142311675E+02  0.99999445057E+01 0.  0.
         12    1    1    2    0    0 -0.43054211417E+02 -0.48082375298E+01 -0.12342194609E+02  0.45045688325E+02  0.00000000000E+00 0. -1.
         11    1    3    3    0    0  0.16990589135E+02  0.61558107018E+01  0.62118472800E+01  0.19109190758E+02  0.51100000000E-03 0. -1.
        -11    1    3    3    0    0  0.20738739266E+02 -0.20131815448E+00  0.59782230839E+01  0.21584137389E+02  0.51100000000E-03 0.  1.
         12    1    3    3    0    0  0.53248830161E+01 -0.11462550175E+01  0.15212424497E+00  0.54489835278E+01  0.00000000000E+00 0. -1.
</event>
<event>
 7    1  0.2478637E-008  0.4614232E+02  0.7816164E-02  0.1320468E+00
        -11   -1    0    0    0    0  0.00000000000E+00  0.00000000000E+00  0.45593999997E+02  0.45594000000E+02  0.51100000000E-03 0.  1.
         11   -1    0    0    0    0 -0.00000000000E+00 -0.00000000000E+00 -0.45593999997E+02  0.45594000000E+02  0.51100000000E-03 0. -1.
    9900012    2    1    2    0    0  0.23040652001E+02  0.81534515518E+01  0.37838645674E+02  0.46142317373E+02  0.99999964624E+01 0.  0.
         12    1    1    2    0    0 -0.23040652001E+02 -0.81534515518E+01 -0.37838645674E+02  0.45045682627E+02  0.00000000000E+00 0. -1.
         11    1    3    3    0    0  0.34135505940E+01  0.37956274952E+01  0.60679450786E+01  0.79296326193E+01  0.51100000000E-03 0. -1.
        -11    1    3    3    0    0  0.10556241135E+02  0.57808649035E+01  0.18742585555E+02  0.22274136110E+02  0.51100000000E-03 0.  1.
        -12    1    3    3    0    0  0.90708602726E+01 -0.14230408469E+01  0.13028115041E+02  0.15938548644E+02  0.00000000000E+00 0.  1.
</event>
<event>
 7    1  0.2478637E-008  0.4614232E+02  0.7816164E-02  0.1320468E+00
        -11   -1    0    0    0    0  0.00000000000E+00  0.00000000000E+00  0.45593999997E+02  0.45594000000E+02  0.51100000000E-03 0.  1.
         11   -1    0    0    0    0 -0.00000000000E+00 -0.00000000000E+00 -0.45593999997E+02  0.45594000000E+02  0.51100000000E-03 0. -1.
    9900012    2    1    2    0    0  0.33181984164E+02  0.20011869025E+02  0.22969425268E+02  0.46142317942E+02  0.10000001646E+02 0.  0.
         12    1    1    2    0    0 -0.33181984164E+02 -0.20011869025E+02 -0.22969425268E+02  0.45045682058E+02  0.00000000000E+00 0. -1.
         11    1    3    3    0    0  0.85551088859E+01  0.78514721247E+01  0.90707647718E+01  0.14734798145E+02  0.51100000000E-03 0. -1.
        -11    1    3    3    0    0  0.14724313509E+02  0.93975944508E+01  0.11297763145E+02  0.20802875814E+02  0.51100000000E-03 0.  1.
         12    1    3    3    0    0  0.99025617692E+01  0.27628024494E+01  0.26008973518E+01  0.10604643983E+02  0.00000000000E+00 0. -1.
</event>
<event>
 7    1  0.2478637E-008  0.4614232E+02  0.7816164E-02  0.1320468E+00
        -11   -1    0    0    0    0  0.00000000000E+00  0.00000000000E+00  0.45593999997E+02  0.45594000000E+02  0.51100000000E-03 0.  1.
         11   -1    0    0    0    0 -0.00000000000E+00 -0.00000000000E+00 -0.45593999997E+02  0.45594000000E+02  0.51100000000E-03 0. -1.
    9900012    2    1    2    0    0 -0.37824776498E+02  0.15130909963E+02  0.19221221243E+02  0.46142317637E+02  0.99999988691E+01 0.  0.
         12    1    1    2    0    0  0.37824776498E+02 -0.15130909963E+02 -0.19221221243E+02  0.45045682363E+02  0.00000000000E+00 0. -1.
         11    1    3    3    0    0 -0.65303659291E+01  0.41822556860E+01  0.23455844179E+00  0.77583477439E+01  0.51100000000E-03 0. -1.
        -11    1    3    3    0    0 -0.26664369777E+01  0.17145007616E+01  0.27751107690E+01  0.42131507283E+01  0.51100000000E-03 0.  1.
        -12    1    3    3    0    0 -0.28627973592E+02  0.92341535155E+01  0.16211552032E+02  0.34170819165E+02  0.00000000000E+00 0.  1.
</event>
<event>
 7    1  0.2478637E-008  0.4614232E+02  0.7816164E-02  0.1320468E+00
        -11   -1    0    0    0    0  0.00000000000E+00  0.00000000000E+00  0.45593999997E+02  0.45594000000E+02  0.51100000000E-03 0. -1.
         11   -1    0    0    0    0 -0.00000000000E+00 -0.00000000000E+00 -0.45593999997E+02  0.45594000000E+02  0.51100000000E-03 0.  1.
    9900012    2    1    2    0    0 -0.78080679365E+01 -0.39176527750E+02  0.20816997156E+02  0.46142316277E+02  0.99999864675E+01 0.  0.
         12    1    1    2    0    0  0.78080679365E+01  0.39176527750E+02 -0.20816997156E+02  0.45045683723E+02  0.00000000000E+00 0. -1.
         11    1    3    3    0    0 -0.30548083242E+01 -0.28655280708E+01  0.40423786547E+00  0.42079108279E+01  0.51100000000E-03 0. -1.
        -11    1    3    3    0    0 -0.24377860334E+01 -0.16430807348E+02  0.88954629130E+01  0.18842597792E+02  0.51100000000E-03 0.  1.
         12    1    3    3    0    0 -0.23154735789E+01 -0.19880192332E+02  0.11517296378E+02  0.23091807658E+02  0.00000000000E+00 0. -1.
</event>
<event>
 7    1  0.2478637E-008  0.4614232E+02  0.7816164E-02  0.1320468E+00
        -11   -1    0    0    0    0  0.00000000000E+00  0.00000000000E+00  0.45593999997E+02  0.45594000000E+02  0.51100000000E-03 0.  1.
         11   -1    0    0    0    0 -0.00000000000E+00 -0.00000000000E+00 -0.45593999997E+02  0.45594000000E+02  0.51100000000E-03 0. -1.
    9900012    2    1    2    0    0  0.23221360190E+02 -0.73712919099E+01  0.37888599306E+02  0.46142317955E+02  0.10000001768E+02 0.  0.
         12    1    1    2    0    0 -0.23221360190E+02  0.73712919099E+01 -0.37888599306E+02  0.45045682045E+02  0.00000000000E+00 0. -1.
         11    1    3    3    0    0 -0.42468200592E-01 -0.24150397599E-01 -0.38948346835E+00  0.39253588754E+00  0.51100000000E-03 0. -1.
        -11    1    3    3    0    0  0.16473096335E+02 -0.77909589597E+01  0.26874524536E+02  0.32470017149E+02  0.51100000000E-03 0.  1.
        -12    1    3    3    0    0  0.67907320554E+01  0.44381744737E+00  0.11403558239E+02  0.13279764918E+02  0.00000000000E+00 0.  1.
</event>
<event>
 7    1  0.2478637E-008  0.4614232E+02  0.7816164E-02  0.1320468E+00
        -11   -1    0    0    0    0  0.00000000000E+00  0.00000000000E+00  0.45593999997E+02  0.45594000000E+02  0.51100000000E-03 0.  1.
         11   -1    0    0    0    0 -0.00000000000E+00 -0.00000000000E+00 -0.45593999997E+02  0.45594000000E+02  0.51100000000E-03 0. -1.
    9900012    2    1    2    0    0 -0.25630852321E+02  0.21706739271E+02  0.30016502314E+02  0.46142317280E+02  0.99999956170E+01 0.  0.
         12    1    1    2    0    0  0.25630852321E+02 -0.21706739271E+02 -0.30016502314E+02  0.45045682720E+02  0.00000000000E+00 0. -1.
         11    1    3    3    0    0 -0.27246991958E+01  0.12429065316E+01  0.60207441871E+01  0.67244451951E+01  0.51100000000E-03 0. -1.
        -11    1    3    3    0    0 -0.30023990391E+01  0.42357049201E+01  0.18646053904E+01  0.55165523367E+01  0.51100000000E-03 0.  1.
        -12    1    3    3    0    0 -0.19903754087E+02  0.16228127820E+02  0.22131152736E+02  0.33901319749E+02  0.00000000000E+00 0.  1.
</event>
<event>
 7    1  0.2478637E-008  0.4614232E+02  0.7816164E-02  0.1320468E+00
        -11   -1    0    0    0    0  0.00000000000E+00  0.00000000000E+00  0.45593999997E+02  0.45594000000E+02  0.51100000000E-03 0. -1.
         11   -1    0    0    0    0 -0.00000000000E+00 -0.00000000000E+00 -0.45593999997E+02  0.45594000000E+02  0.51100000000E-03 0.  1.
    9900012    2    1    2    0    0 -0.11234436416E-01 -0.36928621797E+01 -0.44894048456E+02  0.46142323803E+02  0.10000055092E+02 0.  0.
         12    1    1    2    0    0  0.11234436416E-01  0.36928621797E+01  0.44894048456E+02  0.45045676197E+02  0.00000000000E+00 0. -1.
         11    1    3    3    0    0 -0.24104661460E+01 -0.17247895626E+01 -0.60132501091E+01  0.67040602035E+01  0.51100000000E-03 0. -1.
        -11    1    3    3    0    0  0.43383455876E+01 -0.12431821464E+01 -0.25025913617E+02  0.25429571309E+02  0.51100000000E-03 0.  1.
        -12    1    3    3    0    0 -0.19391138780E+01 -0.72489047067E+00 -0.13854884730E+02  0.14008692291E+02  0.00000000000E+00 0.  1.
</event>
<event>
 7    1  0.2478637E-008  0.4614232E+02  0.7816164E-02  0.1320468E+00
        -11   -1    0    0    0    0  0.00000000000E+00  0.00000000000E+00  0.45593999997E+02  0.45594000000E+02  0.51100000000E-03 0.  1.
         11   -1    0    0    0    0 -0.00000000000E+00 -0.00000000000E+00 -0.45593999997E+02  0.45594000000E+02  0.51100000000E-03 0. -1.
    9900012    2    1    2    0    0 -0.41115212274E+02 -0.18381779653E+02  0.87348982948E+00  0.46142317765E+02  0.10000000035E+02 0.  0.
         12    1    1    2    0    0  0.41115212274E+02  0.18381779653E+02 -0.87348982948E+00  0.45045682235E+02  0.00000000000E+00 0. -1.
         11    1    3    3    0    0 -0.46573938122E+01 -0.12579596186E+01  0.31179091475E+00  0.48343555268E+01  0.51100000000E-03 0. -1.
        -11    1    3    3    0    0 -0.16230395816E+02 -0.11929949970E+02 -0.21131126225E+01  0.20253757673E+02  0.51100000000E-03 0.  1.
        -12    1    3    3    0    0 -0.20227422646E+02 -0.51938700638E+01  0.26748115372E+01  0.21054204566E+02  0.00000000000E+00 0.  1.
</event>
<event>
 7    1  0.2478637E-008  0.4614232E+02  0.7816164E-02  0.1320468E+00
        -11   -1    0    0    0    0  0.00000000000E+00  0.00000000000E+00  0.45593999997E+02  0.45594000000E+02  0.51100000000E-03 0.  1.
         11   -1    0    0    0    0 -0.00000000000E+00 -0.00000000000E+00 -0.45593999997E+02  0.45594000000E+02  0.51100000000E-03 0. -1.
    9900012    2    1    2    0    0  0.14046638624E+02  0.42701666884E+02  0.28936179334E+01  0.46142318342E+02  0.10000005297E+02 0.  0.
         12    1    1    2    0    0 -0.14046638624E+02 -0.42701666884E+02 -0.28936179334E+01  0.45045681658E+02  0.00000000000E+00 0. -1.
         11    1    3    3    0    0  0.52449681240E+01  0.19848475575E+02 -0.70515373430E+00  0.20541881981E+02  0.51100000000E-03 0.  1.
        -11    1    3    3    0    0  0.92937918265E+01  0.16742915453E+02  0.19246528040E+01  0.19245884574E+02  0.51100000000E-03 0. -1.
         12    1    3    3    0    0 -0.49212132672E+00  0.61102758563E+01  0.16741188636E+01  0.63545517867E+01  0.00000000000E+00 0. -1.
</event>
<event>
 7    1  0.2478637E-008  0.4614232E+02  0.7816164E-02  0.1320468E+00
        -11   -1    0    0    0    0  0.00000000000E+00  0.00000000000E+00  0.45593999997E+02  0.45594000000E+02  0.51100000000E-03 0. -1.
         11   -1    0    0    0    0 -0.00000000000E+00 -0.00000000000E+00 -0.45593999997E+02  0.45594000000E+02  0.51100000000E-03 0.  1.
    9900012    2    1    2    0    0 -0.73491912758E+01  0.18525883641E+01 -0.44403499423E+02  0.46142318109E+02  0.10000003172E+02 0.  0.
         12    1    1    2    0    0  0.73491912758E+01 -0.18525883641E+01  0.44403499423E+02  0.45045681891E+02  0.00000000000E+00 0. -1.
         11    1    3    3    0    0 -0.62294975456E+01  0.26243245167E+01 -0.22673993593E+02  0.23660171271E+02  0.51100000000E-03 0. -1.
        -11    1    3    3    0    0  0.18292630900E+01  0.99072504038E+00 -0.11622574132E+02  0.11807284585E+02  0.51100000000E-03 0.  1.
         12    1    3    3    0    0 -0.29489568203E+01 -0.17624611929E+01 -0.10106931698E+02  0.10674862253E+02  0.00000000000E+00 0. -1.
</event>
<event>
 7    1  0.2478637E-008  0.4614232E+02  0.7816164E-02  0.1320468E+00
        -11   -1    0    0    0    0  0.00000000000E+00  0.00000000000E+00  0.45593999997E+02  0.45594000000E+02  0.51100000000E-03 0.  1.
         11   -1    0    0    0    0 -0.00000000000E+00 -0.00000000000E+00 -0.45593999997E+02  0.45594000000E+02  0.51100000000E-03 0. -1.
    9900012    2    1    2    0    0 -0.28562519693E+02  0.32726570916E+02  0.11927586764E+02  0.46142319839E+02  0.10000018951E+02 0.  0.
         12    1    1    2    0    0  0.28562519693E+02 -0.32726570916E+02 -0.11927586764E+02  0.45045680161E+02  0.00000000000E+00 0. -1.
         11    1    3    3    0    0 -0.50809209798E+01  0.63636669409E+01  0.45791852538E+01  0.93424275639E+01  0.51100000000E-03 0. -1.
        -11    1    3    3    0    0 -0.58462892691E-01  0.13913188728E+01 -0.79983136750E+00  0.16059005552E+01  0.51100000000E-03 0.  1.
        -12    1    3    3    0    0 -0.23423135820E+02  0.24971585102E+02  0.81482328773E+01  0.35193991720E+02  0.00000000000E+00 0.  1.
</event>
<event>
 7    1  0.2478637E-008  0.4614232E+02  0.7816164E-02  0.1320468E+00
        -11   -1    0    0    0    0  0.00000000000E+00  0.00000000000E+00  0.45593999997E+02  0.45594000000E+02  0.51100000000E-03 0.  1.
         11   -1    0    0    0    0 -0.00000000000E+00 -0.00000000000E+00 -0.45593999997E+02  0.45594000000E+02  0.51100000000E-03 0. -1.
    9900012    2    1    2    0    0  0.76454564487E+01 -0.12411768677E+02  0.42621688752E+02  0.46142319208E+02  0.10000013192E+02 0.  0.
         12    1    1    2    0    0 -0.76454564487E+01  0.12411768677E+02 -0.42621688752E+02  0.45045680792E+02  0.00000000000E+00 0. -1.
         11    1    3    3    0    0 -0.69364601520E+00 -0.59975756471E+01  0.11759938570E+02  0.13219236509E+02  0.51100000000E-03 0. -1.
        -11    1    3    3    0    0  0.39455474709E+01 -0.37637491239E+01  0.94995642674E+01  0.10953304243E+02  0.51100000000E-03 0.  1.
        -12    1    3    3    0    0  0.43935549930E+01 -0.26504439058E+01  0.21362185914E+02  0.21969778456E+02  0.00000000000E+00 0.  1.
</event>
<event>
 7    1  0.2478637E-008  0.4614232E+02  0.7816164E-02  0.1320468E+00
        -11   -1    0    0    0    0  0.00000000000E+00  0.00000000000E+00  0.45593999997E+02  0.45594000000E+02  0.51100000000E-03 0.  1.
         11   -1    0    0    0    0 -0.00000000000E+00 -0.00000000000E+00 -0.45593999997E+02  0.45594000000E+02  0.51100000000E-03 0. -1.
    9900012    2    1    2    0    0 -0.68490854929E+01  0.42618959264E+02  0.12877413532E+02  0.46142318297E+02  0.10000004883E+02 0.  0.
         12    1    1    2    0    0  0.68490854929E+01 -0.42618959264E+02 -0.12877413532E+02  0.45045681703E+02  0.00000000000E+00 0. -1.
         11    1    3    3    0    0 -0.29237478164E+01  0.11821741453E+02  0.56894983560E+01  0.13441438318E+02  0.51100000000E-03 0.  1.
        -11    1    3    3    0    0 -0.39809121722E+01  0.26089850884E+02  0.33039891931E+01  0.26597825583E+02  0.51100000000E-03 0. -1.
         12    1    3    3    0    0  0.55574495667E-01  0.47073669275E+01  0.38839259825E+01  0.61030543953E+01  0.00000000000E+00 0. -1.
</event>
<event>
 7    1  0.2478637E-008  0.4614232E+02  0.7816164E-02  0.1320468E+00
        -11   -1    0    0    0    0  0.00000000000E+00  0.00000000000E+00  0.45593999997E+02  0.45594000000E+02  0.51100000000E-03 0.  1.
         11   -1    0    0    0    0 -0.00000000000E+00 -0.00000000000E+00 -0.45593999997E+02  0.45594000000E+02  0.51100000000E-03 0. -1.
    9900012    2    1    2    0    0  0.99466284339E+00  0.36874995255E+01  0.44883476694E+02  0.46142317776E+02  0.10000000136E+02 0.  0.
         12    1    1    2    0    0 -0.99466284339E+00 -0.36874995255E+01 -0.44883476694E+02  0.45045682224E+02  0.00000000000E+00 0. -1.
         11    1    3    3    0    0  0.14094030998E+01 -0.21729574691E+01  0.83179991361E+01  0.87119039910E+01  0.51100000000E-03 0. -1.
        -11    1    3    3    0    0 -0.61300171752E+00 -0.39188310615E+00  0.13857177673E+02  0.13876264512E+02  0.51100000000E-03 0.  1.
        -12    1    3    3    0    0  0.19826146109E+00  0.62523401008E+01  0.22708299884E+02  0.23554149273E+02  0.00000000000E+00 0.  1.
</event>
<event>
 7    1  0.2478637E-008  0.4614232E+02  0.7816164E-02  0.1320468E+00
        -11   -1    0    0    0    0  0.00000000000E+00  0.00000000000E+00  0.45593999997E+02  0.45594000000E+02  0.51100000000E-03 0.  1.
         11   -1    0    0    0    0 -0.00000000000E+00 -0.00000000000E+00 -0.45593999997E+02  0.45594000000E+02  0.51100000000E-03 0. -1.
    9900012    2    1    2    0    0  0.53317051785E+00 -0.68426132434E+01  0.44519746055E+02  0.46142318569E+02  0.10000007368E+02 0.  0.
         12    1    1    2    0    0 -0.53317051785E+00  0.68426132434E+01 -0.44519746055E+02  0.45045681431E+02  0.00000000000E+00 0. -1.
         11    1    3    3    0    0  0.58324111084E-01  0.19955598319E+00  0.55295514436E+00  0.59074863110E+00  0.51100000000E-03 0. -1.
        -11    1    3    3    0    0 -0.20363119308E+01 -0.16813445790E+01  0.32857553859E+02  0.32963499992E+02  0.51100000000E-03 0.  1.
        -12    1    3    3    0    0  0.25111583376E+01 -0.53608246476E+01  0.11109237051E+02  0.12588069946E+02  0.00000000000E+00 0.  1.
</event>
<event>
 7    1  0.2478637E-008  0.4614232E+02  0.7816164E-02  0.1320468E+00
        -11   -1    0    0    0    0  0.00000000000E+00  0.00000000000E+00  0.45593999997E+02  0.45594000000E+02  0.51100000000E-03 0.  1.
         11   -1    0    0    0    0 -0.00000000000E+00 -0.00000000000E+00 -0.45593999997E+02  0.45594000000E+02  0.51100000000E-03 0. -1.
    9900012    2    1    2    0    0 -0.75493160192E+01 -0.19570005368E+02  0.39863974318E+02  0.46142315069E+02  0.99999754542E+01 0.  0.
         12    1    1    2    0    0  0.75493160192E+01  0.19570005368E+02 -0.39863974318E+02  0.45045684931E+02  0.00000000000E+00 0. -1.
         11    1    3    3    0    0  0.73746005049E+00 -0.31132996930E+01  0.11593065631E+02  0.12026456390E+02  0.51100000000E-03 0. -1.
        -11    1    3    3    0    0 -0.16537071752E+01 -0.85487211984E+01  0.14367453464E+02  0.16799973239E+02  0.51100000000E-03 0.  1.
        -12    1    3    3    0    0 -0.66330688945E+01 -0.79079844770E+01  0.13903455223E+02  0.17315885440E+02  0.00000000000E+00 0.  1.
</event>
<event>
 7    1  0.2478637E-008  0.4614232E+02  0.7816164E-02  0.1320468E+00
        -11   -1    0    0    0    0  0.00000000000E+00  0.00000000000E+00  0.45593999997E+02  0.45594000000E+02  0.51100000000E-03 0.  1.
         11   -1    0    0    0    0 -0.00000000000E+00 -0.00000000000E+00 -0.45593999997E+02  0.45594000000E+02  0.51100000000E-03 0. -1.
    9900012    2    1    2    0    0  0.40527882935E+02  0.15182232001E+02 -0.12494156092E+02  0.46142318740E+02  0.10000008927E+02 0.  0.
         12    1    1    2    0    0 -0.40527882935E+02 -0.15182232001E+02  0.12494156092E+02  0.45045681260E+02  0.00000000000E+00 0. -1.
         11    1    3    3    0    0  0.83394669504E+01  0.58442845296E+01 -0.45898517221E+01  0.11170009390E+02  0.51100000000E-03 0. -1.
        -11    1    3    3    0    0  0.40025782440E+01 -0.85275304525E+00 -0.11114410668E+01  0.42406511130E+01  0.51100000000E-03 0.  1.
         12    1    3    3    0    0  0.28185837741E+02  0.10190700517E+02 -0.67928633027E+01  0.30731658237E+02  0.00000000000E+00 0. -1.
</event>
<event>
 7    1  0.2478637E-008  0.4614232E+02  0.7816164E-02  0.1320468E+00
        -11   -1    0    0    0    0  0.00000000000E+00  0.00000000000E+00  0.45593999997E+02  0.45594000000E+02  0.51100000000E-03 0. -1.
         11   -1    0    0    0    0 -0.00000000000E+00 -0.00000000000E+00 -0.45593999997E+02  0.45594000000E+02  0.51100000000E-03 0.  1.
    9900012    2    1    2    0    0 -0.18382651732E+02 -0.33397597145E+02 -0.23995667818E+02  0.46142318145E+02  0.10000003500E+02 0.  0.
         12    1    1    2    0    0  0.18382651732E+02  0.33397597145E+02  0.23995667818E+02  0.45045681855E+02  0.00000000000E+00 0. -1.
         11    1    3    3    0    0 -0.96386201777E+01 -0.21465534785E+02 -0.13807838375E+02  0.27282385955E+02  0.51100000000E-03 0. -1.
        -11    1    3    3    0    0 -0.72081024430E+01 -0.54393947242E+01 -0.44835141835E+01  0.10081947009E+02  0.51100000000E-03 0.  1.
         12    1    3    3    0    0 -0.15359291117E+01 -0.64926676349E+01 -0.57043152594E+01  0.87779851807E+01  0.00000000000E+00 0. -1.
</event>
<event>
 7    1  0.2637984E-008  0.4614232E+02  0.7816164E-02  0.1320468E+00
        -11   -1    0    0    0    0  0.00000000000E+00  0.00000000000E+00  0.45593999997E+02  0.45594000000E+02  0.51100000000E-03 0. -1.
         11   -1    0    0    0    0 -0.00000000000E+00 -0.00000000000E+00 -0.45593999997E+02  0.45594000000E+02  0.51100000000E-03 0.  1.
    9900012    2    1    2    0    0  0.44229643210E+02  0.79669621254E+01 -0.30626049616E+01  0.46142319040E+02  0.10000011661E+02 0.  0.
         12    1    1    2    0    0 -0.44229643210E+02 -0.79669621254E+01  0.30626049616E+01  0.45045680960E+02  0.00000000000E+00 0. -1.
         11    1    3    3    0    0  0.20286894778E+01  0.99075419833E+00 -0.19319057808E+01  0.29714365357E+01  0.51100000000E-03 0.  1.
        -11    1    3    3    0    0  0.69545926995E+01  0.32524436175E+01  0.47292337140E+00  0.76921002254E+01  0.51100000000E-03 0. -1.
        -12    1    3    3    0    0  0.35246361033E+02  0.37237643095E+01 -0.16036225523E+01  0.35478782279E+02  0.00000000000E+00 0.  1.
</event>
<event>
 7    1  0.2478637E-008  0.4614232E+02  0.7816164E-02  0.1320468E+00
        -11   -1    0    0    0    0  0.00000000000E+00  0.00000000000E+00  0.45593999997E+02  0.45594000000E+02  0.51100000000E-03 0.  1.
         11   -1    0    0    0    0 -0.00000000000E+00 -0.00000000000E+00 -0.45593999997E+02  0.45594000000E+02  0.51100000000E-03 0. -1.
    9900012    2    1    2    0    0 -0.91273051867E+01  0.22681777376E+01  0.44052935585E+02  0.46142318033E+02  0.10000002482E+02 0.  0.
         12    1    1    2    0    0  0.91273051867E+01 -0.22681777376E+01 -0.44052935585E+02  0.45045681967E+02  0.00000000000E+00 0. -1.
         11    1    3    3    0    0 -0.50406878506E+01 -0.26048769314E+01  0.17026295407E+02  0.17946828505E+02  0.51100000000E-03 0. -1.
        -11    1    3    3    0    0 -0.10205059821E+01 -0.84165701313E+00  0.25303002618E+01  0.28552125425E+01  0.51100000000E-03 0.  1.
         12    1    3    3    0    0 -0.30661113541E+01  0.57147116821E+01  0.24496339916E+02  0.25340276986E+02  0.00000000000E+00 0. -1.
</event>
<event>
 7    1  0.2478637E-008  0.4614232E+02  0.7816164E-02  0.1320468E+00
        -11   -1    0    0    0    0  0.00000000000E+00  0.00000000000E+00  0.45593999997E+02  0.45594000000E+02  0.51100000000E-03 0.  1.
         11   -1    0    0    0    0 -0.00000000000E+00 -0.00000000000E+00 -0.45593999997E+02  0.45594000000E+02  0.51100000000E-03 0. -1.
    9900012    2    1    2    0    0 -0.20105641106E+02  0.87230326640E+01  0.39354609976E+02  0.46142318414E+02  0.10000005954E+02 0.  0.
         12    1    1    2    0    0  0.20105641106E+02 -0.87230326640E+01 -0.39354609976E+02  0.45045681586E+02  0.00000000000E+00 0. -1.
         11    1    3    3    0    0 -0.22610515959E+01 -0.62383555865E-01  0.89682630480E+00  0.24332167411E+01  0.51100000000E-03 0. -1.
        -11    1    3    3    0    0 -0.70414952464E+01  0.31072346259E+01  0.91174988331E+01  0.11931736988E+02  0.51100000000E-03 0.  1.
        -12    1    3    3    0    0 -0.10803094264E+02  0.56781815940E+01  0.29340284839E+02  0.31777364685E+02  0.00000000000E+00 0.  1.
</event>
<event>
 7    1  0.2478637E-008  0.4614232E+02  0.7816164E-02  0.1320468E+00
        -11   -1    0    0    0    0  0.00000000000E+00  0.00000000000E+00  0.45593999997E+02  0.45594000000E+02  0.51100000000E-03 0.  1.
         11   -1    0    0    0    0 -0.00000000000E+00 -0.00000000000E+00 -0.45593999997E+02  0.45594000000E+02  0.51100000000E-03 0. -1.
    9900012    2    1    2    0    0 -0.37278472272E+02  0.23134060621E+01  0.25180888756E+02  0.46142317620E+02  0.99999987123E+01 0.  0.
         12    1    1    2    0    0  0.37278472272E+02 -0.23134060621E+01 -0.25180888756E+02  0.45045682380E+02  0.00000000000E+00 0. -1.
         11    1    3    3    0    0 -0.19317415445E+02  0.26219792936E+00  0.91283040003E+01  0.21367199662E+02  0.51100000000E-03 0. -1.
        -11    1    3    3    0    0 -0.91082455368E+01  0.33057387229E+01  0.63713989182E+01  0.11596670630E+02  0.51100000000E-03 0.  1.
         12    1    3    3    0    0 -0.88528112900E+01 -0.12545305901E+01  0.96811858380E+01  0.13178447328E+02  0.00000000000E+00 0. -1.
</event>
<event>
 7    1  0.2478637E-008  0.4614232E+02  0.7816164E-02  0.1320468E+00
        -11   -1    0    0    0    0  0.00000000000E+00  0.00000000000E+00  0.45593999997E+02  0.45594000000E+02  0.51100000000E-03 0.  1.
         11   -1    0    0    0    0 -0.00000000000E+00 -0.00000000000E+00 -0.45593999997E+02  0.45594000000E+02  0.51100000000E-03 0. -1.
    9900012    2    1    2    0    0  0.26966103385E+02  0.30152944803E+02 -0.19817737592E+02  0.46142317240E+02  0.99999952465E+01 0.  0.
         12    1    1    2    0    0 -0.26966103385E+02 -0.30152944803E+02  0.19817737592E+02  0.45045682760E+02  0.00000000000E+00 0. -1.
         11    1    3    3    0    0  0.77925177476E+01  0.94976939375E+01 -0.77010072492E+01  0.14499483987E+02  0.51100000000E-03 0. -1.
        -11    1    3    3    0    0  0.18355041022E+02  0.16154258566E+02 -0.11520189187E+02  0.27029287077E+02  0.51100000000E-03 0.  1.
         12    1    3    3    0    0  0.81854461580E+00  0.45009922992E+01 -0.59654115630E+00  0.46135461758E+01  0.00000000000E+00 0. -1.
</event>
<event>
 7    1  0.2478637E-008  0.4614232E+02  0.7816164E-02  0.1320468E+00
        -11   -1    0    0    0    0  0.00000000000E+00  0.00000000000E+00  0.45593999997E+02  0.45594000000E+02  0.51100000000E-03 0.  1.
         11   -1    0    0    0    0 -0.00000000000E+00 -0.00000000000E+00 -0.45593999997E+02  0.45594000000E+02  0.51100000000E-03 0. -1.
    9900012    2    1    2    0    0  0.26894921418E+02 -0.14897334074E+01  0.36104810840E+02  0.46142317970E+02  0.10000001908E+02 0.  0.
         12    1    1    2    0    0 -0.26894921418E+02  0.14897334074E+01 -0.36104810840E+02  0.45045682030E+02  0.00000000000E+00 0. -1.
         11    1    3    3    0    0  0.84190905449E+01 -0.34232355600E+01  0.79765130145E+01  0.12092327627E+02  0.51100000000E-03 0. -1.
        -11    1    3    3    0    0  0.13177271611E+02  0.13027601801E+00  0.16270847002E+02  0.20937954088E+02  0.51100000000E-03 0.  1.
         12    1    3    3    0    0  0.52985592630E+01  0.18032261345E+01  0.11857450823E+02  0.13112036256E+02  0.00000000000E+00 0. -1.
</event>
<event>
 7    1  0.2478637E-008  0.4614232E+02  0.7816164E-02  0.1320468E+00
        -11   -1    0    0    0    0  0.00000000000E+00  0.00000000000E+00  0.45593999997E+02  0.45594000000E+02  0.51100000000E-03 0.  1.
         11   -1    0    0    0    0 -0.00000000000E+00 -0.00000000000E+00 -0.45593999997E+02  0.45594000000E+02  0.51100000000E-03 0. -1.
    9900012    2    1    2    0    0 -0.16879639434E+02 -0.15426772335E+02  0.38809871347E+02  0.46142316011E+02  0.99999840393E+01 0.  0.
         12    1    1    2    0    0  0.16879639434E+02  0.15426772335E+02 -0.38809871347E+02  0.45045683989E+02  0.00000000000E+00 0. -1.
         11    1    3    3    0    0 -0.78846929287E+01 -0.66838375746E+01  0.13633322262E+02  0.17108756339E+02  0.51100000000E-03 0. -1.
        -11    1    3    3    0    0 -0.20887632341E+01 -0.83081406375E+00  0.11874280221E+02  0.12085185761E+02  0.51100000000E-03 0.  1.
        -12    1    3    3    0    0 -0.69061832713E+01 -0.79121206962E+01  0.13302268865E+02  0.16948373911E+02  0.00000000000E+00 0.  1.
</event>
<event>
 7    1  0.2478637E-008  0.4614232E+02  0.7816164E-02  0.1320468E+00
        -11   -1    0    0    0    0  0.00000000000E+00  0.00000000000E+00  0.45593999997E+02  0.45594000000E+02  0.51100000000E-03 0.  1.
         11   -1    0    0    0    0 -0.00000000000E+00 -0.00000000000E+00 -0.45593999997E+02  0.45594000000E+02  0.51100000000E-03 0. -1.
    9900012    2    1    2    0    0  0.31754524688E+02 -0.19039535818E+02  0.25656572565E+02  0.46142317875E+02  0.10000001040E+02 0.  0.
         12    1    1    2    0    0 -0.31754524688E+02  0.19039535818E+02 -0.25656572565E+02  0.45045682125E+02  0.00000000000E+00 0. -1.
         11    1    3    3    0    0  0.95653373301E+00 -0.58593830472E+00 -0.44249573748E+00  0.12058537300E+01  0.51100000000E-03 0. -1.
        -11    1    3    3    0    0  0.26347689704E+02 -0.18179062108E+02  0.21697857249E+02  0.38671385563E+02  0.51100000000E-03 0.  1.
         12    1    3    3    0    0  0.44503012505E+01 -0.27453540546E+00  0.44012110529E+01  0.62650785822E+01  0.00000000000E+00 0. -1.
</event>
<event>
 7    1  0.2478637E-008  0.4614232E+02  0.7816164E-02  0.1320468E+00
        -11   -1    0    0    0    0  0.00000000000E+00  0.00000000000E+00  0.45593999997E+02  0.45594000000E+02  0.51100000000E-03 0.  1.
         11   -1    0    0    0    0 -0.00000000000E+00 -0.00000000000E+00 -0.45593999997E+02  0.45594000000E+02  0.51100000000E-03 0. -1.
    9900012    2    1    2    0    0 -0.37725446541E+01 -0.20388588502E+02  0.39989834611E+02  0.46142317560E+02  0.99999981636E+01 0.  0.
         12    1    1    2    0    0  0.37725446541E+01  0.20388588502E+02 -0.39989834611E+02  0.45045682440E+02  0.00000000000E+00 0. -1.
         11    1    3    3    0    0 -0.41560358241E+01 -0.52376492023E+01  0.91824407099E+01  0.11358821268E+02  0.51100000000E-03 0. -1.
        -11    1    3    3    0    0 -0.24275264853E+00 -0.15269839425E+02  0.30418169337E+02  0.34036626611E+02  0.51100000000E-03 0.  1.
         12    1    3    3    0    0  0.62624381852E+00  0.11890012563E+00  0.38922456404E+00  0.74686968165E+00  0.00000000000E+00 0. -1.
</event>
<event>
 7    1  0.2478637E-008  0.4614232E+02  0.7816164E-02  0.1320468E+00
        -11   -1    0    0    0    0  0.00000000000E+00  0.00000000000E+00  0.45593999997E+02  0.45594000000E+02  0.51100000000E-03 0.  1.
         11   -1    0    0    0    0 -0.00000000000E+00 -0.00000000000E+00 -0.45593999997E+02  0.45594000000E+02  0.51100000000E-03 0. -1.
    9900012    2    1    2    0    0  0.78828326605E+01  0.18628315646E+02  0.40248730732E+02  0.46142317409E+02  0.99999967899E+01 0.  0.
         12    1    1    2    0    0 -0.78828326605E+01 -0.18628315646E+02 -0.40248730732E+02  0.45045682591E+02  0.00000000000E+00 0. -1.
         11    1    3    3    0    0 -0.32128423464E+00  0.24352600171E-01 -0.26380385864E+00  0.41642447756E+00  0.51100000000E-03 0. -1.
        -11    1    3    3    0    0  0.45226126466E+01  0.10060058012E+02  0.15376361556E+02  0.18923300117E+02  0.51100000000E-03 0.  1.
        -12    1    3    3    0    0  0.36815042485E+01  0.85439050334E+01  0.25136173035E+02  0.26802592814E+02  0.00000000000E+00 0.  1.
</event>
<event>
 7    1  0.2478637E-008  0.4614232E+02  0.7816164E-02  0.1320468E+00
        -11   -1    0    0    0    0  0.00000000000E+00  0.00000000000E+00  0.45593999997E+02  0.45594000000E+02  0.51100000000E-03 0.  1.
         11   -1    0    0    0    0 -0.00000000000E+00 -0.00000000000E+00 -0.45593999997E+02  0.45594000000E+02  0.51100000000E-03 0. -1.
    9900012    2    1    2    0    0  0.37736544536E-01  0.44775230994E+02  0.49285764919E+01  0.46142316513E+02  0.99999886172E+01 0.  0.
         12    1    1    2    0    0 -0.37736544536E-01 -0.44775230994E+02 -0.49285764919E+01  0.45045683487E+02  0.00000000000E+00 0. -1.
         11    1    3    3    0    0 -0.32723044533E+00  0.32111229243E+01 -0.88417091802E+00  0.33466623183E+01  0.51100000000E-03 0. -1.
        -11    1    3    3    0    0  0.11804758473E+01  0.25368918038E+02 -0.48222155912E+00  0.25400946115E+02  0.51100000000E-03 0.  1.
        -12    1    3    3    0    0 -0.81550885744E+00  0.16195190032E+02  0.62949689690E+01  0.17394708080E+02  0.00000000000E+00 0.  1.
</event>
<event>
 7    1  0.2478637E-008  0.4614232E+02  0.7816164E-02  0.1320468E+00
        -11   -1    0    0    0    0  0.00000000000E+00  0.00000000000E+00  0.45593999997E+02  0.45594000000E+02  0.51100000000E-03 0.  1.
         11   -1    0    0    0    0 -0.00000000000E+00 -0.00000000000E+00 -0.45593999997E+02  0.45594000000E+02  0.51100000000E-03 0. -1.
    9900012    2    1    2    0    0 -0.70535226616E+01 -0.35359870899E+02  0.27000755875E+02  0.46142317968E+02  0.10000001884E+02 0.  0.
         12    1    1    2    0    0  0.70535226616E+01  0.35359870899E+02 -0.27000755875E+02  0.45045682032E+02  0.00000000000E+00 0. -1.
         11    1    3    3    0    0 -0.24051441706E+01 -0.21313563971E+01  0.74550688152E+00  0.32989664055E+01  0.51100000000E-03 0. -1.
        -11    1    3    3    0    0 -0.55611500216E+01 -0.27811537936E+02  0.22068175571E+02  0.35936226920E+02  0.51100000000E-03 0.  1.
         12    1    3    3    0    0  0.91277153066E+00 -0.54169765662E+01  0.41870734217E+01  0.69071246423E+01  0.00000000000E+00 0. -1.
</event>
<event>
 7    1  0.2478637E-008  0.4614232E+02  0.7816164E-02  0.1320468E+00
        -11   -1    0    0    0    0  0.00000000000E+00  0.00000000000E+00  0.45593999997E+02  0.45594000000E+02  0.51100000000E-03 0.  1.
         11   -1    0    0    0    0 -0.00000000000E+00 -0.00000000000E+00 -0.45593999997E+02  0.45594000000E+02  0.51100000000E-03 0. -1.
    9900012    2    1    2    0    0 -0.35743019905E+02 -0.11304761448E+02  0.24975028682E+02  0.46142321395E+02  0.10000033140E+02 0.  0.
         12    1    1    2    0    0  0.35743019905E+02  0.11304761448E+02 -0.24975028682E+02  0.45045678605E+02  0.00000000000E+00 0. -1.
         11    1    3    3    0    0 -0.10836986602E+01 -0.25767883494E+01  0.21813689725E+01  0.35457879010E+01  0.51100000000E-03 0. -1.
        -11    1    3    3    0    0 -0.27354372773E+02 -0.82674758030E+01  0.16904450257E+02  0.33202007540E+02  0.51100000000E-03 0.  1.
        -12    1    3    3    0    0 -0.73049484715E+01 -0.46049729574E+00  0.58892094517E+01  0.93945259539E+01  0.00000000000E+00 0.  1.
</event>
<event>
 7    1  0.2478637E-008  0.4614232E+02  0.7816164E-02  0.1320468E+00
        -11   -1    0    0    0    0  0.00000000000E+00  0.00000000000E+00  0.45593999997E+02  0.45594000000E+02  0.51100000000E-03 0.  1.
         11   -1    0    0    0    0 -0.00000000000E+00 -0.00000000000E+00 -0.45593999997E+02  0.45594000000E+02  0.51100000000E-03 0. -1.
    9900012    2    1    2    0    0  0.22047308791E+02 -0.86121725048E+00  0.39271974971E+02  0.46142317208E+02  0.99999949549E+01 0.  0.
         12    1    1    2    0    0 -0.22047308791E+02  0.86121725048E+00 -0.39271974971E+02  0.45045682792E+02  0.00000000000E+00 0. -1.
         11    1    3    3    0    0  0.11337774880E+02  0.97575105615E+00  0.12271041928E+02  0.16735462337E+02  0.51100000000E-03 0. -1.
        -11    1    3    3    0    0  0.39198491059E+00 -0.18362962007E-01 -0.52296973050E-01  0.39588458295E+00  0.51100000000E-03 0.  1.
        -12    1    3    3    0    0  0.10317549001E+02 -0.18186053446E+01  0.27053230016E+02  0.29010970288E+02  0.00000000000E+00 0.  1.
</event>
<event>
 7    1  0.2478637E-008  0.4614232E+02  0.7816164E-02  0.1320468E+00
        -11   -1    0    0    0    0  0.00000000000E+00  0.00000000000E+00  0.45593999997E+02  0.45594000000E+02  0.51100000000E-03 0. -1.
         11   -1    0    0    0    0 -0.00000000000E+00 -0.00000000000E+00 -0.45593999997E+02  0.45594000000E+02  0.51100000000E-03 0.  1.
    9900012    2    1    2    0    0  0.44867641918E+02 -0.26340597310E+01  0.30116359616E+01  0.46142317487E+02  0.99999974974E+01 0.  0.
         12    1    1    2    0    0 -0.44867641918E+02  0.26340597310E+01 -0.30116359616E+01  0.45045682513E+02  0.00000000000E+00 0. -1.
         11    1    3    3    0    0  0.16661090449E+02 -0.47909792777E+01  0.11272224285E+01  0.17372853768E+02  0.51100000000E-03 0. -1.
        -11    1    3    3    0    0  0.16079239971E+02  0.58345382750E+00 -0.12710765513E+01  0.16139950814E+02  0.51100000000E-03 0.  1.
         12    1    3    3    0    0  0.12127311498E+02  0.15734657192E+01  0.31554900843E+01  0.12629512905E+02  0.00000000000E+00 0. -1.
</event>
<event>
 7    1  0.3058269E-008  0.4614232E+02  0.7816164E-02  0.1320468E+00
        -11   -1    0    0    0    0  0.00000000000E+00  0.00000000000E+00  0.45593999997E+02  0.45594000000E+02  0.51100000000E-03 0. -1.
         11   -1    0    0    0    0 -0.00000000000E+00 -0.00000000000E+00 -0.45593999997E+02  0.45594000000E+02  0.51100000000E-03 0.  1.
    9900012    2    1    2    0    0  0.93409399829E+01  0.43976252644E+02  0.28194994846E+01  0.46142317258E+02  0.99999954141E+01 0.  0.
         12    1    1    2    0    0 -0.93409399829E+01 -0.43976252644E+02 -0.28194994846E+01  0.45045682742E+02  0.00000000000E+00 0. -1.
         11    1    3    3    0    0  0.14527078800E+01  0.14764287441E+01 -0.91918859144E+00  0.22660780986E+01  0.51100000000E-03 0. -1.
        -11    1    3    3    0    0  0.22262837818E+00 -0.20075101500E+00 -0.11756983330E+00  0.32200511116E+00  0.51100000000E-03 0.  1.
        -12    1    3    3    0    0  0.76656037247E+01  0.42700574914E+02  0.38562579094E+01  0.43554234048E+02  0.00000000000E+00 0.  1.
</event>
<event>
 7    1  0.2478637E-008  0.4614232E+02  0.7816164E-02  0.1320468E+00
        -11   -1    0    0    0    0  0.00000000000E+00  0.00000000000E+00  0.45593999997E+02  0.45594000000E+02  0.51100000000E-03 0. -1.
         11   -1    0    0    0    0 -0.00000000000E+00 -0.00000000000E+00 -0.45593999997E+02  0.45594000000E+02  0.51100000000E-03 0.  1.
    9900012    2    1    2    0    0  0.12366011422E+02  0.38356718091E+02 -0.20123554182E+02  0.46142317697E+02  0.99999994158E+01 0.  0.
         12    1    1    2    0    0 -0.12366011422E+02 -0.38356718091E+02  0.20123554182E+02  0.45045682303E+02  0.00000000000E+00 0. -1.
         11    1    3    3    0    0  0.64175721114E+01  0.24791883477E+02 -0.12372387763E+02  0.28441144445E+02  0.51100000000E-03 0. -1.
        -11    1    3    3    0    0  0.64089280198E+01  0.94040278233E+01 -0.39487902604E+01  0.12045872424E+02  0.51100000000E-03 0.  1.
         12    1    3    3    0    0 -0.46048870936E+00  0.41608067910E+01 -0.38023761588E+01  0.56553008281E+01  0.00000000000E+00 0. -1.
</event>
<event>
 7    1  0.2478637E-008  0.4614232E+02  0.7816164E-02  0.1320468E+00
        -11   -1    0    0    0    0  0.00000000000E+00  0.00000000000E+00  0.45593999997E+02  0.45594000000E+02  0.51100000000E-03 0. -1.
         11   -1    0    0    0    0 -0.00000000000E+00 -0.00000000000E+00 -0.45593999997E+02  0.45594000000E+02  0.51100000000E-03 0.  1.
    9900012    2    1    2    0    0  0.25811795891E+02  0.33996076365E+01 -0.36760133293E+02  0.46142317200E+02  0.99999948858E+01 0.  0.
         12    1    1    2    0    0 -0.25811795891E+02 -0.33996076365E+01  0.36760133293E+02  0.45045682800E+02  0.00000000000E+00 0. -1.
         11    1    3    3    0    0  0.87932219848E+01 -0.17343502664E+01 -0.74470497665E+01  0.11652779677E+02  0.51100000000E-03 0. -1.
        -11    1    3    3    0    0  0.87585801628E+01  0.71240599154E+00 -0.14931016021E+02  0.17324996059E+02  0.51100000000E-03 0.  1.
         12    1    3    3    0    0  0.82599937431E+01  0.44215519113E+01 -0.14382067506E+02  0.17164541464E+02  0.00000000000E+00 0. -1.
</event>
<event>
 7    1  0.2478637E-008  0.4614232E+02  0.7816164E-02  0.1320468E+00
        -11   -1    0    0    0    0  0.00000000000E+00  0.00000000000E+00  0.45593999997E+02  0.45594000000E+02  0.51100000000E-03 0.  1.
         11   -1    0    0    0    0 -0.00000000000E+00 -0.00000000000E+00 -0.45593999997E+02  0.45594000000E+02  0.51100000000E-03 0. -1.
    9900012    2    1    2    0    0  0.25076076980E+02  0.12076736538E+02  0.35418304729E+02  0.46142317499E+02  0.99999976134E+01 0.  0.
         12    1    1    2    0    0 -0.25076076980E+02 -0.12076736538E+02 -0.35418304729E+02  0.45045682501E+02  0.00000000000E+00 0. -1.
         11    1    3    3    0    0  0.74683436166E+01 -0.56115592926E-01  0.62015267663E+01  0.97076382209E+01  0.51100000000E-03 0. -1.
        -11    1    3    3    0    0  0.15420070728E+02  0.10535422458E+02  0.22818181810E+02  0.29486321049E+02  0.51100000000E-03 0.  1.
         12    1    3    3    0    0  0.21876626351E+01  0.15974296726E+01  0.63985961522E+01  0.69483582293E+01  0.00000000000E+00 0. -1.
</event>
<event>
 7    1  0.2478637E-008  0.4614232E+02  0.7816164E-02  0.1320468E+00
        -11   -1    0    0    0    0  0.00000000000E+00  0.00000000000E+00  0.45593999997E+02  0.45594000000E+02  0.51100000000E-03 0.  1.
         11   -1    0    0    0    0 -0.00000000000E+00 -0.00000000000E+00 -0.45593999997E+02  0.45594000000E+02  0.51100000000E-03 0. -1.
    9900012    2    1    2    0    0 -0.44080445636E+02 -0.44224516627E+00 -0.92645694162E+01  0.46142317469E+02  0.99999973363E+01 0.  0.
         12    1    1    2    0    0  0.44080445636E+02  0.44224516627E+00  0.92645694162E+01  0.45045682531E+02  0.00000000000E+00 0. -1.
         11    1    3    3    0    0 -0.13149275029E+01  0.14824764607E+01 -0.12423517117E+01  0.23388477571E+01  0.51100000000E-03 0. -1.
        -11    1    3    3    0    0 -0.10914417206E+02 -0.30448765581E+00 -0.39489208325E-02  0.10918664365E+02  0.51100000000E-03 0.  1.
         12    1    3    3    0    0 -0.31851100927E+02 -0.16202339711E+01 -0.80182687836E+01  0.32884805346E+02  0.00000000000E+00 0. -1.
</event>
<event>
 7    1  0.2478637E-008  0.4614232E+02  0.7816164E-02  0.1320468E+00
        -11   -1    0    0    0    0  0.00000000000E+00  0.00000000000E+00  0.45593999997E+02  0.45594000000E+02  0.51100000000E-03 0. -1.
         11   -1    0    0    0    0 -0.00000000000E+00 -0.00000000000E+00 -0.45593999997E+02  0.45594000000E+02  0.51100000000E-03 0.  1.
    9900012    2    1    2    0    0  0.85625034924E+01 -0.37260706953E+02 -0.23820930581E+02  0.46142317827E+02  0.10000000600E+02 0.  0.
         12    1    1    2    0    0 -0.85625034924E+01  0.37260706953E+02  0.23820930581E+02  0.45045682173E+02  0.00000000000E+00 0. -1.
         11    1    3    3    0    0 -0.41510025234E+00 -0.14818381336E+02 -0.93802910226E+01  0.17542707704E+02  0.51100000000E-03 0. -1.
        -11    1    3    3    0    0  0.49769921655E+01 -0.13795637254E+02 -0.11474158870E+02  0.18621127256E+02  0.51100000000E-03 0.  1.
         12    1    3    3    0    0  0.40006115793E+01 -0.86466883629E+01 -0.29664806883E+01  0.99784828671E+01  0.00000000000E+00 0. -1.
</event>
<event>
 7    1  0.2478637E-008  0.4614232E+02  0.7816164E-02  0.1320468E+00
        -11   -1    0    0    0    0  0.00000000000E+00  0.00000000000E+00  0.45593999997E+02  0.45594000000E+02  0.51100000000E-03 0. -1.
         11   -1    0    0    0    0 -0.00000000000E+00 -0.00000000000E+00 -0.45593999997E+02  0.45594000000E+02  0.51100000000E-03 0.  1.
    9900012    2    1    2    0    0  0.86870963914E+01  0.34754728747E+02 -0.27308547072E+02  0.46142316997E+02  0.99999930363E+01 0.  0.
         12    1    1    2    0    0 -0.86870963914E+01 -0.34754728747E+02  0.27308547072E+02  0.45045683003E+02  0.00000000000E+00 0. -1.
         11    1    3    3    0    0  0.19300457414E+01  0.66436417582E+01 -0.74860876956E+01  0.10193358702E+02  0.51100000000E-03 0. -1.
        -11    1    3    3    0    0  0.31852194971E+01  0.25121996958E+02 -0.16414307847E+02  0.30177638356E+02  0.51100000000E-03 0.  1.
         12    1    3    3    0    0  0.35718311529E+01  0.29890900307E+01 -0.34081515294E+01  0.57713199394E+01  0.00000000000E+00 0. -1.
</event>
<event>
 7    1  0.2478637E-008  0.4614232E+02  0.7816164E-02  0.1320468E+00
        -11   -1    0    0    0    0  0.00000000000E+00  0.00000000000E+00  0.45593999997E+02  0.45594000000E+02  0.51100000000E-03 0. -1.
         11   -1    0    0    0    0 -0.00000000000E+00 -0.00000000000E+00 -0.45593999997E+02  0.45594000000E+02  0.51100000000E-03 0.  1.
    9900012    2    1    2    0    0 -0.39313939184E+02 -0.54829355557E+01  0.21294723733E+02  0.46142315908E+02  0.99999830980E+01 0.  0.
         12    1    1    2    0    0  0.39313939184E+02  0.54829355557E+01 -0.21294723733E+02  0.45045684092E+02  0.00000000000E+00 0. -1.
         11    1    3    3    0    0 -0.18072151521E+02 -0.10400853012E+01  0.14426663731E+02  0.23147636266E+02  0.51100000000E-03 0. -1.
        -11    1    3    3    0    0 -0.10958342115E+02 -0.19018917485E+01  0.51763448404E+01  0.12267721887E+02  0.51100000000E-03 0.  1.
         12    1    3    3    0    0 -0.10283445548E+02 -0.25409585060E+01  0.16917151608E+01  0.10726957754E+02  0.00000000000E+00 0. -1.
</event>
<event>
 7    1  0.2478637E-008  0.4614232E+02  0.7816164E-02  0.1320468E+00
        -11   -1    0    0    0    0  0.00000000000E+00  0.00000000000E+00  0.45593999997E+02  0.45594000000E+02  0.51100000000E-03 0.  1.
         11   -1    0    0    0    0 -0.00000000000E+00 -0.00000000000E+00 -0.45593999997E+02  0.45594000000E+02  0.51100000000E-03 0. -1.
    9900012    2    1    2    0    0 -0.37385766162E+02 -0.11475982882E+01  0.25101812396E+02  0.46142317865E+02  0.10000000951E+02 0.  0.
         12    1    1    2    0    0  0.37385766162E+02  0.11475982882E+01 -0.25101812396E+02  0.45045682135E+02  0.00000000000E+00 0. -1.
         11    1    3    3    0    0 -0.45942524182E+01  0.27549071072E+01  0.24834380121E+01  0.59045857664E+01  0.51100000000E-03 0. -1.
        -11    1    3    3    0    0 -0.42901195071E+01 -0.14589524157E+01  0.44423778563E+01  0.63457378464E+01  0.51100000000E-03 0.  1.
         12    1    3    3    0    0 -0.28501394237E+02 -0.24435529798E+01  0.18175996528E+02  0.33891994253E+02  0.00000000000E+00 0. -1.
</event>
<event>
 7    1  0.2478637E-008  0.4614232E+02  0.7816164E-02  0.1320468E+00
        -11   -1    0    0    0    0  0.00000000000E+00  0.00000000000E+00  0.45593999997E+02  0.45594000000E+02  0.51100000000E-03 0. -1.
         11   -1    0    0    0    0 -0.00000000000E+00 -0.00000000000E+00 -0.45593999997E+02  0.45594000000E+02  0.51100000000E-03 0.  1.
    9900012    2    1    2    0    0 -0.27552144937E+02  0.13800402951E+02 -0.32856380500E+02  0.46142317056E+02  0.99999935740E+01 0.  0.
         12    1    1    2    0    0  0.27552144937E+02 -0.13800402951E+02  0.32856380500E+02  0.45045682944E+02  0.00000000000E+00 0. -1.
         11    1    3    3    0    0 -0.41994221016E+01 -0.24958675705E+00 -0.46404718586E+01  0.62634989318E+01  0.51100000000E-03 0. -1.
        -11    1    3    3    0    0 -0.50763128197E+01  0.43053568722E+01 -0.31530147603E+01  0.73652258607E+01  0.51100000000E-03 0.  1.
        -12    1    3    3    0    0 -0.18276410016E+02  0.97446328362E+01 -0.25062893882E+02  0.32513592264E+02  0.00000000000E+00 0.  1.
</event>
<event>
 7    1  0.2478637E-008  0.4614232E+02  0.7816164E-02  0.1320468E+00
        -11   -1    0    0    0    0  0.00000000000E+00  0.00000000000E+00  0.45593999997E+02  0.45594000000E+02  0.51100000000E-03 0.  1.
         11   -1    0    0    0    0 -0.00000000000E+00 -0.00000000000E+00 -0.45593999997E+02  0.45594000000E+02  0.51100000000E-03 0. -1.
    9900012    2    1    2    0    0 -0.15486393482E+02  0.17456448920E+02  0.38529955885E+02  0.46142317715E+02  0.99999995836E+01 0.  0.
         12    1    1    2    0    0  0.15486393482E+02 -0.17456448920E+02 -0.38529955885E+02  0.45045682285E+02  0.00000000000E+00 0. -1.
         11    1    3    3    0    0 -0.44508629985E+01  0.85632194776E+01  0.14369614833E+02  0.17309671861E+02  0.51100000000E-03 0. -1.
        -11    1    3    3    0    0 -0.17425369265E+01  0.96594003167E+00  0.97058009611E+01  0.99081808442E+01  0.51100000000E-03 0.  1.
         12    1    3    3    0    0 -0.92929935568E+01  0.79272894111E+01  0.14454540091E+02  0.18924465010E+02  0.00000000000E+00 0. -1.
</event>
<event>
 7    1  0.2478637E-008  0.4614232E+02  0.7816164E-02  0.1320468E+00
        -11   -1    0    0    0    0  0.00000000000E+00  0.00000000000E+00  0.45593999997E+02  0.45594000000E+02  0.51100000000E-03 0.  1.
         11   -1    0    0    0    0 -0.00000000000E+00 -0.00000000000E+00 -0.45593999997E+02  0.45594000000E+02  0.51100000000E-03 0. -1.
    9900012    2    1    2    0    0  0.37716927330E+02 -0.42015859475E+01  0.24267129690E+02  0.46142317465E+02  0.99999972955E+01 0.  0.
         12    1    1    2    0    0 -0.37716927330E+02  0.42015859475E+01 -0.24267129690E+02  0.45045682535E+02  0.00000000000E+00 0. -1.
         11    1    3    3    0    0  0.22394854126E+02 -0.13964515605E+01  0.14148170683E+02  0.26526407639E+02  0.51100000000E-03 0. -1.
        -11    1    3    3    0    0  0.13994419102E+02 -0.11089366585E+01  0.10361849732E+02  0.17448250246E+02  0.51100000000E-03 0.  1.
         12    1    3    3    0    0  0.13276541022E+01 -0.16961977285E+01 -0.24289072525E+00  0.21676595798E+01  0.00000000000E+00 0. -1.
</event>
<event>
 7    1  0.2478637E-008  0.4614232E+02  0.7816164E-02  0.1320468E+00
        -11   -1    0    0    0    0  0.00000000000E+00  0.00000000000E+00  0.45593999997E+02  0.45594000000E+02  0.51100000000E-03 0.  1.
         11   -1    0    0    0    0 -0.00000000000E+00 -0.00000000000E+00 -0.45593999997E+02  0.45594000000E+02  0.51100000000E-03 0. -1.
    9900012    2    1    2    0    0  0.20581901275E+02 -0.21666706065E+02  0.33705381149E+02  0.46142317297E+02  0.99999957658E+01 0.  0.
         12    1    1    2    0    0 -0.20581901275E+02  0.21666706065E+02 -0.33705381149E+02  0.45045682703E+02  0.00000000000E+00 0. -1.
         11    1    3    3    0    0  0.46705298938E+01 -0.93273263315E+00  0.56565079110E+01  0.73945873220E+01  0.51100000000E-03 0. -1.
        -11    1    3    3    0    0  0.13762801823E+02 -0.13865877315E+02  0.20500843973E+02  0.28318931329E+02  0.51100000000E-03 0.  1.
        -12    1    3    3    0    0  0.21485695579E+01 -0.68680961161E+01  0.75480292648E+01  0.10428798645E+02  0.00000000000E+00 0.  1.
</event>
<event>
 7    1  0.2478637E-008  0.4614232E+02  0.7816164E-02  0.1320468E+00
        -11   -1    0    0    0    0  0.00000000000E+00  0.00000000000E+00  0.45593999997E+02  0.45594000000E+02  0.51100000000E-03 0.  1.
         11   -1    0    0    0    0 -0.00000000000E+00 -0.00000000000E+00 -0.45593999997E+02  0.45594000000E+02  0.51100000000E-03 0. -1.
    9900012    2    1    2    0    0 -0.41710423561E+02  0.16493509919E+02 -0.41615126148E+01  0.46142317739E+02  0.99999998014E+01 0.  0.
         12    1    1    2    0    0  0.41710423561E+02 -0.16493509919E+02  0.41615126148E+01  0.45045682261E+02  0.00000000000E+00 0. -1.
         11    1    3    3    0    0 -0.28008709249E+02  0.10505828870E+02 -0.90323757106E+00  0.29927847774E+02  0.51100000000E-03 0.  1.
        -11    1    3    3    0    0 -0.78790888189E+01  0.55908910872E+01 -0.28680508065E+00  0.96654209003E+01  0.51100000000E-03 0. -1.
        -12    1    3    3    0    0 -0.58226254933E+01  0.39678996134E+00 -0.29714699631E+01  0.65490490646E+01  0.00000000000E+00 0.  1.
</event>
<event>
 7    1  0.2478637E-008  0.4614231E+02  0.7816164E-02  0.1320468E+00
        -11   -1    0    0    0    0  0.00000000000E+00  0.00000000000E+00  0.45593999997E+02  0.45594000000E+02  0.51100000000E-03 0.  1.
         11   -1    0    0    0    0 -0.00000000000E+00 -0.00000000000E+00 -0.45593999997E+02  0.45594000000E+02  0.51100000000E-03 0. -1.
    9900012    2    1    2    0    0  0.40198116512E+02  0.27873114170E+01 -0.20135940168E+02  0.46142314718E+02  0.99999722544E+01 0.  0.
         12    1    1    2    0    0 -0.40198116512E+02 -0.27873114170E+01  0.20135940168E+02  0.45045685282E+02  0.00000000000E+00 0. -1.
         11    1    3    3    0    0  0.15775570817E+02  0.35557973929E+01 -0.54400935956E+01  0.17061856531E+02  0.51100000000E-03 0. -1.
        -11    1    3    3    0    0  0.19477415765E+02 -0.52037628724E+00 -0.87947263662E+01  0.21377271306E+02  0.51100000000E-03 0.  1.
        -12    1    3    3    0    0  0.49451299299E+01 -0.24810968863E+00 -0.59011202066E+01  0.77031868816E+01  0.00000000000E+00 0.  1.
</event>
<event>
 7    1  0.2478637E-008  0.4614232E+02  0.7816164E-02  0.1320468E+00
        -11   -1    0    0    0    0  0.00000000000E+00  0.00000000000E+00  0.45593999997E+02  0.45594000000E+02  0.51100000000E-03 0.  1.
         11   -1    0    0    0    0 -0.00000000000E+00 -0.00000000000E+00 -0.45593999997E+02  0.45594000000E+02  0.51100000000E-03 0. -1.
    9900012    2    1    2    0    0  0.28429205213E+02  0.17074764061E+02  0.30485180241E+02  0.46142317731E+02  0.99999997220E+01 0.  0.
         12    1    1    2    0    0 -0.28429205213E+02 -0.17074764061E+02 -0.30485180241E+02  0.45045682269E+02  0.00000000000E+00 0. -1.
         11    1    3    3    0    0  0.65406106315E+01  0.61135536193E+00  0.28474877243E+01  0.71597157354E+01  0.51100000000E-03 0. -1.
        -11    1    3    3    0    0  0.62801747043E+01  0.59056499781E+01  0.94912114635E+01  0.12821871598E+02  0.51100000000E-03 0.  1.
         12    1    3    3    0    0  0.15608419877E+02  0.10557758721E+02  0.18146481054E+02  0.26160730397E+02  0.00000000000E+00 0. -1.
</event>
<event>
 7    1  0.2478637E-008  0.4614232E+02  0.7816164E-02  0.1320468E+00
        -11   -1    0    0    0    0  0.00000000000E+00  0.00000000000E+00  0.45593999997E+02  0.45594000000E+02  0.51100000000E-03 0.  1.
         11   -1    0    0    0    0 -0.00000000000E+00 -0.00000000000E+00 -0.45593999997E+02  0.45594000000E+02  0.51100000000E-03 0. -1.
    9900012    2    1    2    0    0  0.22653534566E+02  0.18896077946E+02  0.34042168340E+02  0.46142316351E+02  0.99999871444E+01 0.  0.
         12    1    1    2    0    0 -0.22653534566E+02 -0.18896077946E+02 -0.34042168340E+02  0.45045683649E+02  0.00000000000E+00 0. -1.
         11    1    3    3    0    0  0.93738355533E+01  0.58072308870E+01  0.10945482452E+02  0.15536933736E+02  0.51100000000E-03 0. -1.
        -11    1    3    3    0    0  0.11046327111E+02  0.13055574075E+02  0.22557826041E+02  0.28307682226E+02  0.51100000000E-03 0.  1.
        -12    1    3    3    0    0  0.22333719016E+01  0.33272984191E-01  0.53885984745E+00  0.22977003890E+01  0.00000000000E+00 0.  1.
</event>
<event>
 7    1  0.2478637E-008  0.4614232E+02  0.7816164E-02  0.1320468E+00
        -11   -1    0    0    0    0  0.00000000000E+00  0.00000000000E+00  0.45593999997E+02  0.45594000000E+02  0.51100000000E-03 0.  1.
         11   -1    0    0    0    0 -0.00000000000E+00 -0.00000000000E+00 -0.45593999997E+02  0.45594000000E+02  0.51100000000E-03 0. -1.
    9900012    2    1    2    0    0 -0.30248471238E+02  0.13082568376E+02  0.30708142292E+02  0.46142316405E+02  0.99999876295E+01 0.  0.
         12    1    1    2    0    0  0.30248471238E+02 -0.13082568376E+02 -0.30708142292E+02  0.45045683595E+02  0.00000000000E+00 0. -1.
         11    1    3    3    0    0 -0.34565452022E+01  0.12632267130E+01  0.24079553162E+01  0.43979194546E+01  0.51100000000E-03 0. -1.
        -11    1    3    3    0    0 -0.15488517613E+02  0.24918886033E+01  0.17737292600E+02  0.23679426422E+02  0.51100000000E-03 0.  1.
        -12    1    3    3    0    0 -0.11303408423E+02  0.93274530600E+01  0.10562894375E+02  0.18064970527E+02  0.00000000000E+00 0.  1.
</event>
<event>
 7    1  0.2478637E-008  0.4614232E+02  0.7816164E-02  0.1320468E+00
        -11   -1    0    0    0    0  0.00000000000E+00  0.00000000000E+00  0.45593999997E+02  0.45594000000E+02  0.51100000000E-03 0.  1.
         11   -1    0    0    0    0 -0.00000000000E+00 -0.00000000000E+00 -0.45593999997E+02  0.45594000000E+02  0.51100000000E-03 0. -1.
    9900012    2    1    2    0    0 -0.32506170939E+02  0.74028548556E+01  0.30292904667E+02  0.46142317829E+02  0.10000000618E+02 0.  0.
         12    1    1    2    0    0  0.32506170939E+02 -0.74028548556E+01 -0.30292904667E+02  0.45045682171E+02  0.00000000000E+00 0. -1.
         11    1    3    3    0    0 -0.94938613070E+01  0.12695855706E+01  0.74823144349E+01  0.12154434565E+02  0.51100000000E-03 0. -1.
        -11    1    3    3    0    0 -0.21293942179E+02  0.60022733803E+01  0.16925211477E+02  0.27855377274E+02  0.51100000000E-03 0.  1.
         12    1    3    3    0    0 -0.17183674528E+01  0.13099590471E+00  0.58853787545E+01  0.61325059897E+01  0.00000000000E+00 0. -1.
</event>
<event>
 7    1  0.2478637E-008  0.4614230E+02  0.7816164E-02  0.1320468E+00
        -11   -1    0    0    0    0  0.00000000000E+00  0.00000000000E+00  0.45593999997E+02  0.45594000000E+02  0.51100000000E-03 0.  1.
         11   -1    0    0    0    0 -0.00000000000E+00 -0.00000000000E+00 -0.45593999997E+02  0.45594000000E+02  0.51100000000E-03 0. -1.
    9900012    2    1    2    0    0  0.17675946861E+02 -0.14293065023E+02  0.38889379839E+02  0.46142304651E+02  0.99998804494E+01 0.  0.
         12    1    1    2    0    0 -0.17675946861E+02  0.14293065023E+02 -0.38889379839E+02  0.45045695349E+02  0.00000000000E+00 0. -1.
         11    1    3    3    0    0  0.79742495055E+01 -0.47709442837E+01  0.80296795872E+01  0.12281136717E+02  0.51100000000E-03 0. -1.
        -11    1    3    3    0    0  0.87096024542E+01 -0.89178744353E+01  0.25585484572E+02  0.28460546031E+02  0.51100000000E-03 0.  1.
         12    1    3    3    0    0  0.99209490173E+00 -0.60424630380E+00  0.52742156802E+01  0.54006219022E+01  0.00000000000E+00 0. -1.
</event>
<event>
 7    1  0.2478637E-008  0.4614232E+02  0.7816164E-02  0.1320468E+00
        -11   -1    0    0    0    0  0.00000000000E+00  0.00000000000E+00  0.45593999997E+02  0.45594000000E+02  0.51100000000E-03 0.  1.
         11   -1    0    0    0    0 -0.00000000000E+00 -0.00000000000E+00 -0.45593999997E+02  0.45594000000E+02  0.51100000000E-03 0. -1.
    9900012    2    1    2    0    0 -0.22115311260E+02  0.22532568259E+02  0.32129576342E+02  0.46142319848E+02  0.10000019031E+02 0.  0.
         12    1    1    2    0    0  0.22115311260E+02 -0.22532568259E+02 -0.32129576342E+02  0.45045680152E+02  0.00000000000E+00 0. -1.
         11    1    3    3    0    0 -0.62215470399E+01  0.66224624580E+01  0.10248999523E+02  0.13696957621E+02  0.51100000000E-03 0. -1.
        -11    1    3    3    0    0 -0.10508931122E+02  0.13912794073E+02  0.12527050855E+02  0.21469291456E+02  0.51100000000E-03 0.  1.
         12    1    3    3    0    0 -0.53848330978E+01  0.19973117284E+01  0.93535259632E+01  0.10976070771E+02  0.00000000000E+00 0. -1.
</event>
<event>
 7    1  0.2478637E-008  0.4614232E+02  0.7816164E-02  0.1320468E+00
        -11   -1    0    0    0    0  0.00000000000E+00  0.00000000000E+00  0.45593999997E+02  0.45594000000E+02  0.51100000000E-03 0.  1.
         11   -1    0    0    0    0 -0.00000000000E+00 -0.00000000000E+00 -0.45593999997E+02  0.45594000000E+02  0.51100000000E-03 0. -1.
    9900012    2    1    2    0    0  0.19923118794E+02  0.34600487243E+02  0.20856391920E+02  0.46142318033E+02  0.10000002480E+02 0.  0.
         12    1    1    2    0    0 -0.19923118794E+02 -0.34600487243E+02 -0.20856391920E+02  0.45045681967E+02  0.00000000000E+00 0. -1.
         11    1    3    3    0    0  0.78943013554E+01  0.19409070316E+02  0.91479050435E+01  0.22862986930E+02  0.51100000000E-03 0. -1.
        -11    1    3    3    0    0  0.51932501698E+01  0.56252929876E+01  0.76976130097E+01  0.10856657627E+02  0.51100000000E-03 0.  1.
        -12    1    3    3    0    0  0.68355672691E+01  0.95661239398E+01  0.40108738666E+01  0.12422673476E+02  0.00000000000E+00 0.  1.
</event>
<event>
 7    1  0.2478637E-008  0.4614232E+02  0.7816164E-02  0.1320468E+00
        -11   -1    0    0    0    0  0.00000000000E+00  0.00000000000E+00  0.45593999997E+02  0.45594000000E+02  0.51100000000E-03 0.  1.
         11   -1    0    0    0    0 -0.00000000000E+00 -0.00000000000E+00 -0.45593999997E+02  0.45594000000E+02  0.51100000000E-03 0. -1.
    9900012    2    1    2    0    0  0.19998238332E+02 -0.18761687187E+02  0.35737696902E+02  0.46142318494E+02  0.10000006681E+02 0.  0.
         12    1    1    2    0    0 -0.19998238332E+02  0.18761687187E+02 -0.35737696902E+02  0.45045681506E+02  0.00000000000E+00 0. -1.
         11    1    3    3    0    0  0.16184956358E+01 -0.18218637598E+01  0.54762442418E+01  0.59939942392E+01  0.51100000000E-03 0. -1.
        -11    1    3    3    0    0  0.10395562020E+02 -0.86661240667E+01  0.99129342826E+01  0.16776044897E+02  0.51100000000E-03 0.  1.
        -12    1    3    3    0    0  0.79841806766E+01 -0.82736993606E+01  0.20348518378E+02  0.23372279357E+02  0.00000000000E+00 0.  1.
</event>
<event>
 7    1  0.2478637E-008  0.4614232E+02  0.7816164E-02  0.1320468E+00
        -11   -1    0    0    0    0  0.00000000000E+00  0.00000000000E+00  0.45593999997E+02  0.45594000000E+02  0.51100000000E-03 0.  1.
         11   -1    0    0    0    0 -0.00000000000E+00 -0.00000000000E+00 -0.45593999997E+02  0.45594000000E+02  0.51100000000E-03 0. -1.
    9900012    2    1    2    0    0  0.68278000033E+01  0.42426325267E+02  0.13509314512E+02  0.46142317553E+02  0.99999981047E+01 0.  0.
         12    1    1    2    0    0 -0.68278000033E+01 -0.42426325267E+02 -0.13509314512E+02  0.45045682447E+02  0.00000000000E+00 0. -1.
         11    1    3    3    0    0 -0.14469153290E+01  0.59059696186E+01  0.13743539859E+01  0.62340107671E+01  0.51100000000E-03 0. -1.
        -11    1    3    3    0    0  0.57997636237E+01  0.26867249337E+02  0.11869439344E+02  0.29939437797E+02  0.51100000000E-03 0.  1.
         12    1    3    3    0    0  0.24749517086E+01  0.96531063112E+01  0.26552118150E+00  0.99688689886E+01  0.00000000000E+00 0. -1.
</event>
<event>
 7    1  0.2478637E-008  0.4614232E+02  0.7816164E-02  0.1320468E+00
        -11   -1    0    0    0    0  0.00000000000E+00  0.00000000000E+00  0.45593999997E+02  0.45594000000E+02  0.51100000000E-03 0. -1.
         11   -1    0    0    0    0 -0.00000000000E+00 -0.00000000000E+00 -0.45593999997E+02  0.45594000000E+02  0.51100000000E-03 0.  1.
    9900012    2    1    2    0    0 -0.36055958626E+02  0.35403310815E+01 -0.26768398643E+02  0.46142320268E+02  0.10000022860E+02 0.  0.
         12    1    1    2    0    0  0.36055958626E+02 -0.35403310815E+01  0.26768398643E+02  0.45045679732E+02  0.00000000000E+00 0. -1.
         11    1    3    3    0    0 -0.14767639433E+02  0.11529767860E+01 -0.11530595309E+02  0.18771445291E+02  0.51100000000E-03 0. -1.
        -11    1    3    3    0    0 -0.14038287830E+02  0.20109874039E+01 -0.14143833366E+02  0.20029119253E+02  0.51100000000E-03 0.  1.
         12    1    3    3    0    0 -0.72500313636E+01  0.37636689153E+00 -0.10939699685E+01  0.73417557234E+01  0.00000000000E+00 0. -1.
</event>
<event>
 7    1  0.2478637E-008  0.4614232E+02  0.7816164E-02  0.1320468E+00
        -11   -1    0    0    0    0  0.00000000000E+00  0.00000000000E+00  0.45593999997E+02  0.45594000000E+02  0.51100000000E-03 0. -1.
         11   -1    0    0    0    0 -0.00000000000E+00 -0.00000000000E+00 -0.45593999997E+02  0.45594000000E+02  0.51100000000E-03 0.  1.
    9900012    2    1    2    0    0  0.17898471845E+02  0.15659050386E+02 -0.38256401607E+02  0.46142318550E+02  0.10000007197E+02 0.  0.
         12    1    1    2    0    0 -0.17898471845E+02 -0.15659050386E+02  0.38256401607E+02  0.45045681450E+02  0.00000000000E+00 0. -1.
         11    1    3    3    0    0  0.62902201198E+00  0.19365172460E+01 -0.27733097796E+01  0.34404963494E+01  0.51100000000E-03 0. -1.
        -11    1    3    3    0    0  0.45208435385E+01  0.89861143041E+01 -0.17021479791E+02  0.19771672947E+02  0.51100000000E-03 0.  1.
         12    1    3    3    0    0  0.12748606294E+02  0.47364188361E+01 -0.18461612036E+02  0.22930149254E+02  0.00000000000E+00 0. -1.
</event>
<event>
 7    1  0.2478637E-008  0.4614232E+02  0.7816164E-02  0.1320468E+00
        -11   -1    0    0    0    0  0.00000000000E+00  0.00000000000E+00  0.45593999997E+02  0.45594000000E+02  0.51100000000E-03 0.  1.
         11   -1    0    0    0    0 -0.00000000000E+00 -0.00000000000E+00 -0.45593999997E+02  0.45594000000E+02  0.51100000000E-03 0. -1.
    9900012    2    1    2    0    0 -0.12726908230E+02 -0.42391095141E+02 -0.83746253877E+01  0.46142317735E+02  0.99999997610E+01 0.  0.
         12    1    1    2    0    0  0.12726908230E+02  0.42391095141E+02  0.83746253877E+01  0.45045682265E+02  0.00000000000E+00 0. -1.
         11    1    3    3    0    0 -0.24845936274E+01 -0.43770018257E+01 -0.20617263832E+01  0.54389398246E+01  0.51100000000E-03 0. -1.
        -11    1    3    3    0    0 -0.89774372466E+01 -0.32332193576E+02 -0.82748503122E+01  0.34560646245E+02  0.51100000000E-03 0.  1.
         12    1    3    3    0    0 -0.12648773563E+01 -0.56818997392E+01  0.19619513077E+01  0.61427316648E+01  0.00000000000E+00 0. -1.
</event>
<event>
 7    1  0.2478637E-008  0.4614232E+02  0.7816164E-02  0.1320468E+00
        -11   -1    0    0    0    0  0.00000000000E+00  0.00000000000E+00  0.45593999997E+02  0.45594000000E+02  0.51100000000E-03 0.  1.
         11   -1    0    0    0    0 -0.00000000000E+00 -0.00000000000E+00 -0.45593999997E+02  0.45594000000E+02  0.51100000000E-03 0. -1.
    9900012    2    1    2    0    0  0.38997141229E+02 -0.19402039852E+02  0.11484651837E+02  0.46142318717E+02  0.10000008715E+02 0.  0.
         12    1    1    2    0    0 -0.38997141229E+02  0.19402039852E+02 -0.11484651837E+02  0.45045681283E+02  0.00000000000E+00 0. -1.
         11    1    3    3    0    0  0.10191066785E+02 -0.22989482997E+01  0.10869523361E+00  0.10447718431E+02  0.51100000000E-03 0. -1.
        -11    1    3    3    0    0  0.76601187417E+01 -0.68145053245E+01  0.24478608315E+01  0.10540726961E+02  0.51100000000E-03 0.  1.
        -12    1    3    3    0    0  0.21145955702E+02 -0.10288586227E+02  0.89280957719E+01  0.25153873325E+02  0.00000000000E+00 0.  1.
</event>
<event>
 7    1  0.2478637E-008  0.4614233E+02  0.7816164E-02  0.1320468E+00
        -11   -1    0    0    0    0  0.00000000000E+00  0.00000000000E+00  0.45593999997E+02  0.45594000000E+02  0.51100000000E-03 0. -1.
         11   -1    0    0    0    0 -0.00000000000E+00 -0.00000000000E+00 -0.45593999997E+02  0.45594000000E+02  0.51100000000E-03 0.  1.
    9900012    2    1    2    0    0  0.23266278589E+02  0.18544480921E+02 -0.33821519501E+02  0.46142326808E+02  0.10000082493E+02 0.  0.
         12    1    1    2    0    0 -0.23266278589E+02 -0.18544480921E+02  0.33821519501E+02  0.45045673192E+02  0.00000000000E+00 0. -1.
         11    1    3    3    0    0  0.12582263171E+02  0.12985477992E+02 -0.16625449224E+02  0.24563011772E+02  0.51100000000E-03 0. -1.
        -11    1    3    3    0    0  0.10981955066E+02  0.44726444545E+01 -0.15096827928E+02  0.19196929423E+02  0.51100000000E-03 0.  1.
        -12    1    3    3    0    0 -0.29793964794E+00  0.10863584742E+01 -0.20992423488E+01  0.23823856126E+01  0.00000000000E+00 0.  1.
</event>
<event>
 7    1  0.2478637E-008  0.4614232E+02  0.7816164E-02  0.1320468E+00
        -11   -1    0    0    0    0  0.00000000000E+00  0.00000000000E+00  0.45593999997E+02  0.45594000000E+02  0.51100000000E-03 0. -1.
         11   -1    0    0    0    0 -0.00000000000E+00 -0.00000000000E+00 -0.45593999997E+02  0.45594000000E+02  0.51100000000E-03 0.  1.
    9900012    2    1    2    0    0  0.20218165976E+02  0.38064133935E+02 -0.13094306030E+02  0.46142318986E+02  0.10000011171E+02 0.  0.
         12    1    1    2    0    0 -0.20218165976E+02 -0.38064133935E+02  0.13094306030E+02  0.45045681014E+02  0.00000000000E+00 0. -1.
         11    1    3    3    0    0  0.10341330092E+02  0.17428145106E+02 -0.27203621703E+01  0.20447095649E+02  0.51100000000E-03 0. -1.
        -11    1    3    3    0    0 -0.26496080715E+00  0.32135275509E+01 -0.23849972953E+01  0.40106328565E+01  0.51100000000E-03 0.  1.
        -12    1    3    3    0    0  0.10141796691E+02  0.17422461278E+02 -0.79889465641E+01  0.21684590481E+02  0.00000000000E+00 0.  1.
</event>
<event>
 7    1  0.2478637E-008  0.4614232E+02  0.7816164E-02  0.1320468E+00
        -11   -1    0    0    0    0  0.00000000000E+00  0.00000000000E+00  0.45593999997E+02  0.45594000000E+02  0.51100000000E-03 0.  1.
         11   -1    0    0    0    0 -0.00000000000E+00 -0.00000000000E+00 -0.45593999997E+02  0.45594000000E+02  0.51100000000E-03 0. -1.
    9900012    2    1    2    0    0 -0.36412369568E+02 -0.26353842702E+02  0.29543213364E+01  0.46142315442E+02  0.99999788493E+01 0.  0.
         12    1    1    2    0    0  0.36412369568E+02  0.26353842702E+02 -0.29543213364E+01  0.45045684558E+02  0.00000000000E+00 0. -1.
         11    1    3    3    0    0 -0.51245862276E+00 -0.75857896517E+00  0.12164560601E+01  0.15224393235E+01  0.51100000000E-03 0. -1.
        -11    1    3    3    0    0 -0.39777271102E+01 -0.50965680675E+01 -0.11755353122E+01  0.65710883848E+01  0.51100000000E-03 0.  1.
        -12    1    3    3    0    0 -0.31922183835E+02 -0.20498695670E+02  0.29134005885E+01  0.38048787733E+02  0.00000000000E+00 0.  1.
</event>
<event>
 7    1  0.2478637E-008  0.4614232E+02  0.7816164E-02  0.1320468E+00
        -11   -1    0    0    0    0  0.00000000000E+00  0.00000000000E+00  0.45593999997E+02  0.45594000000E+02  0.51100000000E-03 0. -1.
         11   -1    0    0    0    0 -0.00000000000E+00 -0.00000000000E+00 -0.45593999997E+02  0.45594000000E+02  0.51100000000E-03 0.  1.
    9900012    2    1    2    0    0  0.24800465191E+02 -0.35937946728E+02  0.11068626969E+02  0.46142316614E+02  0.99999895377E+01 0.  0.
         12    1    1    2    0    0 -0.24800465191E+02  0.35937946728E+02 -0.11068626969E+02  0.45045683386E+02  0.00000000000E+00 0. -1.
         11    1    3    3    0    0 -0.22890716458E+00 -0.19854407958E+01  0.80369695760E+00  0.21541361852E+01  0.51100000000E-03 0. -1.
        -11    1    3    3    0    0  0.19435852795E+01 -0.64450344506E+00  0.14643510174E+01  0.25173860635E+01  0.51100000000E-03 0.  1.
         12    1    3    3    0    0  0.23085787077E+02 -0.33308002487E+02  0.88005789940E+01  0.41470794365E+02  0.00000000000E+00 0. -1.
</event>
<event>
 7    1  0.2478637E-008  0.4614232E+02  0.7816164E-02  0.1320468E+00
        -11   -1    0    0    0    0  0.00000000000E+00  0.00000000000E+00  0.45593999997E+02  0.45594000000E+02  0.51100000000E-03 0. -1.
         11   -1    0    0    0    0 -0.00000000000E+00 -0.00000000000E+00 -0.45593999997E+02  0.45594000000E+02  0.51100000000E-03 0.  1.
    9900012    2    1    2    0    0 -0.36753345145E+02  0.11212596538E+02 -0.23507079192E+02  0.46142317936E+02  0.10000001592E+02 0.  0.
         12    1    1    2    0    0  0.36753345145E+02 -0.11212596538E+02  0.23507079192E+02  0.45045682064E+02  0.00000000000E+00 0. -1.
         11    1    3    3    0    0 -0.16843045788E+02  0.34427555991E+01 -0.83340920938E+01  0.19104916875E+02  0.51100000000E-03 0. -1.
        -11    1    3    3    0    0 -0.82426151854E+01 -0.20573200658E+00 -0.56590363511E+01  0.10000386164E+02  0.51100000000E-03 0.  1.
         12    1    3    3    0    0 -0.11667684172E+02  0.79755729453E+01 -0.95139507470E+01  0.17037014896E+02  0.00000000000E+00 0. -1.
</event>
<event>
 7    1  0.2478637E-008  0.4614233E+02  0.7816164E-02  0.1320468E+00
        -11   -1    0    0    0    0  0.00000000000E+00  0.00000000000E+00  0.45593999997E+02  0.45594000000E+02  0.51100000000E-03 0.  1.
         11   -1    0    0    0    0 -0.00000000000E+00 -0.00000000000E+00 -0.45593999997E+02  0.45594000000E+02  0.51100000000E-03 0. -1.
    9900012    2    1    2    0    0 -0.18830618540E+02 -0.12146890328E+02  0.39076507274E+02  0.46142328066E+02  0.10000093970E+02 0.  0.
         12    1    1    2    0    0  0.18830618540E+02  0.12146890328E+02 -0.39076507274E+02  0.45045671934E+02  0.00000000000E+00 0. -1.
         11    1    3    3    0    0 -0.79780925948E+01 -0.10260066238E+02  0.20694974922E+02  0.24437694407E+02  0.51100000000E-03 0.  1.
        -11    1    3    3    0    0 -0.73469035778E+01 -0.16569920975E+01  0.92992739649E+01  0.11966583118E+02  0.51100000000E-03 0. -1.
        -12    1    3    3    0    0 -0.35056223677E+01 -0.22983199270E+00  0.90822583864E+01  0.97380505404E+01  0.00000000000E+00 0.  1.
</event>
<event>
 7    1  0.2478637E-008  0.4614232E+02  0.7816164E-02  0.1320468E+00
        -11   -1    0    0    0    0  0.00000000000E+00  0.00000000000E+00  0.45593999997E+02  0.45594000000E+02  0.51100000000E-03 0.  1.
         11   -1    0    0    0    0 -0.00000000000E+00 -0.00000000000E+00 -0.45593999997E+02  0.45594000000E+02  0.51100000000E-03 0. -1.
    9900012    2    1    2    0    0  0.27922481615E+02  0.77234167862E+01  0.34493439417E+02  0.46142317530E+02  0.99999978897E+01 0.  0.
         12    1    1    2    0    0 -0.27922481615E+02 -0.77234167862E+01 -0.34493439417E+02  0.45045682470E+02  0.00000000000E+00 0. -1.
         11    1    3    3    0    0  0.12126882294E+02  0.29854655710E+00  0.18915873419E+02  0.22471329994E+02  0.51100000000E-03 0. -1.
        -11    1    3    3    0    0  0.34288475690E+01  0.27815792955E+01  0.55181378359E+01  0.70671086355E+01  0.51100000000E-03 0.  1.
         12    1    3    3    0    0  0.12366751752E+02  0.46432909336E+01  0.10059428162E+02  0.16603878900E+02  0.00000000000E+00 0. -1.
</event>
<event>
 7    1  0.2478637E-008  0.4614231E+02  0.7816164E-02  0.1320468E+00
        -11   -1    0    0    0    0  0.00000000000E+00  0.00000000000E+00  0.45593999997E+02  0.45594000000E+02  0.51100000000E-03 0. -1.
         11   -1    0    0    0    0 -0.00000000000E+00 -0.00000000000E+00 -0.45593999997E+02  0.45594000000E+02  0.51100000000E-03 0.  1.
    9900012    2    1    2    0    0  0.43534426109E+02  0.11520361787E+02  0.10718581821E+01  0.46142313499E+02  0.99999611362E+01 0.  0.
         12    1    1    2    0    0 -0.43534426109E+02 -0.11520361787E+02 -0.10718581821E+01  0.45045686501E+02  0.00000000000E+00 0. -1.
         11    1    3    3    0    0  0.25968241373E+01  0.14445306992E+01 -0.10105864603E+01  0.31387019285E+01  0.51100000000E-03 0. -1.
        -11    1    3    3    0    0  0.49400414695E+01  0.38197769729E+01  0.16704859240E+01  0.64641495439E+01  0.51100000000E-03 0.  1.
         12    1    3    3    0    0  0.35997560503E+02  0.62560541148E+01  0.41195871847E+00  0.36539462027E+02  0.00000000000E+00 0. -1.
</event>
<event>
 7    1  0.2478637E-008  0.4614232E+02  0.7816164E-02  0.1320468E+00
        -11   -1    0    0    0    0  0.00000000000E+00  0.00000000000E+00  0.45593999997E+02  0.45594000000E+02  0.51100000000E-03 0. -1.
         11   -1    0    0    0    0 -0.00000000000E+00 -0.00000000000E+00 -0.45593999997E+02  0.45594000000E+02  0.51100000000E-03 0.  1.
    9900012    2    1    2    0    0 -0.32444677604E+02 -0.21451307622E+02 -0.22722187442E+02  0.46142317569E+02  0.99999982473E+01 0.  0.
         12    1    1    2    0    0  0.32444677604E+02  0.21451307622E+02  0.22722187442E+02  0.45045682431E+02  0.00000000000E+00 0. -1.
         11    1    3    3    0    0 -0.51520608317E+01 -0.39096472558E+01 -0.10716317926E+01  0.65557202075E+01  0.51100000000E-03 0. -1.
        -11    1    3    3    0    0 -0.14270413670E+02 -0.12387617897E+02 -0.10063379956E+02  0.21409563281E+02  0.51100000000E-03 0.  1.
        -12    1    3    3    0    0 -0.13022203103E+02 -0.51540424688E+01 -0.11587175693E+02  0.18177034081E+02  0.00000000000E+00 0.  1.
</event>
<event>
 7    1  0.2478637E-008  0.4614232E+02  0.7816164E-02  0.1320468E+00
        -11   -1    0    0    0    0  0.00000000000E+00  0.00000000000E+00  0.45593999997E+02  0.45594000000E+02  0.51100000000E-03 0.  1.
         11   -1    0    0    0    0 -0.00000000000E+00 -0.00000000000E+00 -0.45593999997E+02  0.45594000000E+02  0.51100000000E-03 0. -1.
    9900012    2    1    2    0    0  0.66269765769E+01  0.74295579930E+01  0.43931746381E+02  0.46142317736E+02  0.99999997712E+01 0.  0.
         12    1    1    2    0    0 -0.66269765769E+01 -0.74295579930E+01 -0.43931746381E+02  0.45045682264E+02  0.00000000000E+00 0. -1.
         11    1    3    3    0    0  0.26183581669E+01 -0.19595811577E+01  0.12229617931E+02  0.12659356730E+02  0.51100000000E-03 0. -1.
        -11    1    3    3    0    0  0.39181416320E+01  0.53391677722E+01  0.21816140686E+02  0.22799178516E+02  0.51100000000E-03 0.  1.
         12    1    3    3    0    0  0.90476777980E-01  0.40499713785E+01  0.98859877644E+01  0.10683782490E+02  0.00000000000E+00 0. -1.
</event>
<event>
 7    1  0.2478637E-008  0.4614232E+02  0.7816164E-02  0.1320468E+00
        -11   -1    0    0    0    0  0.00000000000E+00  0.00000000000E+00  0.45593999997E+02  0.45594000000E+02  0.51100000000E-03 0.  1.
         11   -1    0    0    0    0 -0.00000000000E+00 -0.00000000000E+00 -0.45593999997E+02  0.45594000000E+02  0.51100000000E-03 0. -1.
    9900012    2    1    2    0    0 -0.41584098510E+02 -0.17091651093E+02  0.27841873229E+01  0.46142317798E+02  0.10000000338E+02 0.  0.
         12    1    1    2    0    0  0.41584098510E+02  0.17091651093E+02 -0.27841873229E+01  0.45045682202E+02  0.00000000000E+00 0. -1.
         11    1    3    3    0    0 -0.21772042502E+01  0.44789602623E+00 -0.35142686609E+00  0.22504066968E+01  0.51100000000E-03 0. -1.
        -11    1    3    3    0    0 -0.30617734538E+02 -0.13598899653E+02  0.55581375377E+01  0.33959809086E+02  0.51100000000E-03 0.  1.
        -12    1    3    3    0    0 -0.87891597218E+01 -0.39406474660E+01 -0.24225233487E+01  0.99321020153E+01  0.00000000000E+00 0.  1.
</event>
<event>
 7    1  0.2478637E-008  0.4614232E+02  0.7816164E-02  0.1320468E+00
        -11   -1    0    0    0    0  0.00000000000E+00  0.00000000000E+00  0.45593999997E+02  0.45594000000E+02  0.51100000000E-03 0.  1.
         11   -1    0    0    0    0 -0.00000000000E+00 -0.00000000000E+00 -0.45593999997E+02  0.45594000000E+02  0.51100000000E-03 0. -1.
    9900012    2    1    2    0    0 -0.32233838483E+02 -0.28398923513E+02  0.13549698682E+02  0.46142317250E+02  0.99999953438E+01 0.  0.
         12    1    1    2    0    0  0.32233838483E+02  0.28398923513E+02 -0.13549698682E+02  0.45045682750E+02  0.00000000000E+00 0. -1.
         11    1    3    3    0    0 -0.25971093170E+02 -0.18360660642E+02  0.11932861119E+02  0.33970644892E+02  0.51100000000E-03 0. -1.
        -11    1    3    3    0    0 -0.34018180204E+01 -0.35547139611E+01  0.83089996894E-01  0.49209004662E+01  0.51100000000E-03 0.  1.
         12    1    3    3    0    0 -0.28609272925E+01 -0.64835489096E+01  0.15337475655E+01  0.72507718921E+01  0.00000000000E+00 0. -1.
</event>
<event>
 7    1  0.2478637E-008  0.4614232E+02  0.7816164E-02  0.1320468E+00
        -11   -1    0    0    0    0  0.00000000000E+00  0.00000000000E+00  0.45593999997E+02  0.45594000000E+02  0.51100000000E-03 0.  1.
         11   -1    0    0    0    0 -0.00000000000E+00 -0.00000000000E+00 -0.45593999997E+02  0.45594000000E+02  0.51100000000E-03 0. -1.
    9900012    2    1    2    0    0  0.24825283644E+02 -0.21799623113E+02  0.30620178092E+02  0.46142316719E+02  0.99999904962E+01 0.  0.
         12    1    1    2    0    0 -0.24825283644E+02  0.21799623113E+02 -0.30620178092E+02  0.45045683281E+02  0.00000000000E+00 0. -1.
         11    1    3    3    0    0  0.39024457854E+01 -0.76238885081E+01  0.93756477995E+01  0.12698642881E+02  0.51100000000E-03 0. -1.
        -11    1    3    3    0    0  0.10954740961E+02 -0.52289959181E+01  0.75896292310E+01  0.14316117489E+02  0.51100000000E-03 0.  1.
        -12    1    3    3    0    0  0.99680968980E+01 -0.89467386868E+01  0.13654901061E+02  0.19127556349E+02  0.00000000000E+00 0.  1.
</event>
<event>
 7    1  0.2478637E-008  0.4614232E+02  0.7816164E-02  0.1320468E+00
        -11   -1    0    0    0    0  0.00000000000E+00  0.00000000000E+00  0.45593999997E+02  0.45594000000E+02  0.51100000000E-03 0.  1.
         11   -1    0    0    0    0 -0.00000000000E+00 -0.00000000000E+00 -0.45593999997E+02  0.45594000000E+02  0.51100000000E-03 0. -1.
    9900012    2    1    2    0    0 -0.66591771590E+01  0.23869774370E+02  0.37616521883E+02  0.46142317770E+02  0.10000000084E+02 0.  0.
         12    1    1    2    0    0  0.66591771590E+01 -0.23869774370E+02 -0.37616521883E+02  0.45045682230E+02  0.00000000000E+00 0. -1.
         11    1    3    3    0    0 -0.66959579584E+00  0.36386700239E+00  0.13342987536E+01  0.15365907556E+01  0.51100000000E-03 0. -1.
        -11    1    3    3    0    0 -0.42176591971E+01  0.31539761589E+01  0.10159760304E+02  0.11443642096E+02  0.51100000000E-03 0.  1.
         12    1    3    3    0    0 -0.17719221661E+01  0.20351931209E+02  0.26122462825E+02  0.33162084919E+02  0.00000000000E+00 0. -1.
</event>
<event>
 7    1  0.2478637E-008  0.4614232E+02  0.7816164E-02  0.1320468E+00
        -11   -1    0    0    0    0  0.00000000000E+00  0.00000000000E+00  0.45593999997E+02  0.45594000000E+02  0.51100000000E-03 0. -1.
         11   -1    0    0    0    0 -0.00000000000E+00 -0.00000000000E+00 -0.45593999997E+02  0.45594000000E+02  0.51100000000E-03 0.  1.
    9900012    2    1    2    0    0  0.21711349301E+02 -0.18794622351E+02 -0.34705802468E+02  0.46142320488E+02  0.10000024865E+02 0.  0.
         12    1    1    2    0    0 -0.21711349301E+02  0.18794622351E+02  0.34705802468E+02  0.45045679512E+02  0.00000000000E+00 0. -1.
         11    1    3    3    0    0  0.16789069589E+01 -0.16250880768E+01 -0.75267685228E+01  0.78811093439E+01  0.51100000000E-03 0. -1.
        -11    1    3    3    0    0  0.95617909572E+01 -0.10088256253E+02 -0.10975854954E+02  0.17710735523E+02  0.51100000000E-03 0.  1.
        -12    1    3    3    0    0  0.10470651385E+02 -0.70812780208E+01 -0.16203178991E+02  0.20550475621E+02  0.00000000000E+00 0.  1.
</event>
<event>
 7    1  0.2478637E-008  0.4614232E+02  0.7816164E-02  0.1320468E+00
        -11   -1    0    0    0    0  0.00000000000E+00  0.00000000000E+00  0.45593999997E+02  0.45594000000E+02  0.51100000000E-03 0.  1.
         11   -1    0    0    0    0 -0.00000000000E+00 -0.00000000000E+00 -0.45593999997E+02  0.45594000000E+02  0.51100000000E-03 0. -1.
    9900012    2    1    2    0    0 -0.15712041279E+02  0.37263531479E+02 -0.19841229934E+02  0.46142318468E+02  0.10000006445E+02 0.  0.
         12    1    1    2    0    0  0.15712041279E+02 -0.37263531479E+02  0.19841229934E+02  0.45045681532E+02  0.00000000000E+00 0. -1.
         11    1    3    3    0    0 -0.10062455246E+02  0.18749986448E+02 -0.13631112394E+02  0.25270975896E+02  0.51100000000E-03 0. -1.
        -11    1    3    3    0    0 -0.35445092520E+00  0.12064805071E+01 -0.18796906808E+01  0.22615189561E+01  0.51100000000E-03 0.  1.
        -12    1    3    3    0    0 -0.52951351076E+01  0.17307064524E+02 -0.43304268594E+01  0.18609823616E+02  0.00000000000E+00 0.  1.
</event>
<event>
 7    1  0.2478637E-008  0.4614232E+02  0.7816164E-02  0.1320468E+00
        -11   -1    0    0    0    0  0.00000000000E+00  0.00000000000E+00  0.45593999997E+02  0.45594000000E+02  0.51100000000E-03 0.  1.
         11   -1    0    0    0    0 -0.00000000000E+00 -0.00000000000E+00 -0.45593999997E+02  0.45594000000E+02  0.51100000000E-03 0. -1.
    9900012    2    1    2    0    0 -0.11258045003E+02 -0.94431236840E+01  0.42581654780E+02  0.46142317787E+02  0.10000000239E+02 0.  0.
         12    1    1    2    0    0  0.11258045003E+02  0.94431236840E+01 -0.42581654780E+02  0.45045682213E+02  0.00000000000E+00 0. -1.
         11    1    3    3    0    0 -0.81683109657E+00 -0.30143853401E+01  0.57707037745E+01  0.65616121748E+01  0.51100000000E-03 0. -1.
        -11    1    3    3    0    0 -0.98067716798E+00  0.13571684805E+01  0.16693751228E+01  0.23644127293E+01  0.51100000000E-03 0.  1.
        -12    1    3    3    0    0 -0.94605367385E+01 -0.77859068244E+01  0.35141575883E+02  0.37216292883E+02  0.00000000000E+00 0.  1.
</event>
<event>
 7    1  0.2478637E-008  0.4614232E+02  0.7816164E-02  0.1320468E+00
        -11   -1    0    0    0    0  0.00000000000E+00  0.00000000000E+00  0.45593999997E+02  0.45594000000E+02  0.51100000000E-03 0. -1.
         11   -1    0    0    0    0 -0.00000000000E+00 -0.00000000000E+00 -0.45593999997E+02  0.45594000000E+02  0.51100000000E-03 0.  1.
    9900012    2    1    2    0    0 -0.40782927994E+02 -0.10824656158E+02 -0.15770010211E+02  0.46142316314E+02  0.99999868046E+01 0.  0.
         12    1    1    2    0    0  0.40782927994E+02  0.10824656158E+02  0.15770010211E+02  0.45045683686E+02  0.00000000000E+00 0. -1.
         11    1    3    3    0    0 -0.33100208592E+01  0.11351758019E+01 -0.25464031893E+01  0.43277051255E+01  0.51100000000E-03 0. -1.
        -11    1    3    3    0    0 -0.26478620284E+02 -0.10592088101E+02 -0.83904995757E+01  0.29727262671E+02  0.51100000000E-03 0.  1.
        -12    1    3    3    0    0 -0.10994286850E+02 -0.13677438588E+01 -0.48331074464E+01  0.12087348518E+02  0.00000000000E+00 0.  1.
</event>
<event>
 7    1  0.2478637E-008  0.4614232E+02  0.7816164E-02  0.1320468E+00
        -11   -1    0    0    0    0  0.00000000000E+00  0.00000000000E+00  0.45593999997E+02  0.45594000000E+02  0.51100000000E-03 0.  1.
         11   -1    0    0    0    0 -0.00000000000E+00 -0.00000000000E+00 -0.45593999997E+02  0.45594000000E+02  0.51100000000E-03 0. -1.
    9900012    2    1    2    0    0  0.83444088637E+01 -0.43848690797E+02  0.60643865220E+01  0.46142316214E+02  0.99999858877E+01 0.  0.
         12    1    1    2    0    0 -0.83444088637E+01  0.43848690797E+02 -0.60643865220E+01  0.45045683786E+02  0.00000000000E+00 0. -1.
         11    1    3    3    0    0  0.16292841435E+01 -0.55459238524E+00  0.24116333563E+00  0.17379009033E+01  0.51100000000E-03 0. -1.
        -11    1    3    3    0    0 -0.27075026641E+00 -0.83346231722E+01  0.17627620549E+01  0.85232962786E+01  0.51100000000E-03 0.  1.
        -12    1    3    3    0    0  0.69858749866E+01 -0.34959475240E+02  0.40604611315E+01  0.35881119032E+02  0.00000000000E+00 0.  1.
</event>
<event>
 7    1  0.3707890E-008  0.4614232E+02  0.7816164E-02  0.1320468E+00
        -11   -1    0    0    0    0  0.00000000000E+00  0.00000000000E+00  0.45593999997E+02  0.45594000000E+02  0.51100000000E-03 0.  1.
         11   -1    0    0    0    0 -0.00000000000E+00 -0.00000000000E+00 -0.45593999997E+02  0.45594000000E+02  0.51100000000E-03 0. -1.
    9900012    2    1    2    0    0  0.20867769039E+02  0.34591975599E+02 -0.19925987723E+02  0.46142317108E+02  0.99999940413E+01 0.  0.
         12    1    1    2    0    0 -0.20867769039E+02 -0.34591975599E+02  0.19925987723E+02  0.45045682892E+02  0.00000000000E+00 0. -1.
         11    1    3    3    0    0  0.30448504387E-01 -0.20352364536E+00 -0.29449422033E+00  0.35927161392E+00  0.51100000000E-03 0.  1.
        -11    1    3    3    0    0  0.10242060429E+01  0.77024535016E+01 -0.43262650361E+01  0.88934446299E+01  0.51100000000E-03 0. -1.
        -12    1    3    3    0    0  0.19813114492E+02  0.27093045743E+02 -0.15305228466E+02  0.36889600864E+02  0.00000000000E+00 0.  1.
</event>
<event>
 7    1  0.2478637E-008  0.4614232E+02  0.7816164E-02  0.1320468E+00
        -11   -1    0    0    0    0  0.00000000000E+00  0.00000000000E+00  0.45593999997E+02  0.45594000000E+02  0.51100000000E-03 0. -1.
         11   -1    0    0    0    0 -0.00000000000E+00 -0.00000000000E+00 -0.45593999997E+02  0.45594000000E+02  0.51100000000E-03 0.  1.
    9900012    2    1    2    0    0  0.27686835088E+02 -0.35169072824E+02  0.50683953069E+01  0.46142321500E+02  0.10000034097E+02 0.  0.
         12    1    1    2    0    0 -0.27686835088E+02  0.35169072824E+02 -0.50683953069E+01  0.45045678500E+02  0.00000000000E+00 0. -1.
         11    1    3    3    0    0  0.90796755417E+01 -0.10163662166E+02  0.45784324229E+01  0.14377154805E+02  0.51100000000E-03 0. -1.
        -11    1    3    3    0    0  0.49616892991E+01 -0.44700576701E+01 -0.20327590282E+01  0.69808227167E+01  0.51100000000E-03 0.  1.
        -12    1    3    3    0    0  0.13645470247E+02 -0.20535352988E+02  0.25227219122E+01  0.24784343979E+02  0.00000000000E+00 0.  1.
</event>
<event>
 7    1  0.2478637E-008  0.4614232E+02  0.7816164E-02  0.1320468E+00
        -11   -1    0    0    0    0  0.00000000000E+00  0.00000000000E+00  0.45593999997E+02  0.45594000000E+02  0.51100000000E-03 0.  1.
         11   -1    0    0    0    0 -0.00000000000E+00 -0.00000000000E+00 -0.45593999997E+02  0.45594000000E+02  0.51100000000E-03 0. -1.
    9900012    2    1    2    0    0  0.37509856053E+02 -0.43860555192E+01  0.24553750896E+02  0.46142317996E+02  0.10000002141E+02 0.  0.
         12    1    1    2    0    0 -0.37509856053E+02  0.43860555192E+01 -0.24553750896E+02  0.45045682004E+02  0.00000000000E+00 0. -1.
         11    1    3    3    0    0  0.39375212798E+01  0.69960642476E+00  0.18960599162E+00  0.40036825139E+01  0.51100000000E-03 0. -1.
        -11    1    3    3    0    0  0.23573607364E+02 -0.35641847898E+01  0.13955733732E+02  0.27625728618E+02  0.51100000000E-03 0.  1.
         12    1    3    3    0    0  0.99987274091E+01 -0.15214771542E+01  0.10408411172E+02  0.14512906865E+02  0.00000000000E+00 0. -1.
</event>
<event>
 7    1  0.2478637E-008  0.4614232E+02  0.7816164E-02  0.1320468E+00
        -11   -1    0    0    0    0  0.00000000000E+00  0.00000000000E+00  0.45593999997E+02  0.45594000000E+02  0.51100000000E-03 0.  1.
         11   -1    0    0    0    0 -0.00000000000E+00 -0.00000000000E+00 -0.45593999997E+02  0.45594000000E+02  0.51100000000E-03 0. -1.
    9900012    2    1    2    0    0 -0.16323207546E+02  0.27752009603E+02  0.31503846469E+02  0.46142317810E+02  0.10000000447E+02 0.  0.
         12    1    1    2    0    0  0.16323207546E+02 -0.27752009603E+02 -0.31503846469E+02  0.45045682190E+02  0.00000000000E+00 0. -1.
         11    1    3    3    0    0 -0.35214157318E+01  0.10881425179E+02  0.10751081320E+02  0.15696863779E+02  0.51100000000E-03 0. -1.
        -11    1    3    3    0    0 -0.98124085359E+01  0.15367809549E+02  0.14282299682E+02  0.23161109992E+02  0.51100000000E-03 0.  1.
        -12    1    3    3    0    0 -0.29893832783E+01  0.15027748743E+01  0.64704654673E+01  0.72843440385E+01  0.00000000000E+00 0.  1.
</event>
<event>
 7    1  0.2478637E-008  0.4614232E+02  0.7816164E-02  0.1320468E+00
        -11   -1    0    0    0    0  0.00000000000E+00  0.00000000000E+00  0.45593999997E+02  0.45594000000E+02  0.51100000000E-03 0.  1.
         11   -1    0    0    0    0 -0.00000000000E+00 -0.00000000000E+00 -0.45593999997E+02  0.45594000000E+02  0.51100000000E-03 0. -1.
    9900012    2    1    2    0    0 -0.23044154746E+02  0.78205772038E+01  0.37906713117E+02  0.46142318796E+02  0.10000009438E+02 0.  0.
         12    1    1    2    0    0  0.23044154746E+02 -0.78205772038E+01 -0.37906713117E+02  0.45045681204E+02  0.00000000000E+00 0. -1.
         11    1    3    3    0    0 -0.50580982260E+00  0.21920965800E+01  0.36459506370E+01  0.42841670487E+01  0.51100000000E-03 0. -1.
        -11    1    3    3    0    0 -0.15580375695E+02  0.47223018530E+01  0.28312015922E+02  0.32659125638E+02  0.51100000000E-03 0.  1.
         12    1    3    3    0    0 -0.69579692287E+01  0.90617877079E+00  0.59487465579E+01  0.91990261094E+01  0.00000000000E+00 0. -1.
</event>
<event>
 7    1  0.2478637E-008  0.4614231E+02  0.7816164E-02  0.1320468E+00
        -11   -1    0    0    0    0  0.00000000000E+00  0.00000000000E+00  0.45593999997E+02  0.45594000000E+02  0.51100000000E-03 0. -1.
         11   -1    0    0    0    0 -0.00000000000E+00 -0.00000000000E+00 -0.45593999997E+02  0.45594000000E+02  0.51100000000E-03 0.  1.
    9900012    2    1    2    0    0  0.25821125105E+02  0.26539200204E+02 -0.25652567679E+02  0.46142313439E+02  0.99999605896E+01 0.  0.
         12    1    1    2    0    0 -0.25821125105E+02 -0.26539200204E+02  0.25652567679E+02  0.45045686561E+02  0.00000000000E+00 0. -1.
         11    1    3    3    0    0 -0.12544404632E+00 -0.56659346973E+00 -0.29370150985E+00  0.65040387968E+00  0.51100000000E-03 0. -1.
        -11    1    3    3    0    0  0.15759051932E+02  0.14384637588E+02 -0.12470360710E+02  0.24713870859E+02  0.51100000000E-03 0.  1.
        -12    1    3    3    0    0  0.10187517220E+02  0.12721156086E+02 -0.12888505460E+02  0.20778038701E+02  0.00000000000E+00 0.  1.
</event>
<event>
 7    1  0.2478637E-008  0.4614232E+02  0.7816164E-02  0.1320468E+00
        -11   -1    0    0    0    0  0.00000000000E+00  0.00000000000E+00  0.45593999997E+02  0.45594000000E+02  0.51100000000E-03 0. -1.
         11   -1    0    0    0    0 -0.00000000000E+00 -0.00000000000E+00 -0.45593999997E+02  0.45594000000E+02  0.51100000000E-03 0.  1.
    9900012    2    1    2    0    0  0.22009979244E+02 -0.15579421451E+02 -0.36082621091E+02  0.46142322029E+02  0.10000038920E+02 0.  0.
         12    1    1    2    0    0 -0.22009979244E+02  0.15579421451E+02  0.36082621091E+02  0.45045677971E+02  0.00000000000E+00 0. -1.
         11    1    3    3    0    0  0.48755870791E+01 -0.15489683542E+01 -0.35748223864E+01  0.62409941263E+01  0.51100000000E-03 0. -1.
        -11    1    3    3    0    0  0.16545761720E+02 -0.14296658626E+02 -0.32594047935E+02  0.39249568658E+02  0.51100000000E-03 0.  1.
        -12    1    3    3    0    0  0.58863044478E+00  0.26620552865E+00  0.86249230766E-01  0.65175924528E+00  0.00000000000E+00 0.  1.
</event>
<event>
 7    1  0.2478637E-008  0.4614232E+02  0.7816164E-02  0.1320468E+00
        -11   -1    0    0    0    0  0.00000000000E+00  0.00000000000E+00  0.45593999997E+02  0.45594000000E+02  0.51100000000E-03 0. -1.
         11   -1    0    0    0    0 -0.00000000000E+00 -0.00000000000E+00 -0.45593999997E+02  0.45594000000E+02  0.51100000000E-03 0.  1.
    9900012    2    1    2    0    0 -0.29837536079E+02  0.30542120719E+02 -0.14353181306E+02  0.46142317512E+02  0.99999977250E+01 0.  0.
         12    1    1    2    0    0  0.29837536079E+02 -0.30542120719E+02  0.14353181306E+02  0.45045682488E+02  0.00000000000E+00 0. -1.
         11    1    3    3    0    0 -0.79166212738E+01  0.70184611140E+01 -0.26435648580E+01  0.10905050400E+02  0.51100000000E-03 0. -1.
        -11    1    3    3    0    0 -0.12393410764E+02  0.99965738477E+01 -0.19858103116E+01  0.16045920413E+02  0.51100000000E-03 0.  1.
         12    1    3    3    0    0 -0.95275040411E+01  0.13527085757E+02 -0.97238061365E+01  0.19191346699E+02  0.00000000000E+00 0. -1.
</event>
<event>
 7    1  0.2478637E-008  0.4614232E+02  0.7816164E-02  0.1320468E+00
        -11   -1    0    0    0    0  0.00000000000E+00  0.00000000000E+00  0.45593999997E+02  0.45594000000E+02  0.51100000000E-03 0.  1.
         11   -1    0    0    0    0 -0.00000000000E+00 -0.00000000000E+00 -0.45593999997E+02  0.45594000000E+02  0.51100000000E-03 0. -1.
    9900012    2    1    2    0    0 -0.36422561102E+02 -0.17828513378E+02  0.19612611515E+02  0.46142318998E+02  0.10000011276E+02 0.  0.
         12    1    1    2    0    0  0.36422561102E+02  0.17828513378E+02 -0.19612611515E+02  0.45045681002E+02  0.00000000000E+00 0. -1.
         11    1    3    3    0    0 -0.30474096213E+01 -0.34651143932E+01  0.31590174603E+01  0.55922370061E+01  0.51100000000E-03 0. -1.
        -11    1    3    3    0    0 -0.16662996302E+02 -0.93669004113E+01  0.11920492449E+02  0.22527592183E+02  0.51100000000E-03 0.  1.
        -12    1    3    3    0    0 -0.16712155179E+02 -0.49964985737E+01  0.45331016050E+01  0.18022489809E+02  0.00000000000E+00 0.  1.
</event>
<event>
 7    1  0.2478637E-008  0.4614232E+02  0.7816164E-02  0.1320468E+00
        -11   -1    0    0    0    0  0.00000000000E+00  0.00000000000E+00  0.45593999997E+02  0.45594000000E+02  0.51100000000E-03 0.  1.
         11   -1    0    0    0    0 -0.00000000000E+00 -0.00000000000E+00 -0.45593999997E+02  0.45594000000E+02  0.51100000000E-03 0. -1.
    9900012    2    1    2    0    0 -0.10277456429E+01 -0.24537774499E+02  0.37761818072E+02  0.46142317159E+02  0.99999945140E+01 0.  0.
         12    1    1    2    0    0  0.10277456429E+01  0.24537774499E+02 -0.37761818072E+02  0.45045682841E+02  0.00000000000E+00 0. -1.
         11    1    3    3    0    0 -0.22000893618E+01 -0.10873576520E+02  0.11920816038E+02  0.16284376402E+02  0.51100000000E-03 0. -1.
        -11    1    3    3    0    0 -0.13328395019E+01 -0.49877327600E+00  0.14752991151E+01  0.20498155183E+01  0.51100000000E-03 0.  1.
        -12    1    3    3    0    0  0.25051832208E+01 -0.13165424703E+02  0.24365702919E+02  0.27808125240E+02  0.00000000000E+00 0.  1.
</event>
<event>
 7    1  0.2478637E-008  0.4614232E+02  0.7816164E-02  0.1320468E+00
        -11   -1    0    0    0    0  0.00000000000E+00  0.00000000000E+00  0.45593999997E+02  0.45594000000E+02  0.51100000000E-03 0.  1.
         11   -1    0    0    0    0 -0.00000000000E+00 -0.00000000000E+00 -0.45593999997E+02  0.45594000000E+02  0.51100000000E-03 0. -1.
    9900012    2    1    2    0    0  0.51546461815E+01  0.21560273270E+02  0.39213489000E+02  0.46142317851E+02  0.10000000816E+02 0.  0.
         12    1    1    2    0    0 -0.51546461815E+01 -0.21560273270E+02 -0.39213489000E+02  0.45045682149E+02  0.00000000000E+00 0. -1.
         11    1    3    3    0    0 -0.62952164893E+00  0.78875438009E+01  0.10144702462E+02  0.12865637684E+02  0.51100000000E-03 0. -1.
        -11    1    3    3    0    0  0.18626817003E+01 -0.10426199766E+00  0.30430063448E+01  0.35693615054E+01  0.51100000000E-03 0.  1.
        -12    1    3    3    0    0  0.39214861301E+01  0.13776991467E+02  0.26025780193E+02  0.29707318661E+02  0.00000000000E+00 0.  1.
</event>
<event>
 7    1  0.2478637E-008  0.4614232E+02  0.7816164E-02  0.1320468E+00
        -11   -1    0    0    0    0  0.00000000000E+00  0.00000000000E+00  0.45593999997E+02  0.45594000000E+02  0.51100000000E-03 0.  1.
         11   -1    0    0    0    0 -0.00000000000E+00 -0.00000000000E+00 -0.45593999997E+02  0.45594000000E+02  0.51100000000E-03 0. -1.
    9900012    2    1    2    0    0  0.76737366906E+01  0.39752215977E+02  0.19748130171E+02  0.46142317020E+02  0.99999932447E+01 0.  0.
         12    1    1    2    0    0 -0.76737366906E+01 -0.39752215977E+02 -0.19748130171E+02  0.45045682980E+02  0.00000000000E+00 0. -1.
         11    1    3    3    0    0  0.63789267922E+01  0.18350989772E+02  0.80304618770E+01  0.21022317923E+02  0.51100000000E-03 0. -1.
        -11    1    3    3    0    0 -0.15270008076E+01  0.13715101318E+02  0.55715532161E+01  0.14882134965E+02  0.51100000000E-03 0.  1.
         12    1    3    3    0    0  0.28218107060E+01  0.76861248873E+01  0.61461150779E+01  0.10237864132E+02  0.00000000000E+00 0. -1.
</event>
<event>
 7    1  0.2478637E-008  0.4614232E+02  0.7816164E-02  0.1320468E+00
        -11   -1    0    0    0    0  0.00000000000E+00  0.00000000000E+00  0.45593999997E+02  0.45594000000E+02  0.51100000000E-03 0.  1.
         11   -1    0    0    0    0 -0.00000000000E+00 -0.00000000000E+00 -0.45593999997E+02  0.45594000000E+02  0.51100000000E-03 0. -1.
    9900012    2    1    2    0    0  0.28331030623E+02 -0.94172866154E+01  0.33731008455E+02  0.46142317468E+02  0.99999973284E+01 0.  0.
         12    1    1    2    0    0 -0.28331030623E+02  0.94172866154E+01 -0.33731008455E+02  0.45045682532E+02  0.00000000000E+00 0. -1.
         11    1    3    3    0    0  0.89662977759E+01 -0.16239948807E+01  0.13144810940E+02  0.15994308678E+02  0.51100000000E-03 0.  1.
        -11    1    3    3    0    0  0.56890575923E+01  0.98196890798E+00  0.56195760393E+01  0.80566292175E+01  0.51100000000E-03 0. -1.
         12    1    3    3    0    0  0.13675675255E+02 -0.87752606427E+01  0.14966621476E+02  0.22091379573E+02  0.00000000000E+00 0. -1.
</event>
<event>
 7    1  0.2478637E-008  0.4614232E+02  0.7816164E-02  0.1320468E+00
        -11   -1    0    0    0    0  0.00000000000E+00  0.00000000000E+00  0.45593999997E+02  0.45594000000E+02  0.51100000000E-03 0.  1.
         11   -1    0    0    0    0 -0.00000000000E+00 -0.00000000000E+00 -0.45593999997E+02  0.45594000000E+02  0.51100000000E-03 0. -1.
    9900012    2    1    2    0    0 -0.60375214028E+01 -0.43090828315E+02 -0.11655140807E+02  0.46142318112E+02  0.10000003196E+02 0.  0.
         12    1    1    2    0    0  0.60375214028E+01  0.43090828315E+02  0.11655140807E+02  0.45045681888E+02  0.00000000000E+00 0. -1.
         11    1    3    3    0    0 -0.53607377701E+01 -0.39879009175E+02 -0.12588952638E+02  0.42161055620E+02  0.51100000000E-03 0.  1.
        -11    1    3    3    0    0  0.57739120869E+00 -0.51742044123E+00 -0.19942187825E+00  0.80054598089E+00  0.51100000000E-03 0. -1.
        -12    1    3    3    0    0 -0.12541748414E+01 -0.26943986989E+01  0.11332337093E+01  0.31807165107E+01  0.00000000000E+00 0.  1.
</event>
<event>
 7    1  0.2478637E-008  0.4614232E+02  0.7816164E-02  0.1320468E+00
        -11   -1    0    0    0    0  0.00000000000E+00  0.00000000000E+00  0.45593999997E+02  0.45594000000E+02  0.51100000000E-03 0.  1.
         11   -1    0    0    0    0 -0.00000000000E+00 -0.00000000000E+00 -0.45593999997E+02  0.45594000000E+02  0.51100000000E-03 0. -1.
    9900012    2    1    2    0    0 -0.19768140929E+01  0.40119438538E+02  0.20387160658E+02  0.46142318051E+02  0.10000002640E+02 0.  0.
         12    1    1    2    0    0  0.19768140929E+01 -0.40119438538E+02 -0.20387160658E+02  0.45045681949E+02  0.00000000000E+00 0. -1.
         11    1    3    3    0    0 -0.35808815598E+01  0.21506590725E+02  0.11394879731E+02  0.24600801647E+02  0.51100000000E-03 0. -1.
        -11    1    3    3    0    0  0.33707305150E+01  0.64778660016E+01  0.30309967026E+01  0.79064222890E+01  0.51100000000E-03 0.  1.
        -12    1    3    3    0    0 -0.17666630480E+01  0.12134981812E+02  0.59612842245E+01  0.13635094114E+02  0.00000000000E+00 0.  1.
</event>
<event>
 7    1  0.2478637E-008  0.4614232E+02  0.7816164E-02  0.1320468E+00
        -11   -1    0    0    0    0  0.00000000000E+00  0.00000000000E+00  0.45593999997E+02  0.45594000000E+02  0.51100000000E-03 0.  1.
         11   -1    0    0    0    0 -0.00000000000E+00 -0.00000000000E+00 -0.45593999997E+02  0.45594000000E+02  0.51100000000E-03 0. -1.
    9900012    2    1    2    0    0  0.10843788247E+02  0.38789074242E+02  0.20172591473E+02  0.46142317955E+02  0.10000001770E+02 0.  0.
         12    1    1    2    0    0 -0.10843788247E+02 -0.38789074242E+02 -0.20172591473E+02  0.45045682045E+02  0.00000000000E+00 0. -1.
         11    1    3    3    0    0  0.37255457884E+01  0.12543096501E+02  0.18408805851E+01  0.13213546187E+02  0.51100000000E-03 0. -1.
        -11    1    3    3    0    0  0.23981872772E+01  0.66822339418E+01  0.62294365452E+01  0.94450745154E+01  0.51100000000E-03 0.  1.
        -12    1    3    3    0    0  0.47200551817E+01  0.19563743800E+02  0.12102274343E+02  0.23483697253E+02  0.00000000000E+00 0.  1.
</event>
<event>
 7    1  0.2478637E-008  0.4614232E+02  0.7816164E-02  0.1320468E+00
        -11   -1    0    0    0    0  0.00000000000E+00  0.00000000000E+00  0.45593999997E+02  0.45594000000E+02  0.51100000000E-03 0.  1.
         11   -1    0    0    0    0 -0.00000000000E+00 -0.00000000000E+00 -0.45593999997E+02  0.45594000000E+02  0.51100000000E-03 0. -1.
    9900012    2    1    2    0    0  0.22825326317E+02  0.20024358577E+02  0.33273758691E+02  0.46142317906E+02  0.10000001322E+02 0.  0.
         12    1    1    2    0    0 -0.22825326317E+02 -0.20024358577E+02 -0.33273758691E+02  0.45045682094E+02  0.00000000000E+00 0. -1.
         11    1    3    3    0    0  0.15534278933E+01  0.23626078626E+00  0.22839125640E+00  0.15878035791E+01  0.51100000000E-03 0. -1.
        -11    1    3    3    0    0  0.20095243372E+02  0.17049472289E+02  0.26553782766E+02  0.37411317685E+02  0.51100000000E-03 0.  1.
        -12    1    3    3    0    0  0.11766550516E+01  0.27386255014E+01  0.64915846692E+01  0.71431966419E+01  0.00000000000E+00 0.  1.
</event>
<event>
 7    1  0.2478637E-008  0.4614232E+02  0.7816164E-02  0.1320468E+00
        -11   -1    0    0    0    0  0.00000000000E+00  0.00000000000E+00  0.45593999997E+02  0.45594000000E+02  0.51100000000E-03 0.  1.
         11   -1    0    0    0    0 -0.00000000000E+00 -0.00000000000E+00 -0.45593999997E+02  0.45594000000E+02  0.51100000000E-03 0. -1.
    9900012    2    1    2    0    0  0.34004298979E+01 -0.15618156352E+02  0.42114411458E+02  0.46142318922E+02  0.10000010585E+02 0.  0.
         12    1    1    2    0    0 -0.34004298979E+01  0.15618156352E+02 -0.42114411458E+02  0.45045681078E+02  0.00000000000E+00 0. -1.
         11    1    3    3    0    0  0.38980197401E+01 -0.12018209039E+01  0.61665807253E+01  0.73936222166E+01  0.51100000000E-03 0. -1.
        -11    1    3    3    0    0 -0.99731610181E-01 -0.43484779457E+01  0.12181996192E+02  0.12935232442E+02  0.51100000000E-03 0.  1.
         12    1    3    3    0    0 -0.39785823195E+00 -0.10067857502E+02  0.23765834541E+02  0.25813464263E+02  0.00000000000E+00 0. -1.
</event>
<event>
 7    1  0.2478637E-008  0.4614232E+02  0.7816164E-02  0.1320468E+00
        -11   -1    0    0    0    0  0.00000000000E+00  0.00000000000E+00  0.45593999997E+02  0.45594000000E+02  0.51100000000E-03 0.  1.
         11   -1    0    0    0    0 -0.00000000000E+00 -0.00000000000E+00 -0.45593999997E+02  0.45594000000E+02  0.51100000000E-03 0. -1.
    9900012    2    1    2    0    0  0.26222485225E+02 -0.46932095356E+01  0.36324489905E+02  0.46142317477E+02  0.99999974112E+01 0.  0.
         12    1    1    2    0    0 -0.26222485225E+02  0.46932095356E+01 -0.36324489905E+02  0.45045682523E+02  0.00000000000E+00 0. -1.
         11    1    3    3    0    0  0.67324599415E+01 -0.46185442287E+01  0.75073019565E+01  0.11091282639E+02  0.51100000000E-03 0. -1.
        -11    1    3    3    0    0  0.16960758998E+02 -0.45181301438E+00  0.27091740706E+02  0.31966136701E+02  0.51100000000E-03 0.  1.
        -12    1    3    3    0    0  0.25292662850E+01  0.37714770745E+00  0.17254472417E+01  0.30848981373E+01  0.00000000000E+00 0.  1.
</event>
<event>
 7    1  0.2478637E-008  0.4614232E+02  0.7816164E-02  0.1320468E+00
        -11   -1    0    0    0    0  0.00000000000E+00  0.00000000000E+00  0.45593999997E+02  0.45594000000E+02  0.51100000000E-03 0. -1.
         11   -1    0    0    0    0 -0.00000000000E+00 -0.00000000000E+00 -0.45593999997E+02  0.45594000000E+02  0.51100000000E-03 0.  1.
    9900012    2    1    2    0    0 -0.20548412938E+02 -0.38716384074E+02  0.10388349408E+02  0.46142317926E+02  0.10000001507E+02 0.  0.
         12    1    1    2    0    0  0.20548412938E+02  0.38716384074E+02 -0.10388349408E+02  0.45045682074E+02  0.00000000000E+00 0. -1.
         11    1    3    3    0    0 -0.14051395739E+02 -0.28908290293E+02  0.73799863803E+01  0.32978707814E+02  0.51100000000E-03 0. -1.
        -11    1    3    3    0    0 -0.65736577540E+01 -0.74961238655E+01  0.86099735968E+00  0.10007305631E+02  0.51100000000E-03 0.  1.
         12    1    3    3    0    0  0.76640554622E-01 -0.23119699157E+01  0.21473656681E+01  0.31563044812E+01  0.00000000000E+00 0. -1.
</event>
<event>
 7    1  0.2478637E-008  0.4614232E+02  0.7816164E-02  0.1320468E+00
        -11   -1    0    0    0    0  0.00000000000E+00  0.00000000000E+00  0.45593999997E+02  0.45594000000E+02  0.51100000000E-03 0. -1.
         11   -1    0    0    0    0 -0.00000000000E+00 -0.00000000000E+00 -0.45593999997E+02  0.45594000000E+02  0.51100000000E-03 0.  1.
    9900012    2    1    2    0    0 -0.17382975753E+02 -0.40329313775E+02 -0.10024578690E+02  0.46142316816E+02  0.99999913858E+01 0.  0.
         12    1    1    2    0    0  0.17382975753E+02  0.40329313775E+02  0.10024578690E+02  0.45045683184E+02  0.00000000000E+00 0. -1.
         11    1    3    3    0    0 -0.33958648615E+01 -0.97825651038E+01 -0.54724558588E+01  0.11712311965E+02  0.51100000000E-03 0. -1.
        -11    1    3    3    0    0 -0.77522475894E+01 -0.11125762838E+02 -0.13974512995E+00  0.13560953889E+02  0.51100000000E-03 0.  1.
        -12    1    3    3    0    0 -0.62348633020E+01 -0.19420985833E+02 -0.44123777010E+01  0.20869050963E+02  0.00000000000E+00 0.  1.
</event>
<event>
 7    1  0.2478637E-008  0.4614232E+02  0.7816164E-02  0.1320468E+00
        -11   -1    0    0    0    0  0.00000000000E+00  0.00000000000E+00  0.45593999997E+02  0.45594000000E+02  0.51100000000E-03 0. -1.
         11   -1    0    0    0    0 -0.00000000000E+00 -0.00000000000E+00 -0.45593999997E+02  0.45594000000E+02  0.51100000000E-03 0.  1.
    9900012    2    1    2    0    0  0.41711859180E+00  0.30564942038E+02 -0.33086611048E+02  0.46142317628E+02  0.99999987823E+01 0.  0.
         12    1    1    2    0    0 -0.41711859180E+00 -0.30564942038E+02  0.33086611048E+02  0.45045682372E+02  0.00000000000E+00 0. -1.
         11    1    3    3    0    0 -0.20273284427E+01  0.23651322129E+01 -0.39142864233E+01  0.50025542939E+01  0.51100000000E-03 0. -1.
        -11    1    3    3    0    0  0.28732717052E+01  0.10385685290E+02 -0.77406481941E+01  0.13267847752E+02  0.51100000000E-03 0.  1.
        -12    1    3    3    0    0 -0.42882467072E+00  0.17814124535E+02 -0.21431676431E+02  0.27871915582E+02  0.00000000000E+00 0.  1.
</event>
<event>
 7    1  0.2478637E-008  0.4614232E+02  0.7816164E-02  0.1320468E+00
        -11   -1    0    0    0    0  0.00000000000E+00  0.00000000000E+00  0.45593999997E+02  0.45594000000E+02  0.51100000000E-03 0.  1.
         11   -1    0    0    0    0 -0.00000000000E+00 -0.00000000000E+00 -0.45593999997E+02  0.45594000000E+02  0.51100000000E-03 0. -1.
    9900012    2    1    2    0    0 -0.34547327994E+01 -0.11332396296E+02  0.43459809644E+02  0.46142318311E+02  0.10000005017E+02 0.  0.
         12    1    1    2    0    0  0.34547327994E+01  0.11332396296E+02 -0.43459809644E+02  0.45045681689E+02  0.00000000000E+00 0. -1.
         11    1    3    3    0    0  0.31817318958E+00 -0.57719226622E+01  0.13388114387E+02  0.14582795771E+02  0.51100000000E-03 0. -1.
        -11    1    3    3    0    0 -0.30432057349E+01 -0.63995330112E+01  0.16694514161E+02  0.18136204874E+02  0.51100000000E-03 0.  1.
        -12    1    3    3    0    0 -0.72970025412E+00  0.83905937698E+00  0.13377181096E+02  0.13423317666E+02  0.00000000000E+00 0.  1.
</event>
<event>
 7    1  0.2478637E-008  0.4614232E+02  0.7816164E-02  0.1320468E+00
        -11   -1    0    0    0    0  0.00000000000E+00  0.00000000000E+00  0.45593999997E+02  0.45594000000E+02  0.51100000000E-03 0. -1.
         11   -1    0    0    0    0 -0.00000000000E+00 -0.00000000000E+00 -0.45593999997E+02  0.45594000000E+02  0.51100000000E-03 0.  1.
    9900012    2    1    2    0    0 -0.40183848356E+02 -0.17558994328E+02  0.10298231664E+02  0.46142317344E+02  0.99999961982E+01 0.  0.
         12    1    1    2    0    0  0.40183848356E+02  0.17558994328E+02 -0.10298231664E+02  0.45045682656E+02  0.00000000000E+00 0. -1.
         11    1    3    3    0    0 -0.36872570908E+00  0.33545086188E+00  0.17438874604E+00  0.52810758860E+00  0.51100000000E-03 0. -1.
        -11    1    3    3    0    0 -0.34932863409E+02 -0.12316446414E+02  0.89811902084E+01  0.38113797712E+02  0.51100000000E-03 0.  1.
        -12    1    3    3    0    0 -0.48822592385E+01 -0.55779987753E+01  0.11426527094E+01  0.75004120436E+01  0.00000000000E+00 0.  1.
</event>
<event>
 7    1  0.2478637E-008  0.4614232E+02  0.7816164E-02  0.1320468E+00
        -11   -1    0    0    0    0  0.00000000000E+00  0.00000000000E+00  0.45593999997E+02  0.45594000000E+02  0.51100000000E-03 0.  1.
         11   -1    0    0    0    0 -0.00000000000E+00 -0.00000000000E+00 -0.45593999997E+02  0.45594000000E+02  0.51100000000E-03 0. -1.
    9900012    2    1    2    0    0  0.28474097455E+01 -0.12183209421E+02  0.43273262180E+02  0.46142317036E+02  0.99999933835E+01 0.  0.
         12    1    1    2    0    0 -0.28474097455E+01  0.12183209421E+02 -0.43273262180E+02  0.45045682964E+02  0.00000000000E+00 0. -1.
         11    1    3    3    0    0 -0.71374953917E+00 -0.47858883925E+01  0.83959946835E+01  0.96905569033E+01  0.51100000000E-03 0.  1.
        -11    1    3    3    0    0 -0.35816712412E+00  0.10323819563E+01  0.64821828542E+01  0.65736436631E+01  0.51100000000E-03 0. -1.
        -12    1    3    3    0    0  0.39193264088E+01 -0.84297029850E+01  0.28395084642E+02  0.29878116469E+02  0.00000000000E+00 0.  1.
</event>
<event>
 7    1  0.2478637E-008  0.4614232E+02  0.7816164E-02  0.1320468E+00
        -11   -1    0    0    0    0  0.00000000000E+00  0.00000000000E+00  0.45593999997E+02  0.45594000000E+02  0.51100000000E-03 0.  1.
         11   -1    0    0    0    0 -0.00000000000E+00 -0.00000000000E+00 -0.45593999997E+02  0.45594000000E+02  0.51100000000E-03 0. -1.
    9900012    2    1    2    0    0  0.26248881322E+02  0.30961931652E+02  0.19531216020E+02  0.46142318947E+02  0.10000010818E+02 0.  0.
         12    1    1    2    0    0 -0.26248881322E+02 -0.30961931652E+02 -0.19531216020E+02  0.45045681053E+02  0.00000000000E+00 0. -1.
         11    1    3    3    0    0  0.11388808265E+01  0.47004831491E+01  0.37304655928E+01  0.61080246538E+01  0.51100000000E-03 0. -1.
        -11    1    3    3    0    0  0.20842600869E+02  0.24000587343E+02  0.14962138026E+02  0.35132716638E+02  0.51100000000E-03 0.  1.
        -12    1    3    3    0    0  0.42673996262E+01  0.22608611594E+01  0.83861240186E+00  0.49015776555E+01  0.00000000000E+00 0.  1.
</event>
<event>
 7    1  0.2478637E-008  0.4614232E+02  0.7816164E-02  0.1320468E+00
        -11   -1    0    0    0    0  0.00000000000E+00  0.00000000000E+00  0.45593999997E+02  0.45594000000E+02  0.51100000000E-03 0.  1.
         11   -1    0    0    0    0 -0.00000000000E+00 -0.00000000000E+00 -0.45593999997E+02  0.45594000000E+02  0.51100000000E-03 0. -1.
    9900012    2    1    2    0    0  0.16071345205E+02  0.32258054311E+02  0.27023005804E+02  0.46142322657E+02  0.10000044648E+02 0.  0.
         12    1    1    2    0    0 -0.16071345205E+02 -0.32258054311E+02 -0.27023005804E+02  0.45045677343E+02  0.00000000000E+00 0. -1.
         11    1    3    3    0    0  0.79791508937E+01  0.12554116301E+02  0.77811934718E+01  0.16787485136E+02  0.51100000000E-03 0. -1.
        -11    1    3    3    0    0  0.32069956278E+01  0.14114139355E+02  0.10472779207E+02  0.17865409462E+02  0.51100000000E-03 0.  1.
         12    1    3    3    0    0  0.48851986831E+01  0.55897986547E+01  0.87690331251E+01  0.11489428059E+02  0.00000000000E+00 0. -1.
</event>
<event>
 7    1  0.2478637E-008  0.4614232E+02  0.7816164E-02  0.1320468E+00
        -11   -1    0    0    0    0  0.00000000000E+00  0.00000000000E+00  0.45593999997E+02  0.45594000000E+02  0.51100000000E-03 0.  1.
         11   -1    0    0    0    0 -0.00000000000E+00 -0.00000000000E+00 -0.45593999997E+02  0.45594000000E+02  0.51100000000E-03 0. -1.
    9900012    2    1    2    0    0 -0.32738133661E+02  0.14428969125E+01  0.30907056768E+02  0.46142317575E+02  0.99999982995E+01 0.  0.
         12    1    1    2    0    0  0.32738133661E+02 -0.14428969125E+01 -0.30907056768E+02  0.45045682425E+02  0.00000000000E+00 0. -1.
         11    1    3    3    0    0 -0.13272744365E+02  0.19874869993E+01  0.15516379432E+02  0.20515210905E+02  0.51100000000E-03 0. -1.
        -11    1    3    3    0    0 -0.18107355663E+02 -0.26597484395E+00  0.11390958372E+02  0.21393947850E+02  0.51100000000E-03 0.  1.
         12    1    3    3    0    0 -0.13580336339E+01 -0.27861524287E+00  0.39997189631E+01  0.42331588192E+01  0.00000000000E+00 0. -1.
</event>
<event>
 7    1  0.2478637E-008  0.4614232E+02  0.7816164E-02  0.1320468E+00
        -11   -1    0    0    0    0  0.00000000000E+00  0.00000000000E+00  0.45593999997E+02  0.45594000000E+02  0.51100000000E-03 0. -1.
         11   -1    0    0    0    0 -0.00000000000E+00 -0.00000000000E+00 -0.45593999997E+02  0.45594000000E+02  0.51100000000E-03 0.  1.
    9900012    2    1    2    0    0 -0.22609840111E+02 -0.28094255660E+02 -0.26992990060E+02  0.46142316707E+02  0.99999903921E+01 0.  0.
         12    1    1    2    0    0  0.22609840111E+02  0.28094255660E+02  0.26992990060E+02  0.45045683293E+02  0.00000000000E+00 0. -1.
         11    1    3    3    0    0 -0.93038086264E+01 -0.12393589821E+02 -0.86653330293E+01  0.17755278662E+02  0.51100000000E-03 0. -1.
        -11    1    3    3    0    0 -0.72338479819E+01 -0.10033135076E+02 -0.14992668335E+02  0.19436369521E+02  0.51100000000E-03 0.  1.
        -12    1    3    3    0    0 -0.60721835025E+01 -0.56675307623E+01 -0.33349886956E+01  0.89506685242E+01  0.00000000000E+00 0.  1.
</event>
<event>
 7    1  0.2478637E-008  0.4614232E+02  0.7816164E-02  0.1320468E+00
        -11   -1    0    0    0    0  0.00000000000E+00  0.00000000000E+00  0.45593999997E+02  0.45594000000E+02  0.51100000000E-03 0.  1.
         11   -1    0    0    0    0 -0.00000000000E+00 -0.00000000000E+00 -0.45593999997E+02  0.45594000000E+02  0.51100000000E-03 0. -1.
    9900012    2    1    2    0    0 -0.10256773141E+02 -0.13519351523E+02  0.41726960042E+02  0.46142318129E+02  0.10000003350E+02 0.  0.
         12    1    1    2    0    0  0.10256773141E+02  0.13519351523E+02 -0.41726960042E+02  0.45045681871E+02  0.00000000000E+00 0. -1.
         11    1    3    3    0    0 -0.67251276147E+01 -0.72561074067E+01  0.20661620034E+02  0.22908098542E+02  0.51100000000E-03 0. -1.
        -11    1    3    3    0    0 -0.24757453004E+01 -0.31663245935E+01  0.33884058605E+01  0.52570163363E+01  0.51100000000E-03 0.  1.
         12    1    3    3    0    0 -0.10559002263E+01 -0.30969195231E+01  0.17676934148E+02  0.17977203250E+02  0.00000000000E+00 0. -1.
</event>
<event>
 7    1  0.2478637E-008  0.4614232E+02  0.7816164E-02  0.1320468E+00
        -11   -1    0    0    0    0  0.00000000000E+00  0.00000000000E+00  0.45593999997E+02  0.45594000000E+02  0.51100000000E-03 0. -1.
         11   -1    0    0    0    0 -0.00000000000E+00 -0.00000000000E+00 -0.45593999997E+02  0.45594000000E+02  0.51100000000E-03 0.  1.
    9900012    2    1    2    0    0 -0.15041774085E+02 -0.10116216154E+02 -0.41237366159E+02  0.46142321355E+02  0.10000032768E+02 0.  0.
         12    1    1    2    0    0  0.15041774085E+02  0.10116216154E+02  0.41237366159E+02  0.45045678645E+02  0.00000000000E+00 0. -1.
         11    1    3    3    0    0 -0.38154452281E+01 -0.54562101232E+00 -0.32342550658E+01  0.50314740057E+01  0.51100000000E-03 0. -1.
        -11    1    3    3    0    0 -0.18293573549E+01 -0.22621706113E+01 -0.31842484673E+01  0.43131662116E+01  0.51100000000E-03 0.  1.
        -12    1    3    3    0    0 -0.93969715016E+01 -0.73084245309E+01 -0.34818862626E+02  0.36797681137E+02  0.00000000000E+00 0.  1.
</event>
<event>
 7    1  0.2478637E-008  0.4614232E+02  0.7816164E-02  0.1320468E+00
        -11   -1    0    0    0    0  0.00000000000E+00  0.00000000000E+00  0.45593999997E+02  0.45594000000E+02  0.51100000000E-03 0.  1.
         11   -1    0    0    0    0 -0.00000000000E+00 -0.00000000000E+00 -0.45593999997E+02  0.45594000000E+02  0.51100000000E-03 0. -1.
    9900012    2    1    2    0    0  0.37241037547E+02  0.40730616894E+01  0.25012571342E+02  0.46142318362E+02  0.10000005479E+02 0.  0.
         12    1    1    2    0    0 -0.37241037547E+02 -0.40730616894E+01 -0.25012571342E+02  0.45045681638E+02  0.00000000000E+00 0. -1.
         11    1    3    3    0    0  0.44588649690E+01  0.15832373863E+01  0.53593504534E+01  0.71491786225E+01  0.51100000000E-03 0.  1.
        -11    1    3    3    0    0 -0.80245668430E-01  0.70786297524E+00  0.77374841117E+00  0.10517586339E+01  0.51100000000E-03 0. -1.
         12    1    3    3    0    0  0.32862418246E+02  0.17819613279E+01  0.18879472477E+02  0.37941381106E+02  0.00000000000E+00 0. -1.
</event>
<event>
 7    1  0.2478637E-008  0.4614232E+02  0.7816164E-02  0.1320468E+00
        -11   -1    0    0    0    0  0.00000000000E+00  0.00000000000E+00  0.45593999997E+02  0.45594000000E+02  0.51100000000E-03 0. -1.
         11   -1    0    0    0    0 -0.00000000000E+00 -0.00000000000E+00 -0.45593999997E+02  0.45594000000E+02  0.51100000000E-03 0.  1.
    9900012    2    1    2    0    0  0.35140812106E+02 -0.26603284247E+02  0.93006494961E+01  0.46142317751E+02  0.99999999090E+01 0.  0.
         12    1    1    2    0    0 -0.35140812106E+02  0.26603284247E+02 -0.93006494961E+01  0.45045682249E+02  0.00000000000E+00 0. -1.
         11    1    3    3    0    0  0.15315965334E+01 -0.10857696674E+01 -0.72073027754E+00  0.20110037558E+01  0.51100000000E-03 0. -1.
        -11    1    3    3    0    0  0.62347711279E+01 -0.13314250904E+01  0.57513647436E+00  0.64012378501E+01  0.51100000000E-03 0.  1.
        -12    1    3    3    0    0  0.27374444445E+02 -0.24186089489E+02  0.94462432993E+01  0.37730076145E+02  0.00000000000E+00 0.  1.
</event>
<event>
 7    1  0.2478637E-008  0.4614232E+02  0.7816164E-02  0.1320468E+00
        -11   -1    0    0    0    0  0.00000000000E+00  0.00000000000E+00  0.45593999997E+02  0.45594000000E+02  0.51100000000E-03 0.  1.
         11   -1    0    0    0    0 -0.00000000000E+00 -0.00000000000E+00 -0.45593999997E+02  0.45594000000E+02  0.51100000000E-03 0. -1.
    9900012    2    1    2    0    0 -0.51886316110E+01  0.34962395746E+02  0.27925299923E+02  0.46142318852E+02  0.10000009951E+02 0.  0.
         12    1    1    2    0    0  0.51886316110E+01 -0.34962395746E+02 -0.27925299923E+02  0.45045681148E+02  0.00000000000E+00 0. -1.
         11    1    3    3    0    0 -0.44740557125E+00  0.66197850214E+01  0.84504358984E+01  0.10743909559E+02  0.51100000000E-03 0. -1.
        -11    1    3    3    0    0  0.20312447744E+00  0.17896972719E+02  0.10364115088E+02  0.20682305817E+02  0.51100000000E-03 0.  1.
        -12    1    3    3    0    0 -0.49443505172E+01  0.10445638005E+02  0.91107489361E+01  0.14716103477E+02  0.00000000000E+00 0.  1.
</event>
<event>
 7    1  0.2478637E-008  0.4614232E+02  0.7816164E-02  0.1320468E+00
        -11   -1    0    0    0    0  0.00000000000E+00  0.00000000000E+00  0.45593999997E+02  0.45594000000E+02  0.51100000000E-03 0.  1.
         11   -1    0    0    0    0 -0.00000000000E+00 -0.00000000000E+00 -0.45593999997E+02  0.45594000000E+02  0.51100000000E-03 0. -1.
    9900012    2    1    2    0    0 -0.83562939561E+01  0.34029686507E+02  0.28306646393E+02  0.46142318271E+02  0.10000004646E+02 0.  0.
         12    1    1    2    0    0  0.83562939561E+01 -0.34029686507E+02 -0.28306646393E+02  0.45045681729E+02  0.00000000000E+00 0. -1.
         11    1    3    3    0    0 -0.34119802084E+01  0.53435077905E+01  0.81380207395E+01  0.10316107128E+02  0.51100000000E-03 0. -1.
        -11    1    3    3    0    0 -0.48315694103E+01  0.13136300345E+02  0.83907900675E+01  0.16319062717E+02  0.51100000000E-03 0.  1.
        -12    1    3    3    0    0 -0.11274433741E+00  0.15549878372E+02  0.11777835586E+02  0.19507148427E+02  0.00000000000E+00 0.  1.
</event>
<event>
 7    1  0.2478637E-008  0.4614232E+02  0.7816164E-02  0.1320468E+00
        -11   -1    0    0    0    0  0.00000000000E+00  0.00000000000E+00  0.45593999997E+02  0.45594000000E+02  0.51100000000E-03 0.  1.
         11   -1    0    0    0    0 -0.00000000000E+00 -0.00000000000E+00 -0.45593999997E+02  0.45594000000E+02  0.51100000000E-03 0. -1.
    9900012    2    1    2    0    0 -0.40952064179E+02 -0.14213086355E+02 -0.12248678084E+02  0.46142317642E+02  0.99999989183E+01 0.  0.
         12    1    1    2    0    0  0.40952064179E+02  0.14213086355E+02  0.12248678084E+02  0.45045682358E+02  0.00000000000E+00 0. -1.
         11    1    3    3    0    0 -0.44385796175E+01  0.41791884393E+00 -0.13624301402E+01  0.46617444513E+01  0.51100000000E-03 0. -1.
        -11    1    3    3    0    0 -0.18767791186E+02 -0.43404618181E+01 -0.29613521766E+01  0.19489463866E+02  0.51100000000E-03 0.  1.
         12    1    3    3    0    0 -0.17745693375E+02 -0.10290543380E+02 -0.79248957674E+01  0.21991109325E+02  0.00000000000E+00 0. -1.
</event>
<event>
 7    1  0.2478637E-008  0.4614232E+02  0.7816164E-02  0.1320468E+00
        -11   -1    0    0    0    0  0.00000000000E+00  0.00000000000E+00  0.45593999997E+02  0.45594000000E+02  0.51100000000E-03 0. -1.
         11   -1    0    0    0    0 -0.00000000000E+00 -0.00000000000E+00 -0.45593999997E+02  0.45594000000E+02  0.51100000000E-03 0.  1.
    9900012    2    1    2    0    0  0.25762890240E+02  0.36052142215E+02 -0.81012201423E+01  0.46142320523E+02  0.10000025181E+02 0.  0.
         12    1    1    2    0    0 -0.25762890240E+02 -0.36052142215E+02  0.81012201423E+01  0.45045679477E+02  0.00000000000E+00 0. -1.
         11    1    3    3    0    0  0.95546046260E+01  0.87347627088E+01  0.82984194751E+00  0.12972092624E+02  0.51100000000E-03 0. -1.
        -11    1    3    3    0    0  0.17415753187E+01  0.35211878586E+01 -0.22664174710E+01  0.45352504827E+01  0.51100000000E-03 0.  1.
        -12    1    3    3    0    0  0.14466710296E+02  0.23796191647E+02 -0.66646446189E+01  0.28634977415E+02  0.00000000000E+00 0.  1.
</event>
<event>
 7    1  0.2478637E-008  0.4614232E+02  0.7816164E-02  0.1320468E+00
        -11   -1    0    0    0    0  0.00000000000E+00  0.00000000000E+00  0.45593999997E+02  0.45594000000E+02  0.51100000000E-03 0.  1.
         11   -1    0    0    0    0 -0.00000000000E+00 -0.00000000000E+00 -0.45593999997E+02  0.45594000000E+02  0.51100000000E-03 0. -1.
    9900012    2    1    2    0    0 -0.17394556523E+01 -0.43233723352E+02 -0.12527287774E+02  0.46142317856E+02  0.10000000868E+02 0.  0.
         12    1    1    2    0    0  0.17394556523E+01  0.43233723352E+02  0.12527287774E+02  0.45045682144E+02  0.00000000000E+00 0. -1.
         11    1    3    3    0    0  0.22477141791E+01 -0.11132776685E+02 -0.17894282056E+01  0.11497521007E+02  0.51100000000E-03 0. -1.
        -11    1    3    3    0    0  0.12844314616E+01 -0.11465632911E+02 -0.50925604291E+01  0.12611291536E+02  0.51100000000E-03 0.  1.
        -12    1    3    3    0    0 -0.52716012930E+01 -0.20635313756E+02 -0.56452991396E+01  0.22033505313E+02  0.00000000000E+00 0.  1.
</event>
<event>
 7    1  0.2478637E-008  0.4614232E+02  0.7816164E-02  0.1320468E+00
        -11   -1    0    0    0    0  0.00000000000E+00  0.00000000000E+00  0.45593999997E+02  0.45594000000E+02  0.51100000000E-03 0.  1.
         11   -1    0    0    0    0 -0.00000000000E+00 -0.00000000000E+00 -0.45593999997E+02  0.45594000000E+02  0.51100000000E-03 0. -1.
    9900012    2    1    2    0    0 -0.43260029774E+02  0.86794292067E+00  0.12527158351E+02  0.46142320992E+02  0.10000029462E+02 0.  0.
         12    1    1    2    0    0  0.43260029774E+02 -0.86794292067E+00 -0.12527158351E+02  0.45045679008E+02  0.00000000000E+00 0. -1.
         11    1    3    3    0    0 -0.79475646460E+01  0.23076254695E+00 -0.10131723051E+01  0.80152076415E+01  0.51100000000E-03 0. -1.
        -11    1    3    3    0    0 -0.28581382354E+02 -0.13236922385E+01  0.11364545637E+02  0.30786368350E+02  0.51100000000E-03 0.  1.
        -12    1    3    3    0    0 -0.67310827737E+01  0.19608726122E+01  0.21757850195E+01  0.73407450002E+01  0.00000000000E+00 0.  1.
</event>
<event>
 7    1  0.2478637E-008  0.4614232E+02  0.7816164E-02  0.1320468E+00
        -11   -1    0    0    0    0  0.00000000000E+00  0.00000000000E+00  0.45593999997E+02  0.45594000000E+02  0.51100000000E-03 0. -1.
         11   -1    0    0    0    0 -0.00000000000E+00 -0.00000000000E+00 -0.45593999997E+02  0.45594000000E+02  0.51100000000E-03 0.  1.
    9900012    2    1    2    0    0 -0.41473815173E+02  0.15846369147E+02 -0.76110884280E+01  0.46142318440E+02  0.10000006193E+02 0.  0.
         12    1    1    2    0    0  0.41473815173E+02 -0.15846369147E+02  0.76110884280E+01  0.45045681560E+02  0.00000000000E+00 0. -1.
         11    1    3    3    0    0 -0.72099215980E+01  0.17197003693E+00 -0.33221521599E+01  0.79403550536E+01  0.51100000000E-03 0. -1.
        -11    1    3    3    0    0 -0.23019972740E+01  0.93332180573E+00 -0.14825409706E+01  0.28927856874E+01  0.51100000000E-03 0.  1.
         12    1    3    3    0    0 -0.31961896301E+02  0.14741077305E+02 -0.28063952975E+01  0.35309177699E+02  0.00000000000E+00 0. -1.
</event>
<event>
 7    1  0.2478637E-008  0.4614231E+02  0.7816164E-02  0.1320468E+00
        -11   -1    0    0    0    0  0.00000000000E+00  0.00000000000E+00  0.45593999997E+02  0.45594000000E+02  0.51100000000E-03 0.  1.
         11   -1    0    0    0    0 -0.00000000000E+00 -0.00000000000E+00 -0.45593999997E+02  0.45594000000E+02  0.51100000000E-03 0. -1.
    9900012    2    1    2    0    0  0.36416868586E+02 -0.11737110789E+02  0.23773215856E+02  0.46142313421E+02  0.99999604196E+01 0.  0.
         12    1    1    2    0    0 -0.36416868586E+02  0.11737110789E+02 -0.23773215856E+02  0.45045686579E+02  0.00000000000E+00 0. -1.
         11    1    3    3    0    0  0.10002836022E+02 -0.13633824251E+01  0.39746204663E+01  0.10849569034E+02  0.51100000000E-03 0. -1.
        -11    1    3    3    0    0  0.18585920715E+02 -0.37510811321E+01  0.13042821246E+02  0.23013523085E+02  0.51100000000E-03 0.  1.
         12    1    3    3    0    0  0.78281118493E+01 -0.66226472320E+01  0.67557741441E+01  0.12279221301E+02  0.00000000000E+00 0. -1.
</event>
<event>
 7    1  0.2478637E-008  0.4614232E+02  0.7816164E-02  0.1320468E+00
        -11   -1    0    0    0    0  0.00000000000E+00  0.00000000000E+00  0.45593999997E+02  0.45594000000E+02  0.51100000000E-03 0.  1.
         11   -1    0    0    0    0 -0.00000000000E+00 -0.00000000000E+00 -0.45593999997E+02  0.45594000000E+02  0.51100000000E-03 0. -1.
    9900012    2    1    2    0    0 -0.12037102179E+02 -0.28061957953E+02  0.33117182450E+02  0.46142322223E+02  0.10000040683E+02 0.  0.
         12    1    1    2    0    0  0.12037102179E+02  0.28061957953E+02 -0.33117182450E+02  0.45045677777E+02  0.00000000000E+00 0. -1.
         11    1    3    3    0    0 -0.24992952693E+01 -0.21646387197E+01  0.12201546140E+01  0.35243318761E+01  0.51100000000E-03 0. -1.
        -11    1    3    3    0    0  0.27279872863E+00 -0.20162150481E+01  0.46829887058E+01  0.51058716931E+01  0.51100000000E-03 0.  1.
        -12    1    3    3    0    0 -0.98106056380E+01 -0.23881104186E+02  0.27214039130E+02  0.37512118653E+02  0.00000000000E+00 0.  1.
</event>
<event>
 7    1  0.2478637E-008  0.4614232E+02  0.7816164E-02  0.1320468E+00
        -11   -1    0    0    0    0  0.00000000000E+00  0.00000000000E+00  0.45593999997E+02  0.45594000000E+02  0.51100000000E-03 0.  1.
         11   -1    0    0    0    0 -0.00000000000E+00 -0.00000000000E+00 -0.45593999997E+02  0.45594000000E+02  0.51100000000E-03 0. -1.
    9900012    2    1    2    0    0 -0.15194554852E+02 -0.39775394953E+02 -0.14702272406E+02  0.46142319244E+02  0.10000013523E+02 0.  0.
         12    1    1    2    0    0  0.15194554852E+02  0.39775394953E+02  0.14702272406E+02  0.45045680756E+02  0.00000000000E+00 0. -1.
         11    1    3    3    0    0 -0.12395326175E+01 -0.68151997520E+01 -0.56660431348E+01  0.89491582753E+01  0.51100000000E-03 0. -1.
        -11    1    3    3    0    0 -0.50499675910E+01 -0.82115051601E+01 -0.10051833141E+01  0.96923363242E+01  0.51100000000E-03 0.  1.
         12    1    3    3    0    0 -0.89050546440E+01 -0.24748690041E+02 -0.80310459574E+01  0.27500824645E+02  0.00000000000E+00 0. -1.
</event>
<event>
 7    1  0.2478637E-008  0.4614232E+02  0.7816164E-02  0.1320468E+00
        -11   -1    0    0    0    0  0.00000000000E+00  0.00000000000E+00  0.45593999997E+02  0.45594000000E+02  0.51100000000E-03 0.  1.
         11   -1    0    0    0    0 -0.00000000000E+00 -0.00000000000E+00 -0.45593999997E+02  0.45594000000E+02  0.51100000000E-03 0. -1.
    9900012    2    1    2    0    0  0.13908015956E+02  0.54601384342E+01  0.42495498757E+02  0.46142318363E+02  0.10000005487E+02 0.  0.
         12    1    1    2    0    0 -0.13908015956E+02 -0.54601384342E+01 -0.42495498757E+02  0.45045681637E+02  0.00000000000E+00 0. -1.
         11    1    3    3    0    0  0.36108088146E+01  0.49956465071E+01  0.98979900589E+01  0.11660387291E+02  0.51100000000E-03 0. -1.
        -11    1    3    3    0    0  0.37539197826E+01  0.16808498678E+01  0.79407094665E+01  0.89427086000E+01  0.51100000000E-03 0.  1.
        -12    1    3    3    0    0  0.65432873591E+01 -0.12163579407E+01  0.24656799231E+02  0.25539222471E+02  0.00000000000E+00 0.  1.
</event>
<event>
 7    1  0.2478637E-008  0.4614232E+02  0.7816164E-02  0.1320468E+00
        -11   -1    0    0    0    0  0.00000000000E+00  0.00000000000E+00  0.45593999997E+02  0.45594000000E+02  0.51100000000E-03 0. -1.
         11   -1    0    0    0    0 -0.00000000000E+00 -0.00000000000E+00 -0.45593999997E+02  0.45594000000E+02  0.51100000000E-03 0.  1.
    9900012    2    1    2    0    0 -0.19239692282E+01 -0.38163671299E+02  0.23852590497E+02  0.46142317210E+02  0.99999949700E+01 0.  0.
         12    1    1    2    0    0  0.19239692282E+01  0.38163671299E+02 -0.23852590497E+02  0.45045682790E+02  0.00000000000E+00 0. -1.
         11    1    3    3    0    0 -0.31645745073E+01 -0.75725428798E+01  0.36560519964E+01  0.89846899746E+01  0.51100000000E-03 0. -1.
        -11    1    3    3    0    0 -0.61557787088E+00 -0.14832596591E+02  0.65382171021E+01  0.16221379130E+02  0.51100000000E-03 0.  1.
        -12    1    3    3    0    0  0.18561831500E+01 -0.15758531829E+02  0.13658321399E+02  0.20936248105E+02  0.00000000000E+00 0.  1.
</event>
<event>
 7    1  0.2478637E-008  0.4614231E+02  0.7816164E-02  0.1320468E+00
        -11   -1    0    0    0    0  0.00000000000E+00  0.00000000000E+00  0.45593999997E+02  0.45594000000E+02  0.51100000000E-03 0. -1.
         11   -1    0    0    0    0 -0.00000000000E+00 -0.00000000000E+00 -0.45593999997E+02  0.45594000000E+02  0.51100000000E-03 0.  1.
    9900012    2    1    2    0    0  0.41182702438E+02  0.11731029050E+02 -0.13981494610E+02  0.46142309705E+02  0.99999265332E+01 0.  0.
         12    1    1    2    0    0 -0.41182702438E+02 -0.11731029050E+02  0.13981494610E+02  0.45045690295E+02  0.00000000000E+00 0. -1.
         11    1    3    3    0    0  0.29220538108E+01  0.16433545631E+01 -0.35756222276E+01  0.49014372657E+01  0.51100000000E-03 0. -1.
        -11    1    3    3    0    0  0.19389515545E+02  0.54549960939E+01 -0.26378308974E+01  0.20314242481E+02  0.51100000000E-03 0.  1.
        -12    1    3    3    0    0  0.18871133082E+02  0.46326783925E+01 -0.77680414850E+01  0.20926629958E+02  0.00000000000E+00 0.  1.
</event>
<event>
 7    1  0.2478637E-008  0.4614232E+02  0.7816164E-02  0.1320468E+00
        -11   -1    0    0    0    0  0.00000000000E+00  0.00000000000E+00  0.45593999997E+02  0.45594000000E+02  0.51100000000E-03 0. -1.
         11   -1    0    0    0    0 -0.00000000000E+00 -0.00000000000E+00 -0.45593999997E+02  0.45594000000E+02  0.51100000000E-03 0.  1.
    9900012    2    1    2    0    0 -0.25395033225E+02 -0.34022146582E+02  0.15056535249E+02  0.46142318473E+02  0.10000006495E+02 0.  0.
         12    1    1    2    0    0  0.25395033225E+02  0.34022146582E+02 -0.15056535249E+02  0.45045681527E+02  0.00000000000E+00 0. -1.
         11    1    3    3    0    0 -0.12723704259E+01  0.36860913028E+00  0.38308670907E+00  0.13789687739E+01  0.51100000000E-03 0. -1.
        -11    1    3    3    0    0 -0.12204154181E+02 -0.20059721869E+02  0.61810719622E+01  0.24280433926E+02  0.51100000000E-03 0.  1.
         12    1    3    3    0    0 -0.11918508617E+02 -0.14331033842E+02  0.84923765778E+01  0.20482915774E+02  0.00000000000E+00 0. -1.
</event>
<event>
 7    1  0.2478637E-008  0.4614232E+02  0.7816164E-02  0.1320468E+00
        -11   -1    0    0    0    0  0.00000000000E+00  0.00000000000E+00  0.45593999997E+02  0.45594000000E+02  0.51100000000E-03 0.  1.
         11   -1    0    0    0    0 -0.00000000000E+00 -0.00000000000E+00 -0.45593999997E+02  0.45594000000E+02  0.51100000000E-03 0. -1.
    9900012    2    1    2    0    0  0.24757774327E+02  0.14182366024E+02  0.34857230192E+02  0.46142318827E+02  0.10000009716E+02 0.  0.
         12    1    1    2    0    0 -0.24757774327E+02 -0.14182366024E+02 -0.34857230192E+02  0.45045681173E+02  0.00000000000E+00 0. -1.
         11    1    3    3    0    0  0.22174809651E+01  0.82227579515E+00  0.33720495245E+00  0.23889467878E+01  0.51100000000E-03 0. -1.
        -11    1    3    3    0    0  0.56542342384E+01  0.35244165476E+01  0.49113186152E+01  0.82772536282E+01  0.51100000000E-03 0.  1.
        -12    1    3    3    0    0  0.16886059124E+02  0.98356736814E+01  0.29608706625E+02  0.35476118411E+02  0.00000000000E+00 0.  1.
</event>
<event>
 7    1  0.2478637E-008  0.4614233E+02  0.7816164E-02  0.1320468E+00
        -11   -1    0    0    0    0  0.00000000000E+00  0.00000000000E+00  0.45593999997E+02  0.45594000000E+02  0.51100000000E-03 0.  1.
         11   -1    0    0    0    0 -0.00000000000E+00 -0.00000000000E+00 -0.45593999997E+02  0.45594000000E+02  0.51100000000E-03 0. -1.
    9900012    2    1    2    0    0  0.30978553894E+02 -0.24129131416E+02  0.22073211613E+02  0.46142329229E+02  0.10000104575E+02 0.  0.
         12    1    1    2    0    0 -0.30978553894E+02  0.24129131416E+02 -0.22073211613E+02  0.45045670771E+02  0.00000000000E+00 0. -1.
         11    1    3    3    0    0  0.33027990286E+01 -0.30346879374E+01  0.37096983771E+01  0.58206249330E+01  0.51100000000E-03 0. -1.
        -11    1    3    3    0    0  0.25230099845E+02 -0.21807424671E+02  0.17151710389E+02  0.37500705040E+02  0.51100000000E-03 0.  1.
        -12    1    3    3    0    0  0.24456550209E+01  0.71298119302E+00  0.12118028474E+01  0.28209992562E+01  0.00000000000E+00 0.  1.
</event>
<event>
 7    1  0.2478637E-008  0.4614232E+02  0.7816164E-02  0.1320468E+00
        -11   -1    0    0    0    0  0.00000000000E+00  0.00000000000E+00  0.45593999997E+02  0.45594000000E+02  0.51100000000E-03 0.  1.
         11   -1    0    0    0    0 -0.00000000000E+00 -0.00000000000E+00 -0.45593999997E+02  0.45594000000E+02  0.51100000000E-03 0. -1.
    9900012    2    1    2    0    0 -0.18773512397E+02 -0.29240797172E+02  0.28664344853E+02  0.46142315936E+02  0.99999833532E+01 0.  0.
         12    1    1    2    0    0  0.18773512397E+02  0.29240797172E+02 -0.28664344853E+02  0.45045684064E+02  0.00000000000E+00 0. -1.
         11    1    3    3    0    0 -0.35358009208E+01 -0.75661433813E+01  0.48807716148E+01  0.96731766052E+01  0.51100000000E-03 0. -1.
        -11    1    3    3    0    0 -0.13409603343E+01  0.71240830588E-01  0.31609590361E+01  0.34343721644E+01  0.51100000000E-03 0.  1.
        -12    1    3    3    0    0 -0.13896751142E+02 -0.21745894621E+02  0.20622614202E+02  0.33034767166E+02  0.00000000000E+00 0.  1.
</event>
<event>
 7    1  0.2478637E-008  0.4614232E+02  0.7816164E-02  0.1320468E+00
        -11   -1    0    0    0    0  0.00000000000E+00  0.00000000000E+00  0.45593999997E+02  0.45594000000E+02  0.51100000000E-03 0.  1.
         11   -1    0    0    0    0 -0.00000000000E+00 -0.00000000000E+00 -0.45593999997E+02  0.45594000000E+02  0.51100000000E-03 0. -1.
    9900012    2    1    2    0    0 -0.34739226465E+01 -0.79421209026E+00  0.44904504787E+02  0.46142318059E+02  0.10000002716E+02 0.  0.
         12    1    1    2    0    0  0.34739226465E+01  0.79421209026E+00 -0.44904504787E+02  0.45045681941E+02  0.00000000000E+00 0. -1.
         11    1    3    3    0    0  0.17615709400E+00 -0.68345105800E+00  0.31821844510E+00  0.77420921615E+00  0.51100000000E-03 0. -1.
        -11    1    3    3    0    0  0.18109031134E+00 -0.33453775224E+01  0.16276705537E+02  0.16617926702E+02  0.51100000000E-03 0.  1.
        -12    1    3    3    0    0 -0.38311700518E+01  0.32346164902E+01  0.28309580805E+02  0.28750182141E+02  0.00000000000E+00 0.  1.
</event>
<event>
 7    1  0.2478637E-008  0.4614232E+02  0.7816164E-02  0.1320468E+00
        -11   -1    0    0    0    0  0.00000000000E+00  0.00000000000E+00  0.45593999997E+02  0.45594000000E+02  0.51100000000E-03 0.  1.
         11   -1    0    0    0    0 -0.00000000000E+00 -0.00000000000E+00 -0.45593999997E+02  0.45594000000E+02  0.51100000000E-03 0. -1.
    9900012    2    1    2    0    0 -0.43504220998E+02 -0.85908281296E+01  0.79179507842E+01  0.46142317441E+02  0.99999970781E+01 0.  0.
         12    1    1    2    0    0  0.43504220998E+02  0.85908281296E+01 -0.79179507842E+01  0.45045682559E+02  0.00000000000E+00 0. -1.
         11    1    3    3    0    0 -0.74670862913E+01  0.16854628677E+01  0.16145182949E+01  0.78233517335E+01  0.51100000000E-03 0. -1.
        -11    1    3    3    0    0 -0.20855444108E+02 -0.42894214810E+01  0.54435132165E+01  0.21976817831E+02  0.51100000000E-03 0.  1.
         12    1    3    3    0    0 -0.15181690599E+02 -0.59868695164E+01  0.85991927276E+00  0.16342147877E+02  0.00000000000E+00 0. -1.
</event>
<event>
 7    1  0.2478637E-008  0.4614231E+02  0.7816164E-02  0.1320468E+00
        -11   -1    0    0    0    0  0.00000000000E+00  0.00000000000E+00  0.45593999997E+02  0.45594000000E+02  0.51100000000E-03 0.  1.
         11   -1    0    0    0    0 -0.00000000000E+00 -0.00000000000E+00 -0.45593999997E+02  0.45594000000E+02  0.51100000000E-03 0. -1.
    9900012    2    1    2    0    0  0.27154613613E+02  0.24646353548E+02  0.26159090462E+02  0.46142314330E+02  0.99999687128E+01 0.  0.
         12    1    1    2    0    0 -0.27154613613E+02 -0.24646353548E+02 -0.26159090462E+02  0.45045685670E+02  0.00000000000E+00 0. -1.
         11    1    3    3    0    0  0.19358507647E+02  0.18457474577E+02  0.22538620279E+02  0.34977415434E+02  0.51100000000E-03 0.  1.
        -11    1    3    3    0    0  0.17524597160E+01  0.34974474612E+01  0.91687362790E+00  0.40179486446E+01  0.51100000000E-03 0. -1.
        -12    1    3    3    0    0  0.60436462503E+01  0.26914315092E+01  0.27035965553E+01  0.71469502517E+01  0.00000000000E+00 0.  1.
</event>
<event>
 7    1  0.2478637E-008  0.4614232E+02  0.7816164E-02  0.1320468E+00
        -11   -1    0    0    0    0  0.00000000000E+00  0.00000000000E+00  0.45593999997E+02  0.45594000000E+02  0.51100000000E-03 0. -1.
         11   -1    0    0    0    0 -0.00000000000E+00 -0.00000000000E+00 -0.45593999997E+02  0.45594000000E+02  0.51100000000E-03 0.  1.
    9900012    2    1    2    0    0  0.30788878414E+02 -0.30868683917E+02 -0.11326185917E+02  0.46142321315E+02  0.10000032406E+02 0.  0.
         12    1    1    2    0    0 -0.30788878414E+02  0.30868683917E+02  0.11326185917E+02  0.45045678685E+02  0.00000000000E+00 0. -1.
         11    1    3    3    0    0  0.11183468924E+02 -0.16451154721E+02 -0.33259521434E+01  0.20168600019E+02  0.51100000000E-03 0. -1.
        -11    1    3    3    0    0  0.10265742386E+02 -0.70496472908E+01 -0.63022986868E+01  0.13957147368E+02  0.51100000000E-03 0.  1.
         12    1    3    3    0    0  0.93396671040E+01 -0.73678819057E+01 -0.16979350867E+01  0.12016573927E+02  0.00000000000E+00 0. -1.
</event>
<event>
 7    1  0.2478637E-008  0.4614232E+02  0.7816164E-02  0.1320468E+00
        -11   -1    0    0    0    0  0.00000000000E+00  0.00000000000E+00  0.45593999997E+02  0.45594000000E+02  0.51100000000E-03 0. -1.
         11   -1    0    0    0    0 -0.00000000000E+00 -0.00000000000E+00 -0.45593999997E+02  0.45594000000E+02  0.51100000000E-03 0.  1.
    9900012    2    1    2    0    0  0.22891141609E+02  0.10550111551E+02 -0.37333688683E+02  0.46142317314E+02  0.99999959273E+01 0.  0.
         12    1    1    2    0    0 -0.22891141609E+02 -0.10550111551E+02  0.37333688683E+02  0.45045682686E+02  0.00000000000E+00 0. -1.
         11    1    3    3    0    0  0.11528105617E+01 -0.87490941161E+00 -0.81027443380E+00  0.16586089319E+01  0.51100000000E-03 0. -1.
        -11    1    3    3    0    0  0.20266374308E+02  0.10774751768E+02 -0.36167155122E+02  0.42835549642E+02  0.51100000000E-03 0.  1.
        -12    1    3    3    0    0  0.14719567393E+01  0.65026919434E+00 -0.35625912720E+00  0.16481587403E+01  0.00000000000E+00 0.  1.
</event>
<event>
 7    1  0.2478637E-008  0.4614232E+02  0.7816164E-02  0.1320468E+00
        -11   -1    0    0    0    0  0.00000000000E+00  0.00000000000E+00  0.45593999997E+02  0.45594000000E+02  0.51100000000E-03 0. -1.
         11   -1    0    0    0    0 -0.00000000000E+00 -0.00000000000E+00 -0.45593999997E+02  0.45594000000E+02  0.51100000000E-03 0.  1.
    9900012    2    1    2    0    0  0.17726143600E+02  0.21204685314E+02 -0.35570476791E+02  0.46142315797E+02  0.99999820882E+01 0.  0.
         12    1    1    2    0    0 -0.17726143600E+02 -0.21204685314E+02  0.35570476791E+02  0.45045684203E+02  0.00000000000E+00 0. -1.
         11    1    3    3    0    0  0.31575378341E+01  0.89902388557E+01 -0.15241178930E+02  0.17974648127E+02  0.51100000000E-03 0. -1.
        -11    1    3    3    0    0  0.60157193799E+01  0.70685153662E+01 -0.11976640150E+02  0.15152316611E+02  0.51100000000E-03 0.  1.
         12    1    3    3    0    0  0.85528863864E+01  0.51459310919E+01 -0.83526577103E+01  0.13015351058E+02  0.00000000000E+00 0. -1.
</event>
<event>
 7    1  0.2478637E-008  0.4614232E+02  0.7816164E-02  0.1320468E+00
        -11   -1    0    0    0    0  0.00000000000E+00  0.00000000000E+00  0.45593999997E+02  0.45594000000E+02  0.51100000000E-03 0.  1.
         11   -1    0    0    0    0 -0.00000000000E+00 -0.00000000000E+00 -0.45593999997E+02  0.45594000000E+02  0.51100000000E-03 0. -1.
    9900012    2    1    2    0    0 -0.40291238818E+02  0.19629785566E+01  0.20046851262E+02  0.46142318122E+02  0.10000003295E+02 0.  0.
         12    1    1    2    0    0  0.40291238818E+02 -0.19629785566E+01 -0.20046851262E+02  0.45045681878E+02  0.00000000000E+00 0. -1.
         11    1    3    3    0    0 -0.24382907356E+02 -0.27051582624E+01  0.14220121294E+02  0.28355879500E+02  0.51100000000E-03 0. -1.
        -11    1    3    3    0    0 -0.89029624890E+01  0.13457796608E+01  0.37965009741E+01  0.97717595081E+01  0.51100000000E-03 0.  1.
        -12    1    3    3    0    0 -0.70053689729E+01  0.33223571583E+01  0.20302289936E+01  0.80146791140E+01  0.00000000000E+00 0.  1.
</event>
<event>
 7    1  0.2478637E-008  0.4614232E+02  0.7816164E-02  0.1320468E+00
        -11   -1    0    0    0    0  0.00000000000E+00  0.00000000000E+00  0.45593999997E+02  0.45594000000E+02  0.51100000000E-03 0.  1.
         11   -1    0    0    0    0 -0.00000000000E+00 -0.00000000000E+00 -0.45593999997E+02  0.45594000000E+02  0.51100000000E-03 0. -1.
    9900012    2    1    2    0    0  0.27818234117E+02 -0.18322601048E+02  0.30323944407E+02  0.46142318043E+02  0.10000002574E+02 0.  0.
         12    1    1    2    0    0 -0.27818234117E+02  0.18322601048E+02 -0.30323944407E+02  0.45045681957E+02  0.00000000000E+00 0. -1.
         11    1    3    3    0    0  0.42600621212E+01 -0.39909907439E+01  0.98055885786E+01  0.11411647735E+02  0.51100000000E-03 0. -1.
        -11    1    3    3    0    0  0.63278881121E+01 -0.62636446901E+01  0.78795645227E+01  0.11889615221E+02  0.51100000000E-03 0.  1.
        -12    1    3    3    0    0  0.17230283884E+02 -0.80679656138E+01  0.12638791305E+02  0.22841055088E+02  0.00000000000E+00 0.  1.
</event>
<event>
 7    1  0.2478637E-008  0.4614232E+02  0.7816164E-02  0.1320468E+00
        -11   -1    0    0    0    0  0.00000000000E+00  0.00000000000E+00  0.45593999997E+02  0.45594000000E+02  0.51100000000E-03 0.  1.
         11   -1    0    0    0    0 -0.00000000000E+00 -0.00000000000E+00 -0.45593999997E+02  0.45594000000E+02  0.51100000000E-03 0. -1.
    9900012    2    1    2    0    0  0.40896616639E+02 -0.18692444522E+02  0.26781974011E+01  0.46142317898E+02  0.10000001244E+02 0.  0.
         12    1    1    2    0    0 -0.40896616639E+02  0.18692444522E+02 -0.26781974011E+01  0.45045682102E+02  0.00000000000E+00 0. -1.
         11    1    3    3    0    0  0.30227352305E+02 -0.12348240950E+02 -0.22467535423E+01  0.32729494095E+02  0.51100000000E-03 0. -1.
        -11    1    3    3    0    0  0.49075620391E+01 -0.28960200288E+01  0.15926162466E+01  0.59167156384E+01  0.51100000000E-03 0.  1.
         12    1    3    3    0    0  0.57617022951E+01 -0.34481835430E+01  0.33323346968E+01  0.74961081646E+01  0.00000000000E+00 0. -1.
</event>
<event>
 7    1  0.2478637E-008  0.4614232E+02  0.7816164E-02  0.1320468E+00
        -11   -1    0    0    0    0  0.00000000000E+00  0.00000000000E+00  0.45593999997E+02  0.45594000000E+02  0.51100000000E-03 0.  1.
         11   -1    0    0    0    0 -0.00000000000E+00 -0.00000000000E+00 -0.45593999997E+02  0.45594000000E+02  0.51100000000E-03 0. -1.
    9900012    2    1    2    0    0  0.22527447124E+02  0.25654447278E+02  0.29384972222E+02  0.46142321722E+02  0.10000036120E+02 0.  0.
         12    1    1    2    0    0 -0.22527447124E+02 -0.25654447278E+02 -0.29384972222E+02  0.45045678278E+02  0.00000000000E+00 0. -1.
         11    1    3    3    0    0  0.10143726688E+02  0.14153656130E+02  0.14472001789E+02  0.22641996577E+02  0.51100000000E-03 0. -1.
        -11    1    3    3    0    0  0.78819713324E+01  0.10664044065E+02  0.90206383138E+01  0.16038055485E+02  0.51100000000E-03 0.  1.
         12    1    3    3    0    0  0.45017491033E+01  0.83674708280E+00  0.58923321188E+01  0.74622696593E+01  0.00000000000E+00 0. -1.
</event>
<event>
 7    1  0.2478637E-008  0.4614232E+02  0.7816164E-02  0.1320468E+00
        -11   -1    0    0    0    0  0.00000000000E+00  0.00000000000E+00  0.45593999997E+02  0.45594000000E+02  0.51100000000E-03 0.  1.
         11   -1    0    0    0    0 -0.00000000000E+00 -0.00000000000E+00 -0.45593999997E+02  0.45594000000E+02  0.51100000000E-03 0. -1.
    9900012    2    1    2    0    0  0.43537845951E+01  0.49386192239E+00  0.44832060502E+02  0.46142323306E+02  0.10000050566E+02 0.  0.
         12    1    1    2    0    0 -0.43537845951E+01 -0.49386192239E+00 -0.44832060502E+02  0.45045676694E+02  0.00000000000E+00 0. -1.
         11    1    3    3    0    0  0.52791577980E+01 -0.20901230306E+01  0.27301184611E+02  0.27885351042E+02  0.51100000000E-03 0.  1.
        -11    1    3    3    0    0  0.17138987075E+01  0.11677480120E+01  0.62429323389E+01  0.65783955983E+01  0.51100000000E-03 0. -1.
         12    1    3    3    0    0 -0.26392719104E+01  0.14162369409E+01  0.11287943553E+02  0.11678576666E+02  0.00000000000E+00 0. -1.
</event>
<event>
 7    1  0.2478637E-008  0.4614232E+02  0.7816164E-02  0.1320468E+00
        -11   -1    0    0    0    0  0.00000000000E+00  0.00000000000E+00  0.45593999997E+02  0.45594000000E+02  0.51100000000E-03 0. -1.
         11   -1    0    0    0    0 -0.00000000000E+00 -0.00000000000E+00 -0.45593999997E+02  0.45594000000E+02  0.51100000000E-03 0.  1.
    9900012    2    1    2    0    0  0.27122091047E+02  0.35908713323E+02  0.20174343987E+01  0.46142317001E+02  0.99999930698E+01 0.  0.
         12    1    1    2    0    0 -0.27122091047E+02 -0.35908713323E+02 -0.20174343987E+01  0.45045682999E+02  0.00000000000E+00 0. -1.
         11    1    3    3    0    0  0.24659629169E+01  0.72373300342E+01  0.85719442848E-03  0.76459087182E+01  0.51100000000E-03 0. -1.
        -11    1    3    3    0    0  0.20981230995E+02  0.22377744441E+02 -0.79311210686E+00  0.30685575233E+02  0.51100000000E-03 0.  1.
        -12    1    3    3    0    0  0.36748971350E+01  0.62936388482E+01  0.28096893111E+01  0.78108330496E+01  0.00000000000E+00 0.  1.
</event>
<event>
 7    1  0.2478637E-008  0.4614232E+02  0.7816164E-02  0.1320468E+00
        -11   -1    0    0    0    0  0.00000000000E+00  0.00000000000E+00  0.45593999997E+02  0.45594000000E+02  0.51100000000E-03 0.  1.
         11   -1    0    0    0    0 -0.00000000000E+00 -0.00000000000E+00 -0.45593999997E+02  0.45594000000E+02  0.51100000000E-03 0. -1.
    9900012    2    1    2    0    0 -0.10167330038E+01  0.12741261964E+02  0.43194212052E+02  0.46142318107E+02  0.10000003151E+02 0.  0.
         12    1    1    2    0    0  0.10167330038E+01 -0.12741261964E+02 -0.43194212052E+02  0.45045681893E+02  0.00000000000E+00 0. -1.
         11    1    3    3    0    0  0.24641380628E+01  0.40801539242E+00  0.11687441075E+02  0.11951348547E+02  0.51100000000E-03 0. -1.
        -11    1    3    3    0    0  0.20547530483E+00  0.17500488302E+01  0.22272020431E+01  0.28399507410E+01  0.51100000000E-03 0.  1.
         12    1    3    3    0    0 -0.36863463715E+01  0.10583197742E+02  0.29279568934E+02  0.31351018818E+02  0.00000000000E+00 0. -1.
</event>
<event>
 7    1  0.2478637E-008  0.4614232E+02  0.7816164E-02  0.1320468E+00
        -11   -1    0    0    0    0  0.00000000000E+00  0.00000000000E+00  0.45593999997E+02  0.45594000000E+02  0.51100000000E-03 0.  1.
         11   -1    0    0    0    0 -0.00000000000E+00 -0.00000000000E+00 -0.45593999997E+02  0.45594000000E+02  0.51100000000E-03 0. -1.
    9900012    2    1    2    0    0  0.31717194359E+02 -0.10756923376E+02  0.30123440539E+02  0.46142317761E+02  0.99999999949E+01 0.  0.
         12    1    1    2    0    0 -0.31717194359E+02  0.10756923376E+02 -0.30123440539E+02  0.45045682239E+02  0.00000000000E+00 0. -1.
         11    1    3    3    0    0  0.14958886092E+02 -0.90353138914E+01  0.16824662089E+02  0.24258491810E+02  0.51100000000E-03 0.  1.
        -11    1    3    3    0    0  0.94921312689E+01  0.34068767576E+00  0.94820349129E+01  0.13421088274E+02  0.51100000000E-03 0. -1.
         12    1    3    3    0    0  0.72661769983E+01 -0.20622971604E+01  0.38167435366E+01  0.84627376760E+01  0.00000000000E+00 0. -1.
</event>
<event>
 7    1  0.2478637E-008  0.4614232E+02  0.7816164E-02  0.1320468E+00
        -11   -1    0    0    0    0  0.00000000000E+00  0.00000000000E+00  0.45593999997E+02  0.45594000000E+02  0.51100000000E-03 0. -1.
         11   -1    0    0    0    0 -0.00000000000E+00 -0.00000000000E+00 -0.45593999997E+02  0.45594000000E+02  0.51100000000E-03 0.  1.
    9900012    2    1    2    0    0 -0.11495253447E+02 -0.43457856091E+02  0.28961341534E+01  0.46142315402E+02  0.99999784906E+01 0.  0.
         12    1    1    2    0    0  0.11495253447E+02  0.43457856091E+02 -0.28961341534E+01  0.45045684598E+02  0.00000000000E+00 0. -1.
         11    1    3    3    0    0 -0.12631638349E+01 -0.11587616657E+02  0.37852213578E+01  0.12255461789E+02  0.51100000000E-03 0. -1.
        -11    1    3    3    0    0 -0.75469968894E+00 -0.97652459360E+01 -0.90217195587E+00  0.98358280948E+01  0.51100000000E-03 0.  1.
        -12    1    3    3    0    0 -0.94773899229E+01 -0.22104993498E+02  0.13084751482E-01  0.24051025519E+02  0.00000000000E+00 0.  1.
</event>
<event>
 7    1  0.2478637E-008  0.4614232E+02  0.7816164E-02  0.1320468E+00
        -11   -1    0    0    0    0  0.00000000000E+00  0.00000000000E+00  0.45593999997E+02  0.45594000000E+02  0.51100000000E-03 0. -1.
         11   -1    0    0    0    0 -0.00000000000E+00 -0.00000000000E+00 -0.45593999997E+02  0.45594000000E+02  0.51100000000E-03 0.  1.
    9900012    2    1    2    0    0 -0.39866842362E+02  0.13400780952E+02 -0.16129701519E+02  0.46142319617E+02  0.10000016923E+02 0.  0.
         12    1    1    2    0    0  0.39866842362E+02 -0.13400780952E+02  0.16129701519E+02  0.45045680383E+02  0.00000000000E+00 0. -1.
         11    1    3    3    0    0 -0.17425777114E+01  0.49919048549E+00 -0.20649511561E+01  0.27476884392E+01  0.51100000000E-03 0. -1.
        -11    1    3    3    0    0 -0.18867554496E+02  0.10388067717E+02 -0.59303985615E+01  0.22339789410E+02  0.51100000000E-03 0.  1.
        -12    1    3    3    0    0 -0.19256710155E+02  0.25135227494E+01 -0.81343518017E+01  0.21054841768E+02  0.00000000000E+00 0.  1.
</event>
<event>
 7    1  0.2478637E-008  0.4614232E+02  0.7816164E-02  0.1320468E+00
        -11   -1    0    0    0    0  0.00000000000E+00  0.00000000000E+00  0.45593999997E+02  0.45594000000E+02  0.51100000000E-03 0.  1.
         11   -1    0    0    0    0 -0.00000000000E+00 -0.00000000000E+00 -0.45593999997E+02  0.45594000000E+02  0.51100000000E-03 0. -1.
    9900012    2    1    2    0    0  0.14548260785E+01 -0.25806494193E+02  0.36892029493E+02  0.46142317614E+02  0.99999986615E+01 0.  0.
         12    1    1    2    0    0 -0.14548260785E+01  0.25806494193E+02 -0.36892029493E+02  0.45045682386E+02  0.00000000000E+00 0. -1.
         11    1    3    3    0    0  0.48950715754E+01 -0.12767436943E+02  0.19880342530E+02  0.24128762736E+02  0.51100000000E-03 0. -1.
        -11    1    3    3    0    0 -0.16685013570E+01 -0.11463163314E+02  0.14506815338E+02  0.18564366444E+02  0.51100000000E-03 0.  1.
         12    1    3    3    0    0 -0.17717441399E+01 -0.15758939357E+01  0.25048716252E+01  0.34491884339E+01  0.00000000000E+00 0. -1.
</event>
<event>
 7    1  0.2478637E-008  0.4614232E+02  0.7816164E-02  0.1320468E+00
        -11   -1    0    0    0    0  0.00000000000E+00  0.00000000000E+00  0.45593999997E+02  0.45594000000E+02  0.51100000000E-03 0.  1.
         11   -1    0    0    0    0 -0.00000000000E+00 -0.00000000000E+00 -0.45593999997E+02  0.45594000000E+02  0.51100000000E-03 0. -1.
    9900012    2    1    2    0    0 -0.10829260700E+02 -0.36335386251E+01  0.43573363632E+02  0.46142317538E+02  0.99999979645E+01 0.  0.
         12    1    1    2    0    0  0.10829260700E+02  0.36335386251E+01 -0.43573363632E+02  0.45045682462E+02  0.00000000000E+00 0. -1.
         11    1    3    3    0    0 -0.40444744066E-01 -0.63534747205E+00  0.28672959812E+00  0.69822368272E+00  0.51100000000E-03 0. -1.
        -11    1    3    3    0    0  0.36723628832E+00  0.12607310224E+00 -0.20276010805E+00  0.43802835651E+00  0.51100000000E-03 0.  1.
        -12    1    3    3    0    0 -0.11156052245E+02 -0.31242642553E+01  0.43489394142E+02  0.45006065499E+02  0.00000000000E+00 0.  1.
</event>
<event>
 7    1  0.2478637E-008  0.4614232E+02  0.7816164E-02  0.1320468E+00
        -11   -1    0    0    0    0  0.00000000000E+00  0.00000000000E+00  0.45593999997E+02  0.45594000000E+02  0.51100000000E-03 0.  1.
         11   -1    0    0    0    0 -0.00000000000E+00 -0.00000000000E+00 -0.45593999997E+02  0.45594000000E+02  0.51100000000E-03 0. -1.
    9900012    2    1    2    0    0  0.15825646094E+02 -0.23421709765E+02  0.35072583103E+02  0.46142315987E+02  0.99999838247E+01 0.  0.
         12    1    1    2    0    0 -0.15825646094E+02  0.23421709765E+02 -0.35072583103E+02  0.45045684013E+02  0.00000000000E+00 0. -1.
         11    1    3    3    0    0  0.92546266626E+01 -0.68996903856E+01  0.14388397649E+02  0.18446675290E+02  0.51100000000E-03 0. -1.
        -11    1    3    3    0    0  0.67505335334E+01 -0.16691576218E+02  0.19732126746E+02  0.26712080522E+02  0.51100000000E-03 0.  1.
         12    1    3    3    0    0 -0.17951410201E+00  0.16955683853E+00  0.95205870828E+00  0.98356017525E+00  0.00000000000E+00 0. -1.
</event>
<event>
 7    1  0.2478637E-008  0.4614232E+02  0.7816164E-02  0.1320468E+00
        -11   -1    0    0    0    0  0.00000000000E+00  0.00000000000E+00  0.45593999997E+02  0.45594000000E+02  0.51100000000E-03 0. -1.
         11   -1    0    0    0    0 -0.00000000000E+00 -0.00000000000E+00 -0.45593999997E+02  0.45594000000E+02  0.51100000000E-03 0.  1.
    9900012    2    1    2    0    0 -0.39598645792E+02 -0.21357773449E+02 -0.22150287997E+01  0.46142316657E+02  0.99999899343E+01 0.  0.
         12    1    1    2    0    0  0.39598645792E+02  0.21357773449E+02  0.22150287997E+01  0.45045683343E+02  0.00000000000E+00 0. -1.
         11    1    3    3    0    0 -0.31976124181E+01 -0.82271121842E+00  0.19143104645E+01  0.38165643897E+01  0.51100000000E-03 0. -1.
        -11    1    3    3    0    0 -0.87820699694E+01 -0.30259624405E+01  0.48014917949E+00  0.93011690197E+01  0.51100000000E-03 0.  1.
         12    1    3    3    0    0 -0.27618963404E+02 -0.17509099790E+02 -0.46094884437E+01  0.33024583248E+02  0.00000000000E+00 0. -1.
</event>
<event>
 7    1  0.2478637E-008  0.4614232E+02  0.7816164E-02  0.1320468E+00
        -11   -1    0    0    0    0  0.00000000000E+00  0.00000000000E+00  0.45593999997E+02  0.45594000000E+02  0.51100000000E-03 0.  1.
         11   -1    0    0    0    0 -0.00000000000E+00 -0.00000000000E+00 -0.45593999997E+02  0.45594000000E+02  0.51100000000E-03 0. -1.
    9900012    2    1    2    0    0 -0.11288367530E+02  0.74127231109E+00  0.43602027410E+02  0.46142317406E+02  0.99999967576E+01 0.  0.
         12    1    1    2    0    0  0.11288367530E+02 -0.74127231109E+00 -0.43602027410E+02  0.45045682594E+02  0.00000000000E+00 0. -1.
         11    1    3    3    0    0 -0.77279893074E+01  0.27462734243E+00  0.12396830130E+02  0.14610908133E+02  0.51100000000E-03 0. -1.
        -11    1    3    3    0    0 -0.22816531407E+01  0.62386708156E-01  0.89715118641E+01  0.92573137867E+01  0.51100000000E-03 0.  1.
         12    1    3    3    0    0 -0.12787250816E+01  0.40425826050E+00  0.22233685416E+02  0.22274095486E+02  0.00000000000E+00 0. -1.
</event>
<event>
 7    1  0.2478637E-008  0.4614232E+02  0.7816164E-02  0.1320468E+00
        -11   -1    0    0    0    0  0.00000000000E+00  0.00000000000E+00  0.45593999997E+02  0.45594000000E+02  0.51100000000E-03 0.  1.
         11   -1    0    0    0    0 -0.00000000000E+00 -0.00000000000E+00 -0.45593999997E+02  0.45594000000E+02  0.51100000000E-03 0. -1.
    9900012    2    1    2    0    0 -0.37076317763E+02 -0.24955851055E+02 -0.56272258045E+01  0.46142317510E+02  0.99999977102E+01 0.  0.
         12    1    1    2    0    0  0.37076317763E+02  0.24955851055E+02  0.56272258045E+01  0.45045682490E+02  0.00000000000E+00 0. -1.
         11    1    3    3    0    0 -0.81535618947E+01 -0.27525325682E+01  0.56151631829E+00  0.86239380765E+01  0.51100000000E-03 0. -1.
        -11    1    3    3    0    0 -0.23513968224E+02 -0.18931247175E+02 -0.27258793422E+01  0.30310546674E+02  0.51100000000E-03 0.  1.
        -12    1    3    3    0    0 -0.54087876447E+01 -0.32720713116E+01 -0.34628627806E+01  0.72078327597E+01  0.00000000000E+00 0.  1.
</event>
<event>
 7    1  0.2478637E-008  0.4614232E+02  0.7816164E-02  0.1320468E+00
        -11   -1    0    0    0    0  0.00000000000E+00  0.00000000000E+00  0.45593999997E+02  0.45594000000E+02  0.51100000000E-03 0. -1.
         11   -1    0    0    0    0 -0.00000000000E+00 -0.00000000000E+00 -0.45593999997E+02  0.45594000000E+02  0.51100000000E-03 0.  1.
    9900012    2    1    2    0    0  0.34037388685E+01 -0.16203675995E+02 -0.41892351126E+02  0.46142316112E+02  0.99999849648E+01 0.  0.
         12    1    1    2    0    0 -0.34037388685E+01  0.16203675995E+02  0.41892351126E+02  0.45045683888E+02  0.00000000000E+00 0. -1.
         11    1    3    3    0    0  0.36532261013E+00 -0.46947218028E+01 -0.53623563218E+01  0.71364374164E+01  0.51100000000E-03 0. -1.
        -11    1    3    3    0    0  0.92970630694E-01 -0.98916849826E+01 -0.22490010641E+02  0.24569384490E+02  0.51100000000E-03 0.  1.
         12    1    3    3    0    0  0.29454456277E+01 -0.16172692092E+01 -0.14039984163E+02  0.14436494206E+02  0.00000000000E+00 0. -1.
</event>
<event>
 7    1  0.2478637E-008  0.4614232E+02  0.7816164E-02  0.1320468E+00
        -11   -1    0    0    0    0  0.00000000000E+00  0.00000000000E+00  0.45593999997E+02  0.45594000000E+02  0.51100000000E-03 0.  1.
         11   -1    0    0    0    0 -0.00000000000E+00 -0.00000000000E+00 -0.45593999997E+02  0.45594000000E+02  0.51100000000E-03 0. -1.
    9900012    2    1    2    0    0 -0.22089194415E+02  0.15933288063E+02  0.35879120850E+02  0.46142317727E+02  0.99999996926E+01 0.  0.
         12    1    1    2    0    0  0.22089194415E+02 -0.15933288063E+02 -0.35879120850E+02  0.45045682273E+02  0.00000000000E+00 0. -1.
         11    1    3    3    0    0 -0.34716213671E+01  0.27474019053E+01  0.95838638822E+01  0.10557027011E+02  0.51100000000E-03 0. -1.
        -11    1    3    3    0    0 -0.12013775461E+02  0.91349454610E+01  0.22137990522E+02  0.26793071008E+02  0.51100000000E-03 0.  1.
         12    1    3    3    0    0 -0.66037975866E+01  0.40509406970E+01  0.41572664463E+01  0.87922197084E+01  0.00000000000E+00 0. -1.
</event>
<event>
 7    1  0.2478637E-008  0.4614232E+02  0.7816164E-02  0.1320468E+00
        -11   -1    0    0    0    0  0.00000000000E+00  0.00000000000E+00  0.45593999997E+02  0.45594000000E+02  0.51100000000E-03 0. -1.
         11   -1    0    0    0    0 -0.00000000000E+00 -0.00000000000E+00 -0.45593999997E+02  0.45594000000E+02  0.51100000000E-03 0.  1.
    9900012    2    1    2    0    0 -0.18572262113E+01 -0.37721725869E+02 -0.24550674494E+02  0.46142317523E+02  0.99999978256E+01 0.  0.
         12    1    1    2    0    0  0.18572262113E+01  0.37721725869E+02  0.24550674494E+02  0.45045682477E+02  0.00000000000E+00 0. -1.
         11    1    3    3    0    0 -0.49389731016E+01 -0.11744985683E+02 -0.65982367705E+01  0.14348340418E+02  0.51100000000E-03 0. -1.
        -11    1    3    3    0    0  0.62518855226E-01 -0.87944082173E+01 -0.60943694064E+01  0.10699853421E+02  0.51100000000E-03 0.  1.
         12    1    3    3    0    0  0.30192280350E+01 -0.17182331969E+02 -0.11858068317E+02  0.21094123684E+02  0.00000000000E+00 0. -1.
</event>
<event>
 7    1  0.2478637E-008  0.4614232E+02  0.7816164E-02  0.1320468E+00
        -11   -1    0    0    0    0  0.00000000000E+00  0.00000000000E+00  0.45593999997E+02  0.45594000000E+02  0.51100000000E-03 0.  1.
         11   -1    0    0    0    0 -0.00000000000E+00 -0.00000000000E+00 -0.45593999997E+02  0.45594000000E+02  0.51100000000E-03 0. -1.
    9900012    2    1    2    0    0 -0.45230185466E+01 -0.33615519106E+02  0.29642075832E+02  0.46142317841E+02  0.10000000728E+02 0.  0.
         12    1    1    2    0    0  0.45230185466E+01  0.33615519106E+02 -0.29642075832E+02  0.45045682159E+02  0.00000000000E+00 0. -1.
         11    1    3    3    0    0  0.10213985721E+01 -0.14571818823E+02  0.12035182945E+02  0.18926880029E+02  0.51100000000E-03 0.  1.
        -11    1    3    3    0    0 -0.19624782339E+01 -0.10339871758E+01  0.31106188525E+01  0.38205235512E+01  0.51100000000E-03 0. -1.
         12    1    3    3    0    0 -0.35819388848E+01 -0.18009713107E+02  0.14496274034E+02  0.23394914261E+02  0.00000000000E+00 0. -1.
</event>
<event>
 7    1  0.2478637E-008  0.4614232E+02  0.7816164E-02  0.1320468E+00
        -11   -1    0    0    0    0  0.00000000000E+00  0.00000000000E+00  0.45593999997E+02  0.45594000000E+02  0.51100000000E-03 0.  1.
         11   -1    0    0    0    0 -0.00000000000E+00 -0.00000000000E+00 -0.45593999997E+02  0.45594000000E+02  0.51100000000E-03 0. -1.
    9900012    2    1    2    0    0 -0.19159771049E+02 -0.39415704526E+02 -0.10412440037E+02  0.46142317660E+02  0.99999990807E+01 0.  0.
         12    1    1    2    0    0  0.19159771049E+02  0.39415704526E+02  0.10412440037E+02  0.45045682340E+02  0.00000000000E+00 0. -1.
         11    1    3    3    0    0 -0.41430061441E+01 -0.10499036073E+02 -0.50179635387E+01  0.12352093617E+02  0.51100000000E-03 0. -1.
        -11    1    3    3    0    0  0.16675957854E+00 -0.51026871619E+01 -0.54703610397E+00  0.51346347279E+01  0.51100000000E-03 0.  1.
        -12    1    3    3    0    0 -0.15183524483E+02 -0.23813981291E+02 -0.48474403944E+01  0.28655589316E+02  0.00000000000E+00 0.  1.
</event>
<event>
 7    1  0.2478637E-008  0.4614232E+02  0.7816164E-02  0.1320468E+00
        -11   -1    0    0    0    0  0.00000000000E+00  0.00000000000E+00  0.45593999997E+02  0.45594000000E+02  0.51100000000E-03 0. -1.
         11   -1    0    0    0    0 -0.00000000000E+00 -0.00000000000E+00 -0.45593999997E+02  0.45594000000E+02  0.51100000000E-03 0.  1.
    9900012    2    1    2    0    0 -0.14137685432E+02 -0.36434359100E+02 -0.22400375613E+02  0.46142317632E+02  0.99999988224E+01 0.  0.
         12    1    1    2    0    0  0.14137685432E+02  0.36434359100E+02  0.22400375613E+02  0.45045682368E+02  0.00000000000E+00 0. -1.
         11    1    3    3    0    0 -0.86197851195E+01 -0.26905066364E+02 -0.14126168907E+02  0.31586895065E+02  0.51100000000E-03 0. -1.
        -11    1    3    3    0    0 -0.32699244711E+01 -0.91042373884E+01 -0.64147583828E+01  0.11607267975E+02  0.51100000000E-03 0.  1.
         12    1    3    3    0    0 -0.22479758420E+01 -0.42505534698E+00 -0.18594483229E+01  0.29481545922E+01  0.00000000000E+00 0. -1.
</event>
<event>
 7    1  0.2478637E-008  0.4614232E+02  0.7816164E-02  0.1320468E+00
        -11   -1    0    0    0    0  0.00000000000E+00  0.00000000000E+00  0.45593999997E+02  0.45594000000E+02  0.51100000000E-03 0. -1.
         11   -1    0    0    0    0 -0.00000000000E+00 -0.00000000000E+00 -0.45593999997E+02  0.45594000000E+02  0.51100000000E-03 0.  1.
    9900012    2    1    2    0    0 -0.42769088729E+02  0.14060810251E+02  0.14873501034E+01  0.46142317122E+02  0.99999941710E+01 0.  0.
         12    1    1    2    0    0  0.42769088729E+02 -0.14060810251E+02 -0.14873501034E+01  0.45045682878E+02  0.00000000000E+00 0. -1.
         11    1    3    3    0    0 -0.60120142361E+01  0.35322806339E+01  0.25402300510E+01  0.74211919949E+01  0.51100000000E-03 0. -1.
        -11    1    3    3    0    0 -0.95902076117E+01  0.23015308511E+01 -0.28878962321E+01  0.10276627424E+02  0.51100000000E-03 0.  1.
        -12    1    3    3    0    0 -0.27166866881E+02  0.82269987664E+01  0.18350162845E+01  0.28444497703E+02  0.00000000000E+00 0.  1.
</event>
<event>
 7    1  0.2478637E-008  0.4614232E+02  0.7816164E-02  0.1320468E+00
        -11   -1    0    0    0    0  0.00000000000E+00  0.00000000000E+00  0.45593999997E+02  0.45594000000E+02  0.51100000000E-03 0.  1.
         11   -1    0    0    0    0 -0.00000000000E+00 -0.00000000000E+00 -0.45593999997E+02  0.45594000000E+02  0.51100000000E-03 0. -1.
    9900012    2    1    2    0    0  0.43670525805E+02  0.86080876831E+01  0.69209396947E+01  0.46142318698E+02  0.10000008546E+02 0.  0.
         12    1    1    2    0    0 -0.43670525805E+02 -0.86080876831E+01 -0.69209396947E+01  0.45045681302E+02  0.00000000000E+00 0. -1.
         11    1    3    3    0    0  0.99377604395E+01  0.25595605910E+01  0.51302786554E+01  0.11473020192E+02  0.51100000000E-03 0. -1.
        -11    1    3    3    0    0  0.19487870931E+02  0.52392899363E+01  0.27639591753E+01  0.20368277862E+02  0.51100000000E-03 0.  1.
        -12    1    3    3    0    0  0.14244894435E+02  0.80923715572E+00 -0.97329813604E+00  0.14301020645E+02  0.00000000000E+00 0.  1.
</event>
<event>
 7    1  0.2478637E-008  0.4614232E+02  0.7816164E-02  0.1320468E+00
        -11   -1    0    0    0    0  0.00000000000E+00  0.00000000000E+00  0.45593999997E+02  0.45594000000E+02  0.51100000000E-03 0.  1.
         11   -1    0    0    0    0 -0.00000000000E+00 -0.00000000000E+00 -0.45593999997E+02  0.45594000000E+02  0.51100000000E-03 0. -1.
    9900012    2    1    2    0    0  0.15309623997E+02 -0.33333510648E+02  0.26145860073E+02  0.46142317432E+02  0.99999969955E+01 0.  0.
         12    1    1    2    0    0 -0.15309623997E+02  0.33333510648E+02 -0.26145860073E+02  0.45045682568E+02  0.00000000000E+00 0. -1.
         11    1    3    3    0    0  0.26129927835E+01 -0.24108574014E+01  0.39177853422E+01  0.52904637741E+01  0.51100000000E-03 0. -1.
        -11    1    3    3    0    0 -0.43374557751E+00 -0.28148606245E+00  0.15248798344E+01  0.16101640910E+01  0.51100000000E-03 0.  1.
        -12    1    3    3    0    0  0.13130376791E+02 -0.30641167185E+02  0.20703194897E+02  0.39241689567E+02  0.00000000000E+00 0.  1.
</event>
<event>
 7    1  0.2478637E-008  0.4614232E+02  0.7816164E-02  0.1320468E+00
        -11   -1    0    0    0    0  0.00000000000E+00  0.00000000000E+00  0.45593999997E+02  0.45594000000E+02  0.51100000000E-03 0. -1.
         11   -1    0    0    0    0 -0.00000000000E+00 -0.00000000000E+00 -0.45593999997E+02  0.45594000000E+02  0.51100000000E-03 0.  1.
    9900012    2    1    2    0    0 -0.54718898409E+01 -0.42487990032E+02 -0.13926329392E+02  0.46142317346E+02  0.99999962189E+01 0.  0.
         12    1    1    2    0    0  0.54718898409E+01  0.42487990032E+02  0.13926329392E+02  0.45045682654E+02  0.00000000000E+00 0. -1.
         11    1    3    3    0    0 -0.38667072101E+01 -0.14621582888E+02 -0.51754961347E+01  0.15985239169E+02  0.51100000000E-03 0. -1.
        -11    1    3    3    0    0 -0.34063521781E+00 -0.19462622043E+02 -0.94340808958E+01  0.21631263758E+02  0.51100000000E-03 0.  1.
         12    1    3    3    0    0 -0.12645474129E+01 -0.84037851013E+01  0.68324763811E+00  0.85258144199E+01  0.00000000000E+00 0. -1.
</event>
<event>
 7    1  0.2478637E-008  0.4614232E+02  0.7816164E-02  0.1320468E+00
        -11   -1    0    0    0    0  0.00000000000E+00  0.00000000000E+00  0.45593999997E+02  0.45594000000E+02  0.51100000000E-03 0. -1.
         11   -1    0    0    0    0 -0.00000000000E+00 -0.00000000000E+00 -0.45593999997E+02  0.45594000000E+02  0.51100000000E-03 0.  1.
    9900012    2    1    2    0    0  0.39220667030E+02 -0.16352006336E+02  0.14948740531E+02  0.46142315667E+02  0.99999809085E+01 0.  0.
         12    1    1    2    0    0 -0.39220667030E+02  0.16352006336E+02 -0.14948740531E+02  0.45045684333E+02  0.00000000000E+00 0. -1.
         11    1    3    3    0    0  0.71421476114E+01 -0.21012402890E+01  0.60213929773E+01  0.95751061040E+01  0.51100000000E-03 0. -1.
        -11    1    3    3    0    0  0.16076415048E+02 -0.84801056297E+01  0.68765218486E+01  0.19433215515E+02  0.51100000000E-03 0.  1.
         12    1    3    3    0    0  0.16002104371E+02 -0.57706604173E+01  0.20508257050E+01  0.17133994048E+02  0.00000000000E+00 0. -1.
</event>
<event>
 7    1  0.2478637E-008  0.4614232E+02  0.7816164E-02  0.1320468E+00
        -11   -1    0    0    0    0  0.00000000000E+00  0.00000000000E+00  0.45593999997E+02  0.45594000000E+02  0.51100000000E-03 0.  1.
         11   -1    0    0    0    0 -0.00000000000E+00 -0.00000000000E+00 -0.45593999997E+02  0.45594000000E+02  0.51100000000E-03 0. -1.
    9900012    2    1    2    0    0  0.15101980077E+02  0.59194259083E+01  0.42023851411E+02  0.46142317712E+02  0.99999995547E+01 0.  0.
         12    1    1    2    0    0 -0.15101980077E+02 -0.59194259083E+01 -0.42023851411E+02  0.45045682288E+02  0.00000000000E+00 0. -1.
         11    1    3    3    0    0  0.38738920033E+01 -0.18301423295E+01  0.81576579383E+01  0.92143281632E+01  0.51100000000E-03 0. -1.
        -11    1    3    3    0    0  0.23504034408E+01  0.57702836851E+00  0.12219050855E+02  0.12456426539E+02  0.51100000000E-03 0.  1.
        -12    1    3    3    0    0  0.88776846332E+01  0.71725398693E+01  0.21647142618E+02  0.24471563010E+02  0.00000000000E+00 0.  1.
</event>
<event>
 7    1  0.2478637E-008  0.4614232E+02  0.7816164E-02  0.1320468E+00
        -11   -1    0    0    0    0  0.00000000000E+00  0.00000000000E+00  0.45593999997E+02  0.45594000000E+02  0.51100000000E-03 0. -1.
         11   -1    0    0    0    0 -0.00000000000E+00 -0.00000000000E+00 -0.45593999997E+02  0.45594000000E+02  0.51100000000E-03 0.  1.
    9900012    2    1    2    0    0  0.31736908105E+02 -0.13010432117E+02  0.29199498757E+02  0.46142318658E+02  0.10000008180E+02 0.  0.
         12    1    1    2    0    0 -0.31736908105E+02  0.13010432117E+02 -0.29199498757E+02  0.45045681342E+02  0.00000000000E+00 0. -1.
         11    1    3    3    0    0  0.83952799363E+01 -0.26770135573E+01  0.11774804608E+02  0.14706908261E+02  0.51100000000E-03 0. -1.
        -11    1    3    3    0    0  0.51680147204E+01 -0.24539617103E+01  0.70354837022E+01  0.90679840875E+01  0.51100000000E-03 0.  1.
         12    1    3    3    0    0  0.18173613448E+02 -0.78794568497E+01  0.10389210447E+02  0.22367426309E+02  0.00000000000E+00 0. -1.
</event>
<event>
 7    1  0.2478637E-008  0.4614232E+02  0.7816164E-02  0.1320468E+00
        -11   -1    0    0    0    0  0.00000000000E+00  0.00000000000E+00  0.45593999997E+02  0.45594000000E+02  0.51100000000E-03 0. -1.
         11   -1    0    0    0    0 -0.00000000000E+00 -0.00000000000E+00 -0.45593999997E+02  0.45594000000E+02  0.51100000000E-03 0.  1.
    9900012    2    1    2    0    0  0.31408784033E+02 -0.31374623909E+02 -0.76311726565E+01  0.46142317232E+02  0.99999951788E+01 0.  0.
         12    1    1    2    0    0 -0.31408784033E+02  0.31374623909E+02  0.76311726565E+01  0.45045682768E+02  0.00000000000E+00 0. -1.
         11    1    3    3    0    0  0.16390282650E+02 -0.12931077639E+02 -0.76410737173E+01  0.22231512366E+02  0.51100000000E-03 0. -1.
        -11    1    3    3    0    0  0.58705618819E+01 -0.55308140279E+01 -0.46437505910E+00  0.80789259854E+01  0.51100000000E-03 0.  1.
         12    1    3    3    0    0  0.91479395018E+01 -0.12912732242E+02  0.47427611984E+00  0.15831878881E+02  0.00000000000E+00 0. -1.
</event>
<event>
 7    1  0.2478637E-008  0.4614232E+02  0.7816164E-02  0.1320468E+00
        -11   -1    0    0    0    0  0.00000000000E+00  0.00000000000E+00  0.45593999997E+02  0.45594000000E+02  0.51100000000E-03 0.  1.
         11   -1    0    0    0    0 -0.00000000000E+00 -0.00000000000E+00 -0.45593999997E+02  0.45594000000E+02  0.51100000000E-03 0. -1.
    9900012    2    1    2    0    0 -0.94112678102E+01 -0.79590953728E+01  0.43326600931E+02  0.46142317530E+02  0.99999978912E+01 0.  0.
         12    1    1    2    0    0  0.94112678102E+01  0.79590953728E+01 -0.43326600931E+02  0.45045682470E+02  0.00000000000E+00 0. -1.
         11    1    3    3    0    0 -0.55086517753E+01 -0.20395457258E+01  0.13908991356E+02  0.15098510918E+02  0.51100000000E-03 0. -1.
        -11    1    3    3    0    0 -0.38149821827E+01 -0.66556712521E+01  0.29306821630E+02  0.30294254293E+02  0.51100000000E-03 0.  1.
         12    1    3    3    0    0 -0.87633852180E-01  0.73612160498E+00  0.11078794551E+00  0.74955231855E+00  0.00000000000E+00 0. -1.
</event>
<event>
 7    1  0.2478637E-008  0.4614232E+02  0.7816164E-02  0.1320468E+00
        -11   -1    0    0    0    0  0.00000000000E+00  0.00000000000E+00  0.45593999997E+02  0.45594000000E+02  0.51100000000E-03 0. -1.
         11   -1    0    0    0    0 -0.00000000000E+00 -0.00000000000E+00 -0.45593999997E+02  0.45594000000E+02  0.51100000000E-03 0.  1.
    9900012    2    1    2    0    0 -0.33378817739E+02 -0.10202354119E+02 -0.28475953554E+02  0.46142318364E+02  0.10000005500E+02 0.  0.
         12    1    1    2    0    0  0.33378817739E+02  0.10202354119E+02  0.28475953554E+02  0.45045681636E+02  0.00000000000E+00 0. -1.
         11    1    3    3    0    0 -0.55775372917E+01 -0.54036226565E+01 -0.42345033265E+01  0.88452856787E+01  0.51100000000E-03 0.  1.
        -11    1    3    3    0    0 -0.32359079988E+01  0.11049141955E+00 -0.20646122692E+01  0.38400433609E+01  0.51100000000E-03 0. -1.
        -12    1    3    3    0    0 -0.24565372449E+02 -0.49092228820E+01 -0.22176837958E+02  0.33456989325E+02  0.00000000000E+00 0.  1.
</event>
<event>
 7    1  0.2478637E-008  0.4614232E+02  0.7816164E-02  0.1320468E+00
        -11   -1    0    0    0    0  0.00000000000E+00  0.00000000000E+00  0.45593999997E+02  0.45594000000E+02  0.51100000000E-03 0. -1.
         11   -1    0    0    0    0 -0.00000000000E+00 -0.00000000000E+00 -0.45593999997E+02  0.45594000000E+02  0.51100000000E-03 0.  1.
    9900012    2    1    2    0    0  0.43231080966E+02 -0.10244585398E+02  0.74320692991E+01  0.46142317126E+02  0.99999942085E+01 0.  0.
         12    1    1    2    0    0 -0.43231080966E+02  0.10244585398E+02 -0.74320692991E+01  0.45045682874E+02  0.00000000000E+00 0. -1.
         11    1    3    3    0    0  0.73370404140E+01  0.24362817113E+00 -0.50609296106E+00  0.73585084813E+01  0.51100000000E-03 0.  1.
        -11    1    3    3    0    0  0.66112702492E+01 -0.16846742166E+01  0.41170046505E+01  0.79684847416E+01  0.51100000000E-03 0. -1.
         12    1    3    3    0    0  0.29282770303E+02 -0.88035393530E+01  0.38211576097E+01  0.30815323903E+02  0.00000000000E+00 0. -1.
</event>
<event>
 7    1  0.2478637E-008  0.4614232E+02  0.7816164E-02  0.1320468E+00
        -11   -1    0    0    0    0  0.00000000000E+00  0.00000000000E+00  0.45593999997E+02  0.45594000000E+02  0.51100000000E-03 0.  1.
         11   -1    0    0    0    0 -0.00000000000E+00 -0.00000000000E+00 -0.45593999997E+02  0.45594000000E+02  0.51100000000E-03 0. -1.
    9900012    2    1    2    0    0  0.14428321885E+02 -0.25470830646E+02  0.34237023655E+02  0.46142317910E+02  0.10000001357E+02 0.  0.
         12    1    1    2    0    0 -0.14428321885E+02  0.25470830646E+02 -0.34237023655E+02  0.45045682090E+02  0.00000000000E+00 0. -1.
         11    1    3    3    0    0  0.41531441056E+01 -0.11116817950E+02  0.17424115217E+02  0.21081556836E+02  0.51100000000E-03 0. -1.
        -11    1    3    3    0    0  0.16594415873E+01 -0.45245513900E+01  0.78525163537E+01  0.92134317715E+01  0.51100000000E-03 0.  1.
         12    1    3    3    0    0  0.86157361924E+01 -0.98294613066E+01  0.89603920840E+01  0.15847329302E+02  0.00000000000E+00 0. -1.
</event>
<event>
 7    1  0.2478637E-008  0.4614232E+02  0.7816164E-02  0.1320468E+00
        -11   -1    0    0    0    0  0.00000000000E+00  0.00000000000E+00  0.45593999997E+02  0.45594000000E+02  0.51100000000E-03 0.  1.
         11   -1    0    0    0    0 -0.00000000000E+00 -0.00000000000E+00 -0.45593999997E+02  0.45594000000E+02  0.51100000000E-03 0. -1.
    9900012    2    1    2    0    0 -0.42939042600E+02 -0.13460016568E+02  0.20445067852E+01  0.46142318371E+02  0.10000005559E+02 0.  0.
         12    1    1    2    0    0  0.42939042600E+02  0.13460016568E+02 -0.20445067852E+01  0.45045681629E+02  0.00000000000E+00 0. -1.
         11    1    3    3    0    0 -0.54090706999E+01 -0.17738735528E+00 -0.29349135276E+00  0.54199307695E+01  0.51100000000E-03 0. -1.
        -11    1    3    3    0    0 -0.29580126969E+02 -0.10507108723E+02 -0.15895572887E+01  0.31431034629E+02  0.51100000000E-03 0.  1.
         12    1    3    3    0    0 -0.79498449312E+01 -0.27755204895E+01  0.39275554267E+01  0.92913529719E+01  0.00000000000E+00 0. -1.
</event>
<event>
 7    1  0.2478637E-008  0.4614232E+02  0.7816164E-02  0.1320468E+00
        -11   -1    0    0    0    0  0.00000000000E+00  0.00000000000E+00  0.45593999997E+02  0.45594000000E+02  0.51100000000E-03 0.  1.
         11   -1    0    0    0    0 -0.00000000000E+00 -0.00000000000E+00 -0.45593999997E+02  0.45594000000E+02  0.51100000000E-03 0. -1.
    9900012    2    1    2    0    0  0.75724588379E+00 -0.40012891024E+02  0.20676271311E+02  0.46142322463E+02  0.10000042876E+02 0.  0.
         12    1    1    2    0    0 -0.75724588379E+00  0.40012891024E+02 -0.20676271311E+02  0.45045677537E+02  0.00000000000E+00 0. -1.
         11    1    3    3    0    0 -0.10240650366E+00 -0.22744842410E+02  0.10651691593E+02  0.25115669958E+02  0.51100000000E-03 0. -1.
        -11    1    3    3    0    0  0.55870643548E+00 -0.17808253593E+02  0.93874456535E+01  0.20138773177E+02  0.51100000000E-03 0.  1.
         12    1    3    3    0    0  0.30094595196E+00  0.54020497944E+00  0.63713406377E+00  0.88787932797E+00  0.00000000000E+00 0. -1.
</event>
<event>
 7    1  0.2478637E-008  0.4614232E+02  0.7816164E-02  0.1320468E+00
        -11   -1    0    0    0    0  0.00000000000E+00  0.00000000000E+00  0.45593999997E+02  0.45594000000E+02  0.51100000000E-03 0.  1.
         11   -1    0    0    0    0 -0.00000000000E+00 -0.00000000000E+00 -0.45593999997E+02  0.45594000000E+02  0.51100000000E-03 0. -1.
    9900012    2    1    2    0    0 -0.12510685494E+02  0.16281435301E+02  0.40093777480E+02  0.46142318968E+02  0.10000011006E+02 0.  0.
         12    1    1    2    0    0  0.12510685494E+02 -0.16281435301E+02 -0.40093777480E+02  0.45045681032E+02  0.00000000000E+00 0. -1.
         11    1    3    3    0    0 -0.27071408561E+01  0.34654084156E+01  0.43499009480E+01  0.61854107075E+01  0.51100000000E-03 0. -1.
        -11    1    3    3    0    0 -0.84365400043E+01  0.10150024737E+02  0.20218580798E+02  0.24145169686E+02  0.51100000000E-03 0.  1.
        -12    1    3    3    0    0 -0.13670046339E+01  0.26660021485E+01  0.15525295734E+02  0.15811738575E+02  0.00000000000E+00 0.  1.
</event>
<event>
 7    1  0.2478637E-008  0.4614232E+02  0.7816164E-02  0.1320468E+00
        -11   -1    0    0    0    0  0.00000000000E+00  0.00000000000E+00  0.45593999997E+02  0.45594000000E+02  0.51100000000E-03 0.  1.
         11   -1    0    0    0    0 -0.00000000000E+00 -0.00000000000E+00 -0.45593999997E+02  0.45594000000E+02  0.51100000000E-03 0. -1.
    9900012    2    1    2    0    0 -0.24204417077E+02  0.35608717560E+02 -0.13239294339E+02  0.46142317778E+02  0.10000000150E+02 0.  0.
         12    1    1    2    0    0  0.24204417077E+02 -0.35608717560E+02  0.13239294339E+02  0.45045682222E+02  0.00000000000E+00 0. -1.
         11    1    3    3    0    0 -0.50399306933E+01  0.11523155812E+02 -0.21366699650E+01  0.12757326525E+02  0.51100000000E-03 0. -1.
        -11    1    3    3    0    0 -0.84316580938E+01  0.15024494748E+02 -0.80227283221E+01  0.19005064342E+02  0.51100000000E-03 0.  1.
        -12    1    3    3    0    0 -0.10732828290E+02  0.90610669997E+01 -0.30798960521E+01  0.14379926911E+02  0.00000000000E+00 0.  1.
</event>
<event>
 7    1  0.2478637E-008  0.4614232E+02  0.7816164E-02  0.1320468E+00
        -11   -1    0    0    0    0  0.00000000000E+00  0.00000000000E+00  0.45593999997E+02  0.45594000000E+02  0.51100000000E-03 0.  1.
         11   -1    0    0    0    0 -0.00000000000E+00 -0.00000000000E+00 -0.45593999997E+02  0.45594000000E+02  0.51100000000E-03 0. -1.
    9900012    2    1    2    0    0  0.34127632378E+02 -0.11386469919E+02  0.27106577005E+02  0.46142317567E+02  0.99999982258E+01 0.  0.
         12    1    1    2    0    0 -0.34127632378E+02  0.11386469919E+02 -0.27106577005E+02  0.45045682433E+02  0.00000000000E+00 0. -1.
         11    1    3    3    0    0  0.24077501283E+02 -0.56633342435E+01  0.19324409823E+02  0.31388409295E+02  0.51100000000E-03 0. -1.
        -11    1    3    3    0    0  0.67696786530E+01 -0.53490719118E+01  0.34151887059E+01  0.92792582430E+01  0.51100000000E-03 0.  1.
         12    1    3    3    0    0  0.32804524419E+01 -0.37406376388E+00  0.43669784764E+01  0.54746500287E+01  0.00000000000E+00 0. -1.
</event>
<event>
 7    1  0.2478637E-008  0.4614232E+02  0.7816164E-02  0.1320468E+00
        -11   -1    0    0    0    0  0.00000000000E+00  0.00000000000E+00  0.45593999997E+02  0.45594000000E+02  0.51100000000E-03 0.  1.
         11   -1    0    0    0    0 -0.00000000000E+00 -0.00000000000E+00 -0.45593999997E+02  0.45594000000E+02  0.51100000000E-03 0. -1.
    9900012    2    1    2    0    0  0.91013056780E+01  0.32400596656E+02  0.29941292275E+02  0.46142318611E+02  0.10000007749E+02 0.  0.
         12    1    1    2    0    0 -0.91013056780E+01 -0.32400596656E+02 -0.29941292275E+02  0.45045681389E+02  0.00000000000E+00 0. -1.
         11    1    3    3    0    0  0.36598204504E+01  0.21951172252E+02  0.16258848473E+02  0.27560812812E+02  0.51100000000E-03 0. -1.
        -11    1    3    3    0    0  0.33240841338E+01  0.54221362503E+01  0.41363287800E+01  0.75867195073E+01  0.51100000000E-03 0.  1.
         12    1    3    3    0    0  0.21174010939E+01  0.50272881543E+01  0.95461150221E+01  0.10994786291E+02  0.00000000000E+00 0. -1.
</event>
<event>
 7    1  0.2478637E-008  0.4614232E+02  0.7816164E-02  0.1320468E+00
        -11   -1    0    0    0    0  0.00000000000E+00  0.00000000000E+00  0.45593999997E+02  0.45594000000E+02  0.51100000000E-03 0.  1.
         11   -1    0    0    0    0 -0.00000000000E+00 -0.00000000000E+00 -0.45593999997E+02  0.45594000000E+02  0.51100000000E-03 0. -1.
    9900012    2    1    2    0    0  0.26286294111E+02  0.30256747579E+02  0.20559024511E+02  0.46142317399E+02  0.99999966959E+01 0.  0.
         12    1    1    2    0    0 -0.26286294111E+02 -0.30256747579E+02 -0.20559024511E+02  0.45045682601E+02  0.00000000000E+00 0. -1.
         11    1    3    3    0    0  0.95948906047E+01  0.91890664579E+01  0.49849401852E+01  0.14189802571E+02  0.51100000000E-03 0. -1.
        -11    1    3    3    0    0  0.87362231640E+01  0.10589333559E+02  0.36694215262E+01  0.14209864003E+02  0.51100000000E-03 0.  1.
         12    1    3    3    0    0  0.79551803426E+01  0.10478347562E+02  0.11904662800E+02  0.17742650825E+02  0.00000000000E+00 0. -1.
</event>
<event>
 7    1  0.2478637E-008  0.4614232E+02  0.7816164E-02  0.1320468E+00
        -11   -1    0    0    0    0  0.00000000000E+00  0.00000000000E+00  0.45593999997E+02  0.45594000000E+02  0.51100000000E-03 0. -1.
         11   -1    0    0    0    0 -0.00000000000E+00 -0.00000000000E+00 -0.45593999997E+02  0.45594000000E+02  0.51100000000E-03 0.  1.
    9900012    2    1    2    0    0  0.25284926825E+02  0.34489890646E+02 -0.14150386411E+02  0.46142317444E+02  0.99999971122E+01 0.  0.
         12    1    1    2    0    0 -0.25284926825E+02 -0.34489890646E+02  0.14150386411E+02  0.45045682556E+02  0.00000000000E+00 0. -1.
         11    1    3    3    0    0  0.16655256945E+02  0.22090786431E+02 -0.11021694466E+02  0.29780499966E+02  0.51100000000E-03 0. -1.
        -11    1    3    3    0    0  0.41384851209E+01  0.10290621322E+02 -0.19413983918E+01  0.11260238642E+02  0.51100000000E-03 0.  1.
         12    1    3    3    0    0  0.44911847587E+01  0.21084828930E+01 -0.11872935525E+01  0.51015788366E+01  0.00000000000E+00 0. -1.
</event>
<event>
 7    1  0.2478637E-008  0.4614232E+02  0.7816164E-02  0.1320468E+00
        -11   -1    0    0    0    0  0.00000000000E+00  0.00000000000E+00  0.45593999997E+02  0.45594000000E+02  0.51100000000E-03 0.  1.
         11   -1    0    0    0    0 -0.00000000000E+00 -0.00000000000E+00 -0.45593999997E+02  0.45594000000E+02  0.51100000000E-03 0. -1.
    9900012    2    1    2    0    0  0.29971679734E+02  0.26937348876E+02  0.20129349890E+02  0.46142322322E+02  0.10000041586E+02 0.  0.
         12    1    1    2    0    0 -0.29971679734E+02 -0.26937348876E+02 -0.20129349890E+02  0.45045677678E+02  0.00000000000E+00 0. -1.
         11    1    3    3    0    0  0.10097628418E+02  0.94453517985E+01  0.60539709931E+01  0.15093950288E+02  0.51100000000E-03 0. -1.
        -11    1    3    3    0    0  0.11245415363E+02  0.13022470285E+02  0.12348737567E+02  0.21178654791E+02  0.51100000000E-03 0.  1.
         12    1    3    3    0    0  0.86286359532E+01  0.44695267919E+01  0.17266413302E+01  0.98697172421E+01  0.00000000000E+00 0. -1.
</event>
<event>
 7    1  0.2478637E-008  0.4614232E+02  0.7816164E-02  0.1320468E+00
        -11   -1    0    0    0    0  0.00000000000E+00  0.00000000000E+00  0.45593999997E+02  0.45594000000E+02  0.51100000000E-03 0.  1.
         11   -1    0    0    0    0 -0.00000000000E+00 -0.00000000000E+00 -0.45593999997E+02  0.45594000000E+02  0.51100000000E-03 0. -1.
    9900012    2    1    2    0    0 -0.45699887117E+01 -0.29634816681E+02  0.33615568132E+02  0.46142316773E+02  0.99999909910E+01 0.  0.
         12    1    1    2    0    0  0.45699887117E+01  0.29634816681E+02 -0.33615568132E+02  0.45045683227E+02  0.00000000000E+00 0. -1.
         11    1    3    3    0    0 -0.30132205245E+01 -0.18208286415E+02  0.17249016338E+02  0.25261626175E+02  0.51100000000E-03 0. -1.
        -11    1    3    3    0    0  0.63618727341E+00 -0.31386506806E+00  0.41927737838E+01  0.42523637887E+01  0.51100000000E-03 0.  1.
        -12    1    3    3    0    0 -0.21929554607E+01 -0.11112665198E+02  0.12173778010E+02  0.16628326810E+02  0.00000000000E+00 0.  1.
</event>
<event>
 7    1  0.2478637E-008  0.4614232E+02  0.7816164E-02  0.1320468E+00
        -11   -1    0    0    0    0  0.00000000000E+00  0.00000000000E+00  0.45593999997E+02  0.45594000000E+02  0.51100000000E-03 0.  1.
         11   -1    0    0    0    0 -0.00000000000E+00 -0.00000000000E+00 -0.45593999997E+02  0.45594000000E+02  0.51100000000E-03 0. -1.
    9900012    2    1    2    0    0 -0.30202706821E+02 -0.86354737877E+01  0.32285266364E+02  0.46142319508E+02  0.10000015928E+02 0.  0.
         12    1    1    2    0    0  0.30202706821E+02  0.86354737877E+01 -0.32285266364E+02  0.45045680492E+02  0.00000000000E+00 0. -1.
         11    1    3    3    0    0 -0.85788885833E+01 -0.21139708204E+01  0.11943604079E+02  0.14856509705E+02  0.51100000000E-03 0. -1.
        -11    1    3    3    0    0 -0.15497326497E+02 -0.66538549402E+01  0.18153751643E+02  0.24779015580E+02  0.51100000000E-03 0.  1.
         12    1    3    3    0    0 -0.61264917403E+01  0.13235197286E+00  0.21879106415E+01  0.65067942233E+01  0.00000000000E+00 0. -1.
</event>
<event>
 7    1  0.2478637E-008  0.4614232E+02  0.7816164E-02  0.1320468E+00
        -11   -1    0    0    0    0  0.00000000000E+00  0.00000000000E+00  0.45593999997E+02  0.45594000000E+02  0.51100000000E-03 0.  1.
         11   -1    0    0    0    0 -0.00000000000E+00 -0.00000000000E+00 -0.45593999997E+02  0.45594000000E+02  0.51100000000E-03 0. -1.
    9900012    2    1    2    0    0  0.11516852929E+02 -0.26547935326E+02  0.34520756687E+02  0.46142318590E+02  0.10000007561E+02 0.  0.
         12    1    1    2    0    0 -0.11516852929E+02  0.26547935326E+02 -0.34520756687E+02  0.45045681410E+02  0.00000000000E+00 0. -1.
         11    1    3    3    0    0  0.16520621364E+01 -0.10853147750E+01  0.24834044781E+01  0.31740377323E+01  0.51100000000E-03 0. -1.
        -11    1    3    3    0    0  0.13747442518E+01 -0.14639235067E+02  0.14182306813E+02  0.20428777543E+02  0.51100000000E-03 0.  1.
        -12    1    3    3    0    0  0.84900465411E+01 -0.10823385483E+02  0.17855045395E+02  0.22539503314E+02  0.00000000000E+00 0.  1.
</event>
<event>
 7    1  0.2478637E-008  0.4614232E+02  0.7816164E-02  0.1320468E+00
        -11   -1    0    0    0    0  0.00000000000E+00  0.00000000000E+00  0.45593999997E+02  0.45594000000E+02  0.51100000000E-03 0.  1.
         11   -1    0    0    0    0 -0.00000000000E+00 -0.00000000000E+00 -0.45593999997E+02  0.45594000000E+02  0.51100000000E-03 0. -1.
    9900012    2    1    2    0    0  0.12043964349E+02 -0.43156379437E+02 -0.46457827708E+01  0.46142318066E+02  0.10000002777E+02 0.  0.
         12    1    1    2    0    0 -0.12043964349E+02  0.43156379437E+02  0.46457827708E+01  0.45045681934E+02  0.00000000000E+00 0. -1.
         11    1    3    3    0    0  0.72162713744E+01 -0.23642559605E+02 -0.16016500094E+01  0.24771162271E+02  0.51100000000E-03 0. -1.
        -11    1    3    3    0    0  0.56713692922E+01 -0.19501096504E+02 -0.29491748317E+01  0.20522057084E+02  0.51100000000E-03 0.  1.
        -12    1    3    3    0    0 -0.84367631798E+00 -0.12723328434E-01 -0.94957929704E-01  0.84909871100E+00  0.00000000000E+00 0.  1.
</event>
<event>
 7    1  0.2478637E-008  0.4614232E+02  0.7816164E-02  0.1320468E+00
        -11   -1    0    0    0    0  0.00000000000E+00  0.00000000000E+00  0.45593999997E+02  0.45594000000E+02  0.51100000000E-03 0.  1.
         11   -1    0    0    0    0 -0.00000000000E+00 -0.00000000000E+00 -0.45593999997E+02  0.45594000000E+02  0.51100000000E-03 0. -1.
    9900012    2    1    2    0    0 -0.27798500525E+01  0.38522298585E+02  0.23182282399E+02  0.46142320165E+02  0.10000021918E+02 0.  0.
         12    1    1    2    0    0  0.27798500525E+01 -0.38522298585E+02 -0.23182282399E+02  0.45045679835E+02  0.00000000000E+00 0. -1.
         11    1    3    3    0    0  0.58505465653E+00  0.57118004715E+00  0.18343206745E+01  0.20082998270E+01  0.51100000000E-03 0. -1.
        -11    1    3    3    0    0  0.42007232067E-01  0.23617401544E+02  0.15678319950E+02  0.28347718374E+02  0.51100000000E-03 0.  1.
         12    1    3    3    0    0 -0.34069119411E+01  0.14333716993E+02  0.56696417750E+01  0.15786301963E+02  0.00000000000E+00 0. -1.
</event>
<event>
 7    1  0.2478637E-008  0.4614232E+02  0.7816164E-02  0.1320468E+00
        -11   -1    0    0    0    0  0.00000000000E+00  0.00000000000E+00  0.45593999997E+02  0.45594000000E+02  0.51100000000E-03 0.  1.
         11   -1    0    0    0    0 -0.00000000000E+00 -0.00000000000E+00 -0.45593999997E+02  0.45594000000E+02  0.51100000000E-03 0. -1.
    9900012    2    1    2    0    0 -0.56357481028E+01  0.21381340439E+02  0.39245256338E+02  0.46142317402E+02  0.99999967256E+01 0.  0.
         12    1    1    2    0    0  0.56357481028E+01 -0.21381340439E+02 -0.39245256338E+02  0.45045682598E+02  0.00000000000E+00 0. -1.
         11    1    3    3    0    0 -0.15985695173E+01  0.16151358626E+01  0.11283252395E+02  0.11509816386E+02  0.51100000000E-03 0. -1.
        -11    1    3    3    0    0 -0.11903898962E+01  0.40181632082E+01  0.81511649635E+01  0.91653780171E+01  0.51100000000E-03 0.  1.
         12    1    3    3    0    0 -0.28467886893E+01  0.15748041368E+02  0.19810838980E+02  0.25467122999E+02  0.00000000000E+00 0. -1.
</event>
<event>
 7    1  0.2478637E-008  0.4614232E+02  0.7816164E-02  0.1320468E+00
        -11   -1    0    0    0    0  0.00000000000E+00  0.00000000000E+00  0.45593999997E+02  0.45594000000E+02  0.51100000000E-03 0.  1.
         11   -1    0    0    0    0 -0.00000000000E+00 -0.00000000000E+00 -0.45593999997E+02  0.45594000000E+02  0.51100000000E-03 0. -1.
    9900012    2    1    2    0    0  0.37307976439E+02  0.25243117142E+02 -0.11552143666E+00  0.46142318584E+02  0.10000007507E+02 0.  0.
         12    1    1    2    0    0 -0.37307976439E+02 -0.25243117142E+02  0.11552143666E+00  0.45045681416E+02  0.00000000000E+00 0. -1.
         11    1    3    3    0    0  0.17251980959E+02  0.11668159370E+02 -0.36514870002E+01  0.21144979255E+02  0.51100000000E-03 0. -1.
        -11    1    3    3    0    0  0.15244487077E+02  0.12013145522E+02  0.43045993472E+01  0.19880634482E+02  0.51100000000E-03 0.  1.
         12    1    3    3    0    0  0.48115084028E+01  0.15618122489E+01 -0.76863378372E+00  0.51167048483E+01  0.00000000000E+00 0. -1.
</event>
<event>
 7    1  0.2478637E-008  0.4614231E+02  0.7816164E-02  0.1320468E+00
        -11   -1    0    0    0    0  0.00000000000E+00  0.00000000000E+00  0.45593999997E+02  0.45594000000E+02  0.51100000000E-03 0.  1.
         11   -1    0    0    0    0 -0.00000000000E+00 -0.00000000000E+00 -0.45593999997E+02  0.45594000000E+02  0.51100000000E-03 0. -1.
    9900012    2    1    2    0    0  0.92696519688E+01 -0.43362401093E+02  0.79303030388E+01  0.46142312277E+02  0.99999499871E+01 0.  0.
         12    1    1    2    0    0 -0.92696519688E+01  0.43362401093E+02 -0.79303030388E+01  0.45045687723E+02  0.00000000000E+00 0. -1.
         11    1    3    3    0    0  0.65128639312E+00 -0.19674960131E+01  0.20564359125E+01  0.29196135790E+01  0.51100000000E-03 0. -1.
        -11    1    3    3    0    0  0.23933957939E+01 -0.20052780896E+02  0.57244998839E+01  0.20990766167E+02  0.51100000000E-03 0.  1.
         12    1    3    3    0    0  0.62249697818E+01 -0.21342124184E+02  0.14936724244E+00  0.22231932531E+02  0.00000000000E+00 0. -1.
</event>
<event>
 7    1  0.2478637E-008  0.4614232E+02  0.7816164E-02  0.1320468E+00
        -11   -1    0    0    0    0  0.00000000000E+00  0.00000000000E+00  0.45593999997E+02  0.45594000000E+02  0.51100000000E-03 0.  1.
         11   -1    0    0    0    0 -0.00000000000E+00 -0.00000000000E+00 -0.45593999997E+02  0.45594000000E+02  0.51100000000E-03 0. -1.
    9900012    2    1    2    0    0 -0.25103841988E+01 -0.19583642211E+01  0.44933020684E+02  0.46142316888E+02  0.99999920407E+01 0.  0.
         12    1    1    2    0    0  0.25103841988E+01  0.19583642211E+01 -0.44933020684E+02  0.45045683112E+02  0.00000000000E+00 0. -1.
         11    1    3    3    0    0  0.14897776818E+01  0.18339925364E+01  0.31088836924E+02  0.31178498163E+02  0.51100000000E-03 0. -1.
        -11    1    3    3    0    0 -0.13403519525E+01 -0.10415383322E+01  0.60098116459E+01  0.62449324844E+01  0.51100000000E-03 0.  1.
         12    1    3    3    0    0 -0.26598099281E+01 -0.27508184253E+01  0.78343721139E+01  0.87188862409E+01  0.00000000000E+00 0. -1.
</event>
<event>
 7    1  0.2478637E-008  0.4614232E+02  0.7816164E-02  0.1320468E+00
        -11   -1    0    0    0    0  0.00000000000E+00  0.00000000000E+00  0.45593999997E+02  0.45594000000E+02  0.51100000000E-03 0. -1.
         11   -1    0    0    0    0 -0.00000000000E+00 -0.00000000000E+00 -0.45593999997E+02  0.45594000000E+02  0.51100000000E-03 0.  1.
    9900012    2    1    2    0    0 -0.60096714819E+01  0.41867823404E+02 -0.15494596705E+02  0.46142319686E+02  0.10000017554E+02 0.  0.
         12    1    1    2    0    0  0.60096714819E+01 -0.41867823404E+02  0.15494596705E+02  0.45045680314E+02  0.00000000000E+00 0. -1.
         11    1    3    3    0    0 -0.51238749293E+01  0.10625749151E+02 -0.18627217699E+01  0.11942795818E+02  0.51100000000E-03 0. -1.
        -11    1    3    3    0    0 -0.13099579012E+01  0.21907858790E+02 -0.84701606530E+01  0.23524750546E+02  0.51100000000E-03 0.  1.
         12    1    3    3    0    0  0.42416134861E+00  0.93342154624E+01 -0.51617142820E+01  0.10674773322E+02  0.00000000000E+00 0. -1.
</event>
<event>
 7    1  0.2649985E-008  0.4614232E+02  0.7816164E-02  0.1320468E+00
        -11   -1    0    0    0    0  0.00000000000E+00  0.00000000000E+00  0.45593999997E+02  0.45594000000E+02  0.51100000000E-03 0. -1.
         11   -1    0    0    0    0 -0.00000000000E+00 -0.00000000000E+00 -0.45593999997E+02  0.45594000000E+02  0.51100000000E-03 0.  1.
    9900012    2    1    2    0    0  0.41382847722E+02  0.16214409053E+02 -0.73257309153E+01  0.46142317855E+02  0.10000000854E+02 0.  0.
         12    1    1    2    0    0 -0.41382847722E+02 -0.16214409053E+02  0.73257309153E+01  0.45045682145E+02  0.00000000000E+00 0. -1.
         11    1    3    3    0    0  0.54779498920E+00  0.13253648603E+01 -0.76214791904E+00  0.16240508227E+01  0.51100000000E-03 0.  1.
        -11    1    3    3    0    0  0.11470742896E+02  0.23018838414E+01 -0.43902845964E+01  0.12496047811E+02  0.51100000000E-03 0. -1.
        -12    1    3    3    0    0  0.29364309836E+02  0.12587160351E+02 -0.21732983999E+01  0.32022219221E+02  0.00000000000E+00 0.  1.
</event>
<event>
 7    1  0.2478637E-008  0.4614232E+02  0.7816164E-02  0.1320468E+00
        -11   -1    0    0    0    0  0.00000000000E+00  0.00000000000E+00  0.45593999997E+02  0.45594000000E+02  0.51100000000E-03 0.  1.
         11   -1    0    0    0    0 -0.00000000000E+00 -0.00000000000E+00 -0.45593999997E+02  0.45594000000E+02  0.51100000000E-03 0. -1.
    9900012    2    1    2    0    0 -0.14754469770E+02  0.13600252770E+02  0.40329297316E+02  0.46142317903E+02  0.10000001291E+02 0.  0.
         12    1    1    2    0    0  0.14754469770E+02 -0.13600252770E+02 -0.40329297316E+02  0.45045682097E+02  0.00000000000E+00 0. -1.
         11    1    3    3    0    0 -0.10433645749E+01  0.35171892696E+01  0.36544393942E+01  0.51782388455E+01  0.51100000000E-03 0. -1.
        -11    1    3    3    0    0 -0.79457624766E+01  0.93842060396E+01  0.22399602214E+02  0.25552703260E+02  0.51100000000E-03 0.  1.
        -12    1    3    3    0    0 -0.57653427185E+01  0.69885746074E+00  0.14275255708E+02  0.15411375797E+02  0.00000000000E+00 0.  1.
</event>
<event>
 7    1  0.2478637E-008  0.4614232E+02  0.7816164E-02  0.1320468E+00
        -11   -1    0    0    0    0  0.00000000000E+00  0.00000000000E+00  0.45593999997E+02  0.45594000000E+02  0.51100000000E-03 0. -1.
         11   -1    0    0    0    0 -0.00000000000E+00 -0.00000000000E+00 -0.45593999997E+02  0.45594000000E+02  0.51100000000E-03 0.  1.
    9900012    2    1    2    0    0  0.73113884765E+01  0.28324789087E+02 -0.34254392533E+02  0.46142317786E+02  0.10000000230E+02 0.  0.
         12    1    1    2    0    0 -0.73113884765E+01 -0.28324789087E+02  0.34254392533E+02  0.45045682214E+02  0.00000000000E+00 0. -1.
         11    1    3    3    0    0  0.40776296023E+00  0.97035467098E+00  0.61473014095E+00  0.12189143639E+01  0.51100000000E-03 0. -1.
        -11    1    3    3    0    0  0.31723576015E+01  0.17250748997E+02 -0.22271928585E+02  0.28349444384E+02  0.51100000000E-03 0.  1.
         12    1    3    3    0    0  0.37312679148E+01  0.10103685418E+02 -0.12597194089E+02  0.16573959038E+02  0.00000000000E+00 0. -1.
</event>
<event>
 7    1  0.2478637E-008  0.4614231E+02  0.7816164E-02  0.1320468E+00
        -11   -1    0    0    0    0  0.00000000000E+00  0.00000000000E+00  0.45593999997E+02  0.45594000000E+02  0.51100000000E-03 0. -1.
         11   -1    0    0    0    0 -0.00000000000E+00 -0.00000000000E+00 -0.45593999997E+02  0.45594000000E+02  0.51100000000E-03 0.  1.
    9900012    2    1    2    0    0 -0.39331886884E+02 -0.21863547774E+02  0.20253673423E+01  0.46142310306E+02  0.99999320189E+01 0.  0.
         12    1    1    2    0    0  0.39331886884E+02  0.21863547774E+02 -0.20253673423E+01  0.45045689694E+02  0.00000000000E+00 0. -1.
         11    1    3    3    0    0 -0.29693823983E+01 -0.14114072922E+01  0.12728536522E+01  0.35255437953E+01  0.51100000000E-03 0. -1.
        -11    1    3    3    0    0 -0.28495966718E+02 -0.18642653876E+02  0.31458988200E+01  0.34197446431E+02  0.51100000000E-03 0.  1.
         12    1    3    3    0    0 -0.78665377678E+01 -0.18094866054E+01 -0.23933851299E+01  0.84193200799E+01  0.00000000000E+00 0. -1.
</event>
<event>
 7    1  0.2478637E-008  0.4614232E+02  0.7816164E-02  0.1320468E+00
        -11   -1    0    0    0    0  0.00000000000E+00  0.00000000000E+00  0.45593999997E+02  0.45594000000E+02  0.51100000000E-03 0.  1.
         11   -1    0    0    0    0 -0.00000000000E+00 -0.00000000000E+00 -0.45593999997E+02  0.45594000000E+02  0.51100000000E-03 0. -1.
    9900012    2    1    2    0    0 -0.15628892514E+02  0.30703171952E+02  0.29020103735E+02  0.46142317966E+02  0.10000001868E+02 0.  0.
         12    1    1    2    0    0  0.15628892514E+02 -0.30703171952E+02 -0.29020103735E+02  0.45045682034E+02  0.00000000000E+00 0. -1.
         11    1    3    3    0    0 -0.28373371584E+01  0.10423348834E+02  0.72687623652E+01  0.13020429703E+02  0.51100000000E-03 0. -1.
        -11    1    3    3    0    0 -0.10634935933E+02  0.15173794372E+02  0.20101169837E+02  0.27338670908E+02  0.51100000000E-03 0.  1.
        -12    1    3    3    0    0 -0.21566194225E+01  0.51060287464E+01  0.16501715331E+01  0.57832173555E+01  0.00000000000E+00 0.  1.
</event>
<event>
 7    1  0.2478637E-008  0.4614232E+02  0.7816164E-02  0.1320468E+00
        -11   -1    0    0    0    0  0.00000000000E+00  0.00000000000E+00  0.45593999997E+02  0.45594000000E+02  0.51100000000E-03 0. -1.
         11   -1    0    0    0    0 -0.00000000000E+00 -0.00000000000E+00 -0.45593999997E+02  0.45594000000E+02  0.51100000000E-03 0.  1.
    9900012    2    1    2    0    0 -0.42398601501E+02 -0.13679222585E+02 -0.66596541016E+01  0.46142317271E+02  0.99999955309E+01 0.  0.
         12    1    1    2    0    0  0.42398601501E+02  0.13679222585E+02  0.66596541016E+01  0.45045682729E+02  0.00000000000E+00 0. -1.
         11    1    3    3    0    0 -0.25772466255E+01 -0.11898732447E+00 -0.68243790153E+00  0.26687225226E+01  0.51100000000E-03 0. -1.
        -11    1    3    3    0    0 -0.69838476419E+01  0.11133672479E+01 -0.47130821699E+00  0.70877250377E+01  0.51100000000E-03 0.  1.
         12    1    3    3    0    0 -0.32837507234E+02 -0.14673602508E+02 -0.55059079831E+01  0.36385869711E+02  0.00000000000E+00 0. -1.
</event>
<event>
 7    1  0.2478637E-008  0.4614232E+02  0.7816164E-02  0.1320468E+00
        -11   -1    0    0    0    0  0.00000000000E+00  0.00000000000E+00  0.45593999997E+02  0.45594000000E+02  0.51100000000E-03 0.  1.
         11   -1    0    0    0    0 -0.00000000000E+00 -0.00000000000E+00 -0.45593999997E+02  0.45594000000E+02  0.51100000000E-03 0. -1.
    9900012    2    1    2    0    0 -0.63555637543E+01  0.83808657999E+01  0.43800472469E+02  0.46142317735E+02  0.99999997631E+01 0.  0.
         12    1    1    2    0    0  0.63555637543E+01 -0.83808657999E+01 -0.43800472469E+02  0.45045682265E+02  0.00000000000E+00 0. -1.
         11    1    3    3    0    0 -0.38462567118E+01  0.67239193363E+01  0.17714630056E+02  0.19334241651E+02  0.51100000000E-03 0. -1.
        -11    1    3    3    0    0 -0.81391768504E+00 -0.26519964869E+00  0.31816718979E+00  0.91324885626E+00  0.51100000000E-03 0.  1.
         12    1    3    3    0    0 -0.16953893575E+01  0.19221461122E+01  0.25767675223E+02  0.25894827228E+02  0.00000000000E+00 0. -1.
</event>
<event>
 7    1  0.2478637E-008  0.4614232E+02  0.7816164E-02  0.1320468E+00
        -11   -1    0    0    0    0  0.00000000000E+00  0.00000000000E+00  0.45593999997E+02  0.45594000000E+02  0.51100000000E-03 0.  1.
         11   -1    0    0    0    0 -0.00000000000E+00 -0.00000000000E+00 -0.45593999997E+02  0.45594000000E+02  0.51100000000E-03 0. -1.
    9900012    2    1    2    0    0 -0.80721867530E+01  0.18463247427E+01  0.44278034713E+02  0.46142317942E+02  0.10000001653E+02 0.  0.
         12    1    1    2    0    0  0.80721867530E+01 -0.18463247427E+01 -0.44278034713E+02  0.45045682058E+02  0.00000000000E+00 0. -1.
         11    1    3    3    0    0 -0.31406848123E+01  0.16082681404E+01  0.13211812585E+02  0.13674882798E+02  0.51100000000E-03 0. -1.
        -11    1    3    3    0    0  0.67627237297E+00  0.25569087103E+01  0.16132645956E+02  0.16348008817E+02  0.51100000000E-03 0.  1.
         12    1    3    3    0    0 -0.56077743137E+01 -0.23188521080E+01  0.14933576171E+02  0.16119426327E+02  0.00000000000E+00 0. -1.
</event>
<event>
 7    1  0.2478637E-008  0.4614232E+02  0.7816164E-02  0.1320468E+00
        -11   -1    0    0    0    0  0.00000000000E+00  0.00000000000E+00  0.45593999997E+02  0.45594000000E+02  0.51100000000E-03 0. -1.
         11   -1    0    0    0    0 -0.00000000000E+00 -0.00000000000E+00 -0.45593999997E+02  0.45594000000E+02  0.51100000000E-03 0.  1.
    9900012    2    1    2    0    0  0.17501779012E+02 -0.37848727790E+01 -0.41333716623E+02  0.46142315851E+02  0.99999825838E+01 0.  0.
         12    1    1    2    0    0 -0.17501779012E+02  0.37848727790E+01  0.41333716623E+02  0.45045684149E+02  0.00000000000E+00 0. -1.
         11    1    3    3    0    0  0.70028982836E+01 -0.26732162915E+01 -0.23239533859E+02  0.24418488978E+02  0.51100000000E-03 0. -1.
        -11    1    3    3    0    0  0.24762385397E+01  0.22146532971E+01 -0.45329576827E+01  0.56199779489E+01  0.51100000000E-03 0.  1.
         12    1    3    3    0    0  0.80226421887E+01 -0.33263097846E+01 -0.13561225082E+02  0.16103848925E+02  0.00000000000E+00 0. -1.
</event>
<event>
 7    1  0.2478637E-008  0.4614232E+02  0.7816164E-02  0.1320468E+00
        -11   -1    0    0    0    0  0.00000000000E+00  0.00000000000E+00  0.45593999997E+02  0.45594000000E+02  0.51100000000E-03 0.  1.
         11   -1    0    0    0    0 -0.00000000000E+00 -0.00000000000E+00 -0.45593999997E+02  0.45594000000E+02  0.51100000000E-03 0. -1.
    9900012    2    1    2    0    0  0.23246498990E+00 -0.45537255665E+00  0.45042780432E+02  0.46142317929E+02  0.10000001534E+02 0.  0.
         12    1    1    2    0    0 -0.23246498990E+00  0.45537255665E+00 -0.45042780432E+02  0.45045682071E+02  0.00000000000E+00 0. -1.
         11    1    3    3    0    0  0.28064169573E+01  0.24632894362E+00  0.93768009828E+01  0.97908656930E+01  0.51100000000E-03 0.  1.
        -11    1    3    3    0    0  0.14603599452E+01  0.81713656936E+00  0.33038635016E+01  0.37034953275E+01  0.51100000000E-03 0. -1.
        -12    1    3    3    0    0 -0.40343119125E+01 -0.15188380696E+01  0.32362115948E+02  0.32647956909E+02  0.00000000000E+00 0.  1.
</event>
<event>
 7    1  0.2478637E-008  0.4614232E+02  0.7816164E-02  0.1320468E+00
        -11   -1    0    0    0    0  0.00000000000E+00  0.00000000000E+00  0.45593999997E+02  0.45594000000E+02  0.51100000000E-03 0.  1.
         11   -1    0    0    0    0 -0.00000000000E+00 -0.00000000000E+00 -0.45593999997E+02  0.45594000000E+02  0.51100000000E-03 0. -1.
    9900012    2    1    2    0    0  0.87290502289E+01  0.10711867073E+02  0.42873920151E+02  0.46142318263E+02  0.10000004576E+02 0.  0.
         12    1    1    2    0    0 -0.87290502289E+01 -0.10711867073E+02 -0.42873920151E+02  0.45045681737E+02  0.00000000000E+00 0. -1.
         11    1    3    3    0    0  0.17040526016E+01  0.45170653911E+01  0.21822774155E+02  0.22350417157E+02  0.51100000000E-03 0. -1.
        -11    1    3    3    0    0  0.58833867370E+01  0.67958149008E+01  0.20509260941E+02  0.22392568505E+02  0.51100000000E-03 0.  1.
         12    1    3    3    0    0  0.11416108903E+01 -0.60101321914E+00  0.54188505459E+00  0.13993326005E+01  0.00000000000E+00 0. -1.
</event>
<event>
 7    1  0.2478637E-008  0.4614232E+02  0.7816164E-02  0.1320468E+00
        -11   -1    0    0    0    0  0.00000000000E+00  0.00000000000E+00  0.45593999997E+02  0.45594000000E+02  0.51100000000E-03 0.  1.
         11   -1    0    0    0    0 -0.00000000000E+00 -0.00000000000E+00 -0.45593999997E+02  0.45594000000E+02  0.51100000000E-03 0. -1.
    9900012    2    1    2    0    0  0.31540228974E+02 -0.50023657164E+01  0.31769541527E+02  0.46142317906E+02  0.10000001322E+02 0.  0.
         12    1    1    2    0    0 -0.31540228974E+02  0.50023657164E+01 -0.31769541527E+02  0.45045682094E+02  0.00000000000E+00 0. -1.
         11    1    3    3    0    0  0.30154798333E+01  0.40953930959E-01  0.19600470370E+01  0.35967458206E+01  0.51100000000E-03 0.  1.
        -11    1    3    3    0    0  0.22855720101E+01 -0.17572878374E+01  0.71922024832E+01  0.77485273941E+01  0.51100000000E-03 0. -1.
         12    1    3    3    0    0  0.26239177130E+02 -0.32860318100E+01  0.22617292007E+02  0.34797044691E+02  0.00000000000E+00 0. -1.
</event>
<event>
 7    1  0.2478637E-008  0.4614232E+02  0.7816164E-02  0.1320468E+00
        -11   -1    0    0    0    0  0.00000000000E+00  0.00000000000E+00  0.45593999997E+02  0.45594000000E+02  0.51100000000E-03 0. -1.
         11   -1    0    0    0    0 -0.00000000000E+00 -0.00000000000E+00 -0.45593999997E+02  0.45594000000E+02  0.51100000000E-03 0.  1.
    9900012    2    1    2    0    0 -0.26767639053E+02 -0.10770605620E+02 -0.34591921160E+02  0.46142318127E+02  0.10000003333E+02 0.  0.
         12    1    1    2    0    0  0.26767639053E+02  0.10770605620E+02  0.34591921160E+02  0.45045681873E+02  0.00000000000E+00 0. -1.
         11    1    3    3    0    0 -0.21141596860E+01 -0.28135944029E+01 -0.63057659148E+01  0.72214035114E+01  0.51100000000E-03 0. -1.
        -11    1    3    3    0    0 -0.11826267420E+01  0.39493457512E+00 -0.25197865959E-01  0.12470824043E+01  0.51100000000E-03 0.  1.
        -12    1    3    3    0    0 -0.23470852625E+02 -0.83519457919E+01 -0.28260957379E+02  0.37673832211E+02  0.00000000000E+00 0.  1.
</event>
<event>
 7    1  0.2478637E-008  0.4614232E+02  0.7816164E-02  0.1320468E+00
        -11   -1    0    0    0    0  0.00000000000E+00  0.00000000000E+00  0.45593999997E+02  0.45594000000E+02  0.51100000000E-03 0.  1.
         11   -1    0    0    0    0 -0.00000000000E+00 -0.00000000000E+00 -0.45593999997E+02  0.45594000000E+02  0.51100000000E-03 0. -1.
    9900012    2    1    2    0    0 -0.33309722167E+02 -0.30212688852E+02 -0.26017008033E+01  0.46142323120E+02  0.10000048865E+02 0.  0.
         12    1    1    2    0    0  0.33309722167E+02  0.30212688852E+02  0.26017008033E+01  0.45045676880E+02  0.00000000000E+00 0. -1.
         11    1    3    3    0    0 -0.79332941009E+01 -0.51986312873E+01 -0.16735636375E+00  0.94863549884E+01  0.51100000000E-03 0.  1.
        -11    1    3    3    0    0 -0.39451315617E+01 -0.55525679727E+01 -0.35587700349E+01  0.76850451237E+01  0.51100000000E-03 0. -1.
         12    1    3    3    0    0 -0.21431296505E+02 -0.19461489592E+02  0.11244255953E+01  0.28970923008E+02  0.00000000000E+00 0. -1.
</event>
<event>
 7    1  0.2478637E-008  0.4614232E+02  0.7816164E-02  0.1320468E+00
        -11   -1    0    0    0    0  0.00000000000E+00  0.00000000000E+00  0.45593999997E+02  0.45594000000E+02  0.51100000000E-03 0. -1.
         11   -1    0    0    0    0 -0.00000000000E+00 -0.00000000000E+00 -0.45593999997E+02  0.45594000000E+02  0.51100000000E-03 0.  1.
    9900012    2    1    2    0    0 -0.14013345036E+02  0.36379748287E+02 -0.22566648356E+02  0.46142317159E+02  0.99999945122E+01 0.  0.
         12    1    1    2    0    0  0.14013345036E+02 -0.36379748287E+02  0.22566648356E+02  0.45045682841E+02  0.00000000000E+00 0. -1.
         11    1    3    3    0    0 -0.94999338486E+00  0.32005103157E+01 -0.60804588122E+00  0.33934457071E+01  0.51100000000E-03 0. -1.
        -11    1    3    3    0    0 -0.14487800363E+01  0.58435574913E+01 -0.37167246364E+00  0.60319373695E+01  0.51100000000E-03 0.  1.
        -12    1    3    3    0    0 -0.11614571615E+02  0.27335680480E+02 -0.21586930011E+02  0.36716934083E+02  0.00000000000E+00 0.  1.
</event>
<event>
 7    1  0.2478637E-008  0.4614232E+02  0.7816164E-02  0.1320468E+00
        -11   -1    0    0    0    0  0.00000000000E+00  0.00000000000E+00  0.45593999997E+02  0.45594000000E+02  0.51100000000E-03 0. -1.
         11   -1    0    0    0    0 -0.00000000000E+00 -0.00000000000E+00 -0.45593999997E+02  0.45594000000E+02  0.51100000000E-03 0.  1.
    9900012    2    1    2    0    0 -0.53215246691E+01 -0.99137196522E+01 -0.43617806211E+02  0.46142317845E+02  0.10000000768E+02 0.  0.
         12    1    1    2    0    0  0.53215246691E+01  0.99137196522E+01  0.43617806211E+02  0.45045682155E+02  0.00000000000E+00 0. -1.
         11    1    3    3    0    0 -0.66893930166E-01  0.27212628116E+00 -0.21647818480E+01  0.21828440671E+01  0.51100000000E-03 0. -1.
        -11    1    3    3    0    0 -0.25317939921E+01 -0.16379115179E+01 -0.25328278334E+02  0.25507144462E+02  0.51100000000E-03 0.  1.
        -12    1    3    3    0    0 -0.27228367469E+01 -0.85479344155E+01 -0.16124746029E+02  0.18452329317E+02  0.00000000000E+00 0.  1.
</event>
<event>
 7    1  0.2478637E-008  0.4614232E+02  0.7816164E-02  0.1320468E+00
        -11   -1    0    0    0    0  0.00000000000E+00  0.00000000000E+00  0.45593999997E+02  0.45594000000E+02  0.51100000000E-03 0.  1.
         11   -1    0    0    0    0 -0.00000000000E+00 -0.00000000000E+00 -0.45593999997E+02  0.45594000000E+02  0.51100000000E-03 0. -1.
    9900012    2    1    2    0    0 -0.31537848650E+02 -0.15229413697E+02 -0.28329180901E+02  0.46142318414E+02  0.10000005951E+02 0.  0.
         12    1    1    2    0    0  0.31537848650E+02  0.15229413697E+02  0.28329180901E+02  0.45045681586E+02  0.00000000000E+00 0. -1.
         11    1    3    3    0    0 -0.42592127354E+01 -0.52632130867E+01 -0.72760283938E+01  0.99389584248E+01  0.51100000000E-03 0. -1.
        -11    1    3    3    0    0 -0.64095099791E+01 -0.29217319769E+01 -0.27380845027E+01  0.75574759624E+01  0.51100000000E-03 0.  1.
         12    1    3    3    0    0 -0.20869125936E+02 -0.70444686337E+01 -0.18315068005E+02  0.28645884027E+02  0.00000000000E+00 0. -1.
</event>
<event>
 7    1  0.2478637E-008  0.4614232E+02  0.7816164E-02  0.1320468E+00
        -11   -1    0    0    0    0  0.00000000000E+00  0.00000000000E+00  0.45593999997E+02  0.45594000000E+02  0.51100000000E-03 0.  1.
         11   -1    0    0    0    0 -0.00000000000E+00 -0.00000000000E+00 -0.45593999997E+02  0.45594000000E+02  0.51100000000E-03 0. -1.
    9900012    2    1    2    0    0  0.20795723151E+02  0.32895820158E+02  0.22682954311E+02  0.46142317615E+02  0.99999986667E+01 0.  0.
         12    1    1    2    0    0 -0.20795723151E+02 -0.32895820158E+02 -0.22682954311E+02  0.45045682385E+02  0.00000000000E+00 0. -1.
         11    1    3    3    0    0  0.56740838724E+01  0.14134302714E+02  0.89830394391E+01  0.17682441541E+02  0.51100000000E-03 0. -1.
        -11    1    3    3    0    0  0.62678535137E+01  0.74163461991E+01  0.92135562023E+01  0.13385731088E+02  0.51100000000E-03 0.  1.
         12    1    3    3    0    0  0.88537857649E+01  0.11345171245E+02  0.44863586698E+01  0.15074144986E+02  0.00000000000E+00 0. -1.
</event>
<event>
 7    1  0.2478637E-008  0.4614232E+02  0.7816164E-02  0.1320468E+00
        -11   -1    0    0    0    0  0.00000000000E+00  0.00000000000E+00  0.45593999997E+02  0.45594000000E+02  0.51100000000E-03 0.  1.
         11   -1    0    0    0    0 -0.00000000000E+00 -0.00000000000E+00 -0.45593999997E+02  0.45594000000E+02  0.51100000000E-03 0. -1.
    9900012    2    1    2    0    0  0.34406581083E+02 -0.62752897158E+01  0.28388756975E+02  0.46142316462E+02  0.99999881524E+01 0.  0.
         12    1    1    2    0    0 -0.34406581083E+02  0.62752897158E+01 -0.28388756975E+02  0.45045683538E+02  0.00000000000E+00 0. -1.
         11    1    3    3    0    0  0.13916298784E+02 -0.67672426906E+00  0.16949388709E+02  0.21940900288E+02  0.51100000000E-03 0. -1.
        -11    1    3    3    0    0  0.13024931146E+02 -0.40576879615E+01  0.82148680735E+01  0.15924751825E+02  0.51100000000E-03 0.  1.
         12    1    3    3    0    0  0.74653511521E+01 -0.15408774852E+01  0.32245001930E+01  0.82766643489E+01  0.00000000000E+00 0. -1.
</event>
<event>
 7    1  0.2478637E-008  0.4614232E+02  0.7816164E-02  0.1320468E+00
        -11   -1    0    0    0    0  0.00000000000E+00  0.00000000000E+00  0.45593999997E+02  0.45594000000E+02  0.51100000000E-03 0. -1.
         11   -1    0    0    0    0 -0.00000000000E+00 -0.00000000000E+00 -0.45593999997E+02  0.45594000000E+02  0.51100000000E-03 0.  1.
    9900012    2    1    2    0    0 -0.29501554028E+02 -0.33742636942E+02  0.44951250932E+01  0.46142318881E+02  0.10000010209E+02 0.  0.
         12    1    1    2    0    0  0.29501554028E+02  0.33742636942E+02 -0.44951250932E+01  0.45045681119E+02  0.00000000000E+00 0. -1.
         11    1    3    3    0    0 -0.96519748421E+01 -0.79816566464E+01  0.47260593657E+00  0.12533587587E+02  0.51100000000E-03 0.  1.
        -11    1    3    3    0    0 -0.37960999861E+01 -0.33625905048E+01 -0.19120308538E+01  0.54197096098E+01  0.51100000000E-03 0. -1.
        -12    1    3    3    0    0 -0.16053479200E+02 -0.22398389791E+02  0.59345500104E+01  0.28189021684E+02  0.00000000000E+00 0.  1.
</event>
<event>
 7    1  0.2478637E-008  0.4614232E+02  0.7816164E-02  0.1320468E+00
        -11   -1    0    0    0    0  0.00000000000E+00  0.00000000000E+00  0.45593999997E+02  0.45594000000E+02  0.51100000000E-03 0. -1.
         11   -1    0    0    0    0 -0.00000000000E+00 -0.00000000000E+00 -0.45593999997E+02  0.45594000000E+02  0.51100000000E-03 0.  1.
    9900012    2    1    2    0    0  0.68712995842E+00  0.28808811508E+02 -0.34622159832E+02  0.46142315195E+02  0.99999766037E+01 0.  0.
         12    1    1    2    0    0 -0.68712995842E+00 -0.28808811508E+02  0.34622159832E+02  0.45045684805E+02  0.00000000000E+00 0. -1.
         11    1    3    3    0    0  0.43244288887E+00  0.26533091049E-01 -0.20517865939E+01  0.20970310787E+01  0.51100000000E-03 0. -1.
        -11    1    3    3    0    0  0.90069427065E+00  0.68376905763E+00 -0.15420153998E+00  0.11413013053E+01  0.51100000000E-03 0.  1.
        -12    1    3    3    0    0 -0.64600720110E+00  0.28098509359E+02 -0.32416171698E+02  0.42903982811E+02  0.00000000000E+00 0.  1.
</event>
<event>
 7    1  0.2478637E-008  0.4614232E+02  0.7816164E-02  0.1320468E+00
        -11   -1    0    0    0    0  0.00000000000E+00  0.00000000000E+00  0.45593999997E+02  0.45594000000E+02  0.51100000000E-03 0.  1.
         11   -1    0    0    0    0 -0.00000000000E+00 -0.00000000000E+00 -0.45593999997E+02  0.45594000000E+02  0.51100000000E-03 0. -1.
    9900012    2    1    2    0    0  0.32916265936E+02  0.53128447115E+01  0.30288719919E+02  0.46142318337E+02  0.10000005254E+02 0.  0.
         12    1    1    2    0    0 -0.32916265936E+02 -0.53128447115E+01 -0.30288719919E+02  0.45045681663E+02  0.00000000000E+00 0. -1.
         11    1    3    3    0    0  0.11739494810E+02  0.19516474896E+01  0.87515067314E+01  0.14772052554E+02  0.51100000000E-03 0. -1.
        -11    1    3    3    0    0  0.17307770322E+02 -0.18025618005E+00  0.14415477958E+02  0.22525483587E+02  0.51100000000E-03 0.  1.
         12    1    3    3    0    0  0.38690008040E+01  0.35414534020E+01  0.71217352293E+01  0.88447821961E+01  0.00000000000E+00 0. -1.
</event>
<event>
 7    1  0.2478637E-008  0.4614232E+02  0.7816164E-02  0.1320468E+00
        -11   -1    0    0    0    0  0.00000000000E+00  0.00000000000E+00  0.45593999997E+02  0.45594000000E+02  0.51100000000E-03 0.  1.
         11   -1    0    0    0    0 -0.00000000000E+00 -0.00000000000E+00 -0.45593999997E+02  0.45594000000E+02  0.51100000000E-03 0. -1.
    9900012    2    1    2    0    0 -0.17672715776E+02 -0.94158824437E+01  0.40350090006E+02  0.46142317759E+02  0.99999999798E+01 0.  0.
         12    1    1    2    0    0  0.17672715776E+02  0.94158824437E+01 -0.40350090006E+02  0.45045682241E+02  0.00000000000E+00 0. -1.
         11    1    3    3    0    0  0.88675078230E-01 -0.50413893952E+00 -0.32103757381E+00  0.60422241332E+00  0.51100000000E-03 0. -1.
        -11    1    3    3    0    0 -0.76803162542E+01 -0.39036128272E+01  0.23268283146E+02  0.24812062625E+02  0.51100000000E-03 0.  1.
        -12    1    3    3    0    0 -0.10081074600E+02 -0.50081306770E+01  0.17402844434E+02  0.20726032721E+02  0.00000000000E+00 0.  1.
</event>
<event>
 7    1  0.2478637E-008  0.4614231E+02  0.7816164E-02  0.1320468E+00
        -11   -1    0    0    0    0  0.00000000000E+00  0.00000000000E+00  0.45593999997E+02  0.45594000000E+02  0.51100000000E-03 0.  1.
         11   -1    0    0    0    0 -0.00000000000E+00 -0.00000000000E+00 -0.45593999997E+02  0.45594000000E+02  0.51100000000E-03 0. -1.
    9900012    2    1    2    0    0  0.20954036903E+02  0.31530615964E+02  0.24410293267E+02  0.46142314047E+02  0.99999661309E+01 0.  0.
         12    1    1    2    0    0 -0.20954036903E+02 -0.31530615964E+02 -0.24410293267E+02  0.45045685953E+02  0.00000000000E+00 0. -1.
         11    1    3    3    0    0  0.45224683326E+01  0.24095428321E+01  0.27937949618E+01  0.58364293047E+01  0.51100000000E-03 0. -1.
        -11    1    3    3    0    0  0.11530290843E+02  0.20763939084E+02  0.18574133988E+02  0.30151073395E+02  0.51100000000E-03 0.  1.
         12    1    3    3    0    0  0.49012777273E+01  0.83571340484E+01  0.30423643172E+01  0.10154811347E+02  0.00000000000E+00 0. -1.
</event>
<event>
 7    1  0.2478637E-008  0.4614232E+02  0.7816164E-02  0.1320468E+00
        -11   -1    0    0    0    0  0.00000000000E+00  0.00000000000E+00  0.45593999997E+02  0.45594000000E+02  0.51100000000E-03 0.  1.
         11   -1    0    0    0    0 -0.00000000000E+00 -0.00000000000E+00 -0.45593999997E+02  0.45594000000E+02  0.51100000000E-03 0. -1.
    9900012    2    1    2    0    0 -0.27037493954E+02  0.57001840353E+01  0.35575206775E+02  0.46142317472E+02  0.99999973605E+01 0.  0.
         12    1    1    2    0    0  0.27037493954E+02 -0.57001840353E+01 -0.35575206775E+02  0.45045682528E+02  0.00000000000E+00 0. -1.
         11    1    3    3    0    0 -0.11810741975E+02 -0.16979651264E+01  0.17999323039E+02  0.21595192559E+02  0.51100000000E-03 0. -1.
        -11    1    3    3    0    0 -0.69538637966E+01  0.47651633563E+01  0.93155177538E+01  0.12563513633E+02  0.51100000000E-03 0.  1.
        -12    1    3    3    0    0 -0.82728881827E+01  0.26329858054E+01  0.82603659826E+01  0.11983611280E+02  0.00000000000E+00 0.  1.
</event>
<event>
 7    1  0.2478637E-008  0.4614232E+02  0.7816164E-02  0.1320468E+00
        -11   -1    0    0    0    0  0.00000000000E+00  0.00000000000E+00  0.45593999997E+02  0.45594000000E+02  0.51100000000E-03 0. -1.
         11   -1    0    0    0    0 -0.00000000000E+00 -0.00000000000E+00 -0.45593999997E+02  0.45594000000E+02  0.51100000000E-03 0.  1.
    9900012    2    1    2    0    0 -0.30105175421E+01 -0.44211490831E+02 -0.80866765006E+01  0.46142317919E+02  0.10000001438E+02 0.  0.
         12    1    1    2    0    0  0.30105175421E+01  0.44211490831E+02  0.80866765006E+01  0.45045682081E+02  0.00000000000E+00 0. -1.
         11    1    3    3    0    0 -0.27752196166E+00 -0.16733041351E+02  0.10741592162E+01  0.16769779652E+02  0.51100000000E-03 0. -1.
        -11    1    3    3    0    0  0.92616650828E+00 -0.94344761578E+01 -0.26391303515E+01  0.98403320089E+01  0.51100000000E-03 0.  1.
         12    1    3    3    0    0 -0.36591620887E+01 -0.18043973322E+02 -0.65217053654E+01  0.19532206258E+02  0.00000000000E+00 0. -1.
</event>
<event>
 7    1  0.2478637E-008  0.4614232E+02  0.7816164E-02  0.1320468E+00
        -11   -1    0    0    0    0  0.00000000000E+00  0.00000000000E+00  0.45593999997E+02  0.45594000000E+02  0.51100000000E-03 0.  1.
         11   -1    0    0    0    0 -0.00000000000E+00 -0.00000000000E+00 -0.45593999997E+02  0.45594000000E+02  0.51100000000E-03 0. -1.
    9900012    2    1    2    0    0 -0.13785904678E+01 -0.41748484056E+02  0.16860518265E+02  0.46142317534E+02  0.99999979288E+01 0.  0.
         12    1    1    2    0    0  0.13785904678E+01  0.41748484056E+02 -0.16860518265E+02  0.45045682466E+02  0.00000000000E+00 0. -1.
         11    1    3    3    0    0  0.27107536492E+00 -0.51969307946E+00 -0.14335084484E+00  0.60341733165E+00  0.51100000000E-03 0. -1.
        -11    1    3    3    0    0  0.13957556979E-01 -0.17100654066E+02  0.11864559254E+02  0.20813465133E+02  0.51100000000E-03 0.  1.
         12    1    3    3    0    0 -0.16636233897E+01 -0.24128136911E+02  0.51393098560E+01  0.24725435069E+02  0.00000000000E+00 0. -1.
</event>
<event>
 7    1  0.2478637E-008  0.4614232E+02  0.7816164E-02  0.1320468E+00
        -11   -1    0    0    0    0  0.00000000000E+00  0.00000000000E+00  0.45593999997E+02  0.45594000000E+02  0.51100000000E-03 0.  1.
         11   -1    0    0    0    0 -0.00000000000E+00 -0.00000000000E+00 -0.45593999997E+02  0.45594000000E+02  0.51100000000E-03 0. -1.
    9900012    2    1    2    0    0  0.49223031133E+01  0.12737872417E+02  0.42925877994E+02  0.46142318040E+02  0.10000002543E+02 0.  0.
         12    1    1    2    0    0 -0.49223031133E+01 -0.12737872417E+02 -0.42925877994E+02  0.45045681960E+02  0.00000000000E+00 0. -1.
         11    1    3    3    0    0  0.18673887526E+01  0.27325333738E+00  0.60619382288E+01  0.63489293184E+01  0.51100000000E-03 0.  1.
        -11    1    3    3    0    0  0.45132445185E+01  0.33792476338E+01  0.11403661391E+02  0.12721327919E+02  0.51100000000E-03 0. -1.
        -12    1    3    3    0    0 -0.14583301578E+01  0.90853714462E+01  0.25460278375E+02  0.27072060802E+02  0.00000000000E+00 0.  1.
</event>
<event>
 7    1  0.2478637E-008  0.4614232E+02  0.7816164E-02  0.1320468E+00
        -11   -1    0    0    0    0  0.00000000000E+00  0.00000000000E+00  0.45593999997E+02  0.45594000000E+02  0.51100000000E-03 0.  1.
         11   -1    0    0    0    0 -0.00000000000E+00 -0.00000000000E+00 -0.45593999997E+02  0.45594000000E+02  0.51100000000E-03 0. -1.
    9900012    2    1    2    0    0 -0.32062317392E+02 -0.73388832635E+01  0.30777624902E+02  0.46142316537E+02  0.99999888340E+01 0.  0.
         12    1    1    2    0    0  0.32062317392E+02  0.73388832635E+01 -0.30777624902E+02  0.45045683463E+02  0.00000000000E+00 0. -1.
         11    1    3    3    0    0 -0.18497037475E+02 -0.74962018643E+01  0.16245102410E+02  0.25733961808E+02  0.51100000000E-03 0. -1.
        -11    1    3    3    0    0 -0.12649800606E+01 -0.88180395297E+00  0.30435821578E+00  0.15717464649E+01  0.51100000000E-03 0.  1.
        -12    1    3    3    0    0 -0.12300299856E+02  0.10391225537E+01  0.14228164275E+02  0.18836608264E+02  0.00000000000E+00 0.  1.
</event>
<event>
 7    1  0.2478637E-008  0.4614232E+02  0.7816164E-02  0.1320468E+00
        -11   -1    0    0    0    0  0.00000000000E+00  0.00000000000E+00  0.45593999997E+02  0.45594000000E+02  0.51100000000E-03 0. -1.
         11   -1    0    0    0    0 -0.00000000000E+00 -0.00000000000E+00 -0.45593999997E+02  0.45594000000E+02  0.51100000000E-03 0.  1.
    9900012    2    1    2    0    0 -0.43703875044E+02 -0.87103436334E+01  0.65737851568E+01  0.46142318394E+02  0.10000005773E+02 0.  0.
         12    1    1    2    0    0  0.43703875044E+02  0.87103436334E+01 -0.65737851568E+01  0.45045681606E+02  0.00000000000E+00 0. -1.
         11    1    3    3    0    0 -0.16954527854E+02 -0.67589608658E+00 -0.72817994498E+00  0.16983612589E+02  0.51100000000E-03 0. -1.
        -11    1    3    3    0    0 -0.12813446354E+02 -0.23774621323E+01  0.49251370310E+01  0.13931751817E+02  0.51100000000E-03 0.  1.
        -12    1    3    3    0    0 -0.13935900835E+02 -0.56569854145E+01  0.23768280708E+01  0.15226953988E+02  0.00000000000E+00 0.  1.
</event>
<event>
 7    1  0.2478637E-008  0.4614232E+02  0.7816164E-02  0.1320468E+00
        -11   -1    0    0    0    0  0.00000000000E+00  0.00000000000E+00  0.45593999997E+02  0.45594000000E+02  0.51100000000E-03 0.  1.
         11   -1    0    0    0    0 -0.00000000000E+00 -0.00000000000E+00 -0.45593999997E+02  0.45594000000E+02  0.51100000000E-03 0. -1.
    9900012    2    1    2    0    0  0.32883463204E+02 -0.20838755807E+02  0.22661369769E+02  0.46142316792E+02  0.99999911661E+01 0.  0.
         12    1    1    2    0    0 -0.32883463204E+02  0.20838755807E+02 -0.22661369769E+02  0.45045683208E+02  0.00000000000E+00 0. -1.
         11    1    3    3    0    0  0.76199447413E+01 -0.34526559292E+01  0.70632455384E+01  0.10948690726E+02  0.51100000000E-03 0. -1.
        -11    1    3    3    0    0  0.51093845263E+01 -0.50888051743E+01  0.62915949258E+00  0.72386179805E+01  0.51100000000E-03 0.  1.
        -12    1    3    3    0    0  0.20154133936E+02 -0.12297294703E+02  0.14968964738E+02  0.27955008085E+02  0.00000000000E+00 0.  1.
</event>
<event>
 7    1  0.2478637E-008  0.4614232E+02  0.7816164E-02  0.1320468E+00
        -11   -1    0    0    0    0  0.00000000000E+00  0.00000000000E+00  0.45593999997E+02  0.45594000000E+02  0.51100000000E-03 0. -1.
         11   -1    0    0    0    0 -0.00000000000E+00 -0.00000000000E+00 -0.45593999997E+02  0.45594000000E+02  0.51100000000E-03 0.  1.
    9900012    2    1    2    0    0 -0.19514965621E+01  0.44187489479E+02 -0.85305712004E+01  0.46142320848E+02  0.10000028145E+02 0.  0.
         12    1    1    2    0    0  0.19514965621E+01 -0.44187489479E+02  0.85305712004E+01  0.45045679152E+02  0.00000000000E+00 0. -1.
         11    1    3    3    0    0 -0.85574183221E+00  0.13313700946E+01  0.31679452329E+00  0.16140630233E+01  0.51100000000E-03 0. -1.
        -11    1    3    3    0    0 -0.42724091691E+01  0.22478984862E+02 -0.28991209359E+01  0.23064326198E+02  0.51100000000E-03 0.  1.
         12    1    3    3    0    0  0.31766544393E+01  0.20377134523E+02 -0.59482447878E+01  0.21463931626E+02  0.00000000000E+00 0. -1.
</event>
<event>
 7    1  0.2478637E-008  0.4614231E+02  0.7816164E-02  0.1320468E+00
        -11   -1    0    0    0    0  0.00000000000E+00  0.00000000000E+00  0.45593999997E+02  0.45594000000E+02  0.51100000000E-03 0.  1.
         11   -1    0    0    0    0 -0.00000000000E+00 -0.00000000000E+00 -0.45593999997E+02  0.45594000000E+02  0.51100000000E-03 0. -1.
    9900012    2    1    2    0    0  0.20696610416E+02  0.27461161689E+02  0.29097230339E+02  0.46142313221E+02  0.99999585986E+01 0.  0.
         12    1    1    2    0    0 -0.20696610416E+02 -0.27461161689E+02 -0.29097230339E+02  0.45045686779E+02  0.00000000000E+00 0. -1.
         11    1    3    3    0    0  0.35978609696E+01  0.52355821521E+01  0.74055394371E+01  0.97569430994E+01  0.51100000000E-03 0. -1.
        -11    1    3    3    0    0  0.89891983192E+01  0.84803142667E+01  0.13984803521E+02  0.18662693972E+02  0.51100000000E-03 0.  1.
         12    1    3    3    0    0  0.81095511271E+01  0.13745265270E+02  0.77068873806E+01  0.17722676150E+02  0.00000000000E+00 0. -1.
</event>
<event>
 7    1  0.2478637E-008  0.4614232E+02  0.7816164E-02  0.1320468E+00
        -11   -1    0    0    0    0  0.00000000000E+00  0.00000000000E+00  0.45593999997E+02  0.45594000000E+02  0.51100000000E-03 0.  1.
         11   -1    0    0    0    0 -0.00000000000E+00 -0.00000000000E+00 -0.45593999997E+02  0.45594000000E+02  0.51100000000E-03 0. -1.
    9900012    2    1    2    0    0  0.20033261503E+02 -0.39742004824E+02 -0.69537801370E+01  0.46142316832E+02  0.99999915280E+01 0.  0.
         12    1    1    2    0    0 -0.20033261503E+02  0.39742004824E+02  0.69537801370E+01  0.45045683168E+02  0.00000000000E+00 0. -1.
         11    1    3    3    0    0  0.99346265210E+00 -0.39547157533E+01 -0.16371692479E+01  0.43939808987E+01  0.51100000000E-03 0. -1.
        -11    1    3    3    0    0  0.14590457330E+02 -0.32545416818E+02 -0.30555034997E+01  0.35796951027E+02  0.51100000000E-03 0.  1.
         12    1    3    3    0    0  0.44493415212E+01 -0.32418722526E+01 -0.22611073894E+01  0.59513849061E+01  0.00000000000E+00 0. -1.
</event>
<event>
 7    1  0.2478637E-008  0.4614232E+02  0.7816164E-02  0.1320468E+00
        -11   -1    0    0    0    0  0.00000000000E+00  0.00000000000E+00  0.45593999997E+02  0.45594000000E+02  0.51100000000E-03 0. -1.
         11   -1    0    0    0    0 -0.00000000000E+00 -0.00000000000E+00 -0.45593999997E+02  0.45594000000E+02  0.51100000000E-03 0.  1.
    9900012    2    1    2    0    0 -0.40794743535E+02 -0.17376234833E+02 -0.79352879188E+01  0.46142318394E+02  0.10000005770E+02 0.  0.
         12    1    1    2    0    0  0.40794743535E+02  0.17376234833E+02  0.79352879188E+01  0.45045681606E+02  0.00000000000E+00 0. -1.
         11    1    3    3    0    0 -0.35923963963E+02 -0.13036615076E+02 -0.63582465429E+01  0.38741603204E+02  0.51100000000E-03 0.  1.
        -11    1    3    3    0    0 -0.57090800108E+00 -0.38012324255E+00 -0.13928909865E+01  0.15526027137E+01  0.51100000000E-03 0. -1.
        -12    1    3    3    0    0 -0.42998715702E+01 -0.39594965143E+01 -0.18415038937E+00  0.58481124760E+01  0.00000000000E+00 0.  1.
</event>
<event>
 7    1  0.2478637E-008  0.4614232E+02  0.7816164E-02  0.1320468E+00
        -11   -1    0    0    0    0  0.00000000000E+00  0.00000000000E+00  0.45593999997E+02  0.45594000000E+02  0.51100000000E-03 0.  1.
         11   -1    0    0    0    0 -0.00000000000E+00 -0.00000000000E+00 -0.45593999997E+02  0.45594000000E+02  0.51100000000E-03 0. -1.
    9900012    2    1    2    0    0  0.12688830734E+02  0.35734002093E+02  0.24314360034E+02  0.46142318355E+02  0.10000005418E+02 0.  0.
         12    1    1    2    0    0 -0.12688830734E+02 -0.35734002093E+02 -0.24314360034E+02  0.45045681645E+02  0.00000000000E+00 0. -1.
         11    1    3    3    0    0  0.39883133554E+01  0.69132923161E+01  0.16188649004E+01  0.81437692683E+01  0.51100000000E-03 0. -1.
        -11    1    3    3    0    0  0.48564153586E+01  0.85604344380E+01  0.78448217335E+01  0.12585985706E+02  0.51100000000E-03 0.  1.
         12    1    3    3    0    0  0.38441020200E+01  0.20260275339E+02  0.14850673400E+02  0.25412563381E+02  0.00000000000E+00 0. -1.
</event>
<event>
 7    1  0.2478637E-008  0.4614232E+02  0.7816164E-02  0.1320468E+00
        -11   -1    0    0    0    0  0.00000000000E+00  0.00000000000E+00  0.45593999997E+02  0.45594000000E+02  0.51100000000E-03 0.  1.
         11   -1    0    0    0    0 -0.00000000000E+00 -0.00000000000E+00 -0.45593999997E+02  0.45594000000E+02  0.51100000000E-03 0. -1.
    9900012    2    1    2    0    0  0.77389112018E+01  0.29588875644E+01  0.44277167731E+02  0.46142319358E+02  0.10000014562E+02 0.  0.
         12    1    1    2    0    0 -0.77389112018E+01 -0.29588875644E+01 -0.44277167731E+02  0.45045680642E+02  0.00000000000E+00 0. -1.
         11    1    3    3    0    0 -0.36959564357E+00  0.18993905143E+01  0.16788283194E+01  0.25617864963E+01  0.51100000000E-03 0. -1.
        -11    1    3    3    0    0  0.39476698657E+01  0.12027441016E+01  0.11773642314E+02  0.12475950639E+02  0.51100000000E-03 0.  1.
        -12    1    3    3    0    0  0.41608369797E+01 -0.14324705158E+00  0.30824697098E+02  0.31104582223E+02  0.00000000000E+00 0.  1.
</event>
<event>
 7    1  0.2478637E-008  0.4614232E+02  0.7816164E-02  0.1320468E+00
        -11   -1    0    0    0    0  0.00000000000E+00  0.00000000000E+00  0.45593999997E+02  0.45594000000E+02  0.51100000000E-03 0.  1.
         11   -1    0    0    0    0 -0.00000000000E+00 -0.00000000000E+00 -0.45593999997E+02  0.45594000000E+02  0.51100000000E-03 0. -1.
    9900012    2    1    2    0    0 -0.72513479996E+01  0.26012042884E+02  0.36054196012E+02  0.46142317933E+02  0.10000001563E+02 0.  0.
         12    1    1    2    0    0  0.72513479996E+01 -0.26012042884E+02 -0.36054196012E+02  0.45045682067E+02  0.00000000000E+00 0. -1.
         11    1    3    3    0    0 -0.44335694796E+00  0.68655555009E+01  0.36698139885E+01  0.77974324422E+01  0.51100000000E-03 0. -1.
        -11    1    3    3    0    0 -0.51277850359E+01  0.17018115220E+02  0.28923866250E+02  0.33948497229E+02  0.51100000000E-03 0.  1.
         12    1    3    3    0    0 -0.16802060158E+01  0.21283721638E+01  0.34605157741E+01  0.43963882615E+01  0.00000000000E+00 0. -1.
</event>
<event>
 7    1  0.2478637E-008  0.4614232E+02  0.7816164E-02  0.1320468E+00
        -11   -1    0    0    0    0  0.00000000000E+00  0.00000000000E+00  0.45593999997E+02  0.45594000000E+02  0.51100000000E-03 0.  1.
         11   -1    0    0    0    0 -0.00000000000E+00 -0.00000000000E+00 -0.45593999997E+02  0.45594000000E+02  0.51100000000E-03 0. -1.
    9900012    2    1    2    0    0  0.32123664359E+02  0.28359332400E+02  0.13889994912E+02  0.46142317580E+02  0.99999983513E+01 0.  0.
         12    1    1    2    0    0 -0.32123664359E+02 -0.28359332400E+02 -0.13889994912E+02  0.45045682420E+02  0.00000000000E+00 0. -1.
         11    1    3    3    0    0  0.25704609634E+01  0.53925357297E+01  0.31455360473E+01  0.67513782627E+01  0.51100000000E-03 0. -1.
        -11    1    3    3    0    0  0.20761250329E+02  0.16385277821E+02  0.47247586417E+01  0.26866897644E+02  0.51100000000E-03 0.  1.
        -12    1    3    3    0    0  0.87919530662E+01  0.65815188490E+01  0.60197002230E+01  0.12524041674E+02  0.00000000000E+00 0.  1.
</event>
<event>
 7    1  0.2478637E-008  0.4614232E+02  0.7816164E-02  0.1320468E+00
        -11   -1    0    0    0    0  0.00000000000E+00  0.00000000000E+00  0.45593999997E+02  0.45594000000E+02  0.51100000000E-03 0.  1.
         11   -1    0    0    0    0 -0.00000000000E+00 -0.00000000000E+00 -0.45593999997E+02  0.45594000000E+02  0.51100000000E-03 0. -1.
    9900012    2    1    2    0    0  0.17848678937E+02 -0.41349733596E+02 -0.85882491822E+00  0.46142318870E+02  0.10000010107E+02 0.  0.
         12    1    1    2    0    0 -0.17848678937E+02  0.41349733596E+02  0.85882491822E+00  0.45045681130E+02  0.00000000000E+00 0. -1.
         11    1    3    3    0    0  0.63844715932E+01 -0.77400020966E+01 -0.23746531025E+01  0.10310581341E+02  0.51100000000E-03 0. -1.
        -11    1    3    3    0    0  0.59779643929E+01 -0.16815762392E+02 -0.14966080785E+01  0.17909376290E+02  0.51100000000E-03 0.  1.
        -12    1    3    3    0    0  0.54862429513E+01 -0.16793969107E+02  0.30124362627E+01  0.17922361238E+02  0.00000000000E+00 0.  1.
</event>
<event>
 7    1  0.2478637E-008  0.4614232E+02  0.7816164E-02  0.1320468E+00
        -11   -1    0    0    0    0  0.00000000000E+00  0.00000000000E+00  0.45593999997E+02  0.45594000000E+02  0.51100000000E-03 0. -1.
         11   -1    0    0    0    0 -0.00000000000E+00 -0.00000000000E+00 -0.45593999997E+02  0.45594000000E+02  0.51100000000E-03 0.  1.
    9900012    2    1    2    0    0 -0.39516842364E+01 -0.14641252991E+02 -0.42416169524E+02  0.46142317248E+02  0.99999953246E+01 0.  0.
         12    1    1    2    0    0  0.39516842364E+01  0.14641252991E+02  0.42416169524E+02  0.45045682752E+02  0.00000000000E+00 0. -1.
         11    1    3    3    0    0 -0.52305187934E+00  0.13110877882E+01 -0.13884431872E+01  0.19799770711E+01  0.51100000000E-03 0. -1.
        -11    1    3    3    0    0 -0.72181243091E+00 -0.30723180569E+01 -0.70272763826E+01  0.77034255397E+01  0.51100000000E-03 0.  1.
         12    1    3    3    0    0 -0.27068199262E+01 -0.12880022723E+02 -0.34000449954E+02  0.36458914638E+02  0.00000000000E+00 0. -1.
</event>
<event>
 7    1  0.2478637E-008  0.4614232E+02  0.7816164E-02  0.1320468E+00
        -11   -1    0    0    0    0  0.00000000000E+00  0.00000000000E+00  0.45593999997E+02  0.45594000000E+02  0.51100000000E-03 0.  1.
         11   -1    0    0    0    0 -0.00000000000E+00 -0.00000000000E+00 -0.45593999997E+02  0.45594000000E+02  0.51100000000E-03 0. -1.
    9900012    2    1    2    0    0  0.20799241146E+02 -0.33254302783E+02  0.22150759689E+02  0.46142320511E+02  0.10000025078E+02 0.  0.
         12    1    1    2    0    0 -0.20799241146E+02  0.33254302783E+02 -0.22150759689E+02  0.45045679489E+02  0.00000000000E+00 0. -1.
         11    1    3    3    0    0  0.13464685270E+02 -0.18114332011E+02  0.11908285350E+02  0.25519287488E+02  0.51100000000E-03 0. -1.
        -11    1    3    3    0    0  0.78870436485E+01 -0.12575702667E+02  0.10179191804E+02  0.17999158345E+02  0.51100000000E-03 0.  1.
         12    1    3    3    0    0 -0.55248777289E+00 -0.25642681043E+01  0.63282534988E-01  0.26238746786E+01  0.00000000000E+00 0. -1.
</event>
<event>
 7    1  0.2478637E-008  0.4614232E+02  0.7816164E-02  0.1320468E+00
        -11   -1    0    0    0    0  0.00000000000E+00  0.00000000000E+00  0.45593999997E+02  0.45594000000E+02  0.51100000000E-03 0. -1.
         11   -1    0    0    0    0 -0.00000000000E+00 -0.00000000000E+00 -0.45593999997E+02  0.45594000000E+02  0.51100000000E-03 0.  1.
    9900012    2    1    2    0    0 -0.78754021004E+01 -0.40786664335E+02 -0.17422380704E+02  0.46142319905E+02  0.10000019547E+02 0.  0.
         12    1    1    2    0    0  0.78754021004E+01  0.40786664335E+02  0.17422380704E+02  0.45045680095E+02  0.00000000000E+00 0. -1.
         11    1    3    3    0    0 -0.25829735978E+01 -0.67024871930E+01 -0.41335836397E+01  0.82874363434E+01  0.51100000000E-03 0. -1.
        -11    1    3    3    0    0 -0.54787135577E+01 -0.34145701926E+02 -0.13855791341E+02  0.37254908620E+02  0.51100000000E-03 0.  1.
         12    1    3    3    0    0  0.18628505512E+00  0.61524784147E-01  0.56699427679E+00  0.59997494176E+00  0.00000000000E+00 0. -1.
</event>
<event>
 7    1  0.2478637E-008  0.4614232E+02  0.7816164E-02  0.1320468E+00
        -11   -1    0    0    0    0  0.00000000000E+00  0.00000000000E+00  0.45593999997E+02  0.45594000000E+02  0.51100000000E-03 0.  1.
         11   -1    0    0    0    0 -0.00000000000E+00 -0.00000000000E+00 -0.45593999997E+02  0.45594000000E+02  0.51100000000E-03 0. -1.
    9900012    2    1    2    0    0 -0.61221104873E+01  0.28490578613E+01  0.44536680531E+02  0.46142320071E+02  0.10000021063E+02 0.  0.
         12    1    1    2    0    0  0.61221104873E+01 -0.28490578613E+01 -0.44536680531E+02  0.45045679929E+02  0.00000000000E+00 0. -1.
         11    1    3    3    0    0 -0.32672388982E+01  0.61930702409E+00  0.17333164101E+02  0.17649276733E+02  0.51100000000E-03 0. -1.
        -11    1    3    3    0    0 -0.28260161179E+01  0.34416955889E+01  0.26868869432E+02  0.27235414087E+02  0.51100000000E-03 0.  1.
         12    1    3    3    0    0 -0.28855471177E-01 -0.12119447518E+01  0.33464699809E+00  0.12576292510E+01  0.00000000000E+00 0. -1.
</event>
<event>
 7    1  0.2478637E-008  0.4614232E+02  0.7816164E-02  0.1320468E+00
        -11   -1    0    0    0    0  0.00000000000E+00  0.00000000000E+00  0.45593999997E+02  0.45594000000E+02  0.51100000000E-03 0.  1.
         11   -1    0    0    0    0 -0.00000000000E+00 -0.00000000000E+00 -0.45593999997E+02  0.45594000000E+02  0.51100000000E-03 0. -1.
    9900012    2    1    2    0    0  0.16679589701E+02 -0.23079931173E+02  0.34903031775E+02  0.46142316937E+02  0.99999924855E+01 0.  0.
         12    1    1    2    0    0 -0.16679589701E+02  0.23079931173E+02 -0.34903031775E+02  0.45045683063E+02  0.00000000000E+00 0. -1.
         11    1    3    3    0    0  0.90449668751E+01 -0.49809462417E+01  0.14330323742E+02  0.17662939451E+02  0.51100000000E-03 0. -1.
        -11    1    3    3    0    0  0.12151168121E+01 -0.30931240479E+01  0.27595951527E+01  0.43196401367E+01  0.51100000000E-03 0.  1.
         12    1    3    3    0    0  0.64195060133E+01 -0.15005860884E+02  0.17813112880E+02  0.24159737349E+02  0.00000000000E+00 0. -1.
</event>
<event>
 7    1  0.2478637E-008  0.4614232E+02  0.7816164E-02  0.1320468E+00
        -11   -1    0    0    0    0  0.00000000000E+00  0.00000000000E+00  0.45593999997E+02  0.45594000000E+02  0.51100000000E-03 0.  1.
         11   -1    0    0    0    0 -0.00000000000E+00 -0.00000000000E+00 -0.45593999997E+02  0.45594000000E+02  0.51100000000E-03 0. -1.
    9900012    2    1    2    0    0 -0.30731313093E+02 -0.28325889069E+01  0.32812746243E+02  0.46142317850E+02  0.10000000815E+02 0.  0.
         12    1    1    2    0    0  0.30731313093E+02  0.28325889069E+01 -0.32812746243E+02  0.45045682150E+02  0.00000000000E+00 0. -1.
         11    1    3    3    0    0 -0.12029616516E+01 -0.22528499003E+00  0.47023805307E+01  0.48590382771E+01  0.51100000000E-03 0. -1.
        -11    1    3    3    0    0 -0.12184991652E+02  0.14420660266E+01  0.13541961439E+02  0.18273978655E+02  0.51100000000E-03 0.  1.
         12    1    3    3    0    0 -0.17343359789E+02 -0.40493699435E+01  0.14568404273E+02  0.23009300919E+02  0.00000000000E+00 0. -1.
</event>
<event>
 7    1  0.2478637E-008  0.4614232E+02  0.7816164E-02  0.1320468E+00
        -11   -1    0    0    0    0  0.00000000000E+00  0.00000000000E+00  0.45593999997E+02  0.45594000000E+02  0.51100000000E-03 0.  1.
         11   -1    0    0    0    0 -0.00000000000E+00 -0.00000000000E+00 -0.45593999997E+02  0.45594000000E+02  0.51100000000E-03 0. -1.
    9900012    2    1    2    0    0 -0.30426560583E+01 -0.31998964457E+02  0.31558231330E+02  0.46142318221E+02  0.10000004193E+02 0.  0.
         12    1    1    2    0    0  0.30426560583E+01  0.31998964457E+02 -0.31558231330E+02  0.45045681779E+02  0.00000000000E+00 0. -1.
         11    1    3    3    0    0 -0.70163285738E+00 -0.24610364323E+02  0.18640577801E+02  0.30880956296E+02  0.51100000000E-03 0.  1.
        -11    1    3    3    0    0 -0.79160537585E+00 -0.35200418334E+00  0.20108112309E+01  0.21894995052E+01  0.51100000000E-03 0. -1.
        -12    1    3    3    0    0 -0.15494178251E+01 -0.70365959514E+01  0.10906842299E+02  0.13071862420E+02  0.00000000000E+00 0.  1.
</event>
<event>
 7    1  0.2478637E-008  0.4614232E+02  0.7816164E-02  0.1320468E+00
        -11   -1    0    0    0    0  0.00000000000E+00  0.00000000000E+00  0.45593999997E+02  0.45594000000E+02  0.51100000000E-03 0.  1.
         11   -1    0    0    0    0 -0.00000000000E+00 -0.00000000000E+00 -0.45593999997E+02  0.45594000000E+02  0.51100000000E-03 0. -1.
    9900012    2    1    2    0    0  0.21844297028E+02 -0.34284723174E+02  0.19403558274E+02  0.46142316195E+02  0.99999857146E+01 0.  0.
         12    1    1    2    0    0 -0.21844297028E+02  0.34284723174E+02 -0.19403558274E+02  0.45045683805E+02  0.00000000000E+00 0. -1.
         11    1    3    3    0    0  0.49978231660E+01 -0.46866222073E+01  0.35255295675E+01  0.77053243348E+01  0.51100000000E-03 0. -1.
        -11    1    3    3    0    0  0.87385116136E+00 -0.54001075168E+01  0.19689065286E+00  0.54738965313E+01  0.51100000000E-03 0.  1.
        -12    1    3    3    0    0  0.15972622701E+02 -0.24197993450E+02  0.15681138054E+02  0.32963095328E+02  0.00000000000E+00 0.  1.
</event>
<event>
 7    1  0.2478637E-008  0.4614232E+02  0.7816164E-02  0.1320468E+00
        -11   -1    0    0    0    0  0.00000000000E+00  0.00000000000E+00  0.45593999997E+02  0.45594000000E+02  0.51100000000E-03 0. -1.
         11   -1    0    0    0    0 -0.00000000000E+00 -0.00000000000E+00 -0.45593999997E+02  0.45594000000E+02  0.51100000000E-03 0.  1.
    9900012    2    1    2    0    0 -0.35492101796E+02  0.15845495294E+02 -0.22767181076E+02  0.46142317130E+02  0.99999942493E+01 0.  0.
         12    1    1    2    0    0  0.35492101796E+02 -0.15845495294E+02  0.22767181076E+02  0.45045682870E+02  0.00000000000E+00 0. -1.
         11    1    3    3    0    0 -0.20703826227E+00  0.10889494394E+01 -0.24548515418E+01  0.26935055369E+01  0.51100000000E-03 0. -1.
        -11    1    3    3    0    0 -0.76444327911E+01  0.38429586044E+01 -0.30603017921E+01  0.90868658433E+01  0.51100000000E-03 0.  1.
         12    1    3    3    0    0 -0.27640630743E+02  0.10913587250E+02 -0.17252027743E+02  0.34361945750E+02  0.00000000000E+00 0. -1.
</event>
<event>
 7    1  0.2478637E-008  0.4614232E+02  0.7816164E-02  0.1320468E+00
        -11   -1    0    0    0    0  0.00000000000E+00  0.00000000000E+00  0.45593999997E+02  0.45594000000E+02  0.51100000000E-03 0.  1.
         11   -1    0    0    0    0 -0.00000000000E+00 -0.00000000000E+00 -0.45593999997E+02  0.45594000000E+02  0.51100000000E-03 0. -1.
    9900012    2    1    2    0    0 -0.34674851444E+02  0.22398750850E+02  0.18029534808E+02  0.46142317769E+02  0.10000000070E+02 0.  0.
         12    1    1    2    0    0  0.34674851444E+02 -0.22398750850E+02 -0.18029534808E+02  0.45045682231E+02  0.00000000000E+00 0. -1.
         11    1    3    3    0    0 -0.28373285371E+01 -0.15742411165E+00 -0.42582565226E-03  0.28416924571E+01  0.51100000000E-03 0. -1.
        -11    1    3    3    0    0 -0.64364885782E+01  0.42804185158E+01  0.13721401465E+01  0.78506774695E+01  0.51100000000E-03 0.  1.
        -12    1    3    3    0    0 -0.25401034328E+02  0.18275756446E+02  0.16657820488E+02  0.35449947842E+02  0.00000000000E+00 0.  1.
</event>
<event>
 7    1  0.2478637E-008  0.4614232E+02  0.7816164E-02  0.1320468E+00
        -11   -1    0    0    0    0  0.00000000000E+00  0.00000000000E+00  0.45593999997E+02  0.45594000000E+02  0.51100000000E-03 0. -1.
         11   -1    0    0    0    0 -0.00000000000E+00 -0.00000000000E+00 -0.45593999997E+02  0.45594000000E+02  0.51100000000E-03 0.  1.
    9900012    2    1    2    0    0 -0.45581947282E+01  0.12449273652E+02 -0.43050575248E+02  0.46142316713E+02  0.99999904397E+01 0.  0.
         12    1    1    2    0    0  0.45581947282E+01 -0.12449273652E+02  0.43050575248E+02  0.45045683287E+02  0.00000000000E+00 0. -1.
         11    1    3    3    0    0 -0.47850580894E+01  0.32715084626E+01 -0.24156775607E+02  0.24842490948E+02  0.51100000000E-03 0. -1.
        -11    1    3    3    0    0 -0.10980859394E+01  0.33904527860E+01 -0.99113982352E+01  0.10532652945E+02  0.51100000000E-03 0.  1.
         12    1    3    3    0    0  0.13249493005E+01  0.57873124032E+01 -0.89824014059E+01  0.10767172819E+02  0.00000000000E+00 0. -1.
</event>
<event>
 7    1  0.2478637E-008  0.4614232E+02  0.7816164E-02  0.1320468E+00
        -11   -1    0    0    0    0  0.00000000000E+00  0.00000000000E+00  0.45593999997E+02  0.45594000000E+02  0.51100000000E-03 0. -1.
         11   -1    0    0    0    0 -0.00000000000E+00 -0.00000000000E+00 -0.45593999997E+02  0.45594000000E+02  0.51100000000E-03 0.  1.
    9900012    2    1    2    0    0 -0.22549827042E+02 -0.33376578764E+02 -0.20164891055E+02  0.46142317178E+02  0.99999946858E+01 0.  0.
         12    1    1    2    0    0  0.22549827042E+02  0.33376578764E+02  0.20164891055E+02  0.45045682822E+02  0.00000000000E+00 0. -1.
         11    1    3    3    0    0 -0.13848013937E+02 -0.11888303953E+02 -0.94445809795E+01  0.20549923869E+02  0.51100000000E-03 0. -1.
        -11    1    3    3    0    0 -0.50134609496E+01 -0.13408634293E+02 -0.73582803111E+01  0.16095668787E+02  0.51100000000E-03 0.  1.
         12    1    3    3    0    0 -0.36883521559E+01 -0.80796405184E+01 -0.33620297640E+01  0.94967245231E+01  0.00000000000E+00 0. -1.
</event>
<event>
 7    1  0.2478637E-008  0.4614232E+02  0.7816164E-02  0.1320468E+00
        -11   -1    0    0    0    0  0.00000000000E+00  0.00000000000E+00  0.45593999997E+02  0.45594000000E+02  0.51100000000E-03 0.  1.
         11   -1    0    0    0    0 -0.00000000000E+00 -0.00000000000E+00 -0.45593999997E+02  0.45594000000E+02  0.51100000000E-03 0. -1.
    9900012    2    1    2    0    0 -0.24140734094E+02  0.31472515806E+02  0.21349922252E+02  0.46142317921E+02  0.10000001457E+02 0.  0.
         12    1    1    2    0    0  0.24140734094E+02 -0.31472515806E+02 -0.21349922252E+02  0.45045682079E+02  0.00000000000E+00 0. -1.
         11    1    3    3    0    0 -0.84197347340E+00  0.16001829925E+00  0.19302429250E+00  0.87851227915E+00  0.51100000000E-03 0. -1.
        -11    1    3    3    0    0 -0.30757866254E+01  0.61157974910E+01  0.39019967739E+00  0.68567994258E+01  0.51100000000E-03 0.  1.
        -12    1    3    3    0    0 -0.20222973995E+02  0.25196700016E+02  0.20766698282E+02  0.38407006216E+02  0.00000000000E+00 0.  1.
</event>
<event>
 7    1  0.2478637E-008  0.4614232E+02  0.7816164E-02  0.1320468E+00
        -11   -1    0    0    0    0  0.00000000000E+00  0.00000000000E+00  0.45593999997E+02  0.45594000000E+02  0.51100000000E-03 0.  1.
         11   -1    0    0    0    0 -0.00000000000E+00 -0.00000000000E+00 -0.45593999997E+02  0.45594000000E+02  0.51100000000E-03 0. -1.
    9900012    2    1    2    0    0 -0.41655480351E+02 -0.25057951008E+01 -0.16960408525E+02  0.46142317525E+02  0.99999978436E+01 0.  0.
         12    1    1    2    0    0  0.41655480351E+02  0.25057951008E+01  0.16960408525E+02  0.45045682475E+02  0.00000000000E+00 0. -1.
         11    1    3    3    0    0 -0.31304030244E+01 -0.16714144224E+01 -0.99789085747E+00  0.36863037980E+01  0.51100000000E-03 0. -1.
        -11    1    3    3    0    0 -0.10331151117E+02 -0.36924591311E+01 -0.37004123364E+01  0.11578427767E+02  0.51100000000E-03 0.  1.
         12    1    3    3    0    0 -0.28193926209E+02  0.28580784527E+01 -0.12262105331E+02  0.30877585959E+02  0.00000000000E+00 0. -1.
</event>
<event>
 7    1  0.2478637E-008  0.4614232E+02  0.7816164E-02  0.1320468E+00
        -11   -1    0    0    0    0  0.00000000000E+00  0.00000000000E+00  0.45593999997E+02  0.45594000000E+02  0.51100000000E-03 0. -1.
         11   -1    0    0    0    0 -0.00000000000E+00 -0.00000000000E+00 -0.45593999997E+02  0.45594000000E+02  0.51100000000E-03 0.  1.
    9900012    2    1    2    0    0  0.12764377579E+02  0.25790745771E+02 -0.34655758739E+02  0.46142317453E+02  0.99999971870E+01 0.  0.
         12    1    1    2    0    0 -0.12764377579E+02 -0.25790745771E+02  0.34655758739E+02  0.45045682547E+02  0.00000000000E+00 0. -1.
         11    1    3    3    0    0  0.33719426500E+01  0.16173628065E+02 -0.15842906043E+02  0.22890039628E+02  0.51100000000E-03 0. -1.
        -11    1    3    3    0    0  0.53146859132E+01  0.69674342121E+01 -0.11237601292E+02  0.14250428377E+02  0.51100000000E-03 0.  1.
         12    1    3    3    0    0  0.40777490160E+01  0.26496834936E+01 -0.75752514039E+01  0.90018494481E+01  0.00000000000E+00 0. -1.
</event>
<event>
 7    1  0.2478637E-008  0.4614231E+02  0.7816164E-02  0.1320468E+00
        -11   -1    0    0    0    0  0.00000000000E+00  0.00000000000E+00  0.45593999997E+02  0.45594000000E+02  0.51100000000E-03 0.  1.
         11   -1    0    0    0    0 -0.00000000000E+00 -0.00000000000E+00 -0.45593999997E+02  0.45594000000E+02  0.51100000000E-03 0. -1.
    9900012    2    1    2    0    0 -0.26941846506E+02 -0.35607353656E+01  0.35924532882E+02  0.46142312168E+02  0.99999489963E+01 0.  0.
         12    1    1    2    0    0  0.26941846506E+02  0.35607353656E+01 -0.35924532882E+02  0.45045687832E+02  0.00000000000E+00 0. -1.
         11    1    3    3    0    0 -0.11769231815E+01  0.37735857696E+00  0.21562783712E+01  0.24853740857E+01  0.51100000000E-03 0. -1.
        -11    1    3    3    0    0 -0.15128542273E+02  0.19292708956E+01  0.15727466989E+02  0.21907717719E+02  0.51100000000E-03 0.  1.
        -12    1    3    3    0    0 -0.10636381052E+02 -0.58673648381E+01  0.18040787522E+02  0.21749220364E+02  0.00000000000E+00 0.  1.
</event>
<event>
 7    1  0.2478637E-008  0.4614231E+02  0.7816164E-02  0.1320468E+00
        -11   -1    0    0    0    0  0.00000000000E+00  0.00000000000E+00  0.45593999997E+02  0.45594000000E+02  0.51100000000E-03 0.  1.
         11   -1    0    0    0    0 -0.00000000000E+00 -0.00000000000E+00 -0.45593999997E+02  0.45594000000E+02  0.51100000000E-03 0. -1.
    9900012    2    1    2    0    0  0.21948578121E+02  0.67327212687E+01  0.38756214609E+02  0.46142314435E+02  0.99999696685E+01 0.  0.
         12    1    1    2    0    0 -0.21948578121E+02 -0.67327212687E+01 -0.38756214609E+02  0.45045685565E+02  0.00000000000E+00 0. -1.
         11    1    3    3    0    0  0.13127737991E+00  0.93419134830E+00  0.27613983060E+01  0.29180932286E+01  0.51100000000E-03 0. -1.
        -11    1    3    3    0    0  0.19291500062E+02  0.74845150378E+01  0.33054669163E+02  0.38997321623E+02  0.51100000000E-03 0.  1.
        -12    1    3    3    0    0  0.25258006784E+01 -0.16859851174E+01  0.29401471402E+01  0.42268995835E+01  0.00000000000E+00 0.  1.
</event>
<event>
 7    1  0.2478637E-008  0.4614232E+02  0.7816164E-02  0.1320468E+00
        -11   -1    0    0    0    0  0.00000000000E+00  0.00000000000E+00  0.45593999997E+02  0.45594000000E+02  0.51100000000E-03 0.  1.
         11   -1    0    0    0    0 -0.00000000000E+00 -0.00000000000E+00 -0.45593999997E+02  0.45594000000E+02  0.51100000000E-03 0. -1.
    9900012    2    1    2    0    0 -0.29307405834E+02  0.81788962260E+01  0.33215884128E+02  0.46142319423E+02  0.10000015157E+02 0.  0.
         12    1    1    2    0    0  0.29307405834E+02 -0.81788962260E+01 -0.33215884128E+02  0.45045680577E+02  0.00000000000E+00 0. -1.
         11    1    3    3    0    0 -0.65878659236E+01  0.21176435086E+01  0.59267600103E+01  0.91110304542E+01  0.51100000000E-03 0. -1.
        -11    1    3    3    0    0 -0.16779684652E+02  0.59696389048E+01  0.14633181945E+02  0.23050475478E+02  0.51100000000E-03 0.  1.
         12    1    3    3    0    0 -0.59398552585E+01  0.91613812678E-01  0.12655942173E+02  0.13980813491E+02  0.00000000000E+00 0. -1.
</event>
<event>
 7    1  0.2478637E-008  0.4614232E+02  0.7816164E-02  0.1320468E+00
        -11   -1    0    0    0    0  0.00000000000E+00  0.00000000000E+00  0.45593999997E+02  0.45594000000E+02  0.51100000000E-03 0.  1.
         11   -1    0    0    0    0 -0.00000000000E+00 -0.00000000000E+00 -0.45593999997E+02  0.45594000000E+02  0.51100000000E-03 0. -1.
    9900012    2    1    2    0    0  0.13617382312E+02  0.27336695751E+02  0.33111711422E+02  0.46142317977E+02  0.10000001973E+02 0.  0.
         12    1    1    2    0    0 -0.13617382312E+02 -0.27336695751E+02 -0.33111711422E+02  0.45045682023E+02  0.00000000000E+00 0. -1.
         11    1    3    3    0    0 -0.70950649487E+00  0.12471516420E+01 -0.14830287856E-01  0.14349239990E+01  0.51100000000E-03 0. -1.
        -11    1    3    3    0    0  0.26241786042E+01  0.64701816257E+01  0.57020207685E+01  0.90145773457E+01  0.51100000000E-03 0.  1.
        -12    1    3    3    0    0  0.11702710203E+02  0.19619362483E+02  0.27424520941E+02  0.35692816633E+02  0.00000000000E+00 0.  1.
</event>
<event>
 7    1  0.2478637E-008  0.4614232E+02  0.7816164E-02  0.1320468E+00
        -11   -1    0    0    0    0  0.00000000000E+00  0.00000000000E+00  0.45593999997E+02  0.45594000000E+02  0.51100000000E-03 0. -1.
         11   -1    0    0    0    0 -0.00000000000E+00 -0.00000000000E+00 -0.45593999997E+02  0.45594000000E+02  0.51100000000E-03 0.  1.
    9900012    2    1    2    0    0 -0.19968796190E+02 -0.30247583823E+02 -0.26747791908E+02  0.46142317406E+02  0.99999967587E+01 0.  0.
         12    1    1    2    0    0  0.19968796190E+02  0.30247583823E+02  0.26747791908E+02  0.45045682594E+02  0.00000000000E+00 0. -1.
         11    1    3    3    0    0 -0.13173531928E+02 -0.18950050849E+02 -0.11349735410E+02  0.25718920366E+02  0.51100000000E-03 0. -1.
        -11    1    3    3    0    0 -0.12553795247E+01 -0.43694006535E+01 -0.51805405127E+01  0.68924335387E+01  0.51100000000E-03 0.  1.
         12    1    3    3    0    0 -0.55398847374E+01 -0.69281323204E+01 -0.10217515985E+02  0.13530963501E+02  0.00000000000E+00 0. -1.
</event>
<event>
 7    1  0.2478637E-008  0.4614232E+02  0.7816164E-02  0.1320468E+00
        -11   -1    0    0    0    0  0.00000000000E+00  0.00000000000E+00  0.45593999997E+02  0.45594000000E+02  0.51100000000E-03 0. -1.
         11   -1    0    0    0    0 -0.00000000000E+00 -0.00000000000E+00 -0.45593999997E+02  0.45594000000E+02  0.51100000000E-03 0.  1.
    9900012    2    1    2    0    0  0.33285403401E+02  0.21526095321E+02 -0.21396789581E+02  0.46142318035E+02  0.10000002493E+02 0.  0.
         12    1    1    2    0    0 -0.33285403401E+02 -0.21526095321E+02  0.21396789581E+02  0.45045681965E+02  0.00000000000E+00 0. -1.
         11    1    3    3    0    0  0.11229771249E+01  0.31241173298E+01 -0.19024176065E+01  0.38262749149E+01  0.51100000000E-03 0. -1.
        -11    1    3    3    0    0  0.17671616115E+02  0.11689845228E+02 -0.80366045942E+01  0.22661101281E+02  0.51100000000E-03 0.  1.
        -12    1    3    3    0    0  0.14490810161E+02  0.67121327632E+01 -0.11457767380E+02  0.19654941839E+02  0.00000000000E+00 0.  1.
</event>
<event>
 7    1  0.2478637E-008  0.4614232E+02  0.7816164E-02  0.1320468E+00
        -11   -1    0    0    0    0  0.00000000000E+00  0.00000000000E+00  0.45593999997E+02  0.45594000000E+02  0.51100000000E-03 0.  1.
         11   -1    0    0    0    0 -0.00000000000E+00 -0.00000000000E+00 -0.45593999997E+02  0.45594000000E+02  0.51100000000E-03 0. -1.
    9900012    2    1    2    0    0 -0.74441889920E+00  0.16474402175E+01  0.45009391570E+02  0.46142317096E+02  0.99999939395E+01 0.  0.
         12    1    1    2    0    0  0.74441889920E+00 -0.16474402175E+01 -0.45009391570E+02  0.45045682904E+02  0.00000000000E+00 0. -1.
         11    1    3    3    0    0 -0.17611855061E+01  0.53316109277E+01  0.29101334797E+02  0.29638075793E+02  0.51100000000E-03 0. -1.
        -11    1    3    3    0    0 -0.54674348069E+00 -0.23500485855E+00  0.26454233859E+01  0.27115347811E+01  0.51100000000E-03 0.  1.
         12    1    3    3    0    0  0.15635100876E+01 -0.34491658516E+01  0.13262633387E+02  0.13792706523E+02  0.00000000000E+00 0. -1.
</event>
<event>
 7    1  0.2478637E-008  0.4614232E+02  0.7816164E-02  0.1320468E+00
        -11   -1    0    0    0    0  0.00000000000E+00  0.00000000000E+00  0.45593999997E+02  0.45594000000E+02  0.51100000000E-03 0. -1.
         11   -1    0    0    0    0 -0.00000000000E+00 -0.00000000000E+00 -0.45593999997E+02  0.45594000000E+02  0.51100000000E-03 0.  1.
    9900012    2    1    2    0    0 -0.67207593134E+01  0.25861247263E+02  0.36264867675E+02  0.46142319372E+02  0.10000014689E+02 0.  0.
         12    1    1    2    0    0  0.67207593134E+01 -0.25861247263E+02 -0.36264867675E+02  0.45045680628E+02  0.00000000000E+00 0. -1.
         11    1    3    3    0    0 -0.26274825413E+01  0.80583858520E+01  0.82237777868E+01  0.11809816611E+02  0.51100000000E-03 0. -1.
        -11    1    3    3    0    0 -0.46003632885E+01  0.68374224047E+01  0.80184446276E+01  0.11498223429E+02  0.51100000000E-03 0.  1.
         12    1    3    3    0    0  0.50708651638E+00  0.10965439006E+02  0.20022645261E+02  0.22834279331E+02  0.00000000000E+00 0. -1.
</event>
<event>
 7    1  0.2478637E-008  0.4614232E+02  0.7816164E-02  0.1320468E+00
        -11   -1    0    0    0    0  0.00000000000E+00  0.00000000000E+00  0.45593999997E+02  0.45594000000E+02  0.51100000000E-03 0. -1.
         11   -1    0    0    0    0 -0.00000000000E+00 -0.00000000000E+00 -0.45593999997E+02  0.45594000000E+02  0.51100000000E-03 0.  1.
    9900012    2    1    2    0    0 -0.14211799947E+02  0.10026661250E+02 -0.41552427682E+02  0.46142318300E+02  0.10000004916E+02 0.  0.
         12    1    1    2    0    0  0.14211799947E+02 -0.10026661250E+02  0.41552427682E+02  0.45045681700E+02  0.00000000000E+00 0. -1.
         11    1    3    3    0    0 -0.10093004895E+00 -0.13425619032E+00  0.29822558393E+00  0.34227234690E+00  0.51100000000E-03 0. -1.
        -11    1    3    3    0    0 -0.39183836938E+00 -0.17281503365E+00  0.12522686874E+00  0.44618871943E+00  0.51100000000E-03 0.  1.
        -12    1    3    3    0    0 -0.13719031529E+02  0.10333732474E+02 -0.41975880134E+02  0.45353857234E+02  0.00000000000E+00 0.  1.
</event>
<event>
 7    1  0.2478637E-008  0.4614232E+02  0.7816164E-02  0.1320468E+00
        -11   -1    0    0    0    0  0.00000000000E+00  0.00000000000E+00  0.45593999997E+02  0.45594000000E+02  0.51100000000E-03 0.  1.
         11   -1    0    0    0    0 -0.00000000000E+00 -0.00000000000E+00 -0.45593999997E+02  0.45594000000E+02  0.51100000000E-03 0. -1.
    9900012    2    1    2    0    0  0.36348255840E+02 -0.89059164254E+01  0.25071937183E+02  0.46142322248E+02  0.10000040919E+02 0.  0.
         12    1    1    2    0    0 -0.36348255840E+02  0.89059164254E+01 -0.25071937183E+02  0.45045677752E+02  0.00000000000E+00 0. -1.
         11    1    3    3    0    0  0.20174006718E+01  0.71891702026E+00  0.10686907617E+01  0.23935010670E+01  0.51100000000E-03 0. -1.
        -11    1    3    3    0    0  0.45615180142E+01 -0.44073297960E+01  0.37800679753E+01  0.73838280508E+01  0.51100000000E-03 0.  1.
        -12    1    3    3    0    0  0.29769337154E+02 -0.52175036496E+01  0.20223178446E+02  0.36364993131E+02  0.00000000000E+00 0.  1.
</event>
<event>
 7    1  0.3069542E-008  0.4614232E+02  0.7816164E-02  0.1320468E+00
        -11   -1    0    0    0    0  0.00000000000E+00  0.00000000000E+00  0.45593999997E+02  0.45594000000E+02  0.51100000000E-03 0. -1.
         11   -1    0    0    0    0 -0.00000000000E+00 -0.00000000000E+00 -0.45593999997E+02  0.45594000000E+02  0.51100000000E-03 0.  1.
    9900012    2    1    2    0    0  0.24814890054E+02 -0.29444688999E+02 -0.23374024783E+02  0.46142317486E+02  0.99999974875E+01 0.  0.
         12    1    1    2    0    0 -0.24814890054E+02  0.29444688999E+02  0.23374024783E+02  0.45045682514E+02  0.00000000000E+00 0. -1.
         11    1    3    3    0    0  0.32230486477E+01 -0.19502375587E+01 -0.44274817502E+01  0.58132662101E+01  0.51100000000E-03 0. -1.
        -11    1    3    3    0    0  0.41153952465E+01 -0.28628603626E+01 -0.49377065069E+01  0.70365753957E+01  0.51100000000E-03 0.  1.
        -12    1    3    3    0    0  0.17476446160E+02 -0.24631591078E+02 -0.14008836526E+02  0.33292475880E+02  0.00000000000E+00 0.  1.
</event>
<event>
 7    1  0.2478637E-008  0.4614232E+02  0.7816164E-02  0.1320468E+00
        -11   -1    0    0    0    0  0.00000000000E+00  0.00000000000E+00  0.45593999997E+02  0.45594000000E+02  0.51100000000E-03 0.  1.
         11   -1    0    0    0    0 -0.00000000000E+00 -0.00000000000E+00 -0.45593999997E+02  0.45594000000E+02  0.51100000000E-03 0. -1.
    9900012    2    1    2    0    0  0.11031553888E+02 -0.42272841506E+02  0.10973841251E+02  0.46142317610E+02  0.99999986233E+01 0.  0.
         12    1    1    2    0    0 -0.11031553888E+02  0.42272841506E+02 -0.10973841251E+02  0.45045682390E+02  0.00000000000E+00 0. -1.
         11    1    3    3    0    0 -0.38157329562E+00 -0.40010117649E+01  0.62409070542E-01  0.40196502928E+01  0.51100000000E-03 0. -1.
        -11    1    3    3    0    0  0.66059248467E+01 -0.31249804189E+02  0.10425985720E+02  0.33598953607E+02  0.51100000000E-03 0.  1.
        -12    1    3    3    0    0  0.48072023373E+01 -0.70220255515E+01  0.48544645997E+00  0.85237137108E+01  0.00000000000E+00 0.  1.
</event>
<event>
 7    1  0.2478637E-008  0.4614232E+02  0.7816164E-02  0.1320468E+00
        -11   -1    0    0    0    0  0.00000000000E+00  0.00000000000E+00  0.45593999997E+02  0.45594000000E+02  0.51100000000E-03 0. -1.
         11   -1    0    0    0    0 -0.00000000000E+00 -0.00000000000E+00 -0.45593999997E+02  0.45594000000E+02  0.51100000000E-03 0.  1.
    9900012    2    1    2    0    0  0.26820151402E+02  0.18549353775E+02 -0.31075946435E+02  0.46142317704E+02  0.99999994758E+01 0.  0.
         12    1    1    2    0    0 -0.26820151402E+02 -0.18549353775E+02  0.31075946435E+02  0.45045682296E+02  0.00000000000E+00 0. -1.
         11    1    3    3    0    0  0.12711129563E+01  0.34610228143E+01 -0.33589397221E+01  0.49876731436E+01  0.51100000000E-03 0. -1.
        -11    1    3    3    0    0  0.21431179163E+02  0.12931738244E+02 -0.19562027217E+02  0.31767880059E+02  0.51100000000E-03 0.  1.
         12    1    3    3    0    0  0.41178592825E+01  0.21565927165E+01 -0.81549794964E+01  0.93867645013E+01  0.00000000000E+00 0. -1.
</event>
<event>
 7    1  0.2478637E-008  0.4614232E+02  0.7816164E-02  0.1320468E+00
        -11   -1    0    0    0    0  0.00000000000E+00  0.00000000000E+00  0.45593999997E+02  0.45594000000E+02  0.51100000000E-03 0. -1.
         11   -1    0    0    0    0 -0.00000000000E+00 -0.00000000000E+00 -0.45593999997E+02  0.45594000000E+02  0.51100000000E-03 0.  1.
    9900012    2    1    2    0    0  0.10695313364E+02  0.43754919197E+02  0.48042976037E+00  0.46142317691E+02  0.99999993602E+01 0.  0.
         12    1    1    2    0    0 -0.10695313364E+02 -0.43754919197E+02 -0.48042976037E+00  0.45045682309E+02  0.00000000000E+00 0. -1.
         11    1    3    3    0    0 -0.42527730102E+00  0.84917006229E+01 -0.10145923206E+01  0.85626653613E+01  0.51100000000E-03 0. -1.
        -11    1    3    3    0    0  0.66063905981E+01  0.23051157847E+02  0.40300512022E+01  0.24315459851E+02  0.51100000000E-03 0.  1.
         12    1    3    3    0    0  0.45142000670E+01  0.12212060727E+02 -0.25350291212E+01  0.13264192478E+02  0.00000000000E+00 0. -1.
</event>
<event>
 7    1  0.2478637E-008  0.4614232E+02  0.7816164E-02  0.1320468E+00
        -11   -1    0    0    0    0  0.00000000000E+00  0.00000000000E+00  0.45593999997E+02  0.45594000000E+02  0.51100000000E-03 0.  1.
         11   -1    0    0    0    0 -0.00000000000E+00 -0.00000000000E+00 -0.45593999997E+02  0.45594000000E+02  0.51100000000E-03 0. -1.
    9900012    2    1    2    0    0 -0.19914325966E+02  0.16532022027E+02  0.36867673271E+02  0.46142318039E+02  0.10000002530E+02 0.  0.
         12    1    1    2    0    0  0.19914325966E+02 -0.16532022027E+02 -0.36867673271E+02  0.45045681961E+02  0.00000000000E+00 0. -1.
         11    1    3    3    0    0 -0.13784546089E+01 -0.25172348415E+00  0.12509955862E+01  0.18784280766E+01  0.51100000000E-03 0. -1.
        -11    1    3    3    0    0 -0.12605060021E+02  0.90777604366E+01  0.15624062206E+02  0.22031899436E+02  0.51100000000E-03 0.  1.
        -12    1    3    3    0    0 -0.59308113355E+01  0.77059850745E+01  0.19992615479E+02  0.22231990526E+02  0.00000000000E+00 0.  1.
</event>
<event>
 7    1  0.2478637E-008  0.4614232E+02  0.7816164E-02  0.1320468E+00
        -11   -1    0    0    0    0  0.00000000000E+00  0.00000000000E+00  0.45593999997E+02  0.45594000000E+02  0.51100000000E-03 0. -1.
         11   -1    0    0    0    0 -0.00000000000E+00 -0.00000000000E+00 -0.45593999997E+02  0.45594000000E+02  0.51100000000E-03 0.  1.
    9900012    2    1    2    0    0  0.12293788179E+02  0.42053327068E+02  0.10463932539E+02  0.46142318415E+02  0.10000005964E+02 0.  0.
         12    1    1    2    0    0 -0.12293788179E+02 -0.42053327068E+02 -0.10463932539E+02  0.45045681585E+02  0.00000000000E+00 0. -1.
         11    1    3    3    0    0  0.61202034704E+01  0.14821027661E+02  0.66788863776E+01  0.17370298643E+02  0.51100000000E-03 0. -1.
        -11    1    3    3    0    0 -0.56217807377E+00  0.15451634554E+01  0.13081793942E+01  0.21011682177E+01  0.51100000000E-03 0.  1.
        -12    1    3    3    0    0  0.67357627820E+01  0.25687135952E+02  0.24768667673E+01  0.26670851554E+02  0.00000000000E+00 0.  1.
</event>
<event>
 7    1  0.2478637E-008  0.4614232E+02  0.7816164E-02  0.1320468E+00
        -11   -1    0    0    0    0  0.00000000000E+00  0.00000000000E+00  0.45593999997E+02  0.45594000000E+02  0.51100000000E-03 0.  1.
         11   -1    0    0    0    0 -0.00000000000E+00 -0.00000000000E+00 -0.45593999997E+02  0.45594000000E+02  0.51100000000E-03 0. -1.
    9900012    2    1    2    0    0 -0.18465007815E+02  0.20920112107E+02  0.35362493772E+02  0.46142316856E+02  0.99999917442E+01 0.  0.
         12    1    1    2    0    0  0.18465007815E+02 -0.20920112107E+02 -0.35362493772E+02  0.45045683144E+02  0.00000000000E+00 0. -1.
         11    1    3    3    0    0  0.13509639804E+00 -0.59534404687E+00  0.25877389290E+00  0.66306090194E+00  0.51100000000E-03 0. -1.
        -11    1    3    3    0    0 -0.70387421780E+01  0.46910757149E+01  0.11430239118E+02  0.14219720439E+02  0.51100000000E-03 0.  1.
        -12    1    3    3    0    0 -0.11561362035E+02  0.16824380439E+02  0.23673480761E+02  0.31259535515E+02  0.00000000000E+00 0.  1.
</event>
<event>
 7    1  0.2478637E-008  0.4614232E+02  0.7816164E-02  0.1320468E+00
        -11   -1    0    0    0    0  0.00000000000E+00  0.00000000000E+00  0.45593999997E+02  0.45594000000E+02  0.51100000000E-03 0. -1.
         11   -1    0    0    0    0 -0.00000000000E+00 -0.00000000000E+00 -0.45593999997E+02  0.45594000000E+02  0.51100000000E-03 0.  1.
    9900012    2    1    2    0    0 -0.20851920934E+02  0.39494694952E+02  0.58719632115E+01  0.46142317766E+02  0.10000000043E+02 0.  0.
         12    1    1    2    0    0  0.20851920934E+02 -0.39494694952E+02 -0.58719632115E+01  0.45045682234E+02  0.00000000000E+00 0. -1.
         11    1    3    3    0    0 -0.72908401214E+01  0.19380645868E+02  0.38610822196E+01  0.21063564279E+02  0.51100000000E-03 0. -1.
        -11    1    3    3    0    0 -0.89182882481E+01  0.17030658309E+02  0.28767576250E+01  0.19438490744E+02  0.51100000000E-03 0.  1.
        -12    1    3    3    0    0 -0.46427925647E+01  0.30833907742E+01 -0.86587663312E+00  0.56402627429E+01  0.00000000000E+00 0.  1.
</event>
<event>
 7    1  0.2478637E-008  0.4614232E+02  0.7816164E-02  0.1320468E+00
        -11   -1    0    0    0    0  0.00000000000E+00  0.00000000000E+00  0.45593999997E+02  0.45594000000E+02  0.51100000000E-03 0. -1.
         11   -1    0    0    0    0 -0.00000000000E+00 -0.00000000000E+00 -0.45593999997E+02  0.45594000000E+02  0.51100000000E-03 0.  1.
    9900012    2    1    2    0    0  0.34392803813E+02 -0.12528183102E+02 -0.26254394632E+02  0.46142316928E+02  0.99999924043E+01 0.  0.
         12    1    1    2    0    0 -0.34392803813E+02  0.12528183102E+02  0.26254394632E+02  0.45045683072E+02  0.00000000000E+00 0. -1.
         11    1    3    3    0    0  0.17290355996E+02 -0.76799197948E+01 -0.17342477151E+02  0.25665133792E+02  0.51100000000E-03 0. -1.
        -11    1    3    3    0    0  0.13604471345E+02 -0.51241903021E+01 -0.87434845927E+01  0.16964300454E+02  0.51100000000E-03 0.  1.
         12    1    3    3    0    0  0.34979764714E+01  0.27592699459E+00 -0.16843288767E+00  0.35128826821E+01  0.00000000000E+00 0. -1.
</event>
<event>
 7    1  0.2478637E-008  0.4614232E+02  0.7816164E-02  0.1320468E+00
        -11   -1    0    0    0    0  0.00000000000E+00  0.00000000000E+00  0.45593999997E+02  0.45594000000E+02  0.51100000000E-03 0.  1.
         11   -1    0    0    0    0 -0.00000000000E+00 -0.00000000000E+00 -0.45593999997E+02  0.45594000000E+02  0.51100000000E-03 0. -1.
    9900012    2    1    2    0    0  0.80532311640E+01  0.36040383587E+02  0.25794373045E+02  0.46142318053E+02  0.10000002666E+02 0.  0.
         12    1    1    2    0    0 -0.80532311640E+01 -0.36040383587E+02 -0.25794373045E+02  0.45045681947E+02  0.00000000000E+00 0. -1.
         11    1    3    3    0    0  0.14763871910E+01  0.56313939068E+01  0.32779229661E+01  0.66810998873E+01  0.51100000000E-03 0. -1.
        -11    1    3    3    0    0 -0.59435093835E+00  0.10866676986E+02  0.39801942119E+01  0.11587919053E+02  0.51100000000E-03 0.  1.
         12    1    3    3    0    0  0.71711949114E+01  0.19542312694E+02  0.18536255867E+02  0.27873299113E+02  0.00000000000E+00 0. -1.
</event>
<event>
 7    1  0.2478637E-008  0.4614232E+02  0.7816164E-02  0.1320468E+00
        -11   -1    0    0    0    0  0.00000000000E+00  0.00000000000E+00  0.45593999997E+02  0.45594000000E+02  0.51100000000E-03 0.  1.
         11   -1    0    0    0    0 -0.00000000000E+00 -0.00000000000E+00 -0.45593999997E+02  0.45594000000E+02  0.51100000000E-03 0. -1.
    9900012    2    1    2    0    0 -0.17636988614E+02 -0.71591124183E+01  0.40826430276E+02  0.46142315778E+02  0.99999819165E+01 0.  0.
         12    1    1    2    0    0  0.17636988614E+02  0.71591124183E+01 -0.40826430276E+02  0.45045684222E+02  0.00000000000E+00 0. -1.
         11    1    3    3    0    0 -0.32623358197E+01 -0.43942020004E+01  0.17634177689E+02  0.18463912621E+02  0.51100000000E-03 0.  1.
        -11    1    3    3    0    0 -0.97446702253E+01 -0.32195223210E+01  0.13807412496E+02  0.17203736858E+02  0.51100000000E-03 0. -1.
         12    1    3    3    0    0 -0.46299825685E+01  0.45461190314E+00  0.93848400904E+01  0.10474666300E+02  0.00000000000E+00 0. -1.
</event>
<event>
 7    1  0.2478637E-008  0.4614232E+02  0.7816164E-02  0.1320468E+00
        -11   -1    0    0    0    0  0.00000000000E+00  0.00000000000E+00  0.45593999997E+02  0.45594000000E+02  0.51100000000E-03 0. -1.
         11   -1    0    0    0    0 -0.00000000000E+00 -0.00000000000E+00 -0.45593999997E+02  0.45594000000E+02  0.51100000000E-03 0.  1.
    9900012    2    1    2    0    0 -0.41513372830E+02  0.17250676107E+02  0.28579211634E+01  0.46142315820E+02  0.99999823029E+01 0.  0.
         12    1    1    2    0    0  0.41513372830E+02 -0.17250676107E+02 -0.28579211634E+01  0.45045684180E+02  0.00000000000E+00 0. -1.
         11    1    3    3    0    0 -0.16615899754E+01  0.17550995091E+00  0.77614465071E+00  0.18423044724E+01  0.51100000000E-03 0. -1.
        -11    1    3    3    0    0 -0.85402240830E+01  0.50095242265E+01 -0.30362161184E+01  0.10356127121E+02  0.51100000000E-03 0.  1.
        -12    1    3    3    0    0 -0.31311558771E+02  0.12065641930E+02  0.51179926311E+01  0.33943884227E+02  0.00000000000E+00 0.  1.
</event>
<event>
 7    1  0.2478637E-008  0.4614232E+02  0.7816164E-02  0.1320468E+00
        -11   -1    0    0    0    0  0.00000000000E+00  0.00000000000E+00  0.45593999997E+02  0.45594000000E+02  0.51100000000E-03 0.  1.
         11   -1    0    0    0    0 -0.00000000000E+00 -0.00000000000E+00 -0.45593999997E+02  0.45594000000E+02  0.51100000000E-03 0. -1.
    9900012    2    1    2    0    0 -0.15438874289E+01 -0.36304835224E+02  0.26621213188E+02  0.46142316071E+02  0.99999845910E+01 0.  0.
         12    1    1    2    0    0  0.15438874289E+01  0.36304835224E+02 -0.26621213188E+02  0.45045683929E+02  0.00000000000E+00 0. -1.
         11    1    3    3    0    0  0.95670982679E+00 -0.66619903281E+00 -0.36707456381E+00  0.12222351822E+01  0.51100000000E-03 0. -1.
        -11    1    3    3    0    0 -0.24415509264E+01 -0.13886898758E+02  0.93857449060E+01  0.16938103074E+02  0.51100000000E-03 0.  1.
         12    1    3    3    0    0 -0.59046329228E-01 -0.21751737433E+02  0.17602542846E+02  0.27981977815E+02  0.00000000000E+00 0. -1.
</event>
<event>
 7    1  0.2478637E-008  0.4614232E+02  0.7816164E-02  0.1320468E+00
        -11   -1    0    0    0    0  0.00000000000E+00  0.00000000000E+00  0.45593999997E+02  0.45594000000E+02  0.51100000000E-03 0.  1.
         11   -1    0    0    0    0 -0.00000000000E+00 -0.00000000000E+00 -0.45593999997E+02  0.45594000000E+02  0.51100000000E-03 0. -1.
    9900012    2    1    2    0    0 -0.21970629639E+02  0.39078236885E+02 -0.43927512319E+01  0.46142318430E+02  0.10000006097E+02 0.  0.
         12    1    1    2    0    0  0.21970629639E+02 -0.39078236885E+02  0.43927512319E+01  0.45045681570E+02  0.00000000000E+00 0. -1.
         11    1    3    3    0    0 -0.64343019334E+01  0.56847348445E+01 -0.17363314466E+01  0.87596403337E+01  0.51100000000E-03 0. -1.
        -11    1    3    3    0    0 -0.10660069210E+02  0.26559791491E+02 -0.39430447769E+01  0.28889569086E+02  0.51100000000E-03 0.  1.
        -12    1    3    3    0    0 -0.48762584953E+01  0.68337105497E+01  0.12866249916E+01  0.84931090102E+01  0.00000000000E+00 0.  1.
</event>
<event>
 7    1  0.2478637E-008  0.4614232E+02  0.7816164E-02  0.1320468E+00
        -11   -1    0    0    0    0  0.00000000000E+00  0.00000000000E+00  0.45593999997E+02  0.45594000000E+02  0.51100000000E-03 0. -1.
         11   -1    0    0    0    0 -0.00000000000E+00 -0.00000000000E+00 -0.45593999997E+02  0.45594000000E+02  0.51100000000E-03 0.  1.
    9900012    2    1    2    0    0 -0.39041880677E+02  0.21466793774E+02 -0.66348980795E+01  0.46142317030E+02  0.99999933306E+01 0.  0.
         12    1    1    2    0    0  0.39041880677E+02 -0.21466793774E+02  0.66348980795E+01  0.45045682970E+02  0.00000000000E+00 0. -1.
         11    1    3    3    0    0 -0.10143864631E+02  0.87515251589E+01 -0.11751463852E+01  0.13448723045E+02  0.51100000000E-03 0. -1.
        -11    1    3    3    0    0 -0.16241796892E+02  0.10569455104E+02 -0.38414196400E+01  0.19755147496E+02  0.51100000000E-03 0.  1.
         12    1    3    3    0    0 -0.12656219155E+02  0.21458135115E+01 -0.16183320544E+01  0.12938446489E+02  0.00000000000E+00 0. -1.
</event>
<event>
 7    1  0.2478637E-008  0.4614232E+02  0.7816164E-02  0.1320468E+00
        -11   -1    0    0    0    0  0.00000000000E+00  0.00000000000E+00  0.45593999997E+02  0.45594000000E+02  0.51100000000E-03 0.  1.
         11   -1    0    0    0    0 -0.00000000000E+00 -0.00000000000E+00 -0.45593999997E+02  0.45594000000E+02  0.51100000000E-03 0. -1.
    9900012    2    1    2    0    0 -0.36221347698E+01 -0.34707313450E+02  0.28485013291E+02  0.46142318193E+02  0.10000003941E+02 0.  0.
         12    1    1    2    0    0  0.36221347698E+01  0.34707313450E+02 -0.28485013291E+02  0.45045681807E+02  0.00000000000E+00 0. -1.
         11    1    3    3    0    0 -0.15751248115E+01 -0.99290271221E+00  0.16673123875E+01  0.24993608836E+01  0.51100000000E-03 0. -1.
        -11    1    3    3    0    0 -0.19360607534E+01 -0.28326867721E+02  0.19059219326E+02  0.34196690011E+02  0.51100000000E-03 0.  1.
        -12    1    3    3    0    0 -0.11094920489E+00 -0.53875430168E+01  0.77584815777E+01  0.94462672986E+01  0.00000000000E+00 0.  1.
</event>
<event>
 7    1  0.2478637E-008  0.4614232E+02  0.7816164E-02  0.1320468E+00
        -11   -1    0    0    0    0  0.00000000000E+00  0.00000000000E+00  0.45593999997E+02  0.45594000000E+02  0.51100000000E-03 0.  1.
         11   -1    0    0    0    0 -0.00000000000E+00 -0.00000000000E+00 -0.45593999997E+02  0.45594000000E+02  0.51100000000E-03 0. -1.
    9900012    2    1    2    0    0  0.32344395263E+02  0.30202761671E+02  0.84111107722E+01  0.46142317611E+02  0.99999986323E+01 0.  0.
         12    1    1    2    0    0 -0.32344395263E+02 -0.30202761671E+02 -0.84111107722E+01  0.45045682389E+02  0.00000000000E+00 0. -1.
         11    1    3    3    0    0  0.10090923071E+02  0.90216296888E+01  0.32681895430E+01  0.13924711624E+02  0.51100000000E-03 0. -1.
        -11    1    3    3    0    0  0.19915878188E+02  0.14785009762E+02  0.54694841818E+01  0.25399881400E+02  0.51100000000E-03 0.  1.
         12    1    3    3    0    0  0.23375940036E+01  0.63961222200E+01 -0.32656295259E+00  0.68177245868E+01  0.00000000000E+00 0. -1.
</event>
<event>
 7    1  0.2478637E-008  0.4614232E+02  0.7816164E-02  0.1320468E+00
        -11   -1    0    0    0    0  0.00000000000E+00  0.00000000000E+00  0.45593999997E+02  0.45594000000E+02  0.51100000000E-03 0.  1.
         11   -1    0    0    0    0 -0.00000000000E+00 -0.00000000000E+00 -0.45593999997E+02  0.45594000000E+02  0.51100000000E-03 0. -1.
    9900012    2    1    2    0    0  0.31609094740E+01 -0.44376437393E+02 -0.70607275410E+01  0.46142318545E+02  0.10000007145E+02 0.  0.
         12    1    1    2    0    0 -0.31609094740E+01  0.44376437393E+02  0.70607275410E+01  0.45045681455E+02  0.00000000000E+00 0. -1.
         11    1    3    3    0    0 -0.17445117648E+01 -0.14849932973E+02 -0.33061431334E+01  0.15313210417E+02  0.51100000000E-03 0. -1.
        -11    1    3    3    0    0  0.54096980360E+01 -0.29371930162E+02 -0.41727160618E+01  0.30156038763E+02  0.51100000000E-03 0.  1.
         12    1    3    3    0    0 -0.50427679712E+00 -0.15457425767E+00  0.41813165421E+00  0.67306936456E+00  0.00000000000E+00 0. -1.
</event>
<event>
 7    1  0.2478637E-008  0.4614232E+02  0.7816164E-02  0.1320468E+00
        -11   -1    0    0    0    0  0.00000000000E+00  0.00000000000E+00  0.45593999997E+02  0.45594000000E+02  0.51100000000E-03 0. -1.
         11   -1    0    0    0    0 -0.00000000000E+00 -0.00000000000E+00 -0.45593999997E+02  0.45594000000E+02  0.51100000000E-03 0.  1.
    9900012    2    1    2    0    0  0.34840586686E+02 -0.27292046976E+02 -0.83899504741E+01  0.46142316769E+02  0.99999909554E+01 0.  0.
         12    1    1    2    0    0 -0.34840586686E+02  0.27292046976E+02  0.83899504741E+01  0.45045683231E+02  0.00000000000E+00 0. -1.
         11    1    3    3    0    0  0.16583052015E+02 -0.13254856820E+02 -0.13622810821E+01  0.21273096941E+02  0.51100000000E-03 0. -1.
        -11    1    3    3    0    0  0.15087218605E+02 -0.87431063975E+01 -0.35818886582E+01  0.17801573002E+02  0.51100000000E-03 0.  1.
         12    1    3    3    0    0  0.31703160660E+01 -0.52940837583E+01 -0.34457807338E+01  0.70676468265E+01  0.00000000000E+00 0. -1.
</event>
<event>
 7    1  0.2478637E-008  0.4614232E+02  0.7816164E-02  0.1320468E+00
        -11   -1    0    0    0    0  0.00000000000E+00  0.00000000000E+00  0.45593999997E+02  0.45594000000E+02  0.51100000000E-03 0.  1.
         11   -1    0    0    0    0 -0.00000000000E+00 -0.00000000000E+00 -0.45593999997E+02  0.45594000000E+02  0.51100000000E-03 0. -1.
    9900012    2    1    2    0    0  0.56981501899E+01  0.11394005111E+02  0.43206726555E+02  0.46142317769E+02  0.10000000069E+02 0.  0.
         12    1    1    2    0    0 -0.56981501899E+01 -0.11394005111E+02 -0.43206726555E+02  0.45045682231E+02  0.00000000000E+00 0. -1.
         11    1    3    3    0    0  0.32472633454E+01  0.55223135646E+01  0.97357933431E+01  0.11654455741E+02  0.51100000000E-03 0. -1.
        -11    1    3    3    0    0 -0.44671284610E+00  0.44699280909E+00  0.15131519015E+02  0.15144709403E+02  0.51100000000E-03 0.  1.
        -12    1    3    3    0    0  0.28975996907E+01  0.54246987370E+01  0.18339414198E+02  0.19343152625E+02  0.00000000000E+00 0.  1.
</event>
<event>
 7    1  0.2478637E-008  0.4614232E+02  0.7816164E-02  0.1320468E+00
        -11   -1    0    0    0    0  0.00000000000E+00  0.00000000000E+00  0.45593999997E+02  0.45594000000E+02  0.51100000000E-03 0.  1.
         11   -1    0    0    0    0 -0.00000000000E+00 -0.00000000000E+00 -0.45593999997E+02  0.45594000000E+02  0.51100000000E-03 0. -1.
    9900012    2    1    2    0    0  0.63251355916E+01 -0.33751319228E+02  0.29153979738E+02  0.46142318470E+02  0.10000006466E+02 0.  0.
         12    1    1    2    0    0 -0.63251355916E+01  0.33751319228E+02 -0.29153979738E+02  0.45045681530E+02  0.00000000000E+00 0. -1.
         11    1    3    3    0    0  0.25065119164E+01 -0.53640498220E+01  0.33317212411E+01  0.67938206607E+01  0.51100000000E-03 0. -1.
        -11    1    3    3    0    0 -0.21127860087E+01 -0.13293582566E+02  0.11142462556E+02  0.17473914107E+02  0.51100000000E-03 0.  1.
        -12    1    3    3    0    0  0.59314096839E+01 -0.15093686840E+02  0.14679795942E+02  0.21874583702E+02  0.00000000000E+00 0.  1.
</event>
<event>
 7    1  0.2478637E-008  0.4614231E+02  0.7816164E-02  0.1320468E+00
        -11   -1    0    0    0    0  0.00000000000E+00  0.00000000000E+00  0.45593999997E+02  0.45594000000E+02  0.51100000000E-03 0. -1.
         11   -1    0    0    0    0 -0.00000000000E+00 -0.00000000000E+00 -0.45593999997E+02  0.45594000000E+02  0.51100000000E-03 0.  1.
    9900012    2    1    2    0    0 -0.42989896712E+02  0.29592953096E+00 -0.13449731746E+02  0.46142311220E+02  0.99999403557E+01 0.  0.
         12    1    1    2    0    0  0.42989896712E+02 -0.29592953096E+00  0.13449731746E+02  0.45045688780E+02  0.00000000000E+00 0. -1.
         11    1    3    3    0    0 -0.12246846041E+02  0.26076947915E+01 -0.34559879373E+01  0.12989579014E+02  0.51100000000E-03 0. -1.
        -11    1    3    3    0    0 -0.82958415542E+01  0.19689749827E+01 -0.45380455788E+01  0.96587632496E+01  0.51100000000E-03 0.  1.
         12    1    3    3    0    0 -0.22447209117E+02 -0.42807402433E+01 -0.54556982298E+01  0.23493968957E+02  0.00000000000E+00 0. -1.
</event>
<event>
 7    1  0.2478637E-008  0.4614232E+02  0.7816164E-02  0.1320468E+00
        -11   -1    0    0    0    0  0.00000000000E+00  0.00000000000E+00  0.45593999997E+02  0.45594000000E+02  0.51100000000E-03 0.  1.
         11   -1    0    0    0    0 -0.00000000000E+00 -0.00000000000E+00 -0.45593999997E+02  0.45594000000E+02  0.51100000000E-03 0. -1.
    9900012    2    1    2    0    0 -0.18792490914E+02  0.40815483395E+02 -0.31704858929E+01  0.46142318961E+02  0.10000010938E+02 0.  0.
         12    1    1    2    0    0  0.18792490914E+02 -0.40815483395E+02  0.31704858929E+01  0.45045681039E+02  0.00000000000E+00 0. -1.
         11    1    3    3    0    0 -0.19050194011E+01  0.14073143138E+02 -0.25863549316E+01  0.14435085340E+02  0.51100000000E-03 0. -1.
        -11    1    3    3    0    0 -0.60744701678E+01  0.90669501679E+01  0.78228266006E+00  0.10941697290E+02  0.51100000000E-03 0.  1.
        -12    1    3    3    0    0 -0.10813001345E+02  0.17675390089E+02 -0.13664136214E+01  0.20765536330E+02  0.00000000000E+00 0.  1.
</event>
<event>
 7    1  0.2478637E-008  0.4614232E+02  0.7816164E-02  0.1320468E+00
        -11   -1    0    0    0    0  0.00000000000E+00  0.00000000000E+00  0.45593999997E+02  0.45594000000E+02  0.51100000000E-03 0.  1.
         11   -1    0    0    0    0 -0.00000000000E+00 -0.00000000000E+00 -0.45593999997E+02  0.45594000000E+02  0.51100000000E-03 0. -1.
    9900012    2    1    2    0    0  0.23330539613E+02 -0.23216682318E+02 -0.30753619185E+02  0.46142317527E+02  0.99999978636E+01 0.  0.
         12    1    1    2    0    0 -0.23330539613E+02  0.23216682318E+02  0.30753619185E+02  0.45045682473E+02  0.00000000000E+00 0. -1.
         11    1    3    3    0    0 -0.66070440211E+00 -0.23663208307E+01 -0.17745782695E+01  0.30306984139E+01  0.51100000000E-03 0. -1.
        -11    1    3    3    0    0  0.31505527409E+01 -0.34018051710E+01 -0.55063032157E+01  0.71984468019E+01  0.51100000000E-03 0.  1.
        -12    1    3    3    0    0  0.20840691274E+02 -0.17448556316E+02 -0.23472737700E+02  0.35913172311E+02  0.00000000000E+00 0.  1.
</event>
<event>
 7    1  0.2478637E-008  0.4614232E+02  0.7816164E-02  0.1320468E+00
        -11   -1    0    0    0    0  0.00000000000E+00  0.00000000000E+00  0.45593999997E+02  0.45594000000E+02  0.51100000000E-03 0.  1.
         11   -1    0    0    0    0 -0.00000000000E+00 -0.00000000000E+00 -0.45593999997E+02  0.45594000000E+02  0.51100000000E-03 0. -1.
    9900012    2    1    2    0    0  0.33065565321E+02  0.12170352654E+02  0.28065359618E+02  0.46142317585E+02  0.99999983943E+01 0.  0.
         12    1    1    2    0    0 -0.33065565321E+02 -0.12170352654E+02 -0.28065359618E+02  0.45045682415E+02  0.00000000000E+00 0. -1.
         11    1    3    3    0    0  0.14399486062E+02  0.65557433032E+01  0.13280677460E+02  0.20656702620E+02  0.51100000000E-03 0. -1.
        -11    1    3    3    0    0  0.19157450089E+02  0.47888263912E+01  0.14445572425E+02  0.24466616339E+02  0.51100000000E-03 0.  1.
         12    1    3    3    0    0 -0.49137082953E+00  0.82578295925E+00  0.33910973313E+00  0.10189986256E+01  0.00000000000E+00 0. -1.
</event>
<event>
 7    1  0.2478637E-008  0.4614232E+02  0.7816164E-02  0.1320468E+00
        -11   -1    0    0    0    0  0.00000000000E+00  0.00000000000E+00  0.45593999997E+02  0.45594000000E+02  0.51100000000E-03 0.  1.
         11   -1    0    0    0    0 -0.00000000000E+00 -0.00000000000E+00 -0.45593999997E+02  0.45594000000E+02  0.51100000000E-03 0. -1.
    9900012    2    1    2    0    0  0.44236976090E+02 -0.58670051266E+01  0.61466794759E+01  0.46142317950E+02  0.10000001723E+02 0.  0.
         12    1    1    2    0    0 -0.44236976090E+02  0.58670051266E+01 -0.61466794759E+01  0.45045682050E+02  0.00000000000E+00 0. -1.
         11    1    3    3    0    0  0.22844194799E+01  0.27099201100E+00  0.17626537613E+01  0.28980955080E+01  0.51100000000E-03 0. -1.
        -11    1    3    3    0    0  0.40431772626E+02 -0.61738276848E+01  0.27216441569E+01  0.40990873779E+02  0.51100000000E-03 0.  1.
        -12    1    3    3    0    0  0.15207839840E+01  0.35830547168E-01  0.16623815576E+01  0.22533486630E+01  0.00000000000E+00 0.  1.
</event>
<event>
 7    1  0.2478637E-008  0.4614232E+02  0.7816164E-02  0.1320468E+00
        -11   -1    0    0    0    0  0.00000000000E+00  0.00000000000E+00  0.45593999997E+02  0.45594000000E+02  0.51100000000E-03 0.  1.
         11   -1    0    0    0    0 -0.00000000000E+00 -0.00000000000E+00 -0.45593999997E+02  0.45594000000E+02  0.51100000000E-03 0. -1.
    9900012    2    1    2    0    0  0.29085684088E+02 -0.21246738472E+02  0.27050186808E+02  0.46142317400E+02  0.99999967036E+01 0.  0.
         12    1    1    2    0    0 -0.29085684088E+02  0.21246738472E+02 -0.27050186808E+02  0.45045682600E+02  0.00000000000E+00 0. -1.
         11    1    3    3    0    0  0.21483758806E+01 -0.20277472841E+01  0.22201686645E+00  0.29625275902E+01  0.51100000000E-03 0. -1.
        -11    1    3    3    0    0  0.92347639233E+01 -0.27294471915E+01  0.71296395757E+01  0.11981757276E+02  0.51100000000E-03 0.  1.
        -12    1    3    3    0    0  0.17702544284E+02 -0.16489543997E+02  0.19698530366E+02  0.31198032533E+02  0.00000000000E+00 0.  1.
</event>
<event>
 7    1  0.2478637E-008  0.4614232E+02  0.7816164E-02  0.1320468E+00
        -11   -1    0    0    0    0  0.00000000000E+00  0.00000000000E+00  0.45593999997E+02  0.45594000000E+02  0.51100000000E-03 0.  1.
         11   -1    0    0    0    0 -0.00000000000E+00 -0.00000000000E+00 -0.45593999997E+02  0.45594000000E+02  0.51100000000E-03 0. -1.
    9900012    2    1    2    0    0  0.39829267754E+02  0.13106051973E+01  0.21000600274E+02  0.46142317991E+02  0.10000002094E+02 0.  0.
         12    1    1    2    0    0 -0.39829267754E+02 -0.13106051973E+01 -0.21000600274E+02  0.45045682009E+02  0.00000000000E+00 0. -1.
         11    1    3    3    0    0  0.73038877497E+01 -0.24658910087E+01  0.67852389843E+01  0.10269706084E+02  0.51100000000E-03 0. -1.
        -11    1    3    3    0    0  0.37974224199E+01  0.15077516438E+01  0.23027943492E+01  0.46900526789E+01  0.51100000000E-03 0.  1.
        -12    1    3    3    0    0  0.28727957584E+02  0.22687445622E+01  0.11912566941E+02  0.31182559227E+02  0.00000000000E+00 0.  1.
</event>
<event>
 7    1  0.2478637E-008  0.4614232E+02  0.7816164E-02  0.1320468E+00
        -11   -1    0    0    0    0  0.00000000000E+00  0.00000000000E+00  0.45593999997E+02  0.45594000000E+02  0.51100000000E-03 0.  1.
         11   -1    0    0    0    0 -0.00000000000E+00 -0.00000000000E+00 -0.45593999997E+02  0.45594000000E+02  0.51100000000E-03 0. -1.
    9900012    2    1    2    0    0 -0.31493831326E-01  0.43557606536E+02 -0.11482488857E+02  0.46142316196E+02  0.99999857249E+01 0.  0.
         12    1    1    2    0    0  0.31493831326E-01 -0.43557606536E+02  0.11482488857E+02  0.45045683804E+02  0.00000000000E+00 0. -1.
         11    1    3    3    0    0  0.15831008516E+01  0.51695560193E+01 -0.32085102972E+00  0.54160376095E+01  0.51100000000E-03 0. -1.
        -11    1    3    3    0    0  0.30688779491E+01  0.16526750980E+02 -0.48686584698E+01  0.17500152725E+02  0.51100000000E-03 0.  1.
         12    1    3    3    0    0 -0.46834726321E+01  0.21861299537E+02 -0.62929793578E+01  0.23226125861E+02  0.00000000000E+00 0. -1.
</event>
<event>
 7    1  0.2478637E-008  0.4614232E+02  0.7816164E-02  0.1320468E+00
        -11   -1    0    0    0    0  0.00000000000E+00  0.00000000000E+00  0.45593999997E+02  0.45594000000E+02  0.51100000000E-03 0. -1.
         11   -1    0    0    0    0 -0.00000000000E+00 -0.00000000000E+00 -0.45593999997E+02  0.45594000000E+02  0.51100000000E-03 0.  1.
    9900012    2    1    2    0    0  0.12792638955E+02 -0.42989088778E+02  0.41713384161E+01  0.46142318414E+02  0.10000005949E+02 0.  0.
         12    1    1    2    0    0 -0.12792638955E+02  0.42989088778E+02 -0.41713384161E+01  0.45045681586E+02  0.00000000000E+00 0. -1.
         11    1    3    3    0    0  0.36111525499E+01 -0.16146914574E+02 -0.30420859136E+00  0.16548589551E+02  0.51100000000E-03 0. -1.
        -11    1    3    3    0    0  0.38413144747E+01 -0.10981421744E+02 -0.16951436240E+01  0.11756735626E+02  0.51100000000E-03 0.  1.
         12    1    3    3    0    0  0.53401719301E+01 -0.15860752460E+02  0.61706906315E+01  0.17836993236E+02  0.00000000000E+00 0. -1.
</event>
<event>
 7    1  0.2478637E-008  0.4614233E+02  0.7816164E-02  0.1320468E+00
        -11   -1    0    0    0    0  0.00000000000E+00  0.00000000000E+00  0.45593999997E+02  0.45594000000E+02  0.51100000000E-03 0.  1.
         11   -1    0    0    0    0 -0.00000000000E+00 -0.00000000000E+00 -0.45593999997E+02  0.45594000000E+02  0.51100000000E-03 0. -1.
    9900012    2    1    2    0    0  0.84841246788E+01 -0.28429695221E+02  0.33895194109E+02  0.46142332887E+02  0.10000137930E+02 0.  0.
         12    1    1    2    0    0 -0.84841246788E+01  0.28429695221E+02 -0.33895194109E+02  0.45045667113E+02  0.00000000000E+00 0. -1.
         11    1    3    3    0    0  0.12230893022E+01 -0.97287621904E+01  0.80629125929E+01  0.12694696567E+02  0.51100000000E-03 0. -1.
        -11    1    3    3    0    0  0.41699823745E+01 -0.17370375483E+02  0.21220691087E+02  0.27738717128E+02  0.51100000000E-03 0.  1.
         12    1    3    3    0    0  0.30910530021E+01 -0.13305575476E+01  0.46115904290E+01  0.57089191914E+01  0.00000000000E+00 0. -1.
</event>
<event>
 7    1  0.2478637E-008  0.4614232E+02  0.7816164E-02  0.1320468E+00
        -11   -1    0    0    0    0  0.00000000000E+00  0.00000000000E+00  0.45593999997E+02  0.45594000000E+02  0.51100000000E-03 0.  1.
         11   -1    0    0    0    0 -0.00000000000E+00 -0.00000000000E+00 -0.45593999997E+02  0.45594000000E+02  0.51100000000E-03 0. -1.
    9900012    2    1    2    0    0  0.26318041103E+02  0.35300127622E+02  0.95065886777E+01  0.46142317344E+02  0.99999962001E+01 0.  0.
         12    1    1    2    0    0 -0.26318041103E+02 -0.35300127622E+02 -0.95065886777E+01  0.45045682656E+02  0.00000000000E+00 0. -1.
         11    1    3    3    0    0  0.22106790396E+02  0.27264297621E+02  0.76170935542E+01  0.35917575376E+02  0.51100000000E-03 0. -1.
        -11    1    3    3    0    0  0.30717677513E+01  0.60690055538E+01  0.32888502668E+01  0.75554696657E+01  0.51100000000E-03 0.  1.
         12    1    3    3    0    0  0.11394829556E+01  0.19668244471E+01 -0.13993551432E+01  0.26692723032E+01  0.00000000000E+00 0. -1.
</event>
<event>
 7    1  0.2478637E-008  0.4614232E+02  0.7816164E-02  0.1320468E+00
        -11   -1    0    0    0    0  0.00000000000E+00  0.00000000000E+00  0.45593999997E+02  0.45594000000E+02  0.51100000000E-03 0.  1.
         11   -1    0    0    0    0 -0.00000000000E+00 -0.00000000000E+00 -0.45593999997E+02  0.45594000000E+02  0.51100000000E-03 0. -1.
    9900012    2    1    2    0    0  0.42551651825E+02 -0.10425361501E+02  0.10477704747E+02  0.46142317274E+02  0.99999955578E+01 0.  0.
         12    1    1    2    0    0 -0.42551651825E+02  0.10425361501E+02 -0.10477704747E+02  0.45045682726E+02  0.00000000000E+00 0. -1.
         11    1    3    3    0    0  0.68310450320E+01 -0.14764839151E+00  0.12617637193E+01  0.69481669685E+01  0.51100000000E-03 0. -1.
        -11    1    3    3    0    0  0.28475706622E+02 -0.93703727384E+01  0.40504852067E+01  0.30250226174E+02  0.51100000000E-03 0.  1.
         12    1    3    3    0    0  0.72449001710E+01 -0.90734037087E+00  0.51654558206E+01  0.89439241316E+01  0.00000000000E+00 0. -1.
</event>
<event>
 7    1  0.2478637E-008  0.4614232E+02  0.7816164E-02  0.1320468E+00
        -11   -1    0    0    0    0  0.00000000000E+00  0.00000000000E+00  0.45593999997E+02  0.45594000000E+02  0.51100000000E-03 0.  1.
         11   -1    0    0    0    0 -0.00000000000E+00 -0.00000000000E+00 -0.45593999997E+02  0.45594000000E+02  0.51100000000E-03 0. -1.
    9900012    2    1    2    0    0  0.40702828089E+02 -0.52405545200E+01  0.18572288041E+02  0.46142317530E+02  0.99999978957E+01 0.  0.
         12    1    1    2    0    0 -0.40702828089E+02  0.52405545200E+01 -0.18572288041E+02  0.45045682470E+02  0.00000000000E+00 0. -1.
         11    1    3    3    0    0  0.45891558497E+01  0.24067537353E+00  0.44310245487E+00  0.46167755084E+01  0.51100000000E-03 0. -1.
        -11    1    3    3    0    0  0.32593490413E+02 -0.42084641426E+01  0.18584288347E+02  0.37754768724E+02  0.51100000000E-03 0.  1.
         12    1    3    3    0    0  0.35201818254E+01 -0.12727657510E+01 -0.45510276127E+00  0.37707732979E+01  0.00000000000E+00 0. -1.
</event>
<event>
 7    1  0.2478637E-008  0.4614232E+02  0.7816164E-02  0.1320468E+00
        -11   -1    0    0    0    0  0.00000000000E+00  0.00000000000E+00  0.45593999997E+02  0.45594000000E+02  0.51100000000E-03 0. -1.
         11   -1    0    0    0    0 -0.00000000000E+00 -0.00000000000E+00 -0.45593999997E+02  0.45594000000E+02  0.51100000000E-03 0.  1.
    9900012    2    1    2    0    0 -0.51150257116E+01 -0.20370801320E+02 -0.39849472382E+02  0.46142317814E+02  0.10000000487E+02 0.  0.
         12    1    1    2    0    0  0.51150257116E+01  0.20370801320E+02  0.39849472382E+02  0.45045682186E+02  0.00000000000E+00 0. -1.
         11    1    3    3    0    0 -0.22683739517E+00 -0.20869619513E+01 -0.66765062279E+01  0.69987571084E+01  0.51100000000E-03 0.  1.
        -11    1    3    3    0    0 -0.72715460400E+01 -0.12764217919E+02 -0.25015204855E+02  0.29009672785E+02  0.51100000000E-03 0. -1.
         12    1    3    3    0    0  0.23833577237E+01 -0.55196214491E+01 -0.81577612989E+01  0.10133887921E+02  0.00000000000E+00 0. -1.
</event>
<event>
 7    1  0.2478637E-008  0.4614232E+02  0.7816164E-02  0.1320468E+00
        -11   -1    0    0    0    0  0.00000000000E+00  0.00000000000E+00  0.45593999997E+02  0.45594000000E+02  0.51100000000E-03 0. -1.
         11   -1    0    0    0    0 -0.00000000000E+00 -0.00000000000E+00 -0.45593999997E+02  0.45594000000E+02  0.51100000000E-03 0.  1.
    9900012    2    1    2    0    0  0.54107849543E+01  0.57456870925E+01 -0.44348889486E+02  0.46142317492E+02  0.99999975455E+01 0.  0.
         12    1    1    2    0    0 -0.54107849543E+01 -0.57456870925E+01  0.44348889486E+02  0.45045682508E+02  0.00000000000E+00 0. -1.
         11    1    3    3    0    0  0.28993359921E+00  0.17191189304E+01 -0.18279504617E+02  0.18362454103E+02  0.51100000000E-03 0. -1.
        -11    1    3    3    0    0  0.10459485270E+01 -0.51300192268E+00 -0.15744503758E+02  0.15787545032E+02  0.51100000000E-03 0.  1.
         12    1    3    3    0    0  0.40749028281E+01  0.45395700847E+01 -0.10324881111E+02  0.11992318357E+02  0.00000000000E+00 0. -1.
</event>
<event>
 7    1  0.2478637E-008  0.4614232E+02  0.7816164E-02  0.1320468E+00
        -11   -1    0    0    0    0  0.00000000000E+00  0.00000000000E+00  0.45593999997E+02  0.45594000000E+02  0.51100000000E-03 0. -1.
         11   -1    0    0    0    0 -0.00000000000E+00 -0.00000000000E+00 -0.45593999997E+02  0.45594000000E+02  0.51100000000E-03 0.  1.
    9900012    2    1    2    0    0  0.40492856092E+02  0.10237364767E+02  0.16871231301E+02  0.46142317882E+02  0.10000001101E+02 0.  0.
         12    1    1    2    0    0 -0.40492856092E+02 -0.10237364767E+02 -0.16871231301E+02  0.45045682118E+02  0.00000000000E+00 0. -1.
         11    1    3    3    0    0  0.16510872677E+02  0.79557601973E+01  0.53740826908E+01  0.19099314174E+02  0.51100000000E-03 0.  1.
        -11    1    3    3    0    0  0.47997968559E+01  0.21271077963E+00  0.48720781500E+00  0.48291476939E+01  0.51100000000E-03 0. -1.
        -12    1    3    3    0    0  0.19182186559E+02  0.20688937901E+01  0.11009940795E+02  0.22213856014E+02  0.00000000000E+00 0.  1.
</event>
<event>
 7    1  0.2478637E-008  0.4614232E+02  0.7816164E-02  0.1320468E+00
        -11   -1    0    0    0    0  0.00000000000E+00  0.00000000000E+00  0.45593999997E+02  0.45594000000E+02  0.51100000000E-03 0.  1.
         11   -1    0    0    0    0 -0.00000000000E+00 -0.00000000000E+00 -0.45593999997E+02  0.45594000000E+02  0.51100000000E-03 0. -1.
    9900012    2    1    2    0    0  0.41024457700E+02  0.18454174316E+02  0.23560129562E+01  0.46142317895E+02  0.10000001225E+02 0.  0.
         12    1    1    2    0    0 -0.41024457700E+02 -0.18454174316E+02 -0.23560129562E+01  0.45045682105E+02  0.00000000000E+00 0. -1.
         11    1    3    3    0    0  0.81619295875E+00  0.11864927291E+01  0.11303391993E+01  0.18307383507E+01  0.51100000000E-03 0. -1.
        -11    1    3    3    0    0 -0.25936043392E+00 -0.58094536657E-01 -0.59014134493E-01  0.27226042507E+00  0.51100000000E-03 0.  1.
        -12    1    3    3    0    0  0.40467625175E+02  0.17325776123E+02  0.12846878913E+01  0.44039319120E+02  0.00000000000E+00 0.  1.
</event>
<event>
 7    1  0.2478637E-008  0.4614232E+02  0.7816164E-02  0.1320468E+00
        -11   -1    0    0    0    0  0.00000000000E+00  0.00000000000E+00  0.45593999997E+02  0.45594000000E+02  0.51100000000E-03 0. -1.
         11   -1    0    0    0    0 -0.00000000000E+00 -0.00000000000E+00 -0.45593999997E+02  0.45594000000E+02  0.51100000000E-03 0.  1.
    9900012    2    1    2    0    0 -0.28677289436E+02  0.18657435784E+02 -0.29302331792E+02  0.46142317766E+02  0.10000000049E+02 0.  0.
         12    1    1    2    0    0  0.28677289436E+02 -0.18657435784E+02  0.29302331792E+02  0.45045682234E+02  0.00000000000E+00 0. -1.
         11    1    3    3    0    0 -0.14143845742E+01 -0.56561030905E+00 -0.23249050434E+00  0.15409253198E+01  0.51100000000E-03 0. -1.
        -11    1    3    3    0    0 -0.12342981008E+02  0.53478698347E+01 -0.11617137474E+02  0.17773766491E+02  0.51100000000E-03 0.  1.
        -12    1    3    3    0    0 -0.14919923854E+02  0.13875176258E+02 -0.17452703814E+02  0.26827625956E+02  0.00000000000E+00 0.  1.
</event>
<event>
 7    1  0.2478637E-008  0.4614232E+02  0.7816164E-02  0.1320468E+00
        -11   -1    0    0    0    0  0.00000000000E+00  0.00000000000E+00  0.45593999997E+02  0.45594000000E+02  0.51100000000E-03 0.  1.
         11   -1    0    0    0    0 -0.00000000000E+00 -0.00000000000E+00 -0.45593999997E+02  0.45594000000E+02  0.51100000000E-03 0. -1.
    9900012    2    1    2    0    0 -0.33529637150E+02 -0.29747626769E+02  0.44671722209E+01  0.46142317704E+02  0.99999994832E+01 0.  0.
         12    1    1    2    0    0  0.33529637150E+02  0.29747626769E+02 -0.44671722209E+01  0.45045682296E+02  0.00000000000E+00 0. -1.
         11    1    3    3    0    0 -0.83213049491E+01 -0.26796126290E+01  0.14214801023E+01  0.88569207877E+01  0.51100000000E-03 0. -1.
        -11    1    3    3    0    0 -0.17774444999E+02 -0.16618942846E+02  0.17466027156E+01  0.24396122184E+02  0.51100000000E-03 0.  1.
         12    1    3    3    0    0 -0.74338872025E+01 -0.10449071294E+02  0.12990894030E+01  0.12889274732E+02  0.00000000000E+00 0. -1.
</event>
<event>
 7    1  0.2478637E-008  0.4614232E+02  0.7816164E-02  0.1320468E+00
        -11   -1    0    0    0    0  0.00000000000E+00  0.00000000000E+00  0.45593999997E+02  0.45594000000E+02  0.51100000000E-03 0. -1.
         11   -1    0    0    0    0 -0.00000000000E+00 -0.00000000000E+00 -0.45593999997E+02  0.45594000000E+02  0.51100000000E-03 0.  1.
    9900012    2    1    2    0    0  0.91996148126E+01 -0.42169374423E+02 -0.12892806761E+02  0.46142317431E+02  0.99999969941E+01 0.  0.
         12    1    1    2    0    0 -0.91996148126E+01  0.42169374423E+02  0.12892806761E+02  0.45045682569E+02  0.00000000000E+00 0. -1.
         11    1    3    3    0    0  0.48286932789E+00 -0.13972996740E+02 -0.13186145667E+01  0.14043380837E+02  0.51100000000E-03 0. -1.
        -11    1    3    3    0    0  0.43761701272E+01 -0.21546753913E+02 -0.89026075259E+01  0.23720663780E+02  0.51100000000E-03 0.  1.
         12    1    3    3    0    0  0.43405753575E+01 -0.66496237695E+01 -0.26715846680E+01  0.83782728141E+01  0.00000000000E+00 0. -1.
</event>
<event>
 7    1  0.2478637E-008  0.4614232E+02  0.7816164E-02  0.1320468E+00
        -11   -1    0    0    0    0  0.00000000000E+00  0.00000000000E+00  0.45593999997E+02  0.45594000000E+02  0.51100000000E-03 0. -1.
         11   -1    0    0    0    0 -0.00000000000E+00 -0.00000000000E+00 -0.45593999997E+02  0.45594000000E+02  0.51100000000E-03 0.  1.
    9900012    2    1    2    0    0 -0.35533062864E+02 -0.18259142405E+02 -0.20811502464E+02  0.46142317935E+02  0.10000001588E+02 0.  0.
         12    1    1    2    0    0  0.35533062864E+02  0.18259142405E+02  0.20811502464E+02  0.45045682065E+02  0.00000000000E+00 0. -1.
         11    1    3    3    0    0 -0.12558088426E+01 -0.31699039147E+01 -0.20441829239E+01  0.39754283750E+01  0.51100000000E-03 0. -1.
        -11    1    3    3    0    0 -0.19315927504E+02 -0.10696029018E+02 -0.95779985366E+01  0.24067574625E+02  0.51100000000E-03 0.  1.
        -12    1    3    3    0    0 -0.14961326517E+02 -0.43932094725E+01 -0.91893210032E+01  0.18099314935E+02  0.00000000000E+00 0.  1.
</event>
<event>
 7    1  0.2478637E-008  0.4614232E+02  0.7816164E-02  0.1320468E+00
        -11   -1    0    0    0    0  0.00000000000E+00  0.00000000000E+00  0.45593999997E+02  0.45594000000E+02  0.51100000000E-03 0.  1.
         11   -1    0    0    0    0 -0.00000000000E+00 -0.00000000000E+00 -0.45593999997E+02  0.45594000000E+02  0.51100000000E-03 0. -1.
    9900012    2    1    2    0    0  0.34935173810E+02  0.10530518779E+02  0.26415058768E+02  0.46142317359E+02  0.99999963305E+01 0.  0.
         12    1    1    2    0    0 -0.34935173810E+02 -0.10530518779E+02 -0.26415058768E+02  0.45045682641E+02  0.00000000000E+00 0. -1.
         11    1    3    3    0    0  0.10356212647E+02  0.52395761448E+01  0.45754446666E+01  0.12475535769E+02  0.51100000000E-03 0. -1.
        -11    1    3    3    0    0  0.20447477597E+02  0.27098376270E+01  0.16296290884E+02  0.26287100580E+02  0.51100000000E-03 0.  1.
         12    1    3    3    0    0  0.41314835657E+01  0.25811050070E+01  0.55433232171E+01  0.73796810094E+01  0.00000000000E+00 0. -1.
</event>
<event>
 7    1  0.2478637E-008  0.4614232E+02  0.7816164E-02  0.1320468E+00
        -11   -1    0    0    0    0  0.00000000000E+00  0.00000000000E+00  0.45593999997E+02  0.45594000000E+02  0.51100000000E-03 0.  1.
         11   -1    0    0    0    0 -0.00000000000E+00 -0.00000000000E+00 -0.45593999997E+02  0.45594000000E+02  0.51100000000E-03 0. -1.
    9900012    2    1    2    0    0  0.24324755719E+02  0.19410355531E+02  0.32567742618E+02  0.46142317611E+02  0.99999986343E+01 0.  0.
         12    1    1    2    0    0 -0.24324755719E+02 -0.19410355531E+02 -0.32567742618E+02  0.45045682389E+02  0.00000000000E+00 0. -1.
         11    1    3    3    0    0  0.39062658193E+01 -0.17900361079E+00  0.59782417021E+01  0.71435515714E+01  0.51100000000E-03 0. -1.
        -11    1    3    3    0    0  0.19367259065E+02  0.19288979716E+02  0.26124624938E+02  0.37810732479E+02  0.51100000000E-03 0.  1.
        -12    1    3    3    0    0  0.10512308349E+01  0.30037942525E+00  0.46487597827E+00  0.11880335612E+01  0.00000000000E+00 0.  1.
</event>
<event>
 7    1  0.2478637E-008  0.4614232E+02  0.7816164E-02  0.1320468E+00
        -11   -1    0    0    0    0  0.00000000000E+00  0.00000000000E+00  0.45593999997E+02  0.45594000000E+02  0.51100000000E-03 0.  1.
         11   -1    0    0    0    0 -0.00000000000E+00 -0.00000000000E+00 -0.45593999997E+02  0.45594000000E+02  0.51100000000E-03 0. -1.
    9900012    2    1    2    0    0 -0.13359717986E+02  0.15731937626E+01  0.42990190599E+02  0.46142317731E+02  0.99999997287E+01 0.  0.
         12    1    1    2    0    0  0.13359717986E+02 -0.15731937626E+01 -0.42990190599E+02  0.45045682269E+02  0.00000000000E+00 0. -1.
         11    1    3    3    0    0  0.13507573461E+00 -0.62464438782E+00  0.78964257494E+01  0.79222450065E+01  0.51100000000E-03 0. -1.
        -11    1    3    3    0    0 -0.74752000962E+01  0.28909519117E+01  0.12671005019E+02  0.14993017971E+02  0.51100000000E-03 0.  1.
        -12    1    3    3    0    0 -0.60195936241E+01 -0.69311376134E+00  0.22422759831E+02  0.23227054754E+02  0.00000000000E+00 0.  1.
</event>
<event>
 7    1  0.2478637E-008  0.4614232E+02  0.7816164E-02  0.1320468E+00
        -11   -1    0    0    0    0  0.00000000000E+00  0.00000000000E+00  0.45593999997E+02  0.45594000000E+02  0.51100000000E-03 0.  1.
         11   -1    0    0    0    0 -0.00000000000E+00 -0.00000000000E+00 -0.45593999997E+02  0.45594000000E+02  0.51100000000E-03 0. -1.
    9900012    2    1    2    0    0  0.18938656309E+02  0.35738287334E+02  0.19829665452E+02  0.46142317451E+02  0.99999971751E+01 0.  0.
         12    1    1    2    0    0 -0.18938656309E+02 -0.35738287334E+02 -0.19829665452E+02  0.45045682549E+02  0.00000000000E+00 0. -1.
         11    1    3    3    0    0  0.11209688769E+02  0.25532149194E+02  0.11439308443E+02  0.30139766799E+02  0.51100000000E-03 0. -1.
        -11    1    3    3    0    0  0.31122637630E+01  0.68719678408E+01  0.66262404010E+01  0.10040776357E+02  0.51100000000E-03 0.  1.
         12    1    3    3    0    0  0.46167037768E+01  0.33341702983E+01  0.17641166079E+01  0.59617742952E+01  0.00000000000E+00 0. -1.
</event>
<event>
 7    1  0.2478637E-008  0.4614232E+02  0.7816164E-02  0.1320468E+00
        -11   -1    0    0    0    0  0.00000000000E+00  0.00000000000E+00  0.45593999997E+02  0.45594000000E+02  0.51100000000E-03 0.  1.
         11   -1    0    0    0    0 -0.00000000000E+00 -0.00000000000E+00 -0.45593999997E+02  0.45594000000E+02  0.51100000000E-03 0. -1.
    9900012    2    1    2    0    0 -0.24143445642E+02  0.30420956875E+02  0.22820443706E+02  0.46142320567E+02  0.10000025588E+02 0.  0.
         12    1    1    2    0    0  0.24143445642E+02 -0.30420956875E+02 -0.22820443706E+02  0.45045679433E+02  0.00000000000E+00 0. -1.
         11    1    3    3    0    0 -0.53914459283E+00 -0.55917355371E+00  0.10968179701E+01  0.13440096264E+01  0.51100000000E-03 0. -1.
        -11    1    3    3    0    0 -0.20871692492E+00 -0.11224909168E+00  0.69725813924E-02  0.23708962723E+00  0.51100000000E-03 0.  1.
        -12    1    3    3    0    0 -0.23395584124E+02  0.31092379520E+02  0.21716653154E+02  0.44561221314E+02  0.00000000000E+00 0.  1.
</event>
<event>
 7    1  0.2478637E-008  0.4614233E+02  0.7816164E-02  0.1320468E+00
        -11   -1    0    0    0    0  0.00000000000E+00  0.00000000000E+00  0.45593999997E+02  0.45594000000E+02  0.51100000000E-03 0. -1.
         11   -1    0    0    0    0 -0.00000000000E+00 -0.00000000000E+00 -0.45593999997E+02  0.45594000000E+02  0.51100000000E-03 0.  1.
    9900012    2    1    2    0    0 -0.66511998335E+01 -0.40238259568E+02 -0.19124756146E+02  0.46142331064E+02  0.10000121303E+02 0.  0.
         12    1    1    2    0    0  0.66511998335E+01  0.40238259568E+02  0.19124756146E+02  0.45045668936E+02  0.00000000000E+00 0. -1.
         11    1    3    3    0    0  0.18082543692E+01 -0.90465607837E+01 -0.59028551629E+01  0.10952339714E+02  0.51100000000E-03 0. -1.
        -11    1    3    3    0    0 -0.54406108178E+01 -0.11894993358E+02 -0.53155292049E+01  0.14118993025E+02  0.51100000000E-03 0.  1.
        -12    1    3    3    0    0 -0.30188433850E+01 -0.19296705427E+02 -0.79063717777E+01  0.21070998324E+02  0.00000000000E+00 0.  1.
</event>
<event>
 7    1  0.2478637E-008  0.4614232E+02  0.7816164E-02  0.1320468E+00
        -11   -1    0    0    0    0  0.00000000000E+00  0.00000000000E+00  0.45593999997E+02  0.45594000000E+02  0.51100000000E-03 0. -1.
         11   -1    0    0    0    0 -0.00000000000E+00 -0.00000000000E+00 -0.45593999997E+02  0.45594000000E+02  0.51100000000E-03 0.  1.
    9900012    2    1    2    0    0  0.38952164407E+02 -0.20077571738E+02 -0.10427546686E+02  0.46142315092E+02  0.99999756624E+01 0.  0.
         12    1    1    2    0    0 -0.38952164407E+02  0.20077571738E+02  0.10427546686E+02  0.45045684908E+02  0.00000000000E+00 0. -1.
         11    1    3    3    0    0  0.14143936124E+02 -0.11886084567E+02 -0.33808572697E+01  0.18781909689E+02  0.51100000000E-03 0. -1.
        -11    1    3    3    0    0  0.14749140420E+02 -0.69376183379E+01 -0.42206600100E+01  0.16836913688E+02  0.51100000000E-03 0.  1.
         12    1    3    3    0    0  0.10059087863E+02 -0.12538688331E+01 -0.28260294063E+01  0.10523491715E+02  0.00000000000E+00 0. -1.
</event>
<event>
 7    1  0.2478637E-008  0.4614232E+02  0.7816164E-02  0.1320468E+00
        -11   -1    0    0    0    0  0.00000000000E+00  0.00000000000E+00  0.45593999997E+02  0.45594000000E+02  0.51100000000E-03 0. -1.
         11   -1    0    0    0    0 -0.00000000000E+00 -0.00000000000E+00 -0.45593999997E+02  0.45594000000E+02  0.51100000000E-03 0.  1.
    9900012    2    1    2    0    0  0.40016126658E+02  0.19914656935E+02 -0.55883326448E+01  0.46142318572E+02  0.10000007398E+02 0.  0.
         12    1    1    2    0    0 -0.40016126658E+02 -0.19914656935E+02  0.55883326448E+01  0.45045681428E+02  0.00000000000E+00 0. -1.
         11    1    3    3    0    0  0.13739779772E+02  0.79329742681E+01 -0.52783762515E+01  0.16720492967E+02  0.51100000000E-03 0. -1.
        -11    1    3    3    0    0  0.24831082517E+02  0.10046089931E+02  0.71950179878E+00  0.26795974791E+02  0.51100000000E-03 0.  1.
        -12    1    3    3    0    0  0.14452643679E+01  0.19355927362E+01 -0.10294581921E+01  0.26258508150E+01  0.00000000000E+00 0.  1.
</event>
<event>
 7    1  0.2478637E-008  0.4614232E+02  0.7816164E-02  0.1320468E+00
        -11   -1    0    0    0    0  0.00000000000E+00  0.00000000000E+00  0.45593999997E+02  0.45594000000E+02  0.51100000000E-03 0. -1.
         11   -1    0    0    0    0 -0.00000000000E+00 -0.00000000000E+00 -0.45593999997E+02  0.45594000000E+02  0.51100000000E-03 0.  1.
    9900012    2    1    2    0    0 -0.23244014369E+02  0.27808251112E+02  0.26749401732E+02  0.46142317334E+02  0.99999961038E+01 0.  0.
         12    1    1    2    0    0  0.23244014369E+02 -0.27808251112E+02 -0.26749401732E+02  0.45045682666E+02  0.00000000000E+00 0. -1.
         11    1    3    3    0    0 -0.71718123103E+01  0.11554226829E+02  0.11303679127E+02  0.17683557659E+02  0.51100000000E-03 0. -1.
        -11    1    3    3    0    0 -0.14425416328E+02  0.16741384022E+02  0.14914839252E+02  0.26661189122E+02  0.51100000000E-03 0.  1.
        -12    1    3    3    0    0 -0.16467857305E+01 -0.48735973951E+00  0.53088335300E+00  0.17975705528E+01  0.00000000000E+00 0.  1.
</event>
<event>
 7    1  0.2478637E-008  0.4614232E+02  0.7816164E-02  0.1320468E+00
        -11   -1    0    0    0    0  0.00000000000E+00  0.00000000000E+00  0.45593999997E+02  0.45594000000E+02  0.51100000000E-03 0.  1.
         11   -1    0    0    0    0 -0.00000000000E+00 -0.00000000000E+00 -0.45593999997E+02  0.45594000000E+02  0.51100000000E-03 0. -1.
    9900012    2    1    2    0    0 -0.26725584906E+02  0.31185686477E+02  0.18501610062E+02  0.46142317582E+02  0.99999983652E+01 0.  0.
         12    1    1    2    0    0  0.26725584906E+02 -0.31185686477E+02 -0.18501610062E+02  0.45045682418E+02  0.00000000000E+00 0. -1.
         11    1    3    3    0    0  0.24042885007E+00  0.35746827334E+00 -0.29534868910E+00  0.52232241735E+00  0.51100000000E-03 0. -1.
        -11    1    3    3    0    0 -0.95531001972E+01  0.98437145591E+01  0.99735385451E+01  0.16959714357E+02  0.51100000000E-03 0.  1.
         12    1    3    3    0    0 -0.17412913559E+02  0.20984503645E+02  0.88234202059E+01  0.28660280808E+02  0.00000000000E+00 0. -1.
</event>
<event>
 7    1  0.2501718E-008  0.4614232E+02  0.7816164E-02  0.1320468E+00
        -11   -1    0    0    0    0  0.00000000000E+00  0.00000000000E+00  0.45593999997E+02  0.45594000000E+02  0.51100000000E-03 0. -1.
         11   -1    0    0    0    0 -0.00000000000E+00 -0.00000000000E+00 -0.45593999997E+02  0.45594000000E+02  0.51100000000E-03 0.  1.
    9900012    2    1    2    0    0 -0.15561140140E+02 -0.68681350355E+01 -0.41710827367E+02  0.46142317843E+02  0.10000000744E+02 0.  0.
         12    1    1    2    0    0  0.15561140140E+02  0.68681350355E+01  0.41710827367E+02  0.45045682157E+02  0.00000000000E+00 0. -1.
         11    1    3    3    0    0 -0.21506181373E+01  0.12124773221E-01 -0.17814143915E+01  0.27926229387E+01  0.51100000000E-03 0. -1.
        -11    1    3    3    0    0 -0.45605664416E+01  0.63901758088E+00 -0.17454916089E+02  0.18052180081E+02  0.51100000000E-03 0.  1.
        -12    1    3    3    0    0 -0.88499555616E+01 -0.75192773896E+01 -0.22474496887E+02  0.25297514823E+02  0.00000000000E+00 0.  1.
</event>
<event>
 7    1  0.2478637E-008  0.4614232E+02  0.7816164E-02  0.1320468E+00
        -11   -1    0    0    0    0  0.00000000000E+00  0.00000000000E+00  0.45593999997E+02  0.45594000000E+02  0.51100000000E-03 0. -1.
         11   -1    0    0    0    0 -0.00000000000E+00 -0.00000000000E+00 -0.45593999997E+02  0.45594000000E+02  0.51100000000E-03 0.  1.
    9900012    2    1    2    0    0  0.20585852470E+02 -0.25853825466E+02 -0.30609083163E+02  0.46142316686E+02  0.99999901980E+01 0.  0.
         12    1    1    2    0    0 -0.20585852470E+02  0.25853825466E+02  0.30609083163E+02  0.45045683314E+02  0.00000000000E+00 0. -1.
         11    1    3    3    0    0  0.55221807993E+01 -0.44456911868E+01 -0.87640700236E+01  0.11272425407E+02  0.51100000000E-03 0. -1.
        -11    1    3    3    0    0  0.13524457203E+02 -0.14613733163E+02 -0.18342184928E+02  0.27072271567E+02  0.51100000000E-03 0.  1.
        -12    1    3    3    0    0  0.15392144676E+01 -0.67944011165E+01 -0.35028282114E+01  0.77976197130E+01  0.00000000000E+00 0.  1.
</event>
<event>
 7    1  0.2478637E-008  0.4614232E+02  0.7816164E-02  0.1320468E+00
        -11   -1    0    0    0    0  0.00000000000E+00  0.00000000000E+00  0.45593999997E+02  0.45594000000E+02  0.51100000000E-03 0. -1.
         11   -1    0    0    0    0 -0.00000000000E+00 -0.00000000000E+00 -0.45593999997E+02  0.45594000000E+02  0.51100000000E-03 0.  1.
    9900012    2    1    2    0    0 -0.23930396881E+02 -0.20705904612E+02 -0.32057997300E+02  0.46142316838E+02  0.99999915833E+01 0.  0.
         12    1    1    2    0    0  0.23930396881E+02  0.20705904612E+02  0.32057997300E+02  0.45045683162E+02  0.00000000000E+00 0. -1.
         11    1    3    3    0    0 -0.68589957222E+01 -0.37625375723E+01 -0.71197660933E+01  0.10577976214E+02  0.51100000000E-03 0. -1.
        -11    1    3    3    0    0 -0.15584603623E+02 -0.11570615779E+02 -0.21712212662E+02  0.29123516246E+02  0.51100000000E-03 0.  1.
         12    1    3    3    0    0 -0.14867975350E+01 -0.53727512604E+01 -0.32260185441E+01  0.64408243776E+01  0.00000000000E+00 0. -1.
</event>
<event>
 7    1  0.2478637E-008  0.4614232E+02  0.7816164E-02  0.1320468E+00
        -11   -1    0    0    0    0  0.00000000000E+00  0.00000000000E+00  0.45593999997E+02  0.45594000000E+02  0.51100000000E-03 0.  1.
         11   -1    0    0    0    0 -0.00000000000E+00 -0.00000000000E+00 -0.45593999997E+02  0.45594000000E+02  0.51100000000E-03 0. -1.
    9900012    2    1    2    0    0  0.22344507882E+01 -0.18088010061E+02  0.41193987593E+02  0.46142317720E+02  0.99999996235E+01 0.  0.
         12    1    1    2    0    0 -0.22344507882E+01  0.18088010061E+02 -0.41193987593E+02  0.45045682280E+02  0.00000000000E+00 0. -1.
         11    1    3    3    0    0  0.10035761348E+01 -0.30369243397E+01  0.14673852680E+02  0.15018389635E+02  0.51100000000E-03 0. -1.
        -11    1    3    3    0    0 -0.16797460494E+01 -0.89760245897E+01  0.18641757252E+02  0.20758267701E+02  0.51100000000E-03 0.  1.
         12    1    3    3    0    0  0.29106207028E+01 -0.60750611315E+01  0.78783776605E+01  0.10365660384E+02  0.00000000000E+00 0. -1.
</event>
<event>
 7    1  0.2478637E-008  0.4614232E+02  0.7816164E-02  0.1320468E+00
        -11   -1    0    0    0    0  0.00000000000E+00  0.00000000000E+00  0.45593999997E+02  0.45594000000E+02  0.51100000000E-03 0. -1.
         11   -1    0    0    0    0 -0.00000000000E+00 -0.00000000000E+00 -0.45593999997E+02  0.45594000000E+02  0.51100000000E-03 0.  1.
    9900012    2    1    2    0    0 -0.19416223059E+02 -0.69179035693E+01 -0.40053294619E+02  0.46142317438E+02  0.99999970492E+01 0.  0.
         12    1    1    2    0    0  0.19416223059E+02  0.69179035693E+01  0.40053294619E+02  0.45045682562E+02  0.00000000000E+00 0. -1.
         11    1    3    3    0    0 -0.64908044651E+00  0.83602335200E+00 -0.51092642777E+01  0.52177411004E+01  0.51100000000E-03 0. -1.
        -11    1    3    3    0    0 -0.58499846421E+01  0.35895847862E+00 -0.12260238832E+02  0.13589136395E+02  0.51100000000E-03 0.  1.
         12    1    3    3    0    0 -0.12917157970E+02 -0.81128853999E+01 -0.22683791510E+02  0.27335439942E+02  0.00000000000E+00 0. -1.
</event>
<event>
 7    1  0.2478637E-008  0.4614232E+02  0.7816164E-02  0.1320468E+00
        -11   -1    0    0    0    0  0.00000000000E+00  0.00000000000E+00  0.45593999997E+02  0.45594000000E+02  0.51100000000E-03 0.  1.
         11   -1    0    0    0    0 -0.00000000000E+00 -0.00000000000E+00 -0.45593999997E+02  0.45594000000E+02  0.51100000000E-03 0. -1.
    9900012    2    1    2    0    0 -0.74174810194E+01 -0.39548248410E+02 -0.20249210531E+02  0.46142317587E+02  0.99999984132E+01 0.  0.
         12    1    1    2    0    0  0.74174810194E+01  0.39548248410E+02  0.20249210531E+02  0.45045682413E+02  0.00000000000E+00 0. -1.
         11    1    3    3    0    0  0.10115906636E+01 -0.40544882634E+01 -0.15892407465E+01  0.44707803748E+01  0.51100000000E-03 0. -1.
        -11    1    3    3    0    0 -0.29290859740E+01 -0.24004476389E+02 -0.94978012045E+01  0.25980813292E+02  0.51100000000E-03 0.  1.
         12    1    3    3    0    0 -0.54999857090E+01 -0.11489283757E+02 -0.91621685796E+01  0.15690723920E+02  0.00000000000E+00 0. -1.
</event>
<event>
 7    1  0.2478637E-008  0.4614232E+02  0.7816164E-02  0.1320468E+00
        -11   -1    0    0    0    0  0.00000000000E+00  0.00000000000E+00  0.45593999997E+02  0.45594000000E+02  0.51100000000E-03 0.  1.
         11   -1    0    0    0    0 -0.00000000000E+00 -0.00000000000E+00 -0.45593999997E+02  0.45594000000E+02  0.51100000000E-03 0. -1.
    9900012    2    1    2    0    0 -0.24637936985E+02  0.29818298737E+02  0.23085809145E+02  0.46142318050E+02  0.10000002632E+02 0.  0.
         12    1    1    2    0    0  0.24637936985E+02 -0.29818298737E+02 -0.23085809145E+02  0.45045681950E+02  0.00000000000E+00 0. -1.
         11    1    3    3    0    0 -0.83881340874E+01  0.75695241520E+01  0.79812214332E+01  0.13833234805E+02  0.51100000000E-03 0. -1.
        -11    1    3    3    0    0 -0.76210160708E+01  0.69698134284E+01  0.90947868972E+01  0.13761298418E+02  0.51100000000E-03 0.  1.
         12    1    3    3    0    0 -0.86287868271E+01  0.15278961157E+02  0.60098008148E+01  0.18547784826E+02  0.00000000000E+00 0. -1.
</event>
<event>
 7    1  0.2478637E-008  0.4614232E+02  0.7816164E-02  0.1320468E+00
        -11   -1    0    0    0    0  0.00000000000E+00  0.00000000000E+00  0.45593999997E+02  0.45594000000E+02  0.51100000000E-03 0.  1.
         11   -1    0    0    0    0 -0.00000000000E+00 -0.00000000000E+00 -0.45593999997E+02  0.45594000000E+02  0.51100000000E-03 0. -1.
    9900012    2    1    2    0    0 -0.65013603675E+01 -0.33914380977E+02  0.28925084753E+02  0.46142318169E+02  0.10000003720E+02 0.  0.
         12    1    1    2    0    0  0.65013603675E+01  0.33914380977E+02 -0.28925084753E+02  0.45045681831E+02  0.00000000000E+00 0. -1.
         11    1    3    3    0    0  0.94878743909E-01 -0.22230559422E+01  0.19525180477E+01  0.29602882776E+01  0.51100000000E-03 0. -1.
        -11    1    3    3    0    0  0.10164690510E+01 -0.18131401340E+02  0.13971270136E+02  0.22912383406E+02  0.51100000000E-03 0.  1.
         12    1    3    3    0    0 -0.76127081624E+01 -0.13559923695E+02  0.13001296568E+02  0.20269646485E+02  0.00000000000E+00 0. -1.
</event>
<event>
 7    1  0.2478637E-008  0.4614231E+02  0.7816164E-02  0.1320468E+00
        -11   -1    0    0    0    0  0.00000000000E+00  0.00000000000E+00  0.45593999997E+02  0.45594000000E+02  0.51100000000E-03 0.  1.
         11   -1    0    0    0    0 -0.00000000000E+00 -0.00000000000E+00 -0.45593999997E+02  0.45594000000E+02  0.51100000000E-03 0. -1.
    9900012    2    1    2    0    0  0.40091738541E+01 -0.36385077704E+02  0.26251979709E+02  0.46142314378E+02  0.99999691499E+01 0.  0.
         12    1    1    2    0    0 -0.40091738541E+01  0.36385077704E+02 -0.26251979709E+02  0.45045685622E+02  0.00000000000E+00 0. -1.
         11    1    3    3    0    0  0.23456183761E+01 -0.59771099584E+01  0.50977613017E+01  0.81984717826E+01  0.51100000000E-03 0. -1.
        -11    1    3    3    0    0 -0.21677503581E+01 -0.20596715021E+02  0.11680249962E+02  0.23777132937E+02  0.51100000000E-03 0.  1.
        -12    1    3    3    0    0  0.38313058362E+01 -0.98112527243E+01  0.94739684459E+01  0.14166709658E+02  0.00000000000E+00 0.  1.
</event>
<event>
 7    1  0.2478637E-008  0.4614232E+02  0.7816164E-02  0.1320468E+00
        -11   -1    0    0    0    0  0.00000000000E+00  0.00000000000E+00  0.45593999997E+02  0.45594000000E+02  0.51100000000E-03 0.  1.
         11   -1    0    0    0    0 -0.00000000000E+00 -0.00000000000E+00 -0.45593999997E+02  0.45594000000E+02  0.51100000000E-03 0. -1.
    9900012    2    1    2    0    0 -0.86495572759E+01 -0.44205288335E+02 -0.43717495139E+00  0.46142317857E+02  0.10000000871E+02 0.  0.
         12    1    1    2    0    0  0.86495572759E+01  0.44205288335E+02  0.43717495139E+00  0.45045682143E+02  0.00000000000E+00 0. -1.
         11    1    3    3    0    0 -0.52658321158E+01 -0.18904473225E+02 -0.23667415257E+01  0.19766374516E+02  0.51100000000E-03 0.  1.
        -11    1    3    3    0    0 -0.34163302954E+01 -0.54847026635E+01 -0.43448890732E-01  0.64618235863E+01  0.51100000000E-03 0. -1.
        -12    1    3    3    0    0  0.32605135248E-01 -0.19816112446E+02  0.19730154650E+01  0.19914119754E+02  0.00000000000E+00 0.  1.
</event>
<event>
 7    1  0.2478637E-008  0.4614232E+02  0.7816164E-02  0.1320468E+00
        -11   -1    0    0    0    0  0.00000000000E+00  0.00000000000E+00  0.45593999997E+02  0.45594000000E+02  0.51100000000E-03 0. -1.
         11   -1    0    0    0    0 -0.00000000000E+00 -0.00000000000E+00 -0.45593999997E+02  0.45594000000E+02  0.51100000000E-03 0.  1.
    9900012    2    1    2    0    0 -0.37160921822E+02 -0.40994459894E+01 -0.25127146416E+02  0.46142322571E+02  0.10000043857E+02 0.  0.
         12    1    1    2    0    0  0.37160921822E+02  0.40994459894E+01  0.25127146416E+02  0.45045677429E+02  0.00000000000E+00 0. -1.
         11    1    3    3    0    0 -0.10510796989E+02  0.28094547998E+01 -0.90811442525E+01  0.14171699645E+02  0.51100000000E-03 0. -1.
        -11    1    3    3    0    0 -0.21501207028E+02 -0.46561582102E+01 -0.13393954887E+02  0.25756159277E+02  0.51100000000E-03 0.  1.
         12    1    3    3    0    0 -0.51489178046E+01 -0.22527425790E+01 -0.26520472767E+01  0.62144636489E+01  0.00000000000E+00 0. -1.
</event>
<event>
 7    1  0.2478637E-008  0.4614232E+02  0.7816164E-02  0.1320468E+00
        -11   -1    0    0    0    0  0.00000000000E+00  0.00000000000E+00  0.45593999997E+02  0.45594000000E+02  0.51100000000E-03 0. -1.
         11   -1    0    0    0    0 -0.00000000000E+00 -0.00000000000E+00 -0.45593999997E+02  0.45594000000E+02  0.51100000000E-03 0.  1.
    9900012    2    1    2    0    0  0.43298487442E+02 -0.34391149386E+00 -0.12419184911E+02  0.46142318257E+02  0.10000004518E+02 0.  0.
         12    1    1    2    0    0 -0.43298487442E+02  0.34391149386E+00  0.12419184911E+02  0.45045681743E+02  0.00000000000E+00 0. -1.
         11    1    3    3    0    0  0.57573057423E+01 -0.22160584368E+01  0.51597470173E-01  0.61692906372E+01  0.51100000000E-03 0. -1.
        -11    1    3    3    0    0  0.29754092254E+02  0.36037099617E+01 -0.10481515506E+02  0.31751455068E+02  0.51100000000E-03 0.  1.
        -12    1    3    3    0    0  0.77870894455E+01 -0.17315630188E+01 -0.19892668754E+01  0.82215725516E+01  0.00000000000E+00 0.  1.
</event>
<event>
 7    1  0.2478637E-008  0.4614232E+02  0.7816164E-02  0.1320468E+00
        -11   -1    0    0    0    0  0.00000000000E+00  0.00000000000E+00  0.45593999997E+02  0.45594000000E+02  0.51100000000E-03 0.  1.
         11   -1    0    0    0    0 -0.00000000000E+00 -0.00000000000E+00 -0.45593999997E+02  0.45594000000E+02  0.51100000000E-03 0. -1.
    9900012    2    1    2    0    0 -0.85612745208E+01  0.38504153016E+02  0.21754264967E+02  0.46142320239E+02  0.10000022596E+02 0.  0.
         12    1    1    2    0    0  0.85612745208E+01 -0.38504153016E+02 -0.21754264967E+02  0.45045679761E+02  0.00000000000E+00 0. -1.
         11    1    3    3    0    0 -0.16733292114E+01  0.71890568899E+01  0.70360382417E+01  0.10197470471E+02  0.51100000000E-03 0.  1.
        -11    1    3    3    0    0 -0.62041637852E+01  0.19323770487E+02  0.62040426256E+01  0.21222391460E+02  0.51100000000E-03 0. -1.
         12    1    3    3    0    0 -0.68378152419E+00  0.11991325638E+02  0.85141840997E+01  0.14722458308E+02  0.00000000000E+00 0. -1.
</event>
<event>
 7    1  0.2478637E-008  0.4614232E+02  0.7816164E-02  0.1320468E+00
        -11   -1    0    0    0    0  0.00000000000E+00  0.00000000000E+00  0.45593999997E+02  0.45594000000E+02  0.51100000000E-03 0.  1.
         11   -1    0    0    0    0 -0.00000000000E+00 -0.00000000000E+00 -0.45593999997E+02  0.45594000000E+02  0.51100000000E-03 0. -1.
    9900012    2    1    2    0    0 -0.10772957085E+02  0.41347691535E+02  0.14262725297E+02  0.46142317271E+02  0.99999955307E+01 0.  0.
         12    1    1    2    0    0  0.10772957085E+02 -0.41347691535E+02 -0.14262725297E+02  0.45045682729E+02  0.00000000000E+00 0. -1.
         11    1    3    3    0    0  0.54162751055E+00  0.79890369484E+00 -0.19367111268E+00  0.98443701415E+00  0.51100000000E-03 0. -1.
        -11    1    3    3    0    0 -0.72803927027E+01  0.21405331179E+02  0.39522734248E+01  0.22952402625E+02  0.51100000000E-03 0.  1.
         12    1    3    3    0    0 -0.40341918930E+01  0.19143456661E+02  0.10504122985E+02  0.22205477632E+02  0.00000000000E+00 0. -1.
</event>
<event>
 7    1  0.2478637E-008  0.4614232E+02  0.7816164E-02  0.1320468E+00
        -11   -1    0    0    0    0  0.00000000000E+00  0.00000000000E+00  0.45593999997E+02  0.45594000000E+02  0.51100000000E-03 0.  1.
         11   -1    0    0    0    0 -0.00000000000E+00 -0.00000000000E+00 -0.45593999997E+02  0.45594000000E+02  0.51100000000E-03 0. -1.
    9900012    2    1    2    0    0 -0.26078203092E+02  0.49786633867E+00  0.36725917330E+02  0.46142317065E+02  0.99999936479E+01 0.  0.
         12    1    1    2    0    0  0.26078203092E+02 -0.49786633867E+00 -0.36725917330E+02  0.45045682935E+02  0.00000000000E+00 0. -1.
         11    1    3    3    0    0 -0.70396223071E+01 -0.13386904741E+01  0.95382110356E+01  0.11930039582E+02  0.51100000000E-03 0. -1.
        -11    1    3    3    0    0 -0.17947204803E+02  0.33193285486E+01  0.21334515118E+02  0.28076353713E+02  0.51100000000E-03 0.  1.
         12    1    3    3    0    0 -0.10913759823E+01 -0.14827717358E+01  0.58531911764E+01  0.61359237693E+01  0.00000000000E+00 0. -1.
</event>
<event>
 7    1  0.2478637E-008  0.4614232E+02  0.7816164E-02  0.1320468E+00
        -11   -1    0    0    0    0  0.00000000000E+00  0.00000000000E+00  0.45593999997E+02  0.45594000000E+02  0.51100000000E-03 0. -1.
         11   -1    0    0    0    0 -0.00000000000E+00 -0.00000000000E+00 -0.45593999997E+02  0.45594000000E+02  0.51100000000E-03 0.  1.
    9900012    2    1    2    0    0  0.15615638621E+02 -0.30166997517E+02 -0.29584076697E+02  0.46142317602E+02  0.99999985469E+01 0.  0.
         12    1    1    2    0    0 -0.15615638621E+02  0.30166997517E+02  0.29584076697E+02  0.45045682398E+02  0.00000000000E+00 0. -1.
         11    1    3    3    0    0  0.63048105295E+01 -0.10170909618E+02 -0.47436727060E+01  0.12872469432E+02  0.51100000000E-03 0. -1.
        -11    1    3    3    0    0  0.33196354170E+01 -0.88812270049E+01 -0.11426280345E+02  0.14847762633E+02  0.51100000000E-03 0.  1.
         12    1    3    3    0    0  0.59911926748E+01 -0.11114860894E+02 -0.13414123645E+02  0.18422085537E+02  0.00000000000E+00 0. -1.
</event>
<event>
 7    1  0.2478637E-008  0.4614232E+02  0.7816164E-02  0.1320468E+00
        -11   -1    0    0    0    0  0.00000000000E+00  0.00000000000E+00  0.45593999997E+02  0.45594000000E+02  0.51100000000E-03 0.  1.
         11   -1    0    0    0    0 -0.00000000000E+00 -0.00000000000E+00 -0.45593999997E+02  0.45594000000E+02  0.51100000000E-03 0. -1.
    9900012    2    1    2    0    0 -0.43255097038E+02 -0.12370193663E+02 -0.22557230034E+01  0.46142318772E+02  0.10000009215E+02 0.  0.
         12    1    1    2    0    0  0.43255097038E+02  0.12370193663E+02  0.22557230034E+01  0.45045681228E+02  0.00000000000E+00 0. -1.
         11    1    3    3    0    0 -0.10225027813E+02 -0.56069751935E+01 -0.38049226528E+01  0.12266490992E+02  0.51100000000E-03 0. -1.
        -11    1    3    3    0    0 -0.21825486042E+02 -0.46976758137E+01  0.23820758092E+01  0.22452044104E+02  0.51100000000E-03 0.  1.
        -12    1    3    3    0    0 -0.11204583184E+02 -0.20655426557E+01 -0.83287615981E+00  0.11423783676E+02  0.00000000000E+00 0.  1.
</event>
<event>
 7    1  0.2478637E-008  0.4614232E+02  0.7816164E-02  0.1320468E+00
        -11   -1    0    0    0    0  0.00000000000E+00  0.00000000000E+00  0.45593999997E+02  0.45594000000E+02  0.51100000000E-03 0. -1.
         11   -1    0    0    0    0 -0.00000000000E+00 -0.00000000000E+00 -0.45593999997E+02  0.45594000000E+02  0.51100000000E-03 0.  1.
    9900012    2    1    2    0    0 -0.18286834735E+02  0.32804486843E+02 -0.24871079071E+02  0.46142320342E+02  0.10000023537E+02 0.  0.
         12    1    1    2    0    0  0.18286834735E+02 -0.32804486843E+02  0.24871079071E+02  0.45045679658E+02  0.00000000000E+00 0. -1.
         11    1    3    3    0    0 -0.17890977019E+01  0.92560677621E+01 -0.89543560330E+01  0.13002159560E+02  0.51100000000E-03 0.  1.
        -11    1    3    3    0    0 -0.93699145920E+00  0.38398099403E+01 -0.19755293899E+01  0.44186887199E+01  0.51100000000E-03 0. -1.
        -12    1    3    3    0    0 -0.15560745574E+02  0.19708609141E+02 -0.13941193648E+02  0.28721472062E+02  0.00000000000E+00 0.  1.
</event>
<event>
 7    1  0.2478637E-008  0.4614232E+02  0.7816164E-02  0.1320468E+00
        -11   -1    0    0    0    0  0.00000000000E+00  0.00000000000E+00  0.45593999997E+02  0.45594000000E+02  0.51100000000E-03 0.  1.
         11   -1    0    0    0    0 -0.00000000000E+00 -0.00000000000E+00 -0.45593999997E+02  0.45594000000E+02  0.51100000000E-03 0. -1.
    9900012    2    1    2    0    0 -0.19861805173E+02  0.19282581610E+02  0.35535956947E+02  0.46142317694E+02  0.99999993878E+01 0.  0.
         12    1    1    2    0    0  0.19861805173E+02 -0.19282581610E+02 -0.35535956947E+02  0.45045682306E+02  0.00000000000E+00 0. -1.
         11    1    3    3    0    0 -0.12639544374E+02  0.11242927156E+02  0.18353965032E+02  0.24960559402E+02  0.51100000000E-03 0. -1.
        -11    1    3    3    0    0 -0.67395433463E+01  0.70911737560E+01  0.10252795185E+02  0.14171309012E+02  0.51100000000E-03 0.  1.
         12    1    3    3    0    0 -0.48271745245E+00  0.94848069834E+00  0.69291967308E+01  0.70104492801E+01  0.00000000000E+00 0. -1.
</event>
<event>
 7    1  0.2478637E-008  0.4614232E+02  0.7816164E-02  0.1320468E+00
        -11   -1    0    0    0    0  0.00000000000E+00  0.00000000000E+00  0.45593999997E+02  0.45594000000E+02  0.51100000000E-03 0. -1.
         11   -1    0    0    0    0 -0.00000000000E+00 -0.00000000000E+00 -0.45593999997E+02  0.45594000000E+02  0.51100000000E-03 0.  1.
    9900012    2    1    2    0    0 -0.34026020987E+02  0.85968135157E+01 -0.28238947919E+02  0.46142317783E+02  0.10000000196E+02 0.  0.
         12    1    1    2    0    0  0.34026020987E+02 -0.85968135157E+01  0.28238947919E+02  0.45045682217E+02  0.00000000000E+00 0. -1.
         11    1    3    3    0    0 -0.21345532590E+02  0.85213886660E+01 -0.18568719166E+02  0.29547303736E+02  0.51100000000E-03 0. -1.
        -11    1    3    3    0    0 -0.10483073669E+02  0.17034130499E+01 -0.66989683391E+01  0.12556776124E+02  0.51100000000E-03 0.  1.
         12    1    3    3    0    0 -0.21974147281E+01 -0.16279882002E+01 -0.29712604138E+01  0.40382379219E+01  0.00000000000E+00 0. -1.
</event>
<event>
 7    1  0.2478637E-008  0.4614232E+02  0.7816164E-02  0.1320468E+00
        -11   -1    0    0    0    0  0.00000000000E+00  0.00000000000E+00  0.45593999997E+02  0.45594000000E+02  0.51100000000E-03 0.  1.
         11   -1    0    0    0    0 -0.00000000000E+00 -0.00000000000E+00 -0.45593999997E+02  0.45594000000E+02  0.51100000000E-03 0. -1.
    9900012    2    1    2    0    0  0.39132909507E+01 -0.34558006500E+02  0.28627676997E+02  0.46142317082E+02  0.99999938068E+01 0.  0.
         12    1    1    2    0    0 -0.39132909507E+01  0.34558006500E+02 -0.28627676997E+02  0.45045682918E+02  0.00000000000E+00 0. -1.
         11    1    3    3    0    0  0.39279700997E+01 -0.12359047525E+02  0.77111583926E+01  0.15087642919E+02  0.51100000000E-03 0. -1.
        -11    1    3    3    0    0 -0.26457943198E+01 -0.12089266727E+02  0.12990608957E+02  0.17941753507E+02  0.51100000000E-03 0.  1.
        -12    1    3    3    0    0  0.26311151708E+01 -0.10109692249E+02  0.79259096474E+01  0.13112920657E+02  0.00000000000E+00 0.  1.
</event>
<event>
 7    1  0.2478637E-008  0.4614232E+02  0.7816164E-02  0.1320468E+00
        -11   -1    0    0    0    0  0.00000000000E+00  0.00000000000E+00  0.45593999997E+02  0.45594000000E+02  0.51100000000E-03 0.  1.
         11   -1    0    0    0    0 -0.00000000000E+00 -0.00000000000E+00 -0.45593999997E+02  0.45594000000E+02  0.51100000000E-03 0. -1.
    9900012    2    1    2    0    0  0.68923025556E+01 -0.36693881890E+02  0.25202552902E+02  0.46142317905E+02  0.10000001311E+02 0.  0.
         12    1    1    2    0    0 -0.68923025556E+01  0.36693881890E+02 -0.25202552902E+02  0.45045682095E+02  0.00000000000E+00 0. -1.
         11    1    3    3    0    0  0.28334007266E+00 -0.14668148984E+02  0.71153788380E+01  0.16305320987E+02  0.51100000000E-03 0. -1.
        -11    1    3    3    0    0  0.81195138093E+00 -0.99099810011E+01  0.51899665669E+01  0.11216182136E+02  0.51100000000E-03 0.  1.
         12    1    3    3    0    0  0.57970111020E+01 -0.12115751905E+02  0.12897207497E+02  0.18620814782E+02  0.00000000000E+00 0. -1.
</event>
<event>
 7    1  0.2478637E-008  0.4614232E+02  0.7816164E-02  0.1320468E+00
        -11   -1    0    0    0    0  0.00000000000E+00  0.00000000000E+00  0.45593999997E+02  0.45594000000E+02  0.51100000000E-03 0.  1.
         11   -1    0    0    0    0 -0.00000000000E+00 -0.00000000000E+00 -0.45593999997E+02  0.45594000000E+02  0.51100000000E-03 0. -1.
    9900012    2    1    2    0    0 -0.28311179286E+02 -0.34460202254E+02  0.63312659253E+01  0.46142319406E+02  0.10000015001E+02 0.  0.
         12    1    1    2    0    0  0.28311179286E+02  0.34460202254E+02 -0.63312659253E+01  0.45045680594E+02  0.00000000000E+00 0. -1.
         11    1    3    3    0    0 -0.91173499999E+00 -0.25048252431E+01 -0.12378028734E+01  0.29389737024E+01  0.51100000000E-03 0. -1.
        -11    1    3    3    0    0 -0.23664618566E+02 -0.25412929136E+02  0.80795765663E+01  0.35652639409E+02  0.51100000000E-03 0.  1.
        -12    1    3    3    0    0 -0.37348257201E+01 -0.65424478754E+01 -0.51050776758E+00  0.75507062943E+01  0.00000000000E+00 0.  1.
</event>
<event>
 7    1  0.2478637E-008  0.4614232E+02  0.7816164E-02  0.1320468E+00
        -11   -1    0    0    0    0  0.00000000000E+00  0.00000000000E+00  0.45593999997E+02  0.45594000000E+02  0.51100000000E-03 0. -1.
         11   -1    0    0    0    0 -0.00000000000E+00 -0.00000000000E+00 -0.45593999997E+02  0.45594000000E+02  0.51100000000E-03 0.  1.
    9900012    2    1    2    0    0  0.65905943780E+01  0.44287059393E+02 -0.49329643628E+01  0.46142315397E+02  0.99999784431E+01 0.  0.
         12    1    1    2    0    0 -0.65905943780E+01 -0.44287059393E+02  0.49329643628E+01  0.45045684603E+02  0.00000000000E+00 0. -1.
         11    1    3    3    0    0  0.56957849943E+01  0.16359942270E+02 -0.13986365292E+01  0.17379466683E+02  0.51100000000E-03 0. -1.
        -11    1    3    3    0    0  0.27885463216E+01  0.85700860395E+01 -0.21434647967E+01  0.92637361204E+01  0.51100000000E-03 0.  1.
         12    1    3    3    0    0 -0.18937369380E+01  0.19357031083E+02 -0.13908630369E+01  0.19499112594E+02  0.00000000000E+00 0. -1.
</event>
<event>
 7    1  0.2478637E-008  0.4614232E+02  0.7816164E-02  0.1320468E+00
        -11   -1    0    0    0    0  0.00000000000E+00  0.00000000000E+00  0.45593999997E+02  0.45594000000E+02  0.51100000000E-03 0.  1.
         11   -1    0    0    0    0 -0.00000000000E+00 -0.00000000000E+00 -0.45593999997E+02  0.45594000000E+02  0.51100000000E-03 0. -1.
    9900012    2    1    2    0    0 -0.20809666812E+02  0.25055777708E+02  0.31117186118E+02  0.46142317617E+02  0.99999986894E+01 0.  0.
         12    1    1    2    0    0  0.20809666812E+02 -0.25055777708E+02 -0.31117186118E+02  0.45045682383E+02  0.00000000000E+00 0. -1.
         11    1    3    3    0    0 -0.16964199121E+01 -0.51546142128E+00  0.31829232884E+01  0.36434244765E+01  0.51100000000E-03 0. -1.
        -11    1    3    3    0    0 -0.58322962470E+01  0.65905915041E+01  0.88988984652E+01  0.12515668981E+02  0.51100000000E-03 0.  1.
        -12    1    3    3    0    0 -0.13280950653E+02  0.18980647625E+02  0.19035364365E+02  0.29983224160E+02  0.00000000000E+00 0.  1.
</event>
<event>
 7    1  0.2478637E-008  0.4614232E+02  0.7816164E-02  0.1320468E+00
        -11   -1    0    0    0    0  0.00000000000E+00  0.00000000000E+00  0.45593999997E+02  0.45594000000E+02  0.51100000000E-03 0.  1.
         11   -1    0    0    0    0 -0.00000000000E+00 -0.00000000000E+00 -0.45593999997E+02  0.45594000000E+02  0.51100000000E-03 0. -1.
    9900012    2    1    2    0    0 -0.22677654895E+02  0.14083328778E+02  0.36283567536E+02  0.46142318141E+02  0.10000003461E+02 0.  0.
         12    1    1    2    0    0  0.22677654895E+02 -0.14083328778E+02 -0.36283567536E+02  0.45045681859E+02  0.00000000000E+00 0. -1.
         11    1    3    3    0    0 -0.18419441460E+02  0.10649184353E+02  0.30612761741E+02  0.37280318303E+02  0.51100000000E-03 0. -1.
        -11    1    3    3    0    0 -0.21773685603E+01  0.38873508879E+01  0.48331208281E+01  0.65735445517E+01  0.51100000000E-03 0.  1.
         12    1    3    3    0    0 -0.20808448754E+01 -0.45320646289E+00  0.83768496713E+00  0.22884552864E+01  0.00000000000E+00 0. -1.
</event>
<event>
 7    1  0.2478637E-008  0.4614232E+02  0.7816164E-02  0.1320468E+00
        -11   -1    0    0    0    0  0.00000000000E+00  0.00000000000E+00  0.45593999997E+02  0.45594000000E+02  0.51100000000E-03 0.  1.
         11   -1    0    0    0    0 -0.00000000000E+00 -0.00000000000E+00 -0.45593999997E+02  0.45594000000E+02  0.51100000000E-03 0. -1.
    9900012    2    1    2    0    0  0.40946763441E+01 -0.26545596757E+02  0.36161836831E+02  0.46142317360E+02  0.99999963396E+01 0.  0.
         12    1    1    2    0    0 -0.40946763441E+01  0.26545596757E+02 -0.36161836831E+02  0.45045682640E+02  0.00000000000E+00 0. -1.
         11    1    3    3    0    0  0.15433133637E+01 -0.24439612215E+01  0.74176118332E+01  0.79608873978E+01  0.51100000000E-03 0. -1.
        -11    1    3    3    0    0  0.64308791880E+00 -0.27814008500E+01  0.74929749906E+01  0.80183805865E+01  0.51100000000E-03 0.  1.
         12    1    3    3    0    0  0.19082750616E+01 -0.21320234686E+02  0.21251250007E+02  0.30163049375E+02  0.00000000000E+00 0. -1.
</event>
<event>
 7    1  0.2478637E-008  0.4614232E+02  0.7816164E-02  0.1320468E+00
        -11   -1    0    0    0    0  0.00000000000E+00  0.00000000000E+00  0.45593999997E+02  0.45594000000E+02  0.51100000000E-03 0.  1.
         11   -1    0    0    0    0 -0.00000000000E+00 -0.00000000000E+00 -0.45593999997E+02  0.45594000000E+02  0.51100000000E-03 0. -1.
    9900012    2    1    2    0    0  0.19780312638E+02  0.12701335569E+01  0.40450455390E+02  0.46142319313E+02  0.10000014151E+02 0.  0.
         12    1    1    2    0    0 -0.19780312638E+02 -0.12701335569E+01 -0.40450455390E+02  0.45045680687E+02  0.00000000000E+00 0. -1.
         11    1    3    3    0    0  0.10677799883E+02  0.36404745981E+00  0.15470111635E+02  0.18800858894E+02  0.51100000000E-03 0. -1.
        -11    1    3    3    0    0  0.86750925245E+01 -0.75160021741E+00  0.23558045110E+02  0.25115804245E+02  0.51100000000E-03 0.  1.
        -12    1    3    3    0    0  0.42742023095E+00  0.16576863145E+01  0.14222986446E+01  0.22256561741E+01  0.00000000000E+00 0.  1.
</event>
<event>
 7    1  0.2478637E-008  0.4614232E+02  0.7816164E-02  0.1320468E+00
        -11   -1    0    0    0    0  0.00000000000E+00  0.00000000000E+00  0.45593999997E+02  0.45594000000E+02  0.51100000000E-03 0.  1.
         11   -1    0    0    0    0 -0.00000000000E+00 -0.00000000000E+00 -0.45593999997E+02  0.45594000000E+02  0.51100000000E-03 0. -1.
    9900012    2    1    2    0    0 -0.44681921794E+02 -0.15100753099E+01  0.55099115200E+01  0.46142316660E+02  0.99999899595E+01 0.  0.
         12    1    1    2    0    0  0.44681921794E+02  0.15100753099E+01 -0.55099115200E+01  0.45045683340E+02  0.00000000000E+00 0. -1.
         11    1    3    3    0    0 -0.13437639383E+02  0.26962948700E+01  0.39181528384E+01  0.14254545946E+02  0.51100000000E-03 0. -1.
        -11    1    3    3    0    0 -0.17567879734E+02 -0.19894067223E+01 -0.13229070596E+01  0.17729586030E+02  0.51100000000E-03 0.  1.
        -12    1    3    3    0    0 -0.13676402677E+02 -0.22169634577E+01  0.29146657411E+01  0.14158184683E+02  0.00000000000E+00 0.  1.
</event>
<event>
 7    1  0.2478637E-008  0.4614232E+02  0.7816164E-02  0.1320468E+00
        -11   -1    0    0    0    0  0.00000000000E+00  0.00000000000E+00  0.45593999997E+02  0.45594000000E+02  0.51100000000E-03 0. -1.
         11   -1    0    0    0    0 -0.00000000000E+00 -0.00000000000E+00 -0.45593999997E+02  0.45594000000E+02  0.51100000000E-03 0.  1.
    9900012    2    1    2    0    0 -0.26543067802E+02  0.22686744452E+02 -0.28458578030E+02  0.46142317791E+02  0.10000000276E+02 0.  0.
         12    1    1    2    0    0  0.26543067802E+02 -0.22686744452E+02  0.28458578030E+02  0.45045682209E+02  0.00000000000E+00 0. -1.
         11    1    3    3    0    0 -0.32543184849E+01  0.99044576110E-01 -0.44637204946E+01  0.55249614970E+01  0.51100000000E-03 0. -1.
        -11    1    3    3    0    0 -0.10177227113E+02  0.71284354972E+01 -0.10475037304E+02  0.16251675333E+02  0.51100000000E-03 0.  1.
         12    1    3    3    0    0 -0.13111522204E+02  0.15459264378E+02 -0.13519820232E+02  0.24365680962E+02  0.00000000000E+00 0. -1.
</event>
<event>
 7    1  0.2478637E-008  0.4614232E+02  0.7816164E-02  0.1320468E+00
        -11   -1    0    0    0    0  0.00000000000E+00  0.00000000000E+00  0.45593999997E+02  0.45594000000E+02  0.51100000000E-03 0.  1.
         11   -1    0    0    0    0 -0.00000000000E+00 -0.00000000000E+00 -0.45593999997E+02  0.45594000000E+02  0.51100000000E-03 0. -1.
    9900012    2    1    2    0    0  0.23813894052E+02  0.23900000016E+02  0.29846306829E+02  0.46142316722E+02  0.99999905269E+01 0.  0.
         12    1    1    2    0    0 -0.23813894052E+02 -0.23900000016E+02 -0.29846306829E+02  0.45045683278E+02  0.00000000000E+00 0. -1.
         11    1    3    3    0    0  0.15037414932E+02  0.11791005928E+02  0.15140546271E+02  0.24380069940E+02  0.51100000000E-03 0. -1.
        -11    1    3    3    0    0  0.91694529610E+01  0.91407988892E+01  0.10933862197E+02  0.16946457292E+02  0.51100000000E-03 0.  1.
         12    1    3    3    0    0 -0.39297384121E+00  0.29681951986E+01  0.37718983603E+01  0.48157894905E+01  0.00000000000E+00 0. -1.
</event>
<event>
 7    1  0.2478637E-008  0.4614232E+02  0.7816164E-02  0.1320468E+00
        -11   -1    0    0    0    0  0.00000000000E+00  0.00000000000E+00  0.45593999997E+02  0.45594000000E+02  0.51100000000E-03 0.  1.
         11   -1    0    0    0    0 -0.00000000000E+00 -0.00000000000E+00 -0.45593999997E+02  0.45594000000E+02  0.51100000000E-03 0. -1.
    9900012    2    1    2    0    0  0.10917404273E+01  0.15585020571E+01  0.45005473636E+02  0.46142317821E+02  0.10000000543E+02 0.  0.
         12    1    1    2    0    0 -0.10917404273E+01 -0.15585020571E+01 -0.45005473636E+02  0.45045682179E+02  0.00000000000E+00 0. -1.
         11    1    3    3    0    0  0.64062631287E+00  0.49248024837E+00  0.63990250123E-01  0.81057626477E+00  0.51100000000E-03 0. -1.
        -11    1    3    3    0    0  0.20703732499E+01  0.42332035802E+00  0.40582910901E+02  0.40637892452E+02  0.51100000000E-03 0.  1.
        -12    1    3    3    0    0 -0.16192591355E+01  0.64270145069E+00  0.43585724846E+01  0.46938491035E+01  0.00000000000E+00 0.  1.
</event>
<event>
 7    1  0.2478637E-008  0.4614232E+02  0.7816164E-02  0.1320468E+00
        -11   -1    0    0    0    0  0.00000000000E+00  0.00000000000E+00  0.45593999997E+02  0.45594000000E+02  0.51100000000E-03 0.  1.
         11   -1    0    0    0    0 -0.00000000000E+00 -0.00000000000E+00 -0.45593999997E+02  0.45594000000E+02  0.51100000000E-03 0. -1.
    9900012    2    1    2    0    0  0.16874385199E+01  0.34210003025E+02  0.29256482738E+02  0.46142317211E+02  0.99999949846E+01 0.  0.
         12    1    1    2    0    0 -0.16874385199E+01 -0.34210003025E+02 -0.29256482738E+02  0.45045682789E+02  0.00000000000E+00 0. -1.
         11    1    3    3    0    0  0.34454588533E+01  0.10553152093E+02  0.63519248448E+01  0.12790119440E+02  0.51100000000E-03 0. -1.
        -11    1    3    3    0    0  0.10394617547E+01  0.35700379202E+01  0.54329095003E+01  0.65834760872E+01  0.51100000000E-03 0.  1.
         12    1    3    3    0    0 -0.27974820882E+01  0.20086813012E+02  0.17471648393E+02  0.26768721684E+02  0.00000000000E+00 0. -1.
</event>
<event>
 7    1  0.2478637E-008  0.4614232E+02  0.7816164E-02  0.1320468E+00
        -11   -1    0    0    0    0  0.00000000000E+00  0.00000000000E+00  0.45593999997E+02  0.45594000000E+02  0.51100000000E-03 0.  1.
         11   -1    0    0    0    0 -0.00000000000E+00 -0.00000000000E+00 -0.45593999997E+02  0.45594000000E+02  0.51100000000E-03 0. -1.
    9900012    2    1    2    0    0  0.18569708012E+02  0.39829865896E+02 -0.98924822856E+01  0.46142317868E+02  0.10000000975E+02 0.  0.
         12    1    1    2    0    0 -0.18569708012E+02 -0.39829865896E+02  0.98924822856E+01  0.45045682132E+02  0.00000000000E+00 0. -1.
         11    1    3    3    0    0  0.91104326198E+01  0.23065514948E+02 -0.84107785216E+01  0.26187003608E+02  0.51100000000E-03 0. -1.
        -11    1    3    3    0    0  0.89080489638E+01  0.16471974441E+02 -0.42871765260E+00  0.18731339445E+02  0.51100000000E-03 0.  1.
        -12    1    3    3    0    0  0.55122642796E+00  0.29237650709E+00 -0.10529861114E+01  0.12239748149E+01  0.00000000000E+00 0.  1.
</event>
<event>
 7    1  0.2478637E-008  0.4614232E+02  0.7816164E-02  0.1320468E+00
        -11   -1    0    0    0    0  0.00000000000E+00  0.00000000000E+00  0.45593999997E+02  0.45594000000E+02  0.51100000000E-03 0.  1.
         11   -1    0    0    0    0 -0.00000000000E+00 -0.00000000000E+00 -0.45593999997E+02  0.45594000000E+02  0.51100000000E-03 0. -1.
    9900012    2    1    2    0    0 -0.29093998679E+02  0.27172358181E+02  0.21078797457E+02  0.46142317515E+02  0.99999977594E+01 0.  0.
         12    1    1    2    0    0  0.29093998679E+02 -0.27172358181E+02 -0.21078797457E+02  0.45045682485E+02  0.00000000000E+00 0. -1.
         11    1    3    3    0    0 -0.32457777106E+01  0.65465507596E+00  0.35158713082E+01  0.48295960009E+01  0.51100000000E-03 0. -1.
        -11    1    3    3    0    0 -0.70841400793E+01  0.71639260001E+01  0.22970800607E+01  0.10333607960E+02  0.51100000000E-03 0.  1.
        -12    1    3    3    0    0 -0.18764080889E+02  0.19353777105E+02  0.15265846088E+02  0.30979113555E+02  0.00000000000E+00 0.  1.
</event>
<event>
 7    1  0.2478637E-008  0.4614232E+02  0.7816164E-02  0.1320468E+00
        -11   -1    0    0    0    0  0.00000000000E+00  0.00000000000E+00  0.45593999997E+02  0.45594000000E+02  0.51100000000E-03 0.  1.
         11   -1    0    0    0    0 -0.00000000000E+00 -0.00000000000E+00 -0.45593999997E+02  0.45594000000E+02  0.51100000000E-03 0. -1.
    9900012    2    1    2    0    0 -0.40258635179E+02  0.26050535504E+01 -0.20039199161E+02  0.46142317482E+02  0.99999974571E+01 0.  0.
         12    1    1    2    0    0  0.40258635179E+02 -0.26050535504E+01  0.20039199161E+02  0.45045682518E+02  0.00000000000E+00 0. -1.
         11    1    3    3    0    0 -0.16276296786E+02  0.44216823042E+00 -0.12319703563E+02  0.20417846261E+02  0.51100000000E-03 0. -1.
        -11    1    3    3    0    0 -0.20144881316E+02  0.31760672639E+01 -0.75678818100E+01  0.21752620115E+02  0.51100000000E-03 0.  1.
        -12    1    3    3    0    0 -0.38374570773E+01 -0.10131819440E+01 -0.15161378812E+00  0.39718511065E+01  0.00000000000E+00 0.  1.
</event>
<event>
 7    1  0.2478637E-008  0.4614232E+02  0.7816164E-02  0.1320468E+00
        -11   -1    0    0    0    0  0.00000000000E+00  0.00000000000E+00  0.45593999997E+02  0.45594000000E+02  0.51100000000E-03 0.  1.
         11   -1    0    0    0    0 -0.00000000000E+00 -0.00000000000E+00 -0.45593999997E+02  0.45594000000E+02  0.51100000000E-03 0. -1.
    9900012    2    1    2    0    0  0.35059007903E+02  0.10002120604E+02  0.26456323237E+02  0.46142317732E+02  0.99999997373E+01 0.  0.
         12    1    1    2    0    0 -0.35059007903E+02 -0.10002120604E+02 -0.26456323237E+02  0.45045682268E+02  0.00000000000E+00 0. -1.
         11    1    3    3    0    0  0.12720503873E+02  0.37597052837E+01  0.15212271029E+02  0.20183156164E+02  0.51100000000E-03 0. -1.
        -11    1    3    3    0    0  0.97805173720E+01  0.37206618872E+01  0.63929513345E+01  0.12262612771E+02  0.51100000000E-03 0.  1.
         12    1    3    3    0    0  0.12557986658E+02  0.25217534328E+01  0.48511008734E+01  0.13696548797E+02  0.00000000000E+00 0. -1.
</event>
<event>
 7    1  0.2478637E-008  0.4614232E+02  0.7816164E-02  0.1320468E+00
        -11   -1    0    0    0    0  0.00000000000E+00  0.00000000000E+00  0.45593999997E+02  0.45594000000E+02  0.51100000000E-03 0.  1.
         11   -1    0    0    0    0 -0.00000000000E+00 -0.00000000000E+00 -0.45593999997E+02  0.45594000000E+02  0.51100000000E-03 0. -1.
    9900012    2    1    2    0    0 -0.16502075362E+02 -0.93529112469E+00  0.41903702252E+02  0.46142317375E+02  0.99999964778E+01 0.  0.
         12    1    1    2    0    0  0.16502075362E+02  0.93529112469E+00 -0.41903702252E+02  0.45045682625E+02  0.00000000000E+00 0. -1.
         11    1    3    3    0    0 -0.69924736282E+01  0.74752809924E-01  0.18776277096E+02  0.20036188691E+02  0.51100000000E-03 0. -1.
        -11    1    3    3    0    0 -0.39328081035E+01 -0.51971458063E+00  0.18265493698E+02  0.18691317319E+02  0.51100000000E-03 0.  1.
         12    1    3    3    0    0 -0.55767936306E+01 -0.49032935399E+00  0.48619314581E+01  0.74148113649E+01  0.00000000000E+00 0. -1.
</event>
<event>
 7    1  0.2478637E-008  0.4614232E+02  0.7816164E-02  0.1320468E+00
        -11   -1    0    0    0    0  0.00000000000E+00  0.00000000000E+00  0.45593999997E+02  0.45594000000E+02  0.51100000000E-03 0. -1.
         11   -1    0    0    0    0 -0.00000000000E+00 -0.00000000000E+00 -0.45593999997E+02  0.45594000000E+02  0.51100000000E-03 0.  1.
    9900012    2    1    2    0    0  0.36033722424E+02  0.23307307429E+02  0.13691377388E+02  0.46142317121E+02  0.99999941599E+01 0.  0.
         12    1    1    2    0    0 -0.36033722424E+02 -0.23307307429E+02 -0.13691377388E+02  0.45045682879E+02  0.00000000000E+00 0. -1.
         11    1    3    3    0    0  0.17936508651E+01  0.42124025515E+01  0.10599741970E+01  0.46994748899E+01  0.51100000000E-03 0. -1.
        -11    1    3    3    0    0  0.12552790262E+02  0.66197246886E+01  0.68791969107E+01  0.15770752953E+02  0.51100000000E-03 0.  1.
         12    1    3    3    0    0  0.21687281297E+02  0.12475180188E+02  0.57522062802E+01  0.25672089278E+02  0.00000000000E+00 0. -1.
</event>
<event>
 7    1  0.2478637E-008  0.4614232E+02  0.7816164E-02  0.1320468E+00
        -11   -1    0    0    0    0  0.00000000000E+00  0.00000000000E+00  0.45593999997E+02  0.45594000000E+02  0.51100000000E-03 0.  1.
         11   -1    0    0    0    0 -0.00000000000E+00 -0.00000000000E+00 -0.45593999997E+02  0.45594000000E+02  0.51100000000E-03 0. -1.
    9900012    2    1    2    0    0  0.42490634054E+02  0.13765903644E+02 -0.58446052738E+01  0.46142317673E+02  0.99999991982E+01 0.  0.
         12    1    1    2    0    0 -0.42490634054E+02 -0.13765903644E+02  0.58446052738E+01  0.45045682327E+02  0.00000000000E+00 0. -1.
         11    1    3    3    0    0  0.20744082713E+01  0.24005158814E+01 -0.48967240967E+00  0.32102064580E+01  0.51100000000E-03 0.  1.
        -11    1    3    3    0    0  0.84773441756E+01  0.54272572334E+01 -0.21068308037E+01  0.10283930263E+02  0.51100000000E-03 0. -1.
        -12    1    3    3    0    0  0.31938881607E+02  0.59381305294E+01 -0.32481020605E+01  0.32648180953E+02  0.00000000000E+00 0.  1.
</event>
<event>
 7    1  0.2478637E-008  0.4614232E+02  0.7816164E-02  0.1320468E+00
        -11   -1    0    0    0    0  0.00000000000E+00  0.00000000000E+00  0.45593999997E+02  0.45594000000E+02  0.51100000000E-03 0.  1.
         11   -1    0    0    0    0 -0.00000000000E+00 -0.00000000000E+00 -0.45593999997E+02  0.45594000000E+02  0.51100000000E-03 0. -1.
    9900012    2    1    2    0    0 -0.92410824257E+00  0.21101056027E+02  0.39786990832E+02  0.46142321174E+02  0.10000031118E+02 0.  0.
         12    1    1    2    0    0  0.92410824257E+00 -0.21101056027E+02 -0.39786990832E+02  0.45045678826E+02  0.00000000000E+00 0. -1.
         11    1    3    3    0    0 -0.93827352155E+00  0.11736739539E+02  0.27043342518E+02  0.29495318052E+02  0.51100000000E-03 0. -1.
        -11    1    3    3    0    0 -0.25668270131E+01  0.48350336595E+01  0.70795030771E+01  0.89490510940E+01  0.51100000000E-03 0.  1.
         12    1    3    3    0    0  0.25809922921E+01  0.45292828289E+01  0.56641452364E+01  0.76979520273E+01  0.00000000000E+00 0. -1.
</event>
<event>
 7    1  0.2478637E-008  0.4614232E+02  0.7816164E-02  0.1320468E+00
        -11   -1    0    0    0    0  0.00000000000E+00  0.00000000000E+00  0.45593999997E+02  0.45594000000E+02  0.51100000000E-03 0. -1.
         11   -1    0    0    0    0 -0.00000000000E+00 -0.00000000000E+00 -0.45593999997E+02  0.45594000000E+02  0.51100000000E-03 0.  1.
    9900012    2    1    2    0    0  0.37411060509E+02  0.19446053171E+02 -0.15854877112E+02  0.46142316960E+02  0.99999926935E+01 0.  0.
         12    1    1    2    0    0 -0.37411060509E+02 -0.19446053171E+02  0.15854877112E+02  0.45045683040E+02  0.00000000000E+00 0. -1.
         11    1    3    3    0    0  0.14359727378E+02  0.35804321521E+01 -0.48789873408E+01  0.15582868237E+02  0.51100000000E-03 0. -1.
        -11    1    3    3    0    0  0.23185962490E+02  0.16103060497E+02 -0.10756531535E+02  0.30209276471E+02  0.51100000000E-03 0.  1.
         12    1    3    3    0    0 -0.13462935962E+00 -0.23743947800E+00 -0.21935823572E+00  0.35017225156E+00  0.00000000000E+00 0. -1.
</event>
<event>
 7    1  0.2478637E-008  0.4614232E+02  0.7816164E-02  0.1320468E+00
        -11   -1    0    0    0    0  0.00000000000E+00  0.00000000000E+00  0.45593999997E+02  0.45594000000E+02  0.51100000000E-03 0.  1.
         11   -1    0    0    0    0 -0.00000000000E+00 -0.00000000000E+00 -0.45593999997E+02  0.45594000000E+02  0.51100000000E-03 0. -1.
    9900012    2    1    2    0    0 -0.37811708655E+02 -0.11965131127E+02  0.21359397403E+02  0.46142317280E+02  0.99999956106E+01 0.  0.
         12    1    1    2    0    0  0.37811708655E+02  0.11965131127E+02 -0.21359397403E+02  0.45045682720E+02  0.00000000000E+00 0. -1.
         11    1    3    3    0    0 -0.87874812675E+01 -0.74289121898E+00  0.48414932688E+01  0.10060406141E+02  0.51100000000E-03 0. -1.
        -11    1    3    3    0    0 -0.17570635976E+02 -0.26744963557E+01  0.86168873753E+01  0.19751732270E+02  0.51100000000E-03 0.  1.
        -12    1    3    3    0    0 -0.11453591412E+02 -0.85477435528E+01  0.79010167589E+01  0.16330178869E+02  0.00000000000E+00 0.  1.
</event>
<event>
 7    1  0.2478637E-008  0.4614232E+02  0.7816164E-02  0.1320468E+00
        -11   -1    0    0    0    0  0.00000000000E+00  0.00000000000E+00  0.45593999997E+02  0.45594000000E+02  0.51100000000E-03 0.  1.
         11   -1    0    0    0    0 -0.00000000000E+00 -0.00000000000E+00 -0.45593999997E+02  0.45594000000E+02  0.51100000000E-03 0. -1.
    9900012    2    1    2    0    0  0.21301239365E+02  0.30829339499E+02  0.24998450499E+02  0.46142317634E+02  0.99999988454E+01 0.  0.
         12    1    1    2    0    0 -0.21301239365E+02 -0.30829339499E+02 -0.24998450499E+02  0.45045682366E+02  0.00000000000E+00 0. -1.
         11    1    3    3    0    0 -0.33106651387E+00  0.90746592733E-01 -0.39478073992E+00  0.52315587967E+00  0.51100000000E-03 0. -1.
        -11    1    3    3    0    0  0.13891000804E+02  0.16939489450E+02  0.12599353048E+02  0.25271523572E+02  0.51100000000E-03 0.  1.
         12    1    3    3    0    0  0.77413050751E+01  0.13799103457E+02  0.12793878190E+02  0.20347638183E+02  0.00000000000E+00 0. -1.
</event>
<event>
 7    1  0.2478637E-008  0.4614232E+02  0.7816164E-02  0.1320468E+00
        -11   -1    0    0    0    0  0.00000000000E+00  0.00000000000E+00  0.45593999997E+02  0.45594000000E+02  0.51100000000E-03 0.  1.
         11   -1    0    0    0    0 -0.00000000000E+00 -0.00000000000E+00 -0.45593999997E+02  0.45594000000E+02  0.51100000000E-03 0. -1.
    9900012    2    1    2    0    0  0.40982989172E+02 -0.10341704963E+02 -0.15574251562E+02  0.46142316802E+02  0.99999912538E+01 0.  0.
         12    1    1    2    0    0 -0.40982989172E+02  0.10341704963E+02  0.15574251562E+02  0.45045683198E+02  0.00000000000E+00 0. -1.
         11    1    3    3    0    0  0.17330473948E+01 -0.14812584902E+01 -0.12607979585E+01  0.26052239329E+01  0.51100000000E-03 0. -1.
        -11    1    3    3    0    0  0.21325857418E+02 -0.88769281703E+01 -0.95090869904E+01  0.24980287908E+02  0.51100000000E-03 0.  1.
         12    1    3    3    0    0  0.17924084360E+02  0.16481697212E-01 -0.48043666135E+01  0.18556804961E+02  0.00000000000E+00 0. -1.
</event>
<event>
 7    1  0.2478637E-008  0.4614232E+02  0.7816164E-02  0.1320468E+00
        -11   -1    0    0    0    0  0.00000000000E+00  0.00000000000E+00  0.45593999997E+02  0.45594000000E+02  0.51100000000E-03 0.  1.
         11   -1    0    0    0    0 -0.00000000000E+00 -0.00000000000E+00 -0.45593999997E+02  0.45594000000E+02  0.51100000000E-03 0. -1.
    9900012    2    1    2    0    0  0.54376326716E+01 -0.41054981609E+02  0.17721009901E+02  0.46142317011E+02  0.99999931610E+01 0.  0.
         12    1    1    2    0    0 -0.54376326716E+01  0.41054981609E+02 -0.17721009901E+02  0.45045682989E+02  0.00000000000E+00 0. -1.
         11    1    3    3    0    0  0.38798209222E+01 -0.15867612641E+02  0.26702226884E+01  0.16551864873E+02  0.51100000000E-03 0. -1.
        -11    1    3    3    0    0  0.15334530352E+01 -0.73657388477E+01  0.58724978432E+01  0.95442033802E+01  0.51100000000E-03 0.  1.
        -12    1    3    3    0    0  0.24358714172E-01 -0.17821630121E+02  0.91782893697E+01  0.20046248758E+02  0.00000000000E+00 0.  1.
</event>
<event>
 7    1  0.2478637E-008  0.4614232E+02  0.7816164E-02  0.1320468E+00
        -11   -1    0    0    0    0  0.00000000000E+00  0.00000000000E+00  0.45593999997E+02  0.45594000000E+02  0.51100000000E-03 0.  1.
         11   -1    0    0    0    0 -0.00000000000E+00 -0.00000000000E+00 -0.45593999997E+02  0.45594000000E+02  0.51100000000E-03 0. -1.
    9900012    2    1    2    0    0  0.32150442636E+02 -0.31460544373E+02 -0.23867645495E+01  0.46142318088E+02  0.10000002983E+02 0.  0.
         12    1    1    2    0    0 -0.32150442636E+02  0.31460544373E+02  0.23867645495E+01  0.45045681912E+02  0.00000000000E+00 0. -1.
         11    1    3    3    0    0  0.17176244070E+01 -0.34836639506E+01 -0.15385204899E+01  0.41777019620E+01  0.51100000000E-03 0. -1.
        -11    1    3    3    0    0  0.19866718111E+02 -0.22286797967E+02  0.70013593268E+00  0.29864327261E+02  0.51100000000E-03 0.  1.
        -12    1    3    3    0    0  0.10566100117E+02 -0.56900824549E+01 -0.15483799922E+01  0.12100288866E+02  0.00000000000E+00 0.  1.
</event>
<event>
 7    1  0.2478637E-008  0.4614232E+02  0.7816164E-02  0.1320468E+00
        -11   -1    0    0    0    0  0.00000000000E+00  0.00000000000E+00  0.45593999997E+02  0.45594000000E+02  0.51100000000E-03 0.  1.
         11   -1    0    0    0    0 -0.00000000000E+00 -0.00000000000E+00 -0.45593999997E+02  0.45594000000E+02  0.51100000000E-03 0. -1.
    9900012    2    1    2    0    0  0.39080305291E+02 -0.94618927486E+01  0.20305561245E+02  0.46142317705E+02  0.99999994855E+01 0.  0.
         12    1    1    2    0    0 -0.39080305291E+02  0.94618927486E+01 -0.20305561245E+02  0.45045682295E+02  0.00000000000E+00 0. -1.
         11    1    3    3    0    0  0.27499741729E+01  0.59448917996E+00  0.23611501863E+01  0.36729832290E+01  0.51100000000E-03 0. -1.
        -11    1    3    3    0    0  0.20703302102E+02 -0.72842394262E+01  0.64577715109E+01  0.22877711317E+02  0.51100000000E-03 0.  1.
        -12    1    3    3    0    0  0.15627029015E+02 -0.27721425024E+01  0.11486639547E+02  0.19591623159E+02  0.00000000000E+00 0.  1.
</event>
<event>
 7    1  0.2478637E-008  0.4614232E+02  0.7816164E-02  0.1320468E+00
        -11   -1    0    0    0    0  0.00000000000E+00  0.00000000000E+00  0.45593999997E+02  0.45594000000E+02  0.51100000000E-03 0.  1.
         11   -1    0    0    0    0 -0.00000000000E+00 -0.00000000000E+00 -0.45593999997E+02  0.45594000000E+02  0.51100000000E-03 0. -1.
    9900012    2    1    2    0    0  0.13977157038E+02  0.11145492994E+02  0.41346469527E+02  0.46142317906E+02  0.10000001323E+02 0.  0.
         12    1    1    2    0    0 -0.13977157038E+02 -0.11145492994E+02 -0.41346469527E+02  0.45045682094E+02  0.00000000000E+00 0. -1.
         11    1    3    3    0    0  0.22353090769E+01  0.90889422648E+00  0.34810293090E+01  0.42355944914E+01  0.51100000000E-03 0. -1.
        -11    1    3    3    0    0  0.10397091809E+02  0.33401561261E+01  0.22418087683E+02  0.24936455576E+02  0.51100000000E-03 0.  1.
        -12    1    3    3    0    0  0.13447561528E+01  0.68964426413E+01  0.15447352534E+02  0.16970267839E+02  0.00000000000E+00 0.  1.
</event>
<event>
 7    1  0.2478637E-008  0.4614232E+02  0.7816164E-02  0.1320468E+00
        -11   -1    0    0    0    0  0.00000000000E+00  0.00000000000E+00  0.45593999997E+02  0.45594000000E+02  0.51100000000E-03 0.  1.
         11   -1    0    0    0    0 -0.00000000000E+00 -0.00000000000E+00 -0.45593999997E+02  0.45594000000E+02  0.51100000000E-03 0. -1.
    9900012    2    1    2    0    0 -0.30988961174E+02 -0.50890712978E+01  0.32293950248E+02  0.46142316700E+02  0.99999903284E+01 0.  0.
         12    1    1    2    0    0  0.30988961174E+02  0.50890712978E+01 -0.32293950248E+02  0.45045683300E+02  0.00000000000E+00 0. -1.
         11    1    3    3    0    0 -0.10495917835E+02 -0.38391780880E+00  0.66537056174E+01  0.12433160611E+02  0.51100000000E-03 0.  1.
        -11    1    3    3    0    0 -0.89963457087E+01 -0.24266404343E+01  0.68559847458E+01  0.11568377025E+02  0.51100000000E-03 0. -1.
        -12    1    3    3    0    0 -0.11496697631E+02 -0.22785130547E+01  0.18784259884E+02  0.22140779064E+02  0.00000000000E+00 0.  1.
</event>
<event>
 7    1  0.2478637E-008  0.4614232E+02  0.7816164E-02  0.1320468E+00
        -11   -1    0    0    0    0  0.00000000000E+00  0.00000000000E+00  0.45593999997E+02  0.45594000000E+02  0.51100000000E-03 0. -1.
         11   -1    0    0    0    0 -0.00000000000E+00 -0.00000000000E+00 -0.45593999997E+02  0.45594000000E+02  0.51100000000E-03 0.  1.
    9900012    2    1    2    0    0 -0.31834683975E+02  0.17079475987E+02 -0.26906467169E+02  0.46142316752E+02  0.99999907992E+01 0.  0.
         12    1    1    2    0    0  0.31834683975E+02 -0.17079475987E+02  0.26906467169E+02  0.45045683248E+02  0.00000000000E+00 0. -1.
         11    1    3    3    0    0 -0.86964026108E+00  0.25511139799E+01 -0.32903178342E+00  0.27152751054E+01  0.51100000000E-03 0. -1.
        -11    1    3    3    0    0 -0.63474137834E+01  0.29386393255E+01 -0.39128439340E+01  0.80147121430E+01  0.51100000000E-03 0.  1.
        -12    1    3    3    0    0 -0.24617629930E+02  0.11589722681E+02 -0.22664591451E+02  0.35412329504E+02  0.00000000000E+00 0.  1.
</event>
<event>
 7    1  0.2478637E-008  0.4614232E+02  0.7816164E-02  0.1320468E+00
        -11   -1    0    0    0    0  0.00000000000E+00  0.00000000000E+00  0.45593999997E+02  0.45594000000E+02  0.51100000000E-03 0.  1.
         11   -1    0    0    0    0 -0.00000000000E+00 -0.00000000000E+00 -0.45593999997E+02  0.45594000000E+02  0.51100000000E-03 0. -1.
    9900012    2    1    2    0    0  0.40070488591E+02  0.46658972496E+01  0.20042424130E+02  0.46142318542E+02  0.10000007116E+02 0.  0.
         12    1    1    2    0    0 -0.40070488591E+02 -0.46658972496E+01 -0.20042424130E+02  0.45045681458E+02  0.00000000000E+00 0. -1.
         11    1    3    3    0    0  0.15406355747E+02  0.82574310749E-01  0.92349965210E+01  0.17962398975E+02  0.51100000000E-03 0. -1.
        -11    1    3    3    0    0  0.18017054316E+02  0.38333830611E+00  0.61520033481E+01  0.19042277698E+02  0.51100000000E-03 0.  1.
         12    1    3    3    0    0  0.66470785279E+01  0.41999846328E+01  0.46554242608E+01  0.91376418686E+01  0.00000000000E+00 0. -1.
</event>
<event>
 7    1  0.2478637E-008  0.4614232E+02  0.7816164E-02  0.1320468E+00
        -11   -1    0    0    0    0  0.00000000000E+00  0.00000000000E+00  0.45593999997E+02  0.45594000000E+02  0.51100000000E-03 0. -1.
         11   -1    0    0    0    0 -0.00000000000E+00 -0.00000000000E+00 -0.45593999997E+02  0.45594000000E+02  0.51100000000E-03 0.  1.
    9900012    2    1    2    0    0  0.19382610603E+02  0.33322824118E+02 -0.23302730329E+02  0.46142318278E+02  0.10000004718E+02 0.  0.
         12    1    1    2    0    0 -0.19382610603E+02 -0.33322824118E+02  0.23302730329E+02  0.45045681722E+02  0.00000000000E+00 0. -1.
         11    1    3    3    0    0  0.79486490199E+01  0.14118093537E+02 -0.79002530297E+01  0.18025414962E+02  0.51100000000E-03 0. -1.
        -11    1    3    3    0    0  0.34684068864E+01  0.11126211054E+02 -0.10749068089E+02  0.15854490966E+02  0.51100000000E-03 0.  1.
        -12    1    3    3    0    0  0.79655546965E+01  0.80785195264E+01 -0.46534092097E+01  0.12262412350E+02  0.00000000000E+00 0.  1.
</event>
<event>
 7    1  0.2478637E-008  0.4614232E+02  0.7816164E-02  0.1320468E+00
        -11   -1    0    0    0    0  0.00000000000E+00  0.00000000000E+00  0.45593999997E+02  0.45594000000E+02  0.51100000000E-03 0.  1.
         11   -1    0    0    0    0 -0.00000000000E+00 -0.00000000000E+00 -0.45593999997E+02  0.45594000000E+02  0.51100000000E-03 0. -1.
    9900012    2    1    2    0    0  0.14371873275E+02  0.12530935456E+02  0.40811009323E+02  0.46142316890E+02  0.99999920570E+01 0.  0.
         12    1    1    2    0    0 -0.14371873275E+02 -0.12530935456E+02 -0.40811009323E+02  0.45045683110E+02  0.00000000000E+00 0. -1.
         11    1    3    3    0    0  0.77344312174E+00 -0.16564166910E+01  0.36891157579E+01  0.41172206466E+01  0.51100000000E-03 0. -1.
        -11    1    3    3    0    0  0.14414507597E+00  0.30710280469E+00  0.38826682339E+00  0.51559802447E+00  0.51100000000E-03 0.  1.
        -12    1    3    3    0    0  0.13454285078E+02  0.13880249342E+02  0.36733626742E+02  0.41509498219E+02  0.00000000000E+00 0.  1.
</event>
<event>
 7    1  0.2478637E-008  0.4614231E+02  0.7816164E-02  0.1320468E+00
        -11   -1    0    0    0    0  0.00000000000E+00  0.00000000000E+00  0.45593999997E+02  0.45594000000E+02  0.51100000000E-03 0.  1.
         11   -1    0    0    0    0 -0.00000000000E+00 -0.00000000000E+00 -0.45593999997E+02  0.45594000000E+02  0.51100000000E-03 0. -1.
    9900012    2    1    2    0    0  0.40244189037E+01 -0.43250367392E+00  0.44863467754E+02  0.46142314903E+02  0.99999739359E+01 0.  0.
         12    1    1    2    0    0 -0.40244189037E+01  0.43250367392E+00 -0.44863467754E+02  0.45045685097E+02  0.00000000000E+00 0. -1.
         11    1    3    3    0    0 -0.11685640179E+01 -0.12748454755E+01  0.19246834888E+02  0.19324373892E+02  0.51100000000E-03 0. -1.
        -11    1    3    3    0    0  0.13356720902E+01  0.23687578138E+01  0.17423794048E+02  0.17634728033E+02  0.51100000000E-03 0.  1.
         12    1    3    3    0    0  0.38573108315E+01 -0.15264160122E+01  0.81928388178E+01  0.91832129774E+01  0.00000000000E+00 0. -1.
</event>
<event>
 7    1  0.2478637E-008  0.4614232E+02  0.7816164E-02  0.1320468E+00
        -11   -1    0    0    0    0  0.00000000000E+00  0.00000000000E+00  0.45593999997E+02  0.45594000000E+02  0.51100000000E-03 0.  1.
         11   -1    0    0    0    0 -0.00000000000E+00 -0.00000000000E+00 -0.45593999997E+02  0.45594000000E+02  0.51100000000E-03 0. -1.
    9900012    2    1    2    0    0 -0.11414272889E+02 -0.60735368821E+01  0.43150203958E+02  0.46142316772E+02  0.99999909783E+01 0.  0.
         12    1    1    2    0    0  0.11414272889E+02  0.60735368821E+01 -0.43150203958E+02  0.45045683228E+02  0.00000000000E+00 0. -1.
         11    1    3    3    0    0 -0.25573859988E+01  0.68141408693E+00  0.22183695346E+01  0.34533624133E+01  0.51100000000E-03 0. -1.
        -11    1    3    3    0    0 -0.77274688828E+01 -0.40277029217E+01  0.24729573087E+02  0.26219991447E+02  0.51100000000E-03 0.  1.
        -12    1    3    3    0    0 -0.11294180074E+01 -0.27272480473E+01  0.16202261337E+02  0.16468962911E+02  0.00000000000E+00 0.  1.
</event>
<event>
 7    1  0.2478637E-008  0.4614232E+02  0.7816164E-02  0.1320468E+00
        -11   -1    0    0    0    0  0.00000000000E+00  0.00000000000E+00  0.45593999997E+02  0.45594000000E+02  0.51100000000E-03 0.  1.
         11   -1    0    0    0    0 -0.00000000000E+00 -0.00000000000E+00 -0.45593999997E+02  0.45594000000E+02  0.51100000000E-03 0. -1.
    9900012    2    1    2    0    0 -0.22415998202E+02 -0.34792747674E+02  0.17779238110E+02  0.46142316812E+02  0.99999913449E+01 0.  0.
         12    1    1    2    0    0  0.22415998202E+02  0.34792747674E+02 -0.17779238110E+02  0.45045683188E+02  0.00000000000E+00 0. -1.
         11    1    3    3    0    0 -0.63242131466E+00 -0.60181044034E+01  0.44190230359E+01  0.74930168946E+01  0.51100000000E-03 0. -1.
        -11    1    3    3    0    0 -0.90063077846E+01 -0.14746486144E+02  0.58607207516E+01  0.18246108667E+02  0.51100000000E-03 0.  1.
        -12    1    3    3    0    0 -0.12777269103E+02 -0.14028157126E+02  0.74994943220E+01  0.20403191250E+02  0.00000000000E+00 0.  1.
</event>
<event>
 7    1  0.2478637E-008  0.4614232E+02  0.7816164E-02  0.1320468E+00
        -11   -1    0    0    0    0  0.00000000000E+00  0.00000000000E+00  0.45593999997E+02  0.45594000000E+02  0.51100000000E-03 0. -1.
         11   -1    0    0    0    0 -0.00000000000E+00 -0.00000000000E+00 -0.45593999997E+02  0.45594000000E+02  0.51100000000E-03 0.  1.
    9900012    2    1    2    0    0  0.26101670653E+02  0.23006178816E+02  0.28610001386E+02  0.46142315924E+02  0.99999832449E+01 0.  0.
         12    1    1    2    0    0 -0.26101670653E+02 -0.23006178816E+02 -0.28610001386E+02  0.45045684076E+02  0.00000000000E+00 0. -1.
         11    1    3    3    0    0  0.60690596768E+01  0.36479119265E+01  0.29998066402E+01  0.76902267148E+01  0.51100000000E-03 0.  1.
        -11    1    3    3    0    0  0.70912145034E+01  0.11137003849E+02  0.13801438814E+02  0.19099683020E+02  0.51100000000E-03 0. -1.
         12    1    3    3    0    0  0.12941396473E+02  0.82212630407E+01  0.11808755932E+02  0.19352406189E+02  0.00000000000E+00 0. -1.
</event>
<event>
 7    1  0.2478637E-008  0.4614232E+02  0.7816164E-02  0.1320468E+00
        -11   -1    0    0    0    0  0.00000000000E+00  0.00000000000E+00  0.45593999997E+02  0.45594000000E+02  0.51100000000E-03 0.  1.
         11   -1    0    0    0    0 -0.00000000000E+00 -0.00000000000E+00 -0.45593999997E+02  0.45594000000E+02  0.51100000000E-03 0. -1.
    9900012    2    1    2    0    0 -0.32025474631E+02  0.21997520689E+02  0.22794550216E+02  0.46142318061E+02  0.10000002734E+02 0.  0.
         12    1    1    2    0    0  0.32025474631E+02 -0.21997520689E+02 -0.22794550216E+02  0.45045681939E+02  0.00000000000E+00 0. -1.
         11    1    3    3    0    0 -0.14741836096E+02  0.88727221424E+01  0.89767927126E+01  0.19406950749E+02  0.51100000000E-03 0. -1.
        -11    1    3    3    0    0 -0.17291818784E+02  0.13686277796E+02  0.12609905583E+02  0.25403364262E+02  0.51100000000E-03 0.  1.
         12    1    3    3    0    0  0.81802494294E-02 -0.56147924913E+00  0.12078519199E+01  0.13320030496E+01  0.00000000000E+00 0. -1.
</event>
<event>
 7    1  0.2478637E-008  0.4614232E+02  0.7816164E-02  0.1320468E+00
        -11   -1    0    0    0    0  0.00000000000E+00  0.00000000000E+00  0.45593999997E+02  0.45594000000E+02  0.51100000000E-03 0.  1.
         11   -1    0    0    0    0 -0.00000000000E+00 -0.00000000000E+00 -0.45593999997E+02  0.45594000000E+02  0.51100000000E-03 0. -1.
    9900012    2    1    2    0    0  0.12072934370E+02 -0.12400497081E+02  0.41588283779E+02  0.46142318522E+02  0.10000006937E+02 0.  0.
         12    1    1    2    0    0 -0.12072934370E+02  0.12400497081E+02 -0.41588283779E+02  0.45045681478E+02  0.00000000000E+00 0. -1.
         11    1    3    3    0    0  0.11136843122E+02 -0.74233176847E+01  0.24971624420E+02  0.28332259822E+02  0.51100000000E-03 0. -1.
        -11    1    3    3    0    0  0.18698487127E+01 -0.35651603279E+01  0.14752684220E+02  0.15292102352E+02  0.51100000000E-03 0.  1.
         12    1    3    3    0    0 -0.93375746515E+00 -0.14120190685E+01  0.18639751382E+01  0.25179563478E+01  0.00000000000E+00 0. -1.
</event>
<event>
 7    1  0.2478637E-008  0.4614232E+02  0.7816164E-02  0.1320468E+00
        -11   -1    0    0    0    0  0.00000000000E+00  0.00000000000E+00  0.45593999997E+02  0.45594000000E+02  0.51100000000E-03 0.  1.
         11   -1    0    0    0    0 -0.00000000000E+00 -0.00000000000E+00 -0.45593999997E+02  0.45594000000E+02  0.51100000000E-03 0. -1.
    9900012    2    1    2    0    0  0.15815890075E+02  0.34988764025E+01  0.42032476035E+02  0.46142317003E+02  0.99999930909E+01 0.  0.
         12    1    1    2    0    0 -0.15815890075E+02 -0.34988764025E+01 -0.42032476035E+02  0.45045682997E+02  0.00000000000E+00 0. -1.
         11    1    3    3    0    0  0.87735404402E+01 -0.56052116885E+00  0.16928018056E+02  0.19074773692E+02  0.51100000000E-03 0.  1.
        -11    1    3    3    0    0  0.20217211206E+01  0.52825105883E+00  0.12475689496E+01  0.24336873291E+01  0.51100000000E-03 0. -1.
         12    1    3    3    0    0  0.50206285145E+01  0.35311465126E+01  0.23856889030E+02  0.24633855982E+02  0.00000000000E+00 0. -1.
</event>
<event>
 7    1  0.2478637E-008  0.4614232E+02  0.7816164E-02  0.1320468E+00
        -11   -1    0    0    0    0  0.00000000000E+00  0.00000000000E+00  0.45593999997E+02  0.45594000000E+02  0.51100000000E-03 0. -1.
         11   -1    0    0    0    0 -0.00000000000E+00 -0.00000000000E+00 -0.45593999997E+02  0.45594000000E+02  0.51100000000E-03 0.  1.
    9900012    2    1    2    0    0  0.11572814135E+02  0.40479339704E+02 -0.16018940900E+02  0.46142318327E+02  0.10000005157E+02 0.  0.
         12    1    1    2    0    0 -0.11572814135E+02 -0.40479339704E+02  0.16018940900E+02  0.45045681673E+02  0.00000000000E+00 0. -1.
         11    1    3    3    0    0 -0.80304421215E+00  0.12500221117E+02 -0.52176971169E+01  0.13569258323E+02  0.51100000000E-03 0.  1.
        -11    1    3    3    0    0  0.78329674062E+00  0.17403521323E+01 -0.14665826812E+01  0.24069159416E+01  0.51100000000E-03 0. -1.
        -12    1    3    3    0    0  0.11592561606E+02  0.26238766455E+02 -0.93346611021E+01  0.30166144062E+02  0.00000000000E+00 0.  1.
</event>
<event>
 7    1  0.2478637E-008  0.4614233E+02  0.7816164E-02  0.1320468E+00
        -11   -1    0    0    0    0  0.00000000000E+00  0.00000000000E+00  0.45593999997E+02  0.45594000000E+02  0.51100000000E-03 0. -1.
         11   -1    0    0    0    0 -0.00000000000E+00 -0.00000000000E+00 -0.45593999997E+02  0.45594000000E+02  0.51100000000E-03 0.  1.
    9900012    2    1    2    0    0 -0.88271941936E+01  0.40313604198E+02 -0.18055652755E+02  0.46142327209E+02  0.10000086154E+02 0.  0.
         12    1    1    2    0    0  0.88271941936E+01 -0.40313604198E+02  0.18055652755E+02  0.45045672791E+02  0.00000000000E+00 0. -1.
         11    1    3    3    0    0  0.46704166980E+00  0.21350092363E+01  0.71299916084E+00  0.22988606797E+01  0.51100000000E-03 0. -1.
        -11    1    3    3    0    0 -0.57754499458E+01  0.15079280805E+02 -0.60758200539E+01  0.17252713446E+02  0.51100000000E-03 0.  1.
         12    1    3    3    0    0 -0.35187859176E+01  0.23099314157E+02 -0.12692831862E+02  0.26590753083E+02  0.00000000000E+00 0. -1.
</event>
<event>
 7    1  0.2478637E-008  0.4614231E+02  0.7816164E-02  0.1320468E+00
        -11   -1    0    0    0    0  0.00000000000E+00  0.00000000000E+00  0.45593999997E+02  0.45594000000E+02  0.51100000000E-03 0.  1.
         11   -1    0    0    0    0 -0.00000000000E+00 -0.00000000000E+00 -0.45593999997E+02  0.45594000000E+02  0.51100000000E-03 0. -1.
    9900012    2    1    2    0    0 -0.41263870398E+02  0.15396883293E+02 -0.94521619845E+01  0.46142307847E+02  0.99999095967E+01 0.  0.
         12    1    1    2    0    0  0.41263870398E+02 -0.15396883293E+02  0.94521619845E+01  0.45045692153E+02  0.00000000000E+00 0. -1.
         11    1    3    3    0    0 -0.12810078942E+02  0.80694393773E+01 -0.47301102692E+01  0.15861523186E+02  0.51100000000E-03 0. -1.
        -11    1    3    3    0    0 -0.17679535366E+02  0.62501818947E+01 -0.51440487639E+01  0.19444587484E+02  0.51100000000E-03 0.  1.
         12    1    3    3    0    0 -0.10774256090E+02  0.10772620208E+01  0.42199704864E+00  0.10836197177E+02  0.00000000000E+00 0. -1.
</event>
<event>
 7    1  0.2478637E-008  0.4614232E+02  0.7816164E-02  0.1320468E+00
        -11   -1    0    0    0    0  0.00000000000E+00  0.00000000000E+00  0.45593999997E+02  0.45594000000E+02  0.51100000000E-03 0.  1.
         11   -1    0    0    0    0 -0.00000000000E+00 -0.00000000000E+00 -0.45593999997E+02  0.45594000000E+02  0.51100000000E-03 0. -1.
    9900012    2    1    2    0    0  0.21690894672E+02  0.14485570010E+02  0.36725833820E+02  0.46142317410E+02  0.99999968007E+01 0.  0.
         12    1    1    2    0    0 -0.21690894672E+02 -0.14485570010E+02 -0.36725833820E+02  0.45045682590E+02  0.00000000000E+00 0. -1.
         11    1    3    3    0    0  0.56185923246E+01  0.16385689892E+00  0.46655626640E+01  0.73049917198E+01  0.51100000000E-03 0. -1.
        -11    1    3    3    0    0  0.10443525984E+01 -0.50638832930E-01  0.23590353285E+01  0.25803652035E+01  0.51100000000E-03 0.  1.
        -12    1    3    3    0    0  0.15027949749E+02  0.14372351944E+02  0.29701235828E+02  0.36256960487E+02  0.00000000000E+00 0.  1.
</event>
<event>
 7    1  0.2478637E-008  0.4614231E+02  0.7816164E-02  0.1320468E+00
        -11   -1    0    0    0    0  0.00000000000E+00  0.00000000000E+00  0.45593999997E+02  0.45594000000E+02  0.51100000000E-03 0. -1.
         11   -1    0    0    0    0 -0.00000000000E+00 -0.00000000000E+00 -0.45593999997E+02  0.45594000000E+02  0.51100000000E-03 0.  1.
    9900012    2    1    2    0    0  0.44510511860E+02  0.49168797570E+01 -0.48737321639E+01  0.46142305002E+02  0.99998836540E+01 0.  0.
         12    1    1    2    0    0 -0.44510511860E+02 -0.49168797570E+01  0.48737321639E+01  0.45045694998E+02  0.00000000000E+00 0. -1.
         11    1    3    3    0    0  0.13104257189E+02 -0.28396769064E+01 -0.17701030339E+01  0.13524739791E+02  0.51100000000E-03 0. -1.
        -11    1    3    3    0    0  0.21279664537E+02  0.51637611249E+01 -0.79074912515E+00  0.21911500091E+02  0.51100000000E-03 0.  1.
        -12    1    3    3    0    0  0.10126590134E+02  0.25927955384E+01 -0.23128800048E+01  0.10706065120E+02  0.00000000000E+00 0.  1.
</event>
<event>
 7    1  0.2478637E-008  0.4614231E+02  0.7816164E-02  0.1320468E+00
        -11   -1    0    0    0    0  0.00000000000E+00  0.00000000000E+00  0.45593999997E+02  0.45594000000E+02  0.51100000000E-03 0.  1.
         11   -1    0    0    0    0 -0.00000000000E+00 -0.00000000000E+00 -0.45593999997E+02  0.45594000000E+02  0.51100000000E-03 0. -1.
    9900012    2    1    2    0    0 -0.54620794028E+01 -0.99753970767E+01  0.43586361779E+02  0.46142314397E+02  0.99999693273E+01 0.  0.
         12    1    1    2    0    0  0.54620794028E+01  0.99753970767E+01 -0.43586361779E+02  0.45045685603E+02  0.00000000000E+00 0. -1.
         11    1    3    3    0    0  0.22080145845E+01 -0.44194865862E+01  0.10654540414E+02  0.11744208010E+02  0.51100000000E-03 0. -1.
        -11    1    3    3    0    0 -0.38257057347E+01 -0.21623128668E+01  0.20198228707E+02  0.20670753843E+02  0.51100000000E-03 0.  1.
         12    1    3    3    0    0 -0.38443882526E+01 -0.33935976237E+01  0.12733592658E+02  0.13727352544E+02  0.00000000000E+00 0. -1.
</event>
<event>
 7    1  0.2478637E-008  0.4614230E+02  0.7816164E-02  0.1320468E+00
        -11   -1    0    0    0    0  0.00000000000E+00  0.00000000000E+00  0.45593999997E+02  0.45594000000E+02  0.51100000000E-03 0.  1.
         11   -1    0    0    0    0 -0.00000000000E+00 -0.00000000000E+00 -0.45593999997E+02  0.45594000000E+02  0.51100000000E-03 0. -1.
    9900012    2    1    2    0    0 -0.42319039604E+02  0.49342050774E+01 -0.14624200845E+02  0.46142303834E+02  0.99998730019E+01 0.  0.
         12    1    1    2    0    0  0.42319039604E+02 -0.49342050774E+01  0.14624200845E+02  0.45045696166E+02  0.00000000000E+00 0. -1.
         11    1    3    3    0    0 -0.13293917637E+01  0.15673648717E+01  0.93663678061E-01  0.20573498118E+01  0.51100000000E-03 0. -1.
        -11    1    3    3    0    0 -0.28973238145E+02  0.20596965999E+01 -0.74712875223E+01  0.29991849163E+02  0.51100000000E-03 0.  1.
         12    1    3    3    0    0 -0.12016409695E+02  0.13071436058E+01 -0.72465770003E+01  0.14093104859E+02  0.00000000000E+00 0. -1.
</event>
<event>
 7    1  0.2478637E-008  0.4614231E+02  0.7816164E-02  0.1320468E+00
        -11   -1    0    0    0    0  0.00000000000E+00  0.00000000000E+00  0.45593999997E+02  0.45594000000E+02  0.51100000000E-03 0.  1.
         11   -1    0    0    0    0 -0.00000000000E+00 -0.00000000000E+00 -0.45593999997E+02  0.45594000000E+02  0.51100000000E-03 0. -1.
    9900012    2    1    2    0    0 -0.34652107529E+02 -0.27866718290E+02 -0.71966217266E+01  0.46142313095E+02  0.99999574549E+01 0.  0.
         12    1    1    2    0    0  0.34652107529E+02  0.27866718290E+02  0.71966217266E+01  0.45045686905E+02  0.00000000000E+00 0. -1.
         11    1    3    3    0    0 -0.76303755359E+01 -0.67270611642E+01 -0.55167319809E+01  0.11571962441E+02  0.51100000000E-03 0. -1.
        -11    1    3    3    0    0 -0.42956627614E+01 -0.17115203085E+01  0.90420606703E-02  0.46240785402E+01  0.51100000000E-03 0.  1.
        -12    1    3    3    0    0 -0.22726069231E+02 -0.19428136817E+02 -0.16889318064E+01  0.29946272114E+02  0.00000000000E+00 0.  1.
</event>
<event>
 7    1  0.2478637E-008  0.4614232E+02  0.7816164E-02  0.1320468E+00
        -11   -1    0    0    0    0  0.00000000000E+00  0.00000000000E+00  0.45593999997E+02  0.45594000000E+02  0.51100000000E-03 0.  1.
         11   -1    0    0    0    0 -0.00000000000E+00 -0.00000000000E+00 -0.45593999997E+02  0.45594000000E+02  0.51100000000E-03 0. -1.
    9900012    2    1    2    0    0 -0.14151284256E+02  0.19150733854E+02  0.38237467424E+02  0.46142319094E+02  0.10000012158E+02 0.  0.
         12    1    1    2    0    0  0.14151284256E+02 -0.19150733854E+02 -0.38237467424E+02  0.45045680906E+02  0.00000000000E+00 0. -1.
         11    1    3    3    0    0 -0.10115629013E+02  0.70153666409E+01  0.14938485819E+02  0.19357160904E+02  0.51100000000E-03 0. -1.
        -11    1    3    3    0    0 -0.15986345567E+01  0.57153278006E+01  0.75432431504E+01  0.95979748802E+01  0.51100000000E-03 0.  1.
        -12    1    3    3    0    0 -0.24370206859E+01  0.64200394124E+01  0.15755738455E+02  0.17187183310E+02  0.00000000000E+00 0.  1.
</event>
<event>
 7    1  0.2478637E-008  0.4614232E+02  0.7816164E-02  0.1320468E+00
        -11   -1    0    0    0    0  0.00000000000E+00  0.00000000000E+00  0.45593999997E+02  0.45594000000E+02  0.51100000000E-03 0.  1.
         11   -1    0    0    0    0 -0.00000000000E+00 -0.00000000000E+00 -0.45593999997E+02  0.45594000000E+02  0.51100000000E-03 0. -1.
    9900012    2    1    2    0    0 -0.59105594569E+01 -0.41605766515E+02  0.16221563629E+02  0.46142316001E+02  0.99999839497E+01 0.  0.
         12    1    1    2    0    0  0.59105594569E+01  0.41605766515E+02 -0.16221563629E+02  0.45045683999E+02  0.00000000000E+00 0. -1.
         11    1    3    3    0    0 -0.43226804786E+01 -0.18166025988E+02  0.59389439840E+01  0.19594925941E+02  0.51100000000E-03 0. -1.
        -11    1    3    3    0    0 -0.39976324503E+01 -0.12466203596E+02  0.69852699277E+01  0.14838507119E+02  0.51100000000E-03 0.  1.
         12    1    3    3    0    0  0.24097534720E+01 -0.10973536931E+02  0.32973497170E+01  0.11708882941E+02  0.00000000000E+00 0. -1.
</event>
<event>
 7    1  0.2478637E-008  0.4614232E+02  0.7816164E-02  0.1320468E+00
        -11   -1    0    0    0    0  0.00000000000E+00  0.00000000000E+00  0.45593999997E+02  0.45594000000E+02  0.51100000000E-03 0. -1.
         11   -1    0    0    0    0 -0.00000000000E+00 -0.00000000000E+00 -0.45593999997E+02  0.45594000000E+02  0.51100000000E-03 0.  1.
    9900012    2    1    2    0    0 -0.21841119663E+02 -0.22677318503E+02 -0.32215184610E+02  0.46142318719E+02  0.10000008739E+02 0.  0.
         12    1    1    2    0    0  0.21841119663E+02  0.22677318503E+02  0.32215184610E+02  0.45045681281E+02  0.00000000000E+00 0. -1.
         11    1    3    3    0    0 -0.59352586880E+01 -0.37081943861E+01 -0.54082700039E+01  0.88446246949E+01  0.51100000000E-03 0. -1.
        -11    1    3    3    0    0 -0.37393738743E+01 -0.19847824393E+01 -0.15236756136E+01  0.44993183861E+01  0.51100000000E-03 0.  1.
        -12    1    3    3    0    0 -0.12166487100E+02 -0.16984341677E+02 -0.25283238992E+02  0.32798375638E+02  0.00000000000E+00 0.  1.
</event>
<event>
 7    1  0.2478637E-008  0.4614232E+02  0.7816164E-02  0.1320468E+00
        -11   -1    0    0    0    0  0.00000000000E+00  0.00000000000E+00  0.45593999997E+02  0.45594000000E+02  0.51100000000E-03 0.  1.
         11   -1    0    0    0    0 -0.00000000000E+00 -0.00000000000E+00 -0.45593999997E+02  0.45594000000E+02  0.51100000000E-03 0. -1.
    9900012    2    1    2    0    0  0.19514169409E+02 -0.32959783943E+02  0.23705765599E+02  0.46142317766E+02  0.10000000044E+02 0.  0.
         12    1    1    2    0    0 -0.19514169409E+02  0.32959783943E+02 -0.23705765599E+02  0.45045682234E+02  0.00000000000E+00 0. -1.
         11    1    3    3    0    0 -0.81971710758E+00 -0.24958484965E+01  0.15337176528E+01  0.30419542983E+01  0.51100000000E-03 0. -1.
        -11    1    3    3    0    0  0.58186491246E+01 -0.13053817537E+02  0.87148669397E+01  0.16739406679E+02  0.51100000000E-03 0.  1.
         12    1    3    3    0    0  0.14515237391E+02 -0.17410117910E+02  0.13457181006E+02  0.26360956788E+02  0.00000000000E+00 0. -1.
</event>
<event>
 7    1  0.2478637E-008  0.4614232E+02  0.7816164E-02  0.1320468E+00
        -11   -1    0    0    0    0  0.00000000000E+00  0.00000000000E+00  0.45593999997E+02  0.45594000000E+02  0.51100000000E-03 0. -1.
         11   -1    0    0    0    0 -0.00000000000E+00 -0.00000000000E+00 -0.45593999997E+02  0.45594000000E+02  0.51100000000E-03 0.  1.
    9900012    2    1    2    0    0  0.16762328392E+02 -0.40580664331E+02 -0.10067153565E+02  0.46142317060E+02  0.99999936040E+01 0.  0.
         12    1    1    2    0    0 -0.16762328392E+02  0.40580664331E+02  0.10067153565E+02  0.45045682940E+02  0.00000000000E+00 0. -1.
         11    1    3    3    0    0  0.36713069321E+01 -0.10614302611E+02 -0.53344502171E-01  0.11231418450E+02  0.51100000000E-03 0. -1.
        -11    1    3    3    0    0  0.81481700618E+01 -0.24354772546E+02 -0.96138125188E+01  0.27422126332E+02  0.51100000000E-03 0.  1.
         12    1    3    3    0    0  0.49428513978E+01 -0.56115891743E+01 -0.39999654368E+00  0.74887722783E+01  0.00000000000E+00 0. -1.
</event>
<event>
 7    1  0.2478637E-008  0.4614232E+02  0.7816164E-02  0.1320468E+00
        -11   -1    0    0    0    0  0.00000000000E+00  0.00000000000E+00  0.45593999997E+02  0.45594000000E+02  0.51100000000E-03 0.  1.
         11   -1    0    0    0    0 -0.00000000000E+00 -0.00000000000E+00 -0.45593999997E+02  0.45594000000E+02  0.51100000000E-03 0. -1.
    9900012    2    1    2    0    0 -0.40576514733E+02  0.19533282945E+02 -0.10539834531E+01  0.46142316837E+02  0.99999915713E+01 0.  0.
         12    1    1    2    0    0  0.40576514733E+02 -0.19533282945E+02  0.10539834531E+01  0.45045683163E+02  0.00000000000E+00 0. -1.
         11    1    3    3    0    0 -0.26532662868E+02  0.10296812346E+02  0.31265141220E+01  0.28631829040E+02  0.51100000000E-03 0.  1.
        -11    1    3    3    0    0 -0.51526813403E+00 -0.67808885032E-01  0.12821729122E+00  0.53529359208E+00  0.51100000000E-03 0. -1.
        -12    1    3    3    0    0 -0.13528583732E+02  0.93042794839E+01 -0.43087148663E+01  0.16975194205E+02  0.00000000000E+00 0.  1.
</event>
<event>
 7    1  0.2478637E-008  0.4614232E+02  0.7816164E-02  0.1320468E+00
        -11   -1    0    0    0    0  0.00000000000E+00  0.00000000000E+00  0.45593999997E+02  0.45594000000E+02  0.51100000000E-03 0. -1.
         11   -1    0    0    0    0 -0.00000000000E+00 -0.00000000000E+00 -0.45593999997E+02  0.45594000000E+02  0.51100000000E-03 0.  1.
    9900012    2    1    2    0    0 -0.42978083542E+02 -0.97116516707E+01  0.93638451132E+01  0.46142318316E+02  0.10000005056E+02 0.  0.
         12    1    1    2    0    0  0.42978083542E+02  0.97116516707E+01 -0.93638451132E+01  0.45045681684E+02  0.00000000000E+00 0. -1.
         11    1    3    3    0    0 -0.14939375223E+01  0.56142285586E+00  0.15009964417E+01  0.21908983369E+01  0.51100000000E-03 0. -1.
        -11    1    3    3    0    0 -0.10423267802E+02  0.30570084078E+00  0.20625786233E+01  0.10629778714E+02  0.51100000000E-03 0.  1.
         12    1    3    3    0    0 -0.31060878218E+02 -0.10578775367E+02  0.58002700483E+01  0.33321641265E+02  0.00000000000E+00 0. -1.
</event>
<event>
 7    1  0.2478637E-008  0.4614232E+02  0.7816164E-02  0.1320468E+00
        -11   -1    0    0    0    0  0.00000000000E+00  0.00000000000E+00  0.45593999997E+02  0.45594000000E+02  0.51100000000E-03 0. -1.
         11   -1    0    0    0    0 -0.00000000000E+00 -0.00000000000E+00 -0.45593999997E+02  0.45594000000E+02  0.51100000000E-03 0.  1.
    9900012    2    1    2    0    0 -0.22862324019E+02  0.27871533432E+02 -0.27011206572E+02  0.46142317455E+02  0.99999972126E+01 0.  0.
         12    1    1    2    0    0  0.22862324019E+02 -0.27871533432E+02  0.27011206572E+02  0.45045682545E+02  0.00000000000E+00 0. -1.
         11    1    3    3    0    0 -0.11539726528E+02  0.91344205443E+01 -0.91007346380E+01  0.17303938807E+02  0.51100000000E-03 0. -1.
        -11    1    3    3    0    0 -0.10492072154E+02  0.14896279434E+02 -0.12280191624E+02  0.21972387800E+02  0.51100000000E-03 0.  1.
         12    1    3    3    0    0 -0.83052533724E+00  0.38408334544E+01 -0.56302803105E+01  0.68659908487E+01  0.00000000000E+00 0. -1.
</event>
<event>
 7    1  0.2478637E-008  0.4614232E+02  0.7816164E-02  0.1320468E+00
        -11   -1    0    0    0    0  0.00000000000E+00  0.00000000000E+00  0.45593999997E+02  0.45594000000E+02  0.51100000000E-03 0.  1.
         11   -1    0    0    0    0 -0.00000000000E+00 -0.00000000000E+00 -0.45593999997E+02  0.45594000000E+02  0.51100000000E-03 0. -1.
    9900012    2    1    2    0    0 -0.27360252216E+02 -0.25126802447E+02  0.25478888320E+02  0.46142319268E+02  0.10000013744E+02 0.  0.
         12    1    1    2    0    0  0.27360252216E+02  0.25126802447E+02 -0.25478888320E+02  0.45045680732E+02  0.00000000000E+00 0. -1.
         11    1    3    3    0    0 -0.61740133754E+01 -0.20438235394E+01  0.15980270763E+01  0.66969654783E+01  0.51100000000E-03 0. -1.
        -11    1    3    3    0    0 -0.14952560067E+02 -0.15500992530E+02  0.15447204378E+02  0.26504262776E+02  0.51100000000E-03 0.  1.
         12    1    3    3    0    0 -0.62336787736E+01 -0.75819863784E+01  0.84336568657E+01  0.12941091014E+02  0.00000000000E+00 0. -1.
</event>
<event>
 7    1  0.2478637E-008  0.4614232E+02  0.7816164E-02  0.1320468E+00
        -11   -1    0    0    0    0  0.00000000000E+00  0.00000000000E+00  0.45593999997E+02  0.45594000000E+02  0.51100000000E-03 0.  1.
         11   -1    0    0    0    0 -0.00000000000E+00 -0.00000000000E+00 -0.45593999997E+02  0.45594000000E+02  0.51100000000E-03 0. -1.
    9900012    2    1    2    0    0  0.30307283655E+02  0.17412102144E+02  0.28414798407E+02  0.46142317498E+02  0.99999975965E+01 0.  0.
         12    1    1    2    0    0 -0.30307283655E+02 -0.17412102144E+02 -0.28414798407E+02  0.45045682502E+02  0.00000000000E+00 0. -1.
         11    1    3    3    0    0  0.77095879032E+01  0.47495689489E+01  0.10546702721E+02  0.13900686652E+02  0.51100000000E-03 0. -1.
        -11    1    3    3    0    0  0.13444622108E+02  0.49523105158E+01  0.12915156108E+02  0.19289491974E+02  0.51100000000E-03 0.  1.
         12    1    3    3    0    0  0.91530736438E+01  0.77102226789E+01  0.49529395778E+01  0.12952138872E+02  0.00000000000E+00 0. -1.
</event>
<event>
 7    1  0.2478637E-008  0.4614232E+02  0.7816164E-02  0.1320468E+00
        -11   -1    0    0    0    0  0.00000000000E+00  0.00000000000E+00  0.45593999997E+02  0.45594000000E+02  0.51100000000E-03 0. -1.
         11   -1    0    0    0    0 -0.00000000000E+00 -0.00000000000E+00 -0.45593999997E+02  0.45594000000E+02  0.51100000000E-03 0.  1.
    9900012    2    1    2    0    0 -0.40004604102E+02  0.19993099726E+02 -0.53871247723E+01  0.46142317639E+02  0.99999988883E+01 0.  0.
         12    1    1    2    0    0  0.40004604102E+02 -0.19993099726E+02  0.53871247723E+01  0.45045682361E+02  0.00000000000E+00 0. -1.
         11    1    3    3    0    0 -0.85944013368E+01  0.12705802666E+01  0.13759904074E+01  0.87961047296E+01  0.51100000000E-03 0. -1.
        -11    1    3    3    0    0 -0.19667450962E+02  0.10116810778E+02 -0.30924486950E+01  0.22332078426E+02  0.51100000000E-03 0.  1.
         12    1    3    3    0    0 -0.11742751804E+02  0.86057086819E+01 -0.36706664847E+01  0.15014134483E+02  0.00000000000E+00 0. -1.
</event>
<event>
 7    1  0.2478637E-008  0.4614232E+02  0.7816164E-02  0.1320468E+00
        -11   -1    0    0    0    0  0.00000000000E+00  0.00000000000E+00  0.45593999997E+02  0.45594000000E+02  0.51100000000E-03 0.  1.
         11   -1    0    0    0    0 -0.00000000000E+00 -0.00000000000E+00 -0.45593999997E+02  0.45594000000E+02  0.51100000000E-03 0. -1.
    9900012    2    1    2    0    0  0.42947107623E+02  0.13487499484E+02  0.16573343124E+01  0.46142318159E+02  0.10000003627E+02 0.  0.
         12    1    1    2    0    0 -0.42947107623E+02 -0.13487499484E+02 -0.16573343124E+01  0.45045681841E+02  0.00000000000E+00 0. -1.
         11    1    3    3    0    0  0.29553906845E+01  0.19563265214E+01 -0.14171522246E+00  0.35470594895E+01  0.51100000000E-03 0.  1.
        -11    1    3    3    0    0  0.61396821294E+00 -0.78164411396E-01 -0.12848647882E+01  0.14261642356E+01  0.51100000000E-03 0. -1.
        -12    1    3    3    0    0  0.39377748725E+02  0.11609337374E+02  0.30839143230E+01  0.41169094434E+02  0.00000000000E+00 0.  1.
</event>
<event>
 7    1  0.2478637E-008  0.4614232E+02  0.7816164E-02  0.1320468E+00
        -11   -1    0    0    0    0  0.00000000000E+00  0.00000000000E+00  0.45593999997E+02  0.45594000000E+02  0.51100000000E-03 0.  1.
         11   -1    0    0    0    0 -0.00000000000E+00 -0.00000000000E+00 -0.45593999997E+02  0.45594000000E+02  0.51100000000E-03 0. -1.
    9900012    2    1    2    0    0  0.13543496630E+02 -0.41663733013E+02  0.10479529215E+02  0.46142317830E+02  0.10000000630E+02 0.  0.
         12    1    1    2    0    0 -0.13543496630E+02  0.41663733013E+02 -0.10479529215E+02  0.45045682170E+02  0.00000000000E+00 0. -1.
         11    1    3    3    0    0  0.37843468610E+01 -0.64825361344E+01 -0.67781147201E+00  0.75368418154E+01  0.51100000000E-03 0. -1.
        -11    1    3    3    0    0  0.53224240162E+01 -0.94681442897E+01  0.30398948965E+01  0.11278958948E+02  0.51100000000E-03 0.  1.
        -12    1    3    3    0    0  0.44367257525E+01 -0.25713052589E+02  0.81174457902E+01  0.27326517067E+02  0.00000000000E+00 0.  1.
</event>
<event>
 7    1  0.2478637E-008  0.4614232E+02  0.7816164E-02  0.1320468E+00
        -11   -1    0    0    0    0  0.00000000000E+00  0.00000000000E+00  0.45593999997E+02  0.45594000000E+02  0.51100000000E-03 0. -1.
         11   -1    0    0    0    0 -0.00000000000E+00 -0.00000000000E+00 -0.45593999997E+02  0.45594000000E+02  0.51100000000E-03 0.  1.
    9900012    2    1    2    0    0 -0.19111323303E+01 -0.39687329721E+02 -0.21222088132E+02  0.46142316612E+02  0.99999895229E+01 0.  0.
         12    1    1    2    0    0  0.19111323303E+01  0.39687329721E+02  0.21222088132E+02  0.45045683388E+02  0.00000000000E+00 0. -1.
         11    1    3    3    0    0  0.26406149366E+01 -0.12678183909E+02 -0.40844803576E+01  0.13579108016E+02  0.51100000000E-03 0. -1.
        -11    1    3    3    0    0 -0.38129233890E+01 -0.10909720841E+02 -0.66210553343E+01  0.13319112868E+02  0.51100000000E-03 0.  1.
         12    1    3    3    0    0 -0.73882387782E+00 -0.16099424972E+02 -0.10516552440E+02  0.19244095728E+02  0.00000000000E+00 0. -1.
</event>
<event>
 7    1  0.2478637E-008  0.4614232E+02  0.7816164E-02  0.1320468E+00
        -11   -1    0    0    0    0  0.00000000000E+00  0.00000000000E+00  0.45593999997E+02  0.45594000000E+02  0.51100000000E-03 0.  1.
         11   -1    0    0    0    0 -0.00000000000E+00 -0.00000000000E+00 -0.45593999997E+02  0.45594000000E+02  0.51100000000E-03 0. -1.
    9900012    2    1    2    0    0  0.77694956592E+01  0.47669221246E+01  0.44113771432E+02  0.46142318305E+02  0.10000004964E+02 0.  0.
         12    1    1    2    0    0 -0.77694956592E+01 -0.47669221246E+01 -0.44113771432E+02  0.45045681695E+02  0.00000000000E+00 0. -1.
         11    1    3    3    0    0  0.30887617915E+01  0.22450819803E+01  0.93199935535E+01  0.10071897666E+02  0.51100000000E-03 0. -1.
        -11    1    3    3    0    0  0.31055469018E+01 -0.25934073092E+01  0.12288331158E+02  0.12937282015E+02  0.51100000000E-03 0.  1.
        -12    1    3    3    0    0  0.15751869660E+01  0.51152474536E+01  0.22505446721E+02  0.23133138624E+02  0.00000000000E+00 0.  1.
</event>
<event>
 7    1  0.2478637E-008  0.4614232E+02  0.7816164E-02  0.1320468E+00
        -11   -1    0    0    0    0  0.00000000000E+00  0.00000000000E+00  0.45593999997E+02  0.45594000000E+02  0.51100000000E-03 0.  1.
         11   -1    0    0    0    0 -0.00000000000E+00 -0.00000000000E+00 -0.45593999997E+02  0.45594000000E+02  0.51100000000E-03 0. -1.
    9900012    2    1    2    0    0  0.18995884639E+02 -0.24572904858E+02  0.32625790383E+02  0.46142317804E+02  0.10000000389E+02 0.  0.
         12    1    1    2    0    0 -0.18995884639E+02  0.24572904858E+02 -0.32625790383E+02  0.45045682196E+02  0.00000000000E+00 0. -1.
         11    1    3    3    0    0  0.22710925658E+00 -0.17765134689E+01  0.21597458307E-01  0.17911017366E+01  0.51100000000E-03 0. -1.
        -11    1    3    3    0    0  0.35054546509E+01 -0.22462119576E+01  0.70062694506E+01  0.81499381804E+01  0.51100000000E-03 0.  1.
        -12    1    3    3    0    0  0.15263320732E+02 -0.20550179432E+02  0.25597923474E+02  0.36201277887E+02  0.00000000000E+00 0.  1.
</event>
<event>
 7    1  0.2478637E-008  0.4614232E+02  0.7816164E-02  0.1320468E+00
        -11   -1    0    0    0    0  0.00000000000E+00  0.00000000000E+00  0.45593999997E+02  0.45594000000E+02  0.51100000000E-03 0.  1.
         11   -1    0    0    0    0 -0.00000000000E+00 -0.00000000000E+00 -0.45593999997E+02  0.45594000000E+02  0.51100000000E-03 0. -1.
    9900012    2    1    2    0    0 -0.43190069655E+02  0.10625919589E+02 -0.71289034957E+01  0.46142317088E+02  0.99999938665E+01 0.  0.
         12    1    1    2    0    0  0.43190069655E+02 -0.10625919589E+02  0.71289034957E+01  0.45045682912E+02  0.00000000000E+00 0. -1.
         11    1    3    3    0    0 -0.19324800970E+01  0.70973990762E+00 -0.17707169080E+01  0.27154463153E+01  0.51100000000E-03 0. -1.
        -11    1    3    3    0    0 -0.20677753012E+02  0.19872495190E+01 -0.50148415658E+01  0.21369774601E+02  0.51100000000E-03 0.  1.
        -12    1    3    3    0    0 -0.20579836546E+02  0.79289301621E+01 -0.34334502194E+00  0.22057096173E+02  0.00000000000E+00 0.  1.
</event>
<event>
 7    1  0.2478637E-008  0.4614232E+02  0.7816164E-02  0.1320468E+00
        -11   -1    0    0    0    0  0.00000000000E+00  0.00000000000E+00  0.45593999997E+02  0.45594000000E+02  0.51100000000E-03 0.  1.
         11   -1    0    0    0    0 -0.00000000000E+00 -0.00000000000E+00 -0.45593999997E+02  0.45594000000E+02  0.51100000000E-03 0. -1.
    9900012    2    1    2    0    0 -0.23842039975E+02  0.13070186788E+02  0.35914354707E+02  0.46142317334E+02  0.99999961025E+01 0.  0.
         12    1    1    2    0    0  0.23842039975E+02 -0.13070186788E+02 -0.35914354707E+02  0.45045682666E+02  0.00000000000E+00 0. -1.
         11    1    3    3    0    0 -0.76473587306E+01  0.51213428128E+01  0.18449865306E+02  0.20618141959E+02  0.51100000000E-03 0. -1.
        -11    1    3    3    0    0 -0.56753074163E+01  0.12990987114E+01  0.79748145752E+01  0.98739272582E+01  0.51100000000E-03 0.  1.
        -12    1    3    3    0    0 -0.10519373828E+02  0.66497452642E+01  0.94896748257E+01  0.15650248116E+02  0.00000000000E+00 0.  1.
</event>
<event>
 7    1  0.2478637E-008  0.4614232E+02  0.7816164E-02  0.1320468E+00
        -11   -1    0    0    0    0  0.00000000000E+00  0.00000000000E+00  0.45593999997E+02  0.45594000000E+02  0.51100000000E-03 0.  1.
         11   -1    0    0    0    0 -0.00000000000E+00 -0.00000000000E+00 -0.45593999997E+02  0.45594000000E+02  0.51100000000E-03 0. -1.
    9900012    2    1    2    0    0 -0.29330689039E+02 -0.26437448752E+02  0.21676840209E+02  0.46142318548E+02  0.10000007176E+02 0.  0.
         12    1    1    2    0    0  0.29330689039E+02  0.26437448752E+02 -0.21676840209E+02  0.45045681452E+02  0.00000000000E+00 0. -1.
         11    1    3    3    0    0 -0.11452105539E+02 -0.85210942010E+01  0.44567721429E+01  0.14954015710E+02  0.51100000000E-03 0. -1.
        -11    1    3    3    0    0 -0.13025202130E+02 -0.98771666190E+01  0.87454450176E+01  0.18539070089E+02  0.51100000000E-03 0.  1.
        -12    1    3    3    0    0 -0.48533813700E+01 -0.80391879319E+01  0.84746230480E+01  0.12649232749E+02  0.00000000000E+00 0.  1.
</event>
<event>
 7    1  0.2478637E-008  0.4614232E+02  0.7816164E-02  0.1320468E+00
        -11   -1    0    0    0    0  0.00000000000E+00  0.00000000000E+00  0.45593999997E+02  0.45594000000E+02  0.51100000000E-03 0.  1.
         11   -1    0    0    0    0 -0.00000000000E+00 -0.00000000000E+00 -0.45593999997E+02  0.45594000000E+02  0.51100000000E-03 0. -1.
    9900012    2    1    2    0    0  0.36649201260E+02 -0.16464634944E+02  0.20368237364E+02  0.46142320405E+02  0.10000024109E+02 0.  0.
         12    1    1    2    0    0 -0.36649201260E+02  0.16464634944E+02 -0.20368237364E+02  0.45045679595E+02  0.00000000000E+00 0. -1.
         11    1    3    3    0    0  0.20449503844E+02 -0.11741296447E+02  0.10621052877E+02  0.25862076757E+02  0.51100000000E-03 0. -1.
        -11    1    3    3    0    0  0.14114417718E+02 -0.22483378390E+01  0.65182133584E+01  0.15708561876E+02  0.51100000000E-03 0.  1.
        -12    1    3    3    0    0  0.20852796986E+01 -0.24750006580E+01  0.32289711284E+01  0.45716817722E+01  0.00000000000E+00 0.  1.
</event>
<event>
 7    1  0.2478637E-008  0.4614232E+02  0.7816164E-02  0.1320468E+00
        -11   -1    0    0    0    0  0.00000000000E+00  0.00000000000E+00  0.45593999997E+02  0.45594000000E+02  0.51100000000E-03 0.  1.
         11   -1    0    0    0    0 -0.00000000000E+00 -0.00000000000E+00 -0.45593999997E+02  0.45594000000E+02  0.51100000000E-03 0. -1.
    9900012    2    1    2    0    0  0.69364323469E+01  0.43958695802E+02  0.69736965690E+01  0.46142317919E+02  0.10000001439E+02 0.  0.
         12    1    1    2    0    0 -0.69364323469E+01 -0.43958695802E+02 -0.69736965690E+01  0.45045682081E+02  0.00000000000E+00 0. -1.
         11    1    3    3    0    0  0.31467055750E+01  0.40589949512E+01  0.11542851856E+01  0.52639880832E+01  0.51100000000E-03 0. -1.
        -11    1    3    3    0    0 -0.40067176003E+00  0.24269459626E+02  0.38641862093E+01  0.24578428422E+02  0.51100000000E-03 0.  1.
         12    1    3    3    0    0  0.41903985320E+01  0.15630241225E+02  0.19552251741E+01  0.16299901414E+02  0.00000000000E+00 0. -1.
</event>
<event>
 7    1  0.2478637E-008  0.4614232E+02  0.7816164E-02  0.1320468E+00
        -11   -1    0    0    0    0  0.00000000000E+00  0.00000000000E+00  0.45593999997E+02  0.45594000000E+02  0.51100000000E-03 0. -1.
         11   -1    0    0    0    0 -0.00000000000E+00 -0.00000000000E+00 -0.45593999997E+02  0.45594000000E+02  0.51100000000E-03 0.  1.
    9900012    2    1    2    0    0  0.15427257344E+01  0.29169173314E+02 -0.34291294480E+02  0.46142317059E+02  0.99999935978E+01 0.  0.
         12    1    1    2    0    0 -0.15427257344E+01 -0.29169173314E+02  0.34291294480E+02  0.45045682941E+02  0.00000000000E+00 0. -1.
         11    1    3    3    0    0 -0.83173092782E+00  0.13713680715E+02 -0.21174104882E+02  0.25240830670E+02  0.51100000000E-03 0. -1.
        -11    1    3    3    0    0 -0.20435964888E+00  0.37611139724E+01 -0.56445660507E+01  0.67859315750E+01  0.51100000000E-03 0.  1.
         12    1    3    3    0    0  0.25788163111E+01  0.11694378627E+02 -0.74726235470E+01  0.14115554814E+02  0.00000000000E+00 0. -1.
</event>
<event>
 7    1  0.2478637E-008  0.4614232E+02  0.7816164E-02  0.1320468E+00
        -11   -1    0    0    0    0  0.00000000000E+00  0.00000000000E+00  0.45593999997E+02  0.45594000000E+02  0.51100000000E-03 0.  1.
         11   -1    0    0    0    0 -0.00000000000E+00 -0.00000000000E+00 -0.45593999997E+02  0.45594000000E+02  0.51100000000E-03 0. -1.
    9900012    2    1    2    0    0 -0.24833014722E+02  0.36478931372E+02  0.90400444140E+01  0.46142318107E+02  0.10000003154E+02 0.  0.
         12    1    1    2    0    0  0.24833014722E+02 -0.36478931372E+02 -0.90400444140E+01  0.45045681893E+02  0.00000000000E+00 0. -1.
         11    1    3    3    0    0 -0.11388798398E+02  0.16567452334E+02  0.86417457784E+00  0.20122922346E+02  0.51100000000E-03 0. -1.
        -11    1    3    3    0    0 -0.11502399298E+02  0.16075380592E+02  0.42962534353E+01  0.20228219018E+02  0.51100000000E-03 0.  1.
         12    1    3    3    0    0 -0.19418170247E+01  0.38360984458E+01  0.38796164009E+01  0.57911767424E+01  0.00000000000E+00 0. -1.
</event>
<event>
 7    1  0.2478637E-008  0.4614232E+02  0.7816164E-02  0.1320468E+00
        -11   -1    0    0    0    0  0.00000000000E+00  0.00000000000E+00  0.45593999997E+02  0.45594000000E+02  0.51100000000E-03 0.  1.
         11   -1    0    0    0    0 -0.00000000000E+00 -0.00000000000E+00 -0.45593999997E+02  0.45594000000E+02  0.51100000000E-03 0. -1.
    9900012    2    1    2    0    0 -0.10707638418E+02 -0.10369804282E+02  0.42507966498E+02  0.46142316776E+02  0.99999910139E+01 0.  0.
         12    1    1    2    0    0  0.10707638418E+02  0.10369804282E+02 -0.42507966498E+02  0.45045683224E+02  0.00000000000E+00 0. -1.
         11    1    3    3    0    0 -0.12644165081E+01 -0.28278329177E+01  0.15545186820E+02  0.15850811387E+02  0.51100000000E-03 0. -1.
        -11    1    3    3    0    0 -0.43970491841E+01 -0.71156586471E+01  0.13205559540E+02  0.15631808678E+02  0.51100000000E-03 0.  1.
        -12    1    3    3    0    0 -0.50461727262E+01 -0.42631271753E+00  0.13757220139E+02  0.14659696711E+02  0.00000000000E+00 0.  1.
</event>
<event>
 7    1  0.2478637E-008  0.4614232E+02  0.7816164E-02  0.1320468E+00
        -11   -1    0    0    0    0  0.00000000000E+00  0.00000000000E+00  0.45593999997E+02  0.45594000000E+02  0.51100000000E-03 0.  1.
         11   -1    0    0    0    0 -0.00000000000E+00 -0.00000000000E+00 -0.45593999997E+02  0.45594000000E+02  0.51100000000E-03 0. -1.
    9900012    2    1    2    0    0  0.11268187990E+02 -0.22661686314E+02  0.37263782401E+02  0.46142316899E+02  0.99999921418E+01 0.  0.
         12    1    1    2    0    0 -0.11268187990E+02  0.22661686314E+02 -0.37263782401E+02  0.45045683101E+02  0.00000000000E+00 0. -1.
         11    1    3    3    0    0 -0.10648419041E+01 -0.13218533809E+01  0.18313267586E+01  0.24969867038E+01  0.51100000000E-03 0. -1.
        -11    1    3    3    0    0  0.69416047286E+01 -0.80925476657E+01  0.19578789770E+02  0.22293591300E+02  0.51100000000E-03 0.  1.
        -12    1    3    3    0    0  0.53914251656E+01 -0.13247285267E+02  0.15853665873E+02  0.21351738896E+02  0.00000000000E+00 0.  1.
</event>
<event>
 7    1  0.2478637E-008  0.4614232E+02  0.7816164E-02  0.1320468E+00
        -11   -1    0    0    0    0  0.00000000000E+00  0.00000000000E+00  0.45593999997E+02  0.45594000000E+02  0.51100000000E-03 0.  1.
         11   -1    0    0    0    0 -0.00000000000E+00 -0.00000000000E+00 -0.45593999997E+02  0.45594000000E+02  0.51100000000E-03 0. -1.
    9900012    2    1    2    0    0 -0.23368733912E+02 -0.38387645914E+02 -0.30666798886E+01  0.46142316422E+02  0.99999877870E+01 0.  0.
         12    1    1    2    0    0  0.23368733912E+02  0.38387645914E+02  0.30666798886E+01  0.45045683578E+02  0.00000000000E+00 0. -1.
         11    1    3    3    0    0 -0.98599919664E+01 -0.15318501671E+02  0.99769569001E+00  0.18244761768E+02  0.51100000000E-03 0. -1.
        -11    1    3    3    0    0 -0.83667043845E+01 -0.18807627442E+02 -0.11669808748E+01  0.20617721428E+02  0.51100000000E-03 0.  1.
         12    1    3    3    0    0 -0.51420375613E+01 -0.42615168015E+01 -0.28973947037E+01  0.72798332262E+01  0.00000000000E+00 0. -1.
</event>
<event>
 7    1  0.2478637E-008  0.4614232E+02  0.7816164E-02  0.1320468E+00
        -11   -1    0    0    0    0  0.00000000000E+00  0.00000000000E+00  0.45593999997E+02  0.45594000000E+02  0.51100000000E-03 0.  1.
         11   -1    0    0    0    0 -0.00000000000E+00 -0.00000000000E+00 -0.45593999997E+02  0.45594000000E+02  0.51100000000E-03 0. -1.
    9900012    2    1    2    0    0 -0.94662678148E+01 -0.33838231112E+02  0.28186475895E+02  0.46142317249E+02  0.99999953301E+01 0.  0.
         12    1    1    2    0    0  0.94662678148E+01  0.33838231112E+02 -0.28186475895E+02  0.45045682751E+02  0.00000000000E+00 0. -1.
         11    1    3    3    0    0 -0.17887038021E+00 -0.31759615317E+01  0.37077853445E+01  0.48853248291E+01  0.51100000000E-03 0. -1.
        -11    1    3    3    0    0 -0.55347584360E+01 -0.12682861474E+02  0.15611693028E+02  0.20861770912E+02  0.51100000000E-03 0.  1.
         12    1    3    3    0    0 -0.37526389986E+01 -0.17979408106E+02  0.88669975222E+01  0.20395221508E+02  0.00000000000E+00 0. -1.
</event>
<event>
 7    1  0.2478637E-008  0.4614232E+02  0.7816164E-02  0.1320468E+00
        -11   -1    0    0    0    0  0.00000000000E+00  0.00000000000E+00  0.45593999997E+02  0.45594000000E+02  0.51100000000E-03 0.  1.
         11   -1    0    0    0    0 -0.00000000000E+00 -0.00000000000E+00 -0.45593999997E+02  0.45594000000E+02  0.51100000000E-03 0. -1.
    9900012    2    1    2    0    0 -0.12022683397E+02  0.84254076576E+01  0.42586161550E+02  0.46142316902E+02  0.99999921629E+01 0.  0.
         12    1    1    2    0    0  0.12022683397E+02 -0.84254076576E+01 -0.42586161550E+02  0.45045683098E+02  0.00000000000E+00 0. -1.
         11    1    3    3    0    0 -0.22463419745E+01  0.18274733561E+01  0.50536307359E+01  0.58245081346E+01  0.51100000000E-03 0. -1.
        -11    1    3    3    0    0 -0.94942155223E+01  0.22140279944E+01  0.30554836148E+02  0.32072419002E+02  0.51100000000E-03 0.  1.
         12    1    3    3    0    0 -0.28212590072E+00  0.43839063071E+01  0.69776946659E+01  0.82453897655E+01  0.00000000000E+00 0. -1.
</event>
<event>
 7    1  0.2478637E-008  0.4614232E+02  0.7816164E-02  0.1320468E+00
        -11   -1    0    0    0    0  0.00000000000E+00  0.00000000000E+00  0.45593999997E+02  0.45594000000E+02  0.51100000000E-03 0.  1.
         11   -1    0    0    0    0 -0.00000000000E+00 -0.00000000000E+00 -0.45593999997E+02  0.45594000000E+02  0.51100000000E-03 0. -1.
    9900012    2    1    2    0    0  0.15466668942E+02 -0.42294615409E+02  0.10301251074E+01  0.46142317649E+02  0.99999989776E+01 0.  0.
         12    1    1    2    0    0 -0.15466668942E+02  0.42294615409E+02 -0.10301251074E+01  0.45045682351E+02  0.00000000000E+00 0. -1.
         11    1    3    3    0    0  0.56263910446E+01 -0.80068596427E+01 -0.13834352974E+01  0.98833178138E+01  0.51100000000E-03 0. -1.
        -11    1    3    3    0    0  0.57431624423E+01 -0.99128691194E+01  0.10550331466E+01  0.11504867849E+02  0.51100000000E-03 0.  1.
        -12    1    3    3    0    0  0.40971154549E+01 -0.24374886647E+02  0.13585272583E+01  0.24754131986E+02  0.00000000000E+00 0.  1.
</event>
<event>
 7    1  0.2478637E-008  0.4614232E+02  0.7816164E-02  0.1320468E+00
        -11   -1    0    0    0    0  0.00000000000E+00  0.00000000000E+00  0.45593999997E+02  0.45594000000E+02  0.51100000000E-03 0.  1.
         11   -1    0    0    0    0 -0.00000000000E+00 -0.00000000000E+00 -0.45593999997E+02  0.45594000000E+02  0.51100000000E-03 0. -1.
    9900012    2    1    2    0    0 -0.28022403264E+02  0.35267888181E+02 -0.18559058036E+00  0.46142318018E+02  0.10000002340E+02 0.  0.
         12    1    1    2    0    0  0.28022403264E+02 -0.35267888181E+02  0.18559058036E+00  0.45045681982E+02  0.00000000000E+00 0. -1.
         11    1    3    3    0    0 -0.14847548625E+02  0.25294990395E+02  0.10655175398E+01  0.29349984108E+02  0.51100000000E-03 0. -1.
        -11    1    3    3    0    0 -0.87404937318E+01  0.80523004556E+01 -0.13363611222E+01  0.11959165298E+02  0.51100000000E-03 0.  1.
         12    1    3    3    0    0 -0.44343609071E+01  0.19205973296E+01  0.85253002094E-01  0.48331686119E+01  0.00000000000E+00 0. -1.
</event>
<event>
 7    1  0.2478637E-008  0.4614232E+02  0.7816164E-02  0.1320468E+00
        -11   -1    0    0    0    0  0.00000000000E+00  0.00000000000E+00  0.45593999997E+02  0.45594000000E+02  0.51100000000E-03 0. -1.
         11   -1    0    0    0    0 -0.00000000000E+00 -0.00000000000E+00 -0.45593999997E+02  0.45594000000E+02  0.51100000000E-03 0.  1.
    9900012    2    1    2    0    0 -0.25983406282E+02 -0.35935189159E+02 -0.79144407945E+01  0.46142316578E+02  0.99999892090E+01 0.  0.
         12    1    1    2    0    0  0.25983406282E+02  0.35935189159E+02  0.79144407945E+01  0.45045683422E+02  0.00000000000E+00 0. -1.
         11    1    3    3    0    0 -0.11487982179E+02 -0.15831963997E+02 -0.74874831159E+01  0.20944861476E+02  0.51100000000E-03 0. -1.
        -11    1    3    3    0    0  0.15396237486E+00 -0.72537144769E+00 -0.51913113817E+00  0.90518812947E+00  0.51100000000E-03 0.  1.
        -12    1    3    3    0    0 -0.14649386478E+02 -0.19377853714E+02  0.92173459560E-01  0.24292266973E+02  0.00000000000E+00 0.  1.
</event>
<event>
 7    1  0.2478637E-008  0.4614231E+02  0.7816164E-02  0.1320468E+00
        -11   -1    0    0    0    0  0.00000000000E+00  0.00000000000E+00  0.45593999997E+02  0.45594000000E+02  0.51100000000E-03 0.  1.
         11   -1    0    0    0    0 -0.00000000000E+00 -0.00000000000E+00 -0.45593999997E+02  0.45594000000E+02  0.51100000000E-03 0. -1.
    9900012    2    1    2    0    0  0.46543368004E+01 -0.69139576672E+01  0.44267915977E+02  0.46142311565E+02  0.99999434970E+01 0.  0.
         12    1    1    2    0    0 -0.46543368004E+01  0.69139576672E+01 -0.44267915977E+02  0.45045688435E+02  0.00000000000E+00 0. -1.
         11    1    3    3    0    0 -0.33656684381E+00 -0.33921103267E+00  0.42625460422E+01  0.42892470654E+01  0.51100000000E-03 0. -1.
        -11    1    3    3    0    0  0.28338266903E+01 -0.87670380111E+01  0.29280360063E+02  0.30695781711E+02  0.51100000000E-03 0.  1.
         12    1    3    3    0    0  0.21570769539E+01  0.21922913765E+01  0.10725009872E+02  0.11157282788E+02  0.00000000000E+00 0. -1.
</event>
<event>
 7    1  0.2478637E-008  0.4614232E+02  0.7816164E-02  0.1320468E+00
        -11   -1    0    0    0    0  0.00000000000E+00  0.00000000000E+00  0.45593999997E+02  0.45594000000E+02  0.51100000000E-03 0.  1.
         11   -1    0    0    0    0 -0.00000000000E+00 -0.00000000000E+00 -0.45593999997E+02  0.45594000000E+02  0.51100000000E-03 0. -1.
    9900012    2    1    2    0    0 -0.32197847254E+02 -0.18783599375E+02  0.25290088148E+02  0.46142317279E+02  0.99999956022E+01 0.  0.
         12    1    1    2    0    0  0.32197847254E+02  0.18783599375E+02 -0.25290088148E+02  0.45045682721E+02  0.00000000000E+00 0. -1.
         11    1    3    3    0    0 -0.45947845863E+01 -0.13692980693E+01  0.75270516874E+00  0.48532038829E+01  0.51100000000E-03 0. -1.
        -11    1    3    3    0    0 -0.15590055692E+02 -0.13329713059E+02  0.15567036275E+02  0.25750023406E+02  0.51100000000E-03 0.  1.
        -12    1    3    3    0    0 -0.12013006975E+02 -0.40845882464E+01  0.89703467042E+01  0.15539089990E+02  0.00000000000E+00 0.  1.
</event>
<event>
 7    1  0.2478637E-008  0.4614232E+02  0.7816164E-02  0.1320468E+00
        -11   -1    0    0    0    0  0.00000000000E+00  0.00000000000E+00  0.45593999997E+02  0.45594000000E+02  0.51100000000E-03 0. -1.
         11   -1    0    0    0    0 -0.00000000000E+00 -0.00000000000E+00 -0.45593999997E+02  0.45594000000E+02  0.51100000000E-03 0.  1.
    9900012    2    1    2    0    0 -0.26404840560E+01  0.13930421092E+02 -0.42756105414E+02  0.46142319430E+02  0.10000015216E+02 0.  0.
         12    1    1    2    0    0  0.26404840560E+01 -0.13930421092E+02  0.42756105414E+02  0.45045680570E+02  0.00000000000E+00 0. -1.
         11    1    3    3    0    0  0.52895647627E+00 -0.48559639631E+00 -0.19460500261E+01  0.20742974182E+01  0.51100000000E-03 0. -1.
        -11    1    3    3    0    0 -0.56160780677E+01  0.10306071529E+02 -0.26591826574E+02  0.29066831337E+02  0.51100000000E-03 0.  1.
        -12    1    3    3    0    0  0.24466375354E+01  0.41099459590E+01 -0.14218228815E+02  0.15001190674E+02  0.00000000000E+00 0.  1.
</event>
<event>
 7    1  0.2478637E-008  0.4614232E+02  0.7816164E-02  0.1320468E+00
        -11   -1    0    0    0    0  0.00000000000E+00  0.00000000000E+00  0.45593999997E+02  0.45594000000E+02  0.51100000000E-03 0. -1.
         11   -1    0    0    0    0 -0.00000000000E+00 -0.00000000000E+00 -0.45593999997E+02  0.45594000000E+02  0.51100000000E-03 0.  1.
    9900012    2    1    2    0    0  0.25506207170E+02  0.35321096485E+02 -0.11444089275E+02  0.46142316073E+02  0.99999846099E+01 0.  0.
         12    1    1    2    0    0 -0.25506207170E+02 -0.35321096485E+02  0.11444089275E+02  0.45045683927E+02  0.00000000000E+00 0. -1.
         11    1    3    3    0    0  0.20421883066E+02  0.24979409773E+02 -0.10252406282E+02  0.33854631226E+02  0.51100000000E-03 0. -1.
        -11    1    3    3    0    0  0.52778215588E+01  0.91571688320E+01 -0.21083035941E+01  0.10777480491E+02  0.51100000000E-03 0.  1.
         12    1    3    3    0    0 -0.19349745482E+00  0.11845178798E+01  0.91662060179E+00  0.15102043571E+01  0.00000000000E+00 0. -1.
</event>
<event>
 7    1  0.2478637E-008  0.4614232E+02  0.7816164E-02  0.1320468E+00
        -11   -1    0    0    0    0  0.00000000000E+00  0.00000000000E+00  0.45593999997E+02  0.45594000000E+02  0.51100000000E-03 0. -1.
         11   -1    0    0    0    0 -0.00000000000E+00 -0.00000000000E+00 -0.45593999997E+02  0.45594000000E+02  0.51100000000E-03 0.  1.
    9900012    2    1    2    0    0  0.37498331752E+02  0.24952379058E+02  0.60614157100E+00  0.46142317494E+02  0.99999975645E+01 0.  0.
         12    1    1    2    0    0 -0.37498331752E+02 -0.24952379058E+02 -0.60614157100E+00  0.45045682506E+02  0.00000000000E+00 0. -1.
         11    1    3    3    0    0  0.44428864152E+01  0.27101620985E+01 -0.18424459372E+01  0.55207631349E+01  0.51100000000E-03 0. -1.
        -11    1    3    3    0    0  0.71449935228E+01  0.63071337863E+01  0.35836010054E+01  0.10181997126E+02  0.51100000000E-03 0.  1.
        -12    1    3    3    0    0  0.25910451814E+02  0.15935083173E+02 -0.11350134972E+01  0.30439557233E+02  0.00000000000E+00 0.  1.
</event>
<event>
 7    1  0.2478637E-008  0.4614232E+02  0.7816164E-02  0.1320468E+00
        -11   -1    0    0    0    0  0.00000000000E+00  0.00000000000E+00  0.45593999997E+02  0.45594000000E+02  0.51100000000E-03 0.  1.
         11   -1    0    0    0    0 -0.00000000000E+00 -0.00000000000E+00 -0.45593999997E+02  0.45594000000E+02  0.51100000000E-03 0. -1.
    9900012    2    1    2    0    0  0.40042890081E+02 -0.11093741091E+02  0.17395672369E+02  0.46142317026E+02  0.99999932925E+01 0.  0.
         12    1    1    2    0    0 -0.40042890081E+02  0.11093741091E+02 -0.17395672369E+02  0.45045682974E+02  0.00000000000E+00 0. -1.
         11    1    3    3    0    0  0.10294093843E+02 -0.42086664005E+01  0.58726272640E+01  0.12576525441E+02  0.51100000000E-03 0. -1.
        -11    1    3    3    0    0  0.24122512282E+02 -0.26717720023E+01  0.10572317053E+02  0.26472775686E+02  0.51100000000E-03 0.  1.
        -12    1    3    3    0    0  0.56262839567E+01 -0.42133026885E+01  0.95072805191E+00  0.70930158984E+01  0.00000000000E+00 0.  1.
</event>
<event>
 7    1  0.2478637E-008  0.4614232E+02  0.7816164E-02  0.1320468E+00
        -11   -1    0    0    0    0  0.00000000000E+00  0.00000000000E+00  0.45593999997E+02  0.45594000000E+02  0.51100000000E-03 0. -1.
         11   -1    0    0    0    0 -0.00000000000E+00 -0.00000000000E+00 -0.45593999997E+02  0.45594000000E+02  0.51100000000E-03 0.  1.
    9900012    2    1    2    0    0  0.39629637079E+02 -0.20891400310E+02 -0.47068893099E+01  0.46142317089E+02  0.99999938683E+01 0.  0.
         12    1    1    2    0    0 -0.39629637079E+02  0.20891400310E+02  0.47068893099E+01  0.45045682911E+02  0.00000000000E+00 0. -1.
         11    1    3    3    0    0  0.24098488821E+01 -0.20709885224E+01 -0.25847573553E+01  0.40960146413E+01  0.51100000000E-03 0. -1.
        -11    1    3    3    0    0  0.79632447863E+01 -0.62860993089E+01 -0.10526849896E+01  0.10199826371E+02  0.51100000000E-03 0.  1.
         12    1    3    3    0    0  0.29256543411E+02 -0.12534312479E+02 -0.10694469650E+01  0.31846476077E+02  0.00000000000E+00 0. -1.
</event>
<event>
 7    1  0.2478637E-008  0.4614232E+02  0.7816164E-02  0.1320468E+00
        -11   -1    0    0    0    0  0.00000000000E+00  0.00000000000E+00  0.45593999997E+02  0.45594000000E+02  0.51100000000E-03 0. -1.
         11   -1    0    0    0    0 -0.00000000000E+00 -0.00000000000E+00 -0.45593999997E+02  0.45594000000E+02  0.51100000000E-03 0.  1.
    9900012    2    1    2    0    0 -0.13857359144E+01  0.43601604581E+02  0.11229124582E+02  0.46142318465E+02  0.10000006421E+02 0.  0.
         12    1    1    2    0    0  0.13857359144E+01 -0.43601604581E+02 -0.11229124582E+02  0.45045681535E+02  0.00000000000E+00 0. -1.
         11    1    3    3    0    0 -0.11282465552E+00  0.13379167868E+01  0.16347055541E+01  0.21154227098E+01  0.51100000000E-03 0. -1.
        -11    1    3    3    0    0 -0.36893119556E+01  0.33225283627E+02  0.91564958069E+01  0.34660812318E+02  0.51100000000E-03 0.  1.
        -12    1    3    3    0    0  0.24164006968E+01  0.90384041668E+01  0.43792322096E+00  0.93660834375E+01  0.00000000000E+00 0.  1.
</event>
<event>
 7    1  0.2478637E-008  0.4614231E+02  0.7816164E-02  0.1320468E+00
        -11   -1    0    0    0    0  0.00000000000E+00  0.00000000000E+00  0.45593999997E+02  0.45594000000E+02  0.51100000000E-03 0. -1.
         11   -1    0    0    0    0 -0.00000000000E+00 -0.00000000000E+00 -0.45593999997E+02  0.45594000000E+02  0.51100000000E-03 0.  1.
    9900012    2    1    2    0    0 -0.18914030610E+02  0.19625678101E+02 -0.35863716149E+02  0.46142312850E+02  0.99999552131E+01 0.  0.
         12    1    1    2    0    0  0.18914030610E+02 -0.19625678101E+02  0.35863716149E+02  0.45045687150E+02  0.00000000000E+00 0. -1.
         11    1    3    3    0    0 -0.48122287616E+01  0.83821686155E+01 -0.19451123112E+02  0.21720140122E+02  0.51100000000E-03 0. -1.
        -11    1    3    3    0    0 -0.78311069997E+01  0.66377180056E+01 -0.85388095261E+01  0.13352782689E+02  0.51100000000E-03 0.  1.
         12    1    3    3    0    0 -0.62706948486E+01  0.46057914804E+01 -0.78737835110E+01  0.11069390039E+02  0.00000000000E+00 0. -1.
</event>
<event>
 7    1  0.2478637E-008  0.4614232E+02  0.7816164E-02  0.1320468E+00
        -11   -1    0    0    0    0  0.00000000000E+00  0.00000000000E+00  0.45593999997E+02  0.45594000000E+02  0.51100000000E-03 0.  1.
         11   -1    0    0    0    0 -0.00000000000E+00 -0.00000000000E+00 -0.45593999997E+02  0.45594000000E+02  0.51100000000E-03 0. -1.
    9900012    2    1    2    0    0 -0.44132099043E+02  0.71617120275E+01  0.54937408542E+01  0.46142317924E+02  0.10000001487E+02 0.  0.
         12    1    1    2    0    0  0.44132099043E+02 -0.71617120275E+01 -0.54937408542E+01  0.45045682076E+02  0.00000000000E+00 0. -1.
         11    1    3    3    0    0 -0.19648545633E+02  0.52615784002E+01 -0.75071532768E+00  0.20354683159E+02  0.51100000000E-03 0. -1.
        -11    1    3    3    0    0 -0.52123706740E+01  0.20375551254E+01  0.23759806135E+00  0.56015080142E+01  0.51100000000E-03 0.  1.
        -12    1    3    3    0    0 -0.19271182736E+02 -0.13742149822E+00  0.60068581205E+01  0.20186126751E+02  0.00000000000E+00 0.  1.
</event>
<event>
 7    1  0.2478637E-008  0.4614232E+02  0.7816164E-02  0.1320468E+00
        -11   -1    0    0    0    0  0.00000000000E+00  0.00000000000E+00  0.45593999997E+02  0.45594000000E+02  0.51100000000E-03 0.  1.
         11   -1    0    0    0    0 -0.00000000000E+00 -0.00000000000E+00 -0.45593999997E+02  0.45594000000E+02  0.51100000000E-03 0. -1.
    9900012    2    1    2    0    0 -0.88036626477E+01 -0.29222121953E+02  0.33131202610E+02  0.46142317923E+02  0.10000001474E+02 0.  0.
         12    1    1    2    0    0  0.88036626477E+01  0.29222121953E+02 -0.33131202610E+02  0.45045682077E+02  0.00000000000E+00 0. -1.
         11    1    3    3    0    0 -0.57547478387E+01 -0.13572572448E+02  0.19274995690E+02  0.24266382191E+02  0.51100000000E-03 0. -1.
        -11    1    3    3    0    0 -0.37598125706E+01 -0.10864502269E+02  0.12198142215E+02  0.16762108276E+02  0.51100000000E-03 0.  1.
         12    1    3    3    0    0  0.71089776165E+00 -0.47850472355E+01  0.16580647056E+01  0.51138274552E+01  0.00000000000E+00 0. -1.
</event>
<event>
 7    1  0.2478637E-008  0.4614232E+02  0.7816164E-02  0.1320468E+00
        -11   -1    0    0    0    0  0.00000000000E+00  0.00000000000E+00  0.45593999997E+02  0.45594000000E+02  0.51100000000E-03 0.  1.
         11   -1    0    0    0    0 -0.00000000000E+00 -0.00000000000E+00 -0.45593999997E+02  0.45594000000E+02  0.51100000000E-03 0. -1.
    9900012    2    1    2    0    0 -0.33953408618E+02 -0.28401852453E+02  0.83435311126E+01  0.46142315512E+02  0.99999794952E+01 0.  0.
         12    1    1    2    0    0  0.33953408618E+02  0.28401852453E+02 -0.83435311126E+01  0.45045684488E+02  0.00000000000E+00 0. -1.
         11    1    3    3    0    0 -0.68893629102E+01 -0.27456454762E+01  0.10227036748E+01  0.74865087629E+01  0.51100000000E-03 0. -1.
        -11    1    3    3    0    0 -0.26095501542E+02 -0.22299881266E+02  0.75805857903E+01  0.35152883045E+02  0.51100000000E-03 0.  1.
         12    1    3    3    0    0 -0.96854416573E+00 -0.33563257108E+01 -0.25975835250E+00  0.35029237046E+01  0.00000000000E+00 0. -1.
</event>
<event>
 7    1  0.2478637E-008  0.4614232E+02  0.7816164E-02  0.1320468E+00
        -11   -1    0    0    0    0  0.00000000000E+00  0.00000000000E+00  0.45593999997E+02  0.45594000000E+02  0.51100000000E-03 0.  1.
         11   -1    0    0    0    0 -0.00000000000E+00 -0.00000000000E+00 -0.45593999997E+02  0.45594000000E+02  0.51100000000E-03 0. -1.
    9900012    2    1    2    0    0 -0.26146460024E+02  0.24428684188E+02 -0.27362663882E+02  0.46142319212E+02  0.10000013231E+02 0.  0.
         12    1    1    2    0    0  0.26146460024E+02 -0.24428684188E+02  0.27362663882E+02  0.45045680788E+02  0.00000000000E+00 0. -1.
         11    1    3    3    0    0 -0.96190405411E+01  0.11247868883E+02 -0.15216074316E+02  0.21226620390E+02  0.51100000000E-03 0. -1.
        -11    1    3    3    0    0 -0.14572619510E+02  0.13250232639E+02 -0.11701334056E+02  0.22909629489E+02  0.51100000000E-03 0.  1.
         12    1    3    3    0    0 -0.19547999730E+01 -0.69417333803E-01 -0.44525551032E+00  0.20060693333E+01  0.00000000000E+00 0. -1.
</event>
<event>
 7    1  0.2478637E-008  0.4614232E+02  0.7816164E-02  0.1320468E+00
        -11   -1    0    0    0    0  0.00000000000E+00  0.00000000000E+00  0.45593999997E+02  0.45594000000E+02  0.51100000000E-03 0.  1.
         11   -1    0    0    0    0 -0.00000000000E+00 -0.00000000000E+00 -0.45593999997E+02  0.45594000000E+02  0.51100000000E-03 0. -1.
    9900012    2    1    2    0    0 -0.95932011927E+01  0.85006928165E+01  0.43183582543E+02  0.46142322197E+02  0.10000040448E+02 0.  0.
         12    1    1    2    0    0  0.95932011927E+01 -0.85006928165E+01 -0.43183582543E+02  0.45045677803E+02  0.00000000000E+00 0. -1.
         11    1    3    3    0    0 -0.14797660757E+01  0.41811652818E+01  0.25823550449E+02  0.26201671870E+02  0.51100000000E-03 0.  1.
        -11    1    3    3    0    0 -0.42323606162E+01  0.41240035374E+00  0.85889396868E+01  0.95839885038E+01  0.51100000000E-03 0. -1.
         12    1    3    3    0    0 -0.38810745008E+01  0.39071271809E+01  0.87710924078E+01  0.10356661823E+02  0.00000000000E+00 0. -1.
</event>
<event>
 7    1  0.2478637E-008  0.4614232E+02  0.7816164E-02  0.1320468E+00
        -11   -1    0    0    0    0  0.00000000000E+00  0.00000000000E+00  0.45593999997E+02  0.45594000000E+02  0.51100000000E-03 0.  1.
         11   -1    0    0    0    0 -0.00000000000E+00 -0.00000000000E+00 -0.45593999997E+02  0.45594000000E+02  0.51100000000E-03 0. -1.
    9900012    2    1    2    0    0 -0.16339148514E+02  0.41960721141E+02  0.12014997581E+01  0.46142317693E+02  0.99999993797E+01 0.  0.
         12    1    1    2    0    0  0.16339148514E+02 -0.41960721141E+02 -0.12014997581E+01  0.45045682307E+02  0.00000000000E+00 0. -1.
         11    1    3    3    0    0 -0.20239415233E+01  0.95035174977E+01 -0.45310208076E+00  0.97272033944E+01  0.51100000000E-03 0. -1.
        -11    1    3    3    0    0 -0.77332150863E+01  0.87098221126E+01  0.17104234005E+01  0.11772389956E+02  0.51100000000E-03 0.  1.
        -12    1    3    3    0    0 -0.65819919047E+01  0.23747381530E+02 -0.55821561696E-01  0.24642724343E+02  0.00000000000E+00 0.  1.
</event>
<event>
 7    1  0.2928760E-008  0.4614232E+02  0.7816164E-02  0.1320468E+00
        -11   -1    0    0    0    0  0.00000000000E+00  0.00000000000E+00  0.45593999997E+02  0.45594000000E+02  0.51100000000E-03 0.  1.
         11   -1    0    0    0    0 -0.00000000000E+00 -0.00000000000E+00 -0.45593999997E+02  0.45594000000E+02  0.51100000000E-03 0. -1.
    9900012    2    1    2    0    0  0.28898440288E+02  0.33072011187E+02  0.10011777647E+02  0.46142318002E+02  0.10000002196E+02 0.  0.
         12    1    1    2    0    0 -0.28898440288E+02 -0.33072011187E+02 -0.10011777647E+02  0.45045681998E+02  0.00000000000E+00 0. -1.
         11    1    3    3    0    0  0.23709350619E+01  0.31161746069E+01 -0.11080731994E+01  0.40693615869E+01  0.51100000000E-03 0. -1.
        -11    1    3    3    0    0  0.85696489039E+01  0.55285598533E+01  0.18081681802E+01  0.10357283853E+02  0.51100000000E-03 0.  1.
        -12    1    3    3    0    0  0.17957856323E+02  0.24427276726E+02  0.93116826661E+01  0.31715672562E+02  0.00000000000E+00 0.  1.
</event>
<event>
 7    1  0.2478637E-008  0.4614232E+02  0.7816164E-02  0.1320468E+00
        -11   -1    0    0    0    0  0.00000000000E+00  0.00000000000E+00  0.45593999997E+02  0.45594000000E+02  0.51100000000E-03 0.  1.
         11   -1    0    0    0    0 -0.00000000000E+00 -0.00000000000E+00 -0.45593999997E+02  0.45594000000E+02  0.51100000000E-03 0. -1.
    9900012    2    1    2    0    0 -0.92510380229E+00 -0.35735741318E+02  0.27408293141E+02  0.46142316994E+02  0.99999930036E+01 0.  0.
         12    1    1    2    0    0  0.92510380229E+00  0.35735741318E+02 -0.27408293141E+02  0.45045683006E+02  0.00000000000E+00 0. -1.
         11    1    3    3    0    0 -0.17194434674E+01 -0.72052459327E+01  0.63147812004E+01  0.97338849725E+01  0.51100000000E-03 0. -1.
        -11    1    3    3    0    0  0.22678519442E+01 -0.25745080937E+02  0.15931416772E+02  0.30360539941E+02  0.51100000000E-03 0.  1.
        -12    1    3    3    0    0 -0.14735122791E+01 -0.27854144481E+01  0.51620951683E+01  0.60478920800E+01  0.00000000000E+00 0.  1.
</event>
<event>
 7    1  0.2478637E-008  0.4614232E+02  0.7816164E-02  0.1320468E+00
        -11   -1    0    0    0    0  0.00000000000E+00  0.00000000000E+00  0.45593999997E+02  0.45594000000E+02  0.51100000000E-03 0.  1.
         11   -1    0    0    0    0 -0.00000000000E+00 -0.00000000000E+00 -0.45593999997E+02  0.45594000000E+02  0.51100000000E-03 0. -1.
    9900012    2    1    2    0    0 -0.93686902466E+01 -0.12812816881E+02  0.42156528189E+02  0.46142317606E+02  0.99999985878E+01 0.  0.
         12    1    1    2    0    0  0.93686902466E+01  0.12812816881E+02 -0.42156528189E+02  0.45045682394E+02  0.00000000000E+00 0. -1.
         11    1    3    3    0    0 -0.23202764798E+01 -0.46049609712E+01  0.10852107541E+02  0.12014890213E+02  0.51100000000E-03 0. -1.
        -11    1    3    3    0    0  0.42262630478E+00 -0.56918870130E+01  0.13214206648E+02  0.14394146323E+02  0.51100000000E-03 0.  1.
         12    1    3    3    0    0 -0.74710400716E+01 -0.25159688971E+01  0.18090214000E+02  0.19733281070E+02  0.00000000000E+00 0. -1.
</event>
<event>
 7    1  0.2478637E-008  0.4614232E+02  0.7816164E-02  0.1320468E+00
        -11   -1    0    0    0    0  0.00000000000E+00  0.00000000000E+00  0.45593999997E+02  0.45594000000E+02  0.51100000000E-03 0. -1.
         11   -1    0    0    0    0 -0.00000000000E+00 -0.00000000000E+00 -0.45593999997E+02  0.45594000000E+02  0.51100000000E-03 0.  1.
    9900012    2    1    2    0    0 -0.21452923958E+02 -0.15880827941E+01 -0.39577310591E+02  0.46142317999E+02  0.10000002174E+02 0.  0.
         12    1    1    2    0    0  0.21452923958E+02  0.15880827941E+01  0.39577310591E+02  0.45045682001E+02  0.00000000000E+00 0. -1.
         11    1    3    3    0    0 -0.86044397369E+01 -0.20660049099E+01 -0.94430531632E+01  0.12941252365E+02  0.51100000000E-03 0. -1.
        -11    1    3    3    0    0 -0.10429028038E+02 -0.85660004744E+00 -0.18609960285E+02  0.21350152494E+02  0.51100000000E-03 0.  1.
         12    1    3    3    0    0 -0.24194561831E+01  0.13345221633E+01 -0.11524297143E+02  0.11850913140E+02  0.00000000000E+00 0. -1.
</event>
<event>
 7    1  0.2478637E-008  0.4614232E+02  0.7816164E-02  0.1320468E+00
        -11   -1    0    0    0    0  0.00000000000E+00  0.00000000000E+00  0.45593999997E+02  0.45594000000E+02  0.51100000000E-03 0. -1.
         11   -1    0    0    0    0 -0.00000000000E+00 -0.00000000000E+00 -0.45593999997E+02  0.45594000000E+02  0.51100000000E-03 0.  1.
    9900012    2    1    2    0    0 -0.44749418540E+02 -0.51287386206E+01  0.54691480856E+00  0.46142317240E+02  0.99999952452E+01 0.  0.
         12    1    1    2    0    0  0.44749418540E+02  0.51287386206E+01 -0.54691480856E+00  0.45045682760E+02  0.00000000000E+00 0. -1.
         11    1    3    3    0    0 -0.21609750926E+02 -0.33164951043E+01  0.33430383260E+01  0.22116879987E+02  0.51100000000E-03 0. -1.
        -11    1    3    3    0    0 -0.20067471493E+02 -0.19483043202E+01 -0.46610677614E+00  0.20167214921E+02  0.51100000000E-03 0.  1.
         12    1    3    3    0    0 -0.30721961212E+01  0.13606080385E+00 -0.23300167413E+01  0.38582223321E+01  0.00000000000E+00 0. -1.
</event>
<event>
 7    1  0.2478637E-008  0.4614231E+02  0.7816164E-02  0.1320468E+00
        -11   -1    0    0    0    0  0.00000000000E+00  0.00000000000E+00  0.45593999997E+02  0.45594000000E+02  0.51100000000E-03 0.  1.
         11   -1    0    0    0    0 -0.00000000000E+00 -0.00000000000E+00 -0.45593999997E+02  0.45594000000E+02  0.51100000000E-03 0. -1.
    9900012    2    1    2    0    0  0.81994785354E+01  0.19280929056E+02  0.39876413248E+02  0.46142312004E+02  0.99999475006E+01 0.  0.
         12    1    1    2    0    0 -0.81994785354E+01 -0.19280929056E+02 -0.39876413248E+02  0.45045687996E+02  0.00000000000E+00 0. -1.
         11    1    3    3    0    0  0.66601011503E+00  0.12216264254E+01  0.29103269918E+01  0.32258245546E+01  0.51100000000E-03 0. -1.
        -11    1    3    3    0    0  0.33876531271E+01  0.21900407686E+01  0.14812569499E+02  0.15352025525E+02  0.51100000000E-03 0.  1.
         12    1    3    3    0    0  0.41458152932E+01  0.15869261862E+02  0.22153516757E+02  0.27564461925E+02  0.00000000000E+00 0. -1.
</event>
<event>
 7    1  0.2478637E-008  0.4614231E+02  0.7816164E-02  0.1320468E+00
        -11   -1    0    0    0    0  0.00000000000E+00  0.00000000000E+00  0.45593999997E+02  0.45594000000E+02  0.51100000000E-03 0.  1.
         11   -1    0    0    0    0 -0.00000000000E+00 -0.00000000000E+00 -0.45593999997E+02  0.45594000000E+02  0.51100000000E-03 0. -1.
    9900012    2    1    2    0    0  0.42029068020E+02 -0.10455987175E+02 -0.12383197778E+02  0.46142314151E+02  0.99999670788E+01 0.  0.
         12    1    1    2    0    0 -0.42029068020E+02  0.10455987175E+02  0.12383197778E+02  0.45045685849E+02  0.00000000000E+00 0. -1.
         11    1    3    3    0    0  0.44597602209E+01 -0.31897052560E+00 -0.25213703395E+01  0.51330801741E+01  0.51100000000E-03 0. -1.
        -11    1    3    3    0    0  0.34762597589E+02 -0.11483552971E+02 -0.97847819413E+01  0.37895278570E+02  0.51100000000E-03 0.  1.
         12    1    3    3    0    0  0.28067102100E+01  0.13465363218E+01 -0.77045496731E-01  0.31139554071E+01  0.00000000000E+00 0. -1.
</event>
<event>
 7    1  0.2478637E-008  0.4614232E+02  0.7816164E-02  0.1320468E+00
        -11   -1    0    0    0    0  0.00000000000E+00  0.00000000000E+00  0.45593999997E+02  0.45594000000E+02  0.51100000000E-03 0. -1.
         11   -1    0    0    0    0 -0.00000000000E+00 -0.00000000000E+00 -0.45593999997E+02  0.45594000000E+02  0.51100000000E-03 0.  1.
    9900012    2    1    2    0    0  0.42428628877E+02 -0.14583876742E+02  0.40293216714E+01  0.46142318272E+02  0.10000004662E+02 0.  0.
         12    1    1    2    0    0 -0.42428628877E+02  0.14583876742E+02 -0.40293216714E+01  0.45045681728E+02  0.00000000000E+00 0. -1.
         11    1    3    3    0    0  0.12401269709E+02 -0.11088689336E+01  0.18152559785E+01  0.12582377964E+02  0.51100000000E-03 0. -1.
        -11    1    3    3    0    0  0.27595370067E+01 -0.28727963461E+01  0.16120122218E+01  0.42972766959E+01  0.51100000000E-03 0.  1.
         12    1    3    3    0    0  0.27267822161E+02 -0.10602211462E+02  0.60205347115E+00  0.29262663612E+02  0.00000000000E+00 0. -1.
</event>
<event>
 7    1  0.2478637E-008  0.4614232E+02  0.7816164E-02  0.1320468E+00
        -11   -1    0    0    0    0  0.00000000000E+00  0.00000000000E+00  0.45593999997E+02  0.45594000000E+02  0.51100000000E-03 0.  1.
         11   -1    0    0    0    0 -0.00000000000E+00 -0.00000000000E+00 -0.45593999997E+02  0.45594000000E+02  0.51100000000E-03 0. -1.
    9900012    2    1    2    0    0 -0.43529340953E+02 -0.13189672426E+01 -0.11513919261E+02  0.46142317242E+02  0.99999952634E+01 0.  0.
         12    1    1    2    0    0  0.43529340953E+02  0.13189672426E+01  0.11513919261E+02  0.45045682758E+02  0.00000000000E+00 0. -1.
         11    1    3    3    0    0 -0.57220288035E+01  0.20293486787E+01  0.70453469829E+00  0.61119750563E+01  0.51100000000E-03 0. -1.
        -11    1    3    3    0    0 -0.27667004878E+02 -0.19241578851E+01 -0.73451636072E+01  0.28690015182E+02  0.51100000000E-03 0.  1.
         12    1    3    3    0    0 -0.10140307272E+02 -0.14241580362E+01 -0.48732903520E+01  0.11340327003E+02  0.00000000000E+00 0. -1.
</event>
<event>
 7    1  0.2478637E-008  0.4614232E+02  0.7816164E-02  0.1320468E+00
        -11   -1    0    0    0    0  0.00000000000E+00  0.00000000000E+00  0.45593999997E+02  0.45594000000E+02  0.51100000000E-03 0. -1.
         11   -1    0    0    0    0 -0.00000000000E+00 -0.00000000000E+00 -0.45593999997E+02  0.45594000000E+02  0.51100000000E-03 0.  1.
    9900012    2    1    2    0    0 -0.19716610752E+02 -0.14419743955E+02 -0.37847585288E+02  0.46142317994E+02  0.10000002126E+02 0.  0.
         12    1    1    2    0    0  0.19716610752E+02  0.14419743955E+02  0.37847585288E+02  0.45045682006E+02  0.00000000000E+00 0. -1.
         11    1    3    3    0    0 -0.71362561119E+01 -0.86936812120E+01 -0.12250842744E+02  0.16630976896E+02  0.51100000000E-03 0. -1.
        -11    1    3    3    0    0 -0.36770750880E+01 -0.30319863279E+01 -0.49787949424E+01  0.68921855485E+01  0.51100000000E-03 0.  1.
         12    1    3    3    0    0 -0.89032795517E+01 -0.26940764152E+01 -0.20617947601E+02  0.22619155550E+02  0.00000000000E+00 0. -1.
</event>
<event>
 7    1  0.2478637E-008  0.4614232E+02  0.7816164E-02  0.1320468E+00
        -11   -1    0    0    0    0  0.00000000000E+00  0.00000000000E+00  0.45593999997E+02  0.45594000000E+02  0.51100000000E-03 0.  1.
         11   -1    0    0    0    0 -0.00000000000E+00 -0.00000000000E+00 -0.45593999997E+02  0.45594000000E+02  0.51100000000E-03 0. -1.
    9900012    2    1    2    0    0 -0.83059555620E+01 -0.52258442416E+01  0.43963793628E+02  0.46142317676E+02  0.99999992272E+01 0.  0.
         12    1    1    2    0    0  0.83059555620E+01  0.52258442416E+01 -0.43963793628E+02  0.45045682324E+02  0.00000000000E+00 0. -1.
         11    1    3    3    0    0 -0.23474583519E+01  0.87666974954E+00  0.43513927903E+01  0.50213275178E+01  0.51100000000E-03 0. -1.
        -11    1    3    3    0    0 -0.57517642792E+01 -0.89168678189E+00  0.21109077163E+02  0.21896827089E+02  0.51100000000E-03 0.  1.
         12    1    3    3    0    0 -0.20673293096E+00 -0.52108272092E+01  0.18503323675E+02  0.19224163070E+02  0.00000000000E+00 0. -1.
</event>
<event>
 7    1  0.2478637E-008  0.4614232E+02  0.7816164E-02  0.1320468E+00
        -11   -1    0    0    0    0  0.00000000000E+00  0.00000000000E+00  0.45593999997E+02  0.45594000000E+02  0.51100000000E-03 0. -1.
         11   -1    0    0    0    0 -0.00000000000E+00 -0.00000000000E+00 -0.45593999997E+02  0.45594000000E+02  0.51100000000E-03 0.  1.
    9900012    2    1    2    0    0  0.89678829567E+01 -0.40232771445E+02 -0.18166303900E+02  0.46142318517E+02  0.10000006893E+02 0.  0.
         12    1    1    2    0    0 -0.89678829567E+01  0.40232771445E+02  0.18166303900E+02  0.45045681483E+02  0.00000000000E+00 0. -1.
         11    1    3    3    0    0  0.72152777856E+00 -0.69318192397E+01 -0.40370326347E+01  0.80540892136E+01  0.51100000000E-03 0. -1.
        -11    1    3    3    0    0  0.30902784367E+01 -0.16367171768E+02 -0.23390949299E+01  0.16819794822E+02  0.51100000000E-03 0.  1.
         12    1    3    3    0    0  0.51560767415E+01 -0.16933780437E+02 -0.11790176336E+02  0.21268434481E+02  0.00000000000E+00 0. -1.
</event>
<event>
 7    1  0.2478637E-008  0.4614232E+02  0.7816164E-02  0.1320468E+00
        -11   -1    0    0    0    0  0.00000000000E+00  0.00000000000E+00  0.45593999997E+02  0.45594000000E+02  0.51100000000E-03 0.  1.
         11   -1    0    0    0    0 -0.00000000000E+00 -0.00000000000E+00 -0.45593999997E+02  0.45594000000E+02  0.51100000000E-03 0. -1.
    9900012    2    1    2    0    0 -0.21295423063E+01  0.42036991216E+02  0.16045870004E+02  0.46142317353E+02  0.99999962828E+01 0.  0.
         12    1    1    2    0    0  0.21295423063E+01 -0.42036991216E+02 -0.16045870004E+02  0.45045682647E+02  0.00000000000E+00 0. -1.
         11    1    3    3    0    0 -0.24959006583E+01  0.21318898525E+02  0.10269328009E+02  0.23794622342E+02  0.51100000000E-03 0.  1.
        -11    1    3    3    0    0 -0.97138166163E-01  0.14532886332E+02  0.68269694738E+01  0.16056828249E+02  0.51100000000E-03 0. -1.
         12    1    3    3    0    0  0.46349651817E+00  0.61852063592E+01 -0.10504274791E+01  0.62908667620E+01  0.00000000000E+00 0. -1.
</event>
<event>
 7    1  0.2478637E-008  0.4614232E+02  0.7816164E-02  0.1320468E+00
        -11   -1    0    0    0    0  0.00000000000E+00  0.00000000000E+00  0.45593999997E+02  0.45594000000E+02  0.51100000000E-03 0.  1.
         11   -1    0    0    0    0 -0.00000000000E+00 -0.00000000000E+00 -0.45593999997E+02  0.45594000000E+02  0.51100000000E-03 0. -1.
    9900012    2    1    2    0    0  0.39137187780E+02 -0.21165615255E+02  0.70292752043E+01  0.46142318228E+02  0.10000004255E+02 0.  0.
         12    1    1    2    0    0 -0.39137187780E+02  0.21165615255E+02 -0.70292752043E+01  0.45045681772E+02  0.00000000000E+00 0. -1.
         11    1    3    3    0    0  0.19798664540E+02 -0.58497634225E+01  0.21163446858E+01  0.20752970023E+02  0.51100000000E-03 0.  1.
        -11    1    3    3    0    0  0.15457466599E+02 -0.10345526352E+02  0.38485460719E+01  0.18994064765E+02  0.51100000000E-03 0. -1.
        -12    1    3    3    0    0  0.38810566406E+01 -0.49703254805E+01  0.10643844466E+01  0.63952834401E+01  0.00000000000E+00 0.  1.
</event>
<event>
 7    1  0.2478637E-008  0.4614232E+02  0.7816164E-02  0.1320468E+00
        -11   -1    0    0    0    0  0.00000000000E+00  0.00000000000E+00  0.45593999997E+02  0.45594000000E+02  0.51100000000E-03 0.  1.
         11   -1    0    0    0    0 -0.00000000000E+00 -0.00000000000E+00 -0.45593999997E+02  0.45594000000E+02  0.51100000000E-03 0. -1.
    9900012    2    1    2    0    0 -0.26089522967E+02  0.11304631316E+02  0.34937883736E+02  0.46142316325E+02  0.99999869033E+01 0.  0.
         12    1    1    2    0    0  0.26089522967E+02 -0.11304631316E+02 -0.34937883736E+02  0.45045683675E+02  0.00000000000E+00 0. -1.
         11    1    3    3    0    0 -0.68483270712E+00  0.23402213263E+01  0.21880058318E+01  0.32761259856E+01  0.51100000000E-03 0. -1.
        -11    1    3    3    0    0 -0.22226851106E+02  0.96189702388E+01  0.30358940760E+02  0.38835844047E+02  0.51100000000E-03 0.  1.
         12    1    3    3    0    0 -0.31778391538E+01 -0.65456024882E+00  0.23909371439E+01  0.40303462919E+01  0.00000000000E+00 0. -1.
</event>
<event>
 7    1  0.2478637E-008  0.4614232E+02  0.7816164E-02  0.1320468E+00
        -11   -1    0    0    0    0  0.00000000000E+00  0.00000000000E+00  0.45593999997E+02  0.45594000000E+02  0.51100000000E-03 0. -1.
         11   -1    0    0    0    0 -0.00000000000E+00 -0.00000000000E+00 -0.45593999997E+02  0.45594000000E+02  0.51100000000E-03 0.  1.
    9900012    2    1    2    0    0 -0.41553263543E+01  0.12471153175E+02 -0.43084998464E+02  0.46142317729E+02  0.99999997094E+01 0.  0.
         12    1    1    2    0    0  0.41553263543E+01 -0.12471153175E+02  0.43084998464E+02  0.45045682271E+02  0.00000000000E+00 0. -1.
         11    1    3    3    0    0  0.52170416975E+00  0.47420447285E+00 -0.27780003226E+00  0.75777189301E+00  0.51100000000E-03 0. -1.
        -11    1    3    3    0    0  0.48972987661E-01  0.17112261501E+01 -0.18408551623E+02  0.18487981674E+02  0.51100000000E-03 0.  1.
         12    1    3    3    0    0 -0.47260035117E+01  0.10285722552E+02 -0.24398646809E+02  0.26896564162E+02  0.00000000000E+00 0. -1.
</event>
<event>
 7    1  0.2478637E-008  0.4614232E+02  0.7816164E-02  0.1320468E+00
        -11   -1    0    0    0    0  0.00000000000E+00  0.00000000000E+00  0.45593999997E+02  0.45594000000E+02  0.51100000000E-03 0.  1.
         11   -1    0    0    0    0 -0.00000000000E+00 -0.00000000000E+00 -0.45593999997E+02  0.45594000000E+02  0.51100000000E-03 0. -1.
    9900012    2    1    2    0    0  0.78515037802E+01 -0.32909149941E+02  0.29739792371E+02  0.46142317502E+02  0.99999976390E+01 0.  0.
         12    1    1    2    0    0 -0.78515037802E+01  0.32909149941E+02 -0.29739792371E+02  0.45045682498E+02  0.00000000000E+00 0. -1.
         11    1    3    3    0    0  0.38654630692E+01 -0.22029741439E+02  0.18311580863E+02  0.28906146519E+02  0.51100000000E-03 0. -1.
        -11    1    3    3    0    0  0.12332146861E+01 -0.72756670878E+01  0.10104090708E+02  0.12511946264E+02  0.51100000000E-03 0.  1.
        -12    1    3    3    0    0  0.27528260249E+01 -0.36037414142E+01  0.13241208004E+01  0.47242247192E+01  0.00000000000E+00 0.  1.
</event>
<event>
 7    1  0.2609095E-008  0.4614231E+02  0.7816164E-02  0.1320468E+00
        -11   -1    0    0    0    0  0.00000000000E+00  0.00000000000E+00  0.45593999997E+02  0.45594000000E+02  0.51100000000E-03 0.  1.
         11   -1    0    0    0    0 -0.00000000000E+00 -0.00000000000E+00 -0.45593999997E+02  0.45594000000E+02  0.51100000000E-03 0. -1.
    9900012    2    1    2    0    0  0.32041326375E+02  0.28301896917E+02  0.14194018852E+02  0.46142310571E+02  0.99999344338E+01 0.  0.
         12    1    1    2    0    0 -0.32041326375E+02 -0.28301896917E+02 -0.14194018852E+02  0.45045689429E+02  0.00000000000E+00 0. -1.
         11    1    3    3    0    0  0.45789033706E+01  0.26202181684E+01 -0.79979627502E+00  0.53358760921E+01  0.51100000000E-03 0. -1.
        -11    1    3    3    0    0  0.10401835818E+01  0.16572005733E+00 -0.17203941221E+00  0.10672595006E+01  0.51100000000E-03 0.  1.
        -12    1    3    3    0    0  0.26422239422E+02  0.25515958692E+02  0.15165854539E+02  0.39739174978E+02  0.00000000000E+00 0.  1.
</event>
<event>
 7    1  0.2478637E-008  0.4614232E+02  0.7816164E-02  0.1320468E+00
        -11   -1    0    0    0    0  0.00000000000E+00  0.00000000000E+00  0.45593999997E+02  0.45594000000E+02  0.51100000000E-03 0.  1.
         11   -1    0    0    0    0 -0.00000000000E+00 -0.00000000000E+00 -0.45593999997E+02  0.45594000000E+02  0.51100000000E-03 0. -1.
    9900012    2    1    2    0    0 -0.73461023777E+01 -0.36863440423E+02  0.24824085137E+02  0.46142315824E+02  0.99999823403E+01 0.  0.
         12    1    1    2    0    0  0.73461023777E+01  0.36863440423E+02 -0.24824085137E+02  0.45045684176E+02  0.00000000000E+00 0. -1.
         11    1    3    3    0    0 -0.20699182772E+01 -0.60437039773E+01  0.27316103688E+01  0.69478496607E+01  0.51100000000E-03 0. -1.
        -11    1    3    3    0    0 -0.67575993261E+01 -0.14609053110E+02  0.10896438288E+02  0.19437642579E+02  0.51100000000E-03 0.  1.
         12    1    3    3    0    0  0.14814152256E+01 -0.16210683335E+02  0.11196036481E+02  0.19756823584E+02  0.00000000000E+00 0. -1.
</event>
<event>
 7    1  0.2478637E-008  0.4614232E+02  0.7816164E-02  0.1320468E+00
        -11   -1    0    0    0    0  0.00000000000E+00  0.00000000000E+00  0.45593999997E+02  0.45594000000E+02  0.51100000000E-03 0.  1.
         11   -1    0    0    0    0 -0.00000000000E+00 -0.00000000000E+00 -0.45593999997E+02  0.45594000000E+02  0.51100000000E-03 0. -1.
    9900012    2    1    2    0    0 -0.34717015643E+02  0.13989182781E+02  0.25062821795E+02  0.46142318227E+02  0.10000004252E+02 0.  0.
         12    1    1    2    0    0  0.34717015643E+02 -0.13989182781E+02 -0.25062821795E+02  0.45045681773E+02  0.00000000000E+00 0. -1.
         11    1    3    3    0    0 -0.16800835840E+02  0.71129167558E+01  0.87381187601E+01  0.20229097593E+02  0.51100000000E-03 0. -1.
        -11    1    3    3    0    0 -0.16098745620E+02  0.80023588911E+01  0.14350594479E+02  0.23003193703E+02  0.51100000000E-03 0.  1.
        -12    1    3    3    0    0 -0.18174341826E+01 -0.11260928662E+01  0.19741085563E+01  0.29100269318E+01  0.00000000000E+00 0.  1.
</event>
<event>
 7    1  0.2478637E-008  0.4614232E+02  0.7816164E-02  0.1320468E+00
        -11   -1    0    0    0    0  0.00000000000E+00  0.00000000000E+00  0.45593999997E+02  0.45594000000E+02  0.51100000000E-03 0.  1.
         11   -1    0    0    0    0 -0.00000000000E+00 -0.00000000000E+00 -0.45593999997E+02  0.45594000000E+02  0.51100000000E-03 0. -1.
    9900012    2    1    2    0    0 -0.14138421876E+02 -0.33102872944E+02  0.27081695404E+02  0.46142318783E+02  0.10000009319E+02 0.  0.
         12    1    1    2    0    0  0.14138421876E+02  0.33102872944E+02 -0.27081695404E+02  0.45045681217E+02  0.00000000000E+00 0. -1.
         11    1    3    3    0    0 -0.35052901439E+01 -0.27253704423E+01  0.13670725301E+01  0.46458143102E+01  0.51100000000E-03 0. -1.
        -11    1    3    3    0    0 -0.82231525267E+00 -0.23014808260E+00  0.85726058671E+00  0.12099861525E+01  0.51100000000E-03 0.  1.
        -12    1    3    3    0    0 -0.98108164798E+01 -0.30147354420E+02  0.24857362287E+02  0.40286518320E+02  0.00000000000E+00 0.  1.
</event>
<event>
 7    1  0.2478637E-008  0.4614232E+02  0.7816164E-02  0.1320468E+00
        -11   -1    0    0    0    0  0.00000000000E+00  0.00000000000E+00  0.45593999997E+02  0.45594000000E+02  0.51100000000E-03 0. -1.
         11   -1    0    0    0    0 -0.00000000000E+00 -0.00000000000E+00 -0.45593999997E+02  0.45594000000E+02  0.51100000000E-03 0.  1.
    9900012    2    1    2    0    0  0.11875394740E+01 -0.42566634111E+02  0.14689616112E+02  0.46142318619E+02  0.10000007823E+02 0.  0.
         12    1    1    2    0    0 -0.11875394740E+01  0.42566634111E+02 -0.14689616112E+02  0.45045681381E+02  0.00000000000E+00 0. -1.
         11    1    3    3    0    0  0.66137743601E+00 -0.17793818635E+01  0.32252862229E+00  0.19255245784E+01  0.51100000000E-03 0. -1.
        -11    1    3    3    0    0 -0.57584288241E+00 -0.35420207750E+02  0.90071532178E+01  0.36552038540E+02  0.51100000000E-03 0.  1.
         12    1    3    3    0    0  0.11020049204E+01 -0.53670444975E+01  0.53599342715E+01  0.76647555002E+01  0.00000000000E+00 0. -1.
</event>
<event>
 7    1  0.2478637E-008  0.4614232E+02  0.7816164E-02  0.1320468E+00
        -11   -1    0    0    0    0  0.00000000000E+00  0.00000000000E+00  0.45593999997E+02  0.45594000000E+02  0.51100000000E-03 0.  1.
         11   -1    0    0    0    0 -0.00000000000E+00 -0.00000000000E+00 -0.45593999997E+02  0.45594000000E+02  0.51100000000E-03 0. -1.
    9900012    2    1    2    0    0 -0.10538061766E+02 -0.42728445986E+02  0.96095024750E+01  0.46142318964E+02  0.10000010971E+02 0.  0.
         12    1    1    2    0    0  0.10538061766E+02  0.42728445986E+02 -0.96095024750E+01  0.45045681036E+02  0.00000000000E+00 0. -1.
         11    1    3    3    0    0 -0.44962142959E+01 -0.80090501469E+01  0.18361022501E+01  0.93665414633E+01  0.51100000000E-03 0. -1.
        -11    1    3    3    0    0 -0.12980631775E+00 -0.12224336928E+02  0.55022115582E+01  0.13406177505E+02  0.51100000000E-03 0.  1.
         12    1    3    3    0    0 -0.59120411528E+01 -0.22495058911E+02  0.22711886667E+01  0.23369599996E+02  0.00000000000E+00 0. -1.
</event>
<event>
 7    1  0.2478637E-008  0.4614232E+02  0.7816164E-02  0.1320468E+00
        -11   -1    0    0    0    0  0.00000000000E+00  0.00000000000E+00  0.45593999997E+02  0.45594000000E+02  0.51100000000E-03 0.  1.
         11   -1    0    0    0    0 -0.00000000000E+00 -0.00000000000E+00 -0.45593999997E+02  0.45594000000E+02  0.51100000000E-03 0. -1.
    9900012    2    1    2    0    0 -0.50366820638E+01 -0.42699602696E+02 -0.13434617435E+02  0.46142321159E+02  0.10000030985E+02 0.  0.
         12    1    1    2    0    0  0.50366820638E+01  0.42699602696E+02  0.13434617435E+02  0.45045678841E+02  0.00000000000E+00 0. -1.
         11    1    3    3    0    0 -0.16112791532E+01 -0.22872150458E+01  0.18151825938E+00  0.28036623040E+01  0.51100000000E-03 0. -1.
        -11    1    3    3    0    0 -0.44552232616E+01 -0.38250301630E+02 -0.11628119280E+02  0.40226207220E+02  0.51100000000E-03 0.  1.
         12    1    3    3    0    0  0.10298203510E+01 -0.21620860206E+01 -0.19880164143E+01  0.31124516349E+01  0.00000000000E+00 0. -1.
</event>
<event>
 7    1  0.2478637E-008  0.4614232E+02  0.7816164E-02  0.1320468E+00
        -11   -1    0    0    0    0  0.00000000000E+00  0.00000000000E+00  0.45593999997E+02  0.45594000000E+02  0.51100000000E-03 0. -1.
         11   -1    0    0    0    0 -0.00000000000E+00 -0.00000000000E+00 -0.45593999997E+02  0.45594000000E+02  0.51100000000E-03 0.  1.
    9900012    2    1    2    0    0  0.34967888210E+01 -0.57111577770E+01 -0.44545130214E+02  0.46142317843E+02  0.10000000743E+02 0.  0.
         12    1    1    2    0    0 -0.34967888210E+01  0.57111577770E+01  0.44545130214E+02  0.45045682157E+02  0.00000000000E+00 0. -1.
         11    1    3    3    0    0  0.32265897056E+01 -0.19432631612E+01 -0.10750069903E+02  0.11390836494E+02  0.51100000000E-03 0. -1.
        -11    1    3    3    0    0  0.14791410297E+01  0.13756681648E+01 -0.38896198563E+01  0.43828602502E+01  0.51100000000E-03 0.  1.
        -12    1    3    3    0    0 -0.12089419143E+01 -0.51435627807E+01 -0.29905440455E+02  0.30368621099E+02  0.00000000000E+00 0.  1.
</event>
<event>
 7    1  0.2478637E-008  0.4614232E+02  0.7816164E-02  0.1320468E+00
        -11   -1    0    0    0    0  0.00000000000E+00  0.00000000000E+00  0.45593999997E+02  0.45594000000E+02  0.51100000000E-03 0. -1.
         11   -1    0    0    0    0 -0.00000000000E+00 -0.00000000000E+00 -0.45593999997E+02  0.45594000000E+02  0.51100000000E-03 0.  1.
    9900012    2    1    2    0    0 -0.47296814497E+01 -0.44732936212E+02 -0.23891532303E+01  0.46142317389E+02  0.99999966054E+01 0.  0.
         12    1    1    2    0    0  0.47296814497E+01  0.44732936212E+02  0.23891532303E+01  0.45045682611E+02  0.00000000000E+00 0. -1.
         11    1    3    3    0    0  0.14525586583E+01 -0.78348566629E+00  0.42579655372E-01  0.16509360173E+01  0.51100000000E-03 0. -1.
        -11    1    3    3    0    0 -0.44763977205E+01 -0.30732735045E+02 -0.81922792783E+00  0.31067833439E+02  0.51100000000E-03 0.  1.
        -12    1    3    3    0    0 -0.17058423875E+01 -0.13216715500E+02 -0.16125049578E+01  0.13423547933E+02  0.00000000000E+00 0.  1.
</event>
<event>
 7    1  0.2478637E-008  0.4614232E+02  0.7816164E-02  0.1320468E+00
        -11   -1    0    0    0    0  0.00000000000E+00  0.00000000000E+00  0.45593999997E+02  0.45594000000E+02  0.51100000000E-03 0. -1.
         11   -1    0    0    0    0 -0.00000000000E+00 -0.00000000000E+00 -0.45593999997E+02  0.45594000000E+02  0.51100000000E-03 0.  1.
    9900012    2    1    2    0    0  0.40655822395E+02  0.19391144002E+02 -0.44837517708E+00  0.46142318735E+02  0.10000008882E+02 0.  0.
         12    1    1    2    0    0 -0.40655822395E+02 -0.19391144002E+02  0.44837517708E+00  0.45045681265E+02  0.00000000000E+00 0. -1.
         11    1    3    3    0    0  0.10672651952E+02  0.81390063100E+01  0.16409222085E+01  0.13521891486E+02  0.51100000000E-03 0. -1.
        -11    1    3    3    0    0  0.16628366095E+02  0.89859056585E+01 -0.25174029379E+01  0.19067941087E+02  0.51100000000E-03 0.  1.
         12    1    3    3    0    0  0.13354804348E+02  0.22662320331E+01  0.42810555237E+00  0.13552486162E+02  0.00000000000E+00 0. -1.
</event>
<event>
 7    1  0.2478637E-008  0.4614232E+02  0.7816164E-02  0.1320468E+00
        -11   -1    0    0    0    0  0.00000000000E+00  0.00000000000E+00  0.45593999997E+02  0.45594000000E+02  0.51100000000E-03 0. -1.
         11   -1    0    0    0    0 -0.00000000000E+00 -0.00000000000E+00 -0.45593999997E+02  0.45594000000E+02  0.51100000000E-03 0.  1.
    9900012    2    1    2    0    0 -0.26098015122E+02 -0.36799842901E+01 -0.36530326859E+02  0.46142318097E+02  0.10000003061E+02 0.  0.
         12    1    1    2    0    0  0.26098015122E+02  0.36799842901E+01  0.36530326859E+02  0.45045681903E+02  0.00000000000E+00 0. -1.
         11    1    3    3    0    0 -0.14078138738E+02 -0.37610468119E+00 -0.25789966989E+02  0.29384653182E+02  0.51100000000E-03 0. -1.
        -11    1    3    3    0    0 -0.40817748691E+00  0.46649778017E+00 -0.27748389490E+00  0.67913666723E+00  0.51100000000E-03 0.  1.
        -12    1    3    3    0    0 -0.11611698898E+02 -0.37703773891E+01 -0.10462875974E+02  0.16078528248E+02  0.00000000000E+00 0.  1.
</event>
<event>
 7    1  0.2478637E-008  0.4614232E+02  0.7816164E-02  0.1320468E+00
        -11   -1    0    0    0    0  0.00000000000E+00  0.00000000000E+00  0.45593999997E+02  0.45594000000E+02  0.51100000000E-03 0. -1.
         11   -1    0    0    0    0 -0.00000000000E+00 -0.00000000000E+00 -0.45593999997E+02  0.45594000000E+02  0.51100000000E-03 0.  1.
    9900012    2    1    2    0    0  0.37482179079E+02 -0.15250301797E+01 -0.24937400720E+02  0.46142318518E+02  0.10000006898E+02 0.  0.
         12    1    1    2    0    0 -0.37482179079E+02  0.15250301797E+01  0.24937400720E+02  0.45045681482E+02  0.00000000000E+00 0. -1.
         11    1    3    3    0    0  0.13049120217E+02  0.10387855587E+01 -0.79762777576E+01  0.15329045012E+02  0.51100000000E-03 0. -1.
        -11    1    3    3    0    0  0.19459877015E+02 -0.37543912920E+01 -0.16292674653E+02  0.25656061955E+02  0.51100000000E-03 0.  1.
         12    1    3    3    0    0  0.49731818470E+01  0.11905755536E+01 -0.66844830927E+00  0.51572115503E+01  0.00000000000E+00 0. -1.
</event>
<event>
 7    1  0.2478637E-008  0.4614232E+02  0.7816164E-02  0.1320468E+00
        -11   -1    0    0    0    0  0.00000000000E+00  0.00000000000E+00  0.45593999997E+02  0.45594000000E+02  0.51100000000E-03 0. -1.
         11   -1    0    0    0    0 -0.00000000000E+00 -0.00000000000E+00 -0.45593999997E+02  0.45594000000E+02  0.51100000000E-03 0.  1.
    9900012    2    1    2    0    0  0.79466737520E+00 -0.13684962434E+02 -0.42909250800E+02  0.46142317662E+02  0.99999990996E+01 0.  0.
         12    1    1    2    0    0 -0.79466737520E+00  0.13684962434E+02  0.42909250800E+02  0.45045682338E+02  0.00000000000E+00 0. -1.
         11    1    3    3    0    0  0.11314893891E+01 -0.31208741984E+01 -0.22516737856E+02  0.22760131985E+02  0.51100000000E-03 0.  1.
        -11    1    3    3    0    0  0.87975365566E+00 -0.63204174767E+00 -0.69000525927E+00  0.12843483890E+01  0.51100000000E-03 0. -1.
        -12    1    3    3    0    0 -0.12165756695E+01 -0.99320464876E+01 -0.19702507684E+02  0.22097837289E+02  0.00000000000E+00 0.  1.
</event>
<event>
 7    1  0.2478637E-008  0.4614232E+02  0.7816164E-02  0.1320468E+00
        -11   -1    0    0    0    0  0.00000000000E+00  0.00000000000E+00  0.45593999997E+02  0.45594000000E+02  0.51100000000E-03 0.  1.
         11   -1    0    0    0    0 -0.00000000000E+00 -0.00000000000E+00 -0.45593999997E+02  0.45594000000E+02  0.51100000000E-03 0. -1.
    9900012    2    1    2    0    0  0.74899815827E+01  0.31999893437E+02  0.30806175371E+02  0.46142318242E+02  0.10000004386E+02 0.  0.
         12    1    1    2    0    0 -0.74899815827E+01 -0.31999893437E+02 -0.30806175371E+02  0.45045681758E+02  0.00000000000E+00 0. -1.
         11    1    3    3    0    0  0.44047028361E-01  0.59656400829E+01  0.37466496140E+01  0.70447274845E+01  0.51100000000E-03 0.  1.
        -11    1    3    3    0    0  0.55747995440E+01  0.15876197808E+02  0.11350151124E+02  0.20296747956E+02  0.51100000000E-03 0. -1.
         12    1    3    3    0    0  0.18711350103E+01  0.10158055546E+02  0.15709374633E+02  0.18800842801E+02  0.00000000000E+00 0. -1.
</event>
<event>
 7    1  0.2478637E-008  0.4614232E+02  0.7816164E-02  0.1320468E+00
        -11   -1    0    0    0    0  0.00000000000E+00  0.00000000000E+00  0.45593999997E+02  0.45594000000E+02  0.51100000000E-03 0. -1.
         11   -1    0    0    0    0 -0.00000000000E+00 -0.00000000000E+00 -0.45593999997E+02  0.45594000000E+02  0.51100000000E-03 0.  1.
    9900012    2    1    2    0    0 -0.11209410529E+02 -0.30956213572E+02 -0.30743708090E+02  0.46142316186E+02  0.99999856346E+01 0.  0.
         12    1    1    2    0    0  0.11209410529E+02  0.30956213572E+02  0.30743708090E+02  0.45045683814E+02  0.00000000000E+00 0. -1.
         11    1    3    3    0    0 -0.41369010328E+01 -0.58230684051E+01 -0.37498613804E+01  0.80674367948E+01  0.51100000000E-03 0. -1.
        -11    1    3    3    0    0 -0.68665489039E+01 -0.13081160694E+02 -0.15670067314E+02  0.21536417271E+02  0.51100000000E-03 0.  1.
        -12    1    3    3    0    0 -0.20596059266E+00 -0.12051984473E+02 -0.11323779396E+02  0.16538462120E+02  0.00000000000E+00 0.  1.
</event>
<event>
 7    1  0.2478637E-008  0.4614232E+02  0.7816164E-02  0.1320468E+00
        -11   -1    0    0    0    0  0.00000000000E+00  0.00000000000E+00  0.45593999997E+02  0.45594000000E+02  0.51100000000E-03 0.  1.
         11   -1    0    0    0    0 -0.00000000000E+00 -0.00000000000E+00 -0.45593999997E+02  0.45594000000E+02  0.51100000000E-03 0. -1.
    9900012    2    1    2    0    0  0.21980425851E+02  0.34021329160E+02  0.19710999940E+02  0.46142317887E+02  0.10000001149E+02 0.  0.
         12    1    1    2    0    0 -0.21980425851E+02 -0.34021329160E+02 -0.19710999940E+02  0.45045682113E+02  0.00000000000E+00 0. -1.
         11    1    3    3    0    0  0.16473934317E+01  0.28674996523E+01 -0.22390685510E+00  0.33146031310E+01  0.51100000000E-03 0. -1.
        -11    1    3    3    0    0  0.15553535495E+02  0.18021042533E+02  0.14221840825E+02  0.27729608672E+02  0.51100000000E-03 0.  1.
         12    1    3    3    0    0  0.47794969243E+01  0.13132786974E+02  0.57130659693E+01  0.15098106084E+02  0.00000000000E+00 0. -1.
</event>
<event>
 7    1  0.2478637E-008  0.4614232E+02  0.7816164E-02  0.1320468E+00
        -11   -1    0    0    0    0  0.00000000000E+00  0.00000000000E+00  0.45593999997E+02  0.45594000000E+02  0.51100000000E-03 0. -1.
         11   -1    0    0    0    0 -0.00000000000E+00 -0.00000000000E+00 -0.45593999997E+02  0.45594000000E+02  0.51100000000E-03 0.  1.
    9900012    2    1    2    0    0 -0.37291008137E+02  0.24530632133E+02 -0.60615443066E+01  0.46142317409E+02  0.99999967888E+01 0.  0.
         12    1    1    2    0    0  0.37291008137E+02 -0.24530632133E+02  0.60615443066E+01  0.45045682591E+02  0.00000000000E+00 0. -1.
         11    1    3    3    0    0 -0.48681088997E+01  0.50649865447E+01  0.17987647269E+01  0.72517672164E+01  0.51100000000E-03 0. -1.
        -11    1    3    3    0    0 -0.16103653823E+02  0.78194906806E+01 -0.20613144492E+01  0.18020019935E+02  0.51100000000E-03 0.  1.
         12    1    3    3    0    0 -0.16319245415E+02  0.11646154908E+02 -0.57989945843E+01  0.20870530257E+02  0.00000000000E+00 0. -1.
</event>
<event>
 7    1  0.2478637E-008  0.4614231E+02  0.7816164E-02  0.1320468E+00
        -11   -1    0    0    0    0  0.00000000000E+00  0.00000000000E+00  0.45593999997E+02  0.45594000000E+02  0.51100000000E-03 0.  1.
         11   -1    0    0    0    0 -0.00000000000E+00 -0.00000000000E+00 -0.45593999997E+02  0.45594000000E+02  0.51100000000E-03 0. -1.
    9900012    2    1    2    0    0  0.29062653629E+02 -0.93621824431E+01  0.33118356086E+02  0.46142314237E+02  0.99999678615E+01 0.  0.
         12    1    1    2    0    0 -0.29062653629E+02  0.93621824431E+01 -0.33118356086E+02  0.45045685763E+02  0.00000000000E+00 0. -1.
         11    1    3    3    0    0  0.31610072183E+00  0.65401024482E+00  0.64666102477E+00  0.97253267747E+00  0.51100000000E-03 0. -1.
        -11    1    3    3    0    0  0.12278411557E+02 -0.71211453002E+01  0.18888195486E+02  0.23626976737E+02  0.51100000000E-03 0.  1.
        -12    1    3    3    0    0  0.16468141350E+02 -0.28950473878E+01  0.13583499575E+02  0.21542804822E+02  0.00000000000E+00 0.  1.
</event>
<event>
 7    1  0.2478637E-008  0.4614232E+02  0.7816164E-02  0.1320468E+00
        -11   -1    0    0    0    0  0.00000000000E+00  0.00000000000E+00  0.45593999997E+02  0.45594000000E+02  0.51100000000E-03 0.  1.
         11   -1    0    0    0    0 -0.00000000000E+00 -0.00000000000E+00 -0.45593999997E+02  0.45594000000E+02  0.51100000000E-03 0. -1.
    9900012    2    1    2    0    0 -0.11149077269E+02  0.42671297892E+02  0.91636173140E+01  0.46142317965E+02  0.10000001858E+02 0.  0.
         12    1    1    2    0    0  0.11149077269E+02 -0.42671297892E+02 -0.91636173140E+01  0.45045682035E+02  0.00000000000E+00 0. -1.
         11    1    3    3    0    0 -0.71969873691E+01  0.15842397338E+02  0.27950376922E+01  0.17623575590E+02  0.51100000000E-03 0. -1.
        -11    1    3    3    0    0 -0.90330546731E+00  0.11798875471E+01 -0.83364918139E+00  0.17038387863E+01  0.51100000000E-03 0.  1.
        -12    1    3    3    0    0 -0.30487844322E+01  0.25649013007E+02  0.72022288032E+01  0.26814903589E+02  0.00000000000E+00 0.  1.
</event>
<event>
 7    1  0.2478637E-008  0.4614232E+02  0.7816164E-02  0.1320468E+00
        -11   -1    0    0    0    0  0.00000000000E+00  0.00000000000E+00  0.45593999997E+02  0.45594000000E+02  0.51100000000E-03 0. -1.
         11   -1    0    0    0    0 -0.00000000000E+00 -0.00000000000E+00 -0.45593999997E+02  0.45594000000E+02  0.51100000000E-03 0.  1.
    9900012    2    1    2    0    0 -0.15043034570E+02  0.40456322706E+02 -0.12888240643E+02  0.46142315602E+02  0.99999803149E+01 0.  0.
         12    1    1    2    0    0  0.15043034570E+02 -0.40456322706E+02  0.12888240643E+02  0.45045684398E+02  0.00000000000E+00 0. -1.
         11    1    3    3    0    0 -0.35340530996E+01  0.15206303594E+02 -0.29410211429E+01  0.15886182862E+02  0.51100000000E-03 0. -1.
        -11    1    3    3    0    0 -0.71417641170E+01  0.20651783804E+02 -0.97046578449E+01  0.23909858910E+02  0.51100000000E-03 0.  1.
        -12    1    3    3    0    0 -0.43672173536E+01  0.45982353088E+01 -0.24256165494E+00  0.63462738299E+01  0.00000000000E+00 0.  1.
</event>
<event>
 7    1  0.2478637E-008  0.4614232E+02  0.7816164E-02  0.1320468E+00
        -11   -1    0    0    0    0  0.00000000000E+00  0.00000000000E+00  0.45593999997E+02  0.45594000000E+02  0.51100000000E-03 0.  1.
         11   -1    0    0    0    0 -0.00000000000E+00 -0.00000000000E+00 -0.45593999997E+02  0.45594000000E+02  0.51100000000E-03 0. -1.
    9900012    2    1    2    0    0  0.43095130214E+02 -0.79252084405E+01  0.10445780289E+02  0.46142317601E+02  0.99999985387E+01 0.  0.
         12    1    1    2    0    0 -0.43095130214E+02  0.79252084405E+01 -0.10445780289E+02  0.45045682399E+02  0.00000000000E+00 0. -1.
         11    1    3    3    0    0  0.23086796601E+01 -0.70188307372E+00 -0.15270031397E+01  0.28555875878E+01  0.51100000000E-03 0. -1.
        -11    1    3    3    0    0  0.21513030940E+02 -0.40711975932E+01  0.43530148965E+01  0.22323393313E+02  0.51100000000E-03 0.  1.
        -12    1    3    3    0    0  0.19273419613E+02 -0.31521277735E+01  0.76197685326E+01  0.20963336700E+02  0.00000000000E+00 0.  1.
</event>
<event>
 7    1  0.2478637E-008  0.4614232E+02  0.7816164E-02  0.1320468E+00
        -11   -1    0    0    0    0  0.00000000000E+00  0.00000000000E+00  0.45593999997E+02  0.45594000000E+02  0.51100000000E-03 0. -1.
         11   -1    0    0    0    0 -0.00000000000E+00 -0.00000000000E+00 -0.45593999997E+02  0.45594000000E+02  0.51100000000E-03 0.  1.
    9900012    2    1    2    0    0  0.29185700050E+02 -0.10416154421E+02 -0.32692692688E+02  0.46142317460E+02  0.99999972512E+01 0.  0.
         12    1    1    2    0    0 -0.29185700050E+02  0.10416154421E+02  0.32692692688E+02  0.45045682540E+02  0.00000000000E+00 0. -1.
         11    1    3    3    0    0  0.17273629034E+02 -0.67547033852E+01 -0.15130462505E+02  0.23936064290E+02  0.51100000000E-03 0.  1.
        -11    1    3    3    0    0  0.20449402265E+01 -0.24721961919E+01 -0.21313378981E+01  0.38517705070E+01  0.51100000000E-03 0. -1.
        -12    1    3    3    0    0  0.98671307902E+01 -0.11892548436E+01 -0.15430892285E+02  0.18354482663E+02  0.00000000000E+00 0.  1.
</event>
<event>
 7    1  0.2478637E-008  0.4614232E+02  0.7816164E-02  0.1320468E+00
        -11   -1    0    0    0    0  0.00000000000E+00  0.00000000000E+00  0.45593999997E+02  0.45594000000E+02  0.51100000000E-03 0.  1.
         11   -1    0    0    0    0 -0.00000000000E+00 -0.00000000000E+00 -0.45593999997E+02  0.45594000000E+02  0.51100000000E-03 0. -1.
    9900012    2    1    2    0    0 -0.67314843207E+01  0.42963444610E+02  0.11744915911E+02  0.46142317591E+02  0.99999984526E+01 0.  0.
         12    1    1    2    0    0  0.67314843207E+01 -0.42963444610E+02 -0.11744915911E+02  0.45045682409E+02  0.00000000000E+00 0. -1.
         11    1    3    3    0    0 -0.15073641282E+01  0.23048919770E+01 -0.29597643149E+00  0.27698873532E+01  0.51100000000E-03 0. -1.
        -11    1    3    3    0    0  0.61491242369E+00  0.17814174588E+02  0.76081263479E+01  0.19380570692E+02  0.51100000000E-03 0.  1.
        -12    1    3    3    0    0 -0.58390326162E+01  0.22844378045E+02  0.44327659950E+01  0.23991859547E+02  0.00000000000E+00 0.  1.
</event>
<event>
 7    1  0.2478637E-008  0.4614232E+02  0.7816164E-02  0.1320468E+00
        -11   -1    0    0    0    0  0.00000000000E+00  0.00000000000E+00  0.45593999997E+02  0.45594000000E+02  0.51100000000E-03 0.  1.
         11   -1    0    0    0    0 -0.00000000000E+00 -0.00000000000E+00 -0.45593999997E+02  0.45594000000E+02  0.51100000000E-03 0. -1.
    9900012    2    1    2    0    0  0.13504965761E+02  0.20694776256E+01  0.42923730133E+02  0.46142318227E+02  0.10000004248E+02 0.  0.
         12    1    1    2    0    0 -0.13504965761E+02 -0.20694776256E+01 -0.42923730133E+02  0.45045681773E+02  0.00000000000E+00 0. -1.
         11    1    3    3    0    0  0.25718141346E+01  0.33124359769E+01  0.76913950992E+01  0.87603663666E+01  0.51100000000E-03 0. -1.
        -11    1    3    3    0    0  0.21406023882E+01 -0.26309178694E+01  0.69785595533E+01  0.77591366221E+01  0.51100000000E-03 0.  1.
        -12    1    3    3    0    0  0.87925492377E+01  0.13879595181E+01  0.28253775481E+02  0.29622815238E+02  0.00000000000E+00 0.  1.
</event>
<event>
 7    1  0.2478637E-008  0.4614232E+02  0.7816164E-02  0.1320468E+00
        -11   -1    0    0    0    0  0.00000000000E+00  0.00000000000E+00  0.45593999997E+02  0.45594000000E+02  0.51100000000E-03 0. -1.
         11   -1    0    0    0    0 -0.00000000000E+00 -0.00000000000E+00 -0.45593999997E+02  0.45594000000E+02  0.51100000000E-03 0.  1.
    9900012    2    1    2    0    0 -0.42455294527E+02 -0.12465603213E+02  0.84421669006E+01  0.46142317867E+02  0.10000000968E+02 0.  0.
         12    1    1    2    0    0  0.42455294527E+02  0.12465603213E+02 -0.84421669006E+01  0.45045682133E+02  0.00000000000E+00 0. -1.
         11    1    3    3    0    0 -0.12174811134E+02 -0.75305883012E+01  0.29502829945E+01  0.14616427618E+02  0.51100000000E-03 0. -1.
        -11    1    3    3    0    0 -0.64497897941E+01 -0.29152357473E+01  0.20079852232E+01  0.73573359831E+01  0.51100000000E-03 0.  1.
        -12    1    3    3    0    0 -0.23830693599E+02 -0.20197791642E+01  0.34838986829E+01  0.24168554266E+02  0.00000000000E+00 0.  1.
</event>
<event>
 7    1  0.2478637E-008  0.4614232E+02  0.7816164E-02  0.1320468E+00
        -11   -1    0    0    0    0  0.00000000000E+00  0.00000000000E+00  0.45593999997E+02  0.45594000000E+02  0.51100000000E-03 0.  1.
         11   -1    0    0    0    0 -0.00000000000E+00 -0.00000000000E+00 -0.45593999997E+02  0.45594000000E+02  0.51100000000E-03 0. -1.
    9900012    2    1    2    0    0 -0.13639127177E+02  0.14442932509E+01  0.42906896148E+02  0.46142317519E+02  0.99999977893E+01 0.  0.
         12    1    1    2    0    0  0.13639127177E+02 -0.14442932509E+01 -0.42906896148E+02  0.45045682481E+02  0.00000000000E+00 0. -1.
         11    1    3    3    0    0 -0.10883277412E+02  0.10497378261E+01  0.28309510949E+02  0.30347587831E+02  0.51100000000E-03 0. -1.
        -11    1    3    3    0    0 -0.18341771133E+01 -0.12342500388E+00  0.14622081749E+02  0.14737188142E+02  0.51100000000E-03 0.  1.
         12    1    3    3    0    0 -0.92167265141E+00  0.51798042876E+00 -0.24696549339E-01  0.10575415455E+01  0.00000000000E+00 0. -1.
</event>
<event>
 7    1  0.2478637E-008  0.4614232E+02  0.7816164E-02  0.1320468E+00
        -11   -1    0    0    0    0  0.00000000000E+00  0.00000000000E+00  0.45593999997E+02  0.45594000000E+02  0.51100000000E-03 0.  1.
         11   -1    0    0    0    0 -0.00000000000E+00 -0.00000000000E+00 -0.45593999997E+02  0.45594000000E+02  0.51100000000E-03 0. -1.
    9900012    2    1    2    0    0  0.98700627104E+01  0.82447250831E+01  0.43170821954E+02  0.46142317657E+02  0.99999990503E+01 0.  0.
         12    1    1    2    0    0 -0.98700627104E+01 -0.82447250831E+01 -0.43170821954E+02  0.45045682343E+02  0.00000000000E+00 0. -1.
         11    1    3    3    0    0  0.49340980780E+01 -0.31035816564E+00  0.13215923346E+02  0.14110360597E+02  0.51100000000E-03 0. -1.
        -11    1    3    3    0    0  0.40020750751E+01  0.54652688514E+01  0.26288111837E+02  0.27146833936E+02  0.51100000000E-03 0.  1.
         12    1    3    3    0    0  0.93388955730E+00  0.30898143974E+01  0.36667867708E+01  0.48851231241E+01  0.00000000000E+00 0. -1.
</event>
<event>
 7    1  0.2478637E-008  0.4614232E+02  0.7816164E-02  0.1320468E+00
        -11   -1    0    0    0    0  0.00000000000E+00  0.00000000000E+00  0.45593999997E+02  0.45594000000E+02  0.51100000000E-03 0.  1.
         11   -1    0    0    0    0 -0.00000000000E+00 -0.00000000000E+00 -0.45593999997E+02  0.45594000000E+02  0.51100000000E-03 0. -1.
    9900012    2    1    2    0    0  0.14222745165E+02 -0.33441661260E+02  0.26617331048E+02  0.46142317632E+02  0.99999988266E+01 0.  0.
         12    1    1    2    0    0 -0.14222745165E+02  0.33441661260E+02 -0.26617331048E+02  0.45045682368E+02  0.00000000000E+00 0. -1.
         11    1    3    3    0    0  0.21481620567E+00 -0.81881880967E+01  0.42641993249E+01  0.92344987115E+01  0.51100000000E-03 0. -1.
        -11    1    3    3    0    0  0.13896957694E+02 -0.21640858477E+02  0.18979136090E+02  0.31963413393E+02  0.51100000000E-03 0.  1.
        -12    1    3    3    0    0  0.11097126596E+00 -0.36126146859E+01  0.33739956330E+01  0.49444055277E+01  0.00000000000E+00 0.  1.
</event>
<event>
 7    1  0.2478637E-008  0.4614232E+02  0.7816164E-02  0.1320468E+00
        -11   -1    0    0    0    0  0.00000000000E+00  0.00000000000E+00  0.45593999997E+02  0.45594000000E+02  0.51100000000E-03 0.  1.
         11   -1    0    0    0    0 -0.00000000000E+00 -0.00000000000E+00 -0.45593999997E+02  0.45594000000E+02  0.51100000000E-03 0. -1.
    9900012    2    1    2    0    0  0.76178483561E+01  0.40630466222E+02  0.17895449209E+02  0.46142317617E+02  0.99999986834E+01 0.  0.
         12    1    1    2    0    0 -0.76178483561E+01 -0.40630466222E+02 -0.17895449209E+02  0.45045682383E+02  0.00000000000E+00 0. -1.
         11    1    3    3    0    0  0.33041568719E+01  0.11968588262E+02  0.40026726093E+01  0.13045533561E+02  0.51100000000E-03 0.  1.
        -11    1    3    3    0    0  0.60593010103E+01  0.26789331160E+02  0.12982763249E+02  0.30379854090E+02  0.51100000000E-03 0. -1.
         12    1    3    3    0    0 -0.17456095261E+01  0.18725468001E+01  0.91001335094E+00  0.27169299651E+01  0.00000000000E+00 0. -1.
</event>
<event>
 7    1  0.2478637E-008  0.4614232E+02  0.7816164E-02  0.1320468E+00
        -11   -1    0    0    0    0  0.00000000000E+00  0.00000000000E+00  0.45593999997E+02  0.45594000000E+02  0.51100000000E-03 0. -1.
         11   -1    0    0    0    0 -0.00000000000E+00 -0.00000000000E+00 -0.45593999997E+02  0.45594000000E+02  0.51100000000E-03 0.  1.
    9900012    2    1    2    0    0  0.23154729879E+02  0.50985165618E+01 -0.38301136660E+02  0.46142318117E+02  0.10000003243E+02 0.  0.
         12    1    1    2    0    0 -0.23154729879E+02 -0.50985165618E+01  0.38301136660E+02  0.45045681883E+02  0.00000000000E+00 0. -1.
         11    1    3    3    0    0  0.60421081229E+01 -0.62032371031E+00 -0.94621549554E+01  0.11243853820E+02  0.51100000000E-03 0. -1.
        -11    1    3    3    0    0  0.14975469754E+02  0.75935297216E+01 -0.24105297295E+02  0.29376721157E+02  0.51100000000E-03 0.  1.
         12    1    3    3    0    0  0.21371520027E+01 -0.18746894495E+01 -0.47336844094E+01  0.55217431398E+01  0.00000000000E+00 0. -1.
</event>
<event>
 7    1  0.2478637E-008  0.4614232E+02  0.7816164E-02  0.1320468E+00
        -11   -1    0    0    0    0  0.00000000000E+00  0.00000000000E+00  0.45593999997E+02  0.45594000000E+02  0.51100000000E-03 0.  1.
         11   -1    0    0    0    0 -0.00000000000E+00 -0.00000000000E+00 -0.45593999997E+02  0.45594000000E+02  0.51100000000E-03 0. -1.
    9900012    2    1    2    0    0 -0.18730835487E+02  0.31887569525E+02  0.25718713241E+02  0.46142317643E+02  0.99999989268E+01 0.  0.
         12    1    1    2    0    0  0.18730835487E+02 -0.31887569525E+02 -0.25718713241E+02  0.45045682357E+02  0.00000000000E+00 0. -1.
         11    1    3    3    0    0 -0.56027044849E+01  0.14918413202E+02  0.12893396908E+02  0.20498512973E+02  0.51100000000E-03 0. -1.
        -11    1    3    3    0    0 -0.12529143684E+02  0.16713165155E+02  0.10797082648E+02  0.23513534930E+02  0.51100000000E-03 0.  1.
         12    1    3    3    0    0 -0.59898731786E+00  0.25599116711E+00  0.20282336850E+01  0.21302697401E+01  0.00000000000E+00 0. -1.
</event>
<event>
 7    1  0.2478637E-008  0.4614232E+02  0.7816164E-02  0.1320468E+00
        -11   -1    0    0    0    0  0.00000000000E+00  0.00000000000E+00  0.45593999997E+02  0.45594000000E+02  0.51100000000E-03 0.  1.
         11   -1    0    0    0    0 -0.00000000000E+00 -0.00000000000E+00 -0.45593999997E+02  0.45594000000E+02  0.51100000000E-03 0. -1.
    9900012    2    1    2    0    0 -0.75305537593E+01  0.35186271241E+02  0.27098533730E+02  0.46142318142E+02  0.10000003470E+02 0.  0.
         12    1    1    2    0    0  0.75305537593E+01 -0.35186271241E+02 -0.27098533730E+02  0.45045681858E+02  0.00000000000E+00 0. -1.
         11    1    3    3    0    0  0.12467733456E+01  0.11176181015E+01  0.12072767691E+01  0.20642265996E+01  0.51100000000E-03 0. -1.
        -11    1    3    3    0    0 -0.43368485724E+00  0.12555281930E+02  0.10066564839E+02  0.16098413425E+02  0.51100000000E-03 0.  1.
         12    1    3    3    0    0 -0.83436422477E+01  0.21513371210E+02  0.15824692122E+02  0.27979678117E+02  0.00000000000E+00 0. -1.
</event>
<event>
 7    1  0.2478637E-008  0.4614232E+02  0.7816164E-02  0.1320468E+00
        -11   -1    0    0    0    0  0.00000000000E+00  0.00000000000E+00  0.45593999997E+02  0.45594000000E+02  0.51100000000E-03 0.  1.
         11   -1    0    0    0    0 -0.00000000000E+00 -0.00000000000E+00 -0.45593999997E+02  0.45594000000E+02  0.51100000000E-03 0. -1.
    9900012    2    1    2    0    0 -0.33967379337E+01  0.31578991248E+02  0.31942811392E+02  0.46142315230E+02  0.99999769158E+01 0.  0.
         12    1    1    2    0    0  0.33967379337E+01 -0.31578991248E+02 -0.31942811392E+02  0.45045684770E+02  0.00000000000E+00 0. -1.
         11    1    3    3    0    0  0.99997226580E+00  0.15494733518E+01 -0.19186680518E-01  0.18442289961E+01  0.51100000000E-03 0. -1.
        -11    1    3    3    0    0 -0.13040134862E+01  0.12955867783E+02  0.16800282453E+02  0.21255692225E+02  0.51100000000E-03 0.  1.
        -12    1    3    3    0    0 -0.30926967133E+01  0.17073650113E+02  0.15161715619E+02  0.23042394009E+02  0.00000000000E+00 0.  1.
</event>
<event>
 7    1  0.2478637E-008  0.4614232E+02  0.7816164E-02  0.1320468E+00
        -11   -1    0    0    0    0  0.00000000000E+00  0.00000000000E+00  0.45593999997E+02  0.45594000000E+02  0.51100000000E-03 0.  1.
         11   -1    0    0    0    0 -0.00000000000E+00 -0.00000000000E+00 -0.45593999997E+02  0.45594000000E+02  0.51100000000E-03 0. -1.
    9900012    2    1    2    0    0  0.35543826752E+02  0.84682431597E+01  0.26344613323E+02  0.46142318592E+02  0.10000007577E+02 0.  0.
         12    1    1    2    0    0 -0.35543826752E+02 -0.84682431597E+01 -0.26344613323E+02  0.45045681408E+02  0.00000000000E+00 0. -1.
         11    1    3    3    0    0  0.11158392956E+02  0.39135495903E+01  0.77056039157E+01  0.14113891587E+02  0.51100000000E-03 0. -1.
        -11    1    3    3    0    0  0.24631209516E+02  0.53210502240E+01  0.18352694336E+02  0.31174211255E+02  0.51100000000E-03 0.  1.
         12    1    3    3    0    0 -0.24577572083E+00 -0.76635665459E+00  0.28631507044E+00  0.85421574941E+00  0.00000000000E+00 0. -1.
</event>
<event>
 7    1  0.2478637E-008  0.4614232E+02  0.7816164E-02  0.1320468E+00
        -11   -1    0    0    0    0  0.00000000000E+00  0.00000000000E+00  0.45593999997E+02  0.45594000000E+02  0.51100000000E-03 0.  1.
         11   -1    0    0    0    0 -0.00000000000E+00 -0.00000000000E+00 -0.45593999997E+02  0.45594000000E+02  0.51100000000E-03 0. -1.
    9900012    2    1    2    0    0 -0.43139998577E+02  0.94458598919E+01 -0.88786145433E+01  0.46142317160E+02  0.99999945181E+01 0.  0.
         12    1    1    2    0    0  0.43139998577E+02 -0.94458598919E+01  0.88786145433E+01  0.45045682840E+02  0.00000000000E+00 0. -1.
         11    1    3    3    0    0 -0.24827738001E+02  0.13940437764E+01 -0.42744909413E+01  0.25231551783E+02  0.51100000000E-03 0.  1.
        -11    1    3    3    0    0 -0.13285591649E+02  0.54925755427E+01 -0.14526137628E+01  0.14449408934E+02  0.51100000000E-03 0. -1.
         12    1    3    3    0    0 -0.50266689269E+01  0.25592405729E+01 -0.31515098391E+01  0.64613564425E+01  0.00000000000E+00 0. -1.
</event>
<event>
 7    1  0.2478637E-008  0.4614232E+02  0.7816164E-02  0.1320468E+00
        -11   -1    0    0    0    0  0.00000000000E+00  0.00000000000E+00  0.45593999997E+02  0.45594000000E+02  0.51100000000E-03 0.  1.
         11   -1    0    0    0    0 -0.00000000000E+00 -0.00000000000E+00 -0.45593999997E+02  0.45594000000E+02  0.51100000000E-03 0. -1.
    9900012    2    1    2    0    0 -0.31568315454E+01  0.15343373260E+02  0.42234213036E+02  0.46142318307E+02  0.10000004980E+02 0.  0.
         12    1    1    2    0    0  0.31568315454E+01 -0.15343373260E+02 -0.42234213036E+02  0.45045681693E+02  0.00000000000E+00 0. -1.
         11    1    3    3    0    0 -0.26935347137E+01  0.66938866591E+00  0.59768941538E+01  0.65898766625E+01  0.51100000000E-03 0. -1.
        -11    1    3    3    0    0 -0.21334159870E+01  0.13621026918E+02  0.30664042246E+02  0.33620935816E+02  0.51100000000E-03 0.  1.
         12    1    3    3    0    0  0.16701191553E+01  0.10529576768E+01  0.55932766362E+01  0.59315058283E+01  0.00000000000E+00 0. -1.
</event>
<event>
 7    1  0.2478637E-008  0.4614232E+02  0.7816164E-02  0.1320468E+00
        -11   -1    0    0    0    0  0.00000000000E+00  0.00000000000E+00  0.45593999997E+02  0.45594000000E+02  0.51100000000E-03 0.  1.
         11   -1    0    0    0    0 -0.00000000000E+00 -0.00000000000E+00 -0.45593999997E+02  0.45594000000E+02  0.51100000000E-03 0. -1.
    9900012    2    1    2    0    0 -0.42045729227E+02 -0.58102006482E+01  0.15083491924E+02  0.46142317561E+02  0.99999981718E+01 0.  0.
         12    1    1    2    0    0  0.42045729227E+02  0.58102006482E+01 -0.15083491924E+02  0.45045682439E+02  0.00000000000E+00 0. -1.
         11    1    3    3    0    0 -0.65954646042E+01  0.10139575226E+01  0.24538148238E+01  0.71098150928E+01  0.51100000000E-03 0. -1.
        -11    1    3    3    0    0 -0.32288223975E+02 -0.59598603252E+01  0.13709935553E+02  0.35581057821E+02  0.51100000000E-03 0.  1.
        -12    1    3    3    0    0 -0.31620406477E+01 -0.86429784567E+00 -0.10802584524E+01  0.34514446465E+01  0.00000000000E+00 0.  1.
</event>
<event>
 7    1  0.2478637E-008  0.4614232E+02  0.7816164E-02  0.1320468E+00
        -11   -1    0    0    0    0  0.00000000000E+00  0.00000000000E+00  0.45593999997E+02  0.45594000000E+02  0.51100000000E-03 0. -1.
         11   -1    0    0    0    0 -0.00000000000E+00 -0.00000000000E+00 -0.45593999997E+02  0.45594000000E+02  0.51100000000E-03 0.  1.
    9900012    2    1    2    0    0  0.18346964594E+01  0.26671439215E+01 -0.44929207081E+02  0.46142318557E+02  0.10000007255E+02 0.  0.
         12    1    1    2    0    0 -0.18346964594E+01 -0.26671439215E+01  0.44929207081E+02  0.45045681443E+02  0.00000000000E+00 0. -1.
         11    1    3    3    0    0 -0.16812757207E+01 -0.18082247753E+01 -0.11567856379E+02  0.11828426200E+02  0.51100000000E-03 0. -1.
        -11    1    3    3    0    0  0.11991387355E+01  0.41303186876E+01 -0.29391450642E+02  0.29704458206E+02  0.51100000000E-03 0.  1.
         12    1    3    3    0    0  0.23168334447E+01  0.34505000916E+00 -0.39699000590E+01  0.46094341516E+01  0.00000000000E+00 0. -1.
</event>
<event>
 7    1  0.2478637E-008  0.4614232E+02  0.7816164E-02  0.1320468E+00
        -11   -1    0    0    0    0  0.00000000000E+00  0.00000000000E+00  0.45593999997E+02  0.45594000000E+02  0.51100000000E-03 0.  1.
         11   -1    0    0    0    0 -0.00000000000E+00 -0.00000000000E+00 -0.45593999997E+02  0.45594000000E+02  0.51100000000E-03 0. -1.
    9900012    2    1    2    0    0 -0.83017185473E+01  0.44273777235E+02 -0.16638135640E+00  0.46142316919E+02  0.99999923173E+01 0.  0.
         12    1    1    2    0    0  0.83017185473E+01 -0.44273777235E+02  0.16638135640E+00  0.45045683081E+02  0.00000000000E+00 0. -1.
         11    1    3    3    0    0 -0.75768163092E+01  0.27682487521E+02  0.49713947296E+00  0.28704971845E+02  0.51100000000E-03 0. -1.
        -11    1    3    3    0    0 -0.18188522054E+01  0.16096461277E+02 -0.37849728329E+00  0.16203319087E+02  0.51100000000E-03 0.  1.
         12    1    3    3    0    0  0.10939499673E+01  0.49482843812E+00 -0.28502354606E+00  0.12340259868E+01  0.00000000000E+00 0. -1.
</event>
<event>
 7    1  0.2478637E-008  0.4614231E+02  0.7816164E-02  0.1320468E+00
        -11   -1    0    0    0    0  0.00000000000E+00  0.00000000000E+00  0.45593999997E+02  0.45594000000E+02  0.51100000000E-03 0.  1.
         11   -1    0    0    0    0 -0.00000000000E+00 -0.00000000000E+00 -0.45593999997E+02  0.45594000000E+02  0.51100000000E-03 0. -1.
    9900012    2    1    2    0    0  0.16363482834E+02 -0.11696802592E+02  0.40305520859E+02  0.46142314601E+02  0.99999711834E+01 0.  0.
         12    1    1    2    0    0 -0.16363482834E+02  0.11696802592E+02 -0.40305520859E+02  0.45045685399E+02  0.00000000000E+00 0. -1.
         11    1    3    3    0    0  0.23524310074E+01 -0.26778591191E+01  0.95878186481E+01  0.10228935810E+02  0.51100000000E-03 0. -1.
        -11    1    3    3    0    0  0.98172987489E+01 -0.97028722203E+01  0.26742647184E+02  0.30094754738E+02  0.51100000000E-03 0.  1.
         12    1    3    3    0    0  0.41937530778E+01  0.68392874784E+00  0.39750550271E+01  0.58186240537E+01  0.00000000000E+00 0. -1.
</event>
<event>
 7    1  0.2478637E-008  0.4614232E+02  0.7816164E-02  0.1320468E+00
        -11   -1    0    0    0    0  0.00000000000E+00  0.00000000000E+00  0.45593999997E+02  0.45594000000E+02  0.51100000000E-03 0.  1.
         11   -1    0    0    0    0 -0.00000000000E+00 -0.00000000000E+00 -0.45593999997E+02  0.45594000000E+02  0.51100000000E-03 0. -1.
    9900012    2    1    2    0    0 -0.85691538810E+01  0.26425996508E+02  0.35459128628E+02  0.46142317712E+02  0.99999995546E+01 0.  0.
         12    1    1    2    0    0  0.85691538810E+01 -0.26425996508E+02 -0.35459128628E+02  0.45045682288E+02  0.00000000000E+00 0. -1.
         11    1    3    3    0    0 -0.23808007893E+01  0.15811977402E+02  0.16022191427E+02  0.22636198005E+02  0.51100000000E-03 0. -1.
        -11    1    3    3    0    0 -0.16032960967E+01  0.14373714487E-01  0.16659373795E+01  0.23121662118E+01  0.51100000000E-03 0.  1.
         12    1    3    3    0    0 -0.45850569950E+01  0.10599645392E+02  0.17770999822E+02  0.21193953495E+02  0.00000000000E+00 0. -1.
</event>
<event>
 7    1  0.2478637E-008  0.4614232E+02  0.7816164E-02  0.1320468E+00
        -11   -1    0    0    0    0  0.00000000000E+00  0.00000000000E+00  0.45593999997E+02  0.45594000000E+02  0.51100000000E-03 0.  1.
         11   -1    0    0    0    0 -0.00000000000E+00 -0.00000000000E+00 -0.45593999997E+02  0.45594000000E+02  0.51100000000E-03 0. -1.
    9900012    2    1    2    0    0 -0.37810146102E+02 -0.11794180308E+02  0.21457020856E+02  0.46142316729E+02  0.99999905878E+01 0.  0.
         12    1    1    2    0    0  0.37810146102E+02  0.11794180308E+02 -0.21457020856E+02  0.45045683271E+02  0.00000000000E+00 0. -1.
         11    1    3    3    0    0 -0.20322056465E+02 -0.29804225046E+01  0.70960400708E+01  0.21730685268E+02  0.51100000000E-03 0.  1.
        -11    1    3    3    0    0 -0.39669430948E+01 -0.12545466704E+01  0.40271487917E+01  0.57903758529E+01  0.51100000000E-03 0. -1.
        -12    1    3    3    0    0 -0.13521146542E+02 -0.75592111329E+01  0.10333831993E+02  0.18621255608E+02  0.00000000000E+00 0.  1.
</event>
<event>
 7    1  0.2478637E-008  0.4614232E+02  0.7816164E-02  0.1320468E+00
        -11   -1    0    0    0    0  0.00000000000E+00  0.00000000000E+00  0.45593999997E+02  0.45594000000E+02  0.51100000000E-03 0.  1.
         11   -1    0    0    0    0 -0.00000000000E+00 -0.00000000000E+00 -0.45593999997E+02  0.45594000000E+02  0.51100000000E-03 0. -1.
    9900012    2    1    2    0    0 -0.23819046762E+02  0.16108815321E+01  0.38199104487E+02  0.46142317504E+02  0.99999976517E+01 0.  0.
         12    1    1    2    0    0  0.23819046762E+02 -0.16108815321E+01 -0.38199104487E+02  0.45045682496E+02  0.00000000000E+00 0. -1.
         11    1    3    3    0    0  0.27290267015E+00 -0.17764355278E+00  0.35732926097E+01  0.35880988608E+01  0.51100000000E-03 0. -1.
        -11    1    3    3    0    0 -0.18087180670E+01 -0.96830671489E+00  0.48130145362E+01  0.52320347979E+01  0.51100000000E-03 0.  1.
        -12    1    3    3    0    0 -0.22283231366E+02  0.27568317997E+01  0.29812797341E+02  0.37322183845E+02  0.00000000000E+00 0.  1.
</event>
<event>
 7    1  0.2478637E-008  0.4614232E+02  0.7816164E-02  0.1320468E+00
        -11   -1    0    0    0    0  0.00000000000E+00  0.00000000000E+00  0.45593999997E+02  0.45594000000E+02  0.51100000000E-03 0.  1.
         11   -1    0    0    0    0 -0.00000000000E+00 -0.00000000000E+00 -0.45593999997E+02  0.45594000000E+02  0.51100000000E-03 0. -1.
    9900012    2    1    2    0    0 -0.28568716162E+02 -0.15760822950E+02  0.31057019218E+02  0.46142317345E+02  0.99999962014E+01 0.  0.
         12    1    1    2    0    0  0.28568716162E+02  0.15760822950E+02 -0.31057019218E+02  0.45045682655E+02  0.00000000000E+00 0. -1.
         11    1    3    3    0    0 -0.24355637996E+01 -0.28617548333E+01  0.15018572259E+01  0.40468737485E+01  0.51100000000E-03 0. -1.
        -11    1    3    3    0    0 -0.15285622926E+02 -0.11297894674E+02  0.18478416832E+02  0.26509330078E+02  0.51100000000E-03 0.  1.
         12    1    3    3    0    0 -0.10847529436E+02 -0.16011734429E+01  0.11076745160E+02  0.15586113518E+02  0.00000000000E+00 0. -1.
</event>
<event>
 7    1  0.2478637E-008  0.4614231E+02  0.7816164E-02  0.1320468E+00
        -11   -1    0    0    0    0  0.00000000000E+00  0.00000000000E+00  0.45593999997E+02  0.45594000000E+02  0.51100000000E-03 0. -1.
         11   -1    0    0    0    0 -0.00000000000E+00 -0.00000000000E+00 -0.45593999997E+02  0.45594000000E+02  0.51100000000E-03 0.  1.
    9900012    2    1    2    0    0 -0.14778200671E+02  0.42544166139E+02 -0.84410055361E+00  0.46142314377E+02  0.99999691364E+01 0.  0.
         12    1    1    2    0    0  0.14778200671E+02 -0.42544166139E+02  0.84410055361E+00  0.45045685623E+02  0.00000000000E+00 0. -1.
         11    1    3    3    0    0 -0.63313391712E+01  0.65389110977E+01 -0.43795268106E+00  0.91123551761E+01  0.51100000000E-03 0. -1.
        -11    1    3    3    0    0 -0.18373123931E+00  0.18069695329E+01 -0.33807422226E+00  0.18474822061E+01  0.51100000000E-03 0.  1.
        -12    1    3    3    0    0 -0.82631302604E+01  0.34198285509E+02 -0.68073650288E-01  0.35182476994E+02  0.00000000000E+00 0.  1.
</event>
<event>
 7    1  0.2478637E-008  0.4614232E+02  0.7816164E-02  0.1320468E+00
        -11   -1    0    0    0    0  0.00000000000E+00  0.00000000000E+00  0.45593999997E+02  0.45594000000E+02  0.51100000000E-03 0.  1.
         11   -1    0    0    0    0 -0.00000000000E+00 -0.00000000000E+00 -0.45593999997E+02  0.45594000000E+02  0.51100000000E-03 0. -1.
    9900012    2    1    2    0    0 -0.43794574989E+02 -0.14078392103E+01  0.10448280832E+02  0.46142318941E+02  0.10000010759E+02 0.  0.
         12    1    1    2    0    0  0.43794574989E+02  0.14078392103E+01 -0.10448280832E+02  0.45045681059E+02  0.00000000000E+00 0. -1.
         11    1    3    3    0    0 -0.40282989914E+01 -0.19768938515E+01  0.78716747247E+00  0.45557584391E+01  0.51100000000E-03 0. -1.
        -11    1    3    3    0    0 -0.22195693133E+02  0.23959981036E+00  0.91401260900E+01  0.24005168338E+02  0.51100000000E-03 0.  1.
         12    1    3    3    0    0 -0.17570582864E+02  0.32945483091E+00  0.52098726982E+00  0.17581392164E+02  0.00000000000E+00 0. -1.
</event>
<event>
 7    1  0.2478637E-008  0.4614232E+02  0.7816164E-02  0.1320468E+00
        -11   -1    0    0    0    0  0.00000000000E+00  0.00000000000E+00  0.45593999997E+02  0.45594000000E+02  0.51100000000E-03 0. -1.
         11   -1    0    0    0    0 -0.00000000000E+00 -0.00000000000E+00 -0.45593999997E+02  0.45594000000E+02  0.51100000000E-03 0.  1.
    9900012    2    1    2    0    0 -0.34477249883E+02 -0.26528223359E+02 -0.11691280836E+02  0.46142318280E+02  0.10000004732E+02 0.  0.
         12    1    1    2    0    0  0.34477249883E+02  0.26528223359E+02  0.11691280836E+02  0.45045681720E+02  0.00000000000E+00 0. -1.
         11    1    3    3    0    0 -0.13934059323E+02 -0.13434940373E+02 -0.39091507029E+01  0.19746824847E+02  0.51100000000E-03 0. -1.
        -11    1    3    3    0    0 -0.77099145034E+01 -0.71465118378E+01 -0.59347032918E+00  0.10529369420E+02  0.51100000000E-03 0.  1.
         12    1    3    3    0    0 -0.12833276056E+02 -0.59467711475E+01 -0.71886598041E+01  0.15866124013E+02  0.00000000000E+00 0. -1.
</event>
<event>
 7    1  0.2478637E-008  0.4614232E+02  0.7816164E-02  0.1320468E+00
        -11   -1    0    0    0    0  0.00000000000E+00  0.00000000000E+00  0.45593999997E+02  0.45594000000E+02  0.51100000000E-03 0. -1.
         11   -1    0    0    0    0 -0.00000000000E+00 -0.00000000000E+00 -0.45593999997E+02  0.45594000000E+02  0.51100000000E-03 0.  1.
    9900012    2    1    2    0    0 -0.12617645177E+01  0.13847720117E+02 -0.42845793852E+02  0.46142318154E+02  0.10000003583E+02 0.  0.
         12    1    1    2    0    0  0.12617645177E+01 -0.13847720117E+02  0.42845793852E+02  0.45045681846E+02  0.00000000000E+00 0. -1.
         11    1    3    3    0    0  0.33847260524E+00  0.19501489759E+00  0.31189178530E+00  0.49987124506E+00  0.51100000000E-03 0. -1.
        -11    1    3    3    0    0  0.11005992194E+01  0.38649517210E+01 -0.68501903151E+01  0.79419316329E+01  0.51100000000E-03 0.  1.
         12    1    3    3    0    0 -0.27008363423E+01  0.97877534984E+01 -0.36307495322E+02  0.37700515276E+02  0.00000000000E+00 0. -1.
</event>
<event>
 7    1  0.2478637E-008  0.4614232E+02  0.7816164E-02  0.1320468E+00
        -11   -1    0    0    0    0  0.00000000000E+00  0.00000000000E+00  0.45593999997E+02  0.45594000000E+02  0.51100000000E-03 0. -1.
         11   -1    0    0    0    0 -0.00000000000E+00 -0.00000000000E+00 -0.45593999997E+02  0.45594000000E+02  0.51100000000E-03 0.  1.
    9900012    2    1    2    0    0  0.11625112479E+02 -0.30764280765E+02 -0.30781964689E+02  0.46142316952E+02  0.99999926231E+01 0.  0.
         12    1    1    2    0    0 -0.11625112479E+02  0.30764280765E+02  0.30781964689E+02  0.45045683048E+02  0.00000000000E+00 0. -1.
         11    1    3    3    0    0  0.31475823908E+01 -0.51689009958E+01 -0.68781133685E+01  0.91615094925E+01  0.51100000000E-03 0. -1.
        -11    1    3    3    0    0  0.70540657870E+01 -0.18005661251E+02 -0.21445551267E+02  0.28876899949E+02  0.51100000000E-03 0.  1.
         12    1    3    3    0    0  0.14234643007E+01 -0.75897185176E+01 -0.24583000535E+01  0.81039075109E+01  0.00000000000E+00 0. -1.
</event>
<event>
 7    1  0.2478637E-008  0.4614232E+02  0.7816164E-02  0.1320468E+00
        -11   -1    0    0    0    0  0.00000000000E+00  0.00000000000E+00  0.45593999997E+02  0.45594000000E+02  0.51100000000E-03 0.  1.
         11   -1    0    0    0    0 -0.00000000000E+00 -0.00000000000E+00 -0.45593999997E+02  0.45594000000E+02  0.51100000000E-03 0. -1.
    9900012    2    1    2    0    0  0.69149460736E+01  0.13734061038E+02  0.42339963464E+02  0.46142318543E+02  0.10000007134E+02 0.  0.
         12    1    1    2    0    0 -0.69149460736E+01 -0.13734061038E+02 -0.42339963464E+02  0.45045681457E+02  0.00000000000E+00 0. -1.
         11    1    3    3    0    0  0.52910975020E+01  0.65187709417E+01  0.12338343165E+02  0.14923967291E+02  0.51100000000E-03 0. -1.
        -11    1    3    3    0    0 -0.76719351716E+00  0.55642383157E+01  0.17316151604E+02  0.18204352242E+02  0.51100000000E-03 0.  1.
         12    1    3    3    0    0  0.23910420888E+01  0.16510517805E+01  0.12685468695E+02  0.13013999011E+02  0.00000000000E+00 0. -1.
</event>
<event>
 7    1  0.2478637E-008  0.4614232E+02  0.7816164E-02  0.1320468E+00
        -11   -1    0    0    0    0  0.00000000000E+00  0.00000000000E+00  0.45593999997E+02  0.45594000000E+02  0.51100000000E-03 0.  1.
         11   -1    0    0    0    0 -0.00000000000E+00 -0.00000000000E+00 -0.45593999997E+02  0.45594000000E+02  0.51100000000E-03 0. -1.
    9900012    2    1    2    0    0 -0.15238589902E+02  0.37587281497E+02  0.19598345377E+02  0.46142317698E+02  0.99999994222E+01 0.  0.
         12    1    1    2    0    0  0.15238589902E+02 -0.37587281497E+02 -0.19598345377E+02  0.45045682302E+02  0.00000000000E+00 0. -1.
         11    1    3    3    0    0 -0.41750281737E+01  0.52737386816E+01  0.60025960957E+01  0.90152282324E+01  0.51100000000E-03 0. -1.
        -11    1    3    3    0    0 -0.42369920001E+01  0.16912863482E+02  0.92152712256E+01  0.19721011039E+02  0.51100000000E-03 0.  1.
         12    1    3    3    0    0 -0.68265697279E+01  0.15400679334E+02  0.43804780556E+01  0.17406078427E+02  0.00000000000E+00 0. -1.
</event>
<event>
 7    1  0.2478637E-008  0.4614232E+02  0.7816164E-02  0.1320468E+00
        -11   -1    0    0    0    0  0.00000000000E+00  0.00000000000E+00  0.45593999997E+02  0.45594000000E+02  0.51100000000E-03 0.  1.
         11   -1    0    0    0    0 -0.00000000000E+00 -0.00000000000E+00 -0.45593999997E+02  0.45594000000E+02  0.51100000000E-03 0. -1.
    9900012    2    1    2    0    0  0.31944458560E+02 -0.11196878633E+02  0.29720277494E+02  0.46142318541E+02  0.10000007108E+02 0.  0.
         12    1    1    2    0    0 -0.31944458560E+02  0.11196878633E+02 -0.29720277494E+02  0.45045681459E+02  0.00000000000E+00 0. -1.
         11    1    3    3    0    0  0.81119790490E+01 -0.65456738704E+00  0.32404953602E+01  0.87597644373E+01  0.51100000000E-03 0. -1.
        -11    1    3    3    0    0  0.11517238561E+02 -0.62494410122E+01  0.10747333629E+02  0.16947196742E+02  0.51100000000E-03 0.  1.
        -12    1    3    3    0    0  0.12315240950E+02 -0.42928702337E+01  0.15732448506E+02  0.20435357361E+02  0.00000000000E+00 0.  1.
</event>
<event>
 7    1  0.2478637E-008  0.4614232E+02  0.7816164E-02  0.1320468E+00
        -11   -1    0    0    0    0  0.00000000000E+00  0.00000000000E+00  0.45593999997E+02  0.45594000000E+02  0.51100000000E-03 0.  1.
         11   -1    0    0    0    0 -0.00000000000E+00 -0.00000000000E+00 -0.45593999997E+02  0.45594000000E+02  0.51100000000E-03 0. -1.
    9900012    2    1    2    0    0 -0.18672899426E+02  0.39128380317E+02  0.12223180869E+02  0.46142317967E+02  0.10000001878E+02 0.  0.
         12    1    1    2    0    0  0.18672899426E+02 -0.39128380317E+02 -0.12223180869E+02  0.45045682033E+02  0.00000000000E+00 0. -1.
         11    1    3    3    0    0 -0.55862545303E+01  0.88602874805E+01  0.61060136119E+01  0.12124122088E+02  0.51100000000E-03 0. -1.
        -11    1    3    3    0    0 -0.19674723695E+01  0.50119151469E+01 -0.10979728157E+01  0.54950692016E+01  0.51100000000E-03 0.  1.
        -12    1    3    3    0    0 -0.11119172527E+02  0.25256177690E+02  0.72151400730E+01  0.28523126677E+02  0.00000000000E+00 0.  1.
</event>
<event>
 7    1  0.2478637E-008  0.4614232E+02  0.7816164E-02  0.1320468E+00
        -11   -1    0    0    0    0  0.00000000000E+00  0.00000000000E+00  0.45593999997E+02  0.45594000000E+02  0.51100000000E-03 0. -1.
         11   -1    0    0    0    0 -0.00000000000E+00 -0.00000000000E+00 -0.45593999997E+02  0.45594000000E+02  0.51100000000E-03 0.  1.
    9900012    2    1    2    0    0  0.25216366607E+02  0.35012619977E+02 -0.12936953374E+02  0.46142318020E+02  0.10000002357E+02 0.  0.
         12    1    1    2    0    0 -0.25216366607E+02 -0.35012619977E+02  0.12936953374E+02  0.45045681980E+02  0.00000000000E+00 0. -1.
         11    1    3    3    0    0  0.52478385141E+01  0.13074988565E+02 -0.60223893857E+01  0.15322020402E+02  0.51100000000E-03 0. -1.
        -11    1    3    3    0    0  0.22807186121E+01  0.13961801973E+01  0.49259561548E+00  0.27191261891E+01  0.51100000000E-03 0.  1.
        -12    1    3    3    0    0  0.17687809481E+02  0.20541451215E+02 -0.74071596036E+01  0.28101171428E+02  0.00000000000E+00 0.  1.
</event>
<event>
 7    1  0.2478637E-008  0.4614232E+02  0.7816164E-02  0.1320468E+00
        -11   -1    0    0    0    0  0.00000000000E+00  0.00000000000E+00  0.45593999997E+02  0.45594000000E+02  0.51100000000E-03 0.  1.
         11   -1    0    0    0    0 -0.00000000000E+00 -0.00000000000E+00 -0.45593999997E+02  0.45594000000E+02  0.51100000000E-03 0. -1.
    9900012    2    1    2    0    0 -0.37604383132E+02  0.24458619740E+02  0.40987688215E+01  0.46142316343E+02  0.99999870649E+01 0.  0.
         12    1    1    2    0    0  0.37604383132E+02 -0.24458619740E+02 -0.40987688215E+01  0.45045683657E+02  0.00000000000E+00 0. -1.
         11    1    3    3    0    0 -0.11503791849E+02  0.42971973833E+01  0.39816203503E+01  0.12909548138E+02  0.51100000000E-03 0. -1.
        -11    1    3    3    0    0 -0.13223768202E+02  0.12294762491E+02 -0.11305854227E+01  0.18091640440E+02  0.51100000000E-03 0.  1.
        -12    1    3    3    0    0 -0.12876823081E+02  0.78666598659E+01  0.12477338939E+01  0.15141127764E+02  0.00000000000E+00 0.  1.
</event>
<event>
 7    1  0.2478637E-008  0.4614232E+02  0.7816164E-02  0.1320468E+00
        -11   -1    0    0    0    0  0.00000000000E+00  0.00000000000E+00  0.45593999997E+02  0.45594000000E+02  0.51100000000E-03 0.  1.
         11   -1    0    0    0    0 -0.00000000000E+00 -0.00000000000E+00 -0.45593999997E+02  0.45594000000E+02  0.51100000000E-03 0. -1.
    9900012    2    1    2    0    0 -0.23604291128E+02  0.36240073037E+02  0.12593969065E+02  0.46142317519E+02  0.99999977950E+01 0.  0.
         12    1    1    2    0    0  0.23604291128E+02 -0.36240073037E+02 -0.12593969065E+02  0.45045682481E+02  0.00000000000E+00 0. -1.
         11    1    3    3    0    0 -0.74338158199E+00  0.66149864376E+01  0.37351858897E+00  0.66670966802E+01  0.51100000000E-03 0. -1.
        -11    1    3    3    0    0 -0.73642045362E+01  0.73943820589E+01  0.32575400967E+01  0.10932518567E+02  0.51100000000E-03 0.  1.
        -12    1    3    3    0    0 -0.15496705010E+02  0.22230704540E+02  0.89629103790E+01  0.28542702272E+02  0.00000000000E+00 0.  1.
</event>
<event>
 7    1  0.2478637E-008  0.4614232E+02  0.7816164E-02  0.1320468E+00
        -11   -1    0    0    0    0  0.00000000000E+00  0.00000000000E+00  0.45593999997E+02  0.45594000000E+02  0.51100000000E-03 0.  1.
         11   -1    0    0    0    0 -0.00000000000E+00 -0.00000000000E+00 -0.45593999997E+02  0.45594000000E+02  0.51100000000E-03 0. -1.
    9900012    2    1    2    0    0  0.44501985914E+02  0.29098079406E+01  0.63419114900E+01  0.46142316811E+02  0.99999913399E+01 0.  0.
         12    1    1    2    0    0 -0.44501985914E+02 -0.29098079406E+01 -0.63419114900E+01  0.45045683189E+02  0.00000000000E+00 0. -1.
         11    1    3    3    0    0  0.21612297915E+02 -0.44575959784E+00  0.26068102231E+01  0.21773506438E+02  0.51100000000E-03 0.  1.
        -11    1    3    3    0    0  0.17270262511E+02  0.37421300556E+01  0.54302349653E+01  0.18486561513E+02  0.51100000000E-03 0. -1.
        -12    1    3    3    0    0  0.56194254881E+01 -0.38656251716E+00 -0.16951336984E+01  0.58822488600E+01  0.00000000000E+00 0.  1.
</event>
<event>
 7    1  0.2478637E-008  0.4614232E+02  0.7816164E-02  0.1320468E+00
        -11   -1    0    0    0    0  0.00000000000E+00  0.00000000000E+00  0.45593999997E+02  0.45594000000E+02  0.51100000000E-03 0.  1.
         11   -1    0    0    0    0 -0.00000000000E+00 -0.00000000000E+00 -0.45593999997E+02  0.45594000000E+02  0.51100000000E-03 0. -1.
    9900012    2    1    2    0    0  0.33981344407E+02 -0.28778112737E+02  0.67971991048E+01  0.46142318120E+02  0.10000003268E+02 0.  0.
         12    1    1    2    0    0 -0.33981344407E+02  0.28778112737E+02 -0.67971991048E+01  0.45045681880E+02  0.00000000000E+00 0. -1.
         11    1    3    3    0    0  0.18814138473E+01 -0.44573708837E+00 -0.11557038380E+01  0.22525654794E+01  0.51100000000E-03 0. -1.
        -11    1    3    3    0    0  0.17051258992E+02 -0.13839507041E+02  0.14509948699E+01  0.22008697706E+02  0.51100000000E-03 0.  1.
         12    1    3    3    0    0  0.15048671567E+02 -0.14492868608E+02  0.65019080729E+01  0.21881054934E+02  0.00000000000E+00 0. -1.
</event>
<event>
 7    1  0.2478637E-008  0.4614232E+02  0.7816164E-02  0.1320468E+00
        -11   -1    0    0    0    0  0.00000000000E+00  0.00000000000E+00  0.45593999997E+02  0.45594000000E+02  0.51100000000E-03 0.  1.
         11   -1    0    0    0    0 -0.00000000000E+00 -0.00000000000E+00 -0.45593999997E+02  0.45594000000E+02  0.51100000000E-03 0. -1.
    9900012    2    1    2    0    0 -0.22997034109E+02 -0.11441559634E+02  0.37004602854E+02  0.46142317664E+02  0.99999991183E+01 0.  0.
         12    1    1    2    0    0  0.22997034109E+02  0.11441559634E+02 -0.37004602854E+02  0.45045682336E+02  0.00000000000E+00 0. -1.
         11    1    3    3    0    0 -0.51785453283E+01 -0.36877803025E+01  0.48342407145E+01  0.79866725752E+01  0.51100000000E-03 0. -1.
        -11    1    3    3    0    0 -0.77944617046E+01 -0.14402688254E+01  0.18118209070E+02  0.19776185368E+02  0.51100000000E-03 0.  1.
        -12    1    3    3    0    0 -0.10024027076E+02 -0.63135105066E+01  0.14052153070E+02  0.18379459721E+02  0.00000000000E+00 0.  1.
</event>
<event>
 7    1  0.2478637E-008  0.4614232E+02  0.7816164E-02  0.1320468E+00
        -11   -1    0    0    0    0  0.00000000000E+00  0.00000000000E+00  0.45593999997E+02  0.45594000000E+02  0.51100000000E-03 0.  1.
         11   -1    0    0    0    0 -0.00000000000E+00 -0.00000000000E+00 -0.45593999997E+02  0.45594000000E+02  0.51100000000E-03 0. -1.
    9900012    2    1    2    0    0 -0.32724994516E+02  0.22196337109E+01  0.30874931017E+02  0.46142318685E+02  0.10000008422E+02 0.  0.
         12    1    1    2    0    0  0.32724994516E+02 -0.22196337109E+01 -0.30874931017E+02  0.45045681315E+02  0.00000000000E+00 0. -1.
         11    1    3    3    0    0 -0.73631895916E+01 -0.16674810259E+01  0.55062433626E+01  0.93442907790E+01  0.51100000000E-03 0. -1.
        -11    1    3    3    0    0 -0.74158319606E+01  0.38399788279E+01  0.53737526466E+01  0.99306202644E+01  0.51100000000E-03 0.  1.
        -12    1    3    3    0    0 -0.17945972964E+02  0.47135908939E-01  0.19994935008E+02  0.26867407641E+02  0.00000000000E+00 0.  1.
</event>
<event>
 7    1  0.2478637E-008  0.4614232E+02  0.7816164E-02  0.1320468E+00
        -11   -1    0    0    0    0  0.00000000000E+00  0.00000000000E+00  0.45593999997E+02  0.45594000000E+02  0.51100000000E-03 0.  1.
         11   -1    0    0    0    0 -0.00000000000E+00 -0.00000000000E+00 -0.45593999997E+02  0.45594000000E+02  0.51100000000E-03 0. -1.
    9900012    2    1    2    0    0 -0.16413019280E+01 -0.44989584370E+02  0.15352667843E+01  0.46142316323E+02  0.99999868872E+01 0.  0.
         12    1    1    2    0    0  0.16413019280E+01  0.44989584370E+02 -0.15352667843E+01  0.45045683677E+02  0.00000000000E+00 0. -1.
         11    1    3    3    0    0  0.25740059982E+01 -0.85623850977E+01  0.14494895782E+01  0.90576468102E+01  0.51100000000E-03 0. -1.
        -11    1    3    3    0    0  0.85047889490E+00 -0.14453586108E+02 -0.96061445249E+00  0.14510418537E+02  0.51100000000E-03 0.  1.
        -12    1    3    3    0    0 -0.50657868211E+01 -0.21973613165E+02  0.10463916586E+01  0.22574250976E+02  0.00000000000E+00 0.  1.
</event>
<event>
 7    1  0.2478637E-008  0.4614232E+02  0.7816164E-02  0.1320468E+00
        -11   -1    0    0    0    0  0.00000000000E+00  0.00000000000E+00  0.45593999997E+02  0.45594000000E+02  0.51100000000E-03 0. -1.
         11   -1    0    0    0    0 -0.00000000000E+00 -0.00000000000E+00 -0.45593999997E+02  0.45594000000E+02  0.51100000000E-03 0.  1.
    9900012    2    1    2    0    0  0.42252556564E+02  0.14527087615E+02 -0.57270109967E+01  0.46142318012E+02  0.10000002290E+02 0.  0.
         12    1    1    2    0    0 -0.42252556564E+02 -0.14527087615E+02  0.57270109967E+01  0.45045681988E+02  0.00000000000E+00 0. -1.
         11    1    3    3    0    0  0.11273017393E+02  0.33263285239E+01  0.52279864058E-02  0.11753527564E+02  0.51100000000E-03 0. -1.
        -11    1    3    3    0    0  0.42541090829E+01  0.39035069680E+00  0.17310303463E+01  0.46093691626E+01  0.51100000000E-03 0.  1.
        -12    1    3    3    0    0  0.26725430088E+02  0.10810408394E+02 -0.74632693294E+01  0.29779421286E+02  0.00000000000E+00 0.  1.
</event>
<event>
 7    1  0.2715910E-008  0.4614232E+02  0.7816164E-02  0.1320468E+00
        -11   -1    0    0    0    0  0.00000000000E+00  0.00000000000E+00  0.45593999997E+02  0.45594000000E+02  0.51100000000E-03 0. -1.
         11   -1    0    0    0    0 -0.00000000000E+00 -0.00000000000E+00 -0.45593999997E+02  0.45594000000E+02  0.51100000000E-03 0.  1.
    9900012    2    1    2    0    0  0.30826424673E+02  0.50400265658E+01 -0.32456790170E+02  0.46142317032E+02  0.99999933546E+01 0.  0.
         12    1    1    2    0    0 -0.30826424673E+02 -0.50400265658E+01  0.32456790170E+02  0.45045682968E+02  0.00000000000E+00 0. -1.
         11    1    3    3    0    0  0.42307312675E-02  0.21807476290E+00 -0.22443470321E+01  0.22549209216E+01  0.51100000000E-03 0. -1.
        -11    1    3    3    0    0  0.84805232681E+01  0.10576197150E+01 -0.46493029974E+01  0.97290211730E+01  0.51100000000E-03 0.  1.
        -12    1    3    3    0    0  0.22341670673E+02  0.37643320879E+01 -0.25563140141E+02  0.34158374938E+02  0.00000000000E+00 0.  1.
</event>
<event>
 7    1  0.2478637E-008  0.4614232E+02  0.7816164E-02  0.1320468E+00
        -11   -1    0    0    0    0  0.00000000000E+00  0.00000000000E+00  0.45593999997E+02  0.45594000000E+02  0.51100000000E-03 0.  1.
         11   -1    0    0    0    0 -0.00000000000E+00 -0.00000000000E+00 -0.45593999997E+02  0.45594000000E+02  0.51100000000E-03 0. -1.
    9900012    2    1    2    0    0  0.37991398117E+02  0.35917926915E+01  0.23934622706E+02  0.46142317968E+02  0.10000001891E+02 0.  0.
         12    1    1    2    0    0 -0.37991398117E+02 -0.35917926915E+01 -0.23934622706E+02  0.45045682032E+02  0.00000000000E+00 0. -1.
         11    1    3    3    0    0  0.69830360769E+01  0.29824376578E+01  0.60500619418E+01  0.97088092470E+01  0.51100000000E-03 0. -1.
        -11    1    3    3    0    0  0.46220185309E+00 -0.61530938674E+00  0.16474186375E+01  0.18183026763E+01  0.51100000000E-03 0.  1.
        -12    1    3    3    0    0  0.30546160187E+02  0.12246644204E+01  0.16237142126E+02  0.34615206045E+02  0.00000000000E+00 0.  1.
</event>
<event>
 7    1  0.2478637E-008  0.4614232E+02  0.7816164E-02  0.1320468E+00
        -11   -1    0    0    0    0  0.00000000000E+00  0.00000000000E+00  0.45593999997E+02  0.45594000000E+02  0.51100000000E-03 0. -1.
         11   -1    0    0    0    0 -0.00000000000E+00 -0.00000000000E+00 -0.45593999997E+02  0.45594000000E+02  0.51100000000E-03 0.  1.
    9900012    2    1    2    0    0 -0.35428643686E+02 -0.13138052468E+02 -0.24521753045E+02  0.46142316650E+02  0.99999898670E+01 0.  0.
         12    1    1    2    0    0  0.35428643686E+02  0.13138052468E+02  0.24521753045E+02  0.45045683350E+02  0.00000000000E+00 0. -1.
         11    1    3    3    0    0 -0.70953731009E+00  0.96967107705E+00 -0.62668853181E-01  0.12031761460E+01  0.51100000000E-03 0. -1.
        -11    1    3    3    0    0 -0.20478718293E+02 -0.10005876938E+02 -0.13309861060E+02  0.26394087935E+02  0.51100000000E-03 0.  1.
         12    1    3    3    0    0 -0.14240388082E+02 -0.41018466076E+01 -0.11149223133E+02  0.18545052569E+02  0.00000000000E+00 0. -1.
</event>
<event>
 7    1  0.2478637E-008  0.4614232E+02  0.7816164E-02  0.1320468E+00
        -11   -1    0    0    0    0  0.00000000000E+00  0.00000000000E+00  0.45593999997E+02  0.45594000000E+02  0.51100000000E-03 0.  1.
         11   -1    0    0    0    0 -0.00000000000E+00 -0.00000000000E+00 -0.45593999997E+02  0.45594000000E+02  0.51100000000E-03 0. -1.
    9900012    2    1    2    0    0  0.52592418319E+01 -0.21577104398E+02  0.39190337022E+02  0.46142316802E+02  0.99999912522E+01 0.  0.
         12    1    1    2    0    0 -0.52592418319E+01  0.21577104398E+02 -0.39190337022E+02  0.45045683198E+02  0.00000000000E+00 0. -1.
         11    1    3    3    0    0  0.26715740686E+01 -0.45606552130E+01  0.13379091693E+02  0.14385304264E+02  0.51100000000E-03 0. -1.
        -11    1    3    3    0    0 -0.19702252115E+01 -0.21519076885E+01  0.48334650083E+01  0.56457841202E+01  0.51100000000E-03 0.  1.
        -12    1    3    3    0    0  0.45578929748E+01 -0.14864541497E+02  0.20977780321E+02  0.26111228418E+02  0.00000000000E+00 0.  1.
</event>
<event>
 7    1  0.2478637E-008  0.4614232E+02  0.7816164E-02  0.1320468E+00
        -11   -1    0    0    0    0  0.00000000000E+00  0.00000000000E+00  0.45593999997E+02  0.45594000000E+02  0.51100000000E-03 0. -1.
         11   -1    0    0    0    0 -0.00000000000E+00 -0.00000000000E+00 -0.45593999997E+02  0.45594000000E+02  0.51100000000E-03 0.  1.
    9900012    2    1    2    0    0 -0.41260882249E+02 -0.81015687157E+01 -0.16156039833E+02  0.46142318268E+02  0.10000004624E+02 0.  0.
         12    1    1    2    0    0  0.41260882249E+02  0.81015687157E+01  0.16156039833E+02  0.45045681732E+02  0.00000000000E+00 0. -1.
         11    1    3    3    0    0 -0.91728814853E+01 -0.42413243890E+01 -0.54316339442E+01  0.11473152787E+02  0.51100000000E-03 0. -1.
        -11    1    3    3    0    0 -0.16090954487E+02 -0.29597397747E+01 -0.86684529491E+01  0.18515424721E+02  0.51100000000E-03 0.  1.
         12    1    3    3    0    0 -0.15997046277E+02 -0.90050455194E+00 -0.20559529394E+01  0.16153740760E+02  0.00000000000E+00 0. -1.
</event>
<event>
 7    1  0.2478637E-008  0.4614232E+02  0.7816164E-02  0.1320468E+00
        -11   -1    0    0    0    0  0.00000000000E+00  0.00000000000E+00  0.45593999997E+02  0.45594000000E+02  0.51100000000E-03 0. -1.
         11   -1    0    0    0    0 -0.00000000000E+00 -0.00000000000E+00 -0.45593999997E+02  0.45594000000E+02  0.51100000000E-03 0.  1.
    9900012    2    1    2    0    0 -0.21660252094E+02  0.37235811931E+02 -0.13169697802E+02  0.46142321504E+02  0.10000034135E+02 0.  0.
         12    1    1    2    0    0  0.21660252094E+02 -0.37235811931E+02  0.13169697802E+02  0.45045678496E+02  0.00000000000E+00 0. -1.
         11    1    3    3    0    0 -0.21590615257E+00  0.21961922659E+01 -0.26559284927E+01  0.34530902616E+01  0.51100000000E-03 0. -1.
        -11    1    3    3    0    0  0.25127260625E+00  0.33085790327E+00  0.44365587748E-01  0.41781986705E+00  0.51100000000E-03 0.  1.
        -12    1    3    3    0    0 -0.21695618547E+02  0.34708761762E+02 -0.10558134897E+02  0.42271411376E+02  0.00000000000E+00 0.  1.
</event>
<event>
 7    1  0.2478637E-008  0.4614232E+02  0.7816164E-02  0.1320468E+00
        -11   -1    0    0    0    0  0.00000000000E+00  0.00000000000E+00  0.45593999997E+02  0.45594000000E+02  0.51100000000E-03 0.  1.
         11   -1    0    0    0    0 -0.00000000000E+00 -0.00000000000E+00 -0.45593999997E+02  0.45594000000E+02  0.51100000000E-03 0. -1.
    9900012    2    1    2    0    0  0.33690157949E+02  0.12609044373E+02  0.27112704120E+02  0.46142317995E+02  0.10000002130E+02 0.  0.
         12    1    1    2    0    0 -0.33690157949E+02 -0.12609044373E+02 -0.27112704120E+02  0.45045682005E+02  0.00000000000E+00 0. -1.
         11    1    3    3    0    0  0.20899019571E+01 -0.12053590593E+01  0.30028360061E+01  0.38519611879E+01  0.51100000000E-03 0. -1.
        -11    1    3    3    0    0  0.34671869182E+01  0.51935435668E+00  0.35854318933E+01  0.50146222387E+01  0.51100000000E-03 0.  1.
        -12    1    3    3    0    0  0.28133069073E+02  0.13295049076E+02  0.20524436221E+02  0.37275734568E+02  0.00000000000E+00 0.  1.
</event>
<event>
 7    1  0.2478637E-008  0.4614232E+02  0.7816164E-02  0.1320468E+00
        -11   -1    0    0    0    0  0.00000000000E+00  0.00000000000E+00  0.45593999997E+02  0.45594000000E+02  0.51100000000E-03 0.  1.
         11   -1    0    0    0    0 -0.00000000000E+00 -0.00000000000E+00 -0.45593999997E+02  0.45594000000E+02  0.51100000000E-03 0. -1.
    9900012    2    1    2    0    0 -0.35361714739E+02 -0.26160454940E+01  0.27781628896E+02  0.46142317993E+02  0.10000002116E+02 0.  0.
         12    1    1    2    0    0  0.35361714739E+02  0.26160454940E+01 -0.27781628896E+02  0.45045682007E+02  0.00000000000E+00 0. -1.
         11    1    3    3    0    0 -0.19670624097E+01  0.62105001230E+00  0.22318061371E+01  0.30390782379E+01  0.51100000000E-03 0. -1.
        -11    1    3    3    0    0 -0.40841788045E+01  0.19528436829E+01  0.13019236601E+01  0.47105329247E+01  0.51100000000E-03 0.  1.
        -12    1    3    3    0    0 -0.29310473525E+02 -0.51899391892E+01  0.24247899099E+02  0.38392706831E+02  0.00000000000E+00 0.  1.
</event>
<event>
 7    1  0.2478637E-008  0.4614232E+02  0.7816164E-02  0.1320468E+00
        -11   -1    0    0    0    0  0.00000000000E+00  0.00000000000E+00  0.45593999997E+02  0.45594000000E+02  0.51100000000E-03 0.  1.
         11   -1    0    0    0    0 -0.00000000000E+00 -0.00000000000E+00 -0.45593999997E+02  0.45594000000E+02  0.51100000000E-03 0. -1.
    9900012    2    1    2    0    0  0.21581831156E+02 -0.79247902424E+01  0.38736748889E+02  0.46142318177E+02  0.10000003790E+02 0.  0.
         12    1    1    2    0    0 -0.21581831156E+02  0.79247902424E+01 -0.38736748889E+02  0.45045681823E+02  0.00000000000E+00 0. -1.
         11    1    3    3    0    0  0.91039330087E+01  0.93531126318E+00  0.14952872214E+02  0.17531251841E+02  0.51100000000E-03 0. -1.
        -11    1    3    3    0    0  0.61775486197E+01 -0.22038752908E+01  0.78512054672E+01  0.10230376376E+02  0.51100000000E-03 0.  1.
         12    1    3    3    0    0  0.63003495273E+01 -0.66562262148E+01  0.15932671208E+02  0.18380689960E+02  0.00000000000E+00 0. -1.
</event>
<event>
 7    1  0.2478637E-008  0.4614232E+02  0.7816164E-02  0.1320468E+00
        -11   -1    0    0    0    0  0.00000000000E+00  0.00000000000E+00  0.45593999997E+02  0.45594000000E+02  0.51100000000E-03 0.  1.
         11   -1    0    0    0    0 -0.00000000000E+00 -0.00000000000E+00 -0.45593999997E+02  0.45594000000E+02  0.51100000000E-03 0. -1.
    9900012    2    1    2    0    0 -0.32794439264E+01  0.44023512775E+02  0.89604035158E+01  0.46142320288E+02  0.10000023044E+02 0.  0.
         12    1    1    2    0    0  0.32794439264E+01 -0.44023512775E+02 -0.89604035158E+01  0.45045679712E+02  0.00000000000E+00 0. -1.
         11    1    3    3    0    0 -0.17822213210E+00  0.61786507699E+01  0.25736439069E+01  0.66956054010E+01  0.51100000000E-03 0. -1.
        -11    1    3    3    0    0  0.29634656745E+01  0.10417668403E+02  0.14786219899E+01  0.10931434811E+02  0.51100000000E-03 0.  1.
        -12    1    3    3    0    0 -0.60646874688E+01  0.27427193602E+02  0.49081376191E+01  0.28515280077E+02  0.00000000000E+00 0.  1.
</event>
<event>
 7    1  0.2478637E-008  0.4614232E+02  0.7816164E-02  0.1320468E+00
        -11   -1    0    0    0    0  0.00000000000E+00  0.00000000000E+00  0.45593999997E+02  0.45594000000E+02  0.51100000000E-03 0. -1.
         11   -1    0    0    0    0 -0.00000000000E+00 -0.00000000000E+00 -0.45593999997E+02  0.45594000000E+02  0.51100000000E-03 0.  1.
    9900012    2    1    2    0    0  0.20284873168E+02 -0.35244502100E+02  0.19376854590E+02  0.46142317615E+02  0.99999986647E+01 0.  0.
         12    1    1    2    0    0 -0.20284873168E+02  0.35244502100E+02 -0.19376854590E+02  0.45045682385E+02  0.00000000000E+00 0. -1.
         11    1    3    3    0    0  0.10542067361E+02 -0.10819137314E+02  0.83735988512E+01  0.17271539434E+02  0.51100000000E-03 0. -1.
        -11    1    3    3    0    0  0.88930224891E+01 -0.18801596950E+02  0.10065866720E+02  0.23106440010E+02  0.51100000000E-03 0.  1.
         12    1    3    3    0    0  0.84978331872E+00 -0.56237678365E+01  0.93738901915E+00  0.57643381703E+01  0.00000000000E+00 0. -1.
</event>
<event>
 7    1  0.2478637E-008  0.4614232E+02  0.7816164E-02  0.1320468E+00
        -11   -1    0    0    0    0  0.00000000000E+00  0.00000000000E+00  0.45593999997E+02  0.45594000000E+02  0.51100000000E-03 0.  1.
         11   -1    0    0    0    0 -0.00000000000E+00 -0.00000000000E+00 -0.45593999997E+02  0.45594000000E+02  0.51100000000E-03 0. -1.
    9900012    2    1    2    0    0 -0.23454473103E+02  0.36539528408E+02  0.11994319471E+02  0.46142321579E+02  0.10000034816E+02 0.  0.
         12    1    1    2    0    0  0.23454473103E+02 -0.36539528408E+02 -0.11994319471E+02  0.45045678421E+02  0.00000000000E+00 0. -1.
         11    1    3    3    0    0 -0.10880458495E+01  0.40455841881E+01 -0.16890359894E+00  0.41927465796E+01  0.51100000000E-03 0. -1.
        -11    1    3    3    0    0 -0.15711957183E+02  0.25786578552E+02  0.63517482256E+01  0.30857056530E+02  0.51100000000E-03 0.  1.
        -12    1    3    3    0    0 -0.66544700706E+01  0.67073656683E+01  0.58114748444E+01  0.11092518470E+02  0.00000000000E+00 0.  1.
</event>
<event>
 7    1  0.2478637E-008  0.4614232E+02  0.7816164E-02  0.1320468E+00
        -11   -1    0    0    0    0  0.00000000000E+00  0.00000000000E+00  0.45593999997E+02  0.45594000000E+02  0.51100000000E-03 0. -1.
         11   -1    0    0    0    0 -0.00000000000E+00 -0.00000000000E+00 -0.45593999997E+02  0.45594000000E+02  0.51100000000E-03 0.  1.
    9900012    2    1    2    0    0 -0.34247124537E+02  0.11376129859E+02  0.26959814433E+02  0.46142318033E+02  0.10000002476E+02 0.  0.
         12    1    1    2    0    0  0.34247124537E+02 -0.11376129859E+02 -0.26959814433E+02  0.45045681967E+02  0.00000000000E+00 0. -1.
         11    1    3    3    0    0 -0.93720482633E+01  0.56730426357E+01  0.93761345612E+01  0.14419798923E+02  0.51100000000E-03 0. -1.
        -11    1    3    3    0    0 -0.46310024147E+01  0.30480643248E+01  0.15349041103E+01  0.57526350816E+01  0.51100000000E-03 0.  1.
        -12    1    3    3    0    0 -0.20244073859E+02  0.26550228989E+01  0.16048775762E+02  0.25969884029E+02  0.00000000000E+00 0.  1.
</event>
<event>
 7    1  0.2478637E-008  0.4614232E+02  0.7816164E-02  0.1320468E+00
        -11   -1    0    0    0    0  0.00000000000E+00  0.00000000000E+00  0.45593999997E+02  0.45594000000E+02  0.51100000000E-03 0. -1.
         11   -1    0    0    0    0 -0.00000000000E+00 -0.00000000000E+00 -0.45593999997E+02  0.45594000000E+02  0.51100000000E-03 0.  1.
    9900012    2    1    2    0    0 -0.41289500435E+02  0.11073754252E+01  0.17973991468E+02  0.46142317679E+02  0.99999992482E+01 0.  0.
         12    1    1    2    0    0  0.41289500435E+02 -0.11073754252E+01 -0.17973991468E+02  0.45045682321E+02  0.00000000000E+00 0. -1.
         11    1    3    3    0    0 -0.85376583068E+01  0.16040487190E+01  0.64000192045E+01  0.10790033723E+02  0.51100000000E-03 0. -1.
        -11    1    3    3    0    0 -0.22458309315E+02 -0.26504926122E+01  0.99692647963E+01  0.24714105470E+02  0.51100000000E-03 0.  1.
        -12    1    3    3    0    0 -0.10293532813E+02  0.21538193184E+01  0.16047074675E+01  0.10638178486E+02  0.00000000000E+00 0.  1.
</event>
<event>
 7    1  0.2478637E-008  0.4614233E+02  0.7816164E-02  0.1320468E+00
        -11   -1    0    0    0    0  0.00000000000E+00  0.00000000000E+00  0.45593999997E+02  0.45594000000E+02  0.51100000000E-03 0. -1.
         11   -1    0    0    0    0 -0.00000000000E+00 -0.00000000000E+00 -0.45593999997E+02  0.45594000000E+02  0.51100000000E-03 0.  1.
    9900012    2    1    2    0    0 -0.22988782424E+02  0.42515885076E+01 -0.38503924411E+02  0.46142330760E+02  0.10000118537E+02 0.  0.
         12    1    1    2    0    0  0.22988782424E+02 -0.42515885076E+01  0.38503924411E+02  0.45045669240E+02  0.00000000000E+00 0. -1.
         11    1    3    3    0    0 -0.68816352917E+01 -0.20252330559E+01 -0.11085642626E+02  0.13204163961E+02  0.51100000000E-03 0. -1.
        -11    1    3    3    0    0 -0.11337229001E+00  0.15654403059E+01 -0.20670518287E+01  0.25954113645E+01  0.51100000000E-03 0.  1.
        -12    1    3    3    0    0 -0.15993774842E+02  0.47113812577E+01 -0.25351229957E+02  0.30342755435E+02  0.00000000000E+00 0.  1.
</event>
<event>
 7    1  0.2478637E-008  0.4614232E+02  0.7816164E-02  0.1320468E+00
        -11   -1    0    0    0    0  0.00000000000E+00  0.00000000000E+00  0.45593999997E+02  0.45594000000E+02  0.51100000000E-03 0.  1.
         11   -1    0    0    0    0 -0.00000000000E+00 -0.00000000000E+00 -0.45593999997E+02  0.45594000000E+02  0.51100000000E-03 0. -1.
    9900012    2    1    2    0    0 -0.34856592819E+02 -0.10951692870E+02  0.26347521413E+02  0.46142317363E+02  0.99999963673E+01 0.  0.
         12    1    1    2    0    0  0.34856592819E+02  0.10951692870E+02 -0.26347521413E+02  0.45045682637E+02  0.00000000000E+00 0. -1.
         11    1    3    3    0    0 -0.10034006232E+02 -0.55158092816E+01  0.11842019985E+02  0.16472366881E+02  0.51100000000E-03 0. -1.
        -11    1    3    3    0    0 -0.77195000962E+01 -0.11775854823E+01  0.20058344655E+01  0.80623049723E+01  0.51100000000E-03 0.  1.
        -12    1    3    3    0    0 -0.17103086491E+02 -0.42582981058E+01  0.12499666963E+02  0.21607645509E+02  0.00000000000E+00 0.  1.
</event>
<event>
 7    1  0.2478637E-008  0.4614232E+02  0.7816164E-02  0.1320468E+00
        -11   -1    0    0    0    0  0.00000000000E+00  0.00000000000E+00  0.45593999997E+02  0.45594000000E+02  0.51100000000E-03 0. -1.
         11   -1    0    0    0    0 -0.00000000000E+00 -0.00000000000E+00 -0.45593999997E+02  0.45594000000E+02  0.51100000000E-03 0.  1.
    9900012    2    1    2    0    0  0.25817994819E+02 -0.12360151855E+02 -0.34781767154E+02  0.46142317224E+02  0.99999951027E+01 0.  0.
         12    1    1    2    0    0 -0.25817994819E+02  0.12360151855E+02  0.34781767154E+02  0.45045682776E+02  0.00000000000E+00 0. -1.
         11    1    3    3    0    0  0.85919113108E+01 -0.99127676518E+00 -0.95998268581E+01  0.12921309746E+02  0.51100000000E-03 0. -1.
        -11    1    3    3    0    0  0.62832380137E+01 -0.42841446286E+01 -0.14476868760E+02  0.16352758315E+02  0.51100000000E-03 0.  1.
         12    1    3    3    0    0  0.10942845495E+02 -0.70847304611E+01 -0.10705071536E+02  0.16868249163E+02  0.00000000000E+00 0. -1.
</event>
<event>
 7    1  0.2478637E-008  0.4614232E+02  0.7816164E-02  0.1320468E+00
        -11   -1    0    0    0    0  0.00000000000E+00  0.00000000000E+00  0.45593999997E+02  0.45594000000E+02  0.51100000000E-03 0. -1.
         11   -1    0    0    0    0 -0.00000000000E+00 -0.00000000000E+00 -0.45593999997E+02  0.45594000000E+02  0.51100000000E-03 0.  1.
    9900012    2    1    2    0    0 -0.36662383608E+02 -0.23923633086E+02  0.10613346608E+02  0.46142315212E+02  0.99999767536E+01 0.  0.
         12    1    1    2    0    0  0.36662383608E+02  0.23923633086E+02 -0.10613346608E+02  0.45045684788E+02  0.00000000000E+00 0. -1.
         11    1    3    3    0    0 -0.96649214673E+01 -0.89706818807E+01  0.19192928125E+01  0.13325446542E+02  0.51100000000E-03 0. -1.
        -11    1    3    3    0    0 -0.22374996416E+02 -0.90602034395E+01  0.70640242061E+01  0.25152101090E+02  0.51100000000E-03 0.  1.
        -12    1    3    3    0    0 -0.46224657243E+01 -0.58927477653E+01  0.16300295896E+01  0.76647675803E+01  0.00000000000E+00 0.  1.
</event>
<event>
 7    1  0.2478637E-008  0.4614232E+02  0.7816164E-02  0.1320468E+00
        -11   -1    0    0    0    0  0.00000000000E+00  0.00000000000E+00  0.45593999997E+02  0.45594000000E+02  0.51100000000E-03 0. -1.
         11   -1    0    0    0    0 -0.00000000000E+00 -0.00000000000E+00 -0.45593999997E+02  0.45594000000E+02  0.51100000000E-03 0.  1.
    9900012    2    1    2    0    0 -0.20217905597E+02  0.30062650446E+02 -0.26769140007E+02  0.46142317462E+02  0.99999972727E+01 0.  0.
         12    1    1    2    0    0  0.20217905597E+02 -0.30062650446E+02  0.26769140007E+02  0.45045682538E+02  0.00000000000E+00 0. -1.
         11    1    3    3    0    0  0.30524486849E+00  0.32426002212E+00 -0.28205496759E+00  0.52713779749E+00  0.51100000000E-03 0. -1.
        -11    1    3    3    0    0 -0.17603260784E+01  0.76225713126E+01 -0.33327339727E+01  0.85034967696E+01  0.51100000000E-03 0.  1.
         12    1    3    3    0    0 -0.18762824387E+02  0.22115819111E+02 -0.23154351067E+02  0.37111682895E+02  0.00000000000E+00 0. -1.
</event>
<event>
 7    1  0.2478637E-008  0.4614232E+02  0.7816164E-02  0.1320468E+00
        -11   -1    0    0    0    0  0.00000000000E+00  0.00000000000E+00  0.45593999997E+02  0.45594000000E+02  0.51100000000E-03 0.  1.
         11   -1    0    0    0    0 -0.00000000000E+00 -0.00000000000E+00 -0.45593999997E+02  0.45594000000E+02  0.51100000000E-03 0. -1.
    9900012    2    1    2    0    0 -0.17812217633E+02  0.14196520548E+02  0.38862541727E+02  0.46142318274E+02  0.10000004679E+02 0.  0.
         12    1    1    2    0    0  0.17812217633E+02 -0.14196520548E+02 -0.38862541727E+02  0.45045681726E+02  0.00000000000E+00 0. -1.
         11    1    3    3    0    0 -0.11087956170E+01  0.53444216405E+01  0.91293771328E+01  0.10636625286E+02  0.51100000000E-03 0. -1.
        -11    1    3    3    0    0 -0.52606913808E+01  0.34694128751E+01  0.13748063625E+02  0.15123523174E+02  0.51100000000E-03 0.  1.
         12    1    3    3    0    0 -0.11442730635E+02  0.53826860326E+01  0.15985100969E+02  0.20382169813E+02  0.00000000000E+00 0. -1.
</event>
<event>
 7    1  0.2478637E-008  0.4614232E+02  0.7816164E-02  0.1320468E+00
        -11   -1    0    0    0    0  0.00000000000E+00  0.00000000000E+00  0.45593999997E+02  0.45594000000E+02  0.51100000000E-03 0. -1.
         11   -1    0    0    0    0 -0.00000000000E+00 -0.00000000000E+00 -0.45593999997E+02  0.45594000000E+02  0.51100000000E-03 0.  1.
    9900012    2    1    2    0    0 -0.20666435667E+02 -0.32595982277E+02 -0.23227438314E+02  0.46142317472E+02  0.99999973671E+01 0.  0.
         12    1    1    2    0    0  0.20666435667E+02  0.32595982277E+02  0.23227438314E+02  0.45045682528E+02  0.00000000000E+00 0. -1.
         11    1    3    3    0    0 -0.92395259970E+01 -0.13350039829E+02 -0.13810469995E+02  0.21314818456E+02  0.51100000000E-03 0. -1.
        -11    1    3    3    0    0 -0.20180000166E+01 -0.74125355633E+01 -0.46298092536E+01  0.89695675219E+01  0.51100000000E-03 0.  1.
        -12    1    3    3    0    0 -0.94089096529E+01 -0.11833406885E+02 -0.47871590654E+01  0.15857931494E+02  0.00000000000E+00 0.  1.
</event>
<event>
 7    1  0.2478637E-008  0.4614233E+02  0.7816164E-02  0.1320468E+00
        -11   -1    0    0    0    0  0.00000000000E+00  0.00000000000E+00  0.45593999997E+02  0.45594000000E+02  0.51100000000E-03 0. -1.
         11   -1    0    0    0    0 -0.00000000000E+00 -0.00000000000E+00 -0.45593999997E+02  0.45594000000E+02  0.51100000000E-03 0.  1.
    9900012    2    1    2    0    0  0.25391836226E+02  0.35778645722E+02 -0.10210579000E+02  0.46142325844E+02  0.10000073703E+02 0.  0.
         12    1    1    2    0    0 -0.25391836226E+02 -0.35778645722E+02  0.10210579000E+02  0.45045674156E+02  0.00000000000E+00 0. -1.
         11    1    3    3    0    0  0.10018332794E+02  0.17087374782E+02 -0.48424018407E+01  0.20391032949E+02  0.51100000000E-03 0. -1.
        -11    1    3    3    0    0  0.11840711009E+02  0.17646681864E+02 -0.58356661728E+01  0.22037758914E+02  0.51100000000E-03 0.  1.
         12    1    3    3    0    0  0.35327924234E+01  0.10445890769E+01  0.46748901302E+00  0.37135339804E+01  0.00000000000E+00 0. -1.
</event>
<event>
 7    1  0.2478637E-008  0.4614232E+02  0.7816164E-02  0.1320468E+00
        -11   -1    0    0    0    0  0.00000000000E+00  0.00000000000E+00  0.45593999997E+02  0.45594000000E+02  0.51100000000E-03 0.  1.
         11   -1    0    0    0    0 -0.00000000000E+00 -0.00000000000E+00 -0.45593999997E+02  0.45594000000E+02  0.51100000000E-03 0. -1.
    9900012    2    1    2    0    0 -0.59132910468E+01 -0.36459207775E+02  0.25785123491E+02  0.46142318342E+02  0.10000005299E+02 0.  0.
         12    1    1    2    0    0  0.59132910468E+01  0.36459207775E+02 -0.25785123491E+02  0.45045681658E+02  0.00000000000E+00 0. -1.
         11    1    3    3    0    0 -0.14541516146E+01 -0.23074111293E+02  0.19073233082E+02  0.29971943369E+02  0.51100000000E-03 0.  1.
        -11    1    3    3    0    0 -0.34415092004E+01 -0.46402163671E+01  0.37234051531E+01  0.68730880764E+01  0.51100000000E-03 0. -1.
         12    1    3    3    0    0 -0.10176302318E+01 -0.87448801148E+01  0.29884852561E+01  0.92972868965E+01  0.00000000000E+00 0. -1.
</event>
<event>
 7    1  0.2478637E-008  0.4614232E+02  0.7816164E-02  0.1320468E+00
        -11   -1    0    0    0    0  0.00000000000E+00  0.00000000000E+00  0.45593999997E+02  0.45594000000E+02  0.51100000000E-03 0.  1.
         11   -1    0    0    0    0 -0.00000000000E+00 -0.00000000000E+00 -0.45593999997E+02  0.45594000000E+02  0.51100000000E-03 0. -1.
    9900012    2    1    2    0    0  0.48748913531E+00  0.18895351300E+02  0.40888158335E+02  0.46142318315E+02  0.10000005055E+02 0.  0.
         12    1    1    2    0    0 -0.48748913531E+00 -0.18895351300E+02 -0.40888158335E+02  0.45045681685E+02  0.00000000000E+00 0. -1.
         11    1    3    3    0    0  0.15846474668E+01  0.66023186174E+01  0.19244689134E+02  0.20407346198E+02  0.51100000000E-03 0. -1.
        -11    1    3    3    0    0 -0.48644227473E+00  0.10624584700E+02  0.21457254041E+02  0.23948531842E+02  0.51100000000E-03 0.  1.
        -12    1    3    3    0    0 -0.61071605676E+00  0.16684479830E+01  0.18621515993E+00  0.17864402760E+01  0.00000000000E+00 0.  1.
</event>
<event>
 7    1  0.2478637E-008  0.4614232E+02  0.7816164E-02  0.1320468E+00
        -11   -1    0    0    0    0  0.00000000000E+00  0.00000000000E+00  0.45593999997E+02  0.45594000000E+02  0.51100000000E-03 0. -1.
         11   -1    0    0    0    0 -0.00000000000E+00 -0.00000000000E+00 -0.45593999997E+02  0.45594000000E+02  0.51100000000E-03 0.  1.
    9900012    2    1    2    0    0 -0.33444285489E+02 -0.25740657455E+02  0.15748393418E+02  0.46142316818E+02  0.99999914030E+01 0.  0.
         12    1    1    2    0    0  0.33444285489E+02  0.25740657455E+02 -0.15748393418E+02  0.45045683182E+02  0.00000000000E+00 0. -1.
         11    1    3    3    0    0 -0.56615237480E+01 -0.78255299322E+01  0.28399541127E+01  0.10067626805E+02  0.51100000000E-03 0.  1.
        -11    1    3    3    0    0 -0.54272919885E+01 -0.27959403737E+01  0.51672131564E+01  0.79983043807E+01  0.51100000000E-03 0. -1.
        -12    1    3    3    0    0 -0.22355469752E+02 -0.15119187149E+02  0.77412261491E+01  0.28076385632E+02  0.00000000000E+00 0.  1.
</event>
<event>
 7    1  0.2478637E-008  0.4614232E+02  0.7816164E-02  0.1320468E+00
        -11   -1    0    0    0    0  0.00000000000E+00  0.00000000000E+00  0.45593999997E+02  0.45594000000E+02  0.51100000000E-03 0.  1.
         11   -1    0    0    0    0 -0.00000000000E+00 -0.00000000000E+00 -0.45593999997E+02  0.45594000000E+02  0.51100000000E-03 0. -1.
    9900012    2    1    2    0    0  0.22552567826E+02 -0.15789258976E+02  0.35653814556E+02  0.46142317554E+02  0.99999981145E+01 0.  0.
         12    1    1    2    0    0 -0.22552567826E+02  0.15789258976E+02 -0.35653814556E+02  0.45045682446E+02  0.00000000000E+00 0. -1.
         11    1    3    3    0    0  0.10138097360E+02 -0.43416218693E+01  0.14589423773E+02  0.18288848647E+02  0.51100000000E-03 0.  1.
        -11    1    3    3    0    0  0.21441703318E+01 -0.12821303095E+01  0.79711668279E+01  0.83534918090E+01  0.51100000000E-03 0. -1.
        -12    1    3    3    0    0  0.10270300134E+02 -0.10165506797E+02  0.13093223956E+02  0.19499977099E+02  0.00000000000E+00 0.  1.
</event>
<event>
 7    1  0.2478637E-008  0.4614232E+02  0.7816164E-02  0.1320468E+00
        -11   -1    0    0    0    0  0.00000000000E+00  0.00000000000E+00  0.45593999997E+02  0.45594000000E+02  0.51100000000E-03 0. -1.
         11   -1    0    0    0    0 -0.00000000000E+00 -0.00000000000E+00 -0.45593999997E+02  0.45594000000E+02  0.51100000000E-03 0.  1.
    9900012    2    1    2    0    0 -0.16543704218E+01 -0.42808269670E+02 -0.13922233906E+02  0.46142317737E+02  0.99999997776E+01 0.  0.
         12    1    1    2    0    0  0.16543704218E+01  0.42808269670E+02  0.13922233906E+02  0.45045682263E+02  0.00000000000E+00 0. -1.
         11    1    3    3    0    0 -0.46530568293E+00 -0.32379192375E+01  0.12745698148E+01  0.35107205587E+01  0.51100000000E-03 0. -1.
        -11    1    3    3    0    0  0.43461857576E-01 -0.30957418342E+01 -0.25370965153E+01  0.40027947020E+01  0.51100000000E-03 0.  1.
        -12    1    3    3    0    0 -0.12325265964E+01 -0.36474608598E+02 -0.12659707205E+02  0.38628802476E+02  0.00000000000E+00 0.  1.
</event>
<event>
 7    1  0.2478637E-008  0.4614232E+02  0.7816164E-02  0.1320468E+00
        -11   -1    0    0    0    0  0.00000000000E+00  0.00000000000E+00  0.45593999997E+02  0.45594000000E+02  0.51100000000E-03 0.  1.
         11   -1    0    0    0    0 -0.00000000000E+00 -0.00000000000E+00 -0.45593999997E+02  0.45594000000E+02  0.51100000000E-03 0. -1.
    9900012    2    1    2    0    0 -0.40681172660E+02 -0.18369359260E+02  0.60599045438E+01  0.46142316392E+02  0.99999875197E+01 0.  0.
         12    1    1    2    0    0  0.40681172660E+02  0.18369359260E+02 -0.60599045438E+01  0.45045683608E+02  0.00000000000E+00 0. -1.
         11    1    3    3    0    0 -0.20812090845E+02 -0.11229843860E+02  0.17685580071E+00  0.23649181734E+02  0.51100000000E-03 0. -1.
        -11    1    3    3    0    0 -0.20619999687E+01 -0.42843806603E+00 -0.90049848484E+00  0.22904804800E+01  0.51100000000E-03 0.  1.
        -12    1    3    3    0    0 -0.17807081846E+02 -0.67110773340E+01  0.67835472280E+01  0.20202654178E+02  0.00000000000E+00 0.  1.
</event>
<event>
 7    1  0.2478637E-008  0.4614232E+02  0.7816164E-02  0.1320468E+00
        -11   -1    0    0    0    0  0.00000000000E+00  0.00000000000E+00  0.45593999997E+02  0.45594000000E+02  0.51100000000E-03 0. -1.
         11   -1    0    0    0    0 -0.00000000000E+00 -0.00000000000E+00 -0.45593999997E+02  0.45594000000E+02  0.51100000000E-03 0.  1.
    9900012    2    1    2    0    0 -0.31016144952E+02 -0.12664508515E+02 -0.30111832515E+02  0.46142317843E+02  0.10000000745E+02 0.  0.
         12    1    1    2    0    0  0.31016144952E+02  0.12664508515E+02  0.30111832515E+02  0.45045682157E+02  0.00000000000E+00 0. -1.
         11    1    3    3    0    0 -0.42405180730E+01 -0.27446891156E+01 -0.34873696551E+01  0.61381641588E+01  0.51100000000E-03 0. -1.
        -11    1    3    3    0    0 -0.41796917455E+01 -0.53057961152E+01 -0.51741184841E+01  0.85083957273E+01  0.51100000000E-03 0.  1.
        -12    1    3    3    0    0 -0.22595935134E+02 -0.46140232838E+01 -0.21450344375E+02  0.31495757957E+02  0.00000000000E+00 0.  1.
</event>
<event>
 7    1  0.2478637E-008  0.4614232E+02  0.7816164E-02  0.1320468E+00
        -11   -1    0    0    0    0  0.00000000000E+00  0.00000000000E+00  0.45593999997E+02  0.45594000000E+02  0.51100000000E-03 0. -1.
         11   -1    0    0    0    0 -0.00000000000E+00 -0.00000000000E+00 -0.45593999997E+02  0.45594000000E+02  0.51100000000E-03 0.  1.
    9900012    2    1    2    0    0 -0.94360990349E+01  0.39770800374E-01 -0.44046247487E+02  0.46142318027E+02  0.10000002424E+02 0.  0.
         12    1    1    2    0    0  0.94360990349E+01 -0.39770800374E-01  0.44046247487E+02  0.45045681973E+02  0.00000000000E+00 0. -1.
         11    1    3    3    0    0 -0.60968876600E+01 -0.19439266130E+01 -0.14140302392E+02  0.15520922712E+02  0.51100000000E-03 0.  1.
        -11    1    3    3    0    0  0.10848108836E+01 -0.72641656196E+00 -0.42447807219E+01  0.44410200757E+01  0.51100000000E-03 0. -1.
         12    1    3    3    0    0 -0.44240222585E+01  0.27101139754E+01 -0.25661164373E+02  0.26180375239E+02  0.00000000000E+00 0. -1.
</event>
<event>
 7    1  0.2478637E-008  0.4614231E+02  0.7816164E-02  0.1320468E+00
        -11   -1    0    0    0    0  0.00000000000E+00  0.00000000000E+00  0.45593999997E+02  0.45594000000E+02  0.51100000000E-03 0. -1.
         11   -1    0    0    0    0 -0.00000000000E+00 -0.00000000000E+00 -0.45593999997E+02  0.45594000000E+02  0.51100000000E-03 0.  1.
    9900012    2    1    2    0    0  0.36105269992E+02  0.10137773514E+02 -0.24954936966E+02  0.46142313725E+02  0.99999631987E+01 0.  0.
         12    1    1    2    0    0 -0.36105269992E+02 -0.10137773514E+02  0.24954936966E+02  0.45045686275E+02  0.00000000000E+00 0. -1.
         11    1    3    3    0    0  0.23855473825E+01 -0.11605351637E+01 -0.77824016893E+00  0.27646584242E+01  0.51100000000E-03 0. -1.
        -11    1    3    3    0    0  0.11795737245E+02  0.11549748375E+01 -0.75719512095E+01  0.14064417137E+02  0.51100000000E-03 0.  1.
         12    1    3    3    0    0  0.21923985364E+02  0.10143333840E+02 -0.16604745587E+02  0.29313238164E+02  0.00000000000E+00 0. -1.
</event>
<event>
 7    1  0.2478637E-008  0.4614232E+02  0.7816164E-02  0.1320468E+00
        -11   -1    0    0    0    0  0.00000000000E+00  0.00000000000E+00  0.45593999997E+02  0.45594000000E+02  0.51100000000E-03 0.  1.
         11   -1    0    0    0    0 -0.00000000000E+00 -0.00000000000E+00 -0.45593999997E+02  0.45594000000E+02  0.51100000000E-03 0. -1.
    9900012    2    1    2    0    0  0.76514807284E+01 -0.27849901765E+02  0.34568065847E+02  0.46142319163E+02  0.10000012779E+02 0.  0.
         12    1    1    2    0    0 -0.76514807284E+01  0.27849901765E+02 -0.34568065847E+02  0.45045680837E+02  0.00000000000E+00 0. -1.
         11    1    3    3    0    0 -0.97232505998E+00 -0.19475117219E+01  0.29729126457E+01  0.36846204403E+01  0.51100000000E-03 0. -1.
        -11    1    3    3    0    0 -0.99179819664E+00 -0.77592282867E+01  0.83317846177E+01  0.11428382320E+02  0.51100000000E-03 0.  1.
         12    1    3    3    0    0  0.96156039850E+01 -0.18143161757E+02  0.23263368584E+02  0.31029316403E+02  0.00000000000E+00 0. -1.
</event>
<event>
 7    1  0.2478637E-008  0.4614232E+02  0.7816164E-02  0.1320468E+00
        -11   -1    0    0    0    0  0.00000000000E+00  0.00000000000E+00  0.45593999997E+02  0.45594000000E+02  0.51100000000E-03 0.  1.
         11   -1    0    0    0    0 -0.00000000000E+00 -0.00000000000E+00 -0.45593999997E+02  0.45594000000E+02  0.51100000000E-03 0. -1.
    9900012    2    1    2    0    0 -0.12069333533E+02 -0.23379396269E+02  0.36562940250E+02  0.46142316727E+02  0.99999905679E+01 0.  0.
         12    1    1    2    0    0  0.12069333533E+02  0.23379396269E+02 -0.36562940250E+02  0.45045683273E+02  0.00000000000E+00 0. -1.
         11    1    3    3    0    0 -0.26524852338E+01 -0.67254100618E+01  0.14319928937E+02  0.16041420867E+02  0.51100000000E-03 0. -1.
        -11    1    3    3    0    0 -0.84813860511E+01 -0.15979844661E+02  0.17322627694E+02  0.25047210927E+02  0.51100000000E-03 0.  1.
         12    1    3    3    0    0 -0.93546224851E+00 -0.67414154616E+00  0.49203836183E+01  0.50536849322E+01  0.00000000000E+00 0. -1.
</event>
<event>
 7    1  0.2478637E-008  0.4614232E+02  0.7816164E-02  0.1320468E+00
        -11   -1    0    0    0    0  0.00000000000E+00  0.00000000000E+00  0.45593999997E+02  0.45594000000E+02  0.51100000000E-03 0.  1.
         11   -1    0    0    0    0 -0.00000000000E+00 -0.00000000000E+00 -0.45593999997E+02  0.45594000000E+02  0.51100000000E-03 0. -1.
    9900012    2    1    2    0    0  0.31903544954E+02  0.13916448505E+02  0.28593875751E+02  0.46142318187E+02  0.10000003881E+02 0.  0.
         12    1    1    2    0    0 -0.31903544954E+02 -0.13916448505E+02 -0.28593875751E+02  0.45045681813E+02  0.00000000000E+00 0. -1.
         11    1    3    3    0    0  0.35949181052E+01 -0.11407291261E+01  0.46692848858E+01  0.60022429747E+01  0.51100000000E-03 0. -1.
        -11    1    3    3    0    0  0.17760011006E+02  0.91940127118E+01  0.12931932971E+02  0.23815598907E+02  0.51100000000E-03 0.  1.
         12    1    3    3    0    0  0.10548615842E+02  0.58631649190E+01  0.10992657894E+02  0.16324476305E+02  0.00000000000E+00 0. -1.
</event>
<event>
 7    1  0.2478637E-008  0.4614232E+02  0.7816164E-02  0.1320468E+00
        -11   -1    0    0    0    0  0.00000000000E+00  0.00000000000E+00  0.45593999997E+02  0.45594000000E+02  0.51100000000E-03 0.  1.
         11   -1    0    0    0    0 -0.00000000000E+00 -0.00000000000E+00 -0.45593999997E+02  0.45594000000E+02  0.51100000000E-03 0. -1.
    9900012    2    1    2    0    0 -0.41847632178E+02  0.12289418614E+02  0.11263192903E+02  0.46142316043E+02  0.99999843350E+01 0.  0.
         12    1    1    2    0    0  0.41847632178E+02 -0.12289418614E+02 -0.11263192903E+02  0.45045683957E+02  0.00000000000E+00 0. -1.
         11    1    3    3    0    0 -0.61153125278E+01 -0.77959234261E+00  0.29634714578E+01  0.68401005018E+01  0.51100000000E-03 0.  1.
        -11    1    3    3    0    0 -0.13745717522E+02  0.65678373042E+01  0.55347310597E+01  0.16208469552E+02  0.51100000000E-03 0. -1.
        -12    1    3    3    0    0 -0.21986602128E+02  0.65011736524E+01  0.27649903852E+01  0.23093745989E+02  0.00000000000E+00 0.  1.
</event>
<event>
 7    1  0.2478637E-008  0.4614232E+02  0.7816164E-02  0.1320468E+00
        -11   -1    0    0    0    0  0.00000000000E+00  0.00000000000E+00  0.45593999997E+02  0.45594000000E+02  0.51100000000E-03 0.  1.
         11   -1    0    0    0    0 -0.00000000000E+00 -0.00000000000E+00 -0.45593999997E+02  0.45594000000E+02  0.51100000000E-03 0. -1.
    9900012    2    1    2    0    0  0.18445060064E+02 -0.40252523819E+02  0.82841752826E+01  0.46142317913E+02  0.10000001390E+02 0.  0.
         12    1    1    2    0    0 -0.18445060064E+02  0.40252523819E+02 -0.82841752826E+01  0.45045682087E+02  0.00000000000E+00 0. -1.
         11    1    3    3    0    0  0.32250800628E+01 -0.13324860711E+02  0.44679002151E+01  0.14419264440E+02  0.51100000000E-03 0. -1.
        -11    1    3    3    0    0  0.17915265872E+01 -0.36364322645E+01  0.25890486126E+01  0.48100291170E+01  0.51100000000E-03 0.  1.
         12    1    3    3    0    0  0.13428453414E+02 -0.23291230843E+02  0.12272264548E+01  0.26913024357E+02  0.00000000000E+00 0. -1.
</event>
<event>
 7    1  0.2478637E-008  0.4614232E+02  0.7816164E-02  0.1320468E+00
        -11   -1    0    0    0    0  0.00000000000E+00  0.00000000000E+00  0.45593999997E+02  0.45594000000E+02  0.51100000000E-03 0.  1.
         11   -1    0    0    0    0 -0.00000000000E+00 -0.00000000000E+00 -0.45593999997E+02  0.45594000000E+02  0.51100000000E-03 0. -1.
    9900012    2    1    2    0    0  0.52534609135E+01 -0.13423316129E+02  0.42677033973E+02  0.46142317674E+02  0.99999992044E+01 0.  0.
         12    1    1    2    0    0 -0.52534609135E+01  0.13423316129E+02 -0.42677033973E+02  0.45045682326E+02  0.00000000000E+00 0. -1.
         11    1    3    3    0    0  0.68284362017E+01 -0.78619401785E+01  0.20805324517E+02  0.23265837033E+02  0.51100000000E-03 0.  1.
        -11    1    3    3    0    0 -0.13924121586E+01 -0.25698735642E+01  0.54576245288E+01  0.61910199091E+01  0.51100000000E-03 0. -1.
        -12    1    3    3    0    0 -0.18256312958E+00 -0.29915023865E+01  0.16414084928E+02  0.16685460732E+02  0.00000000000E+00 0.  1.
</event>
<event>
 7    1  0.2478637E-008  0.4614232E+02  0.7816164E-02  0.1320468E+00
        -11   -1    0    0    0    0  0.00000000000E+00  0.00000000000E+00  0.45593999997E+02  0.45594000000E+02  0.51100000000E-03 0.  1.
         11   -1    0    0    0    0 -0.00000000000E+00 -0.00000000000E+00 -0.45593999997E+02  0.45594000000E+02  0.51100000000E-03 0. -1.
    9900012    2    1    2    0    0 -0.32277173114E+02 -0.31051554467E+02 -0.48060647729E+01  0.46142320987E+02  0.10000029421E+02 0.  0.
         12    1    1    2    0    0  0.32277173114E+02  0.31051554467E+02  0.48060647729E+01  0.45045679013E+02  0.00000000000E+00 0. -1.
         11    1    3    3    0    0 -0.10723241753E+02 -0.81004853348E+01  0.22491138541E+00  0.13440846765E+02  0.51100000000E-03 0.  1.
        -11    1    3    3    0    0 -0.40116383819E+01 -0.71301123289E+01  0.12050914336E+01  0.82694612856E+01  0.51100000000E-03 0. -1.
        -12    1    3    3    0    0 -0.17542292979E+02 -0.15820956804E+02 -0.62360675920E+01  0.24432012937E+02  0.00000000000E+00 0.  1.
</event>
<event>
 7    1  0.2478637E-008  0.4614232E+02  0.7816164E-02  0.1320468E+00
        -11   -1    0    0    0    0  0.00000000000E+00  0.00000000000E+00  0.45593999997E+02  0.45594000000E+02  0.51100000000E-03 0.  1.
         11   -1    0    0    0    0 -0.00000000000E+00 -0.00000000000E+00 -0.45593999997E+02  0.45594000000E+02  0.51100000000E-03 0. -1.
    9900012    2    1    2    0    0 -0.17717380136E+02 -0.37668406884E+02  0.17213339230E+02  0.46142317815E+02  0.10000000488E+02 0.  0.
         12    1    1    2    0    0  0.17717380136E+02  0.37668406884E+02 -0.17213339230E+02  0.45045682185E+02  0.00000000000E+00 0. -1.
         11    1    3    3    0    0 -0.72888627415E+01 -0.71825077104E+01  0.49812673111E+01  0.11381079095E+02  0.51100000000E-03 0. -1.
        -11    1    3    3    0    0 -0.24013521912E+01 -0.12605943421E+02  0.62205110573E+01  0.14260822556E+02  0.51100000000E-03 0.  1.
         12    1    3    3    0    0 -0.80271652031E+01 -0.17879955753E+02  0.60115608619E+01  0.20500416164E+02  0.00000000000E+00 0. -1.
</event>
<event>
 7    1  0.2478637E-008  0.4614232E+02  0.7816164E-02  0.1320468E+00
        -11   -1    0    0    0    0  0.00000000000E+00  0.00000000000E+00  0.45593999997E+02  0.45594000000E+02  0.51100000000E-03 0.  1.
         11   -1    0    0    0    0 -0.00000000000E+00 -0.00000000000E+00 -0.45593999997E+02  0.45594000000E+02  0.51100000000E-03 0. -1.
    9900012    2    1    2    0    0 -0.36112200673E+02  0.65342335444E+00  0.26918311806E+02  0.46142317521E+02  0.99999978081E+01 0.  0.
         12    1    1    2    0    0  0.36112200673E+02 -0.65342335444E+00 -0.26918311806E+02  0.45045682479E+02  0.00000000000E+00 0. -1.
         11    1    3    3    0    0 -0.17767252565E+02  0.32436926916E+01  0.11846786011E+02  0.21599609835E+02  0.51100000000E-03 0. -1.
        -11    1    3    3    0    0 -0.84247339721E+01  0.15900033859E+01  0.59900475688E+01  0.10458724750E+02  0.51100000000E-03 0.  1.
        -12    1    3    3    0    0 -0.99202141366E+01 -0.41802727230E+01  0.90814782256E+01  0.14083982935E+02  0.00000000000E+00 0.  1.
</event>
<event>
 7    1  0.2478637E-008  0.4614232E+02  0.7816164E-02  0.1320468E+00
        -11   -1    0    0    0    0  0.00000000000E+00  0.00000000000E+00  0.45593999997E+02  0.45594000000E+02  0.51100000000E-03 0. -1.
         11   -1    0    0    0    0 -0.00000000000E+00 -0.00000000000E+00 -0.45593999997E+02  0.45594000000E+02  0.51100000000E-03 0.  1.
    9900012    2    1    2    0    0  0.56277633122E+00  0.37076411899E+02 -0.25576091571E+02  0.46142317670E+02  0.99999991720E+01 0.  0.
         12    1    1    2    0    0 -0.56277633122E+00 -0.37076411899E+02  0.25576091571E+02  0.45045682330E+02  0.00000000000E+00 0. -1.
         11    1    3    3    0    0  0.32887766599E+00 -0.49712196998E+00 -0.11983010492E+00  0.60798872308E+00  0.51100000000E-03 0. -1.
        -11    1    3    3    0    0  0.16500664391E+01  0.11347029947E+02 -0.84694610848E+01  0.14255159739E+02  0.51100000000E-03 0.  1.
         12    1    3    3    0    0 -0.14161677738E+01  0.26226503922E+02 -0.16986800382E+02  0.31279169208E+02  0.00000000000E+00 0. -1.
</event>
<event>
 7    1  0.2478637E-008  0.4614232E+02  0.7816164E-02  0.1320468E+00
        -11   -1    0    0    0    0  0.00000000000E+00  0.00000000000E+00  0.45593999997E+02  0.45594000000E+02  0.51100000000E-03 0. -1.
         11   -1    0    0    0    0 -0.00000000000E+00 -0.00000000000E+00 -0.45593999997E+02  0.45594000000E+02  0.51100000000E-03 0.  1.
    9900012    2    1    2    0    0  0.37104780759E+02  0.20207178037E+02  0.15621094762E+02  0.46142318731E+02  0.10000008845E+02 0.  0.
         12    1    1    2    0    0 -0.37104780759E+02 -0.20207178037E+02 -0.15621094762E+02  0.45045681269E+02  0.00000000000E+00 0. -1.
         11    1    3    3    0    0  0.40180907643E+01  0.36999177568E+01  0.47494944160E+00  0.54827020738E+01  0.51100000000E-03 0. -1.
        -11    1    3    3    0    0  0.18877408059E+02  0.71624725526E+01  0.48007138077E+01  0.20753419030E+02  0.51100000000E-03 0.  1.
         12    1    3    3    0    0  0.14209281936E+02  0.93447877280E+01  0.10345431513E+02  0.19906197628E+02  0.00000000000E+00 0. -1.
</event>
<event>
 7    1  0.2478637E-008  0.4614232E+02  0.7816164E-02  0.1320468E+00
        -11   -1    0    0    0    0  0.00000000000E+00  0.00000000000E+00  0.45593999997E+02  0.45594000000E+02  0.51100000000E-03 0.  1.
         11   -1    0    0    0    0 -0.00000000000E+00 -0.00000000000E+00 -0.45593999997E+02  0.45594000000E+02  0.51100000000E-03 0. -1.
    9900012    2    1    2    0    0 -0.32528734716E+02 -0.28574682929E+02  0.12429102643E+02  0.46142315643E+02  0.99999806816E+01 0.  0.
         12    1    1    2    0    0  0.32528734716E+02  0.28574682929E+02 -0.12429102643E+02  0.45045684357E+02  0.00000000000E+00 0. -1.
         11    1    3    3    0    0 -0.50331001484E+01 -0.38479042813E+01  0.49866556046E+01  0.80625801603E+01  0.51100000000E-03 0. -1.
        -11    1    3    3    0    0 -0.20494667602E+02 -0.17114964504E+02  0.75117008102E+01  0.27737683022E+02  0.51100000000E-03 0.  1.
         12    1    3    3    0    0 -0.70009669649E+01 -0.76118141445E+01 -0.69253771331E-01  0.10342052461E+02  0.00000000000E+00 0. -1.
</event>
<event>
 7    1  0.2478637E-008  0.4614232E+02  0.7816164E-02  0.1320468E+00
        -11   -1    0    0    0    0  0.00000000000E+00  0.00000000000E+00  0.45593999997E+02  0.45594000000E+02  0.51100000000E-03 0.  1.
         11   -1    0    0    0    0 -0.00000000000E+00 -0.00000000000E+00 -0.45593999997E+02  0.45594000000E+02  0.51100000000E-03 0. -1.
    9900012    2    1    2    0    0 -0.29298260696E+02  0.51406231464E+01  0.33827493821E+02  0.46142318471E+02  0.10000006478E+02 0.  0.
         12    1    1    2    0    0  0.29298260696E+02 -0.51406231464E+01 -0.33827493821E+02  0.45045681529E+02  0.00000000000E+00 0. -1.
         11    1    3    3    0    0 -0.43418116566E+01 -0.27074911610E+01  0.67044035244E+01  0.84339115319E+01  0.51100000000E-03 0. -1.
        -11    1    3    3    0    0 -0.12040815260E+02  0.42973503845E+01  0.13926308983E+02  0.18904775445E+02  0.51100000000E-03 0.  1.
         12    1    3    3    0    0 -0.12915633780E+02  0.35507639230E+01  0.13196781313E+02  0.18803631495E+02  0.00000000000E+00 0. -1.
</event>
<event>
 7    1  0.2478637E-008  0.4614232E+02  0.7816164E-02  0.1320468E+00
        -11   -1    0    0    0    0  0.00000000000E+00  0.00000000000E+00  0.45593999997E+02  0.45594000000E+02  0.51100000000E-03 0.  1.
         11   -1    0    0    0    0 -0.00000000000E+00 -0.00000000000E+00 -0.45593999997E+02  0.45594000000E+02  0.51100000000E-03 0. -1.
    9900012    2    1    2    0    0  0.43182928110E+02 -0.10729718107E+02 -0.70157934344E+01  0.46142317762E+02  0.10000000004E+02 0.  0.
         12    1    1    2    0    0 -0.43182928110E+02  0.10729718107E+02  0.70157934344E+01  0.45045682238E+02  0.00000000000E+00 0. -1.
         11    1    3    3    0    0  0.28592633250E+01 -0.29392333169E+01 -0.20105706422E+01  0.45669326490E+01  0.51100000000E-03 0. -1.
        -11    1    3    3    0    0  0.10881821227E+02 -0.16297229764E+01  0.41692453447E+00  0.11011078808E+02  0.51100000000E-03 0.  1.
         12    1    3    3    0    0  0.29441843558E+02 -0.61607618137E+01 -0.54221473267E+01  0.30564306305E+02  0.00000000000E+00 0. -1.
</event>
<event>
 7    1  0.2478637E-008  0.4614232E+02  0.7816164E-02  0.1320468E+00
        -11   -1    0    0    0    0  0.00000000000E+00  0.00000000000E+00  0.45593999997E+02  0.45594000000E+02  0.51100000000E-03 0.  1.
         11   -1    0    0    0    0 -0.00000000000E+00 -0.00000000000E+00 -0.45593999997E+02  0.45594000000E+02  0.51100000000E-03 0. -1.
    9900012    2    1    2    0    0  0.85244569241E+01 -0.59600445343E+01  0.43828355720E+02  0.46142320276E+02  0.10000022934E+02 0.  0.
         12    1    1    2    0    0 -0.85244569241E+01  0.59600445343E+01 -0.43828355720E+02  0.45045679724E+02  0.00000000000E+00 0. -1.
         11    1    3    3    0    0  0.10744294396E+01 -0.46062328891E+01  0.14569986708E+02  0.15318495128E+02  0.51100000000E-03 0. -1.
        -11    1    3    3    0    0  0.36549640824E+01  0.13917886213E+01  0.20711774137E+02  0.21077794623E+02  0.51100000000E-03 0.  1.
         12    1    3    3    0    0  0.37950634021E+01 -0.27456002665E+01  0.85465948754E+01  0.97460305259E+01  0.00000000000E+00 0. -1.
</event>
<event>
 7    1  0.2478637E-008  0.4614232E+02  0.7816164E-02  0.1320468E+00
        -11   -1    0    0    0    0  0.00000000000E+00  0.00000000000E+00  0.45593999997E+02  0.45594000000E+02  0.51100000000E-03 0.  1.
         11   -1    0    0    0    0 -0.00000000000E+00 -0.00000000000E+00 -0.45593999997E+02  0.45594000000E+02  0.51100000000E-03 0. -1.
    9900012    2    1    2    0    0 -0.30754620924E+02 -0.18557681294E+02  0.27182331414E+02  0.46142318916E+02  0.10000010532E+02 0.  0.
         12    1    1    2    0    0  0.30754620924E+02  0.18557681294E+02 -0.27182331414E+02  0.45045681084E+02  0.00000000000E+00 0. -1.
         11    1    3    3    0    0 -0.68981112128E+01 -0.56259835358E+01  0.96318633683E+01  0.13115198102E+02  0.51100000000E-03 0. -1.
        -11    1    3    3    0    0 -0.12621727224E+02 -0.75694133221E+01  0.13402018060E+02  0.19905228070E+02  0.51100000000E-03 0.  1.
         12    1    3    3    0    0 -0.11234782487E+02 -0.53622844362E+01  0.41484499853E+01  0.13121892744E+02  0.00000000000E+00 0. -1.
</event>
<event>
 7    1  0.2539721E-008  0.4614232E+02  0.7816164E-02  0.1320468E+00
        -11   -1    0    0    0    0  0.00000000000E+00  0.00000000000E+00  0.45593999997E+02  0.45594000000E+02  0.51100000000E-03 0.  1.
         11   -1    0    0    0    0 -0.00000000000E+00 -0.00000000000E+00 -0.45593999997E+02  0.45594000000E+02  0.51100000000E-03 0. -1.
    9900012    2    1    2    0    0  0.19054411309E+02 -0.30415628452E+02 -0.27220075117E+02  0.46142317257E+02  0.99999954017E+01 0.  0.
         12    1    1    2    0    0 -0.19054411309E+02  0.30415628452E+02  0.27220075117E+02  0.45045682743E+02  0.00000000000E+00 0. -1.
         11    1    3    3    0    0  0.95062901099E+00 -0.98126163285E+00  0.38849782239E+00  0.14203875273E+01  0.51100000000E-03 0. -1.
        -11    1    3    3    0    0  0.69440614471E+01 -0.60271942328E+01 -0.61355005067E+01  0.11054023088E+02  0.51100000000E-03 0.  1.
        -12    1    3    3    0    0  0.11159720851E+02 -0.23407172586E+02 -0.21473072432E+02  0.33667906642E+02  0.00000000000E+00 0.  1.
</event>
<event>
 7    1  0.2478637E-008  0.4614232E+02  0.7816164E-02  0.1320468E+00
        -11   -1    0    0    0    0  0.00000000000E+00  0.00000000000E+00  0.45593999997E+02  0.45594000000E+02  0.51100000000E-03 0. -1.
         11   -1    0    0    0    0 -0.00000000000E+00 -0.00000000000E+00 -0.45593999997E+02  0.45594000000E+02  0.51100000000E-03 0.  1.
    9900012    2    1    2    0    0  0.13938749281E+02 -0.32587036375E+02 -0.27801255607E+02  0.46142317803E+02  0.10000000386E+02 0.  0.
         12    1    1    2    0    0 -0.13938749281E+02  0.32587036375E+02  0.27801255607E+02  0.45045682197E+02  0.00000000000E+00 0. -1.
         11    1    3    3    0    0  0.79936801897E+00 -0.36764044460E+01 -0.50564415141E+01  0.63025820048E+01  0.51100000000E-03 0. -1.
        -11    1    3    3    0    0  0.28835424527E+01 -0.11371648466E+02 -0.12289288410E+02  0.16989873920E+02  0.51100000000E-03 0.  1.
        -12    1    3    3    0    0  0.10255838809E+02 -0.17538983462E+02 -0.10455525683E+02  0.22849861879E+02  0.00000000000E+00 0.  1.
</event>
<event>
 7    1  0.2478637E-008  0.4614232E+02  0.7816164E-02  0.1320468E+00
        -11   -1    0    0    0    0  0.00000000000E+00  0.00000000000E+00  0.45593999997E+02  0.45594000000E+02  0.51100000000E-03 0.  1.
         11   -1    0    0    0    0 -0.00000000000E+00 -0.00000000000E+00 -0.45593999997E+02  0.45594000000E+02  0.51100000000E-03 0. -1.
    9900012    2    1    2    0    0 -0.17309965247E+02 -0.23132564645E+02  0.34559558134E+02  0.46142317606E+02  0.99999985877E+01 0.  0.
         12    1    1    2    0    0  0.17309965247E+02  0.23132564645E+02 -0.34559558134E+02  0.45045682394E+02  0.00000000000E+00 0. -1.
         11    1    3    3    0    0 -0.51626826035E+00 -0.42061293178E+01  0.95945798208E+01  0.10488756788E+02  0.51100000000E-03 0. -1.
        -11    1    3    3    0    0 -0.11656029075E+02 -0.14515749605E+02  0.19417990559E+02  0.26900341225E+02  0.51100000000E-03 0.  1.
        -12    1    3    3    0    0 -0.51376679120E+01 -0.44106857227E+01  0.55469877536E+01  0.87532195937E+01  0.00000000000E+00 0.  1.
</event>
<event>
 7    1  0.2478637E-008  0.4614232E+02  0.7816164E-02  0.1320468E+00
        -11   -1    0    0    0    0  0.00000000000E+00  0.00000000000E+00  0.45593999997E+02  0.45594000000E+02  0.51100000000E-03 0. -1.
         11   -1    0    0    0    0 -0.00000000000E+00 -0.00000000000E+00 -0.45593999997E+02  0.45594000000E+02  0.51100000000E-03 0.  1.
    9900012    2    1    2    0    0 -0.44361329048E+02  0.43185779840E+01 -0.65219052491E+01  0.46142324527E+02  0.10000061697E+02 0.  0.
         12    1    1    2    0    0  0.44361329048E+02 -0.43185779840E+01  0.65219052491E+01  0.45045675473E+02  0.00000000000E+00 0. -1.
         11    1    3    3    0    0 -0.23950841462E+02  0.49612872238E+01 -0.11546607976E+01  0.24486535473E+02  0.51100000000E-03 0. -1.
        -11    1    3    3    0    0 -0.13678885849E+02 -0.22186606766E+01 -0.50011856598E+01  0.14732488980E+02  0.51100000000E-03 0.  1.
        -12    1    3    3    0    0 -0.67316017371E+01  0.15759514368E+01 -0.36605879175E+00  0.69233000742E+01  0.00000000000E+00 0.  1.
</event>
<event>
 7    1  0.2478637E-008  0.4614232E+02  0.7816164E-02  0.1320468E+00
        -11   -1    0    0    0    0  0.00000000000E+00  0.00000000000E+00  0.45593999997E+02  0.45594000000E+02  0.51100000000E-03 0.  1.
         11   -1    0    0    0    0 -0.00000000000E+00 -0.00000000000E+00 -0.45593999997E+02  0.45594000000E+02  0.51100000000E-03 0. -1.
    9900012    2    1    2    0    0  0.27236711490E+02 -0.33642481595E+02  0.12468296813E+02  0.46142318231E+02  0.10000004282E+02 0.  0.
         12    1    1    2    0    0 -0.27236711490E+02  0.33642481595E+02 -0.12468296813E+02  0.45045681769E+02  0.00000000000E+00 0. -1.
         11    1    3    3    0    0  0.12672418785E+02 -0.14825015507E+02  0.82893079847E+01  0.21191599981E+02  0.51100000000E-03 0. -1.
        -11    1    3    3    0    0  0.13583458911E+02 -0.19121605853E+02  0.34883588460E+01  0.23713178068E+02  0.51100000000E-03 0.  1.
         12    1    3    3    0    0  0.98083379420E+00  0.30413976509E+00  0.69062998219E+00  0.12375401815E+01  0.00000000000E+00 0. -1.
</event>
<event>
 7    1  0.2478637E-008  0.4614232E+02  0.7816164E-02  0.1320468E+00
        -11   -1    0    0    0    0  0.00000000000E+00  0.00000000000E+00  0.45593999997E+02  0.45594000000E+02  0.51100000000E-03 0.  1.
         11   -1    0    0    0    0 -0.00000000000E+00 -0.00000000000E+00 -0.45593999997E+02  0.45594000000E+02  0.51100000000E-03 0. -1.
    9900012    2    1    2    0    0  0.76818620640E+01  0.26524243295E+02  0.35588861163E+02  0.46142317343E+02  0.99999961882E+01 0.  0.
         12    1    1    2    0    0 -0.76818620640E+01 -0.26524243295E+02 -0.35588861163E+02  0.45045682657E+02  0.00000000000E+00 0. -1.
         11    1    3    3    0    0  0.11378029805E+01  0.46992776999E+00  0.26132751368E+01  0.28887081772E+01  0.51100000000E-03 0. -1.
        -11    1    3    3    0    0  0.77129476736E+01  0.15286841652E+02  0.21281681728E+02  0.27314594395E+02  0.51100000000E-03 0.  1.
        -12    1    3    3    0    0 -0.11688885901E+01  0.10767473873E+02  0.11693904298E+02  0.15939014771E+02  0.00000000000E+00 0.  1.
</event>
<event>
 7    1  0.2478637E-008  0.4614232E+02  0.7816164E-02  0.1320468E+00
        -11   -1    0    0    0    0  0.00000000000E+00  0.00000000000E+00  0.45593999997E+02  0.45594000000E+02  0.51100000000E-03 0.  1.
         11   -1    0    0    0    0 -0.00000000000E+00 -0.00000000000E+00 -0.45593999997E+02  0.45594000000E+02  0.51100000000E-03 0. -1.
    9900012    2    1    2    0    0  0.13945120202E+02  0.16805553062E+02  0.39398230241E+02  0.46142317218E+02  0.99999950506E+01 0.  0.
         12    1    1    2    0    0 -0.13945120202E+02 -0.16805553062E+02 -0.39398230241E+02  0.45045682782E+02  0.00000000000E+00 0. -1.
         11    1    3    3    0    0  0.90216156503E+00  0.27283101108E+01  0.87884919932E+01  0.92463594633E+01  0.51100000000E-03 0.  1.
        -11    1    3    3    0    0  0.32211487950E+01  0.30423990250E+01  0.13915905134E+02  0.14604259904E+02  0.51100000000E-03 0. -1.
        -12    1    3    3    0    0  0.98218098419E+01  0.11034843927E+02  0.16693833113E+02  0.22291697851E+02  0.00000000000E+00 0.  1.
</event>
<event>
 7    1  0.2478637E-008  0.4614232E+02  0.7816164E-02  0.1320468E+00
        -11   -1    0    0    0    0  0.00000000000E+00  0.00000000000E+00  0.45593999997E+02  0.45594000000E+02  0.51100000000E-03 0.  1.
         11   -1    0    0    0    0 -0.00000000000E+00 -0.00000000000E+00 -0.45593999997E+02  0.45594000000E+02  0.51100000000E-03 0. -1.
    9900012    2    1    2    0    0  0.87763606372E+01  0.39429764714E+02  0.19934455936E+02  0.46142318910E+02  0.10000010476E+02 0.  0.
         12    1    1    2    0    0 -0.87763606372E+01 -0.39429764714E+02 -0.19934455936E+02  0.45045681090E+02  0.00000000000E+00 0. -1.
         11    1    3    3    0    0  0.24943329536E+01  0.92876580755E+01  0.50580794883E+01  0.10865839028E+02  0.51100000000E-03 0. -1.
        -11    1    3    3    0    0  0.41366223512E+01  0.27751783298E+02  0.15423833799E+02  0.32018241207E+02  0.51100000000E-03 0.  1.
         12    1    3    3    0    0  0.21454053324E+01  0.23903233398E+01 -0.54745735078E+00  0.32582386745E+01  0.00000000000E+00 0. -1.
</event>
<event>
 7    1  0.2478637E-008  0.4614232E+02  0.7816164E-02  0.1320468E+00
        -11   -1    0    0    0    0  0.00000000000E+00  0.00000000000E+00  0.45593999997E+02  0.45594000000E+02  0.51100000000E-03 0.  1.
         11   -1    0    0    0    0 -0.00000000000E+00 -0.00000000000E+00 -0.45593999997E+02  0.45594000000E+02  0.51100000000E-03 0. -1.
    9900012    2    1    2    0    0 -0.43850413198E+02 -0.18099726386E+01  0.10147843359E+02  0.46142318037E+02  0.10000002520E+02 0.  0.
         12    1    1    2    0    0  0.43850413198E+02  0.18099726386E+01 -0.10147843359E+02  0.45045681963E+02  0.00000000000E+00 0. -1.
         11    1    3    3    0    0 -0.11312461656E+02 -0.13822756884E+01  0.29192397510E+00  0.11400337481E+02  0.51100000000E-03 0. -1.
        -11    1    3    3    0    0 -0.24639290616E+02 -0.31641483910E+01  0.86043049405E+01  0.26289551933E+02  0.51100000000E-03 0.  1.
         12    1    3    3    0    0 -0.78986609265E+01  0.27364514408E+01  0.12516144435E+01  0.84524286235E+01  0.00000000000E+00 0. -1.
</event>
<event>
 7    1  0.2478637E-008  0.4614232E+02  0.7816164E-02  0.1320468E+00
        -11   -1    0    0    0    0  0.00000000000E+00  0.00000000000E+00  0.45593999997E+02  0.45594000000E+02  0.51100000000E-03 0.  1.
         11   -1    0    0    0    0 -0.00000000000E+00 -0.00000000000E+00 -0.45593999997E+02  0.45594000000E+02  0.51100000000E-03 0. -1.
    9900012    2    1    2    0    0  0.53050291637E+01  0.31374796991E+02  0.31884043675E+02  0.46142318057E+02  0.10000002695E+02 0.  0.
         12    1    1    2    0    0 -0.53050291637E+01 -0.31374796991E+02 -0.31884043675E+02  0.45045681943E+02  0.00000000000E+00 0. -1.
         11    1    3    3    0    0  0.18863522682E+01  0.24528580535E+01  0.14730791537E+01  0.34270687132E+01  0.51100000000E-03 0. -1.
        -11    1    3    3    0    0  0.27807909424E+01  0.27662110675E+02  0.25929720767E+02  0.38016780303E+02  0.51100000000E-03 0.  1.
         12    1    3    3    0    0  0.63788595310E+00  0.12598282626E+01  0.44812437546E+01  0.46984690409E+01  0.00000000000E+00 0. -1.
</event>
<event>
 7    1  0.2478637E-008  0.4614232E+02  0.7816164E-02  0.1320468E+00
        -11   -1    0    0    0    0  0.00000000000E+00  0.00000000000E+00  0.45593999997E+02  0.45594000000E+02  0.51100000000E-03 0.  1.
         11   -1    0    0    0    0 -0.00000000000E+00 -0.00000000000E+00 -0.45593999997E+02  0.45594000000E+02  0.51100000000E-03 0. -1.
    9900012    2    1    2    0    0 -0.20488559091E+02 -0.33904400003E+02  0.21443514859E+02  0.46142315160E+02  0.99999762794E+01 0.  0.
         12    1    1    2    0    0  0.20488559091E+02  0.33904400003E+02 -0.21443514859E+02  0.45045684840E+02  0.00000000000E+00 0. -1.
         11    1    3    3    0    0 -0.47760152012E+01 -0.14320332943E+02  0.82437823039E+01  0.17200064062E+02  0.51100000000E-03 0. -1.
        -11    1    3    3    0    0 -0.60989424831E+01 -0.49360615692E+01  0.18338311395E+01  0.80575889779E+01  0.51100000000E-03 0.  1.
        -12    1    3    3    0    0 -0.96136014071E+01 -0.14648005491E+02  0.11365901416E+02  0.20884662120E+02  0.00000000000E+00 0.  1.
</event>
<event>
 7    1  0.2478637E-008  0.4614232E+02  0.7816164E-02  0.1320468E+00
        -11   -1    0    0    0    0  0.00000000000E+00  0.00000000000E+00  0.45593999997E+02  0.45594000000E+02  0.51100000000E-03 0.  1.
         11   -1    0    0    0    0 -0.00000000000E+00 -0.00000000000E+00 -0.45593999997E+02  0.45594000000E+02  0.51100000000E-03 0. -1.
    9900012    2    1    2    0    0 -0.85082313491E+01  0.15470809003E+02  0.41441254452E+02  0.46142317605E+02  0.99999985782E+01 0.  0.
         12    1    1    2    0    0  0.85082313491E+01 -0.15470809003E+02 -0.41441254452E+02  0.45045682395E+02  0.00000000000E+00 0. -1.
         11    1    3    3    0    0 -0.46309579843E+01  0.41741607812E+01  0.87581419969E+01  0.10750555408E+02  0.51100000000E-03 0. -1.
        -11    1    3    3    0    0 -0.26364825841E+01  0.11836731076E+02  0.27913794581E+02  0.30434177682E+02  0.51100000000E-03 0.  1.
        -12    1    3    3    0    0 -0.12407907808E+01 -0.54008285419E+00  0.47693178733E+01  0.49575845154E+01  0.00000000000E+00 0.  1.
</event>
<event>
 7    1  0.2478637E-008  0.4614232E+02  0.7816164E-02  0.1320468E+00
        -11   -1    0    0    0    0  0.00000000000E+00  0.00000000000E+00  0.45593999997E+02  0.45594000000E+02  0.51100000000E-03 0.  1.
         11   -1    0    0    0    0 -0.00000000000E+00 -0.00000000000E+00 -0.45593999997E+02  0.45594000000E+02  0.51100000000E-03 0. -1.
    9900012    2    1    2    0    0 -0.21168073903E+02 -0.37688020757E+02  0.12674357891E+02  0.46142316419E+02  0.99999877600E+01 0.  0.
         12    1    1    2    0    0  0.21168073903E+02  0.37688020757E+02 -0.12674357891E+02  0.45045683581E+02  0.00000000000E+00 0. -1.
         11    1    3    3    0    0 -0.12894366408E+01 -0.36914604490E+01  0.19303458755E+01  0.43607066580E+01  0.51100000000E-03 0.  1.
        -11    1    3    3    0    0 -0.69476538788E+01 -0.16573355027E+02  0.10052194384E+01  0.17998790450E+02  0.51100000000E-03 0. -1.
         12    1    3    3    0    0 -0.12930983384E+02 -0.17423205281E+02  0.97387925767E+01  0.23782819311E+02  0.00000000000E+00 0. -1.
</event>
<event>
 7    1  0.2478637E-008  0.4614231E+02  0.7816164E-02  0.1320468E+00
        -11   -1    0    0    0    0  0.00000000000E+00  0.00000000000E+00  0.45593999997E+02  0.45594000000E+02  0.51100000000E-03 0. -1.
         11   -1    0    0    0    0 -0.00000000000E+00 -0.00000000000E+00 -0.45593999997E+02  0.45594000000E+02  0.51100000000E-03 0.  1.
    9900012    2    1    2    0    0  0.29639010002E+02 -0.51180726401E+01 -0.33532793454E+02  0.46142314100E+02  0.99999666108E+01 0.  0.
         12    1    1    2    0    0 -0.29639010002E+02  0.51180726401E+01  0.33532793454E+02  0.45045685900E+02  0.00000000000E+00 0. -1.
         11    1    3    3    0    0  0.10900545570E+02 -0.12866000852E+01 -0.62266099990E+01  0.12619346491E+02  0.51100000000E-03 0. -1.
        -11    1    3    3    0    0  0.17365866113E+02 -0.31215001403E+01 -0.23283510579E+02  0.29213677176E+02  0.51100000000E-03 0.  1.
         12    1    3    3    0    0  0.13725983183E+01 -0.70997241459E+00 -0.40226728752E+01  0.43092904328E+01  0.00000000000E+00 0. -1.
</event>
<event>
 7    1  0.2478637E-008  0.4614232E+02  0.7816164E-02  0.1320468E+00
        -11   -1    0    0    0    0  0.00000000000E+00  0.00000000000E+00  0.45593999997E+02  0.45594000000E+02  0.51100000000E-03 0. -1.
         11   -1    0    0    0    0 -0.00000000000E+00 -0.00000000000E+00 -0.45593999997E+02  0.45594000000E+02  0.51100000000E-03 0.  1.
    9900012    2    1    2    0    0  0.32398491852E+02 -0.31290582717E+02 -0.59214259934E+00  0.46142317922E+02  0.10000001466E+02 0.  0.
         12    1    1    2    0    0 -0.32398491852E+02  0.31290582717E+02  0.59214259934E+00  0.45045682078E+02  0.00000000000E+00 0. -1.
         11    1    3    3    0    0  0.52619365979E+01 -0.79778167749E+01  0.41449882048E+00  0.95658427118E+01  0.51100000000E-03 0. -1.
        -11    1    3    3    0    0  0.26170220161E+02 -0.20831966734E+02  0.62284813394E+00  0.33455032527E+02  0.51100000000E-03 0.  1.
        -12    1    3    3    0    0  0.96633509274E+00 -0.24807992074E+01 -0.16294895538E+01  0.31214426832E+01  0.00000000000E+00 0.  1.
</event>
<event>
 7    1  0.2478637E-008  0.4614232E+02  0.7816164E-02  0.1320468E+00
        -11   -1    0    0    0    0  0.00000000000E+00  0.00000000000E+00  0.45593999997E+02  0.45594000000E+02  0.51100000000E-03 0.  1.
         11   -1    0    0    0    0 -0.00000000000E+00 -0.00000000000E+00 -0.45593999997E+02  0.45594000000E+02  0.51100000000E-03 0. -1.
    9900012    2    1    2    0    0 -0.11087675652E+02 -0.29819192314E+02  0.31890322995E+02  0.46142317827E+02  0.10000000605E+02 0.  0.
         12    1    1    2    0    0  0.11087675652E+02  0.29819192314E+02 -0.31890322995E+02  0.45045682173E+02  0.00000000000E+00 0. -1.
         11    1    3    3    0    0  0.78492007505E+00 -0.84011527037E+00  0.11499646665E+01  0.16261341233E+01  0.51100000000E-03 0. -1.
        -11    1    3    3    0    0 -0.68920932992E+01 -0.23583413900E+02  0.21022807558E+02  0.32336307753E+02  0.51100000000E-03 0.  1.
        -12    1    3    3    0    0 -0.49805024278E+01 -0.53956631439E+01  0.97175507707E+01  0.12179875951E+02  0.00000000000E+00 0.  1.
</event>
<event>
 7    1  0.2478637E-008  0.4614232E+02  0.7816164E-02  0.1320468E+00
        -11   -1    0    0    0    0  0.00000000000E+00  0.00000000000E+00  0.45593999997E+02  0.45594000000E+02  0.51100000000E-03 0.  1.
         11   -1    0    0    0    0 -0.00000000000E+00 -0.00000000000E+00 -0.45593999997E+02  0.45594000000E+02  0.51100000000E-03 0. -1.
    9900012    2    1    2    0    0 -0.39637774525E+02 -0.87040578196E+01  0.19549926546E+02  0.46142318523E+02  0.10000006946E+02 0.  0.
         12    1    1    2    0    0  0.39637774525E+02  0.87040578196E+01 -0.19549926546E+02  0.45045681477E+02  0.00000000000E+00 0. -1.
         11    1    3    3    0    0 -0.72004037789E+01  0.17550736413E+01  0.24036580182E+01  0.77912560089E+01  0.51100000000E-03 0. -1.
        -11    1    3    3    0    0 -0.22975256848E+02 -0.55150278483E+01  0.11931719824E+02  0.26469678835E+02  0.51100000000E-03 0.  1.
         12    1    3    3    0    0 -0.94621138976E+01 -0.49441036126E+01  0.52145487040E+01  0.11881383679E+02  0.00000000000E+00 0. -1.
</event>
<event>
 7    1  0.2478637E-008  0.4614232E+02  0.7816164E-02  0.1320468E+00
        -11   -1    0    0    0    0  0.00000000000E+00  0.00000000000E+00  0.45593999997E+02  0.45594000000E+02  0.51100000000E-03 0.  1.
         11   -1    0    0    0    0 -0.00000000000E+00 -0.00000000000E+00 -0.45593999997E+02  0.45594000000E+02  0.51100000000E-03 0. -1.
    9900012    2    1    2    0    0  0.32823089415E+02  0.28017007558E+01  0.30723100677E+02  0.46142316066E+02  0.99999845447E+01 0.  0.
         12    1    1    2    0    0 -0.32823089415E+02 -0.28017007558E+01 -0.30723100677E+02  0.45045683934E+02  0.00000000000E+00 0. -1.
         11    1    3    3    0    0  0.16194808757E+01 -0.15228451223E+01  0.18210461960E+00  0.22304568875E+01  0.51100000000E-03 0. -1.
        -11    1    3    3    0    0  0.96806738746E+00  0.36771673287E+00  0.13213455038E+01  0.16787865450E+01  0.51100000000E-03 0.  1.
        -12    1    3    3    0    0  0.30235541152E+02  0.39568291452E+01  0.29219650553E+02  0.42233072634E+02  0.00000000000E+00 0.  1.
</event>
<event>
 7    1  0.2478637E-008  0.4614232E+02  0.7816164E-02  0.1320468E+00
        -11   -1    0    0    0    0  0.00000000000E+00  0.00000000000E+00  0.45593999997E+02  0.45594000000E+02  0.51100000000E-03 0. -1.
         11   -1    0    0    0    0 -0.00000000000E+00 -0.00000000000E+00 -0.45593999997E+02  0.45594000000E+02  0.51100000000E-03 0.  1.
    9900012    2    1    2    0    0 -0.41492885668E+01 -0.34284641131E+02 -0.28921619319E+02  0.46142320106E+02  0.10000021384E+02 0.  0.
         12    1    1    2    0    0  0.41492885668E+01  0.34284641131E+02  0.28921619319E+02  0.45045679894E+02  0.00000000000E+00 0. -1.
         11    1    3    3    0    0  0.19500855632E+01 -0.26768781399E+01 -0.20525131512E+01  0.38963214417E+01  0.51100000000E-03 0. -1.
        -11    1    3    3    0    0 -0.24933110515E+01 -0.13219721266E+02 -0.79918129165E+01  0.15647578225E+02  0.51100000000E-03 0.  1.
         12    1    3    3    0    0 -0.36060630785E+01 -0.18388041725E+02 -0.18877293251E+02  0.26598420440E+02  0.00000000000E+00 0. -1.
</event>
<event>
 7    1  0.2478637E-008  0.4614232E+02  0.7816164E-02  0.1320468E+00
        -11   -1    0    0    0    0  0.00000000000E+00  0.00000000000E+00  0.45593999997E+02  0.45594000000E+02  0.51100000000E-03 0. -1.
         11   -1    0    0    0    0 -0.00000000000E+00 -0.00000000000E+00 -0.45593999997E+02  0.45594000000E+02  0.51100000000E-03 0.  1.
    9900012    2    1    2    0    0  0.29071674956E+02 -0.28457653902E+02 -0.19342004869E+02  0.46142317601E+02  0.99999985419E+01 0.  0.
         12    1    1    2    0    0 -0.29071674956E+02  0.28457653902E+02  0.19342004869E+02  0.45045682399E+02  0.00000000000E+00 0. -1.
         11    1    3    3    0    0  0.66406727691E-01 -0.35931928132E+00 -0.77280986677E+00  0.85484241279E+00  0.51100000000E-03 0.  1.
        -11    1    3    3    0    0  0.19016030488E+02 -0.18634422122E+02 -0.75937465781E+01  0.27686026994E+02  0.51100000000E-03 0. -1.
        -12    1    3    3    0    0  0.99892377403E+01 -0.94639124994E+01 -0.10975448424E+02  0.17601448195E+02  0.00000000000E+00 0.  1.
</event>
<event>
 7    1  0.2478637E-008  0.4614232E+02  0.7816164E-02  0.1320468E+00
        -11   -1    0    0    0    0  0.00000000000E+00  0.00000000000E+00  0.45593999997E+02  0.45594000000E+02  0.51100000000E-03 0.  1.
         11   -1    0    0    0    0 -0.00000000000E+00 -0.00000000000E+00 -0.45593999997E+02  0.45594000000E+02  0.51100000000E-03 0. -1.
    9900012    2    1    2    0    0 -0.10449234529E+02  0.18769052374E+02  0.39593555867E+02  0.46142317682E+02  0.99999992818E+01 0.  0.
         12    1    1    2    0    0  0.10449234529E+02 -0.18769052374E+02 -0.39593555867E+02  0.45045682318E+02  0.00000000000E+00 0. -1.
         11    1    3    3    0    0 -0.44488282848E+01  0.91409438844E+01  0.23497433773E+02  0.25602310880E+02  0.51100000000E-03 0.  1.
        -11    1    3    3    0    0 -0.56270169108E+01  0.78677054035E+01  0.16050493044E+02  0.18739862189E+02  0.51100000000E-03 0. -1.
         12    1    3    3    0    0 -0.37338933310E+00  0.17604030860E+01  0.45629049637E-01  0.18001446135E+01  0.00000000000E+00 0. -1.
</event>
<event>
 7    1  0.2478637E-008  0.4614232E+02  0.7816164E-02  0.1320468E+00
        -11   -1    0    0    0    0  0.00000000000E+00  0.00000000000E+00  0.45593999997E+02  0.45594000000E+02  0.51100000000E-03 0.  1.
         11   -1    0    0    0    0 -0.00000000000E+00 -0.00000000000E+00 -0.45593999997E+02  0.45594000000E+02  0.51100000000E-03 0. -1.
    9900012    2    1    2    0    0 -0.18979622615E+02  0.22940479432E+02  0.33802689605E+02  0.46142317680E+02  0.99999992587E+01 0.  0.
         12    1    1    2    0    0  0.18979622615E+02 -0.22940479432E+02 -0.33802689605E+02  0.45045682320E+02  0.00000000000E+00 0. -1.
         11    1    3    3    0    0 -0.73715549775E-01  0.32221082343E+01  0.31372928379E+01  0.44977796820E+01  0.51100000000E-03 0. -1.
        -11    1    3    3    0    0 -0.92703558317E+01  0.13879249873E+02  0.15718552149E+02  0.22926970062E+02  0.51100000000E-03 0.  1.
        -12    1    3    3    0    0 -0.96355512333E+01  0.58391213246E+01  0.14946844617E+02  0.18717567936E+02  0.00000000000E+00 0.  1.
</event>
<event>
 7    1  0.2478637E-008  0.4614232E+02  0.7816164E-02  0.1320468E+00
        -11   -1    0    0    0    0  0.00000000000E+00  0.00000000000E+00  0.45593999997E+02  0.45594000000E+02  0.51100000000E-03 0. -1.
         11   -1    0    0    0    0 -0.00000000000E+00 -0.00000000000E+00 -0.45593999997E+02  0.45594000000E+02  0.51100000000E-03 0.  1.
    9900012    2    1    2    0    0  0.12853090607E+01  0.44634160839E+02 -0.59374339601E+01  0.46142318129E+02  0.10000003352E+02 0.  0.
         12    1    1    2    0    0 -0.12853090607E+01 -0.44634160839E+02  0.59374339601E+01  0.45045681871E+02  0.00000000000E+00 0. -1.
         11    1    3    3    0    0  0.47022473393E+01  0.20078826571E+02 -0.14660196814E+01  0.20674129255E+02  0.51100000000E-03 0. -1.
        -11    1    3    3    0    0  0.67352909088E+00  0.43809793295E+01 -0.15216676374E+00  0.44350621536E+01  0.51100000000E-03 0.  1.
        -12    1    3    3    0    0 -0.40904673695E+01  0.20174354939E+02 -0.43192475150E+01  0.21033126720E+02  0.00000000000E+00 0.  1.
</event>
<event>
 7    1  0.2478637E-008  0.4614232E+02  0.7816164E-02  0.1320468E+00
        -11   -1    0    0    0    0  0.00000000000E+00  0.00000000000E+00  0.45593999997E+02  0.45594000000E+02  0.51100000000E-03 0.  1.
         11   -1    0    0    0    0 -0.00000000000E+00 -0.00000000000E+00 -0.45593999997E+02  0.45594000000E+02  0.51100000000E-03 0. -1.
    9900012    2    1    2    0    0 -0.34793471786E+02  0.25349163312E+02  0.13264527454E+02  0.46142318208E+02  0.10000004072E+02 0.  0.
         12    1    1    2    0    0  0.34793471786E+02 -0.25349163312E+02 -0.13264527454E+02  0.45045681792E+02  0.00000000000E+00 0. -1.
         11    1    3    3    0    0 -0.33150096846E+01  0.37558306068E+01  0.16056084079E+01  0.52605637889E+01  0.51100000000E-03 0. -1.
        -11    1    3    3    0    0 -0.29273470560E+02  0.20396721936E+02  0.81999251763E+01  0.36608757388E+02  0.51100000000E-03 0.  1.
        -12    1    3    3    0    0 -0.22049915418E+01  0.11966107699E+01  0.34589938699E+01  0.42729970309E+01  0.00000000000E+00 0.  1.
</event>
<event>
 7    1  0.2478637E-008  0.4614232E+02  0.7816164E-02  0.1320468E+00
        -11   -1    0    0    0    0  0.00000000000E+00  0.00000000000E+00  0.45593999997E+02  0.45594000000E+02  0.51100000000E-03 0. -1.
         11   -1    0    0    0    0 -0.00000000000E+00 -0.00000000000E+00 -0.45593999997E+02  0.45594000000E+02  0.51100000000E-03 0.  1.
    9900012    2    1    2    0    0 -0.40777011571E+02  0.71264507423E+00  0.19126969926E+02  0.46142317474E+02  0.99999973862E+01 0.  0.
         12    1    1    2    0    0  0.40777011571E+02 -0.71264507423E+00 -0.19126969926E+02  0.45045682526E+02  0.00000000000E+00 0. -1.
         11    1    3    3    0    0 -0.13138810447E+02  0.55636431531E+00  0.36475166460E+01  0.13647060458E+02  0.51100000000E-03 0. -1.
        -11    1    3    3    0    0 -0.33504972837E+01  0.22249538903E+01  0.10037254802E+01  0.41453247114E+01  0.51100000000E-03 0.  1.
        -12    1    3    3    0    0 -0.24287703840E+02 -0.20686731314E+01  0.14475727799E+02  0.28349932305E+02  0.00000000000E+00 0.  1.
</event>
<event>
 7    1  0.2478637E-008  0.4614232E+02  0.7816164E-02  0.1320468E+00
        -11   -1    0    0    0    0  0.00000000000E+00  0.00000000000E+00  0.45593999997E+02  0.45594000000E+02  0.51100000000E-03 0.  1.
         11   -1    0    0    0    0 -0.00000000000E+00 -0.00000000000E+00 -0.45593999997E+02  0.45594000000E+02  0.51100000000E-03 0. -1.
    9900012    2    1    2    0    0 -0.38036791159E+02  0.22794231362E+02 -0.79208029373E+01  0.46142316697E+02  0.99999902968E+01 0.  0.
         12    1    1    2    0    0  0.38036791159E+02 -0.22794231362E+02  0.79208029373E+01  0.45045683303E+02  0.00000000000E+00 0. -1.
         11    1    3    3    0    0 -0.35091610174E+02  0.21954349477E+02 -0.75392760939E+01  0.42074401361E+02  0.51100000000E-03 0. -1.
        -11    1    3    3    0    0 -0.31940041532E+01  0.95394214446E+00  0.28677622806E+00  0.33457299670E+01  0.51100000000E-03 0.  1.
         12    1    3    3    0    0  0.24882316874E+00 -0.11406025937E+00 -0.66830307147E+00  0.72218536915E+00  0.00000000000E+00 0. -1.
</event>
<event>
 7    1  0.2478637E-008  0.4614232E+02  0.7816164E-02  0.1320468E+00
        -11   -1    0    0    0    0  0.00000000000E+00  0.00000000000E+00  0.45593999997E+02  0.45594000000E+02  0.51100000000E-03 0.  1.
         11   -1    0    0    0    0 -0.00000000000E+00 -0.00000000000E+00 -0.45593999997E+02  0.45594000000E+02  0.51100000000E-03 0. -1.
    9900012    2    1    2    0    0 -0.80121385240E+01  0.21625670963E+02  0.38694307370E+02  0.46142318396E+02  0.10000005788E+02 0.  0.
         12    1    1    2    0    0  0.80121385240E+01 -0.21625670963E+02 -0.38694307370E+02  0.45045681604E+02  0.00000000000E+00 0. -1.
         11    1    3    3    0    0 -0.25189551779E+01  0.14232365300E+02  0.22009159976E+02  0.26330751610E+02  0.51100000000E-03 0.  1.
        -11    1    3    3    0    0  0.10401970796E+01  0.45265740632E+00  0.14629606241E+01  0.18512597712E+01  0.51100000000E-03 0. -1.
        -12    1    3    3    0    0 -0.65333804257E+01  0.69406482567E+01  0.15222186770E+02  0.17960307015E+02  0.00000000000E+00 0.  1.
</event>
<event>
 7    1  0.2478637E-008  0.4614232E+02  0.7816164E-02  0.1320468E+00
        -11   -1    0    0    0    0  0.00000000000E+00  0.00000000000E+00  0.45593999997E+02  0.45594000000E+02  0.51100000000E-03 0. -1.
         11   -1    0    0    0    0 -0.00000000000E+00 -0.00000000000E+00 -0.45593999997E+02  0.45594000000E+02  0.51100000000E-03 0.  1.
    9900012    2    1    2    0    0 -0.29564577593E+01 -0.44863995830E+02 -0.27558802314E+01  0.46142316076E+02  0.99999846377E+01 0.  0.
         12    1    1    2    0    0  0.29564577593E+01  0.44863995830E+02  0.27558802314E+01  0.45045683924E+02  0.00000000000E+00 0. -1.
         11    1    3    3    0    0  0.96984809070E+00 -0.13583725045E+02  0.21123894646E+01  0.13781160362E+02  0.51100000000E-03 0. -1.
        -11    1    3    3    0    0  0.53174813355E+00 -0.16868562454E+02 -0.32751260315E+01  0.17191788916E+02  0.51100000000E-03 0.  1.
         12    1    3    3    0    0 -0.44580539835E+01 -0.14411708331E+02 -0.15931436645E+01  0.15169366798E+02  0.00000000000E+00 0. -1.
</event>
<event>
 7    1  0.2478637E-008  0.4614232E+02  0.7816164E-02  0.1320468E+00
        -11   -1    0    0    0    0  0.00000000000E+00  0.00000000000E+00  0.45593999997E+02  0.45594000000E+02  0.51100000000E-03 0.  1.
         11   -1    0    0    0    0 -0.00000000000E+00 -0.00000000000E+00 -0.45593999997E+02  0.45594000000E+02  0.51100000000E-03 0. -1.
    9900012    2    1    2    0    0  0.96418942048E+01  0.87405237479E+01  0.43124826415E+02  0.46142317271E+02  0.99999955274E+01 0.  0.
         12    1    1    2    0    0 -0.96418942048E+01 -0.87405237479E+01 -0.43124826415E+02  0.45045682729E+02  0.00000000000E+00 0. -1.
         11    1    3    3    0    0 -0.63829227529E+00  0.27884769727E+01  0.17258060006E+02  0.17493531842E+02  0.51100000000E-03 0. -1.
        -11    1    3    3    0    0  0.66182087241E+01  0.54349462690E+01  0.19240915979E+02  0.21060678423E+02  0.51100000000E-03 0.  1.
        -12    1    3    3    0    0  0.36619777559E+01  0.51710050627E+00  0.66258504293E+01  0.75881070057E+01  0.00000000000E+00 0.  1.
</event>
<event>
 7    1  0.2478637E-008  0.4614232E+02  0.7816164E-02  0.1320468E+00
        -11   -1    0    0    0    0  0.00000000000E+00  0.00000000000E+00  0.45593999997E+02  0.45594000000E+02  0.51100000000E-03 0.  1.
         11   -1    0    0    0    0 -0.00000000000E+00 -0.00000000000E+00 -0.45593999997E+02  0.45594000000E+02  0.51100000000E-03 0. -1.
    9900012    2    1    2    0    0 -0.14072320253E+02  0.42751142599E+02 -0.18501332925E+01  0.46142318919E+02  0.10000010559E+02 0.  0.
         12    1    1    2    0    0  0.14072320253E+02 -0.42751142599E+02  0.18501332925E+01  0.45045681081E+02  0.00000000000E+00 0. -1.
         11    1    3    3    0    0 -0.19738758095E+01  0.53593487792E+01 -0.24219884569E+01  0.62036145427E+01  0.51100000000E-03 0. -1.
        -11    1    3    3    0    0 -0.40876348663E+01  0.56518269049E+01 -0.15122711198E+01  0.71371472147E+01  0.51100000000E-03 0.  1.
        -12    1    3    3    0    0 -0.80108095774E+01  0.31739966915E+02  0.20841262843E+01  0.32801557162E+02  0.00000000000E+00 0.  1.
</event>
<event>
 7    1  0.2478637E-008  0.4614232E+02  0.7816164E-02  0.1320468E+00
        -11   -1    0    0    0    0  0.00000000000E+00  0.00000000000E+00  0.45593999997E+02  0.45594000000E+02  0.51100000000E-03 0.  1.
         11   -1    0    0    0    0 -0.00000000000E+00 -0.00000000000E+00 -0.45593999997E+02  0.45594000000E+02  0.51100000000E-03 0. -1.
    9900012    2    1    2    0    0  0.44125085809E+02  0.90529932022E+01 -0.36522914322E+00  0.46142320119E+02  0.10000021503E+02 0.  0.
         12    1    1    2    0    0 -0.44125085809E+02 -0.90529932022E+01  0.36522914322E+00  0.45045679881E+02  0.00000000000E+00 0. -1.
         11    1    3    3    0    0  0.90323481489E+01  0.37522599250E+01  0.19241475532E+01  0.99682050387E+01  0.51100000000E-03 0.  1.
        -11    1    3    3    0    0  0.34085541919E+02  0.62477419752E+01 -0.17743142141E+01  0.34698798810E+02  0.51100000000E-03 0. -1.
        -12    1    3    3    0    0  0.10071957415E+01 -0.94700869798E+00 -0.51506248232E+00  0.14753162700E+01  0.00000000000E+00 0.  1.
</event>
<event>
 7    1  0.2478637E-008  0.4614232E+02  0.7816164E-02  0.1320468E+00
        -11   -1    0    0    0    0  0.00000000000E+00  0.00000000000E+00  0.45593999997E+02  0.45594000000E+02  0.51100000000E-03 0.  1.
         11   -1    0    0    0    0 -0.00000000000E+00 -0.00000000000E+00 -0.45593999997E+02  0.45594000000E+02  0.51100000000E-03 0. -1.
    9900012    2    1    2    0    0  0.27225165374E+02 -0.35518735974E+02  0.51306371845E+01  0.46142315714E+02  0.99999813330E+01 0.  0.
         12    1    1    2    0    0 -0.27225165374E+02  0.35518735974E+02 -0.51306371845E+01  0.45045684286E+02  0.00000000000E+00 0. -1.
         11    1    3    3    0    0  0.32802578181E+01 -0.43720006633E+01 -0.43108975556E-01  0.54659253378E+01  0.51100000000E-03 0. -1.
        -11    1    3    3    0    0  0.11598025792E+02 -0.20751666504E+02  0.15259324206E+00  0.23773286477E+02  0.51100000000E-03 0.  1.
         12    1    3    3    0    0  0.12346881764E+02 -0.10395068808E+02  0.50211529180E+01  0.16903103900E+02  0.00000000000E+00 0. -1.
</event>
<event>
 7    1  0.2478637E-008  0.4614232E+02  0.7816164E-02  0.1320468E+00
        -11   -1    0    0    0    0  0.00000000000E+00  0.00000000000E+00  0.45593999997E+02  0.45594000000E+02  0.51100000000E-03 0. -1.
         11   -1    0    0    0    0 -0.00000000000E+00 -0.00000000000E+00 -0.45593999997E+02  0.45594000000E+02  0.51100000000E-03 0.  1.
    9900012    2    1    2    0    0  0.11155186065E+02  0.14471020969E+02 -0.41173595628E+02  0.46142316512E+02  0.99999886060E+01 0.  0.
         12    1    1    2    0    0 -0.11155186065E+02 -0.14471020969E+02  0.41173595628E+02  0.45045683488E+02  0.00000000000E+00 0. -1.
         11    1    3    3    0    0  0.10161121786E+02  0.11311894369E+02 -0.28025146586E+02  0.31884419261E+02  0.51100000000E-03 0. -1.
        -11    1    3    3    0    0  0.15741600619E+01  0.11355301804E+01 -0.11271950260E+02  0.11437843836E+02  0.51100000000E-03 0.  1.
         12    1    3    3    0    0 -0.58009578249E+00  0.20235964195E+01 -0.18764987815E+01  0.28200534149E+01  0.00000000000E+00 0. -1.
</event>
<event>
 7    1  0.2478637E-008  0.4614232E+02  0.7816164E-02  0.1320468E+00
        -11   -1    0    0    0    0  0.00000000000E+00  0.00000000000E+00  0.45593999997E+02  0.45594000000E+02  0.51100000000E-03 0.  1.
         11   -1    0    0    0    0 -0.00000000000E+00 -0.00000000000E+00 -0.45593999997E+02  0.45594000000E+02  0.51100000000E-03 0. -1.
    9900012    2    1    2    0    0 -0.77205669548E+01  0.12663533526E+02  0.42534003012E+02  0.46142315993E+02  0.99999838754E+01 0.  0.
         12    1    1    2    0    0  0.77205669548E+01 -0.12663533526E+02 -0.42534003012E+02  0.45045684007E+02  0.00000000000E+00 0. -1.
         11    1    3    3    0    0 -0.60728786731E+00  0.42097254293E-01 -0.77826909284E-01  0.61370027011E+00  0.51100000000E-03 0. -1.
        -11    1    3    3    0    0 -0.65996883839E+01  0.11103051411E+02  0.28075324250E+02  0.30904004099E+02  0.51100000000E-03 0.  1.
        -12    1    3    3    0    0 -0.51359070359E+00  0.15183848612E+01  0.14536505671E+02  0.14624611623E+02  0.00000000000E+00 0.  1.
</event>
<event>
 7    1  0.2478637E-008  0.4614232E+02  0.7816164E-02  0.1320468E+00
        -11   -1    0    0    0    0  0.00000000000E+00  0.00000000000E+00  0.45593999997E+02  0.45594000000E+02  0.51100000000E-03 0.  1.
         11   -1    0    0    0    0 -0.00000000000E+00 -0.00000000000E+00 -0.45593999997E+02  0.45594000000E+02  0.51100000000E-03 0. -1.
    9900012    2    1    2    0    0  0.30560424441E+02  0.28003604918E+02  0.17634401528E+02  0.46142317103E+02  0.99999939989E+01 0.  0.
         12    1    1    2    0    0 -0.30560424441E+02 -0.28003604918E+02 -0.17634401528E+02  0.45045682897E+02  0.00000000000E+00 0. -1.
         11    1    3    3    0    0  0.11232469594E+02  0.12610446598E+02  0.34424185691E+01  0.17234905931E+02  0.51100000000E-03 0. -1.
        -11    1    3    3    0    0  0.13244339210E+02  0.12927194712E+02  0.11645045795E+02  0.21866229123E+02  0.51100000000E-03 0.  1.
        -12    1    3    3    0    0  0.60836156370E+01  0.24659636082E+01  0.25469371643E+01  0.70411820495E+01  0.00000000000E+00 0.  1.
</event>
<event>
 7    1  0.2478637E-008  0.4614232E+02  0.7816164E-02  0.1320468E+00
        -11   -1    0    0    0    0  0.00000000000E+00  0.00000000000E+00  0.45593999997E+02  0.45594000000E+02  0.51100000000E-03 0.  1.
         11   -1    0    0    0    0 -0.00000000000E+00 -0.00000000000E+00 -0.45593999997E+02  0.45594000000E+02  0.51100000000E-03 0. -1.
    9900012    2    1    2    0    0 -0.74555496221E+01  0.83213833221E+01  0.43638088930E+02  0.46142318231E+02  0.10000004285E+02 0.  0.
         12    1    1    2    0    0  0.74555496221E+01 -0.83213833221E+01 -0.43638088930E+02  0.45045681769E+02  0.00000000000E+00 0. -1.
         11    1    3    3    0    0 -0.18488717306E+01 -0.11784784804E+01  0.26324908621E+01  0.34259519269E+01  0.51100000000E-03 0.  1.
        -11    1    3    3    0    0 -0.52267475168E+00  0.20835224511E+01  0.15994505060E+02  0.16138105436E+02  0.51100000000E-03 0. -1.
        -12    1    3    3    0    0 -0.50840031398E+01  0.74163393514E+01  0.25011093008E+02  0.26578260868E+02  0.00000000000E+00 0.  1.
</event>
<event>
 7    1  0.2478637E-008  0.4614232E+02  0.7816164E-02  0.1320468E+00
        -11   -1    0    0    0    0  0.00000000000E+00  0.00000000000E+00  0.45593999997E+02  0.45594000000E+02  0.51100000000E-03 0. -1.
         11   -1    0    0    0    0 -0.00000000000E+00 -0.00000000000E+00 -0.45593999997E+02  0.45594000000E+02  0.51100000000E-03 0.  1.
    9900012    2    1    2    0    0 -0.23540235260E+02 -0.33080999033E+02 -0.19509446352E+02  0.46142315745E+02  0.99999816110E+01 0.  0.
         12    1    1    2    0    0  0.23540235260E+02  0.33080999033E+02  0.19509446352E+02  0.45045684255E+02  0.00000000000E+00 0. -1.
         11    1    3    3    0    0 -0.72634125421E+01 -0.11514573549E+02 -0.63206775371E+01  0.15009781163E+02  0.51100000000E-03 0. -1.
        -11    1    3    3    0    0 -0.70878305426E+01 -0.90511365773E+01 -0.10098330085E+02  0.15301525607E+02  0.51100000000E-03 0.  1.
         12    1    3    3    0    0 -0.91889921750E+01 -0.12515288907E+02 -0.30904387299E+01  0.15831008975E+02  0.00000000000E+00 0. -1.
</event>
<event>
 7    1  0.2478637E-008  0.4614232E+02  0.7816164E-02  0.1320468E+00
        -11   -1    0    0    0    0  0.00000000000E+00  0.00000000000E+00  0.45593999997E+02  0.45594000000E+02  0.51100000000E-03 0. -1.
         11   -1    0    0    0    0 -0.00000000000E+00 -0.00000000000E+00 -0.45593999997E+02  0.45594000000E+02  0.51100000000E-03 0.  1.
    9900012    2    1    2    0    0  0.83198918290E+01  0.43988603949E+02  0.49895473850E+01  0.46142318070E+02  0.10000002817E+02 0.  0.
         12    1    1    2    0    0 -0.83198918290E+01 -0.43988603949E+02 -0.49895473850E+01  0.45045681930E+02  0.00000000000E+00 0. -1.
         11    1    3    3    0    0  0.91320419533E+00  0.14914051868E+02  0.25655998761E+01  0.15160646029E+02  0.51100000000E-03 0. -1.
        -11    1    3    3    0    0  0.53659411352E+01  0.15732028924E+02 -0.20817165817E+01  0.16751823857E+02  0.51100000000E-03 0.  1.
        -12    1    3    3    0    0  0.20407464985E+01  0.13342523157E+02  0.45056640906E+01  0.14229848185E+02  0.00000000000E+00 0.  1.
</event>
<event>
 7    1  0.3529929E-008  0.4614232E+02  0.7816164E-02  0.1320468E+00
        -11   -1    0    0    0    0  0.00000000000E+00  0.00000000000E+00  0.45593999997E+02  0.45594000000E+02  0.51100000000E-03 0.  1.
         11   -1    0    0    0    0 -0.00000000000E+00 -0.00000000000E+00 -0.45593999997E+02  0.45594000000E+02  0.51100000000E-03 0. -1.
    9900012    2    1    2    0    0  0.40834808288E+02  0.16481856841E+02 -0.94857986010E+01  0.46142317100E+02  0.99999939736E+01 0.  0.
         12    1    1    2    0    0 -0.40834808288E+02 -0.16481856841E+02  0.94857986010E+01  0.45045682900E+02  0.00000000000E+00 0. -1.
         11    1    3    3    0    0  0.21211040837E+00  0.87340165662E+00  0.82643075242E-01  0.90258042197E+00  0.51100000000E-03 0. -1.
        -11    1    3    3    0    0  0.16155872757E+01  0.15628348438E+01  0.99216441573E+00  0.24570237043E+01  0.51100000000E-03 0.  1.
        -12    1    3    3    0    0  0.39007110603E+02  0.14045620341E+02 -0.10560606092E+02  0.42782712974E+02  0.00000000000E+00 0.  1.
</event>
<event>
 7    1  0.2478637E-008  0.4614232E+02  0.7816164E-02  0.1320468E+00
        -11   -1    0    0    0    0  0.00000000000E+00  0.00000000000E+00  0.45593999997E+02  0.45594000000E+02  0.51100000000E-03 0.  1.
         11   -1    0    0    0    0 -0.00000000000E+00 -0.00000000000E+00 -0.45593999997E+02  0.45594000000E+02  0.51100000000E-03 0. -1.
    9900012    2    1    2    0    0 -0.41643394422E+02  0.15054635413E+02  0.82643302043E+01  0.46142317631E+02  0.99999988138E+01 0.  0.
         12    1    1    2    0    0  0.41643394422E+02 -0.15054635413E+02 -0.82643302043E+01  0.45045682369E+02  0.00000000000E+00 0. -1.
         11    1    3    3    0    0 -0.73772127812E+01  0.56365368379E+01  0.38200034488E+01  0.10039235158E+02  0.51100000000E-03 0.  1.
        -11    1    3    3    0    0 -0.73092015587E+01  0.37181821139E+01  0.42464848484E-01  0.82006773612E+01  0.51100000000E-03 0. -1.
        -12    1    3    3    0    0 -0.26956980082E+02  0.56999164608E+01  0.44018619070E+01  0.27902405112E+02  0.00000000000E+00 0.  1.
</event>
<event>
 7    1  0.2478637E-008  0.4614232E+02  0.7816164E-02  0.1320468E+00
        -11   -1    0    0    0    0  0.00000000000E+00  0.00000000000E+00  0.45593999997E+02  0.45594000000E+02  0.51100000000E-03 0.  1.
         11   -1    0    0    0    0 -0.00000000000E+00 -0.00000000000E+00 -0.45593999997E+02  0.45594000000E+02  0.51100000000E-03 0. -1.
    9900012    2    1    2    0    0 -0.58368081842E+01 -0.78225435939E+01  0.43975594976E+02  0.46142317947E+02  0.10000001699E+02 0.  0.
         12    1    1    2    0    0  0.58368081842E+01  0.78225435939E+01 -0.43975594976E+02  0.45045682053E+02  0.00000000000E+00 0. -1.
         11    1    3    3    0    0 -0.50912490505E+01 -0.21258741237E+01  0.13240746718E+02  0.14344250820E+02  0.51100000000E-03 0. -1.
        -11    1    3    3    0    0 -0.16556813750E+01 -0.32799706026E+01  0.68423588475E+01  0.77664253572E+01  0.51100000000E-03 0.  1.
        -12    1    3    3    0    0  0.91012224133E+00 -0.24166988675E+01  0.23892489411E+02  0.24031641770E+02  0.00000000000E+00 0.  1.
</event>
<event>
 7    1  0.2478637E-008  0.4614232E+02  0.7816164E-02  0.1320468E+00
        -11   -1    0    0    0    0  0.00000000000E+00  0.00000000000E+00  0.45593999997E+02  0.45594000000E+02  0.51100000000E-03 0.  1.
         11   -1    0    0    0    0 -0.00000000000E+00 -0.00000000000E+00 -0.45593999997E+02  0.45594000000E+02  0.51100000000E-03 0. -1.
    9900012    2    1    2    0    0  0.14804597087E+02  0.34257429453E+02  0.25226293605E+02  0.46142318113E+02  0.10000003207E+02 0.  0.
         12    1    1    2    0    0 -0.14804597087E+02 -0.34257429453E+02 -0.25226293605E+02  0.45045681887E+02  0.00000000000E+00 0. -1.
         11    1    3    3    0    0  0.41867064662E+01  0.12982351915E+02  0.13989781525E+02  0.19539292711E+02  0.51100000000E-03 0. -1.
        -11    1    3    3    0    0  0.29177456871E+01  0.28230492576E+01  0.12146715143E+01  0.42377203959E+01  0.51100000000E-03 0.  1.
         12    1    3    3    0    0  0.77001449337E+01  0.18452028281E+02  0.10021840566E+02  0.22365305006E+02  0.00000000000E+00 0. -1.
</event>
<event>
 7    1  0.2478637E-008  0.4614232E+02  0.7816164E-02  0.1320468E+00
        -11   -1    0    0    0    0  0.00000000000E+00  0.00000000000E+00  0.45593999997E+02  0.45594000000E+02  0.51100000000E-03 0.  1.
         11   -1    0    0    0    0 -0.00000000000E+00 -0.00000000000E+00 -0.45593999997E+02  0.45594000000E+02  0.51100000000E-03 0. -1.
    9900012    2    1    2    0    0 -0.63293199561E+01  0.93808853081E+01  0.43601057335E+02  0.46142317620E+02  0.99999987171E+01 0.  0.
         12    1    1    2    0    0  0.63293199561E+01 -0.93808853081E+01 -0.43601057335E+02  0.45045682380E+02  0.00000000000E+00 0. -1.
         11    1    3    3    0    0  0.22422798472E+01  0.99045341704E+00  0.11377537588E+02  0.11638607250E+02  0.51100000000E-03 0. -1.
        -11    1    3    3    0    0 -0.70845406576E+01  0.62211765365E+01  0.27823776934E+02  0.29377820154E+02  0.51100000000E-03 0.  1.
         12    1    3    3    0    0 -0.14870591456E+01  0.21692553545E+01  0.43997428129E+01  0.51258902169E+01  0.00000000000E+00 0. -1.
</event>
<event>
 7    1  0.2478637E-008  0.4614232E+02  0.7816164E-02  0.1320468E+00
        -11   -1    0    0    0    0  0.00000000000E+00  0.00000000000E+00  0.45593999997E+02  0.45594000000E+02  0.51100000000E-03 0. -1.
         11   -1    0    0    0    0 -0.00000000000E+00 -0.00000000000E+00 -0.45593999997E+02  0.45594000000E+02  0.51100000000E-03 0.  1.
    9900012    2    1    2    0    0 -0.89405888270E+01 -0.27219485416E+02 -0.34760308077E+02  0.46142317272E+02  0.99999955376E+01 0.  0.
         12    1    1    2    0    0  0.89405888270E+01  0.27219485416E+02  0.34760308077E+02  0.45045682728E+02  0.00000000000E+00 0. -1.
         11    1    3    3    0    0 -0.29982496105E+01 -0.45224658934E+01 -0.10430199791E+02  0.11757179357E+02  0.51100000000E-03 0. -1.
        -11    1    3    3    0    0 -0.22007678954E+01 -0.77541286064E+01 -0.12869307755E+02  0.15185156309E+02  0.51100000000E-03 0.  1.
         12    1    3    3    0    0 -0.37415713212E+01 -0.14942890916E+02 -0.11460800531E+02  0.19199981606E+02  0.00000000000E+00 0. -1.
</event>
<event>
 7    1  0.2478637E-008  0.4614232E+02  0.7816164E-02  0.1320468E+00
        -11   -1    0    0    0    0  0.00000000000E+00  0.00000000000E+00  0.45593999997E+02  0.45594000000E+02  0.51100000000E-03 0.  1.
         11   -1    0    0    0    0 -0.00000000000E+00 -0.00000000000E+00 -0.45593999997E+02  0.45594000000E+02  0.51100000000E-03 0. -1.
    9900012    2    1    2    0    0  0.21691254284E+02  0.25006174781E+02  0.30549864972E+02  0.46142317194E+02  0.99999948325E+01 0.  0.
         12    1    1    2    0    0 -0.21691254284E+02 -0.25006174781E+02 -0.30549864972E+02  0.45045682806E+02  0.00000000000E+00 0. -1.
         11    1    3    3    0    0  0.18791378874E+01  0.57292836092E+00  0.27831926434E+01  0.34066945354E+01  0.51100000000E-03 0. -1.
        -11    1    3    3    0    0  0.20101740950E+02  0.23732988586E+02  0.25110265641E+02  0.39973243267E+02  0.51100000000E-03 0.  1.
        -12    1    3    3    0    0 -0.28962455326E+00  0.70025783438E+00  0.26564066874E+01  0.27623793920E+01  0.00000000000E+00 0.  1.
</event>
<event>
 7    1  0.2559255E-008  0.4614232E+02  0.7816164E-02  0.1320468E+00
        -11   -1    0    0    0    0  0.00000000000E+00  0.00000000000E+00  0.45593999997E+02  0.45594000000E+02  0.51100000000E-03 0. -1.
         11   -1    0    0    0    0 -0.00000000000E+00 -0.00000000000E+00 -0.45593999997E+02  0.45594000000E+02  0.51100000000E-03 0.  1.
    9900012    2    1    2    0    0 -0.18104728224E+02 -0.33359759776E+02 -0.24258168139E+02  0.46142317878E+02  0.10000001068E+02 0.  0.
         12    1    1    2    0    0  0.18104728224E+02  0.33359759776E+02  0.24258168139E+02  0.45045682122E+02  0.00000000000E+00 0. -1.
         11    1    3    3    0    0 -0.19561472098E+01 -0.20093910571E+01  0.32890334208E+00  0.28235336010E+01  0.51100000000E-03 0. -1.
        -11    1    3    3    0    0 -0.28698272660E+01 -0.33252655109E+01 -0.49251275806E+01  0.65992561097E+01  0.51100000000E-03 0.  1.
        -12    1    3    3    0    0 -0.13278753748E+02 -0.28025103208E+02 -0.19661943900E+02  0.36719528168E+02  0.00000000000E+00 0.  1.
</event>
<event>
 7    1  0.2478637E-008  0.4614232E+02  0.7816164E-02  0.1320468E+00
        -11   -1    0    0    0    0  0.00000000000E+00  0.00000000000E+00  0.45593999997E+02  0.45594000000E+02  0.51100000000E-03 0.  1.
         11   -1    0    0    0    0 -0.00000000000E+00 -0.00000000000E+00 -0.45593999997E+02  0.45594000000E+02  0.51100000000E-03 0. -1.
    9900012    2    1    2    0    0  0.67282877949E+01  0.97634597982E+01  0.43457087659E+02  0.46142317947E+02  0.10000001693E+02 0.  0.
         12    1    1    2    0    0 -0.67282877949E+01 -0.97634597982E+01 -0.43457087659E+02  0.45045682053E+02  0.00000000000E+00 0. -1.
         11    1    3    3    0    0  0.24573943633E+01 -0.48429552589E+00  0.61476158438E+01  0.66382610703E+01  0.51100000000E-03 0. -1.
        -11    1    3    3    0    0  0.24092518191E+01  0.10077463375E+00  0.10616357039E+02  0.10886766595E+02  0.51100000000E-03 0.  1.
        -12    1    3    3    0    0  0.18616416125E+01  0.10146980690E+02  0.26693114776E+02  0.28617290282E+02  0.00000000000E+00 0.  1.
</event>
<event>
 7    1  0.2478637E-008  0.4614232E+02  0.7816164E-02  0.1320468E+00
        -11   -1    0    0    0    0  0.00000000000E+00  0.00000000000E+00  0.45593999997E+02  0.45594000000E+02  0.51100000000E-03 0.  1.
         11   -1    0    0    0    0 -0.00000000000E+00 -0.00000000000E+00 -0.45593999997E+02  0.45594000000E+02  0.51100000000E-03 0. -1.
    9900012    2    1    2    0    0  0.44678739913E+02  0.32849059157E-02  0.57379206749E+01  0.46142317136E+02  0.99999943005E+01 0.  0.
         12    1    1    2    0    0 -0.44678739913E+02 -0.32849059157E-02 -0.57379206749E+01  0.45045682864E+02  0.00000000000E+00 0. -1.
         11    1    3    3    0    0  0.15907559058E+02  0.22945882751E+00  0.44440060529E+01  0.16518240724E+02  0.51100000000E-03 0. -1.
        -11    1    3    3    0    0  0.22628407518E+02  0.19312406403E+01  0.29624128610E+01  0.22903065459E+02  0.51100000000E-03 0.  1.
         12    1    3    3    0    0  0.61427733364E+01 -0.21574145619E+01 -0.16684982390E+01  0.67210109528E+01  0.00000000000E+00 0. -1.
</event>
<event>
 7    1  0.2478637E-008  0.4614231E+02  0.7816164E-02  0.1320468E+00
        -11   -1    0    0    0    0  0.00000000000E+00  0.00000000000E+00  0.45593999997E+02  0.45594000000E+02  0.51100000000E-03 0.  1.
         11   -1    0    0    0    0 -0.00000000000E+00 -0.00000000000E+00 -0.45593999997E+02  0.45594000000E+02  0.51100000000E-03 0. -1.
    9900012    2    1    2    0    0 -0.28437112855E+02  0.33967508818E+02  0.81641242651E+01  0.46142312439E+02  0.99999514646E+01 0.  0.
         12    1    1    2    0    0  0.28437112855E+02 -0.33967508818E+02 -0.81641242651E+01  0.45045687561E+02  0.00000000000E+00 0. -1.
         11    1    3    3    0    0 -0.16101267976E+01  0.39535681156E+01  0.23887770688E+00  0.42755434706E+01  0.51100000000E-03 0. -1.
        -11    1    3    3    0    0 -0.24940813151E+02  0.24452601034E+02  0.49293907477E+01  0.35274250543E+02  0.51100000000E-03 0.  1.
        -12    1    3    3    0    0 -0.18861729062E+01  0.55613396686E+01  0.29958558105E+01  0.65925184246E+01  0.00000000000E+00 0.  1.
</event>
<event>
 7    1  0.2478637E-008  0.4614232E+02  0.7816164E-02  0.1320468E+00
        -11   -1    0    0    0    0  0.00000000000E+00  0.00000000000E+00  0.45593999997E+02  0.45594000000E+02  0.51100000000E-03 0. -1.
         11   -1    0    0    0    0 -0.00000000000E+00 -0.00000000000E+00 -0.45593999997E+02  0.45594000000E+02  0.51100000000E-03 0.  1.
    9900012    2    1    2    0    0 -0.42556963493E+02  0.13979217232E+02  0.47539276524E+01  0.46142317806E+02  0.10000000412E+02 0.  0.
         12    1    1    2    0    0  0.42556963493E+02 -0.13979217232E+02 -0.47539276524E+01  0.45045682194E+02  0.00000000000E+00 0. -1.
         11    1    3    3    0    0 -0.14590754105E+02  0.70793198731E+01  0.92803075939E+00  0.16244017870E+02  0.51100000000E-03 0. -1.
        -11    1    3    3    0    0 -0.22334566132E+02  0.81313783845E+01  0.41331418899E+01  0.24125401984E+02  0.51100000000E-03 0.  1.
         12    1    3    3    0    0 -0.56316432564E+01 -0.12314810252E+01 -0.30724499684E+00  0.57728979526E+01  0.00000000000E+00 0. -1.
</event>
<event>
 7    1  0.2478637E-008  0.4614232E+02  0.7816164E-02  0.1320468E+00
        -11   -1    0    0    0    0  0.00000000000E+00  0.00000000000E+00  0.45593999997E+02  0.45594000000E+02  0.51100000000E-03 0. -1.
         11   -1    0    0    0    0 -0.00000000000E+00 -0.00000000000E+00 -0.45593999997E+02  0.45594000000E+02  0.51100000000E-03 0.  1.
    9900012    2    1    2    0    0 -0.11413372910E+02 -0.10220367839E+01 -0.43563791205E+02  0.46142317138E+02  0.99999943175E+01 0.  0.
         12    1    1    2    0    0  0.11413372910E+02  0.10220367839E+01  0.43563791205E+02  0.45045682862E+02  0.00000000000E+00 0. -1.
         11    1    3    3    0    0 -0.21319350127E+01  0.25375993713E+01 -0.39036414239E+01  0.51208372455E+01  0.51100000000E-03 0. -1.
        -11    1    3    3    0    0 -0.75962888579E+01 -0.25085192422E+01 -0.35770273959E+02  0.36653905284E+02  0.51100000000E-03 0.  1.
         12    1    3    3    0    0 -0.16851490397E+01 -0.10511169131E+01 -0.38898758215E+01  0.43675746081E+01  0.00000000000E+00 0. -1.
</event>
<event>
 7    1  0.2478637E-008  0.4614232E+02  0.7816164E-02  0.1320468E+00
        -11   -1    0    0    0    0  0.00000000000E+00  0.00000000000E+00  0.45593999997E+02  0.45594000000E+02  0.51100000000E-03 0.  1.
         11   -1    0    0    0    0 -0.00000000000E+00 -0.00000000000E+00 -0.45593999997E+02  0.45594000000E+02  0.51100000000E-03 0. -1.
    9900012    2    1    2    0    0  0.37768735942E+02 -0.24395076724E+02 -0.27415964198E+01  0.46142317254E+02  0.99999953802E+01 0.  0.
         12    1    1    2    0    0 -0.37768735942E+02  0.24395076724E+02  0.27415964198E+01  0.45045682746E+02  0.00000000000E+00 0. -1.
         11    1    3    3    0    0  0.23310094345E+01 -0.29734879861E+01  0.20252864501E+01  0.42868428072E+01  0.51100000000E-03 0. -1.
        -11    1    3    3    0    0  0.18234697929E+02 -0.12982221201E+02 -0.34546063304E+01  0.22648986314E+02  0.51100000000E-03 0.  1.
        -12    1    3    3    0    0  0.17203028579E+02 -0.84393675375E+01 -0.13122765395E+01  0.19206488134E+02  0.00000000000E+00 0.  1.
</event>
<event>
 7    1  0.2478637E-008  0.4614232E+02  0.7816164E-02  0.1320468E+00
        -11   -1    0    0    0    0  0.00000000000E+00  0.00000000000E+00  0.45593999997E+02  0.45594000000E+02  0.51100000000E-03 0. -1.
         11   -1    0    0    0    0 -0.00000000000E+00 -0.00000000000E+00 -0.45593999997E+02  0.45594000000E+02  0.51100000000E-03 0.  1.
    9900012    2    1    2    0    0  0.41745561473E+02 -0.16085564538E+02 -0.52608122887E+01  0.46142318352E+02  0.10000005389E+02 0.  0.
         12    1    1    2    0    0 -0.41745561473E+02  0.16085564538E+02  0.52608122887E+01  0.45045681648E+02  0.00000000000E+00 0. -1.
         11    1    3    3    0    0  0.53529554468E+00 -0.14687189023E+01 -0.23734208094E+00  0.15811413785E+01  0.51100000000E-03 0. -1.
        -11    1    3    3    0    0  0.19748698970E+02 -0.10442499275E+02 -0.12530835948E+01  0.22374698229E+02  0.51100000000E-03 0.  1.
        -12    1    3    3    0    0  0.21461566959E+02 -0.41743463607E+01 -0.37703866130E+01  0.22186478744E+02  0.00000000000E+00 0.  1.
</event>
<event>
 7    1  0.2478637E-008  0.4614232E+02  0.7816164E-02  0.1320468E+00
        -11   -1    0    0    0    0  0.00000000000E+00  0.00000000000E+00  0.45593999997E+02  0.45594000000E+02  0.51100000000E-03 0.  1.
         11   -1    0    0    0    0 -0.00000000000E+00 -0.00000000000E+00 -0.45593999997E+02  0.45594000000E+02  0.51100000000E-03 0. -1.
    9900012    2    1    2    0    0 -0.20659081714E+02  0.20010945730E+02  0.34668110495E+02  0.46142317725E+02  0.99999996715E+01 0.  0.
         12    1    1    2    0    0  0.20659081714E+02 -0.20010945730E+02 -0.34668110495E+02  0.45045682275E+02  0.00000000000E+00 0. -1.
         11    1    3    3    0    0 -0.60368508429E+00  0.55357506664E+00  0.13994565810E+01  0.16215301473E+01  0.51100000000E-03 0. -1.
        -11    1    3    3    0    0 -0.16200105110E+02  0.93217342918E+01  0.19781970858E+02  0.27215152159E+02  0.51100000000E-03 0.  1.
         12    1    3    3    0    0 -0.38552915201E+01  0.10135636372E+02  0.13486683057E+02  0.17305635418E+02  0.00000000000E+00 0. -1.
</event>
<event>
 7    1  0.2478637E-008  0.4614232E+02  0.7816164E-02  0.1320468E+00
        -11   -1    0    0    0    0  0.00000000000E+00  0.00000000000E+00  0.45593999997E+02  0.45594000000E+02  0.51100000000E-03 0.  1.
         11   -1    0    0    0    0 -0.00000000000E+00 -0.00000000000E+00 -0.45593999997E+02  0.45594000000E+02  0.51100000000E-03 0. -1.
    9900012    2    1    2    0    0 -0.21349169666E+02  0.34176577333E+02  0.20131766205E+02  0.46142317697E+02  0.99999994131E+01 0.  0.
         12    1    1    2    0    0  0.21349169666E+02 -0.34176577333E+02 -0.20131766205E+02  0.45045682303E+02  0.00000000000E+00 0. -1.
         11    1    3    3    0    0 -0.14123789488E+02  0.23211630027E+02  0.14073857511E+02  0.30599586002E+02  0.51100000000E-03 0.  1.
        -11    1    3    3    0    0 -0.43904187290E+01  0.50944805578E+01  0.12257225566E+00  0.67264056515E+01  0.51100000000E-03 0. -1.
         12    1    3    3    0    0 -0.28349614495E+01  0.58704667481E+01  0.59353364383E+01  0.88163260430E+01  0.00000000000E+00 0. -1.
</event>
<event>
 7    1  0.2478637E-008  0.4614232E+02  0.7816164E-02  0.1320468E+00
        -11   -1    0    0    0    0  0.00000000000E+00  0.00000000000E+00  0.45593999997E+02  0.45594000000E+02  0.51100000000E-03 0.  1.
         11   -1    0    0    0    0 -0.00000000000E+00 -0.00000000000E+00 -0.45593999997E+02  0.45594000000E+02  0.51100000000E-03 0. -1.
    9900012    2    1    2    0    0 -0.25448626038E+02  0.60992908799E+01  0.36664418367E+02  0.46142317736E+02  0.99999997713E+01 0.  0.
         12    1    1    2    0    0  0.25448626038E+02 -0.60992908799E+01 -0.36664418367E+02  0.45045682264E+02  0.00000000000E+00 0. -1.
         11    1    3    3    0    0 -0.50499657542E+01  0.29788163922E+01  0.62644508129E+01  0.85801425084E+01  0.51100000000E-03 0. -1.
        -11    1    3    3    0    0 -0.16542523013E+02  0.71746272980E+00  0.18518558009E+02  0.24841634636E+02  0.51100000000E-03 0.  1.
         12    1    3    3    0    0 -0.38561372702E+01  0.24030117579E+01  0.11881409545E+02  0.12720540591E+02  0.00000000000E+00 0. -1.
</event>
<event>
 7    1  0.2478637E-008  0.4614232E+02  0.7816164E-02  0.1320468E+00
        -11   -1    0    0    0    0  0.00000000000E+00  0.00000000000E+00  0.45593999997E+02  0.45594000000E+02  0.51100000000E-03 0.  1.
         11   -1    0    0    0    0 -0.00000000000E+00 -0.00000000000E+00 -0.45593999997E+02  0.45594000000E+02  0.51100000000E-03 0. -1.
    9900012    2    1    2    0    0 -0.24989416529E+02  0.15391658012E+02  0.34172202408E+02  0.46142317718E+02  0.99999996099E+01 0.  0.
         12    1    1    2    0    0  0.24989416529E+02 -0.15391658012E+02 -0.34172202408E+02  0.45045682282E+02  0.00000000000E+00 0. -1.
         11    1    3    3    0    0 -0.14390726514E+01  0.19846792407E+01  0.76319802227E+01  0.80160466669E+01  0.51100000000E-03 0. -1.
        -11    1    3    3    0    0 -0.43154661214E+01  0.39707792603E+01  0.45293747963E+01  0.74098294235E+01  0.51100000000E-03 0.  1.
        -12    1    3    3    0    0 -0.19234877756E+02  0.94361995106E+01  0.22010847389E+02  0.30716441628E+02  0.00000000000E+00 0.  1.
</event>
<event>
 7    1  0.2478637E-008  0.4614232E+02  0.7816164E-02  0.1320468E+00
        -11   -1    0    0    0    0  0.00000000000E+00  0.00000000000E+00  0.45593999997E+02  0.45594000000E+02  0.51100000000E-03 0.  1.
         11   -1    0    0    0    0 -0.00000000000E+00 -0.00000000000E+00 -0.45593999997E+02  0.45594000000E+02  0.51100000000E-03 0. -1.
    9900012    2    1    2    0    0  0.80306604639E+01 -0.27880230764E+02  0.34457433865E+02  0.46142317371E+02  0.99999964384E+01 0.  0.
         12    1    1    2    0    0 -0.80306604639E+01  0.27880230764E+02 -0.34457433865E+02  0.45045682629E+02  0.00000000000E+00 0. -1.
         11    1    3    3    0    0  0.33539577764E+01 -0.15419477313E+02  0.22521061637E+02  0.27499227824E+02  0.51100000000E-03 0.  1.
        -11    1    3    3    0    0  0.24541757417E+00  0.29459141870E+00 -0.24693376058E+00  0.45605968131E+00  0.51100000000E-03 0. -1.
        -12    1    3    3    0    0  0.44312851134E+01 -0.12755344870E+02  0.12183305989E+02  0.18187029865E+02  0.00000000000E+00 0.  1.
</event>
<event>
 7    1  0.2478637E-008  0.4614232E+02  0.7816164E-02  0.1320468E+00
        -11   -1    0    0    0    0  0.00000000000E+00  0.00000000000E+00  0.45593999997E+02  0.45594000000E+02  0.51100000000E-03 0. -1.
         11   -1    0    0    0    0 -0.00000000000E+00 -0.00000000000E+00 -0.45593999997E+02  0.45594000000E+02  0.51100000000E-03 0.  1.
    9900012    2    1    2    0    0  0.41795726495E+01  0.43483824944E+02 -0.10990973577E+02  0.46142319192E+02  0.10000013050E+02 0.  0.
         12    1    1    2    0    0 -0.41795726495E+01 -0.43483824944E+02  0.10990973577E+02  0.45045680808E+02  0.00000000000E+00 0. -1.
         11    1    3    3    0    0  0.43446093814E+01  0.95892619964E+01 -0.11069107538E+01  0.10585595306E+02  0.51100000000E-03 0. -1.
        -11    1    3    3    0    0  0.17244539055E+00  0.27808428429E+02 -0.97209936686E+01  0.29459058832E+02  0.51100000000E-03 0.  1.
         12    1    3    3    0    0 -0.33748212246E+00  0.60861345179E+01 -0.16306915438E+00  0.60976650533E+01  0.00000000000E+00 0. -1.
</event>
<event>
 7    1  0.2478637E-008  0.4614232E+02  0.7816164E-02  0.1320468E+00
        -11   -1    0    0    0    0  0.00000000000E+00  0.00000000000E+00  0.45593999997E+02  0.45594000000E+02  0.51100000000E-03 0. -1.
         11   -1    0    0    0    0 -0.00000000000E+00 -0.00000000000E+00 -0.45593999997E+02  0.45594000000E+02  0.51100000000E-03 0.  1.
    9900012    2    1    2    0    0 -0.23626424711E+02  0.32492760335E+02 -0.20374641817E+02  0.46142318209E+02  0.10000004084E+02 0.  0.
         12    1    1    2    0    0  0.23626424711E+02 -0.32492760335E+02  0.20374641817E+02  0.45045681791E+02  0.00000000000E+00 0. -1.
         11    1    3    3    0    0 -0.10858523594E+02  0.17277047538E+02 -0.10899987036E+02  0.23134684436E+02  0.51100000000E-03 0. -1.
        -11    1    3    3    0    0 -0.90220285793E+01  0.14601584869E+02 -0.79745598471E+01  0.18926090071E+02  0.51100000000E-03 0.  1.
         12    1    3    3    0    0 -0.37458725383E+01  0.61412792825E+00 -0.15000949338E+01  0.40815437025E+01  0.00000000000E+00 0. -1.
</event>
<event>
 7    1  0.2478637E-008  0.4614232E+02  0.7816164E-02  0.1320468E+00
        -11   -1    0    0    0    0  0.00000000000E+00  0.00000000000E+00  0.45593999997E+02  0.45594000000E+02  0.51100000000E-03 0.  1.
         11   -1    0    0    0    0 -0.00000000000E+00 -0.00000000000E+00 -0.45593999997E+02  0.45594000000E+02  0.51100000000E-03 0. -1.
    9900012    2    1    2    0    0  0.11852370733E+02 -0.25628790088E+02  0.35097002630E+02  0.46142321328E+02  0.10000032528E+02 0.  0.
         12    1    1    2    0    0 -0.11852370733E+02  0.25628790088E+02 -0.35097002630E+02  0.45045678672E+02  0.00000000000E+00 0. -1.
         11    1    3    3    0    0 -0.10364823361E+01 -0.26521179220E+01  0.32114950415E+01  0.42920537937E+01  0.51100000000E-03 0. -1.
        -11    1    3    3    0    0  0.25594370662E+01 -0.92424246825E+01  0.14660488376E+02  0.17518648686E+02  0.51100000000E-03 0.  1.
         12    1    3    3    0    0  0.10329416003E+02 -0.13734247483E+02  0.17225019213E+02  0.24331618848E+02  0.00000000000E+00 0. -1.
</event>
<event>
 7    1  0.2478637E-008  0.4614232E+02  0.7816164E-02  0.1320468E+00
        -11   -1    0    0    0    0  0.00000000000E+00  0.00000000000E+00  0.45593999997E+02  0.45594000000E+02  0.51100000000E-03 0.  1.
         11   -1    0    0    0    0 -0.00000000000E+00 -0.00000000000E+00 -0.45593999997E+02  0.45594000000E+02  0.51100000000E-03 0. -1.
    9900012    2    1    2    0    0 -0.14772385421E+02 -0.25540507128E+02  0.34037810292E+02  0.46142318688E+02  0.10000008450E+02 0.  0.
         12    1    1    2    0    0  0.14772385421E+02  0.25540507128E+02 -0.34037810292E+02  0.45045681312E+02  0.00000000000E+00 0. -1.
         11    1    3    3    0    0  0.50300807477E+00 -0.41657474000E+00  0.14630951385E+00  0.66929692384E+00  0.51100000000E-03 0. -1.
        -11    1    3    3    0    0 -0.24289335538E+01 -0.84064054970E+01  0.64656317511E+01  0.10879878942E+02  0.51100000000E-03 0.  1.
        -12    1    3    3    0    0 -0.12846459942E+02 -0.16717526891E+02  0.27425869027E+02  0.34593142822E+02  0.00000000000E+00 0.  1.
</event>
<event>
 7    1  0.2478637E-008  0.4614232E+02  0.7816164E-02  0.1320468E+00
        -11   -1    0    0    0    0  0.00000000000E+00  0.00000000000E+00  0.45593999997E+02  0.45594000000E+02  0.51100000000E-03 0.  1.
         11   -1    0    0    0    0 -0.00000000000E+00 -0.00000000000E+00 -0.45593999997E+02  0.45594000000E+02  0.51100000000E-03 0. -1.
    9900012    2    1    2    0    0  0.42918957896E+02 -0.13622462443E+02  0.12267093024E+01  0.46142320455E+02  0.10000024569E+02 0.  0.
         12    1    1    2    0    0 -0.42918957896E+02  0.13622462443E+02 -0.12267093024E+01  0.45045679545E+02  0.00000000000E+00 0. -1.
         11    1    3    3    0    0  0.11339136078E+02 -0.36666286072E+01  0.32202924206E+01  0.12344652927E+02  0.51100000000E-03 0. -1.
        -11    1    3    3    0    0  0.17718806123E+02 -0.33708758125E+01  0.13670466377E+01  0.18088330795E+02  0.51100000000E-03 0.  1.
         12    1    3    3    0    0  0.13861015695E+02 -0.65849580233E+01 -0.33606297560E+01  0.15709336734E+02  0.00000000000E+00 0. -1.
</event>
<event>
 7    1  0.2478637E-008  0.4614232E+02  0.7816164E-02  0.1320468E+00
        -11   -1    0    0    0    0  0.00000000000E+00  0.00000000000E+00  0.45593999997E+02  0.45594000000E+02  0.51100000000E-03 0.  1.
         11   -1    0    0    0    0 -0.00000000000E+00 -0.00000000000E+00 -0.45593999997E+02  0.45594000000E+02  0.51100000000E-03 0. -1.
    9900012    2    1    2    0    0 -0.24195261693E+02  0.17041142362E+02  0.33960305177E+02  0.46142317087E+02  0.99999938522E+01 0.  0.
         12    1    1    2    0    0  0.24195261693E+02 -0.17041142362E+02 -0.33960305177E+02  0.45045682913E+02  0.00000000000E+00 0. -1.
         11    1    3    3    0    0 -0.30412148477E+01  0.61677282551E+00  0.84659604241E+01  0.90167556600E+01  0.51100000000E-03 0. -1.
        -11    1    3    3    0    0 -0.15356903137E+02  0.11300802600E+02  0.20027730984E+02  0.27652352919E+02  0.51100000000E-03 0.  1.
        -12    1    3    3    0    0 -0.57971437084E+01  0.51235669362E+01  0.54666137692E+01  0.94732085075E+01  0.00000000000E+00 0.  1.
</event>
<event>
 7    1  0.2478637E-008  0.4614232E+02  0.7816164E-02  0.1320468E+00
        -11   -1    0    0    0    0  0.00000000000E+00  0.00000000000E+00  0.45593999997E+02  0.45594000000E+02  0.51100000000E-03 0.  1.
         11   -1    0    0    0    0 -0.00000000000E+00 -0.00000000000E+00 -0.45593999997E+02  0.45594000000E+02  0.51100000000E-03 0. -1.
    9900012    2    1    2    0    0  0.22715448058E+01  0.11418657225E+02  0.43515145007E+02  0.46142317703E+02  0.99999994707E+01 0.  0.
         12    1    1    2    0    0 -0.22715448058E+01 -0.11418657225E+02 -0.43515145007E+02  0.45045682297E+02  0.00000000000E+00 0. -1.
         11    1    3    3    0    0  0.27897452670E+01  0.87622733733E+00  0.61057229636E+01  0.67698084294E+01  0.51100000000E-03 0. -1.
        -11    1    3    3    0    0  0.72882879615E+00  0.14112532799E+01  0.15804112606E+02  0.15883727609E+02  0.51100000000E-03 0.  1.
        -12    1    3    3    0    0 -0.12470292573E+01  0.91311766075E+01  0.21605309438E+02  0.23488781665E+02  0.00000000000E+00 0.  1.
</event>
<event>
 7    1  0.2478637E-008  0.4614232E+02  0.7816164E-02  0.1320468E+00
        -11   -1    0    0    0    0  0.00000000000E+00  0.00000000000E+00  0.45593999997E+02  0.45594000000E+02  0.51100000000E-03 0.  1.
         11   -1    0    0    0    0 -0.00000000000E+00 -0.00000000000E+00 -0.45593999997E+02  0.45594000000E+02  0.51100000000E-03 0. -1.
    9900012    2    1    2    0    0 -0.16809926464E+02  0.41791622666E+02 -0.12906589745E-01  0.46142317417E+02  0.99999968589E+01 0.  0.
         12    1    1    2    0    0  0.16809926464E+02 -0.41791622666E+02  0.12906589745E-01  0.45045682583E+02  0.00000000000E+00 0. -1.
         11    1    3    3    0    0 -0.36510730771E+00  0.36070120079E+01  0.17263709980E+01  0.40154944970E+01  0.51100000000E-03 0.  1.
        -11    1    3    3    0    0  0.15316824573E+00  0.48008475527E+00  0.69537602010E+00  0.85877235295E+00  0.51100000000E-03 0. -1.
        -12    1    3    3    0    0 -0.16597987402E+02  0.37704525903E+02 -0.24346536078E+01  0.41268050567E+02  0.00000000000E+00 0.  1.
</event>
<event>
 7    1  0.2478637E-008  0.4614232E+02  0.7816164E-02  0.1320468E+00
        -11   -1    0    0    0    0  0.00000000000E+00  0.00000000000E+00  0.45593999997E+02  0.45594000000E+02  0.51100000000E-03 0.  1.
         11   -1    0    0    0    0 -0.00000000000E+00 -0.00000000000E+00 -0.45593999997E+02  0.45594000000E+02  0.51100000000E-03 0. -1.
    9900012    2    1    2    0    0  0.10361693619E+02  0.22325100292E+02  0.37727160585E+02  0.46142318259E+02  0.10000004537E+02 0.  0.
         12    1    1    2    0    0 -0.10361693619E+02 -0.22325100292E+02 -0.37727160585E+02  0.45045681741E+02  0.00000000000E+00 0. -1.
         11    1    3    3    0    0  0.10199924179E+02  0.13225709339E+02  0.20096706877E+02  0.26131120686E+02  0.51100000000E-03 0. -1.
        -11    1    3    3    0    0  0.11514333753E+01  0.33299413535E+01  0.79954824060E+01  0.87373936275E+01  0.51100000000E-03 0.  1.
         12    1    3    3    0    0 -0.98966393493E+00  0.57694496000E+01  0.96349713025E+01  0.11273803945E+02  0.00000000000E+00 0. -1.
</event>
<event>
 7    1  0.2478637E-008  0.4614232E+02  0.7816164E-02  0.1320468E+00
        -11   -1    0    0    0    0  0.00000000000E+00  0.00000000000E+00  0.45593999997E+02  0.45594000000E+02  0.51100000000E-03 0.  1.
         11   -1    0    0    0    0 -0.00000000000E+00 -0.00000000000E+00 -0.45593999997E+02  0.45594000000E+02  0.51100000000E-03 0. -1.
    9900012    2    1    2    0    0  0.98249131279E+01  0.30129389078E+02  0.32012567997E+02  0.46142317477E+02  0.99999974101E+01 0.  0.
         12    1    1    2    0    0 -0.98249131279E+01 -0.30129389078E+02 -0.32012567997E+02  0.45045682523E+02  0.00000000000E+00 0. -1.
         11    1    3    3    0    0  0.73831580078E+01  0.17945972141E+02  0.15102827657E+02  0.24589923581E+02  0.51100000000E-03 0. -1.
        -11    1    3    3    0    0  0.20257511477E+01  0.10313312579E+02  0.10476644432E+02  0.14840086350E+02  0.51100000000E-03 0.  1.
         12    1    3    3    0    0  0.41600397245E+00  0.18701043577E+01  0.64330959088E+01  0.67123075455E+01  0.00000000000E+00 0. -1.
</event>
<event>
 7    1  0.2478637E-008  0.4614232E+02  0.7816164E-02  0.1320468E+00
        -11   -1    0    0    0    0  0.00000000000E+00  0.00000000000E+00  0.45593999997E+02  0.45594000000E+02  0.51100000000E-03 0.  1.
         11   -1    0    0    0    0 -0.00000000000E+00 -0.00000000000E+00 -0.45593999997E+02  0.45594000000E+02  0.51100000000E-03 0. -1.
    9900012    2    1    2    0    0  0.28235636722E+02  0.16215188941E+02  0.31127639793E+02  0.46142317715E+02  0.99999995788E+01 0.  0.
         12    1    1    2    0    0 -0.28235636722E+02 -0.16215188941E+02 -0.31127639793E+02  0.45045682285E+02  0.00000000000E+00 0. -1.
         11    1    3    3    0    0  0.33749456739E+01 -0.31637767083E+00  0.29629487141E+01  0.45021570915E+01  0.51100000000E-03 0. -1.
        -11    1    3    3    0    0  0.36413942038E+01  0.44041256285E+01  0.26193300481E+01  0.62862520201E+01  0.51100000000E-03 0.  1.
        -12    1    3    3    0    0  0.21219296844E+02  0.12127440983E+02  0.25545361031E+02  0.35353908603E+02  0.00000000000E+00 0.  1.
</event>
<event>
 7    1  0.2478637E-008  0.4614233E+02  0.7816164E-02  0.1320468E+00
        -11   -1    0    0    0    0  0.00000000000E+00  0.00000000000E+00  0.45593999997E+02  0.45594000000E+02  0.51100000000E-03 0. -1.
         11   -1    0    0    0    0 -0.00000000000E+00 -0.00000000000E+00 -0.45593999997E+02  0.45594000000E+02  0.51100000000E-03 0.  1.
    9900012    2    1    2    0    0  0.52318314158E+01 -0.20851270066E+01 -0.44692203137E+02  0.46142325004E+02  0.10000066045E+02 0.  0.
         12    1    1    2    0    0 -0.52318314158E+01  0.20851270066E+01  0.44692203137E+02  0.45045674996E+02  0.00000000000E+00 0. -1.
         11    1    3    3    0    0 -0.83980931810E+00 -0.12927047002E+01 -0.64553427110E+01  0.66368527865E+01  0.51100000000E-03 0.  1.
        -11    1    3    3    0    0  0.77432530098E+01 -0.15960070099E+01 -0.27680579322E+02  0.28787491684E+02  0.51100000000E-03 0. -1.
         12    1    3    3    0    0 -0.16716122759E+01  0.80358470343E+00 -0.10556281104E+02  0.10717980534E+02  0.00000000000E+00 0. -1.
</event>
<event>
 7    1  0.2478637E-008  0.4614232E+02  0.7816164E-02  0.1320468E+00
        -11   -1    0    0    0    0  0.00000000000E+00  0.00000000000E+00  0.45593999997E+02  0.45594000000E+02  0.51100000000E-03 0.  1.
         11   -1    0    0    0    0 -0.00000000000E+00 -0.00000000000E+00 -0.45593999997E+02  0.45594000000E+02  0.51100000000E-03 0. -1.
    9900012    2    1    2    0    0  0.25760633722E+02 -0.13674978066E+02  0.34329263756E+02  0.46142316245E+02  0.99999861790E+01 0.  0.
         12    1    1    2    0    0 -0.25760633722E+02  0.13674978066E+02 -0.34329263756E+02  0.45045683755E+02  0.00000000000E+00 0. -1.
         11    1    3    3    0    0  0.63595305101E+01 -0.36784243507E+01  0.14780910599E+02  0.16506051994E+02  0.51100000000E-03 0. -1.
        -11    1    3    3    0    0  0.10834419161E+02 -0.61383509142E+01  0.82297346869E+01  0.14926236089E+02  0.51100000000E-03 0.  1.
        -12    1    3    3    0    0  0.85666840515E+01 -0.38582028008E+01  0.11318618470E+02  0.14710028163E+02  0.00000000000E+00 0.  1.
</event>
<event>
 7    1  0.2478637E-008  0.4614232E+02  0.7816164E-02  0.1320468E+00
        -11   -1    0    0    0    0  0.00000000000E+00  0.00000000000E+00  0.45593999997E+02  0.45594000000E+02  0.51100000000E-03 0.  1.
         11   -1    0    0    0    0 -0.00000000000E+00 -0.00000000000E+00 -0.45593999997E+02  0.45594000000E+02  0.51100000000E-03 0. -1.
    9900012    2    1    2    0    0 -0.10793899470E+02 -0.29343674094E+02  0.32427672354E+02  0.46142318638E+02  0.10000007994E+02 0.  0.
         12    1    1    2    0    0  0.10793899470E+02  0.29343674094E+02 -0.32427672354E+02  0.45045681362E+02  0.00000000000E+00 0. -1.
         11    1    3    3    0    0 -0.45351999738E+01 -0.20059467216E+02  0.17596710832E+02  0.27066482892E+02  0.51100000000E-03 0. -1.
        -11    1    3    3    0    0 -0.52434976205E+01 -0.81184256295E+01  0.96036080735E+01  0.13624697805E+02  0.51100000000E-03 0.  1.
        -12    1    3    3    0    0 -0.10152018754E+01 -0.11657812483E+01  0.52273534483E+01  0.54511379399E+01  0.00000000000E+00 0.  1.
</event>
<event>
 7    1  0.2478637E-008  0.4614232E+02  0.7816164E-02  0.1320468E+00
        -11   -1    0    0    0    0  0.00000000000E+00  0.00000000000E+00  0.45593999997E+02  0.45594000000E+02  0.51100000000E-03 0.  1.
         11   -1    0    0    0    0 -0.00000000000E+00 -0.00000000000E+00 -0.45593999997E+02  0.45594000000E+02  0.51100000000E-03 0. -1.
    9900012    2    1    2    0    0 -0.35888841273E+02  0.16348028877E+02  0.21768017812E+02  0.46142316793E+02  0.99999911715E+01 0.  0.
         12    1    1    2    0    0  0.35888841273E+02 -0.16348028877E+02 -0.21768017812E+02  0.45045683207E+02  0.00000000000E+00 0. -1.
         11    1    3    3    0    0 -0.27487437288E+02  0.11792049885E+02  0.18186755778E+02  0.35005281532E+02  0.51100000000E-03 0. -1.
        -11    1    3    3    0    0 -0.59374722158E+01  0.15969994497E+01  0.38874547185E+01  0.72743582538E+01  0.51100000000E-03 0.  1.
         12    1    3    3    0    0 -0.24639317695E+01  0.29589795432E+01 -0.30619268428E+00  0.38626770071E+01  0.00000000000E+00 0. -1.
</event>
<event>
 7    1  0.2478637E-008  0.4614232E+02  0.7816164E-02  0.1320468E+00
        -11   -1    0    0    0    0  0.00000000000E+00  0.00000000000E+00  0.45593999997E+02  0.45594000000E+02  0.51100000000E-03 0. -1.
         11   -1    0    0    0    0 -0.00000000000E+00 -0.00000000000E+00 -0.45593999997E+02  0.45594000000E+02  0.51100000000E-03 0.  1.
    9900012    2    1    2    0    0 -0.11362861723E+02 -0.40846865186E+02 -0.15216192579E+02  0.46142317203E+02  0.99999949122E+01 0.  0.
         12    1    1    2    0    0  0.11362861723E+02  0.40846865186E+02  0.15216192579E+02  0.45045682797E+02  0.00000000000E+00 0. -1.
         11    1    3    3    0    0  0.24494825710E+00 -0.98407863905E-01 -0.13588184190E+01  0.13842223497E+01  0.51100000000E-03 0. -1.
        -11    1    3    3    0    0 -0.14419348717E+00 -0.39197930837E+01 -0.57895794984E+00  0.39649416326E+01  0.51100000000E-03 0.  1.
        -12    1    3    3    0    0 -0.11463616493E+02 -0.36828664238E+02 -0.13278416210E+02  0.40793153221E+02  0.00000000000E+00 0.  1.
</event>
<event>
 7    1  0.2923394E-008  0.4614233E+02  0.7816164E-02  0.1320468E+00
        -11   -1    0    0    0    0  0.00000000000E+00  0.00000000000E+00  0.45593999997E+02  0.45594000000E+02  0.51100000000E-03 0. -1.
         11   -1    0    0    0    0 -0.00000000000E+00 -0.00000000000E+00 -0.45593999997E+02  0.45594000000E+02  0.51100000000E-03 0.  1.
    9900012    2    1    2    0    0  0.12412563591E+02  0.29279439127E+02 -0.31902278395E+02  0.46142326986E+02  0.10000084123E+02 0.  0.
         12    1    1    2    0    0 -0.12412563591E+02 -0.29279439127E+02  0.31902278395E+02  0.45045673014E+02  0.00000000000E+00 0. -1.
         11    1    3    3    0    0  0.18598310555E+01  0.89665375538E+01 -0.51382090438E+01  0.10500426644E+02  0.51100000000E-03 0. -1.
        -11    1    3    3    0    0  0.46971452922E+00 -0.30593775849E+00 -0.91865502829E+00  0.10761770176E+01  0.51100000000E-03 0.  1.
        -12    1    3    3    0    0  0.10083018006E+02  0.20618839331E+02 -0.25845414323E+02  0.34565723325E+02  0.00000000000E+00 0.  1.
</event>
<event>
 7    1  0.2478637E-008  0.4614232E+02  0.7816164E-02  0.1320468E+00
        -11   -1    0    0    0    0  0.00000000000E+00  0.00000000000E+00  0.45593999997E+02  0.45594000000E+02  0.51100000000E-03 0.  1.
         11   -1    0    0    0    0 -0.00000000000E+00 -0.00000000000E+00 -0.45593999997E+02  0.45594000000E+02  0.51100000000E-03 0. -1.
    9900012    2    1    2    0    0  0.28657177692E+02  0.27803678921E+02 -0.20852697051E+02  0.46142319084E+02  0.10000012066E+02 0.  0.
         12    1    1    2    0    0 -0.28657177692E+02 -0.27803678921E+02  0.20852697051E+02  0.45045680916E+02  0.00000000000E+00 0. -1.
         11    1    3    3    0    0  0.95668297666E+01  0.59444312229E+01 -0.45372089356E+01  0.12142765728E+02  0.51100000000E-03 0. -1.
        -11    1    3    3    0    0  0.13042472120E+01  0.19402560626E+01  0.56792102691E+00  0.24058655267E+01  0.51100000000E-03 0.  1.
        -12    1    3    3    0    0  0.17786100714E+02  0.19918991636E+02 -0.16883409143E+02  0.31593687829E+02  0.00000000000E+00 0.  1.
</event>
<event>
 7    1  0.2478637E-008  0.4614232E+02  0.7816164E-02  0.1320468E+00
        -11   -1    0    0    0    0  0.00000000000E+00  0.00000000000E+00  0.45593999997E+02  0.45594000000E+02  0.51100000000E-03 0. -1.
         11   -1    0    0    0    0 -0.00000000000E+00 -0.00000000000E+00 -0.45593999997E+02  0.45594000000E+02  0.51100000000E-03 0.  1.
    9900012    2    1    2    0    0  0.33801182598E+02  0.24997308817E+02  0.16178015528E+02  0.46142316749E+02  0.99999907732E+01 0.  0.
         12    1    1    2    0    0 -0.33801182598E+02 -0.24997308817E+02 -0.16178015528E+02  0.45045683251E+02  0.00000000000E+00 0. -1.
         11    1    3    3    0    0  0.13270653306E+02  0.10873039199E+02  0.38818607955E+01  0.17589828427E+02  0.51100000000E-03 0.  1.
        -11    1    3    3    0    0 -0.39780501899E+00  0.50906163894E+00 -0.13740505567E+00  0.66050964854E+00  0.51100000000E-03 0. -1.
         12    1    3    3    0    0  0.20928334310E+02  0.13615207979E+02  0.12433559788E+02  0.27891978673E+02  0.00000000000E+00 0. -1.
</event>
<event>
 7    1  0.2478637E-008  0.4614232E+02  0.7816164E-02  0.1320468E+00
        -11   -1    0    0    0    0  0.00000000000E+00  0.00000000000E+00  0.45593999997E+02  0.45594000000E+02  0.51100000000E-03 0.  1.
         11   -1    0    0    0    0 -0.00000000000E+00 -0.00000000000E+00 -0.45593999997E+02  0.45594000000E+02  0.51100000000E-03 0. -1.
    9900012    2    1    2    0    0 -0.62471788667E+01 -0.19309127798E+02  0.40214970128E+02  0.46142317826E+02  0.10000000591E+02 0.  0.
         12    1    1    2    0    0  0.62471788667E+01  0.19309127798E+02 -0.40214970128E+02  0.45045682174E+02  0.00000000000E+00 0. -1.
         11    1    3    3    0    0 -0.43813993961E+00  0.26133883788E+00  0.25147272301E+01  0.25659536040E+01  0.51100000000E-03 0. -1.
        -11    1    3    3    0    0 -0.37344375215E+01 -0.21638396116E+01  0.79261129427E+01  0.90250480392E+01  0.51100000000E-03 0.  1.
         12    1    3    3    0    0 -0.20746014055E+01 -0.17406627024E+02  0.29774129956E+02  0.34551316183E+02  0.00000000000E+00 0. -1.
</event>
<event>
 7    1  0.2478637E-008  0.4614232E+02  0.7816164E-02  0.1320468E+00
        -11   -1    0    0    0    0  0.00000000000E+00  0.00000000000E+00  0.45593999997E+02  0.45594000000E+02  0.51100000000E-03 0.  1.
         11   -1    0    0    0    0 -0.00000000000E+00 -0.00000000000E+00 -0.45593999997E+02  0.45594000000E+02  0.51100000000E-03 0. -1.
    9900012    2    1    2    0    0  0.91653093318E+01 -0.13459986463E+02  0.41999278377E+02  0.46142317466E+02  0.99999973086E+01 0.  0.
         12    1    1    2    0    0 -0.91653093318E+01  0.13459986463E+02 -0.41999278377E+02  0.45045682534E+02  0.00000000000E+00 0. -1.
         11    1    3    3    0    0 -0.78732323362E+00 -0.14580654381E+01  0.10082819430E+01  0.19397075640E+01  0.51100000000E-03 0. -1.
        -11    1    3    3    0    0  0.17310382599E+01 -0.60772672252E+01  0.13575598030E+02  0.14974195555E+02  0.51100000000E-03 0.  1.
         12    1    3    3    0    0  0.82215943055E+01 -0.59246538001E+01  0.27415398404E+02  0.29228414347E+02  0.00000000000E+00 0. -1.
</event>
<event>
 7    1  0.2478637E-008  0.4614232E+02  0.7816164E-02  0.1320468E+00
        -11   -1    0    0    0    0  0.00000000000E+00  0.00000000000E+00  0.45593999997E+02  0.45594000000E+02  0.51100000000E-03 0.  1.
         11   -1    0    0    0    0 -0.00000000000E+00 -0.00000000000E+00 -0.45593999997E+02  0.45594000000E+02  0.51100000000E-03 0. -1.
    9900012    2    1    2    0    0  0.25113593433E+02  0.40509321578E+01  0.37175406417E+02  0.46142317980E+02  0.10000001992E+02 0.  0.
         12    1    1    2    0    0 -0.25113593433E+02 -0.40509321578E+01 -0.37175406417E+02  0.45045682020E+02  0.00000000000E+00 0. -1.
         11    1    3    3    0    0  0.14272710379E+02  0.55919950699E+01  0.16314311469E+02  0.22386099022E+02  0.51100000000E-03 0. -1.
        -11    1    3    3    0    0  0.83775917620E+01 -0.23464385544E+01  0.14860292709E+02  0.17219701428E+02  0.51100000000E-03 0.  1.
        -12    1    3    3    0    0  0.24632912915E+01  0.80537564235E+00  0.60008022386E+01  0.65365175299E+01  0.00000000000E+00 0.  1.
</event>
<event>
 7    1  0.2478637E-008  0.4614232E+02  0.7816164E-02  0.1320468E+00
        -11   -1    0    0    0    0  0.00000000000E+00  0.00000000000E+00  0.45593999997E+02  0.45594000000E+02  0.51100000000E-03 0.  1.
         11   -1    0    0    0    0 -0.00000000000E+00 -0.00000000000E+00 -0.45593999997E+02  0.45594000000E+02  0.51100000000E-03 0. -1.
    9900012    2    1    2    0    0  0.35141899868E+02 -0.16570739018E+02  0.22794099243E+02  0.46142317873E+02  0.10000001023E+02 0.  0.
         12    1    1    2    0    0 -0.35141899868E+02  0.16570739018E+02 -0.22794099243E+02  0.45045682127E+02  0.00000000000E+00 0. -1.
         11    1    3    3    0    0  0.13712341372E+02 -0.28315728356E+01  0.70602147041E+01  0.15680967526E+02  0.51100000000E-03 0. -1.
        -11    1    3    3    0    0  0.17817192142E+02 -0.86940752202E+01  0.11138325113E+02  0.22739867333E+02  0.51100000000E-03 0.  1.
         12    1    3    3    0    0  0.36123663545E+01 -0.50450909620E+01  0.45955594263E+01  0.77214830140E+01  0.00000000000E+00 0. -1.
</event>
<event>
 7    1  0.2478637E-008  0.4614232E+02  0.7816164E-02  0.1320468E+00
        -11   -1    0    0    0    0  0.00000000000E+00  0.00000000000E+00  0.45593999997E+02  0.45594000000E+02  0.51100000000E-03 0.  1.
         11   -1    0    0    0    0 -0.00000000000E+00 -0.00000000000E+00 -0.45593999997E+02  0.45594000000E+02  0.51100000000E-03 0. -1.
    9900012    2    1    2    0    0 -0.14973404737E+02 -0.33273053440E+02  0.26416179535E+02  0.46142317900E+02  0.10000001266E+02 0.  0.
         12    1    1    2    0    0  0.14973404737E+02  0.33273053440E+02 -0.26416179535E+02  0.45045682100E+02  0.00000000000E+00 0. -1.
         11    1    3    3    0    0 -0.22869526215E+01 -0.15312485508E+01  0.24700799059E+01  0.36981305305E+01  0.51100000000E-03 0. -1.
        -11    1    3    3    0    0 -0.30542782948E+01 -0.45357922962E+01  0.96802400103E+00  0.55532961729E+01  0.51100000000E-03 0.  1.
        -12    1    3    3    0    0 -0.96321738205E+01 -0.27206012593E+02  0.22978075628E+02  0.36890891197E+02  0.00000000000E+00 0.  1.
</event>
<event>
 7    1  0.2478637E-008  0.4614232E+02  0.7816164E-02  0.1320468E+00
        -11   -1    0    0    0    0  0.00000000000E+00  0.00000000000E+00  0.45593999997E+02  0.45594000000E+02  0.51100000000E-03 0.  1.
         11   -1    0    0    0    0 -0.00000000000E+00 -0.00000000000E+00 -0.45593999997E+02  0.45594000000E+02  0.51100000000E-03 0. -1.
    9900012    2    1    2    0    0 -0.43004425506E+02 -0.13369943562E+02 -0.98869510492E+00  0.46142317388E+02  0.99999965972E+01 0.  0.
         12    1    1    2    0    0  0.43004425506E+02  0.13369943562E+02  0.98869510492E+00  0.45045682612E+02  0.00000000000E+00 0. -1.
         11    1    3    3    0    0 -0.17687868322E+02 -0.85963803204E+01  0.25344178023E+00  0.19667808047E+02  0.51100000000E-03 0. -1.
        -11    1    3    3    0    0 -0.35514095921E+01 -0.25855260165E+01  0.93595310928E+00  0.44914878778E+01  0.51100000000E-03 0.  1.
         12    1    3    3    0    0 -0.21765147593E+02 -0.21880372250E+01 -0.21780899944E+01  0.21983021463E+02  0.00000000000E+00 0. -1.
</event>
<event>
 7    1  0.2478637E-008  0.4614232E+02  0.7816164E-02  0.1320468E+00
        -11   -1    0    0    0    0  0.00000000000E+00  0.00000000000E+00  0.45593999997E+02  0.45594000000E+02  0.51100000000E-03 0.  1.
         11   -1    0    0    0    0 -0.00000000000E+00 -0.00000000000E+00 -0.45593999997E+02  0.45594000000E+02  0.51100000000E-03 0. -1.
    9900012    2    1    2    0    0  0.10125060819E+02 -0.60539100548E+00  0.43888837924E+02  0.46142318196E+02  0.10000003963E+02 0.  0.
         12    1    1    2    0    0 -0.10125060819E+02  0.60539100548E+00 -0.43888837924E+02  0.45045681804E+02  0.00000000000E+00 0. -1.
         11    1    3    3    0    0  0.34872395500E+00  0.11470250892E+01  0.24380259960E+00  0.12234030083E+01  0.51100000000E-03 0. -1.
        -11    1    3    3    0    0  0.68085576098E+01 -0.22593227739E+01  0.24155469502E+02  0.25198168649E+02  0.51100000000E-03 0.  1.
         12    1    3    3    0    0  0.29677792541E+01  0.50690667918E+00  0.19489565822E+02  0.19720746538E+02  0.00000000000E+00 0. -1.
</event>
<event>
 7    1  0.2478637E-008  0.4614232E+02  0.7816164E-02  0.1320468E+00
        -11   -1    0    0    0    0  0.00000000000E+00  0.00000000000E+00  0.45593999997E+02  0.45594000000E+02  0.51100000000E-03 0. -1.
         11   -1    0    0    0    0 -0.00000000000E+00 -0.00000000000E+00 -0.45593999997E+02  0.45594000000E+02  0.51100000000E-03 0.  1.
    9900012    2    1    2    0    0  0.39275958172E+02  0.13814166694E+02 -0.17195386489E+02  0.46142318650E+02  0.10000008106E+02 0.  0.
         12    1    1    2    0    0 -0.39275958172E+02 -0.13814166694E+02  0.17195386489E+02  0.45045681350E+02  0.00000000000E+00 0. -1.
         11    1    3    3    0    0  0.14050932508E+02  0.33707967444E+01 -0.79519967194E+01  0.16493187295E+02  0.51100000000E-03 0. -1.
        -11    1    3    3    0    0  0.40556979945E+01  0.46575140075E+01 -0.13087457248E+01  0.63129975911E+01  0.51100000000E-03 0.  1.
        -12    1    3    3    0    0  0.21169327669E+02  0.57858559418E+01 -0.79346440447E+01  0.23336133764E+02  0.00000000000E+00 0.  1.
</event>
<event>
 7    1  0.2478637E-008  0.4614232E+02  0.7816164E-02  0.1320468E+00
        -11   -1    0    0    0    0  0.00000000000E+00  0.00000000000E+00  0.45593999997E+02  0.45594000000E+02  0.51100000000E-03 0.  1.
         11   -1    0    0    0    0 -0.00000000000E+00 -0.00000000000E+00 -0.45593999997E+02  0.45594000000E+02  0.51100000000E-03 0. -1.
    9900012    2    1    2    0    0  0.34508121991E+02 -0.25073241766E+02  0.14478797328E+02  0.46142317542E+02  0.99999980016E+01 0.  0.
         12    1    1    2    0    0 -0.34508121991E+02  0.25073241766E+02 -0.14478797328E+02  0.45045682458E+02  0.00000000000E+00 0. -1.
         11    1    3    3    0    0  0.10378802933E+02 -0.87319974081E+01  0.89203613443E+01  0.16233920532E+02  0.51100000000E-03 0. -1.
        -11    1    3    3    0    0  0.16812946882E+02 -0.10062961666E+02  0.51455440178E+01  0.20258701929E+02  0.51100000000E-03 0.  1.
        -12    1    3    3    0    0  0.73163721759E+01 -0.62782826919E+01  0.41289196626E+00  0.96496950808E+01  0.00000000000E+00 0.  1.
</event>
<event>
 7    1  0.2478637E-008  0.4614232E+02  0.7816164E-02  0.1320468E+00
        -11   -1    0    0    0    0  0.00000000000E+00  0.00000000000E+00  0.45593999997E+02  0.45594000000E+02  0.51100000000E-03 0.  1.
         11   -1    0    0    0    0 -0.00000000000E+00 -0.00000000000E+00 -0.45593999997E+02  0.45594000000E+02  0.51100000000E-03 0. -1.
    9900012    2    1    2    0    0  0.24405692271E+02  0.22428041967E+02  0.30503418740E+02  0.46142318336E+02  0.10000005243E+02 0.  0.
         12    1    1    2    0    0 -0.24405692271E+02 -0.22428041967E+02 -0.30503418740E+02  0.45045681664E+02  0.00000000000E+00 0. -1.
         11    1    3    3    0    0  0.10163042050E+01  0.21036727539E+01  0.51295208116E+01  0.56365146421E+01  0.51100000000E-03 0. -1.
        -11    1    3    3    0    0  0.45523070537E+01  0.34576592588E+01  0.79785302900E+01  0.98150829294E+01  0.51100000000E-03 0.  1.
        -12    1    3    3    0    0  0.18837081013E+02  0.16866709955E+02  0.17395367639E+02  0.30690720765E+02  0.00000000000E+00 0.  1.
</event>
<event>
 7    1  0.2478637E-008  0.4614232E+02  0.7816164E-02  0.1320468E+00
        -11   -1    0    0    0    0  0.00000000000E+00  0.00000000000E+00  0.45593999997E+02  0.45594000000E+02  0.51100000000E-03 0.  1.
         11   -1    0    0    0    0 -0.00000000000E+00 -0.00000000000E+00 -0.45593999997E+02  0.45594000000E+02  0.51100000000E-03 0. -1.
    9900012    2    1    2    0    0 -0.33652437939E+02 -0.29929754569E+02 -0.91471582992E+00  0.46142317711E+02  0.99999995472E+01 0.  0.
         12    1    1    2    0    0  0.33652437939E+02  0.29929754569E+02  0.91471582992E+00  0.45045682289E+02  0.00000000000E+00 0. -1.
         11    1    3    3    0    0 -0.37152373367E+01 -0.51845469499E+00 -0.61694358001E+00  0.38016316735E+01  0.51100000000E-03 0. -1.
        -11    1    3    3    0    0 -0.42760540439E+01 -0.70198239693E+01  0.85707535426E+00  0.82642086839E+01  0.51100000000E-03 0.  1.
        -12    1    3    3    0    0 -0.25661146559E+02 -0.22391475904E+02 -0.11548476042E+01  0.34076477354E+02  0.00000000000E+00 0.  1.
</event>
<event>
 7    1  0.2478637E-008  0.4614232E+02  0.7816164E-02  0.1320468E+00
        -11   -1    0    0    0    0  0.00000000000E+00  0.00000000000E+00  0.45593999997E+02  0.45594000000E+02  0.51100000000E-03 0.  1.
         11   -1    0    0    0    0 -0.00000000000E+00 -0.00000000000E+00 -0.45593999997E+02  0.45594000000E+02  0.51100000000E-03 0. -1.
    9900012    2    1    2    0    0 -0.27922748314E+02  0.34984395460E+02  0.50522895046E+01  0.46142318427E+02  0.10000006075E+02 0.  0.
         12    1    1    2    0    0  0.27922748314E+02 -0.34984395460E+02 -0.50522895046E+01  0.45045681573E+02  0.00000000000E+00 0. -1.
         11    1    3    3    0    0 -0.24760772694E+01  0.35659896898E+01  0.19795090882E+01  0.47713412793E+01  0.51100000000E-03 0.  1.
        -11    1    3    3    0    0 -0.18113419214E+02  0.15947955623E+02  0.20244101472E+01  0.24218412023E+02  0.51100000000E-03 0. -1.
         12    1    3    3    0    0 -0.73332518303E+01  0.15470450147E+02  0.10483702691E+01  0.17152565125E+02  0.00000000000E+00 0. -1.
</event>
<event>
 7    1  0.2478637E-008  0.4614232E+02  0.7816164E-02  0.1320468E+00
        -11   -1    0    0    0    0  0.00000000000E+00  0.00000000000E+00  0.45593999997E+02  0.45594000000E+02  0.51100000000E-03 0.  1.
         11   -1    0    0    0    0 -0.00000000000E+00 -0.00000000000E+00 -0.45593999997E+02  0.45594000000E+02  0.51100000000E-03 0. -1.
    9900012    2    1    2    0    0  0.13429000052E+01 -0.45018787744E+00  0.45023410404E+02  0.46142317256E+02  0.99999953895E+01 0.  0.
         12    1    1    2    0    0 -0.13429000052E+01  0.45018787744E+00 -0.45023410404E+02  0.45045682744E+02  0.00000000000E+00 0. -1.
         11    1    3    3    0    0  0.27092394394E+00  0.39065583524E+01  0.21662961705E+02  0.22014052513E+02  0.51100000000E-03 0. -1.
        -11    1    3    3    0    0  0.12881863788E+01 -0.30499572937E+01  0.21930897718E+02  0.22179403477E+02  0.51100000000E-03 0.  1.
         12    1    3    3    0    0 -0.21621031759E+00 -0.13067889362E+01  0.14295509810E+01  0.19488612656E+01  0.00000000000E+00 0. -1.
</event>
<event>
 7    1  0.2478637E-008  0.4614232E+02  0.7816164E-02  0.1320468E+00
        -11   -1    0    0    0    0  0.00000000000E+00  0.00000000000E+00  0.45593999997E+02  0.45594000000E+02  0.51100000000E-03 0.  1.
         11   -1    0    0    0    0 -0.00000000000E+00 -0.00000000000E+00 -0.45593999997E+02  0.45594000000E+02  0.51100000000E-03 0. -1.
    9900012    2    1    2    0    0 -0.82939727102E+01  0.41337937513E+02  0.15858702859E+02  0.46142317437E+02  0.99999970452E+01 0.  0.
         12    1    1    2    0    0  0.82939727102E+01 -0.41337937513E+02 -0.15858702859E+02  0.45045682563E+02  0.00000000000E+00 0. -1.
         11    1    3    3    0    0 -0.73846614527E+01  0.22764472167E+02  0.77811306385E+01  0.25165460697E+02  0.51100000000E-03 0. -1.
        -11    1    3    3    0    0 -0.14093870062E+00 -0.27512396912E+00 -0.20864400132E+00  0.37294704198E+00  0.51100000000E-03 0.  1.
        -12    1    3    3    0    0 -0.76837255694E+00  0.18848589316E+02  0.82862162219E+01  0.20603909698E+02  0.00000000000E+00 0.  1.
</event>
<event>
 7    1  0.2478637E-008  0.4614232E+02  0.7816164E-02  0.1320468E+00
        -11   -1    0    0    0    0  0.00000000000E+00  0.00000000000E+00  0.45593999997E+02  0.45594000000E+02  0.51100000000E-03 0.  1.
         11   -1    0    0    0    0 -0.00000000000E+00 -0.00000000000E+00 -0.45593999997E+02  0.45594000000E+02  0.51100000000E-03 0. -1.
    9900012    2    1    2    0    0 -0.22742224786E+01 -0.18816776256E+01  0.44948866458E+02  0.46142318804E+02  0.10000009510E+02 0.  0.
         12    1    1    2    0    0  0.22742224786E+01  0.18816776256E+01 -0.44948866458E+02  0.45045681196E+02  0.00000000000E+00 0. -1.
         11    1    3    3    0    0 -0.66109622822E+00 -0.78593324559E+00  0.78621888657E+00  0.12933985032E+01  0.51100000000E-03 0. -1.
        -11    1    3    3    0    0  0.11888209117E+01 -0.33337897981E+01  0.31175362457E+02  0.31375638227E+02  0.51100000000E-03 0.  1.
        -12    1    3    3    0    0 -0.28019471621E+01  0.22380454181E+01  0.12987285114E+02  0.13473282073E+02  0.00000000000E+00 0.  1.
</event>
<event>
 7    1  0.2478637E-008  0.4614232E+02  0.7816164E-02  0.1320468E+00
        -11   -1    0    0    0    0  0.00000000000E+00  0.00000000000E+00  0.45593999997E+02  0.45594000000E+02  0.51100000000E-03 0.  1.
         11   -1    0    0    0    0 -0.00000000000E+00 -0.00000000000E+00 -0.45593999997E+02  0.45594000000E+02  0.51100000000E-03 0. -1.
    9900012    2    1    2    0    0  0.22271058470E+02 -0.18373470240E+02  0.34576423157E+02  0.46142317716E+02  0.99999995901E+01 0.  0.
         12    1    1    2    0    0 -0.22271058470E+02  0.18373470240E+02 -0.34576423157E+02  0.45045682284E+02  0.00000000000E+00 0. -1.
         11    1    3    3    0    0  0.27674038132E+01 -0.30052609823E+01  0.83376231026E+00  0.41695655995E+01  0.51100000000E-03 0. -1.
        -11    1    3    3    0    0  0.28278162804E+01 -0.33058528790E+01  0.67148746106E+01  0.80009217888E+01  0.51100000000E-03 0.  1.
         12    1    3    3    0    0  0.16675838377E+02 -0.12062356379E+02  0.27027786236E+02  0.33971830328E+02  0.00000000000E+00 0. -1.
</event>
<event>
 7    1  0.2478637E-008  0.4614232E+02  0.7816164E-02  0.1320468E+00
        -11   -1    0    0    0    0  0.00000000000E+00  0.00000000000E+00  0.45593999997E+02  0.45594000000E+02  0.51100000000E-03 0.  1.
         11   -1    0    0    0    0 -0.00000000000E+00 -0.00000000000E+00 -0.45593999997E+02  0.45594000000E+02  0.51100000000E-03 0. -1.
    9900012    2    1    2    0    0  0.17975857488E+02 -0.18369669071E+02  0.36993747771E+02  0.46142316874E+02  0.99999919077E+01 0.  0.
         12    1    1    2    0    0 -0.17975857488E+02  0.18369669071E+02 -0.36993747771E+02  0.45045683126E+02  0.00000000000E+00 0. -1.
         11    1    3    3    0    0  0.32566451882E+00  0.52887399231E+00  0.30157393837E+01  0.30790338371E+01  0.51100000000E-03 0. -1.
        -11    1    3    3    0    0  0.16363078937E+01 -0.44521910698E+01  0.45024205308E+01  0.65399770445E+01  0.51100000000E-03 0.  1.
        -12    1    3    3    0    0  0.16013885076E+02 -0.14446351993E+02  0.29475587856E+02  0.36523305992E+02  0.00000000000E+00 0.  1.
</event>
<event>
 7    1  0.2478637E-008  0.4614232E+02  0.7816164E-02  0.1320468E+00
        -11   -1    0    0    0    0  0.00000000000E+00  0.00000000000E+00  0.45593999997E+02  0.45594000000E+02  0.51100000000E-03 0. -1.
         11   -1    0    0    0    0 -0.00000000000E+00 -0.00000000000E+00 -0.45593999997E+02  0.45594000000E+02  0.51100000000E-03 0.  1.
    9900012    2    1    2    0    0  0.23124902947E+02 -0.38177886322E+02 -0.60664116073E+01  0.46142317742E+02  0.99999998237E+01 0.  0.
         12    1    1    2    0    0 -0.23124902947E+02  0.38177886322E+02  0.60664116073E+01  0.45045682258E+02  0.00000000000E+00 0. -1.
         11    1    3    3    0    0  0.66495406271E+01 -0.15469230770E+02 -0.25857416782E+00  0.16839844181E+02  0.51100000000E-03 0. -1.
        -11    1    3    3    0    0  0.68831834799E+01 -0.11434869215E+02  0.14639463709E+00  0.13347504652E+02  0.51100000000E-03 0.  1.
         12    1    3    3    0    0  0.95921788399E+01 -0.11273786336E+02 -0.59542320766E+01  0.15954968909E+02  0.00000000000E+00 0. -1.
</event>
<event>
 7    1  0.2478637E-008  0.4614232E+02  0.7816164E-02  0.1320468E+00
        -11   -1    0    0    0    0  0.00000000000E+00  0.00000000000E+00  0.45593999997E+02  0.45594000000E+02  0.51100000000E-03 0. -1.
         11   -1    0    0    0    0 -0.00000000000E+00 -0.00000000000E+00 -0.45593999997E+02  0.45594000000E+02  0.51100000000E-03 0.  1.
    9900012    2    1    2    0    0  0.13352048741E+02  0.42909379536E+02  0.31018326877E+01  0.46142318479E+02  0.10000006542E+02 0.  0.
         12    1    1    2    0    0 -0.13352048741E+02 -0.42909379536E+02 -0.31018326877E+01  0.45045681521E+02  0.00000000000E+00 0. -1.
         11    1    3    3    0    0  0.85380895645E+01  0.22790962613E+02 -0.45556843061E-01  0.24337810623E+02  0.51100000000E-03 0. -1.
        -11    1    3    3    0    0  0.35961885252E+01  0.87621844814E+01 -0.12749773922E+01  0.95568831952E+01  0.51100000000E-03 0.  1.
        -12    1    3    3    0    0  0.12177706516E+01  0.11356232441E+02  0.44223669230E+01  0.12247624660E+02  0.00000000000E+00 0.  1.
</event>
<event>
 7    1  0.2478637E-008  0.4614232E+02  0.7816164E-02  0.1320468E+00
        -11   -1    0    0    0    0  0.00000000000E+00  0.00000000000E+00  0.45593999997E+02  0.45594000000E+02  0.51100000000E-03 0.  1.
         11   -1    0    0    0    0 -0.00000000000E+00 -0.00000000000E+00 -0.45593999997E+02  0.45594000000E+02  0.51100000000E-03 0. -1.
    9900012    2    1    2    0    0 -0.60375628560E+01 -0.26485601163E+02  0.35932913463E+02  0.46142317586E+02  0.99999983988E+01 0.  0.
         12    1    1    2    0    0  0.60375628560E+01  0.26485601163E+02 -0.35932913463E+02  0.45045682414E+02  0.00000000000E+00 0. -1.
         11    1    3    3    0    0 -0.82669197846E-01 -0.67643915218E+01  0.45403171295E+01  0.81472883067E+01  0.51100000000E-03 0. -1.
        -11    1    3    3    0    0 -0.79129628107E+00 -0.84336302551E+01  0.87824190209E+01  0.12201768446E+02  0.51100000000E-03 0.  1.
         12    1    3    3    0    0 -0.51635973770E+01 -0.11287579387E+02  0.22610177313E+02  0.25793260833E+02  0.00000000000E+00 0. -1.
</event>
<event>
 7    1  0.2478637E-008  0.4614232E+02  0.7816164E-02  0.1320468E+00
        -11   -1    0    0    0    0  0.00000000000E+00  0.00000000000E+00  0.45593999997E+02  0.45594000000E+02  0.51100000000E-03 0. -1.
         11   -1    0    0    0    0 -0.00000000000E+00 -0.00000000000E+00 -0.45593999997E+02  0.45594000000E+02  0.51100000000E-03 0.  1.
    9900012    2    1    2    0    0 -0.43185437979E+02 -0.83919777751E+01 -0.96802030128E+01  0.46142315692E+02  0.99999811356E+01 0.  0.
         12    1    1    2    0    0  0.43185437979E+02  0.83919777751E+01  0.96802030128E+01  0.45045684308E+02  0.00000000000E+00 0. -1.
         11    1    3    3    0    0 -0.28580544595E+01  0.84454104176E+00  0.24226753040E+00  0.29900532909E+01  0.51100000000E-03 0. -1.
        -11    1    3    3    0    0 -0.33669902346E+02 -0.74919653461E+01 -0.53909197368E+01  0.34912087944E+02  0.51100000000E-03 0.  1.
         12    1    3    3    0    0 -0.66574811732E+01 -0.17445534707E+01 -0.45315508063E+01  0.82401744578E+01  0.00000000000E+00 0. -1.
</event>
<event>
 7    1  0.2478637E-008  0.4614232E+02  0.7816164E-02  0.1320468E+00
        -11   -1    0    0    0    0  0.00000000000E+00  0.00000000000E+00  0.45593999997E+02  0.45594000000E+02  0.51100000000E-03 0.  1.
         11   -1    0    0    0    0 -0.00000000000E+00 -0.00000000000E+00 -0.45593999997E+02  0.45594000000E+02  0.51100000000E-03 0. -1.
    9900012    2    1    2    0    0 -0.41642692684E+01  0.22056081275E+02  0.39055108878E+02  0.46142318862E+02  0.10000010034E+02 0.  0.
         12    1    1    2    0    0  0.41642692684E+01 -0.22056081275E+02 -0.39055108878E+02  0.45045681138E+02  0.00000000000E+00 0. -1.
         11    1    3    3    0    0 -0.14231729947E+01  0.32923491947E+01  0.82243295502E+01  0.89724345305E+01  0.51100000000E-03 0. -1.
        -11    1    3    3    0    0  0.20595818224E+01  0.12626840329E+02  0.16748665332E+02  0.21075976007E+02  0.51100000000E-03 0.  1.
         12    1    3    3    0    0 -0.48006780960E+01  0.61368917507E+01  0.14082113996E+02  0.16093908324E+02  0.00000000000E+00 0. -1.
</event>
<event>
 7    1  0.2478637E-008  0.4614233E+02  0.7816164E-02  0.1320468E+00
        -11   -1    0    0    0    0  0.00000000000E+00  0.00000000000E+00  0.45593999997E+02  0.45594000000E+02  0.51100000000E-03 0.  1.
         11   -1    0    0    0    0 -0.00000000000E+00 -0.00000000000E+00 -0.45593999997E+02  0.45594000000E+02  0.51100000000E-03 0. -1.
    9900012    2    1    2    0    0  0.16912741228E+02 -0.74894942396E+01  0.41072854391E+02  0.46142326427E+02  0.10000079023E+02 0.  0.
         12    1    1    2    0    0 -0.16912741228E+02  0.74894942396E+01 -0.41072854391E+02  0.45045673573E+02  0.00000000000E+00 0. -1.
         11    1    3    3    0    0  0.49669057074E+00 -0.14035965651E+00 -0.31097727778E+00  0.60258566582E+00  0.51100000000E-03 0. -1.
        -11    1    3    3    0    0  0.60700763518E+01 -0.40779107957E+01  0.10422006533E+02  0.12731590781E+02  0.51100000000E-03 0.  1.
         12    1    3    3    0    0  0.10345974306E+02 -0.32712237874E+01  0.30961825136E+02  0.32808149981E+02  0.00000000000E+00 0. -1.
</event>
<event>
 7    1  0.2478637E-008  0.4614232E+02  0.7816164E-02  0.1320468E+00
        -11   -1    0    0    0    0  0.00000000000E+00  0.00000000000E+00  0.45593999997E+02  0.45594000000E+02  0.51100000000E-03 0.  1.
         11   -1    0    0    0    0 -0.00000000000E+00 -0.00000000000E+00 -0.45593999997E+02  0.45594000000E+02  0.51100000000E-03 0. -1.
    9900012    2    1    2    0    0  0.30538260297E+02  0.31265259971E+01 -0.32965936397E+02  0.46142317973E+02  0.10000001929E+02 0.  0.
         12    1    1    2    0    0 -0.30538260297E+02 -0.31265259971E+01  0.32965936397E+02  0.45045682027E+02  0.00000000000E+00 0. -1.
         11    1    3    3    0    0  0.62502897909E+01 -0.26957149644E+01 -0.54993613329E+01  0.87507700787E+01  0.51100000000E-03 0. -1.
        -11    1    3    3    0    0  0.60927421265E+01 -0.37983792726E+00 -0.57051883306E+01  0.83555345502E+01  0.51100000000E-03 0.  1.
         12    1    3    3    0    0  0.18195228380E+02  0.62020788887E+01 -0.21761386733E+02  0.29036013344E+02  0.00000000000E+00 0. -1.
</event>
<event>
 7    1  0.2478637E-008  0.4614232E+02  0.7816164E-02  0.1320468E+00
        -11   -1    0    0    0    0  0.00000000000E+00  0.00000000000E+00  0.45593999997E+02  0.45594000000E+02  0.51100000000E-03 0.  1.
         11   -1    0    0    0    0 -0.00000000000E+00 -0.00000000000E+00 -0.45593999997E+02  0.45594000000E+02  0.51100000000E-03 0. -1.
    9900012    2    1    2    0    0  0.17790407384E+02  0.23257663648E+01  0.41318344569E+02  0.46142318942E+02  0.10000010764E+02 0.  0.
         12    1    1    2    0    0 -0.17790407384E+02 -0.23257663648E+01 -0.41318344569E+02  0.45045681058E+02  0.00000000000E+00 0. -1.
         11    1    3    3    0    0  0.36958381048E+00  0.54327124227E+00  0.86551884027E+01  0.86800934548E+01  0.51100000000E-03 0. -1.
        -11    1    3    3    0    0  0.51156934072E+01 -0.18391426192E+01  0.81653905652E+01  0.98095039606E+01  0.51100000000E-03 0.  1.
        -12    1    3    3    0    0  0.12305130166E+02  0.36216377417E+01  0.24497765601E+02  0.27652721526E+02  0.00000000000E+00 0.  1.
</event>
<event>
 7    1  0.2478637E-008  0.4614232E+02  0.7816164E-02  0.1320468E+00
        -11   -1    0    0    0    0  0.00000000000E+00  0.00000000000E+00  0.45593999997E+02  0.45594000000E+02  0.51100000000E-03 0.  1.
         11   -1    0    0    0    0 -0.00000000000E+00 -0.00000000000E+00 -0.45593999997E+02  0.45594000000E+02  0.51100000000E-03 0. -1.
    9900012    2    1    2    0    0  0.24350279240E+02  0.94127566070E+01  0.36709366235E+02  0.46142315907E+02  0.99999830967E+01 0.  0.
         12    1    1    2    0    0 -0.24350279240E+02 -0.94127566070E+01 -0.36709366235E+02  0.45045684093E+02  0.00000000000E+00 0. -1.
         11    1    3    3    0    0  0.61806454226E+01  0.16733233829E+01  0.45002380039E+01  0.78263996407E+01  0.51100000000E-03 0. -1.
        -11    1    3    3    0    0  0.57191850189E+01  0.19413805913E+01  0.50151296115E+01  0.78504497427E+01  0.51100000000E-03 0.  1.
        -12    1    3    3    0    0  0.12450448799E+02  0.57980526328E+01  0.27193998619E+02  0.30465466524E+02  0.00000000000E+00 0.  1.
</event>
<event>
 7    1  0.2478637E-008  0.4614232E+02  0.7816164E-02  0.1320468E+00
        -11   -1    0    0    0    0  0.00000000000E+00  0.00000000000E+00  0.45593999997E+02  0.45594000000E+02  0.51100000000E-03 0.  1.
         11   -1    0    0    0    0 -0.00000000000E+00 -0.00000000000E+00 -0.45593999997E+02  0.45594000000E+02  0.51100000000E-03 0. -1.
    9900012    2    1    2    0    0  0.13581943490E+02  0.32261416748E+02  0.28352165514E+02  0.46142317755E+02  0.99999999456E+01 0.  0.
         12    1    1    2    0    0 -0.13581943490E+02 -0.32261416748E+02 -0.28352165514E+02  0.45045682245E+02  0.00000000000E+00 0. -1.
         11    1    3    3    0    0  0.42042326393E+01  0.93869827794E+01  0.10351479450E+02  0.14592605828E+02  0.51100000000E-03 0. -1.
        -11    1    3    3    0    0  0.10157391150E+02  0.15963838096E+02  0.13876904495E+02  0.23464551996E+02  0.51100000000E-03 0.  1.
         12    1    3    3    0    0 -0.77968029951E+00  0.69105958732E+01  0.41237815690E+01  0.80851599317E+01  0.00000000000E+00 0. -1.
</event>
<event>
 7    1  0.2478637E-008  0.4614232E+02  0.7816164E-02  0.1320468E+00
        -11   -1    0    0    0    0  0.00000000000E+00  0.00000000000E+00  0.45593999997E+02  0.45594000000E+02  0.51100000000E-03 0.  1.
         11   -1    0    0    0    0 -0.00000000000E+00 -0.00000000000E+00 -0.45593999997E+02  0.45594000000E+02  0.51100000000E-03 0. -1.
    9900012    2    1    2    0    0  0.29077814421E+02  0.19455079213E+02  0.28374180218E+02  0.46142317613E+02  0.99999986451E+01 0.  0.
         12    1    1    2    0    0 -0.29077814421E+02 -0.19455079213E+02 -0.28374180218E+02  0.45045682387E+02  0.00000000000E+00 0. -1.
         11    1    3    3    0    0  0.93186153342E+01  0.14210922887E+01  0.64670750247E+01  0.11431498357E+02  0.51100000000E-03 0. -1.
        -11    1    3    3    0    0  0.79020537288E+01  0.56052603555E+01  0.90132230531E+01  0.13232520049E+02  0.51100000000E-03 0.  1.
         12    1    3    3    0    0  0.11857145358E+02  0.12428726569E+02  0.12893882140E+02  0.21478299207E+02  0.00000000000E+00 0. -1.
</event>
<event>
 7    1  0.2478637E-008  0.4614232E+02  0.7816164E-02  0.1320468E+00
        -11   -1    0    0    0    0  0.00000000000E+00  0.00000000000E+00  0.45593999997E+02  0.45594000000E+02  0.51100000000E-03 0. -1.
         11   -1    0    0    0    0 -0.00000000000E+00 -0.00000000000E+00 -0.45593999997E+02  0.45594000000E+02  0.51100000000E-03 0.  1.
    9900012    2    1    2    0    0 -0.42411828537E+02  0.11983618913E+02 -0.93135799799E+01  0.46142322136E+02  0.10000039898E+02 0.  0.
         12    1    1    2    0    0  0.42411828537E+02 -0.11983618913E+02  0.93135799799E+01  0.45045677864E+02  0.00000000000E+00 0. -1.
         11    1    3    3    0    0 -0.11528123199E+02  0.34138116250E+01  0.42372613830E+00  0.12030431348E+02  0.51100000000E-03 0. -1.
        -11    1    3    3    0    0 -0.57472062499E+01  0.39256671662E+01 -0.68143064280E+00  0.69932532029E+01  0.51100000000E-03 0.  1.
        -12    1    3    3    0    0 -0.25136499088E+02  0.46441401217E+01 -0.90558754754E+01  0.27118637586E+02  0.00000000000E+00 0.  1.
</event>
<event>
 7    1  0.2478637E-008  0.4614232E+02  0.7816164E-02  0.1320468E+00
        -11   -1    0    0    0    0  0.00000000000E+00  0.00000000000E+00  0.45593999997E+02  0.45594000000E+02  0.51100000000E-03 0.  1.
         11   -1    0    0    0    0 -0.00000000000E+00 -0.00000000000E+00 -0.45593999997E+02  0.45594000000E+02  0.51100000000E-03 0. -1.
    9900012    2    1    2    0    0 -0.31268159137E+02  0.23934927234E+02  0.21875440802E+02  0.46142318434E+02  0.10000006132E+02 0.  0.
         12    1    1    2    0    0  0.31268159137E+02 -0.23934927234E+02 -0.21875440802E+02  0.45045681566E+02  0.00000000000E+00 0. -1.
         11    1    3    3    0    0 -0.61366406992E+01  0.60900965189E+01  0.60360053453E+01  0.10544239919E+02  0.51100000000E-03 0. -1.
        -11    1    3    3    0    0 -0.24152403209E+02  0.15319810050E+02  0.12281478843E+02  0.31126674792E+02  0.51100000000E-03 0.  1.
         12    1    3    3    0    0 -0.97911522864E+00  0.25250206646E+01  0.35579566138E+01  0.44714037230E+01  0.00000000000E+00 0. -1.
</event>
<event>
 7    1  0.2478637E-008  0.4614232E+02  0.7816164E-02  0.1320468E+00
        -11   -1    0    0    0    0  0.00000000000E+00  0.00000000000E+00  0.45593999997E+02  0.45594000000E+02  0.51100000000E-03 0.  1.
         11   -1    0    0    0    0 -0.00000000000E+00 -0.00000000000E+00 -0.45593999997E+02  0.45594000000E+02  0.51100000000E-03 0. -1.
    9900012    2    1    2    0    0  0.25473666348E+02  0.31232005887E+02  0.20118839847E+02  0.46142316680E+02  0.99999901434E+01 0.  0.
         12    1    1    2    0    0 -0.25473666348E+02 -0.31232005887E+02 -0.20118839847E+02  0.45045683320E+02  0.00000000000E+00 0. -1.
         11    1    3    3    0    0  0.60963777332E+01  0.79723268337E+01  0.35347747197E+01  0.10640415837E+02  0.51100000000E-03 0. -1.
        -11    1    3    3    0    0  0.82019268040E+01  0.14654498587E+02  0.58716782489E+01  0.17790518201E+02  0.51100000000E-03 0.  1.
         12    1    3    3    0    0  0.11175361811E+02  0.86051804668E+01  0.10712386878E+02  0.17711382642E+02  0.00000000000E+00 0. -1.
</event>
<event>
 7    1  0.2478637E-008  0.4614232E+02  0.7816164E-02  0.1320468E+00
        -11   -1    0    0    0    0  0.00000000000E+00  0.00000000000E+00  0.45593999997E+02  0.45594000000E+02  0.51100000000E-03 0.  1.
         11   -1    0    0    0    0 -0.00000000000E+00 -0.00000000000E+00 -0.45593999997E+02  0.45594000000E+02  0.51100000000E-03 0. -1.
    9900012    2    1    2    0    0 -0.17842276966E+02 -0.36958456955E+02  0.18569843949E+02  0.46142317719E+02  0.99999996143E+01 0.  0.
         12    1    1    2    0    0  0.17842276966E+02  0.36958456955E+02 -0.18569843949E+02  0.45045682281E+02  0.00000000000E+00 0. -1.
         11    1    3    3    0    0 -0.30941282667E+01 -0.35386023871E+01  0.61068432773E+00  0.47400709060E+01  0.51100000000E-03 0. -1.
        -11    1    3    3    0    0 -0.71989770818E+01 -0.92710992744E+01  0.34425357730E+01  0.12232318079E+02  0.51100000000E-03 0.  1.
         12    1    3    3    0    0 -0.75491716179E+01 -0.24148755294E+02  0.14516623849E+02  0.29169928734E+02  0.00000000000E+00 0. -1.
</event>
<event>
 7    1  0.2478637E-008  0.4614231E+02  0.7816164E-02  0.1320468E+00
        -11   -1    0    0    0    0  0.00000000000E+00  0.00000000000E+00  0.45593999997E+02  0.45594000000E+02  0.51100000000E-03 0.  1.
         11   -1    0    0    0    0 -0.00000000000E+00 -0.00000000000E+00 -0.45593999997E+02  0.45594000000E+02  0.51100000000E-03 0. -1.
    9900012    2    1    2    0    0 -0.48457145862E+00 -0.19180676605E+02  0.40755136336E+02  0.46142308727E+02  0.99999176179E+01 0.  0.
         12    1    1    2    0    0  0.48457145862E+00  0.19180676605E+02 -0.40755136336E+02  0.45045691273E+02  0.00000000000E+00 0. -1.
         11    1    3    3    0    0  0.12097213909E+01 -0.67308683125E+01  0.11516921128E+02  0.13394307993E+02  0.51100000000E-03 0.  1.
        -11    1    3    3    0    0  0.36990580372E+00  0.94624226497E+00  0.10012968314E+01  0.14264642769E+01  0.51100000000E-03 0. -1.
         12    1    3    3    0    0 -0.20641986533E+01 -0.13396050557E+02  0.28236918377E+02  0.31321536457E+02  0.00000000000E+00 0. -1.
</event>
<event>
 7    1  0.2478637E-008  0.4614232E+02  0.7816164E-02  0.1320468E+00
        -11   -1    0    0    0    0  0.00000000000E+00  0.00000000000E+00  0.45593999997E+02  0.45594000000E+02  0.51100000000E-03 0.  1.
         11   -1    0    0    0    0 -0.00000000000E+00 -0.00000000000E+00 -0.45593999997E+02  0.45594000000E+02  0.51100000000E-03 0. -1.
    9900012    2    1    2    0    0  0.41886922681E+02  0.10187007110E+02 -0.13069955507E+02  0.46142321600E+02  0.10000035005E+02 0.  0.
         12    1    1    2    0    0 -0.41886922681E+02 -0.10187007110E+02  0.13069955507E+02  0.45045678400E+02  0.00000000000E+00 0. -1.
         11    1    3    3    0    0  0.83122704418E+01 -0.17653776546E+00 -0.52680189644E+01  0.98426129433E+01  0.51100000000E-03 0. -1.
        -11    1    3    3    0    0  0.23707549019E+01 -0.46586486839E+00 -0.37035406499E+00  0.24443140704E+01  0.51100000000E-03 0.  1.
        -12    1    3    3    0    0  0.31203897337E+02  0.10829409744E+02 -0.74315824780E+01  0.33855394586E+02  0.00000000000E+00 0.  1.
</event>
<event>
 7    1  0.2478637E-008  0.4614232E+02  0.7816164E-02  0.1320468E+00
        -11   -1    0    0    0    0  0.00000000000E+00  0.00000000000E+00  0.45593999997E+02  0.45594000000E+02  0.51100000000E-03 0. -1.
         11   -1    0    0    0    0 -0.00000000000E+00 -0.00000000000E+00 -0.45593999997E+02  0.45594000000E+02  0.51100000000E-03 0.  1.
    9900012    2    1    2    0    0  0.27663142989E+02  0.18554874244E+02 -0.30324587741E+02  0.46142318077E+02  0.10000002882E+02 0.  0.
         12    1    1    2    0    0 -0.27663142989E+02 -0.18554874244E+02  0.30324587741E+02  0.45045681923E+02  0.00000000000E+00 0. -1.
         11    1    3    3    0    0  0.82359115487E+01  0.65907860416E+01 -0.14206113111E+02  0.17694133199E+02  0.51100000000E-03 0.  1.
        -11    1    3    3    0    0  0.23163810475E+01  0.38209171672E+01 -0.25864771063E+01  0.51628377118E+01  0.51100000000E-03 0. -1.
        -12    1    3    3    0    0  0.17110850393E+02  0.81431710353E+01 -0.13531997523E+02  0.23285347166E+02  0.00000000000E+00 0.  1.
</event>
<event>
 7    1  0.2478637E-008  0.4614232E+02  0.7816164E-02  0.1320468E+00
        -11   -1    0    0    0    0  0.00000000000E+00  0.00000000000E+00  0.45593999997E+02  0.45594000000E+02  0.51100000000E-03 0.  1.
         11   -1    0    0    0    0 -0.00000000000E+00 -0.00000000000E+00 -0.45593999997E+02  0.45594000000E+02  0.51100000000E-03 0. -1.
    9900012    2    1    2    0    0  0.59372939499E+01 -0.27290209392E+02  0.35342700694E+02  0.46142317849E+02  0.10000000802E+02 0.  0.
         12    1    1    2    0    0 -0.59372939499E+01  0.27290209392E+02 -0.35342700694E+02  0.45045682151E+02  0.00000000000E+00 0. -1.
         11    1    3    3    0    0 -0.15476912367E+01 -0.10986379491E+02  0.15556484220E+02  0.19107592314E+02  0.51100000000E-03 0. -1.
        -11    1    3    3    0    0  0.27388566838E+01 -0.10826771083E+02  0.12365892955E+02  0.16662401293E+02  0.51100000000E-03 0.  1.
         12    1    3    3    0    0  0.47461285027E+01 -0.54770588179E+01  0.74203235191E+01  0.10372324242E+02  0.00000000000E+00 0. -1.
</event>
<event>
 7    1  0.2478637E-008  0.4614232E+02  0.7816164E-02  0.1320468E+00
        -11   -1    0    0    0    0  0.00000000000E+00  0.00000000000E+00  0.45593999997E+02  0.45594000000E+02  0.51100000000E-03 0.  1.
         11   -1    0    0    0    0 -0.00000000000E+00 -0.00000000000E+00 -0.45593999997E+02  0.45594000000E+02  0.51100000000E-03 0. -1.
    9900012    2    1    2    0    0 -0.11124972758E+02 -0.15619718227E+02  0.40759942483E+02  0.46142317326E+02  0.99999960320E+01 0.  0.
         12    1    1    2    0    0  0.11124972758E+02  0.15619718227E+02 -0.40759942483E+02  0.45045682674E+02  0.00000000000E+00 0. -1.
         11    1    3    3    0    0 -0.32903896580E+01 -0.15758855756E+01  0.12718287414E+02  0.13231209864E+02  0.51100000000E-03 0. -1.
        -11    1    3    3    0    0  0.10601933018E+01 -0.13330721002E+01  0.24379252311E+01  0.29739823058E+01  0.51100000000E-03 0.  1.
        -12    1    3    3    0    0 -0.88947764019E+01 -0.12710760551E+02  0.25603729837E+02  0.29937125156E+02  0.00000000000E+00 0.  1.
</event>
<event>
 7    1  0.2478637E-008  0.4614232E+02  0.7816164E-02  0.1320468E+00
        -11   -1    0    0    0    0  0.00000000000E+00  0.00000000000E+00  0.45593999997E+02  0.45594000000E+02  0.51100000000E-03 0.  1.
         11   -1    0    0    0    0 -0.00000000000E+00 -0.00000000000E+00 -0.45593999997E+02  0.45594000000E+02  0.51100000000E-03 0. -1.
    9900012    2    1    2    0    0  0.69430593232E+01 -0.24328564701E+02  0.37269666639E+02  0.46142321134E+02  0.10000030754E+02 0.  0.
         12    1    1    2    0    0 -0.69430593232E+01  0.24328564701E+02 -0.37269666639E+02  0.45045678866E+02  0.00000000000E+00 0. -1.
         11    1    3    3    0    0  0.38227773836E+01 -0.31113205362E+01  0.68256241181E+01  0.84192094205E+01  0.51100000000E-03 0. -1.
        -11    1    3    3    0    0  0.23717690706E+01 -0.79376312129E+01  0.73608264457E+01  0.11082104675E+02  0.51100000000E-03 0.  1.
         12    1    3    3    0    0  0.74851286899E+00 -0.13279612952E+02  0.23083216075E+02  0.26641007039E+02  0.00000000000E+00 0. -1.
</event>
<event>
 7    1  0.2478637E-008  0.4614232E+02  0.7816164E-02  0.1320468E+00
        -11   -1    0    0    0    0  0.00000000000E+00  0.00000000000E+00  0.45593999997E+02  0.45594000000E+02  0.51100000000E-03 0. -1.
         11   -1    0    0    0    0 -0.00000000000E+00 -0.00000000000E+00 -0.45593999997E+02  0.45594000000E+02  0.51100000000E-03 0.  1.
    9900012    2    1    2    0    0 -0.88494462224E+01  0.92795120712E+01 -0.43182073171E+02  0.46142317787E+02  0.10000000237E+02 0.  0.
         12    1    1    2    0    0  0.88494462224E+01 -0.92795120712E+01  0.43182073171E+02  0.45045682213E+02  0.00000000000E+00 0. -1.
         11    1    3    3    0    0  0.31904405240E+00 -0.39764857153E+00  0.22639160274E+00  0.55782337054E+00  0.51100000000E-03 0. -1.
        -11    1    3    3    0    0 -0.43351168459E+01  0.71666971146E+01 -0.28821809730E+02  0.30014188344E+02  0.51100000000E-03 0.  1.
        -12    1    3    3    0    0 -0.48333734289E+01  0.25104635280E+01 -0.14586655043E+02  0.15570306072E+02  0.00000000000E+00 0.  1.
</event>
<event>
 7    1  0.2478637E-008  0.4614232E+02  0.7816164E-02  0.1320468E+00
        -11   -1    0    0    0    0  0.00000000000E+00  0.00000000000E+00  0.45593999997E+02  0.45594000000E+02  0.51100000000E-03 0. -1.
         11   -1    0    0    0    0 -0.00000000000E+00 -0.00000000000E+00 -0.45593999997E+02  0.45594000000E+02  0.51100000000E-03 0.  1.
    9900012    2    1    2    0    0  0.77167127874E+01  0.44376929165E+02 -0.50392814520E+00  0.46142318277E+02  0.10000004704E+02 0.  0.
         12    1    1    2    0    0 -0.77167127874E+01 -0.44376929165E+02  0.50392814520E+00  0.45045681723E+02  0.00000000000E+00 0. -1.
         11    1    3    3    0    0  0.32317354899E+01  0.23581368818E+02  0.42793107963E+01  0.24183415200E+02  0.51100000000E-03 0. -1.
        -11    1    3    3    0    0  0.10371010404E+01  0.10241684687E+02 -0.16769418733E+01  0.10429756378E+02  0.51100000000E-03 0.  1.
         12    1    3    3    0    0  0.34478762571E+01  0.10553875660E+02 -0.31062970682E+01  0.11529146699E+02  0.00000000000E+00 0. -1.
</event>
<event>
 7    1  0.2478637E-008  0.4614232E+02  0.7816164E-02  0.1320468E+00
        -11   -1    0    0    0    0  0.00000000000E+00  0.00000000000E+00  0.45593999997E+02  0.45594000000E+02  0.51100000000E-03 0.  1.
         11   -1    0    0    0    0 -0.00000000000E+00 -0.00000000000E+00 -0.45593999997E+02  0.45594000000E+02  0.51100000000E-03 0. -1.
    9900012    2    1    2    0    0 -0.13927413202E+02 -0.16679391048E+02  0.39458060533E+02  0.46142318017E+02  0.10000002334E+02 0.  0.
         12    1    1    2    0    0  0.13927413202E+02  0.16679391048E+02 -0.39458060533E+02  0.45045681983E+02  0.00000000000E+00 0. -1.
         11    1    3    3    0    0 -0.60975805908E+01 -0.10492482775E+02  0.24050299558E+02  0.26938626412E+02  0.51100000000E-03 0. -1.
        -11    1    3    3    0    0 -0.18632067032E+01 -0.49085581048E+01  0.58140513766E+01  0.78338161555E+01  0.51100000000E-03 0.  1.
        -12    1    3    3    0    0 -0.59666259082E+01 -0.12783501683E+01  0.95937095983E+01  0.11369875450E+02  0.00000000000E+00 0.  1.
</event>
<event>
 7    1  0.2478637E-008  0.4614232E+02  0.7816164E-02  0.1320468E+00
        -11   -1    0    0    0    0  0.00000000000E+00  0.00000000000E+00  0.45593999997E+02  0.45594000000E+02  0.51100000000E-03 0.  1.
         11   -1    0    0    0    0 -0.00000000000E+00 -0.00000000000E+00 -0.45593999997E+02  0.45594000000E+02  0.51100000000E-03 0. -1.
    9900012    2    1    2    0    0  0.34081149317E+02 -0.11332536300E+02  0.27187543047E+02  0.46142316359E+02  0.99999872177E+01 0.  0.
         12    1    1    2    0    0 -0.34081149317E+02  0.11332536300E+02 -0.27187543047E+02  0.45045683641E+02  0.00000000000E+00 0. -1.
         11    1    3    3    0    0  0.45305987069E+00 -0.10208575329E+01  0.30405963663E+00  0.11575257546E+01  0.51100000000E-03 0. -1.
        -11    1    3    3    0    0  0.16633245684E+02 -0.83804963934E+01  0.10930668151E+02  0.21595765518E+02  0.51100000000E-03 0.  1.
        -12    1    3    3    0    0  0.16994843762E+02 -0.19311823732E+01  0.15952815259E+02  0.23389025087E+02  0.00000000000E+00 0.  1.
</event>
<event>
 7    1  0.2478637E-008  0.4614232E+02  0.7816164E-02  0.1320468E+00
        -11   -1    0    0    0    0  0.00000000000E+00  0.00000000000E+00  0.45593999997E+02  0.45594000000E+02  0.51100000000E-03 0.  1.
         11   -1    0    0    0    0 -0.00000000000E+00 -0.00000000000E+00 -0.45593999997E+02  0.45594000000E+02  0.51100000000E-03 0. -1.
    9900012    2    1    2    0    0 -0.20181639597E+00 -0.19616500907E+02  0.40549545786E+02  0.46142317619E+02  0.99999987064E+01 0.  0.
         12    1    1    2    0    0  0.20181639597E+00  0.19616500907E+02 -0.40549545786E+02  0.45045682381E+02  0.00000000000E+00 0. -1.
         11    1    3    3    0    0 -0.35785720014E+01 -0.28937626167E+01  0.77081776154E+01  0.89775298419E+01  0.51100000000E-03 0. -1.
        -11    1    3    3    0    0  0.35115021918E+00 -0.58484491285E-01  0.14809417728E+01  0.15231269506E+01  0.51100000000E-03 0.  1.
        -12    1    3    3    0    0  0.30256053863E+01 -0.16664253799E+02  0.31360426398E+02  0.35641660827E+02  0.00000000000E+00 0.  1.
</event>
<event>
 7    1  0.2478637E-008  0.4614232E+02  0.7816164E-02  0.1320468E+00
        -11   -1    0    0    0    0  0.00000000000E+00  0.00000000000E+00  0.45593999997E+02  0.45594000000E+02  0.51100000000E-03 0.  1.
         11   -1    0    0    0    0 -0.00000000000E+00 -0.00000000000E+00 -0.45593999997E+02  0.45594000000E+02  0.51100000000E-03 0. -1.
    9900012    2    1    2    0    0  0.93623809599E+00 -0.18601157728E+02  0.41015044474E+02  0.46142317812E+02  0.10000000461E+02 0.  0.
         12    1    1    2    0    0 -0.93623809599E+00  0.18601157728E+02 -0.41015044474E+02  0.45045682188E+02  0.00000000000E+00 0. -1.
         11    1    3    3    0    0  0.23011124364E+01 -0.26000450177E+01  0.79068445121E+01  0.86355974280E+01  0.51100000000E-03 0. -1.
        -11    1    3    3    0    0 -0.22420317686E+01 -0.15193461597E+02  0.32883822118E+02  0.36293439340E+02  0.51100000000E-03 0.  1.
        -12    1    3    3    0    0  0.87715742810E+00 -0.80765111314E+00  0.22437784384E+00  0.12132810437E+01  0.00000000000E+00 0.  1.
</event>
<event>
 7    1  0.2478637E-008  0.4614232E+02  0.7816164E-02  0.1320468E+00
        -11   -1    0    0    0    0  0.00000000000E+00  0.00000000000E+00  0.45593999997E+02  0.45594000000E+02  0.51100000000E-03 0.  1.
         11   -1    0    0    0    0 -0.00000000000E+00 -0.00000000000E+00 -0.45593999997E+02  0.45594000000E+02  0.51100000000E-03 0. -1.
    9900012    2    1    2    0    0  0.91554153405E+01 -0.16045371956E+02  0.41083304845E+02  0.46142317318E+02  0.99999959634E+01 0.  0.
         12    1    1    2    0    0 -0.91554153405E+01  0.16045371956E+02 -0.41083304845E+02  0.45045682682E+02  0.00000000000E+00 0. -1.
         11    1    3    3    0    0 -0.69590093127E-01 -0.21498589028E+01  0.10900640542E+01  0.24114261313E+01  0.51100000000E-03 0. -1.
        -11    1    3    3    0    0  0.36617828837E+01 -0.18806609137E+01  0.62593189022E+01  0.74916361858E+01  0.51100000000E-03 0.  1.
        -12    1    3    3    0    0  0.55632225499E+01 -0.12014852140E+02  0.33733921888E+02  0.36239255001E+02  0.00000000000E+00 0.  1.
</event>
<event>
 7    1  0.2478637E-008  0.4614231E+02  0.7816164E-02  0.1320468E+00
        -11   -1    0    0    0    0  0.00000000000E+00  0.00000000000E+00  0.45593999997E+02  0.45594000000E+02  0.51100000000E-03 0. -1.
         11   -1    0    0    0    0 -0.00000000000E+00 -0.00000000000E+00 -0.45593999997E+02  0.45594000000E+02  0.51100000000E-03 0.  1.
    9900012    2    1    2    0    0  0.40868175259E+02 -0.18920214915E+02  0.96518004903E+00  0.46142313703E+02  0.99999629977E+01 0.  0.
         12    1    1    2    0    0 -0.40868175259E+02  0.18920214915E+02 -0.96518004903E+00  0.45045686297E+02  0.00000000000E+00 0. -1.
         11    1    3    3    0    0  0.22848804121E+02 -0.79372899494E+01  0.55843105229E+00  0.24194633020E+02  0.51100000000E-03 0. -1.
        -11    1    3    3    0    0  0.17447542079E+02 -0.86064196456E+01 -0.82215039329E-01  0.19454920799E+02  0.51100000000E-03 0.  1.
         12    1    3    3    0    0  0.57182905858E+00 -0.23765053204E+01  0.48896403607E+00  0.24927598839E+01  0.00000000000E+00 0. -1.
</event>
<event>
 7    1  0.2478637E-008  0.4614232E+02  0.7816164E-02  0.1320468E+00
        -11   -1    0    0    0    0  0.00000000000E+00  0.00000000000E+00  0.45593999997E+02  0.45594000000E+02  0.51100000000E-03 0.  1.
         11   -1    0    0    0    0 -0.00000000000E+00 -0.00000000000E+00 -0.45593999997E+02  0.45594000000E+02  0.51100000000E-03 0. -1.
    9900012    2    1    2    0    0 -0.22602174189E+01 -0.19385099620E+02  0.40598311155E+02  0.46142317202E+02  0.99999949026E+01 0.  0.
         12    1    1    2    0    0  0.22602174189E+01  0.19385099620E+02 -0.40598311155E+02  0.45045682798E+02  0.00000000000E+00 0. -1.
         11    1    3    3    0    0  0.32021295401E+01 -0.55923877663E+01  0.92051460308E+01  0.11236687600E+02  0.51100000000E-03 0. -1.
        -11    1    3    3    0    0 -0.51780608833E+01 -0.88585330974E+01  0.19735551781E+02  0.22243604193E+02  0.51100000000E-03 0.  1.
         12    1    3    3    0    0 -0.28428607577E+00 -0.49341787564E+01  0.11657613344E+02  0.12662025408E+02  0.00000000000E+00 0. -1.
</event>
<event>
 7    1  0.2478637E-008  0.4614232E+02  0.7816164E-02  0.1320468E+00
        -11   -1    0    0    0    0  0.00000000000E+00  0.00000000000E+00  0.45593999997E+02  0.45594000000E+02  0.51100000000E-03 0.  1.
         11   -1    0    0    0    0 -0.00000000000E+00 -0.00000000000E+00 -0.45593999997E+02  0.45594000000E+02  0.51100000000E-03 0. -1.
    9900012    2    1    2    0    0  0.32644626349E+02  0.26917365808E+02  0.15456300807E+02  0.46142318230E+02  0.10000004275E+02 0.  0.
         12    1    1    2    0    0 -0.32644626349E+02 -0.26917365808E+02 -0.15456300807E+02  0.45045681770E+02  0.00000000000E+00 0. -1.
         11    1    3    3    0    0  0.17456462816E+02  0.18746902108E+02  0.65429532273E+01  0.26438318213E+02  0.51100000000E-03 0. -1.
        -11    1    3    3    0    0  0.12712857732E+02  0.65407808655E+01  0.58666952360E+01  0.15453694681E+02  0.51100000000E-03 0.  1.
         12    1    3    3    0    0  0.24753058005E+01  0.16296828339E+01  0.30466523441E+01  0.42503053362E+01  0.00000000000E+00 0. -1.
</event>
