<event>
 7    1  0.4519225E-009  0.4778727E+02  0.7816164E-02  0.1312668E+00
        -11   -1    0    0    0    0  0.00000000000E+00  0.00000000000E+00  0.45593999997E+02  0.45594000000E+02  0.51100000000E-03 0. -1.
         11   -1    0    0    0    0 -0.00000000000E+00 -0.00000000000E+00 -0.45593999997E+02  0.45594000000E+02  0.51100000000E-03 0.  1.
    9900012    2    1    2    0    0 -0.73873059079E+01 -0.32302340500E+01  0.42645242374E+02  0.47787269617E+02  0.19999993493E+02 0.  0.
        -12    1    1    2    0    0  0.73873059079E+01  0.32302340500E+01 -0.42645242374E+02  0.43400730383E+02  0.00000000000E+00 0.  1.
         11    1    3    3    0    0 -0.17346393927E+01 -0.14574061136E+01 -0.94784351548E+00  0.24558937260E+01  0.51100000000E-03 0. -1.
        -11    1    3    3    0    0 -0.73601243931E+01 -0.14704173204E+01  0.15883210185E+02  0.17567297010E+02  0.51100000000E-03 0.  1.
         12    1    3    3    0    0  0.17074578779E+01 -0.30241061595E+00  0.27709875705E+02  0.27764078882E+02  0.00000000000E+00 0. -1.
</event>
<event>
 7    1  0.4519225E-009  0.4778727E+02  0.7816164E-02  0.1312668E+00
        -11   -1    0    0    0    0  0.00000000000E+00  0.00000000000E+00  0.45593999997E+02  0.45594000000E+02  0.51100000000E-03 0.  1.
         11   -1    0    0    0    0 -0.00000000000E+00 -0.00000000000E+00 -0.45593999997E+02  0.45594000000E+02  0.51100000000E-03 0. -1.
    9900012    2    1    2    0    0  0.30648705704E+02  0.16228609111E+02 -0.26094295371E+02  0.47787272289E+02  0.20000005673E+02 0.  0.
        -12    1    1    2    0    0 -0.30648705704E+02 -0.16228609111E+02  0.26094295371E+02  0.43400727711E+02  0.00000000000E+00 0.  1.
         11    1    3    3    0    0  0.12220540420E+01  0.40002908695E+01 -0.57707145969E+01  0.71271937214E+01  0.51100000000E-03 0. -1.
        -11    1    3    3    0    0  0.25531852267E+01 -0.29980977871E+01 -0.52676590726E+00  0.39730124245E+01  0.51100000000E-03 0.  1.
         12    1    3    3    0    0  0.26873466435E+02  0.15226416028E+02 -0.19796814867E+02  0.36687066143E+02  0.00000000000E+00 0. -1.
</event>
<event>
 7    1  0.4519225E-009  0.4778727E+02  0.7816164E-02  0.1312668E+00
        -11   -1    0    0    0    0  0.00000000000E+00  0.00000000000E+00  0.45593999997E+02  0.45594000000E+02  0.51100000000E-03 0.  1.
         11   -1    0    0    0    0 -0.00000000000E+00 -0.00000000000E+00 -0.45593999997E+02  0.45594000000E+02  0.51100000000E-03 0. -1.
    9900012    2    1    2    0    0  0.17626120008E+02  0.37981989816E+02 -0.11415410832E+02  0.47787271188E+02  0.20000000657E+02 0.  0.
        -12    1    1    2    0    0 -0.17626120008E+02 -0.37981989816E+02  0.11415410832E+02  0.43400728812E+02  0.00000000000E+00 0.  1.
         11    1    3    3    0    0  0.32949113743E+01  0.94720898931E+01  0.27599420826E+01  0.10401644508E+02  0.51100000000E-03 0. -1.
        -11    1    3    3    0    0  0.10925740521E+02  0.79655561956E+01 -0.34174853989E+01  0.13946365051E+02  0.51100000000E-03 0.  1.
        -12    1    3    3    0    0  0.34054681135E+01  0.20544343727E+02 -0.10757867516E+02  0.23439261629E+02  0.00000000000E+00 0.  1.
</event>
<event>
 7    1  0.4519225E-009  0.4778727E+02  0.7816164E-02  0.1312668E+00
        -11   -1    0    0    0    0  0.00000000000E+00  0.00000000000E+00  0.45593999997E+02  0.45594000000E+02  0.51100000000E-03 0. -1.
         11   -1    0    0    0    0 -0.00000000000E+00 -0.00000000000E+00 -0.45593999997E+02  0.45594000000E+02  0.51100000000E-03 0.  1.
    9900012    2    1    2    0    0  0.27221480458E+02 -0.33787629549E+02 -0.10050948289E+01  0.47787272766E+02  0.20000007849E+02 0.  0.
        -12    1    1    2    0    0 -0.27221480458E+02  0.33787629549E+02  0.10050948289E+01  0.43400727234E+02  0.00000000000E+00 0.  1.
         11    1    3    3    0    0  0.21632672653E+02 -0.14521082013E+02  0.12635191448E+01  0.26085069097E+02  0.51100000000E-03 0. -1.
        -11    1    3    3    0    0  0.73851734257E+01 -0.13006342908E+02 -0.25992776180E+01  0.15180974500E+02  0.51100000000E-03 0.  1.
        -12    1    3    3    0    0 -0.17963656207E+01 -0.62602046276E+01  0.33066364435E+00  0.65212291686E+01  0.00000000000E+00 0.  1.
</event>
<event>
 7    1  0.4519225E-009  0.4778727E+02  0.7816164E-02  0.1312668E+00
        -11   -1    0    0    0    0  0.00000000000E+00  0.00000000000E+00  0.45593999997E+02  0.45594000000E+02  0.51100000000E-03 0.  1.
         11   -1    0    0    0    0 -0.00000000000E+00 -0.00000000000E+00 -0.45593999997E+02  0.45594000000E+02  0.51100000000E-03 0. -1.
    9900012    2    1    2    0    0 -0.20222961488E+02 -0.70301192667E+01 -0.37752252164E+02  0.47787270839E+02  0.19999999065E+02 0.  0.
        -12    1    1    2    0    0  0.20222961488E+02  0.70301192667E+01  0.37752252164E+02  0.43400729161E+02  0.00000000000E+00 0.  1.
         11    1    3    3    0    0 -0.92838699087E+00  0.62638568753E+00  0.16384031556E+01  0.19845973384E+01  0.51100000000E-03 0.  1.
        -11    1    3    3    0    0 -0.10246457098E+02  0.69234510102E-01 -0.11070310949E+02  0.15084643226E+02  0.51100000000E-03 0. -1.
         12    1    3    3    0    0 -0.90481173988E+01 -0.77257394644E+01 -0.28320344370E+02  0.30718030275E+02  0.00000000000E+00 0. -1.
</event>
<event>
 7    1  0.4519225E-009  0.4778727E+02  0.7816164E-02  0.1312668E+00
        -11   -1    0    0    0    0  0.00000000000E+00  0.00000000000E+00  0.45593999997E+02  0.45594000000E+02  0.51100000000E-03 0. -1.
         11   -1    0    0    0    0 -0.00000000000E+00 -0.00000000000E+00 -0.45593999997E+02  0.45594000000E+02  0.51100000000E-03 0.  1.
    9900012    2    1    2    0    0  0.17190328763E+02  0.16358033598E+02  0.36339104238E+02  0.47787272322E+02  0.20000005826E+02 0.  0.
        -12    1    1    2    0    0 -0.17190328763E+02 -0.16358033598E+02 -0.36339104238E+02  0.43400727678E+02  0.00000000000E+00 0.  1.
         11    1    3    3    0    0  0.53831782541E+01  0.27321021951E+01  0.14745700259E+02  0.15933570438E+02  0.51100000000E-03 0. -1.
        -11    1    3    3    0    0  0.74240154668E+01 -0.13498468241E+01  0.48687246150E+01  0.89801209200E+01  0.51100000000E-03 0.  1.
        -12    1    3    3    0    0  0.43831350416E+01  0.14975778227E+02  0.16724679364E+02  0.22873580964E+02  0.00000000000E+00 0.  1.
</event>
<event>
 7    1  0.4519225E-009  0.4778727E+02  0.7816164E-02  0.1312668E+00
        -11   -1    0    0    0    0  0.00000000000E+00  0.00000000000E+00  0.45593999997E+02  0.45594000000E+02  0.51100000000E-03 0.  1.
         11   -1    0    0    0    0 -0.00000000000E+00 -0.00000000000E+00 -0.45593999997E+02  0.45594000000E+02  0.51100000000E-03 0. -1.
    9900012    2    1    2    0    0  0.37710066738E+02  0.14380823337E+02 -0.15961391917E+02  0.47787271375E+02  0.20000001508E+02 0.  0.
        -12    1    1    2    0    0 -0.37710066738E+02 -0.14380823337E+02  0.15961391917E+02  0.43400728625E+02  0.00000000000E+00 0.  1.
         11    1    3    3    0    0  0.25757860071E+01  0.97926319075E+00  0.10471636279E+01  0.29479114430E+01  0.51100000000E-03 0. -1.
        -11    1    3    3    0    0  0.26437576609E+02  0.10917305820E+02 -0.38338209216E+01  0.28858815056E+02  0.51100000000E-03 0.  1.
         12    1    3    3    0    0  0.86967041222E+01  0.24842543265E+01 -0.13174734623E+02  0.15980544876E+02  0.00000000000E+00 0. -1.
</event>
<event>
 7    1  0.4519225E-009  0.4778727E+02  0.7816164E-02  0.1312668E+00
        -11   -1    0    0    0    0  0.00000000000E+00  0.00000000000E+00  0.45593999997E+02  0.45594000000E+02  0.51100000000E-03 0.  1.
         11   -1    0    0    0    0 -0.00000000000E+00 -0.00000000000E+00 -0.45593999997E+02  0.45594000000E+02  0.51100000000E-03 0. -1.
    9900012    2    1    2    0    0  0.28066926055E+02 -0.29731561316E+02 -0.14556966457E+02  0.47787270180E+02  0.19999996060E+02 0.  0.
        -12    1    1    2    0    0 -0.28066926055E+02  0.29731561316E+02  0.14556966457E+02  0.43400729820E+02  0.00000000000E+00 0.  1.
         11    1    3    3    0    0  0.14682950803E+02 -0.23022714256E+02 -0.88606824002E+01  0.28707945048E+02  0.51100000000E-03 0. -1.
        -11    1    3    3    0    0  0.62127065991E+00 -0.60552862434E-01  0.24601100861E+01  0.25380673314E+01  0.51100000000E-03 0.  1.
        -12    1    3    3    0    0  0.12762704591E+02 -0.66482941974E+01 -0.81563941426E+01  0.16541257801E+02  0.00000000000E+00 0.  1.
</event>
<event>
 7    1  0.4519225E-009  0.4778727E+02  0.7816164E-02  0.1312668E+00
        -11   -1    0    0    0    0  0.00000000000E+00  0.00000000000E+00  0.45593999997E+02  0.45594000000E+02  0.51100000000E-03 0.  1.
         11   -1    0    0    0    0 -0.00000000000E+00 -0.00000000000E+00 -0.45593999997E+02  0.45594000000E+02  0.51100000000E-03 0. -1.
    9900012    2    1    2    0    0  0.33838763091E+02  0.26399607822E+02  0.64515245658E+01  0.47787270169E+02  0.19999996007E+02 0.  0.
        -12    1    1    2    0    0 -0.33838763091E+02 -0.26399607822E+02 -0.64515245658E+01  0.43400729831E+02  0.00000000000E+00 0.  1.
         11    1    3    3    0    0 -0.78938167216E+00  0.49976112106E+00 -0.73716073976E-02  0.93431215564E+00  0.51100000000E-03 0. -1.
        -11    1    3    3    0    0  0.60813702862E+01  0.99554607971E+01  0.79565562092E+01  0.14120943708E+02  0.51100000000E-03 0.  1.
         12    1    3    3    0    0  0.28546774477E+02  0.15944385904E+02 -0.14976600360E+01  0.32732014305E+02  0.00000000000E+00 0. -1.
</event>
<event>
 7    1  0.4519225E-009  0.4778727E+02  0.7816164E-02  0.1312668E+00
        -11   -1    0    0    0    0  0.00000000000E+00  0.00000000000E+00  0.45593999997E+02  0.45594000000E+02  0.51100000000E-03 0.  1.
         11   -1    0    0    0    0 -0.00000000000E+00 -0.00000000000E+00 -0.45593999997E+02  0.45594000000E+02  0.51100000000E-03 0. -1.
    9900012    2    1    2    0    0  0.24026247739E+02  0.26473597507E+02 -0.24607138192E+02  0.47787271949E+02  0.20000004125E+02 0.  0.
        -12    1    1    2    0    0 -0.24026247739E+02 -0.26473597507E+02  0.24607138192E+02  0.43400728051E+02  0.00000000000E+00 0.  1.
         11    1    3    3    0    0  0.83498357920E+01  0.10446511768E+02 -0.19722133914E+02  0.23828804676E+02  0.51100000000E-03 0. -1.
        -11    1    3    3    0    0  0.10787785172E+01  0.50541792970E+01 -0.61912132716E+00  0.52049786680E+01  0.51100000000E-03 0.  1.
         12    1    3    3    0    0  0.14597633430E+02  0.10972906442E+02 -0.42658829503E+01  0.18753488606E+02  0.00000000000E+00 0. -1.
</event>
<event>
 7    1  0.4519225E-009  0.4778727E+02  0.7816164E-02  0.1312668E+00
        -11   -1    0    0    0    0  0.00000000000E+00  0.00000000000E+00  0.45593999997E+02  0.45594000000E+02  0.51100000000E-03 0.  1.
         11   -1    0    0    0    0 -0.00000000000E+00 -0.00000000000E+00 -0.45593999997E+02  0.45594000000E+02  0.51100000000E-03 0. -1.
    9900012    2    1    2    0    0  0.13595344538E+02  0.25198221274E+02 -0.32616550298E+02  0.47787273027E+02  0.20000009038E+02 0.  0.
        -12    1    1    2    0    0 -0.13595344538E+02 -0.25198221274E+02  0.32616550298E+02  0.43400726973E+02  0.00000000000E+00 0.  1.
         11    1    3    3    0    0  0.92783068678E+01  0.85600699278E+01 -0.10407162894E+02  0.16360648375E+02  0.51100000000E-03 0. -1.
        -11    1    3    3    0    0  0.41682149656E+01 -0.12410872365E+01 -0.46296799593E+01  0.63520272602E+01  0.51100000000E-03 0.  1.
         12    1    3    3    0    0  0.14882270449E+00  0.17879238583E+02 -0.17579707445E+02  0.25074597391E+02  0.00000000000E+00 0. -1.
</event>
<event>
 7    1  0.4519225E-009  0.4778727E+02  0.7816164E-02  0.1312668E+00
        -11   -1    0    0    0    0  0.00000000000E+00  0.00000000000E+00  0.45593999997E+02  0.45594000000E+02  0.51100000000E-03 0.  1.
         11   -1    0    0    0    0 -0.00000000000E+00 -0.00000000000E+00 -0.45593999997E+02  0.45594000000E+02  0.51100000000E-03 0. -1.
    9900012    2    1    2    0    0  0.20817172943E+02  0.30811721728E+02 -0.22380935694E+02  0.47787272268E+02  0.20000005577E+02 0.  0.
        -12    1    1    2    0    0 -0.20817172943E+02 -0.30811721728E+02  0.22380935694E+02  0.43400727732E+02  0.00000000000E+00 0.  1.
         11    1    3    3    0    0  0.21992391781E+01  0.30896908737E+01  0.16738793768E+01  0.41454451012E+01  0.51100000000E-03 0. -1.
        -11    1    3    3    0    0  0.74400262670E+01  0.83449713454E+01 -0.55000395833E+00  0.11193526800E+02  0.51100000000E-03 0.  1.
         12    1    3    3    0    0  0.11177907498E+02  0.19377059509E+02 -0.23504811112E+02  0.32448300366E+02  0.00000000000E+00 0. -1.
</event>
<event>
 7    1  0.4519225E-009  0.4778727E+02  0.7816164E-02  0.1312668E+00
        -11   -1    0    0    0    0  0.00000000000E+00  0.00000000000E+00  0.45593999997E+02  0.45594000000E+02  0.51100000000E-03 0.  1.
         11   -1    0    0    0    0 -0.00000000000E+00 -0.00000000000E+00 -0.45593999997E+02  0.45594000000E+02  0.51100000000E-03 0. -1.
    9900012    2    1    2    0    0  0.17898243737E+02 -0.37204581740E+01 -0.39362854021E+02  0.47787271727E+02  0.20000003114E+02 0.  0.
        -12    1    1    2    0    0 -0.17898243737E+02  0.37204581740E+01  0.39362854021E+02  0.43400728273E+02  0.00000000000E+00 0.  1.
         11    1    3    3    0    0  0.16091661370E+02 -0.40936897110E+01 -0.23573958631E+02  0.28834551963E+02  0.51100000000E-03 0. -1.
        -11    1    3    3    0    0  0.23528837772E+01 -0.28010476672E+01 -0.96546816841E+00  0.37833925448E+01  0.51100000000E-03 0.  1.
         12    1    3    3    0    0 -0.54630141022E+00  0.31742792042E+01 -0.14823427222E+02  0.15169327220E+02  0.00000000000E+00 0. -1.
</event>
<event>
 7    1  0.4519225E-009  0.4778727E+02  0.7816164E-02  0.1312668E+00
        -11   -1    0    0    0    0  0.00000000000E+00  0.00000000000E+00  0.45593999997E+02  0.45594000000E+02  0.51100000000E-03 0.  1.
         11   -1    0    0    0    0 -0.00000000000E+00 -0.00000000000E+00 -0.45593999997E+02  0.45594000000E+02  0.51100000000E-03 0. -1.
    9900012    2    1    2    0    0 -0.12789404570E+02 -0.25783839534E+02 -0.32484579007E+02  0.47787272775E+02  0.20000007893E+02 0.  0.
        -12    1    1    2    0    0  0.12789404570E+02  0.25783839534E+02  0.32484579007E+02  0.43400727225E+02  0.00000000000E+00 0.  1.
         11    1    3    3    0    0 -0.52561376127E+01 -0.26564255617E+01 -0.12491804986E+02  0.13810458770E+02  0.51100000000E-03 0. -1.
        -11    1    3    3    0    0  0.23691873980E+01 -0.10028048926E+02 -0.11666585365E+02  0.15565475532E+02  0.51100000000E-03 0.  1.
         12    1    3    3    0    0 -0.99024543550E+01 -0.13099365046E+02 -0.83261886563E+01  0.18411338474E+02  0.00000000000E+00 0. -1.
</event>
<event>
 7    1  0.4519225E-009  0.4778727E+02  0.7816164E-02  0.1312668E+00
        -11   -1    0    0    0    0  0.00000000000E+00  0.00000000000E+00  0.45593999997E+02  0.45594000000E+02  0.51100000000E-03 0.  1.
         11   -1    0    0    0    0 -0.00000000000E+00 -0.00000000000E+00 -0.45593999997E+02  0.45594000000E+02  0.51100000000E-03 0. -1.
    9900012    2    1    2    0    0 -0.18454303620E+02 -0.29614853046E+02 -0.25807414603E+02  0.47787268537E+02  0.19999988568E+02 0.  0.
        -12    1    1    2    0    0  0.18454303620E+02  0.29614853046E+02  0.25807414603E+02  0.43400731463E+02  0.00000000000E+00 0.  1.
         11    1    3    3    0    0 -0.95871473526E+01 -0.16700717728E+02 -0.68928413339E+01  0.20453328064E+02  0.51100000000E-03 0. -1.
        -11    1    3    3    0    0 -0.61762207924E+01 -0.14854986912E+02 -0.13586507998E+02  0.21057291832E+02  0.51100000000E-03 0.  1.
         12    1    3    3    0    0 -0.26909354747E+01  0.19408515935E+01 -0.53280652707E+01  0.62766486413E+01  0.00000000000E+00 0. -1.
</event>
<event>
 7    1  0.4519225E-009  0.4778727E+02  0.7816164E-02  0.1312668E+00
        -11   -1    0    0    0    0  0.00000000000E+00  0.00000000000E+00  0.45593999997E+02  0.45594000000E+02  0.51100000000E-03 0.  1.
         11   -1    0    0    0    0 -0.00000000000E+00 -0.00000000000E+00 -0.45593999997E+02  0.45594000000E+02  0.51100000000E-03 0. -1.
    9900012    2    1    2    0    0 -0.12022238189E+02  0.36239634985E+02 -0.20634390157E+02  0.47787269453E+02  0.19999992744E+02 0.  0.
        -12    1    1    2    0    0  0.12022238189E+02 -0.36239634985E+02  0.20634390157E+02  0.43400730547E+02  0.00000000000E+00 0.  1.
         11    1    3    3    0    0 -0.27337075591E+01  0.14519660481E+02 -0.98180161623E+01  0.17739423303E+02  0.51100000000E-03 0. -1.
        -11    1    3    3    0    0 -0.69615077856E+01  0.21081021997E+02 -0.36661550523E+01  0.22501394895E+02  0.51100000000E-03 0.  1.
         12    1    3    3    0    0 -0.23270228439E+01  0.63895250641E+00 -0.71502189421E+01  0.75464512548E+01  0.00000000000E+00 0. -1.
</event>
<event>
 7    1  0.4519225E-009  0.4778727E+02  0.7816164E-02  0.1312668E+00
        -11   -1    0    0    0    0  0.00000000000E+00  0.00000000000E+00  0.45593999997E+02  0.45594000000E+02  0.51100000000E-03 0.  1.
         11   -1    0    0    0    0 -0.00000000000E+00 -0.00000000000E+00 -0.45593999997E+02  0.45594000000E+02  0.51100000000E-03 0. -1.
    9900012    2    1    2    0    0  0.74175097848E+01 -0.21307502638E+02 -0.37075517499E+02  0.47787272842E+02  0.20000008195E+02 0.  0.
        -12    1    1    2    0    0 -0.74175097848E+01  0.21307502638E+02  0.37075517499E+02  0.43400727158E+02  0.00000000000E+00 0.  1.
         11    1    3    3    0    0  0.71151297186E+01 -0.34437287056E+01 -0.68188519642E+01  0.10439400398E+02  0.51100000000E-03 0. -1.
        -11    1    3    3    0    0  0.40328597794E+00 -0.94399393617E+01 -0.49311322122E+01  0.10657915363E+02  0.51100000000E-03 0.  1.
         12    1    3    3    0    0 -0.10090591167E+00 -0.84238345704E+01 -0.25325533322E+02  0.26689957080E+02  0.00000000000E+00 0. -1.
</event>
<event>
 7    1  0.4519225E-009  0.4778727E+02  0.7816164E-02  0.1312668E+00
        -11   -1    0    0    0    0  0.00000000000E+00  0.00000000000E+00  0.45593999997E+02  0.45594000000E+02  0.51100000000E-03 0.  1.
         11   -1    0    0    0    0 -0.00000000000E+00 -0.00000000000E+00 -0.45593999997E+02  0.45594000000E+02  0.51100000000E-03 0. -1.
    9900012    2    1    2    0    0  0.24174388322E+02  0.17498921869E+02 -0.31512061444E+02  0.47787270355E+02  0.19999996855E+02 0.  0.
        -12    1    1    2    0    0 -0.24174388322E+02 -0.17498921869E+02  0.31512061444E+02  0.43400729645E+02  0.00000000000E+00 0.  1.
         11    1    3    3    0    0  0.70840582384E+01  0.57471418920E+01 -0.15788209431E+02  0.18234063682E+02  0.51100000000E-03 0. -1.
        -11    1    3    3    0    0 -0.77344615290E+00  0.61626475364E+00 -0.64930890498E+01  0.65679682450E+01  0.51100000000E-03 0.  1.
         12    1    3    3    0    0  0.17863776236E+02  0.11135515223E+02 -0.92307629629E+01  0.22985238428E+02  0.00000000000E+00 0. -1.
</event>
<event>
 7    1  0.4519225E-009  0.4778727E+02  0.7816164E-02  0.1312668E+00
        -11   -1    0    0    0    0  0.00000000000E+00  0.00000000000E+00  0.45593999997E+02  0.45594000000E+02  0.51100000000E-03 0.  1.
         11   -1    0    0    0    0 -0.00000000000E+00 -0.00000000000E+00 -0.45593999997E+02  0.45594000000E+02  0.51100000000E-03 0. -1.
    9900012    2    1    2    0    0  0.36316601234E+02  0.41708088345E+01 -0.23395139707E+02  0.47787265750E+02  0.19999975863E+02 0.  0.
        -12    1    1    2    0    0 -0.36316601234E+02 -0.41708088345E+01  0.23395139707E+02  0.43400734250E+02  0.00000000000E+00 0.  1.
         11    1    3    3    0    0  0.18749267212E+02  0.13815257463E+01 -0.15055002047E+02  0.24085197140E+02  0.51100000000E-03 0. -1.
        -11    1    3    3    0    0  0.34733881401E+01 -0.48789957634E+01 -0.35281688403E+01  0.69510431202E+01  0.51100000000E-03 0.  1.
         12    1    3    3    0    0  0.14093945881E+02  0.76682788516E+01 -0.48119688192E+01  0.16751025490E+02  0.00000000000E+00 0. -1.
</event>
<event>
 7    1  0.4519225E-009  0.4778727E+02  0.7816164E-02  0.1312668E+00
        -11   -1    0    0    0    0  0.00000000000E+00  0.00000000000E+00  0.45593999997E+02  0.45594000000E+02  0.51100000000E-03 0.  1.
         11   -1    0    0    0    0 -0.00000000000E+00 -0.00000000000E+00 -0.45593999997E+02  0.45594000000E+02  0.51100000000E-03 0. -1.
    9900012    2    1    2    0    0  0.30233341766E+02 -0.17845802784E+02 -0.25516570656E+02  0.47787274092E+02  0.20000013893E+02 0.  0.
        -12    1    1    2    0    0 -0.30233341766E+02  0.17845802784E+02  0.25516570656E+02  0.43400725908E+02  0.00000000000E+00 0.  1.
         11    1    3    3    0    0  0.39796656176E+01 -0.77991238738E+01 -0.88088926598E+01  0.12420171568E+02  0.51100000000E-03 0. -1.
        -11    1    3    3    0    0  0.10522555974E+01 -0.52189046074E+01 -0.44076745204E+01  0.69117148438E+01  0.51100000000E-03 0.  1.
         12    1    3    3    0    0  0.25201420551E+02 -0.48277743026E+01 -0.12300003476E+02  0.28455387680E+02  0.00000000000E+00 0. -1.
</event>
<event>
 7    1  0.4519225E-009  0.4778727E+02  0.7816164E-02  0.1312668E+00
        -11   -1    0    0    0    0  0.00000000000E+00  0.00000000000E+00  0.45593999997E+02  0.45594000000E+02  0.51100000000E-03 0.  1.
         11   -1    0    0    0    0 -0.00000000000E+00 -0.00000000000E+00 -0.45593999997E+02  0.45594000000E+02  0.51100000000E-03 0. -1.
    9900012    2    1    2    0    0  0.11529869588E+02  0.38335646577E+02 -0.16764964658E+02  0.47787265776E+02  0.19999975978E+02 0.  0.
        -12    1    1    2    0    0 -0.11529869588E+02 -0.38335646577E+02  0.16764964658E+02  0.43400734224E+02  0.00000000000E+00 0.  1.
         11    1    3    3    0    0  0.42621992863E+01  0.42270460285E+01 -0.26377981628E+01  0.65568468254E+01  0.51100000000E-03 0. -1.
        -11    1    3    3    0    0  0.67289911286E+01  0.10380809063E+02  0.20057814517E+01  0.12532504854E+02  0.51100000000E-03 0.  1.
         12    1    3    3    0    0  0.53867917343E+00  0.23727791485E+02 -0.16132947947E+02  0.28697914096E+02  0.00000000000E+00 0. -1.
</event>
<event>
 7    1  0.4519225E-009  0.4778727E+02  0.7816164E-02  0.1312668E+00
        -11   -1    0    0    0    0  0.00000000000E+00  0.00000000000E+00  0.45593999997E+02  0.45594000000E+02  0.51100000000E-03 0. -1.
         11   -1    0    0    0    0 -0.00000000000E+00 -0.00000000000E+00 -0.45593999997E+02  0.45594000000E+02  0.51100000000E-03 0.  1.
    9900012    2    1    2    0    0 -0.35586323845E+02  0.11022135412E+02  0.22265432252E+02  0.47787269739E+02  0.19999994049E+02 0.  0.
        -12    1    1    2    0    0  0.35586323845E+02 -0.11022135412E+02 -0.22265432252E+02  0.43400730261E+02  0.00000000000E+00 0.  1.
         11    1    3    3    0    0 -0.27766948114E+02  0.86264521782E+01  0.23893872346E+02  0.37634242661E+02  0.51100000000E-03 0. -1.
        -11    1    3    3    0    0 -0.53616370533E+01 -0.14192707629E+00  0.13516909357E+01  0.55312172108E+01  0.51100000000E-03 0.  1.
        -12    1    3    3    0    0 -0.24577386778E+01  0.25376103102E+01 -0.29801310298E+01  0.46218098673E+01  0.00000000000E+00 0.  1.
</event>
<event>
 7    1  0.4519225E-009  0.4778727E+02  0.7816164E-02  0.1312668E+00
        -11   -1    0    0    0    0  0.00000000000E+00  0.00000000000E+00  0.45593999997E+02  0.45594000000E+02  0.51100000000E-03 0.  1.
         11   -1    0    0    0    0 -0.00000000000E+00 -0.00000000000E+00 -0.45593999997E+02  0.45594000000E+02  0.51100000000E-03 0. -1.
    9900012    2    1    2    0    0  0.37000326824E+02 -0.59970667883E+01 -0.21877710820E+02  0.47787271598E+02  0.20000002523E+02 0.  0.
        -12    1    1    2    0    0 -0.37000326824E+02  0.59970667883E+01  0.21877710820E+02  0.43400728402E+02  0.00000000000E+00 0.  1.
         11    1    3    3    0    0  0.17308814477E+02 -0.46998056869E+01 -0.12781782830E+02  0.22024014272E+02  0.51100000000E-03 0. -1.
        -11    1    3    3    0    0 -0.21474142637E+01  0.35302953926E+00 -0.48194587605E+00  0.22289661200E+01  0.51100000000E-03 0.  1.
        -12    1    3    3    0    0  0.21838926611E+02 -0.16502906406E+01 -0.86139821138E+01  0.23534291206E+02  0.00000000000E+00 0.  1.
</event>
<event>
 7    1  0.4519225E-009  0.4778727E+02  0.7816164E-02  0.1312668E+00
        -11   -1    0    0    0    0  0.00000000000E+00  0.00000000000E+00  0.45593999997E+02  0.45594000000E+02  0.51100000000E-03 0. -1.
         11   -1    0    0    0    0 -0.00000000000E+00 -0.00000000000E+00 -0.45593999997E+02  0.45594000000E+02  0.51100000000E-03 0.  1.
    9900012    2    1    2    0    0 -0.67591448905E+01 -0.41110135012E+02 -0.12161164454E+02  0.47787272342E+02  0.20000005917E+02 0.  0.
        -12    1    1    2    0    0  0.67591448905E+01  0.41110135012E+02  0.12161164454E+02  0.43400727658E+02  0.00000000000E+00 0.  1.
         11    1    3    3    0    0 -0.18702035028E+01 -0.22638075325E+02  0.14062199906E+01  0.22758681211E+02  0.51100000000E-03 0. -1.
        -11    1    3    3    0    0  0.17154459952E+01 -0.57751292360E+00 -0.21003525796E+01  0.27726805367E+01  0.51100000000E-03 0.  1.
        -12    1    3    3    0    0 -0.66043873829E+01 -0.17894546764E+02 -0.11467031865E+02  0.22255910594E+02  0.00000000000E+00 0.  1.
</event>
<event>
 7    1  0.4519225E-009  0.4778727E+02  0.7816164E-02  0.1312668E+00
        -11   -1    0    0    0    0  0.00000000000E+00  0.00000000000E+00  0.45593999997E+02  0.45594000000E+02  0.51100000000E-03 0. -1.
         11   -1    0    0    0    0 -0.00000000000E+00 -0.00000000000E+00 -0.45593999997E+02  0.45594000000E+02  0.51100000000E-03 0.  1.
    9900012    2    1    2    0    0  0.95914500749E+01 -0.21570077602E+02  0.36419213002E+02  0.47787271458E+02  0.20000001887E+02 0.  0.
        -12    1    1    2    0    0 -0.95914500749E+01  0.21570077602E+02 -0.36419213002E+02  0.43400728542E+02  0.00000000000E+00 0.  1.
         11    1    3    3    0    0 -0.18190802981E+01 -0.56416433019E+01  0.77146251638E+01  0.97289585236E+01  0.51100000000E-03 0.  1.
        -11    1    3    3    0    0  0.63801828076E+01 -0.18334363120E+02  0.22174853711E+02  0.29471676929E+02  0.51100000000E-03 0. -1.
         12    1    3    3    0    0  0.50303475653E+01  0.24059288199E+01  0.65297341273E+01  0.85866360053E+01  0.00000000000E+00 0. -1.
</event>
<event>
 7    1  0.4519225E-009  0.4778727E+02  0.7816164E-02  0.1312668E+00
        -11   -1    0    0    0    0  0.00000000000E+00  0.00000000000E+00  0.45593999997E+02  0.45594000000E+02  0.51100000000E-03 0.  1.
         11   -1    0    0    0    0 -0.00000000000E+00 -0.00000000000E+00 -0.45593999997E+02  0.45594000000E+02  0.51100000000E-03 0. -1.
    9900012    2    1    2    0    0 -0.49787257641E+01 -0.39260477724E+02 -0.17817133921E+02  0.47787273249E+02  0.20000010054E+02 0.  0.
        -12    1    1    2    0    0  0.49787257641E+01  0.39260477724E+02  0.17817133921E+02  0.43400726751E+02  0.00000000000E+00 0.  1.
         11    1    3    3    0    0  0.26988925548E+01 -0.76413772617E+01 -0.78196102118E+01  0.11261481768E+02  0.51100000000E-03 0. -1.
        -11    1    3    3    0    0  0.89627089173E-01 -0.10796296706E+02 -0.93652352623E+01  0.14292504587E+02  0.51100000000E-03 0.  1.
        -12    1    3    3    0    0 -0.77672454081E+01 -0.20822803756E+02 -0.63228844696E+00  0.22233286895E+02  0.00000000000E+00 0.  1.
</event>
<event>
 7    1  0.4519225E-009  0.4778727E+02  0.7816164E-02  0.1312668E+00
        -11   -1    0    0    0    0  0.00000000000E+00  0.00000000000E+00  0.45593999997E+02  0.45594000000E+02  0.51100000000E-03 0.  1.
         11   -1    0    0    0    0 -0.00000000000E+00 -0.00000000000E+00 -0.45593999997E+02  0.45594000000E+02  0.51100000000E-03 0. -1.
    9900012    2    1    2    0    0  0.21222019362E+02  0.37807623899E+02 -0.19577628591E+01  0.47787269982E+02  0.19999995157E+02 0.  0.
        -12    1    1    2    0    0 -0.21222019362E+02 -0.37807623899E+02  0.19577628591E+01  0.43400730018E+02  0.00000000000E+00 0.  1.
         11    1    3    3    0    0  0.56537959200E+01  0.15859195417E+02 -0.11277163632E+00  0.16837226769E+02  0.51100000000E-03 0. -1.
        -11    1    3    3    0    0  0.17864028040E+02  0.16830528880E+02  0.11897978998E+01  0.24572460591E+02  0.51100000000E-03 0.  1.
        -12    1    3    3    0    0 -0.22958045975E+01  0.51178996013E+01 -0.30347891226E+01  0.63775826218E+01  0.00000000000E+00 0.  1.
</event>
<event>
 7    1  0.4519225E-009  0.4778729E+02  0.7816164E-02  0.1312668E+00
        -11   -1    0    0    0    0  0.00000000000E+00  0.00000000000E+00  0.45593999997E+02  0.45594000000E+02  0.51100000000E-03 0.  1.
         11   -1    0    0    0    0 -0.00000000000E+00 -0.00000000000E+00 -0.45593999997E+02  0.45594000000E+02  0.51100000000E-03 0. -1.
    9900012    2    1    2    0    0 -0.91098350911E+01  0.29390960793E+02 -0.30607250239E+02  0.47787292184E+02  0.20000096385E+02 0.  0.
        -12    1    1    2    0    0  0.91098350911E+01 -0.29390960793E+02  0.30607250239E+02  0.43400707816E+02  0.00000000000E+00 0.  1.
         11    1    3    3    0    0 -0.36299828861E+01  0.16728780424E+02 -0.15943411162E+02  0.23392760204E+02  0.51100000000E-03 0. -1.
        -11    1    3    3    0    0 -0.39541415739E+01  0.15423409312E+02 -0.13929868962E+02  0.21155567588E+02  0.51100000000E-03 0.  1.
        -12    1    3    3    0    0 -0.15257106311E+01 -0.27612289433E+01 -0.73397011515E+00  0.32389643927E+01  0.00000000000E+00 0.  1.
</event>
<event>
 7    1  0.4519225E-009  0.4778727E+02  0.7816164E-02  0.1312668E+00
        -11   -1    0    0    0    0  0.00000000000E+00  0.00000000000E+00  0.45593999997E+02  0.45594000000E+02  0.51100000000E-03 0.  1.
         11   -1    0    0    0    0 -0.00000000000E+00 -0.00000000000E+00 -0.45593999997E+02  0.45594000000E+02  0.51100000000E-03 0. -1.
    9900012    2    1    2    0    0 -0.20286487889E+02 -0.38342248799E+02  0.13977136864E+01  0.47787271465E+02  0.20000001918E+02 0.  0.
        -12    1    1    2    0    0  0.20286487889E+02  0.38342248799E+02 -0.13977136864E+01  0.43400728535E+02  0.00000000000E+00 0.  1.
         11    1    3    3    0    0 -0.56333725850E+01 -0.14874191207E+02 -0.56147187256E+01  0.16867172774E+02  0.51100000000E-03 0. -1.
        -11    1    3    3    0    0 -0.10442732928E+02 -0.65199138585E+01  0.63017624603E+00  0.12327086845E+02  0.51100000000E-03 0.  1.
         12    1    3    3    0    0 -0.42103823759E+01 -0.16948143733E+02  0.63822561659E+01  0.18593011846E+02  0.00000000000E+00 0. -1.
</event>
<event>
 7    1  0.4519225E-009  0.4778727E+02  0.7816164E-02  0.1312668E+00
        -11   -1    0    0    0    0  0.00000000000E+00  0.00000000000E+00  0.45593999997E+02  0.45594000000E+02  0.51100000000E-03 0.  1.
         11   -1    0    0    0    0 -0.00000000000E+00 -0.00000000000E+00 -0.45593999997E+02  0.45594000000E+02  0.51100000000E-03 0. -1.
    9900012    2    1    2    0    0  0.18130148168E+02  0.17207733930E+02 -0.35479783496E+02  0.47787269401E+02  0.19999992505E+02 0.  0.
        -12    1    1    2    0    0 -0.18130148168E+02 -0.17207733930E+02  0.35479783496E+02  0.43400730599E+02  0.00000000000E+00 0.  1.
         11    1    3    3    0    0  0.13735565799E+01 -0.15726529931E+01 -0.32600257122E+01  0.38713903214E+01  0.51100000000E-03 0.  1.
        -11    1    3    3    0    0  0.40045941922E+01  0.28233767320E+01  0.92118748583E+00  0.49856611858E+01  0.51100000000E-03 0. -1.
         12    1    3    3    0    0  0.12751997396E+02  0.15957010191E+02 -0.33140945270E+02  0.38930217893E+02  0.00000000000E+00 0. -1.
</event>
<event>
 7    1  0.4519225E-009  0.4778728E+02  0.7816164E-02  0.1312668E+00
        -11   -1    0    0    0    0  0.00000000000E+00  0.00000000000E+00  0.45593999997E+02  0.45594000000E+02  0.51100000000E-03 0. -1.
         11   -1    0    0    0    0 -0.00000000000E+00 -0.00000000000E+00 -0.45593999997E+02  0.45594000000E+02  0.51100000000E-03 0.  1.
    9900012    2    1    2    0    0  0.70923772844E+01 -0.15300839524E+02  0.39990058573E+02  0.47787282375E+02  0.20000051661E+02 0.  0.
        -12    1    1    2    0    0 -0.70923772844E+01  0.15300839524E+02 -0.39990058573E+02  0.43400717625E+02  0.00000000000E+00 0.  1.
         11    1    3    3    0    0  0.13427817229E+00 -0.13827243483E+01  0.20222041785E+02  0.20269704770E+02  0.51100000000E-03 0. -1.
        -11    1    3    3    0    0  0.40417612776E+01  0.74492233007E+00  0.53633173770E+01  0.67569162383E+01  0.51100000000E-03 0.  1.
         12    1    3    3    0    0  0.29163378345E+01 -0.14663037506E+02  0.14404699411E+02  0.20760661366E+02  0.00000000000E+00 0. -1.
</event>
<event>
 7    1  0.4519225E-009  0.4778727E+02  0.7816164E-02  0.1312668E+00
        -11   -1    0    0    0    0  0.00000000000E+00  0.00000000000E+00  0.45593999997E+02  0.45594000000E+02  0.51100000000E-03 0.  1.
         11   -1    0    0    0    0 -0.00000000000E+00 -0.00000000000E+00 -0.45593999997E+02  0.45594000000E+02  0.51100000000E-03 0. -1.
    9900012    2    1    2    0    0  0.29600026749E+02 -0.28800344681E+02 -0.13341739498E+02  0.47787269014E+02  0.19999990742E+02 0.  0.
        -12    1    1    2    0    0 -0.29600026749E+02  0.28800344681E+02  0.13341739498E+02  0.43400730986E+02  0.00000000000E+00 0.  1.
         11    1    3    3    0    0  0.11965674755E+01 -0.91078738236E+01  0.38053485502E+00  0.91940168777E+01  0.51100000000E-03 0. -1.
        -11    1    3    3    0    0  0.11261513520E+02 -0.13097658254E+02 -0.96288338198E+01  0.19775863559E+02  0.51100000000E-03 0.  1.
        -12    1    3    3    0    0  0.17141945753E+02 -0.65948126034E+01 -0.40934405334E+01  0.18817388578E+02  0.00000000000E+00 0.  1.
</event>
<event>
 7    1  0.4519225E-009  0.4778728E+02  0.7816164E-02  0.1312668E+00
        -11   -1    0    0    0    0  0.00000000000E+00  0.00000000000E+00  0.45593999997E+02  0.45594000000E+02  0.51100000000E-03 0. -1.
         11   -1    0    0    0    0 -0.00000000000E+00 -0.00000000000E+00 -0.45593999997E+02  0.45594000000E+02  0.51100000000E-03 0.  1.
    9900012    2    1    2    0    0 -0.25786859605E+02 -0.33297503313E+02  0.10485065631E+02  0.47787280461E+02  0.20000042935E+02 0.  0.
        -12    1    1    2    0    0  0.25786859605E+02  0.33297503313E+02 -0.10485065631E+02  0.43400719539E+02  0.00000000000E+00 0.  1.
         11    1    3    3    0    0 -0.80023061945E+01 -0.55722510835E+01  0.74829254326E+01  0.12291503564E+02  0.51100000000E-03 0. -1.
        -11    1    3    3    0    0 -0.11646588280E+02 -0.66479646432E+01  0.14389104553E+01  0.13487361344E+02  0.51100000000E-03 0.  1.
        -12    1    3    3    0    0 -0.61379651306E+01 -0.21077287586E+02  0.15632297429E+01  0.22008415553E+02  0.00000000000E+00 0.  1.
</event>
<event>
 7    1  0.4519225E-009  0.4778727E+02  0.7816164E-02  0.1312668E+00
        -11   -1    0    0    0    0  0.00000000000E+00  0.00000000000E+00  0.45593999997E+02  0.45594000000E+02  0.51100000000E-03 0.  1.
         11   -1    0    0    0    0 -0.00000000000E+00 -0.00000000000E+00 -0.45593999997E+02  0.45594000000E+02  0.51100000000E-03 0. -1.
    9900012    2    1    2    0    0  0.12385136036E+02 -0.10832613299E+01 -0.41581945029E+02  0.47787271871E+02  0.20000003768E+02 0.  0.
        -12    1    1    2    0    0 -0.12385136036E+02  0.10832613299E+01  0.41581945029E+02  0.43400728129E+02  0.00000000000E+00 0.  1.
         11    1    3    3    0    0 -0.28335058747E+00 -0.68129469693E+00  0.19419785716E+00  0.76299612602E+00  0.51100000000E-03 0.  1.
        -11    1    3    3    0    0  0.15308292697E+02 -0.27294702438E+01 -0.40321883636E+02  0.43216294767E+02  0.51100000000E-03 0. -1.
         12    1    3    3    0    0 -0.26398060737E+01  0.23275036107E+01 -0.14542592499E+01  0.38079809782E+01  0.00000000000E+00 0. -1.
</event>
<event>
 7    1  0.4519225E-009  0.4778728E+02  0.7816164E-02  0.1312668E+00
        -11   -1    0    0    0    0  0.00000000000E+00  0.00000000000E+00  0.45593999997E+02  0.45594000000E+02  0.51100000000E-03 0. -1.
         11   -1    0    0    0    0 -0.00000000000E+00 -0.00000000000E+00 -0.45593999997E+02  0.45594000000E+02  0.51100000000E-03 0.  1.
    9900012    2    1    2    0    0 -0.42929353316E+02  0.57412839595E+01 -0.27805004408E+01  0.47787275348E+02  0.20000019620E+02 0.  0.
        -12    1    1    2    0    0  0.42929353316E+02 -0.57412839595E+01  0.27805004408E+01  0.43400724652E+02  0.00000000000E+00 0.  1.
         11    1    3    3    0    0 -0.82033050925E+01 -0.88386128787E+00 -0.23565155030E+01  0.85807103898E+01  0.51100000000E-03 0. -1.
        -11    1    3    3    0    0 -0.84890467401E+01  0.33671109847E+01 -0.75224743543E+01  0.11831693523E+02  0.51100000000E-03 0.  1.
         12    1    3    3    0    0 -0.26237001483E+02  0.32580342627E+01  0.70984894166E+01  0.27374871435E+02  0.00000000000E+00 0. -1.
</event>
<event>
 7    1  0.4519225E-009  0.4778725E+02  0.7816164E-02  0.1312668E+00
        -11   -1    0    0    0    0  0.00000000000E+00  0.00000000000E+00  0.45593999997E+02  0.45594000000E+02  0.51100000000E-03 0.  1.
         11   -1    0    0    0    0 -0.00000000000E+00 -0.00000000000E+00 -0.45593999997E+02  0.45594000000E+02  0.51100000000E-03 0. -1.
    9900012    2    1    2    0    0 -0.16876710724E+02  0.15632302127E+01 -0.39954444351E+02  0.47787254880E+02  0.19999926298E+02 0.  0.
        -12    1    1    2    0    0  0.16876710724E+02 -0.15632302127E+01  0.39954444351E+02  0.43400745120E+02  0.00000000000E+00 0.  1.
         11    1    3    3    0    0 -0.76716598192E+01  0.44484244914E+01 -0.86288907744E+01  0.12373382767E+02  0.51100000000E-03 0. -1.
        -11    1    3    3    0    0 -0.10910681791E+02 -0.42113622883E-01 -0.29856244387E+02  0.31787420151E+02  0.51100000000E-03 0.  1.
        -12    1    3    3    0    0  0.17056308860E+01 -0.28430806558E+01 -0.14693091897E+01  0.36264519616E+01  0.00000000000E+00 0.  1.
</event>
<event>
 7    1  0.4519225E-009  0.4778727E+02  0.7816164E-02  0.1312668E+00
        -11   -1    0    0    0    0  0.00000000000E+00  0.00000000000E+00  0.45593999997E+02  0.45594000000E+02  0.51100000000E-03 0.  1.
         11   -1    0    0    0    0 -0.00000000000E+00 -0.00000000000E+00 -0.45593999997E+02  0.45594000000E+02  0.51100000000E-03 0. -1.
    9900012    2    1    2    0    0  0.24794642026E+02 -0.34549407106E+02 -0.86710741462E+01  0.47787270381E+02  0.19999996977E+02 0.  0.
        -12    1    1    2    0    0 -0.24794642026E+02  0.34549407106E+02  0.86710741462E+01  0.43400729619E+02  0.00000000000E+00 0.  1.
         11    1    3    3    0    0  0.70986104190E+01 -0.11409857117E+02  0.18779508555E+01  0.13568412177E+02  0.51100000000E-03 0. -1.
        -11    1    3    3    0    0  0.11172815295E+02 -0.19220183867E+02 -0.13395864521E+01  0.22271995008E+02  0.51100000000E-03 0.  1.
        -12    1    3    3    0    0  0.65232163118E+01 -0.39193661217E+01 -0.92094385496E+01  0.11946863197E+02  0.00000000000E+00 0.  1.
</event>
<event>
 7    1  0.4519225E-009  0.4778727E+02  0.7816164E-02  0.1312668E+00
        -11   -1    0    0    0    0  0.00000000000E+00  0.00000000000E+00  0.45593999997E+02  0.45594000000E+02  0.51100000000E-03 0. -1.
         11   -1    0    0    0    0 -0.00000000000E+00 -0.00000000000E+00 -0.45593999997E+02  0.45594000000E+02  0.51100000000E-03 0.  1.
    9900012    2    1    2    0    0  0.41914803537E+02 -0.68977514934E+01  0.88990640992E+01  0.47787273358E+02  0.20000010550E+02 0.  0.
        -12    1    1    2    0    0 -0.41914803537E+02  0.68977514934E+01 -0.88990640992E+01  0.43400726642E+02  0.00000000000E+00 0.  1.
         11    1    3    3    0    0  0.79798339972E+01  0.31901369883E+01  0.40149523525E+01  0.94854924639E+01  0.51100000000E-03 0. -1.
        -11    1    3    3    0    0  0.10883703025E+02 -0.98398014172E+00 -0.44760467549E+01  0.11809242282E+02  0.51100000000E-03 0.  1.
         12    1    3    3    0    0  0.23051266514E+02 -0.91039083400E+01  0.93601585016E+01  0.26492538613E+02  0.00000000000E+00 0. -1.
</event>
<event>
 7    1  0.4519225E-009  0.4778728E+02  0.7816164E-02  0.1312668E+00
        -11   -1    0    0    0    0  0.00000000000E+00  0.00000000000E+00  0.45593999997E+02  0.45594000000E+02  0.51100000000E-03 0.  1.
         11   -1    0    0    0    0 -0.00000000000E+00 -0.00000000000E+00 -0.45593999997E+02  0.45594000000E+02  0.51100000000E-03 0. -1.
    9900012    2    1    2    0    0  0.31600854100E+02 -0.26997775939E+02 -0.12495155418E+02  0.47787276568E+02  0.20000025186E+02 0.  0.
        -12    1    1    2    0    0 -0.31600854100E+02  0.26997775939E+02  0.12495155418E+02  0.43400723432E+02  0.00000000000E+00 0.  1.
         11    1    3    3    0    0 -0.62869804357E+00 -0.28917212475E+00 -0.17203137404E+00  0.71307559382E+00  0.51100000000E-03 0. -1.
        -11    1    3    3    0    0  0.20159439752E+01 -0.17436230407E+01  0.38437807802E+01  0.46774888954E+01  0.51100000000E-03 0.  1.
         12    1    3    3    0    0  0.30213608168E+02 -0.24964980773E+02 -0.16166904824E+02  0.42396712079E+02  0.00000000000E+00 0. -1.
</event>
<event>
 7    1  0.4519225E-009  0.4778727E+02  0.7816164E-02  0.1312668E+00
        -11   -1    0    0    0    0  0.00000000000E+00  0.00000000000E+00  0.45593999997E+02  0.45594000000E+02  0.51100000000E-03 0.  1.
         11   -1    0    0    0    0 -0.00000000000E+00 -0.00000000000E+00 -0.45593999997E+02  0.45594000000E+02  0.51100000000E-03 0. -1.
    9900012    2    1    2    0    0 -0.17545941252E+02 -0.18987755739E+02 -0.34860124829E+02  0.47787271602E+02  0.20000002541E+02 0.  0.
        -12    1    1    2    0    0  0.17545941252E+02  0.18987755739E+02  0.34860124829E+02  0.43400728398E+02  0.00000000000E+00 0.  1.
         11    1    3    3    0    0 -0.88433664632E+01 -0.67310540389E+01 -0.69639635479E+01  0.13115220449E+02  0.51100000000E-03 0. -1.
        -11    1    3    3    0    0 -0.21365366946E+01 -0.12481277711E+02 -0.11890214908E+02  0.17370212813E+02  0.51100000000E-03 0.  1.
        -12    1    3    3    0    0 -0.65660380940E+01  0.22457601045E+00 -0.16005946373E+02  0.17301838339E+02  0.00000000000E+00 0.  1.
</event>
<event>
 7    1  0.4519225E-009  0.4778729E+02  0.7816164E-02  0.1312668E+00
        -11   -1    0    0    0    0  0.00000000000E+00  0.00000000000E+00  0.45593999997E+02  0.45594000000E+02  0.51100000000E-03 0.  1.
         11   -1    0    0    0    0 -0.00000000000E+00 -0.00000000000E+00 -0.45593999997E+02  0.45594000000E+02  0.51100000000E-03 0. -1.
    9900012    2    1    2    0    0  0.34493260408E+02 -0.19543156771E+02 -0.17660744944E+02  0.47787286848E+02  0.20000072052E+02 0.  0.
        -12    1    1    2    0    0 -0.34493260408E+02  0.19543156771E+02  0.17660744944E+02  0.43400713152E+02  0.00000000000E+00 0.  1.
         11    1    3    3    0    0  0.12531348743E+02 -0.95031181369E+01 -0.16334991954E+02  0.22675447471E+02  0.51100000000E-03 0. -1.
        -11    1    3    3    0    0  0.34414804580E+00 -0.52443884391E+00  0.12037812442E+01  0.13574105950E+01  0.51100000000E-03 0.  1.
         12    1    3    3    0    0  0.21617763619E+02 -0.95155997901E+01 -0.25295342349E+01  0.23754428781E+02  0.00000000000E+00 0. -1.
</event>
<event>
 7    1  0.4519225E-009  0.4778727E+02  0.7816164E-02  0.1312668E+00
        -11   -1    0    0    0    0  0.00000000000E+00  0.00000000000E+00  0.45593999997E+02  0.45594000000E+02  0.51100000000E-03 0.  1.
         11   -1    0    0    0    0 -0.00000000000E+00 -0.00000000000E+00 -0.45593999997E+02  0.45594000000E+02  0.51100000000E-03 0. -1.
    9900012    2    1    2    0    0 -0.10752082385E+02 -0.12403921211E+02 -0.40176596114E+02  0.47787269449E+02  0.19999992728E+02 0.  0.
        -12    1    1    2    0    0  0.10752082385E+02  0.12403921211E+02  0.40176596114E+02  0.43400730551E+02  0.00000000000E+00 0.  1.
         11    1    3    3    0    0 -0.86892779345E+01 -0.11058425546E+02 -0.18052053979E+02  0.22883814798E+02  0.51100000000E-03 0.  1.
        -11    1    3    3    0    0 -0.23148114748E+01 -0.44207978283E+01 -0.21054170635E+02  0.21637465355E+02  0.51100000000E-03 0. -1.
         12    1    3    3    0    0  0.25200702436E+00  0.30753021636E+01 -0.10703715003E+01  0.32659892968E+01  0.00000000000E+00 0. -1.
</event>
<event>
 7    1  0.4519225E-009  0.4778727E+02  0.7816164E-02  0.1312668E+00
        -11   -1    0    0    0    0  0.00000000000E+00  0.00000000000E+00  0.45593999997E+02  0.45594000000E+02  0.51100000000E-03 0.  1.
         11   -1    0    0    0    0 -0.00000000000E+00 -0.00000000000E+00 -0.45593999997E+02  0.45594000000E+02  0.51100000000E-03 0. -1.
    9900012    2    1    2    0    0  0.20110964977E+01 -0.40652345363E+01 -0.43163093024E+02  0.47787271430E+02  0.20000001759E+02 0.  0.
        -12    1    1    2    0    0 -0.20110964977E+01  0.40652345363E+01  0.43163093024E+02  0.43400728570E+02  0.00000000000E+00 0.  1.
         11    1    3    3    0    0 -0.27947483138E+01 -0.46375589731E+01 -0.18131707461E+02  0.18922906412E+02  0.51100000000E-03 0. -1.
        -11    1    3    3    0    0 -0.32643286018E+01  0.81677513570E+00 -0.99618985698E+00  0.35093243416E+01  0.51100000000E-03 0.  1.
        -12    1    3    3    0    0  0.80701734133E+01 -0.24445069883E+00 -0.24035195706E+02  0.25355040676E+02  0.00000000000E+00 0.  1.
</event>
<event>
 7    1  0.4519225E-009  0.4778727E+02  0.7816164E-02  0.1312668E+00
        -11   -1    0    0    0    0  0.00000000000E+00  0.00000000000E+00  0.45593999997E+02  0.45594000000E+02  0.51100000000E-03 0. -1.
         11   -1    0    0    0    0 -0.00000000000E+00 -0.00000000000E+00 -0.45593999997E+02  0.45594000000E+02  0.51100000000E-03 0.  1.
    9900012    2    1    2    0    0  0.18748802128E+02 -0.22439264486E+02  0.32071565632E+02  0.47787268509E+02  0.19999988438E+02 0.  0.
        -12    1    1    2    0    0 -0.18748802128E+02  0.22439264486E+02 -0.32071565632E+02  0.43400731491E+02  0.00000000000E+00 0.  1.
         11    1    3    3    0    0  0.25662353130E+01 -0.23963551879E+01  0.12152959720E+02  0.12650000477E+02  0.51100000000E-03 0. -1.
        -11    1    3    3    0    0  0.11470036446E+02 -0.38999614840E+01  0.77949735183E+01  0.14406007360E+02  0.51100000000E-03 0.  1.
         12    1    3    3    0    0  0.47125303691E+01 -0.16142947814E+02  0.12123632394E+02  0.20731260671E+02  0.00000000000E+00 0. -1.
</event>
<event>
 7    1  0.4519225E-009  0.4778727E+02  0.7816164E-02  0.1312668E+00
        -11   -1    0    0    0    0  0.00000000000E+00  0.00000000000E+00  0.45593999997E+02  0.45594000000E+02  0.51100000000E-03 0.  1.
         11   -1    0    0    0    0 -0.00000000000E+00 -0.00000000000E+00 -0.45593999997E+02  0.45594000000E+02  0.51100000000E-03 0. -1.
    9900012    2    1    2    0    0  0.33941200064E+02  0.17039428007E+02 -0.21006570381E+02  0.47787272267E+02  0.20000005573E+02 0.  0.
        -12    1    1    2    0    0 -0.33941200064E+02 -0.17039428007E+02  0.21006570381E+02  0.43400727733E+02  0.00000000000E+00 0.  1.
         11    1    3    3    0    0 -0.79777415448E+00  0.55607636035E+00  0.79284770228E+00  0.12547000678E+01  0.51100000000E-03 0. -1.
        -11    1    3    3    0    0  0.92132351901E+01  0.30926159497E+01  0.10153508839E+01  0.97713312174E+01  0.51100000000E-03 0.  1.
         12    1    3    3    0    0  0.25525739029E+02  0.13390735697E+02 -0.22814768967E+02  0.36761240981E+02  0.00000000000E+00 0. -1.
</event>
<event>
 7    1  0.4519225E-009  0.4778727E+02  0.7816164E-02  0.1312668E+00
        -11   -1    0    0    0    0  0.00000000000E+00  0.00000000000E+00  0.45593999997E+02  0.45594000000E+02  0.51100000000E-03 0.  1.
         11   -1    0    0    0    0 -0.00000000000E+00 -0.00000000000E+00 -0.45593999997E+02  0.45594000000E+02  0.51100000000E-03 0. -1.
    9900012    2    1    2    0    0 -0.39364060248E+02  0.53630171570E+01  0.17473744655E+02  0.47787274839E+02  0.20000017302E+02 0.  0.
        -12    1    1    2    0    0  0.39364060248E+02 -0.53630171570E+01 -0.17473744655E+02  0.43400725161E+02  0.00000000000E+00 0.  1.
         11    1    3    3    0    0 -0.36565715480E+02  0.67472382056E+01  0.11475324140E+02  0.38913491701E+02  0.51100000000E-03 0. -1.
        -11    1    3    3    0    0 -0.30020360078E+01  0.16988501453E+01  0.31336085413E+01  0.46602376291E+01  0.51100000000E-03 0.  1.
         12    1    3    3    0    0  0.20369124060E+00 -0.30830711939E+01  0.28648119741E+01  0.42135455089E+01  0.00000000000E+00 0. -1.
</event>
<event>
 7    1  0.4519225E-009  0.4778727E+02  0.7816164E-02  0.1312668E+00
        -11   -1    0    0    0    0  0.00000000000E+00  0.00000000000E+00  0.45593999997E+02  0.45594000000E+02  0.51100000000E-03 0. -1.
         11   -1    0    0    0    0 -0.00000000000E+00 -0.00000000000E+00 -0.45593999997E+02  0.45594000000E+02  0.51100000000E-03 0.  1.
    9900012    2    1    2    0    0 -0.92364843728E+01 -0.20293173284E+02  0.37235706744E+02  0.47787269796E+02  0.19999994310E+02 0.  0.
        -12    1    1    2    0    0  0.92364843728E+01  0.20293173284E+02 -0.37235706744E+02  0.43400730204E+02  0.00000000000E+00 0.  1.
         11    1    3    3    0    0  0.33803495736E+01 -0.63635845345E+01  0.44106399137E+01  0.84484150038E+01  0.51100000000E-03 0.  1.
        -11    1    3    3    0    0 -0.26783439612E+01 -0.10045185855E+02  0.20858649198E+02  0.23305847589E+02  0.51100000000E-03 0. -1.
        -12    1    3    3    0    0 -0.99384899852E+01 -0.38844028948E+01  0.11966417632E+02  0.16033007203E+02  0.00000000000E+00 0.  1.
</event>
<event>
 7    1  0.4519225E-009  0.4778726E+02  0.7816164E-02  0.1312668E+00
        -11   -1    0    0    0    0  0.00000000000E+00  0.00000000000E+00  0.45593999997E+02  0.45594000000E+02  0.51100000000E-03 0.  1.
         11   -1    0    0    0    0 -0.00000000000E+00 -0.00000000000E+00 -0.45593999997E+02  0.45594000000E+02  0.51100000000E-03 0. -1.
    9900012    2    1    2    0    0 -0.36551479236E+02  0.34152523480E+01 -0.23150594289E+02  0.47787255780E+02  0.19999930404E+02 0.  0.
        -12    1    1    2    0    0  0.36551479236E+02 -0.34152523480E+01  0.23150594289E+02  0.43400744220E+02  0.00000000000E+00 0.  1.
         11    1    3    3    0    0 -0.12939233778E+02  0.16531836885E+01 -0.10719509313E+02  0.16883858186E+02  0.51100000000E-03 0. -1.
        -11    1    3    3    0    0 -0.11945243665E+02 -0.30464224383E+01 -0.13448157849E+02  0.18243423081E+02  0.51100000000E-03 0.  1.
        -12    1    3    3    0    0 -0.11667001792E+02  0.48084910978E+01  0.10170728736E+01  0.12659974513E+02  0.00000000000E+00 0.  1.
</event>
<event>
 7    1  0.4519225E-009  0.4778728E+02  0.7816164E-02  0.1312668E+00
        -11   -1    0    0    0    0  0.00000000000E+00  0.00000000000E+00  0.45593999997E+02  0.45594000000E+02  0.51100000000E-03 0.  1.
         11   -1    0    0    0    0 -0.00000000000E+00 -0.00000000000E+00 -0.45593999997E+02  0.45594000000E+02  0.51100000000E-03 0. -1.
    9900012    2    1    2    0    0 -0.34561568502E+02 -0.21492440323E+02 -0.15073011606E+02  0.47787277803E+02  0.20000030816E+02 0.  0.
        -12    1    1    2    0    0  0.34561568502E+02  0.21492440323E+02  0.15073011606E+02  0.43400722197E+02  0.00000000000E+00 0.  1.
         11    1    3    3    0    0 -0.18981767223E+02 -0.14851401521E+02 -0.77796532997E+01  0.25325769875E+02  0.51100000000E-03 0. -1.
        -11    1    3    3    0    0 -0.16448277449E+02 -0.22555463192E+01 -0.45429251658E+01  0.17212538731E+02  0.51100000000E-03 0.  1.
         12    1    3    3    0    0  0.86847617036E+00 -0.43854924829E+01 -0.27504331400E+01  0.52489691973E+01  0.00000000000E+00 0. -1.
</event>
<event>
 7    1  0.4519225E-009  0.4778727E+02  0.7816164E-02  0.1312668E+00
        -11   -1    0    0    0    0  0.00000000000E+00  0.00000000000E+00  0.45593999997E+02  0.45594000000E+02  0.51100000000E-03 0.  1.
         11   -1    0    0    0    0 -0.00000000000E+00 -0.00000000000E+00 -0.45593999997E+02  0.45594000000E+02  0.51100000000E-03 0. -1.
    9900012    2    1    2    0    0 -0.24309523086E+02 -0.34969715771E+02  0.83540055427E+01  0.47787270256E+02  0.19999996403E+02 0.  0.
        -12    1    1    2    0    0  0.24309523086E+02  0.34969715771E+02 -0.83540055427E+01  0.43400729744E+02  0.00000000000E+00 0.  1.
         11    1    3    3    0    0 -0.35319375528E+01 -0.87465340216E+00  0.15113823070E+01  0.39400353031E+01  0.51100000000E-03 0.  1.
        -11    1    3    3    0    0 -0.10901905487E+02 -0.41987285962E+01  0.28290785651E+00  0.11685927528E+02  0.51100000000E-03 0. -1.
         12    1    3    3    0    0 -0.98756800461E+01 -0.29896333772E+02  0.65597153792E+01  0.32161307425E+02  0.00000000000E+00 0. -1.
</event>
<event>
 7    1  0.4519225E-009  0.4778727E+02  0.7816164E-02  0.1312668E+00
        -11   -1    0    0    0    0  0.00000000000E+00  0.00000000000E+00  0.45593999997E+02  0.45594000000E+02  0.51100000000E-03 0. -1.
         11   -1    0    0    0    0 -0.00000000000E+00 -0.00000000000E+00 -0.45593999997E+02  0.45594000000E+02  0.51100000000E-03 0.  1.
    9900012    2    1    2    0    0  0.75442640634E+01 -0.15909031624E+02  0.39668757912E+02  0.47787267728E+02  0.19999984880E+02 0.  0.
        -12    1    1    2    0    0 -0.75442640634E+01  0.15909031624E+02 -0.39668757912E+02  0.43400732272E+02  0.00000000000E+00 0.  1.
         11    1    3    3    0    0 -0.52995095536E+01 -0.48244672120E+01  0.43931506006E+01  0.84059537144E+01  0.51100000000E-03 0.  1.
        -11    1    3    3    0    0  0.56418079760E+01 -0.76486148879E+01  0.18148931784E+02  0.20486947847E+02  0.51100000000E-03 0. -1.
        -12    1    3    3    0    0  0.72019656410E+01 -0.34359495241E+01  0.17126675527E+02  0.18894366167E+02  0.00000000000E+00 0.  1.
</event>
<event>
 7    1  0.4519225E-009  0.4778728E+02  0.7816164E-02  0.1312668E+00
        -11   -1    0    0    0    0  0.00000000000E+00  0.00000000000E+00  0.45593999997E+02  0.45594000000E+02  0.51100000000E-03 0.  1.
         11   -1    0    0    0    0 -0.00000000000E+00 -0.00000000000E+00 -0.45593999997E+02  0.45594000000E+02  0.51100000000E-03 0. -1.
    9900012    2    1    2    0    0  0.22827833178E+02  0.13014910805E+02 -0.34541642050E+02  0.47787275278E+02  0.20000019302E+02 0.  0.
        -12    1    1    2    0    0 -0.22827833178E+02 -0.13014910805E+02  0.34541642050E+02  0.43400724722E+02  0.00000000000E+00 0.  1.
         11    1    3    3    0    0  0.70271138199E+01  0.12369478133E+02 -0.13395653521E+02  0.19540415846E+02  0.51100000000E-03 0.  1.
        -11    1    3    3    0    0  0.12244296610E+02  0.48778062723E+01 -0.14300272603E+02  0.19447714269E+02  0.51100000000E-03 0. -1.
        -12    1    3    3    0    0  0.35564227487E+01 -0.42323736005E+01 -0.68457159260E+01  0.87991451631E+01  0.00000000000E+00 0.  1.
</event>
<event>
 7    1  0.4519225E-009  0.4778727E+02  0.7816164E-02  0.1312668E+00
        -11   -1    0    0    0    0  0.00000000000E+00  0.00000000000E+00  0.45593999997E+02  0.45594000000E+02  0.51100000000E-03 0.  1.
         11   -1    0    0    0    0 -0.00000000000E+00 -0.00000000000E+00 -0.45593999997E+02  0.45594000000E+02  0.51100000000E-03 0. -1.
    9900012    2    1    2    0    0  0.28816936891E+01  0.58204468707E+01 -0.42912018223E+02  0.47787273414E+02  0.20000010802E+02 0.  0.
        -12    1    1    2    0    0 -0.28816936891E+01 -0.58204468707E+01  0.42912018223E+02  0.43400726586E+02  0.00000000000E+00 0.  1.
         11    1    3    3    0    0  0.64387698814E+01  0.36467174473E+01 -0.12579945646E+02  0.14594907963E+02  0.51100000000E-03 0. -1.
        -11    1    3    3    0    0  0.31493540609E+01  0.13210214862E+01 -0.17807207277E+01  0.38515575212E+01  0.51100000000E-03 0.  1.
         12    1    3    3    0    0 -0.67064302532E+01  0.85270793713E+00 -0.28551351849E+02  0.29340807930E+02  0.00000000000E+00 0. -1.
</event>
<event>
 7    1  0.4519225E-009  0.4778727E+02  0.7816164E-02  0.1312668E+00
        -11   -1    0    0    0    0  0.00000000000E+00  0.00000000000E+00  0.45593999997E+02  0.45594000000E+02  0.51100000000E-03 0.  1.
         11   -1    0    0    0    0 -0.00000000000E+00 -0.00000000000E+00 -0.45593999997E+02  0.45594000000E+02  0.51100000000E-03 0. -1.
    9900012    2    1    2    0    0 -0.94940843693E+01  0.32762600072E+02 -0.26834634557E+02  0.47787271742E+02  0.20000003180E+02 0.  0.
        -12    1    1    2    0    0  0.94940843693E+01 -0.32762600072E+02  0.26834634557E+02  0.43400728258E+02  0.00000000000E+00 0.  1.
         11    1    3    3    0    0 -0.19130856735E+00  0.32577109264E+01  0.71489258569E+00  0.33407111696E+01  0.51100000000E-03 0. -1.
        -11    1    3    3    0    0  0.32120643624E+01  0.10927921821E+01 -0.51345033730E+01  0.61542406006E+01  0.51100000000E-03 0.  1.
         12    1    3    3    0    0 -0.12514840164E+02  0.28412096964E+02 -0.22415023770E+02  0.38292319972E+02  0.00000000000E+00 0. -1.
</event>
<event>
 7    1  0.4519225E-009  0.4778727E+02  0.7816164E-02  0.1312668E+00
        -11   -1    0    0    0    0  0.00000000000E+00  0.00000000000E+00  0.45593999997E+02  0.45594000000E+02  0.51100000000E-03 0.  1.
         11   -1    0    0    0    0 -0.00000000000E+00 -0.00000000000E+00 -0.45593999997E+02  0.45594000000E+02  0.51100000000E-03 0. -1.
    9900012    2    1    2    0    0  0.31968463533E+02  0.28921630606E+02 -0.50179316668E+01  0.47787274017E+02  0.20000013555E+02 0.  0.
        -12    1    1    2    0    0 -0.31968463533E+02 -0.28921630606E+02  0.50179316668E+01  0.43400725983E+02  0.00000000000E+00 0.  1.
         11    1    3    3    0    0  0.18479721872E+02  0.11647342527E+02 -0.81404558960E+01  0.23311536433E+02  0.51100000000E-03 0. -1.
        -11    1    3    3    0    0  0.59527942050E+01  0.65084638064E+00  0.20160710099E+00  0.59916613341E+01  0.51100000000E-03 0.  1.
         12    1    3    3    0    0  0.75359474566E+01  0.16623441698E+02  0.29209171282E+01  0.18484076251E+02  0.00000000000E+00 0. -1.
</event>
<event>
 7    1  0.4519225E-009  0.4778726E+02  0.7816164E-02  0.1312668E+00
        -11   -1    0    0    0    0  0.00000000000E+00  0.00000000000E+00  0.45593999997E+02  0.45594000000E+02  0.51100000000E-03 0.  1.
         11   -1    0    0    0    0 -0.00000000000E+00 -0.00000000000E+00 -0.45593999997E+02  0.45594000000E+02  0.51100000000E-03 0. -1.
    9900012    2    1    2    0    0 -0.19209294720E+02  0.89999482216E+01 -0.37863276795E+02  0.47787264969E+02  0.19999972299E+02 0.  0.
        -12    1    1    2    0    0  0.19209294720E+02 -0.89999482216E+01  0.37863276795E+02  0.43400735031E+02  0.00000000000E+00 0.  1.
         11    1    3    3    0    0 -0.16866845184E+01  0.72883737977E+00 -0.76502704759E+01  0.78678298918E+01  0.51100000000E-03 0. -1.
        -11    1    3    3    0    0 -0.89124334985E+00 -0.47597168841E+01 -0.42255428221E+01  0.64268524122E+01  0.51100000000E-03 0.  1.
         12    1    3    3    0    0 -0.16631366852E+02  0.13030827726E+02 -0.25987463497E+02  0.33492582665E+02  0.00000000000E+00 0. -1.
</event>
<event>
 7    1  0.4519225E-009  0.4778727E+02  0.7816164E-02  0.1312668E+00
        -11   -1    0    0    0    0  0.00000000000E+00  0.00000000000E+00  0.45593999997E+02  0.45594000000E+02  0.51100000000E-03 0.  1.
         11   -1    0    0    0    0 -0.00000000000E+00 -0.00000000000E+00 -0.45593999997E+02  0.45594000000E+02  0.51100000000E-03 0. -1.
    9900012    2    1    2    0    0 -0.39486743923E+02 -0.13566343485E+02  0.11847984303E+02  0.47787270130E+02  0.19999995831E+02 0.  0.
        -12    1    1    2    0    0  0.39486743923E+02  0.13566343485E+02 -0.11847984303E+02  0.43400729870E+02  0.00000000000E+00 0.  1.
         11    1    3    3    0    0 -0.15964064870E+02 -0.67775208370E+01  0.10160792869E+02  0.20100444469E+02  0.51100000000E-03 0.  1.
        -11    1    3    3    0    0 -0.21186689868E+02 -0.61585512884E+01 -0.31412244587E+01  0.22286113903E+02  0.51100000000E-03 0. -1.
         12    1    3    3    0    0 -0.23359891850E+01 -0.63027135958E+00  0.48284158926E+01  0.54007117578E+01  0.00000000000E+00 0. -1.
</event>
<event>
 7    1  0.4519225E-009  0.4778727E+02  0.7816164E-02  0.1312668E+00
        -11   -1    0    0    0    0  0.00000000000E+00  0.00000000000E+00  0.45593999997E+02  0.45594000000E+02  0.51100000000E-03 0.  1.
         11   -1    0    0    0    0 -0.00000000000E+00 -0.00000000000E+00 -0.45593999997E+02  0.45594000000E+02  0.51100000000E-03 0. -1.
    9900012    2    1    2    0    0  0.37741161263E+02 -0.99750821844E+00 -0.21406374574E+02  0.47787272488E+02  0.20000006583E+02 0.  0.
        -12    1    1    2    0    0 -0.37741161263E+02  0.99750821844E+00  0.21406374574E+02  0.43400727512E+02  0.00000000000E+00 0.  1.
         11    1    3    3    0    0  0.76558513834E+01 -0.55551527927E+01 -0.48662273589E+01  0.10637290629E+02  0.51100000000E-03 0. -1.
        -11    1    3    3    0    0  0.19829619058E+02 -0.33447052677E+01 -0.12064937970E+02  0.23451302177E+02  0.51100000000E-03 0.  1.
        -12    1    3    3    0    0  0.10255690821E+02  0.79023498420E+01 -0.44752092453E+01  0.13698679682E+02  0.00000000000E+00 0.  1.
</event>
<event>
 7    1  0.4519225E-009  0.4778727E+02  0.7816164E-02  0.1312668E+00
        -11   -1    0    0    0    0  0.00000000000E+00  0.00000000000E+00  0.45593999997E+02  0.45594000000E+02  0.51100000000E-03 0.  1.
         11   -1    0    0    0    0 -0.00000000000E+00 -0.00000000000E+00 -0.45593999997E+02  0.45594000000E+02  0.51100000000E-03 0. -1.
    9900012    2    1    2    0    0 -0.39899717300E+02  0.10456903055E+02 -0.13501440024E+02  0.47787272531E+02  0.20000006778E+02 0.  0.
        -12    1    1    2    0    0  0.39899717300E+02 -0.10456903055E+02  0.13501440024E+02  0.43400727469E+02  0.00000000000E+00 0.  1.
         11    1    3    3    0    0 -0.17327225747E+02  0.17218653173E-01  0.20364783671E+01  0.17446498015E+02  0.51100000000E-03 0. -1.
        -11    1    3    3    0    0 -0.44873777371E+01 -0.44835701359E+00 -0.50457101112E+01  0.67673313614E+01  0.51100000000E-03 0.  1.
         12    1    3    3    0    0 -0.18085113816E+02  0.10888041415E+02 -0.10492208280E+02  0.23573443155E+02  0.00000000000E+00 0. -1.
</event>
<event>
 7    1  0.4519225E-009  0.4778727E+02  0.7816164E-02  0.1312668E+00
        -11   -1    0    0    0    0  0.00000000000E+00  0.00000000000E+00  0.45593999997E+02  0.45594000000E+02  0.51100000000E-03 0. -1.
         11   -1    0    0    0    0 -0.00000000000E+00 -0.00000000000E+00 -0.45593999997E+02  0.45594000000E+02  0.51100000000E-03 0.  1.
    9900012    2    1    2    0    0  0.81182065000E+01  0.42513866055E+02  0.32076339166E+01  0.47787274210E+02  0.20000014435E+02 0.  0.
        -12    1    1    2    0    0 -0.81182065000E+01 -0.42513866055E+02 -0.32076339166E+01  0.43400725790E+02  0.00000000000E+00 0.  1.
         11    1    3    3    0    0  0.24007595333E+01  0.20418901899E+01  0.18634678254E+01  0.36613487244E+01  0.51100000000E-03 0. -1.
        -11    1    3    3    0    0  0.66736826244E+00  0.38247864356E+02  0.29822929460E+01  0.38369761267E+02  0.51100000000E-03 0.  1.
        -12    1    3    3    0    0  0.50500787043E+01  0.22241115089E+01 -0.16381268547E+01  0.57561642190E+01  0.00000000000E+00 0.  1.
</event>
<event>
 7    1  0.4519225E-009  0.4778727E+02  0.7816164E-02  0.1312668E+00
        -11   -1    0    0    0    0  0.00000000000E+00  0.00000000000E+00  0.45593999997E+02  0.45594000000E+02  0.51100000000E-03 0.  1.
         11   -1    0    0    0    0 -0.00000000000E+00 -0.00000000000E+00 -0.45593999997E+02  0.45594000000E+02  0.51100000000E-03 0. -1.
    9900012    2    1    2    0    0 -0.30326713513E+02 -0.61301764834E+00 -0.31040907656E+02  0.47787270844E+02  0.19999999088E+02 0.  0.
        -12    1    1    2    0    0  0.30326713513E+02  0.61301764834E+00  0.31040907656E+02  0.43400729156E+02  0.00000000000E+00 0.  1.
         11    1    3    3    0    0 -0.18870472959E+02 -0.18424154669E+01 -0.21885476842E+02  0.28956231477E+02  0.51100000000E-03 0. -1.
        -11    1    3    3    0    0 -0.53063415796E+01 -0.41138397386E+01 -0.18991594921E+00  0.67169194340E+01  0.51100000000E-03 0.  1.
        -12    1    3    3    0    0 -0.61498989743E+01  0.53432375571E+01 -0.89655148645E+01  0.12114119934E+02  0.00000000000E+00 0.  1.
</event>
<event>
 7    1  0.4519225E-009  0.4778727E+02  0.7816164E-02  0.1312668E+00
        -11   -1    0    0    0    0  0.00000000000E+00  0.00000000000E+00  0.45593999997E+02  0.45594000000E+02  0.51100000000E-03 0. -1.
         11   -1    0    0    0    0 -0.00000000000E+00 -0.00000000000E+00 -0.45593999997E+02  0.45594000000E+02  0.51100000000E-03 0.  1.
    9900012    2    1    2    0    0  0.24556438439E+02  0.25904853520E+02  0.24688931074E+02  0.47787269335E+02  0.19999992205E+02 0.  0.
        -12    1    1    2    0    0 -0.24556438439E+02 -0.25904853520E+02 -0.24688931074E+02  0.43400730665E+02  0.00000000000E+00 0.  1.
         11    1    3    3    0    0  0.24302464612E+02  0.16517481459E+02  0.16841970185E+02  0.33868701480E+02  0.51100000000E-03 0. -1.
        -11    1    3    3    0    0  0.28956978367E+00 -0.21487374582E+00  0.32547427669E+01  0.32746560317E+01  0.51100000000E-03 0.  1.
         12    1    3    3    0    0 -0.35595957229E-01  0.96022458071E+01  0.45922181223E+01  0.10643911823E+02  0.00000000000E+00 0. -1.
</event>
<event>
 7    1  0.4519225E-009  0.4778727E+02  0.7816164E-02  0.1312668E+00
        -11   -1    0    0    0    0  0.00000000000E+00  0.00000000000E+00  0.45593999997E+02  0.45594000000E+02  0.51100000000E-03 0. -1.
         11   -1    0    0    0    0 -0.00000000000E+00 -0.00000000000E+00 -0.45593999997E+02  0.45594000000E+02  0.51100000000E-03 0.  1.
    9900012    2    1    2    0    0  0.20119440924E+02 -0.31012938953E+02  0.22738273432E+02  0.47787270003E+02  0.19999995253E+02 0.  0.
        -12    1    1    2    0    0 -0.20119440924E+02  0.31012938953E+02 -0.22738273432E+02  0.43400729997E+02  0.00000000000E+00 0.  1.
         11    1    3    3    0    0  0.65617053516E+00 -0.81311245914E+01  0.14243252134E+01  0.82809691140E+01  0.51100000000E-03 0. -1.
        -11    1    3    3    0    0  0.17346805093E+02 -0.21837455102E+02  0.12826804849E+02  0.30697117375E+02  0.51100000000E-03 0.  1.
         12    1    3    3    0    0  0.21164652959E+01 -0.10443592598E+01  0.84871433697E+01  0.88091835144E+01  0.00000000000E+00 0. -1.
</event>
<event>
 7    1  0.4519225E-009  0.4778727E+02  0.7816164E-02  0.1312668E+00
        -11   -1    0    0    0    0  0.00000000000E+00  0.00000000000E+00  0.45593999997E+02  0.45594000000E+02  0.51100000000E-03 0. -1.
         11   -1    0    0    0    0 -0.00000000000E+00 -0.00000000000E+00 -0.45593999997E+02  0.45594000000E+02  0.51100000000E-03 0.  1.
    9900012    2    1    2    0    0 -0.39989301188E+02  0.16111870344E+01  0.16789378853E+02  0.47787269874E+02  0.19999994664E+02 0.  0.
        -12    1    1    2    0    0  0.39989301188E+02 -0.16111870344E+01 -0.16789378853E+02  0.43400730126E+02  0.00000000000E+00 0.  1.
         11    1    3    3    0    0 -0.11024401137E+02  0.56539579426E+01  0.11460280689E+02  0.16877283389E+02  0.51100000000E-03 0. -1.
        -11    1    3    3    0    0 -0.90356783293E+01  0.16569594913E+01 -0.99095155027E+00  0.92396419229E+01  0.51100000000E-03 0.  1.
        -12    1    3    3    0    0 -0.19929221722E+02 -0.56997303996E+01  0.63200497140E+01  0.21670344562E+02  0.00000000000E+00 0.  1.
</event>
<event>
 7    1  0.4519225E-009  0.4778728E+02  0.7816164E-02  0.1312668E+00
        -11   -1    0    0    0    0  0.00000000000E+00  0.00000000000E+00  0.45593999997E+02  0.45594000000E+02  0.51100000000E-03 0. -1.
         11   -1    0    0    0    0 -0.00000000000E+00 -0.00000000000E+00 -0.45593999997E+02  0.45594000000E+02  0.51100000000E-03 0.  1.
    9900012    2    1    2    0    0  0.41425916413E+02 -0.77801734803E+01  0.10343341577E+02  0.47787281515E+02  0.20000047738E+02 0.  0.
        -12    1    1    2    0    0 -0.41425916413E+02  0.77801734803E+01 -0.10343341577E+02  0.43400718485E+02  0.00000000000E+00 0.  1.
         11    1    3    3    0    0 -0.42230298090E+00  0.13086265236E+01 -0.17407096471E+01  0.22183132156E+01  0.51100000000E-03 0.  1.
        -11    1    3    3    0    0  0.94767090912E+01 -0.63909912948E+01  0.38017752657E+01  0.12046006822E+02  0.51100000000E-03 0. -1.
        -12    1    3    3    0    0  0.32371510303E+02 -0.26978087091E+01  0.82822759587E+01  0.33522961477E+02  0.00000000000E+00 0.  1.
</event>
<event>
 7    1  0.4519225E-009  0.4778727E+02  0.7816164E-02  0.1312668E+00
        -11   -1    0    0    0    0  0.00000000000E+00  0.00000000000E+00  0.45593999997E+02  0.45594000000E+02  0.51100000000E-03 0.  1.
         11   -1    0    0    0    0 -0.00000000000E+00 -0.00000000000E+00 -0.45593999997E+02  0.45594000000E+02  0.51100000000E-03 0. -1.
    9900012    2    1    2    0    0 -0.23468396116E+02 -0.23166997583E+01 -0.36434749081E+02  0.47787266658E+02  0.19999980001E+02 0.  0.
        -12    1    1    2    0    0  0.23468396116E+02  0.23166997583E+01  0.36434749081E+02  0.43400733342E+02  0.00000000000E+00 0.  1.
         11    1    3    3    0    0 -0.16547287486E+02  0.11377694594E+01 -0.17555678269E+02  0.24151792527E+02  0.51100000000E-03 0. -1.
        -11    1    3    3    0    0 -0.50815100958E+01 -0.19824945924E+01 -0.93099633869E+00  0.55334242659E+01  0.51100000000E-03 0.  1.
        -12    1    3    3    0    0 -0.18395985346E+01 -0.14719746253E+01 -0.17948074473E+02  0.18102049866E+02  0.00000000000E+00 0.  1.
</event>
<event>
 7    1  0.4519225E-009  0.4778728E+02  0.7816164E-02  0.1312668E+00
        -11   -1    0    0    0    0  0.00000000000E+00  0.00000000000E+00  0.45593999997E+02  0.45594000000E+02  0.51100000000E-03 0.  1.
         11   -1    0    0    0    0 -0.00000000000E+00 -0.00000000000E+00 -0.45593999997E+02  0.45594000000E+02  0.51100000000E-03 0. -1.
    9900012    2    1    2    0    0  0.38155048790E+02 -0.18202456241E+02 -0.98227063695E+01  0.47787277405E+02  0.20000028999E+02 0.  0.
        -12    1    1    2    0    0 -0.38155048790E+02  0.18202456241E+02  0.98227063695E+01  0.43400722595E+02  0.00000000000E+00 0.  1.
         11    1    3    3    0    0  0.54247729500E+00  0.14132137446E+01 -0.59015474470E+00  0.16247269270E+01  0.51100000000E-03 0. -1.
        -11    1    3    3    0    0  0.20835511017E+02 -0.48939423948E+01  0.13813688678E+01  0.21447083058E+02  0.51100000000E-03 0.  1.
         12    1    3    3    0    0  0.16777060478E+02 -0.14721727591E+02 -0.10613920493E+02  0.24715467420E+02  0.00000000000E+00 0. -1.
</event>
<event>
 7    1  0.4519225E-009  0.4778727E+02  0.7816164E-02  0.1312668E+00
        -11   -1    0    0    0    0  0.00000000000E+00  0.00000000000E+00  0.45593999997E+02  0.45594000000E+02  0.51100000000E-03 0.  1.
         11   -1    0    0    0    0 -0.00000000000E+00 -0.00000000000E+00 -0.45593999997E+02  0.45594000000E+02  0.51100000000E-03 0. -1.
    9900012    2    1    2    0    0 -0.11385362652E+02 -0.20124648874E+02 -0.36728671040E+02  0.47787271304E+02  0.20000001182E+02 0.  0.
        -12    1    1    2    0    0  0.11385362652E+02  0.20124648874E+02  0.36728671040E+02  0.43400728696E+02  0.00000000000E+00 0.  1.
         11    1    3    3    0    0 -0.35370132828E+01 -0.94189726696E+01 -0.11182459632E+02  0.15042437063E+02  0.51100000000E-03 0. -1.
        -11    1    3    3    0    0  0.42394359908E+01 -0.41503705359E+01 -0.12278693556E+02  0.13636887798E+02  0.51100000000E-03 0.  1.
         12    1    3    3    0    0 -0.12087785360E+02 -0.65553056681E+01 -0.13267517852E+02  0.19107946443E+02  0.00000000000E+00 0. -1.
</event>
<event>
 7    1  0.4519225E-009  0.4778727E+02  0.7816164E-02  0.1312668E+00
        -11   -1    0    0    0    0  0.00000000000E+00  0.00000000000E+00  0.45593999997E+02  0.45594000000E+02  0.51100000000E-03 0.  1.
         11   -1    0    0    0    0 -0.00000000000E+00 -0.00000000000E+00 -0.45593999997E+02  0.45594000000E+02  0.51100000000E-03 0. -1.
    9900012    2    1    2    0    0  0.19566372396E+02  0.30983676641E+02 -0.23254935788E+02  0.47787272064E+02  0.20000004647E+02 0.  0.
        -12    1    1    2    0    0 -0.19566372396E+02 -0.30983676641E+02  0.23254935788E+02  0.43400727936E+02  0.00000000000E+00 0.  1.
         11    1    3    3    0    0  0.13599602606E+02  0.16380459986E+02 -0.49094197017E+01  0.21848822908E+02  0.51100000000E-03 0. -1.
        -11    1    3    3    0    0  0.59081576393E+01  0.13343599687E+02 -0.10464709034E+02  0.17957397215E+02  0.51100000000E-03 0.  1.
        -12    1    3    3    0    0  0.58612150662E-01  0.12596169672E+01 -0.78808070522E+01  0.79810519408E+01  0.00000000000E+00 0.  1.
</event>
<event>
 7    1  0.4519225E-009  0.4778727E+02  0.7816164E-02  0.1312668E+00
        -11   -1    0    0    0    0  0.00000000000E+00  0.00000000000E+00  0.45593999997E+02  0.45594000000E+02  0.51100000000E-03 0. -1.
         11   -1    0    0    0    0 -0.00000000000E+00 -0.00000000000E+00 -0.45593999997E+02  0.45594000000E+02  0.51100000000E-03 0.  1.
    9900012    2    1    2    0    0 -0.42285429833E+02 -0.95947729957E+01  0.18724673731E+01  0.47787269833E+02  0.19999994476E+02 0.  0.
        -12    1    1    2    0    0  0.42285429833E+02  0.95947729957E+01 -0.18724673731E+01  0.43400730167E+02  0.00000000000E+00 0.  1.
         11    1    3    3    0    0 -0.57469280173E+01  0.88459168080E+00 -0.62848495884E+00  0.58484765266E+01  0.51100000000E-03 0. -1.
        -11    1    3    3    0    0 -0.16563994434E+02  0.12646197726E+01 -0.53838414847E+01  0.17462844103E+02  0.51100000000E-03 0.  1.
         12    1    3    3    0    0 -0.19974507382E+02 -0.11743984449E+02  0.78847938167E+01  0.24475949204E+02  0.00000000000E+00 0. -1.
</event>
<event>
 7    1  0.4519225E-009  0.4778727E+02  0.7816164E-02  0.1312668E+00
        -11   -1    0    0    0    0  0.00000000000E+00  0.00000000000E+00  0.45593999997E+02  0.45594000000E+02  0.51100000000E-03 0.  1.
         11   -1    0    0    0    0 -0.00000000000E+00 -0.00000000000E+00 -0.45593999997E+02  0.45594000000E+02  0.51100000000E-03 0. -1.
    9900012    2    1    2    0    0  0.57066708143E+01 -0.64148828387E+01 -0.42542996748E+02  0.47787269754E+02  0.19999994115E+02 0.  0.
        -12    1    1    2    0    0 -0.57066708143E+01  0.64148828387E+01  0.42542996748E+02  0.43400730246E+02  0.00000000000E+00 0.  1.
         11    1    3    3    0    0 -0.19242034559E+01 -0.17322800649E+01 -0.17299115714E+02  0.17491791158E+02  0.51100000000E-03 0. -1.
        -11    1    3    3    0    0  0.10440591806E+01  0.33120858222E-01 -0.21228253468E+02  0.21253938509E+02  0.51100000000E-03 0.  1.
        -12    1    3    3    0    0  0.65868150896E+01 -0.47157236320E+01 -0.40156275656E+01  0.90415400870E+01  0.00000000000E+00 0.  1.
</event>
<event>
 7    1  0.4519225E-009  0.4778727E+02  0.7816164E-02  0.1312668E+00
        -11   -1    0    0    0    0  0.00000000000E+00  0.00000000000E+00  0.45593999997E+02  0.45594000000E+02  0.51100000000E-03 0. -1.
         11   -1    0    0    0    0 -0.00000000000E+00 -0.00000000000E+00 -0.45593999997E+02  0.45594000000E+02  0.51100000000E-03 0.  1.
    9900012    2    1    2    0    0  0.15653602255E+02  0.31328175467E+02  0.25634615986E+02  0.47787269840E+02  0.19999994510E+02 0.  0.
        -12    1    1    2    0    0 -0.15653602255E+02 -0.31328175467E+02 -0.25634615986E+02  0.43400730160E+02  0.00000000000E+00 0.  1.
         11    1    3    3    0    0  0.25978476861E+01 -0.77497432588E-01 -0.10086044610E+01  0.27878489328E+01  0.51100000000E-03 0. -1.
        -11    1    3    3    0    0  0.66231515627E+00  0.29980260098E+01  0.86110635731E+01  0.91420587092E+01  0.51100000000E-03 0.  1.
         12    1    3    3    0    0  0.12393439412E+02  0.28407646890E+02  0.18032156874E+02  0.35857362198E+02  0.00000000000E+00 0. -1.
</event>
<event>
 7    1  0.4519225E-009  0.4778728E+02  0.7816164E-02  0.1312668E+00
        -11   -1    0    0    0    0  0.00000000000E+00  0.00000000000E+00  0.45593999997E+02  0.45594000000E+02  0.51100000000E-03 0.  1.
         11   -1    0    0    0    0 -0.00000000000E+00 -0.00000000000E+00 -0.45593999997E+02  0.45594000000E+02  0.51100000000E-03 0. -1.
    9900012    2    1    2    0    0  0.19809718610E+02  0.19859100873E+02 -0.33118174712E+02  0.47787281859E+02  0.20000049309E+02 0.  0.
        -12    1    1    2    0    0 -0.19809718610E+02 -0.19859100873E+02  0.33118174712E+02  0.43400718141E+02  0.00000000000E+00 0.  1.
         11    1    3    3    0    0  0.88322530630E+01  0.82792464929E+01 -0.19852062021E+02  0.23252074820E+02  0.51100000000E-03 0. -1.
        -11    1    3    3    0    0  0.76058222056E+01  0.98475346947E+01 -0.15698246192E+02  0.20031410453E+02  0.51100000000E-03 0.  1.
        -12    1    3    3    0    0  0.33716433418E+01  0.17323196856E+01  0.24321335019E+01  0.45037965860E+01  0.00000000000E+00 0.  1.
</event>
<event>
 7    1  0.4519225E-009  0.4778727E+02  0.7816164E-02  0.1312668E+00
        -11   -1    0    0    0    0  0.00000000000E+00  0.00000000000E+00  0.45593999997E+02  0.45594000000E+02  0.51100000000E-03 0. -1.
         11   -1    0    0    0    0 -0.00000000000E+00 -0.00000000000E+00 -0.45593999997E+02  0.45594000000E+02  0.51100000000E-03 0.  1.
    9900012    2    1    2    0    0 -0.18614527584E+02  0.36807460968E+02  0.13503087172E+02  0.47787272088E+02  0.20000004759E+02 0.  0.
        -12    1    1    2    0    0  0.18614527584E+02 -0.36807460968E+02 -0.13503087172E+02  0.43400727912E+02  0.00000000000E+00 0.  1.
         11    1    3    3    0    0 -0.10818193198E+02  0.92054383574E+01  0.48757428330E+01  0.15018197890E+02  0.51100000000E-03 0. -1.
        -11    1    3    3    0    0 -0.56536232464E+01  0.29669968688E+01  0.42144558543E+01  0.76503702290E+01  0.51100000000E-03 0.  1.
        -12    1    3    3    0    0 -0.21427111399E+01  0.24635025742E+02  0.44128884847E+01  0.25118703970E+02  0.00000000000E+00 0.  1.
</event>
<event>
 7    1  0.4519225E-009  0.4778727E+02  0.7816164E-02  0.1312668E+00
        -11   -1    0    0    0    0  0.00000000000E+00  0.00000000000E+00  0.45593999997E+02  0.45594000000E+02  0.51100000000E-03 0.  1.
         11   -1    0    0    0    0 -0.00000000000E+00 -0.00000000000E+00 -0.45593999997E+02  0.45594000000E+02  0.51100000000E-03 0. -1.
    9900012    2    1    2    0    0  0.13252032446E+02  0.36221191028E+02 -0.19900564308E+02  0.47787268403E+02  0.19999987956E+02 0.  0.
        -12    1    1    2    0    0 -0.13252032446E+02 -0.36221191028E+02  0.19900564308E+02  0.43400731597E+02  0.00000000000E+00 0.  1.
         11    1    3    3    0    0  0.70373014212E+00  0.33886037811E+01  0.18976987924E+01  0.39470410013E+01  0.51100000000E-03 0.  1.
        -11    1    3    3    0    0 -0.25680159790E+01  0.11568363667E+02 -0.53770052795E+01  0.13012837125E+02  0.51100000000E-03 0. -1.
        -12    1    3    3    0    0  0.15116318283E+02  0.21264223579E+02 -0.16421257821E+02  0.30827390277E+02  0.00000000000E+00 0.  1.
</event>
<event>
 7    1  0.4519225E-009  0.4778727E+02  0.7816164E-02  0.1312668E+00
        -11   -1    0    0    0    0  0.00000000000E+00  0.00000000000E+00  0.45593999997E+02  0.45594000000E+02  0.51100000000E-03 0.  1.
         11   -1    0    0    0    0 -0.00000000000E+00 -0.00000000000E+00 -0.45593999997E+02  0.45594000000E+02  0.51100000000E-03 0. -1.
    9900012    2    1    2    0    0 -0.26178131358E+02  0.27846587593E+02 -0.20564437644E+02  0.47787273076E+02  0.20000009261E+02 0.  0.
        -12    1    1    2    0    0  0.26178131358E+02 -0.27846587593E+02  0.20564437644E+02  0.43400726924E+02  0.00000000000E+00 0.  1.
         11    1    3    3    0    0 -0.95509660243E+01  0.11059449034E+02 -0.52648608624E+01  0.15532260785E+02  0.51100000000E-03 0. -1.
        -11    1    3    3    0    0 -0.24197322089E+01  0.10886248907E+02 -0.90820605425E+00  0.11188849705E+02  0.51100000000E-03 0.  1.
         12    1    3    3    0    0 -0.14207433125E+02  0.59008896516E+01 -0.14391370727E+02  0.21066162586E+02  0.00000000000E+00 0. -1.
</event>
<event>
 7    1  0.4519225E-009  0.4778727E+02  0.7816164E-02  0.1312668E+00
        -11   -1    0    0    0    0  0.00000000000E+00  0.00000000000E+00  0.45593999997E+02  0.45594000000E+02  0.51100000000E-03 0.  1.
         11   -1    0    0    0    0 -0.00000000000E+00 -0.00000000000E+00 -0.45593999997E+02  0.45594000000E+02  0.51100000000E-03 0. -1.
    9900012    2    1    2    0    0 -0.24624326963E+02 -0.18329982958E+02 -0.30680241745E+02  0.47787274348E+02  0.20000015063E+02 0.  0.
        -12    1    1    2    0    0  0.24624326963E+02  0.18329982958E+02  0.30680241745E+02  0.43400725652E+02  0.00000000000E+00 0.  1.
         11    1    3    3    0    0 -0.26837810237E+01 -0.74480998301E+01 -0.76082797048E+01  0.10980108924E+02  0.51100000000E-03 0. -1.
        -11    1    3    3    0    0 -0.52500443702E+00 -0.43584135607E+01  0.35394875954E+00  0.44041660289E+01  0.51100000000E-03 0.  1.
         12    1    3    3    0    0 -0.21415541502E+02 -0.65234695670E+01 -0.23425910799E+02  0.32402999395E+02  0.00000000000E+00 0. -1.
</event>
<event>
 7    1  0.4519225E-009  0.4778727E+02  0.7816164E-02  0.1312668E+00
        -11   -1    0    0    0    0  0.00000000000E+00  0.00000000000E+00  0.45593999997E+02  0.45594000000E+02  0.51100000000E-03 0.  1.
         11   -1    0    0    0    0 -0.00000000000E+00 -0.00000000000E+00 -0.45593999997E+02  0.45594000000E+02  0.51100000000E-03 0. -1.
    9900012    2    1    2    0    0 -0.35028163220E+02  0.15297977855E+02 -0.20557799315E+02  0.47787268926E+02  0.19999990343E+02 0.  0.
        -12    1    1    2    0    0  0.35028163220E+02 -0.15297977855E+02  0.20557799315E+02  0.43400731074E+02  0.00000000000E+00 0.  1.
         11    1    3    3    0    0 -0.15286701744E+02  0.53381676061E+01 -0.15769409621E+02  0.22602069898E+02  0.51100000000E-03 0. -1.
        -11    1    3    3    0    0 -0.16272897172E+02  0.92358848180E+01 -0.80499125908E+01  0.20369335869E+02  0.51100000000E-03 0.  1.
        -12    1    3    3    0    0 -0.34685643042E+01  0.72392543115E+00  0.32615228974E+01  0.48158631597E+01  0.00000000000E+00 0.  1.
</event>
<event>
 7    1  0.4519225E-009  0.4778727E+02  0.7816164E-02  0.1312668E+00
        -11   -1    0    0    0    0  0.00000000000E+00  0.00000000000E+00  0.45593999997E+02  0.45594000000E+02  0.51100000000E-03 0. -1.
         11   -1    0    0    0    0 -0.00000000000E+00 -0.00000000000E+00 -0.45593999997E+02  0.45594000000E+02  0.51100000000E-03 0.  1.
    9900012    2    1    2    0    0  0.22950168617E+01  0.43327345543E+02  0.10474462515E+01  0.47787272842E+02  0.20000008195E+02 0.  0.
        -12    1    1    2    0    0 -0.22950168617E+01 -0.43327345543E+02 -0.10474462515E+01  0.43400727158E+02  0.00000000000E+00 0.  1.
         11    1    3    3    0    0 -0.39469499309E+01  0.40666955617E+01 -0.38906486609E+00  0.56804751808E+01  0.51100000000E-03 0.  1.
        -11    1    3    3    0    0  0.58622214806E+00  0.39446801423E+00  0.27200200435E+01  0.28102972653E+01  0.51100000000E-03 0. -1.
         12    1    3    3    0    0  0.56557446445E+01  0.38866181967E+02 -0.12835089259E+01  0.39296500396E+02  0.00000000000E+00 0. -1.
</event>
<event>
 7    1  0.4519225E-009  0.4778726E+02  0.7816164E-02  0.1312668E+00
        -11   -1    0    0    0    0  0.00000000000E+00  0.00000000000E+00  0.45593999997E+02  0.45594000000E+02  0.51100000000E-03 0.  1.
         11   -1    0    0    0    0 -0.00000000000E+00 -0.00000000000E+00 -0.45593999997E+02  0.45594000000E+02  0.51100000000E-03 0. -1.
    9900012    2    1    2    0    0 -0.21869607410E+02 -0.18132289759E+02 -0.32811045150E+02  0.47787258716E+02  0.19999943788E+02 0.  0.
        -12    1    1    2    0    0  0.21869607410E+02  0.18132289759E+02  0.32811045150E+02  0.43400741284E+02  0.00000000000E+00 0.  1.
         11    1    3    3    0    0 -0.13395781898E+02 -0.84113664566E+01 -0.14266792078E+02  0.21301159940E+02  0.51100000000E-03 0. -1.
        -11    1    3    3    0    0 -0.82181488382E+01 -0.12918725506E+01 -0.15367325334E+02  0.17474598513E+02  0.51100000000E-03 0.  1.
        -12    1    3    3    0    0 -0.25567667419E+00 -0.84290507516E+01 -0.31769277387E+01  0.90115002631E+01  0.00000000000E+00 0.  1.
</event>
<event>
 7    1  0.4519225E-009  0.4778727E+02  0.7816164E-02  0.1312668E+00
        -11   -1    0    0    0    0  0.00000000000E+00  0.00000000000E+00  0.45593999997E+02  0.45594000000E+02  0.51100000000E-03 0.  1.
         11   -1    0    0    0    0 -0.00000000000E+00 -0.00000000000E+00 -0.45593999997E+02  0.45594000000E+02  0.51100000000E-03 0. -1.
    9900012    2    1    2    0    0 -0.31205579249E+02  0.14249307922E+02  0.26585564205E+02  0.47787272165E+02  0.20000005108E+02 0.  0.
        -12    1    1    2    0    0  0.31205579249E+02 -0.14249307922E+02 -0.26585564205E+02  0.43400727835E+02  0.00000000000E+00 0.  1.
         11    1    3    3    0    0 -0.11886943240E+02  0.36921657326E+01  0.33772887536E+01  0.12897192988E+02  0.51100000000E-03 0. -1.
        -11    1    3    3    0    0 -0.20487675449E+02  0.68468288968E+01  0.16684970975E+02  0.27294911027E+02  0.51100000000E-03 0.  1.
        -12    1    3    3    0    0  0.11690394396E+01  0.37103132930E+01  0.65233044758E+01  0.75951681501E+01  0.00000000000E+00 0.  1.
</event>
<event>
 7    1  0.4519225E-009  0.4778727E+02  0.7816164E-02  0.1312668E+00
        -11   -1    0    0    0    0  0.00000000000E+00  0.00000000000E+00  0.45593999997E+02  0.45594000000E+02  0.51100000000E-03 0. -1.
         11   -1    0    0    0    0 -0.00000000000E+00 -0.00000000000E+00 -0.45593999997E+02  0.45594000000E+02  0.51100000000E-03 0.  1.
    9900012    2    1    2    0    0 -0.38787209322E+02 -0.19452383370E+02 -0.88347796759E+00  0.47787270063E+02  0.19999995526E+02 0.  0.
        -12    1    1    2    0    0  0.38787209322E+02  0.19452383370E+02  0.88347796759E+00  0.43400729937E+02  0.00000000000E+00 0.  1.
         11    1    3    3    0    0  0.88548480432E+00  0.95549965642E+00 -0.15291940176E+01  0.20088547824E+01  0.51100000000E-03 0. -1.
        -11    1    3    3    0    0 -0.47444175787E+01  0.85917500947E+00  0.78306467637E+00  0.48847589916E+01  0.51100000000E-03 0.  1.
         12    1    3    3    0    0 -0.34928276547E+02 -0.21267058036E+02 -0.13734862632E+00  0.40893656289E+02  0.00000000000E+00 0. -1.
</event>
<event>
 7    1  0.4519225E-009  0.4778728E+02  0.7816164E-02  0.1312668E+00
        -11   -1    0    0    0    0  0.00000000000E+00  0.00000000000E+00  0.45593999997E+02  0.45594000000E+02  0.51100000000E-03 0. -1.
         11   -1    0    0    0    0 -0.00000000000E+00 -0.00000000000E+00 -0.45593999997E+02  0.45594000000E+02  0.51100000000E-03 0.  1.
    9900012    2    1    2    0    0 -0.21637009615E+02 -0.14905566404E+02  0.34543983352E+02  0.47787275574E+02  0.20000020653E+02 0.  0.
        -12    1    1    2    0    0  0.21637009615E+02  0.14905566404E+02 -0.34543983352E+02  0.43400724426E+02  0.00000000000E+00 0.  1.
         11    1    3    3    0    0 -0.15524513682E+02 -0.14397438000E+02  0.24866979665E+02  0.32659813594E+02  0.51100000000E-03 0. -1.
        -11    1    3    3    0    0 -0.88181338549E+01 -0.76842726889E+00  0.67388464256E+01  0.11124837822E+02  0.51100000000E-03 0.  1.
        -12    1    3    3    0    0  0.27056379225E+01  0.26029886518E+00  0.29381572608E+01  0.40026241587E+01  0.00000000000E+00 0.  1.
</event>
<event>
 7    1  0.4519225E-009  0.4778727E+02  0.7816164E-02  0.1312668E+00
        -11   -1    0    0    0    0  0.00000000000E+00  0.00000000000E+00  0.45593999997E+02  0.45594000000E+02  0.51100000000E-03 0.  1.
         11   -1    0    0    0    0 -0.00000000000E+00 -0.00000000000E+00 -0.45593999997E+02  0.45594000000E+02  0.51100000000E-03 0. -1.
    9900012    2    1    2    0    0 -0.78741999670E+01  0.39740517632E+02 -0.15566372817E+02  0.47787265796E+02  0.19999976072E+02 0.  0.
        -12    1    1    2    0    0  0.78741999670E+01 -0.39740517632E+02  0.15566372817E+02  0.43400734204E+02  0.00000000000E+00 0.  1.
         11    1    3    3    0    0  0.14986053943E+01  0.10731959054E+02 -0.76249851287E+01  0.13249949500E+02  0.51100000000E-03 0. -1.
        -11    1    3    3    0    0 -0.83683367404E+01  0.29165403081E+02 -0.10240301862E+02  0.32023640942E+02  0.51100000000E-03 0.  1.
        -12    1    3    3    0    0 -0.10044686209E+01 -0.15684450390E+00  0.22989141743E+01  0.25136753549E+01  0.00000000000E+00 0.  1.
</event>
<event>
 7    1  0.4519225E-009  0.4778727E+02  0.7816164E-02  0.1312668E+00
        -11   -1    0    0    0    0  0.00000000000E+00  0.00000000000E+00  0.45593999997E+02  0.45594000000E+02  0.51100000000E-03 0.  1.
         11   -1    0    0    0    0 -0.00000000000E+00 -0.00000000000E+00 -0.45593999997E+02  0.45594000000E+02  0.51100000000E-03 0. -1.
    9900012    2    1    2    0    0  0.15448919534E+02  0.40509405769E+02  0.19854681988E+01  0.47787272420E+02  0.20000006270E+02 0.  0.
        -12    1    1    2    0    0 -0.15448919534E+02 -0.40509405769E+02 -0.19854681988E+01  0.43400727580E+02  0.00000000000E+00 0.  1.
         11    1    3    3    0    0  0.70490918596E+01  0.23928150154E+02  0.66704553853E+00  0.24953777587E+02  0.51100000000E-03 0. -1.
        -11    1    3    3    0    0  0.37919399949E+01  0.16771467191E+02 -0.17660834562E+01  0.17285253012E+02  0.51100000000E-03 0.  1.
        -12    1    3    3    0    0  0.46078876799E+01 -0.19021157639E+00  0.30845061166E+01  0.55482418204E+01  0.00000000000E+00 0.  1.
</event>
<event>
 7    1  0.4519225E-009  0.4778727E+02  0.7816164E-02  0.1312668E+00
        -11   -1    0    0    0    0  0.00000000000E+00  0.00000000000E+00  0.45593999997E+02  0.45594000000E+02  0.51100000000E-03 0. -1.
         11   -1    0    0    0    0 -0.00000000000E+00 -0.00000000000E+00 -0.45593999997E+02  0.45594000000E+02  0.51100000000E-03 0.  1.
    9900012    2    1    2    0    0  0.17162417747E+02  0.21904149528E+02  0.33305903626E+02  0.47787267681E+02  0.19999984666E+02 0.  0.
        -12    1    1    2    0    0 -0.17162417747E+02 -0.21904149528E+02 -0.33305903626E+02  0.43400732319E+02  0.00000000000E+00 0.  1.
         11    1    3    3    0    0  0.84658020242E+01  0.21236111017E+02  0.28335712197E+02  0.36408169426E+02  0.51100000000E-03 0. -1.
        -11    1    3    3    0    0  0.38642449409E+01  0.29794933385E+01  0.23703267169E+01  0.54247782004E+01  0.51100000000E-03 0.  1.
         12    1    3    3    0    0  0.48323707816E+01 -0.23114548273E+01  0.25998647124E+01  0.59543200546E+01  0.00000000000E+00 0. -1.
</event>
<event>
 7    1  0.4519225E-009  0.4778727E+02  0.7816164E-02  0.1312668E+00
        -11   -1    0    0    0    0  0.00000000000E+00  0.00000000000E+00  0.45593999997E+02  0.45594000000E+02  0.51100000000E-03 0.  1.
         11   -1    0    0    0    0 -0.00000000000E+00 -0.00000000000E+00 -0.45593999997E+02  0.45594000000E+02  0.51100000000E-03 0. -1.
    9900012    2    1    2    0    0  0.35544088153E+02 -0.14800342319E+02  0.20029752510E+02  0.47787270502E+02  0.19999997526E+02 0.  0.
        -12    1    1    2    0    0 -0.35544088153E+02  0.14800342319E+02 -0.20029752510E+02  0.43400729498E+02  0.00000000000E+00 0.  1.
         11    1    3    3    0    0  0.95162252143E+00  0.15680858954E+01  0.10435969802E+01  0.21103491931E+01  0.51100000000E-03 0. -1.
        -11    1    3    3    0    0  0.11558507500E+02 -0.51256568711E+01 -0.16757971487E+01  0.12754597224E+02  0.51100000000E-03 0.  1.
         12    1    3    3    0    0  0.23033958131E+02 -0.11242771344E+02  0.20661952678E+02  0.32922324085E+02  0.00000000000E+00 0. -1.
</event>
<event>
 7    1  0.4519225E-009  0.4778721E+02  0.7816164E-02  0.1312668E+00
        -11   -1    0    0    0    0  0.00000000000E+00  0.00000000000E+00  0.45593999997E+02  0.45594000000E+02  0.51100000000E-03 0.  1.
         11   -1    0    0    0    0 -0.00000000000E+00 -0.00000000000E+00 -0.45593999997E+02  0.45594000000E+02  0.51100000000E-03 0. -1.
    9900012    2    1    2    0    0  0.18949360792E+02  0.25231655680E+02 -0.29797881830E+02  0.47787211018E+02  0.19999726312E+02 0.  0.
        -12    1    1    2    0    0 -0.18949360792E+02 -0.25231655680E+02  0.29797881830E+02  0.43400788982E+02  0.00000000000E+00 0.  1.
         11    1    3    3    0    0  0.15405382089E+02  0.13553641862E+02 -0.14987460575E+02  0.25409663118E+02  0.51100000000E-03 0. -1.
        -11    1    3    3    0    0  0.18948022980E+01  0.10043585268E+02 -0.16566973137E+02  0.19466085379E+02  0.51100000000E-03 0.  1.
        -12    1    3    3    0    0  0.16491764049E+01  0.16344285489E+01  0.17565518821E+01  0.29114625209E+01  0.00000000000E+00 0.  1.
</event>
<event>
 7    1  0.4519225E-009  0.4778727E+02  0.7816164E-02  0.1312668E+00
        -11   -1    0    0    0    0  0.00000000000E+00  0.00000000000E+00  0.45593999997E+02  0.45594000000E+02  0.51100000000E-03 0.  1.
         11   -1    0    0    0    0 -0.00000000000E+00 -0.00000000000E+00 -0.45593999997E+02  0.45594000000E+02  0.51100000000E-03 0. -1.
    9900012    2    1    2    0    0 -0.48661428991E+01  0.77905406130E+01 -0.42417580427E+02  0.47787274211E+02  0.20000014437E+02 0.  0.
        -12    1    1    2    0    0  0.48661428991E+01 -0.77905406130E+01  0.42417580427E+02  0.43400725789E+02  0.00000000000E+00 0.  1.
         11    1    3    3    0    0 -0.21138852794E+00 -0.23411822524E+01 -0.11065780343E+02  0.11312705879E+02  0.51100000000E-03 0. -1.
        -11    1    3    3    0    0  0.51101850146E+01  0.40387167403E+01 -0.71305450115E+01  0.96576340899E+01  0.51100000000E-03 0.  1.
         12    1    3    3    0    0 -0.97649393858E+01  0.60930061251E+01 -0.24221255072E+02  0.26816934242E+02  0.00000000000E+00 0. -1.
</event>
<event>
 7    1  0.4519225E-009  0.4778727E+02  0.7816164E-02  0.1312668E+00
        -11   -1    0    0    0    0  0.00000000000E+00  0.00000000000E+00  0.45593999997E+02  0.45594000000E+02  0.51100000000E-03 0.  1.
         11   -1    0    0    0    0 -0.00000000000E+00 -0.00000000000E+00 -0.45593999997E+02  0.45594000000E+02  0.51100000000E-03 0. -1.
    9900012    2    1    2    0    0  0.25416013932E+02  0.22589993473E+02 -0.26969274203E+02  0.47787270509E+02  0.19999997559E+02 0.  0.
        -12    1    1    2    0    0 -0.25416013932E+02 -0.22589993473E+02  0.26969274203E+02  0.43400729491E+02  0.00000000000E+00 0.  1.
         11    1    3    3    0    0  0.10070892778E+02  0.10938630874E+02 -0.42519274570E+01  0.15464650468E+02  0.51100000000E-03 0. -1.
        -11    1    3    3    0    0  0.13285530857E+02  0.61144142979E+01 -0.84738163332E+01  0.16902572463E+02  0.51100000000E-03 0.  1.
         12    1    3    3    0    0  0.20595902969E+01  0.55369483016E+01 -0.14243530413E+02  0.15420047578E+02  0.00000000000E+00 0. -1.
</event>
<event>
 7    1  0.4519225E-009  0.4778727E+02  0.7816164E-02  0.1312668E+00
        -11   -1    0    0    0    0  0.00000000000E+00  0.00000000000E+00  0.45593999997E+02  0.45594000000E+02  0.51100000000E-03 0.  1.
         11   -1    0    0    0    0 -0.00000000000E+00 -0.00000000000E+00 -0.45593999997E+02  0.45594000000E+02  0.51100000000E-03 0. -1.
    9900012    2    1    2    0    0  0.26081893827E+02 -0.55159293238E+01 -0.34248106624E+02  0.47787268794E+02  0.19999989738E+02 0.  0.
        -12    1    1    2    0    0 -0.26081893827E+02  0.55159293238E+01  0.34248106624E+02  0.43400731206E+02  0.00000000000E+00 0.  1.
         11    1    3    3    0    0  0.14839595733E+02 -0.70542990457E+01 -0.27394657313E+02  0.31944388961E+02  0.51100000000E-03 0. -1.
        -11    1    3    3    0    0  0.57002130865E+01 -0.35098127222E+01 -0.23339544304E+01  0.70893270569E+01  0.51100000000E-03 0.  1.
        -12    1    3    3    0    0  0.55420850074E+01  0.50481824441E+01 -0.45194948814E+01  0.87535527760E+01  0.00000000000E+00 0.  1.
</event>
<event>
 7    1  0.4519225E-009  0.4778728E+02  0.7816164E-02  0.1312668E+00
        -11   -1    0    0    0    0  0.00000000000E+00  0.00000000000E+00  0.45593999997E+02  0.45594000000E+02  0.51100000000E-03 0.  1.
         11   -1    0    0    0    0 -0.00000000000E+00 -0.00000000000E+00 -0.45593999997E+02  0.45594000000E+02  0.51100000000E-03 0. -1.
    9900012    2    1    2    0    0 -0.29937490422E+02  0.13606703101E+02 -0.28323615263E+02  0.47787275540E+02  0.20000020498E+02 0.  0.
        -12    1    1    2    0    0  0.29937490422E+02 -0.13606703101E+02  0.28323615263E+02  0.43400724460E+02  0.00000000000E+00 0.  1.
         11    1    3    3    0    0 -0.96665890779E+01  0.15739859843E+01 -0.39877476018E+01  0.10574616186E+02  0.51100000000E-03 0. -1.
        -11    1    3    3    0    0 -0.16384489182E+02  0.15425106236E+02 -0.16810034423E+02  0.28088478879E+02  0.51100000000E-03 0.  1.
        -12    1    3    3    0    0 -0.38864121618E+01 -0.33923891188E+01 -0.75258332380E+01  0.91241804756E+01  0.00000000000E+00 0.  1.
</event>
<event>
 7    1  0.4519225E-009  0.4778728E+02  0.7816164E-02  0.1312668E+00
        -11   -1    0    0    0    0  0.00000000000E+00  0.00000000000E+00  0.45593999997E+02  0.45594000000E+02  0.51100000000E-03 0. -1.
         11   -1    0    0    0    0 -0.00000000000E+00 -0.00000000000E+00 -0.45593999997E+02  0.45594000000E+02  0.51100000000E-03 0.  1.
    9900012    2    1    2    0    0  0.29786154680E+02  0.85089662623E+01  0.30397456233E+02  0.47787275779E+02  0.20000021586E+02 0.  0.
        -12    1    1    2    0    0 -0.29786154680E+02 -0.85089662623E+01 -0.30397456233E+02  0.43400724221E+02  0.00000000000E+00 0.  1.
         11    1    3    3    0    0  0.10689408931E+02  0.14773291955E+01  0.61568203328E+01  0.12423864203E+02  0.51100000000E-03 0.  1.
        -11    1    3    3    0    0  0.11015491392E+02  0.87429811389E+01  0.59048438267E+01  0.15252801404E+02  0.51100000000E-03 0. -1.
        -12    1    3    3    0    0  0.80812543567E+01 -0.17113440721E+01  0.18335792074E+02  0.20110610172E+02  0.00000000000E+00 0.  1.
</event>
<event>
 7    1  0.4519225E-009  0.4778728E+02  0.7816164E-02  0.1312668E+00
        -11   -1    0    0    0    0  0.00000000000E+00  0.00000000000E+00  0.45593999997E+02  0.45594000000E+02  0.51100000000E-03 0.  1.
         11   -1    0    0    0    0 -0.00000000000E+00 -0.00000000000E+00 -0.45593999997E+02  0.45594000000E+02  0.51100000000E-03 0. -1.
    9900012    2    1    2    0    0 -0.40272016060E+02  0.17319276840E+01 -0.16086881303E+02  0.47787278795E+02  0.20000035339E+02 0.  0.
        -12    1    1    2    0    0  0.40272016060E+02 -0.17319276840E+01  0.16086881303E+02  0.43400721205E+02  0.00000000000E+00 0.  1.
         11    1    3    3    0    0 -0.12334545334E+02  0.18930685875E-02 -0.26279051372E+01  0.12611379696E+02  0.51100000000E-03 0. -1.
        -11    1    3    3    0    0 -0.11301706576E+02 -0.60178335996E+01 -0.69669496734E+00  0.12822958976E+02  0.51100000000E-03 0.  1.
         12    1    3    3    0    0 -0.16635764150E+02  0.77478682151E+01 -0.12762281198E+02  0.22352940123E+02  0.00000000000E+00 0. -1.
</event>
<event>
 7    1  0.4519225E-009  0.4778727E+02  0.7816164E-02  0.1312668E+00
        -11   -1    0    0    0    0  0.00000000000E+00  0.00000000000E+00  0.45593999997E+02  0.45594000000E+02  0.51100000000E-03 0. -1.
         11   -1    0    0    0    0 -0.00000000000E+00 -0.00000000000E+00 -0.45593999997E+02  0.45594000000E+02  0.51100000000E-03 0.  1.
    9900012    2    1    2    0    0 -0.73633554514E+01 -0.88810805303E+01  0.41839344135E+02  0.47787270599E+02  0.19999997970E+02 0.  0.
        -12    1    1    2    0    0  0.73633554514E+01  0.88810805303E+01 -0.41839344135E+02  0.43400729401E+02  0.00000000000E+00 0.  1.
         11    1    3    3    0    0 -0.11362123481E+02 -0.95928887211E+00  0.14522310605E+02  0.18463899662E+02  0.51100000000E-03 0. -1.
        -11    1    3    3    0    0  0.19590210458E+01 -0.13961860878E+01  0.20914178305E+01  0.31876524045E+01  0.51100000000E-03 0.  1.
         12    1    3    3    0    0  0.20397469843E+01 -0.65256055704E+01  0.25225615699E+02  0.26135718533E+02  0.00000000000E+00 0. -1.
</event>
<event>
 7    1  0.4519225E-009  0.4778728E+02  0.7816164E-02  0.1312668E+00
        -11   -1    0    0    0    0  0.00000000000E+00  0.00000000000E+00  0.45593999997E+02  0.45594000000E+02  0.51100000000E-03 0. -1.
         11   -1    0    0    0    0 -0.00000000000E+00 -0.00000000000E+00 -0.45593999997E+02  0.45594000000E+02  0.51100000000E-03 0.  1.
    9900012    2    1    2    0    0 -0.10260890045E+02  0.26508797243E+02  0.32796654200E+02  0.47787277396E+02  0.20000028960E+02 0.  0.
        -12    1    1    2    0    0  0.10260890045E+02 -0.26508797243E+02 -0.32796654200E+02  0.43400722604E+02  0.00000000000E+00 0.  1.
         11    1    3    3    0    0 -0.14987019266E+01  0.81555602586E+01  0.10621165572E+02  0.13474732983E+02  0.51100000000E-03 0. -1.
        -11    1    3    3    0    0  0.12019276954E+01 -0.10460881838E+00  0.99731184553E+01  0.10045828247E+02  0.51100000000E-03 0.  1.
         12    1    3    3    0    0 -0.99641158133E+01  0.18457845803E+02  0.12202370173E+02  0.24266716166E+02  0.00000000000E+00 0. -1.
</event>
<event>
 7    1  0.4519225E-009  0.4778727E+02  0.7816164E-02  0.1312668E+00
        -11   -1    0    0    0    0  0.00000000000E+00  0.00000000000E+00  0.45593999997E+02  0.45594000000E+02  0.51100000000E-03 0.  1.
         11   -1    0    0    0    0 -0.00000000000E+00 -0.00000000000E+00 -0.45593999997E+02  0.45594000000E+02  0.51100000000E-03 0. -1.
    9900012    2    1    2    0    0  0.16558541916E+01  0.36187638043E+02 -0.23902643498E+02  0.47787269978E+02  0.19999995138E+02 0.  0.
        -12    1    1    2    0    0 -0.16558541916E+01 -0.36187638043E+02  0.23902643498E+02  0.43400730022E+02  0.00000000000E+00 0.  1.
         11    1    3    3    0    0 -0.12014412302E+01  0.88959553047E+01 -0.16793622048E+02  0.19042248386E+02  0.51100000000E-03 0. -1.
        -11    1    3    3    0    0  0.22592198533E+01  0.50894545131E+01 -0.22725843578E+01  0.60142548592E+01  0.51100000000E-03 0.  1.
        -12    1    3    3    0    0  0.59807556853E+00  0.22202228225E+02 -0.48364370921E+01  0.22730766733E+02  0.00000000000E+00 0.  1.
</event>
<event>
 7    1  0.4519225E-009  0.4778727E+02  0.7816164E-02  0.1312668E+00
        -11   -1    0    0    0    0  0.00000000000E+00  0.00000000000E+00  0.45593999997E+02  0.45594000000E+02  0.51100000000E-03 0.  1.
         11   -1    0    0    0    0 -0.00000000000E+00 -0.00000000000E+00 -0.45593999997E+02  0.45594000000E+02  0.51100000000E-03 0. -1.
    9900012    2    1    2    0    0 -0.12800662557E+02  0.41415184907E+02 -0.21327738015E+01  0.47787271586E+02  0.20000002471E+02 0.  0.
        -12    1    1    2    0    0  0.12800662557E+02 -0.41415184907E+02  0.21327738015E+01  0.43400728414E+02  0.00000000000E+00 0.  1.
         11    1    3    3    0    0 -0.69699478077E+01  0.68359348251E+01 -0.26509846170E+00  0.97662917645E+01  0.51100000000E-03 0. -1.
        -11    1    3    3    0    0 -0.10162060072E+02  0.24516098625E+02  0.14371693359E+01  0.26577660030E+02  0.51100000000E-03 0.  1.
        -12    1    3    3    0    0  0.43313453224E+01  0.10063151456E+02 -0.33048446757E+01  0.11443319792E+02  0.00000000000E+00 0.  1.
</event>
<event>
 7    1  0.4519225E-009  0.4778727E+02  0.7816164E-02  0.1312668E+00
        -11   -1    0    0    0    0  0.00000000000E+00  0.00000000000E+00  0.45593999997E+02  0.45594000000E+02  0.51100000000E-03 0. -1.
         11   -1    0    0    0    0 -0.00000000000E+00 -0.00000000000E+00 -0.45593999997E+02  0.45594000000E+02  0.51100000000E-03 0.  1.
    9900012    2    1    2    0    0  0.34851030607E+02  0.23837776127E+02  0.10039397707E+02  0.47787269460E+02  0.19999992776E+02 0.  0.
        -12    1    1    2    0    0 -0.34851030607E+02 -0.23837776127E+02 -0.10039397707E+02  0.43400730540E+02  0.00000000000E+00 0.  1.
         11    1    3    3    0    0  0.26485782297E+02  0.89573009472E+01  0.17755349310E+01  0.28015753224E+02  0.51100000000E-03 0. -1.
        -11    1    3    3    0    0  0.58159423345E+01  0.71648104203E+01  0.18323218724E+01  0.94083525287E+01  0.51100000000E-03 0.  1.
        -12    1    3    3    0    0  0.25493059761E+01  0.77156647595E+01  0.64315409035E+01  0.10363163708E+02  0.00000000000E+00 0.  1.
</event>
<event>
 7    1  0.4519225E-009  0.4778729E+02  0.7816164E-02  0.1312668E+00
        -11   -1    0    0    0    0  0.00000000000E+00  0.00000000000E+00  0.45593999997E+02  0.45594000000E+02  0.51100000000E-03 0.  1.
         11   -1    0    0    0    0 -0.00000000000E+00 -0.00000000000E+00 -0.45593999997E+02  0.45594000000E+02  0.51100000000E-03 0. -1.
    9900012    2    1    2    0    0 -0.40514917249E+01 -0.40638991343E+02 -0.14686026412E+02  0.47787290624E+02  0.20000089271E+02 0.  0.
        -12    1    1    2    0    0  0.40514917249E+01  0.40638991343E+02  0.14686026412E+02  0.43400709376E+02  0.00000000000E+00 0.  1.
         11    1    3    3    0    0  0.56923496842E+00 -0.15202926831E+00  0.84080030483E+00  0.10266872754E+01  0.51100000000E-03 0. -1.
        -11    1    3    3    0    0  0.14324636456E+01 -0.21232040360E+02  0.24752493161E-01  0.21280321964E+02  0.51100000000E-03 0.  1.
         12    1    3    3    0    0 -0.60531903390E+01 -0.19254921714E+02 -0.15551579210E+02  0.25480281384E+02  0.00000000000E+00 0. -1.
</event>
<event>
 7    1  0.4519225E-009  0.4778727E+02  0.7816164E-02  0.1312668E+00
        -11   -1    0    0    0    0  0.00000000000E+00  0.00000000000E+00  0.45593999997E+02  0.45594000000E+02  0.51100000000E-03 0.  1.
         11   -1    0    0    0    0 -0.00000000000E+00 -0.00000000000E+00 -0.45593999997E+02  0.45594000000E+02  0.51100000000E-03 0. -1.
    9900012    2    1    2    0    0 -0.77753656176E+01  0.45531620891E+01 -0.42455106927E+02  0.47787266139E+02  0.19999977635E+02 0.  0.
        -12    1    1    2    0    0  0.77753656176E+01 -0.45531620891E+01  0.42455106927E+02  0.43400733861E+02  0.00000000000E+00 0.  1.
         11    1    3    3    0    0 -0.42092826783E+00 -0.71510348034E+01 -0.13537289785E+02  0.15315766202E+02  0.51100000000E-03 0. -1.
        -11    1    3    3    0    0  0.27241967167E+00  0.21174483504E+01 -0.21316869084E+01  0.30169337630E+01  0.51100000000E-03 0.  1.
         12    1    3    3    0    0 -0.76268570214E+01  0.95867485421E+01 -0.26786130233E+02  0.29454566174E+02  0.00000000000E+00 0. -1.
</event>
<event>
 7    1  0.4519225E-009  0.4778727E+02  0.7816164E-02  0.1312668E+00
        -11   -1    0    0    0    0  0.00000000000E+00  0.00000000000E+00  0.45593999997E+02  0.45594000000E+02  0.51100000000E-03 0. -1.
         11   -1    0    0    0    0 -0.00000000000E+00 -0.00000000000E+00 -0.45593999997E+02  0.45594000000E+02  0.51100000000E-03 0.  1.
    9900012    2    1    2    0    0  0.35449043025E+02 -0.17259002258E+02 -0.18141544523E+02  0.47787269038E+02  0.19999990852E+02 0.  0.
        -12    1    1    2    0    0 -0.35449043025E+02  0.17259002258E+02  0.18141544523E+02  0.43400730962E+02  0.00000000000E+00 0.  1.
         11    1    3    3    0    0  0.24633526750E+01 -0.36464768945E+01 -0.32257016529E+01  0.54561938711E+01  0.51100000000E-03 0. -1.
        -11    1    3    3    0    0  0.34730520223E+02 -0.13197026463E+02 -0.12255307028E+02  0.39122411646E+02  0.51100000000E-03 0.  1.
        -12    1    3    3    0    0 -0.17448298725E+01 -0.41549889995E+00 -0.26605358426E+01  0.32086635207E+01  0.00000000000E+00 0.  1.
</event>
<event>
 7    1  0.4519225E-009  0.4778726E+02  0.7816164E-02  0.1312668E+00
        -11   -1    0    0    0    0  0.00000000000E+00  0.00000000000E+00  0.45593999997E+02  0.45594000000E+02  0.51100000000E-03 0.  1.
         11   -1    0    0    0    0 -0.00000000000E+00 -0.00000000000E+00 -0.45593999997E+02  0.45594000000E+02  0.51100000000E-03 0. -1.
    9900012    2    1    2    0    0  0.35032317000E+02 -0.30676936827E+01 -0.25435215252E+02  0.47787260907E+02  0.19999953778E+02 0.  0.
        -12    1    1    2    0    0 -0.35032317000E+02  0.30676936827E+01  0.25435215252E+02  0.43400739093E+02  0.00000000000E+00 0.  1.
         11    1    3    3    0    0 -0.15816250635E+01  0.11398706158E+01 -0.15443168162E+01  0.24871183229E+01  0.51100000000E-03 0.  1.
        -11    1    3    3    0    0  0.21946257854E+02 -0.75142780063E+01 -0.11916943104E+02  0.26079036427E+02  0.51100000000E-03 0. -1.
         12    1    3    3    0    0  0.14667684210E+02  0.33067137078E+01 -0.11973955331E+02  0.19221106157E+02  0.00000000000E+00 0. -1.
</event>
<event>
 7    1  0.4519225E-009  0.4778727E+02  0.7816164E-02  0.1312668E+00
        -11   -1    0    0    0    0  0.00000000000E+00  0.00000000000E+00  0.45593999997E+02  0.45594000000E+02  0.51100000000E-03 0. -1.
         11   -1    0    0    0    0 -0.00000000000E+00 -0.00000000000E+00 -0.45593999997E+02  0.45594000000E+02  0.51100000000E-03 0.  1.
    9900012    2    1    2    0    0  0.10287825893E+02  0.42163715674E+02 -0.70445878969E-01  0.47787271392E+02  0.20000001587E+02 0.  0.
        -12    1    1    2    0    0 -0.10287825893E+02 -0.42163715674E+02  0.70445878969E-01  0.43400728608E+02  0.00000000000E+00 0.  1.
         11    1    3    3    0    0  0.56792456442E+01  0.22741185825E+02 -0.72366496286E+00  0.23450779412E+02  0.51100000000E-03 0. -1.
        -11    1    3    3    0    0  0.46375246865E+01  0.10291615608E+02 -0.62378018327E+01  0.12897060091E+02  0.51100000000E-03 0.  1.
         12    1    3    3    0    0 -0.28944437764E-01  0.91309142415E+01  0.68910209166E+01  0.11439431889E+02  0.00000000000E+00 0. -1.
</event>
<event>
 7    1  0.4519225E-009  0.4778727E+02  0.7816164E-02  0.1312668E+00
        -11   -1    0    0    0    0  0.00000000000E+00  0.00000000000E+00  0.45593999997E+02  0.45594000000E+02  0.51100000000E-03 0. -1.
         11   -1    0    0    0    0 -0.00000000000E+00 -0.00000000000E+00 -0.45593999997E+02  0.45594000000E+02  0.51100000000E-03 0.  1.
    9900012    2    1    2    0    0  0.42027004552E+02  0.10578724131E+02  0.23333294822E+01  0.47787274864E+02  0.20000017414E+02 0.  0.
        -12    1    1    2    0    0 -0.42027004552E+02 -0.10578724131E+02 -0.23333294822E+01  0.43400725136E+02  0.00000000000E+00 0.  1.
         11    1    3    3    0    0  0.36314320612E+02  0.98504002502E+01  0.14581750420E+01  0.37654834235E+02  0.51100000000E-03 0. -1.
        -11    1    3    3    0    0  0.40396124722E+01 -0.17604665812E+01 -0.29269032294E+01  0.52900353765E+01  0.51100000000E-03 0.  1.
         12    1    3    3    0    0  0.16730714683E+01  0.24887904622E+01  0.38020576696E+01  0.48424052521E+01  0.00000000000E+00 0. -1.
</event>
<event>
 7    1  0.4519225E-009  0.4778727E+02  0.7816164E-02  0.1312668E+00
        -11   -1    0    0    0    0  0.00000000000E+00  0.00000000000E+00  0.45593999997E+02  0.45594000000E+02  0.51100000000E-03 0. -1.
         11   -1    0    0    0    0 -0.00000000000E+00 -0.00000000000E+00 -0.45593999997E+02  0.45594000000E+02  0.51100000000E-03 0.  1.
    9900012    2    1    2    0    0  0.16764031252E+02 -0.35115996718E+00  0.40030828528E+02  0.47787270861E+02  0.19999999164E+02 0.  0.
        -12    1    1    2    0    0 -0.16764031252E+02  0.35115996718E+00 -0.40030828528E+02  0.43400729139E+02  0.00000000000E+00 0.  1.
         11    1    3    3    0    0 -0.52716085898E+00  0.16511244500E+01 -0.15071092185E+00  0.17397771592E+01  0.51100000000E-03 0. -1.
        -11    1    3    3    0    0  0.80663684251E+01 -0.47907098271E+00  0.46855515457E+01  0.93407816656E+01  0.51100000000E-03 0.  1.
         12    1    3    3    0    0  0.92248236856E+01 -0.15232134345E+01  0.35495987904E+02  0.36706712036E+02  0.00000000000E+00 0. -1.
</event>
<event>
 7    1  0.4519225E-009  0.4778727E+02  0.7816164E-02  0.1312668E+00
        -11   -1    0    0    0    0  0.00000000000E+00  0.00000000000E+00  0.45593999997E+02  0.45594000000E+02  0.51100000000E-03 0.  1.
         11   -1    0    0    0    0 -0.00000000000E+00 -0.00000000000E+00 -0.45593999997E+02  0.45594000000E+02  0.51100000000E-03 0. -1.
    9900012    2    1    2    0    0  0.29169438228E+02  0.27011192144E+02 -0.17411563435E+02  0.47787272255E+02  0.20000005519E+02 0.  0.
        -12    1    1    2    0    0 -0.29169438228E+02 -0.27011192144E+02  0.17411563435E+02  0.43400727745E+02  0.00000000000E+00 0.  1.
         11    1    3    3    0    0  0.25504055455E+01  0.79798143378E+01 -0.25883666011E+01  0.87682180193E+01  0.51100000000E-03 0. -1.
        -11    1    3    3    0    0 -0.10637053622E+01  0.37949272913E+01  0.36796206856E+00  0.39583252252E+01  0.51100000000E-03 0.  1.
         12    1    3    3    0    0  0.27682738045E+02  0.15236450515E+02 -0.15191158902E+02  0.35060729010E+02  0.00000000000E+00 0. -1.
</event>
<event>
 7    1  0.4519225E-009  0.4778727E+02  0.7816164E-02  0.1312668E+00
        -11   -1    0    0    0    0  0.00000000000E+00  0.00000000000E+00  0.45593999997E+02  0.45594000000E+02  0.51100000000E-03 0. -1.
         11   -1    0    0    0    0 -0.00000000000E+00 -0.00000000000E+00 -0.45593999997E+02  0.45594000000E+02  0.51100000000E-03 0.  1.
    9900012    2    1    2    0    0  0.30121171049E+02  0.31213840529E+02 -0.14263192474E+01  0.47787272211E+02  0.20000005321E+02 0.  0.
        -12    1    1    2    0    0 -0.30121171049E+02 -0.31213840529E+02  0.14263192474E+01  0.43400727789E+02  0.00000000000E+00 0.  1.
         11    1    3    3    0    0  0.17582677793E+02  0.12030268902E+02  0.14663096546E+01  0.21354811928E+02  0.51100000000E-03 0. -1.
        -11    1    3    3    0    0  0.66279023257E+01  0.71295186320E+01  0.49120102321E+01  0.10903530160E+02  0.51100000000E-03 0.  1.
        -12    1    3    3    0    0  0.59105909310E+01  0.12054052996E+02 -0.78046391342E+01  0.15528930124E+02  0.00000000000E+00 0.  1.
</event>
<event>
 7    1  0.4519225E-009  0.4778727E+02  0.7816164E-02  0.1312668E+00
        -11   -1    0    0    0    0  0.00000000000E+00  0.00000000000E+00  0.45593999997E+02  0.45594000000E+02  0.51100000000E-03 0. -1.
         11   -1    0    0    0    0 -0.00000000000E+00 -0.00000000000E+00 -0.45593999997E+02  0.45594000000E+02  0.51100000000E-03 0.  1.
    9900012    2    1    2    0    0 -0.19999472777E+02  0.38402174541E+02 -0.29862296388E+01  0.47787268575E+02  0.19999988739E+02 0.  0.
        -12    1    1    2    0    0  0.19999472777E+02 -0.38402174541E+02  0.29862296388E+01  0.43400731425E+02  0.00000000000E+00 0.  1.
         11    1    3    3    0    0 -0.13205470111E+02  0.12586797975E+02 -0.58517658603E+00  0.18252516430E+02  0.51100000000E-03 0. -1.
        -11    1    3    3    0    0 -0.94869483866E+00  0.71574676005E+00 -0.35441906484E+01  0.37381282662E+01  0.51100000000E-03 0.  1.
        -12    1    3    3    0    0 -0.58453078268E+01  0.25099629806E+02  0.11431375957E+01  0.25796623879E+02  0.00000000000E+00 0.  1.
</event>
<event>
 7    1  0.4519225E-009  0.4778728E+02  0.7816164E-02  0.1312668E+00
        -11   -1    0    0    0    0  0.00000000000E+00  0.00000000000E+00  0.45593999997E+02  0.45594000000E+02  0.51100000000E-03 0.  1.
         11   -1    0    0    0    0 -0.00000000000E+00 -0.00000000000E+00 -0.45593999997E+02  0.45594000000E+02  0.51100000000E-03 0. -1.
    9900012    2    1    2    0    0 -0.53620479553E+01 -0.24636408821E+02 -0.35325883552E+02  0.47787282879E+02  0.20000053957E+02 0.  0.
        -12    1    1    2    0    0  0.53620479553E+01  0.24636408821E+02  0.35325883552E+02  0.43400717121E+02  0.00000000000E+00 0.  1.
         11    1    3    3    0    0 -0.69799366382E+00 -0.71933781473E+01 -0.27585129723E+01  0.77357144727E+01  0.51100000000E-03 0. -1.
        -11    1    3    3    0    0  0.49942293087E+01 -0.26899156401E+01 -0.83530893611E+01  0.10097132002E+02  0.51100000000E-03 0.  1.
         12    1    3    3    0    0 -0.96582836003E+01 -0.14753115034E+02 -0.24214281219E+02  0.29954436404E+02  0.00000000000E+00 0. -1.
</event>
<event>
 7    1  0.4519225E-009  0.4778728E+02  0.7816164E-02  0.1312668E+00
        -11   -1    0    0    0    0  0.00000000000E+00  0.00000000000E+00  0.45593999997E+02  0.45594000000E+02  0.51100000000E-03 0. -1.
         11   -1    0    0    0    0 -0.00000000000E+00 -0.00000000000E+00 -0.45593999997E+02  0.45594000000E+02  0.51100000000E-03 0.  1.
    9900012    2    1    2    0    0  0.43261269189E+02  0.11787800154E+01  0.32704393918E+01  0.47787277563E+02  0.20000029722E+02 0.  0.
        -12    1    1    2    0    0 -0.43261269189E+02 -0.11787800154E+01 -0.32704393918E+01  0.43400722437E+02  0.00000000000E+00 0.  1.
         11    1    3    3    0    0  0.84260111954E+01  0.39697676303E+01  0.38987090010E+01  0.10097358657E+02  0.51100000000E-03 0. -1.
        -11    1    3    3    0    0  0.18417184551E+02  0.49439257080E+01  0.26336617145E+01  0.19250227596E+02  0.51100000000E-03 0.  1.
        -12    1    3    3    0    0  0.16418073443E+02 -0.77349133229E+01 -0.32619313236E+01  0.18439691311E+02  0.00000000000E+00 0.  1.
</event>
<event>
 7    1  0.4519225E-009  0.4778727E+02  0.7816164E-02  0.1312668E+00
        -11   -1    0    0    0    0  0.00000000000E+00  0.00000000000E+00  0.45593999997E+02  0.45594000000E+02  0.51100000000E-03 0. -1.
         11   -1    0    0    0    0 -0.00000000000E+00 -0.00000000000E+00 -0.45593999997E+02  0.45594000000E+02  0.51100000000E-03 0.  1.
    9900012    2    1    2    0    0 -0.15258417450E+02  0.15578458525E+01  0.40600209783E+02  0.47787271651E+02  0.20000002766E+02 0.  0.
        -12    1    1    2    0    0  0.15258417450E+02 -0.15578458525E+01 -0.40600209783E+02  0.43400728349E+02  0.00000000000E+00 0.  1.
         11    1    3    3    0    0 -0.84844800025E+01 -0.33454744287E+01  0.96952682748E+01  0.13310778612E+02  0.51100000000E-03 0. -1.
        -11    1    3    3    0    0 -0.59975011740E+01  0.14663596116E+01  0.40332644126E+01  0.73747849410E+01  0.51100000000E-03 0.  1.
         12    1    3    3    0    0 -0.77643627381E+00  0.34369606696E+01  0.26871677096E+02  0.27101708099E+02  0.00000000000E+00 0. -1.
</event>
<event>
 7    1  0.4519225E-009  0.4778727E+02  0.7816164E-02  0.1312668E+00
        -11   -1    0    0    0    0  0.00000000000E+00  0.00000000000E+00  0.45593999997E+02  0.45594000000E+02  0.51100000000E-03 0. -1.
         11   -1    0    0    0    0 -0.00000000000E+00 -0.00000000000E+00 -0.45593999997E+02  0.45594000000E+02  0.51100000000E-03 0.  1.
    9900012    2    1    2    0    0  0.11150259763E+02  0.41935395985E+02  0.84724389324E+00  0.47787267847E+02  0.19999985424E+02 0.  0.
        -12    1    1    2    0    0 -0.11150259763E+02 -0.41935395985E+02 -0.84724389324E+00  0.43400732153E+02  0.00000000000E+00 0.  1.
         11    1    3    3    0    0  0.61130128865E+01  0.56224249497E+01  0.18493440396E+01  0.85088578848E+01  0.51100000000E-03 0.  1.
        -11    1    3    3    0    0 -0.39455350180E+01  0.65263040059E+01  0.23662699678E+01  0.79849310815E+01  0.51100000000E-03 0. -1.
        -12    1    3    3    0    0  0.89827818942E+01  0.29786667029E+02 -0.33683701141E+01  0.31293478881E+02  0.00000000000E+00 0.  1.
</event>
<event>
 7    1  0.4519225E-009  0.4778727E+02  0.7816164E-02  0.1312668E+00
        -11   -1    0    0    0    0  0.00000000000E+00  0.00000000000E+00  0.45593999997E+02  0.45594000000E+02  0.51100000000E-03 0.  1.
         11   -1    0    0    0    0 -0.00000000000E+00 -0.00000000000E+00 -0.45593999997E+02  0.45594000000E+02  0.51100000000E-03 0. -1.
    9900012    2    1    2    0    0  0.18554438118E+02  0.36233496743E+02 -0.15049572478E+02  0.47787273141E+02  0.20000009559E+02 0.  0.
        -12    1    1    2    0    0 -0.18554438118E+02 -0.36233496743E+02  0.15049572478E+02  0.43400726859E+02  0.00000000000E+00 0.  1.
         11    1    3    3    0    0  0.70469716773E+01  0.17320195389E+02 -0.67499868399E+01  0.19879922051E+02  0.51100000000E-03 0. -1.
        -11    1    3    3    0    0  0.13999308153E+02  0.17672903095E+02 -0.99800657081E+01  0.24655908914E+02  0.51100000000E-03 0.  1.
        -12    1    3    3    0    0 -0.24918417126E+01  0.12403982590E+01  0.16804800697E+01  0.32514421764E+01  0.00000000000E+00 0.  1.
</event>
<event>
 7    1  0.4519225E-009  0.4778727E+02  0.7816164E-02  0.1312668E+00
        -11   -1    0    0    0    0  0.00000000000E+00  0.00000000000E+00  0.45593999997E+02  0.45594000000E+02  0.51100000000E-03 0.  1.
         11   -1    0    0    0    0 -0.00000000000E+00 -0.00000000000E+00 -0.45593999997E+02  0.45594000000E+02  0.51100000000E-03 0. -1.
    9900012    2    1    2    0    0  0.71422691438E+01 -0.14640021136E+02 -0.40227865727E+02  0.47787269496E+02  0.19999992940E+02 0.  0.
        -12    1    1    2    0    0 -0.71422691438E+01  0.14640021136E+02  0.40227865727E+02  0.43400730504E+02  0.00000000000E+00 0.  1.
         11    1    3    3    0    0  0.16355647755E+01 -0.15122465998E+02 -0.15702128138E+02  0.21861401564E+02  0.51100000000E-03 0. -1.
        -11    1    3    3    0    0  0.29184165953E+01 -0.83414966046E+00 -0.32273772836E+01  0.44304543189E+01  0.51100000000E-03 0.  1.
         12    1    3    3    0    0  0.25882877730E+01  0.13165945232E+01 -0.21298360305E+02  0.21495413613E+02  0.00000000000E+00 0. -1.
</event>
<event>
 7    1  0.4519225E-009  0.4778727E+02  0.7816164E-02  0.1312668E+00
        -11   -1    0    0    0    0  0.00000000000E+00  0.00000000000E+00  0.45593999997E+02  0.45594000000E+02  0.51100000000E-03 0. -1.
         11   -1    0    0    0    0 -0.00000000000E+00 -0.00000000000E+00 -0.45593999997E+02  0.45594000000E+02  0.51100000000E-03 0.  1.
    9900012    2    1    2    0    0  0.39525740706E+02 -0.17642247279E+02  0.31765183647E+01  0.47787270325E+02  0.19999996718E+02 0.  0.
        -12    1    1    2    0    0 -0.39525740706E+02  0.17642247279E+02 -0.31765183647E+01  0.43400729675E+02  0.00000000000E+00 0.  1.
         11    1    3    3    0    0  0.14876757177E+02 -0.17892346172E+01 -0.64628451652E+01  0.16318321988E+02  0.51100000000E-03 0. -1.
        -11    1    3    3    0    0  0.36288571069E+00 -0.83170224592E+00 -0.64935040326E+00  0.11158274384E+01  0.51100000000E-03 0.  1.
         12    1    3    3    0    0  0.24286097819E+02 -0.15021310416E+02  0.10288713933E+02  0.30353120898E+02  0.00000000000E+00 0. -1.
</event>
<event>
 7    1  0.4519225E-009  0.4778727E+02  0.7816164E-02  0.1312668E+00
        -11   -1    0    0    0    0  0.00000000000E+00  0.00000000000E+00  0.45593999997E+02  0.45594000000E+02  0.51100000000E-03 0.  1.
         11   -1    0    0    0    0 -0.00000000000E+00 -0.00000000000E+00 -0.45593999997E+02  0.45594000000E+02  0.51100000000E-03 0. -1.
    9900012    2    1    2    0    0  0.20397093540E+01  0.50429038052E+01 -0.43058472020E+02  0.47787270678E+02  0.19999998328E+02 0.  0.
        -12    1    1    2    0    0 -0.20397093540E+01 -0.50429038052E+01  0.43058472020E+02  0.43400729322E+02  0.00000000000E+00 0.  1.
         11    1    3    3    0    0  0.14244600015E+01  0.64940732347E+01 -0.24925563450E+02  0.25797011204E+02  0.51100000000E-03 0. -1.
        -11    1    3    3    0    0  0.39766193814E+01  0.34249791647E+01 -0.37927919133E+01  0.64752802829E+01  0.51100000000E-03 0.  1.
        -12    1    3    3    0    0 -0.33613700289E+01 -0.48761485943E+01 -0.14340116656E+02  0.15514979191E+02  0.00000000000E+00 0.  1.
</event>
<event>
 7    1  0.4519225E-009  0.4778727E+02  0.7816164E-02  0.1312668E+00
        -11   -1    0    0    0    0  0.00000000000E+00  0.00000000000E+00  0.45593999997E+02  0.45594000000E+02  0.51100000000E-03 0.  1.
         11   -1    0    0    0    0 -0.00000000000E+00 -0.00000000000E+00 -0.45593999997E+02  0.45594000000E+02  0.51100000000E-03 0. -1.
    9900012    2    1    2    0    0 -0.14326771965E+02  0.22377340340E+02 -0.34316490916E+02  0.47787270692E+02  0.19999998395E+02 0.  0.
        -12    1    1    2    0    0  0.14326771965E+02 -0.22377340340E+02  0.34316490916E+02  0.43400729308E+02  0.00000000000E+00 0.  1.
         11    1    3    3    0    0 -0.91856734860E+01  0.13452260311E+02 -0.18773545777E+02  0.24855299761E+02  0.51100000000E-03 0. -1.
        -11    1    3    3    0    0 -0.55683789428E+01  0.11467498998E+02 -0.82197024131E+01  0.15168186620E+02  0.51100000000E-03 0.  1.
        -12    1    3    3    0    0  0.42728046422E+00 -0.25424189698E+01 -0.73232427258E+01  0.77637843115E+01  0.00000000000E+00 0.  1.
</event>
<event>
 7    1  0.4519225E-009  0.4778730E+02  0.7816164E-02  0.1312668E+00
        -11   -1    0    0    0    0  0.00000000000E+00  0.00000000000E+00  0.45593999997E+02  0.45594000000E+02  0.51100000000E-03 0.  1.
         11   -1    0    0    0    0 -0.00000000000E+00 -0.00000000000E+00 -0.45593999997E+02  0.45594000000E+02  0.51100000000E-03 0. -1.
    9900012    2    1    2    0    0  0.17599314699E+02 -0.39344701357E+02 -0.50871574522E+01  0.47787302152E+02  0.20000141831E+02 0.  0.
        -12    1    1    2    0    0 -0.17599314699E+02  0.39344701357E+02  0.50871574522E+01  0.43400697848E+02  0.00000000000E+00 0.  1.
         11    1    3    3    0    0  0.69366706776E+01 -0.18504649333E+02  0.30563464766E+01  0.19997017305E+02  0.51100000000E-03 0. -1.
        -11    1    3    3    0    0 -0.65424258326E+00 -0.12367900252E+02 -0.29677825250E+01  0.12735804779E+02  0.51100000000E-03 0.  1.
         12    1    3    3    0    0  0.11316886605E+02 -0.84721517719E+01 -0.51757214038E+01  0.15054480068E+02  0.00000000000E+00 0. -1.
</event>
<event>
 7    1  0.4519225E-009  0.4778728E+02  0.7816164E-02  0.1312668E+00
        -11   -1    0    0    0    0  0.00000000000E+00  0.00000000000E+00  0.45593999997E+02  0.45594000000E+02  0.51100000000E-03 0.  1.
         11   -1    0    0    0    0 -0.00000000000E+00 -0.00000000000E+00 -0.45593999997E+02  0.45594000000E+02  0.51100000000E-03 0. -1.
    9900012    2    1    2    0    0  0.38584928877E+02  0.19678325829E+02 -0.27548521050E+01  0.47787280490E+02  0.20000043066E+02 0.  0.
        -12    1    1    2    0    0 -0.38584928877E+02 -0.19678325829E+02  0.27548521050E+01  0.43400719510E+02  0.00000000000E+00 0.  1.
         11    1    3    3    0    0  0.71626928218E+01  0.25446842534E+01  0.35925764031E+01  0.84075080662E+01  0.51100000000E-03 0. -1.
        -11    1    3    3    0    0  0.46846907025E+01  0.79480567955E+01  0.28397555652E+01  0.96530899578E+01  0.51100000000E-03 0.  1.
        -12    1    3    3    0    0  0.26737545353E+02  0.91855847798E+01 -0.91871840733E+01  0.29726682466E+02  0.00000000000E+00 0.  1.
</event>
<event>
 7    1  0.4519225E-009  0.4778727E+02  0.7816164E-02  0.1312668E+00
        -11   -1    0    0    0    0  0.00000000000E+00  0.00000000000E+00  0.45593999997E+02  0.45594000000E+02  0.51100000000E-03 0.  1.
         11   -1    0    0    0    0 -0.00000000000E+00 -0.00000000000E+00 -0.45593999997E+02  0.45594000000E+02  0.51100000000E-03 0. -1.
    9900012    2    1    2    0    0  0.29300119453E+02  0.91168830382E+01 -0.30692161975E+02  0.47787270017E+02  0.19999995318E+02 0.  0.
        -12    1    1    2    0    0 -0.29300119453E+02 -0.91168830382E+01  0.30692161975E+02  0.43400729983E+02  0.00000000000E+00 0.  1.
         11    1    3    3    0    0  0.22932962345E+02  0.31768379088E+01 -0.17572322642E+02  0.29065436248E+02  0.51100000000E-03 0. -1.
        -11    1    3    3    0    0  0.72658456742E+01  0.35126812589E+01 -0.13852333762E+02  0.16031799460E+02  0.51100000000E-03 0.  1.
        -12    1    3    3    0    0 -0.89868856548E+00  0.24273638706E+01  0.73249442945E+00  0.26900343096E+01  0.00000000000E+00 0.  1.
</event>
<event>
 7    1  0.4519225E-009  0.4778727E+02  0.7816164E-02  0.1312668E+00
        -11   -1    0    0    0    0  0.00000000000E+00  0.00000000000E+00  0.45593999997E+02  0.45594000000E+02  0.51100000000E-03 0.  1.
         11   -1    0    0    0    0 -0.00000000000E+00 -0.00000000000E+00 -0.45593999997E+02  0.45594000000E+02  0.51100000000E-03 0. -1.
    9900012    2    1    2    0    0  0.14096448780E+01 -0.33375547506E+02 -0.27707564301E+02  0.47787269712E+02  0.19999993926E+02 0.  0.
        -12    1    1    2    0    0 -0.14096448780E+01  0.33375547506E+02  0.27707564301E+02  0.43400730288E+02  0.00000000000E+00 0.  1.
         11    1    3    3    0    0  0.25435575636E+01 -0.18870529482E+02 -0.20275453338E+02  0.27814754652E+02  0.51100000000E-03 0. -1.
        -11    1    3    3    0    0 -0.34866858987E+01 -0.67392818398E+00  0.88885641137E+00  0.36607681891E+01  0.51100000000E-03 0.  1.
         12    1    3    3    0    0  0.23527732131E+01 -0.13831089840E+02 -0.83209673740E+01  0.16311746871E+02  0.00000000000E+00 0. -1.
</event>
<event>
 7    1  0.4519225E-009  0.4778728E+02  0.7816164E-02  0.1312668E+00
        -11   -1    0    0    0    0  0.00000000000E+00  0.00000000000E+00  0.45593999997E+02  0.45594000000E+02  0.51100000000E-03 0. -1.
         11   -1    0    0    0    0 -0.00000000000E+00 -0.00000000000E+00 -0.45593999997E+02  0.45594000000E+02  0.51100000000E-03 0.  1.
    9900012    2    1    2    0    0 -0.58399132748E+01 -0.28345785066E+02  0.32342460985E+02  0.47787275344E+02  0.20000019603E+02 0.  0.
        -12    1    1    2    0    0  0.58399132748E+01  0.28345785066E+02 -0.32342460985E+02  0.43400724656E+02  0.00000000000E+00 0.  1.
         11    1    3    3    0    0  0.15696512373E+01  0.38709129381E+00  0.19590251415E+01  0.25399654412E+01  0.51100000000E-03 0. -1.
        -11    1    3    3    0    0 -0.61167562143E+01 -0.55564130137E+01  0.15809390922E+02  0.17838869744E+02  0.51100000000E-03 0.  1.
         12    1    3    3    0    0 -0.12928082979E+01 -0.23176463347E+02  0.14574044922E+02  0.27408440159E+02  0.00000000000E+00 0. -1.
</event>
<event>
 7    1  0.4519225E-009  0.4778727E+02  0.7816164E-02  0.1312668E+00
        -11   -1    0    0    0    0  0.00000000000E+00  0.00000000000E+00  0.45593999997E+02  0.45594000000E+02  0.51100000000E-03 0.  1.
         11   -1    0    0    0    0 -0.00000000000E+00 -0.00000000000E+00 -0.45593999997E+02  0.45594000000E+02  0.51100000000E-03 0. -1.
    9900012    2    1    2    0    0 -0.18116303836E+02  0.10922692902E+02 -0.37896144623E+02  0.47787268875E+02  0.19999990108E+02 0.  0.
        -12    1    1    2    0    0  0.18116303836E+02 -0.10922692902E+02  0.37896144623E+02  0.43400731125E+02  0.00000000000E+00 0.  1.
         11    1    3    3    0    0 -0.48742447627E+01  0.78973649118E+01 -0.94745000658E+01  0.13262457778E+02  0.51100000000E-03 0. -1.
        -11    1    3    3    0    0 -0.38643215582E+00  0.62715465125E+01 -0.10405396168E+02  0.12155406005E+02  0.51100000000E-03 0.  1.
        -12    1    3    3    0    0 -0.12855626918E+02 -0.32462185222E+01 -0.18016248390E+02  0.22369405092E+02  0.00000000000E+00 0.  1.
</event>
<event>
 7    1  0.4519225E-009  0.4778727E+02  0.7816164E-02  0.1312668E+00
        -11   -1    0    0    0    0  0.00000000000E+00  0.00000000000E+00  0.45593999997E+02  0.45594000000E+02  0.51100000000E-03 0.  1.
         11   -1    0    0    0    0 -0.00000000000E+00 -0.00000000000E+00 -0.45593999997E+02  0.45594000000E+02  0.51100000000E-03 0. -1.
    9900012    2    1    2    0    0 -0.22979407652E+02 -0.19869557108E+02 -0.30996301632E+02  0.47787272005E+02  0.20000004378E+02 0.  0.
        -12    1    1    2    0    0  0.22979407652E+02  0.19869557108E+02  0.30996301632E+02  0.43400727995E+02  0.00000000000E+00 0.  1.
         11    1    3    3    0    0 -0.84352480983E+01 -0.45684201120E+01 -0.16268573819E+02  0.18886248096E+02  0.51100000000E-03 0. -1.
        -11    1    3    3    0    0 -0.12807190651E+02 -0.39994847302E+01 -0.74437265707E+01  0.15343698251E+02  0.51100000000E-03 0.  1.
         12    1    3    3    0    0 -0.17369689025E+01 -0.11301652265E+02 -0.72840012421E+01  0.13557325658E+02  0.00000000000E+00 0. -1.
</event>
<event>
 7    1  0.4519225E-009  0.4778727E+02  0.7816164E-02  0.1312668E+00
        -11   -1    0    0    0    0  0.00000000000E+00  0.00000000000E+00  0.45593999997E+02  0.45594000000E+02  0.51100000000E-03 0.  1.
         11   -1    0    0    0    0 -0.00000000000E+00 -0.00000000000E+00 -0.45593999997E+02  0.45594000000E+02  0.51100000000E-03 0. -1.
    9900012    2    1    2    0    0 -0.66571470572E+01  0.16522459774E+02 -0.39576686137E+02  0.47787269943E+02  0.19999994977E+02 0.  0.
        -12    1    1    2    0    0  0.66571470572E+01 -0.16522459774E+02  0.39576686137E+02  0.43400730057E+02  0.00000000000E+00 0.  1.
         11    1    3    3    0    0 -0.52299513770E+01  0.98461041916E+01 -0.77958591920E+01  0.13604175093E+02  0.51100000000E-03 0. -1.
        -11    1    3    3    0    0 -0.47167291999E+01  0.17856406912E+01 -0.65156897852E+01  0.82395546398E+01  0.51100000000E-03 0.  1.
        -12    1    3    3    0    0  0.32895335197E+01  0.48907148911E+01 -0.25265137160E+02  0.25943540210E+02  0.00000000000E+00 0.  1.
</event>
<event>
 7    1  0.4519225E-009  0.4778724E+02  0.7816164E-02  0.1312668E+00
        -11   -1    0    0    0    0  0.00000000000E+00  0.00000000000E+00  0.45593999997E+02  0.45594000000E+02  0.51100000000E-03 0.  1.
         11   -1    0    0    0    0 -0.00000000000E+00 -0.00000000000E+00 -0.45593999997E+02  0.45594000000E+02  0.51100000000E-03 0. -1.
    9900012    2    1    2    0    0 -0.18570249378E+00  0.63340518875E+01 -0.42935665225E+02  0.47787239096E+02  0.19999854334E+02 0.  0.
        -12    1    1    2    0    0  0.18570249378E+00 -0.63340518875E+01  0.42935665225E+02  0.43400760904E+02  0.00000000000E+00 0.  1.
         11    1    3    3    0    0 -0.14783896621E+01 -0.79926933902E+00 -0.67193130941E+01  0.69263003246E+01  0.51100000000E-03 0. -1.
        -11    1    3    3    0    0  0.11409834213E+01 -0.57922377855E+01 -0.95639055532E+01  0.11239223791E+02  0.51100000000E-03 0.  1.
         12    1    3    3    0    0  0.15170374701E+00  0.12925559012E+02 -0.26652446578E+02  0.29621714980E+02  0.00000000000E+00 0. -1.
</event>
<event>
 7    1  0.4519225E-009  0.4778727E+02  0.7816164E-02  0.1312668E+00
        -11   -1    0    0    0    0  0.00000000000E+00  0.00000000000E+00  0.45593999997E+02  0.45594000000E+02  0.51100000000E-03 0.  1.
         11   -1    0    0    0    0 -0.00000000000E+00 -0.00000000000E+00 -0.45593999997E+02  0.45594000000E+02  0.51100000000E-03 0. -1.
    9900012    2    1    2    0    0 -0.77573531479E+01  0.30669673044E+02 -0.29712252574E+02  0.47787270449E+02  0.19999997286E+02 0.  0.
        -12    1    1    2    0    0  0.77573531479E+01 -0.30669673044E+02  0.29712252574E+02  0.43400729551E+02  0.00000000000E+00 0.  1.
         11    1    3    3    0    0 -0.63589375952E+01  0.19001293930E+02 -0.26824825170E+02  0.33482181888E+02  0.51100000000E-03 0. -1.
        -11    1    3    3    0    0 -0.40597586292E+01  0.42259052176E+01 -0.25586314248E+01  0.63942560212E+01  0.51100000000E-03 0.  1.
         12    1    3    3    0    0  0.26613430765E+01  0.74424738967E+01 -0.32879597964E+00  0.79108325396E+01  0.00000000000E+00 0. -1.
</event>
<event>
 7    1  0.4519225E-009  0.4778727E+02  0.7816164E-02  0.1312668E+00
        -11   -1    0    0    0    0  0.00000000000E+00  0.00000000000E+00  0.45593999997E+02  0.45594000000E+02  0.51100000000E-03 0. -1.
         11   -1    0    0    0    0 -0.00000000000E+00 -0.00000000000E+00 -0.45593999997E+02  0.45594000000E+02  0.51100000000E-03 0.  1.
    9900012    2    1    2    0    0  0.24839398501E+02  0.25129724193E+02 -0.25201677298E+02  0.47787270806E+02  0.19999998913E+02 0.  0.
        -12    1    1    2    0    0 -0.24839398501E+02 -0.25129724193E+02  0.25201677298E+02  0.43400729194E+02  0.00000000000E+00 0.  1.
         11    1    3    3    0    0  0.10214215803E+02  0.11032969345E+02 -0.22351779846E+02  0.26938052631E+02  0.51100000000E-03 0. -1.
        -11    1    3    3    0    0  0.16028523282E+01  0.22967176937E+00 -0.40994923017E+00  0.16703123480E+01  0.51100000000E-03 0.  1.
         12    1    3    3    0    0  0.13022330370E+02  0.13867083079E+02 -0.24399482220E+01  0.19178905827E+02  0.00000000000E+00 0. -1.
</event>
<event>
 7    1  0.4519225E-009  0.4778727E+02  0.7816164E-02  0.1312668E+00
        -11   -1    0    0    0    0  0.00000000000E+00  0.00000000000E+00  0.45593999997E+02  0.45594000000E+02  0.51100000000E-03 0. -1.
         11   -1    0    0    0    0 -0.00000000000E+00 -0.00000000000E+00 -0.45593999997E+02  0.45594000000E+02  0.51100000000E-03 0.  1.
    9900012    2    1    2    0    0  0.11277467837E+02 -0.31583025890E+02  0.27549125713E+02  0.47787272670E+02  0.20000007412E+02 0.  0.
        -12    1    1    2    0    0 -0.11277467837E+02  0.31583025890E+02 -0.27549125713E+02  0.43400727330E+02  0.00000000000E+00 0.  1.
         11    1    3    3    0    0  0.42277428908E+01 -0.29060082509E+02  0.19789773690E+02  0.35411824979E+02  0.51100000000E-03 0. -1.
        -11    1    3    3    0    0  0.30079475026E+01 -0.34190126875E+01  0.13579228362E+01  0.47519838621E+01  0.51100000000E-03 0.  1.
         12    1    3    3    0    0  0.40417774441E+01  0.89606930667E+00  0.64014291873E+01  0.76234638289E+01  0.00000000000E+00 0. -1.
</event>
<event>
 7    1  0.4519225E-009  0.4778727E+02  0.7816164E-02  0.1312668E+00
        -11   -1    0    0    0    0  0.00000000000E+00  0.00000000000E+00  0.45593999997E+02  0.45594000000E+02  0.51100000000E-03 0.  1.
         11   -1    0    0    0    0 -0.00000000000E+00 -0.00000000000E+00 -0.45593999997E+02  0.45594000000E+02  0.51100000000E-03 0. -1.
    9900012    2    1    2    0    0 -0.33805627705E+02 -0.25598353305E+02 -0.92480815980E+01  0.47787272244E+02  0.20000005471E+02 0.  0.
        -12    1    1    2    0    0  0.33805627705E+02  0.25598353305E+02  0.92480815980E+01  0.43400727756E+02  0.00000000000E+00 0.  1.
         11    1    3    3    0    0 -0.36987577399E+01  0.37191860159E+00  0.66739029571E+00  0.37768429055E+01  0.51100000000E-03 0. -1.
        -11    1    3    3    0    0  0.11479533800E+01  0.30731290224E-01 -0.24068922258E+01  0.26668092963E+01  0.51100000000E-03 0.  1.
         12    1    3    3    0    0 -0.31254823345E+02 -0.26001003197E+02 -0.75085796679E+01  0.41343620043E+02  0.00000000000E+00 0. -1.
</event>
<event>
 7    1  0.4519225E-009  0.4778728E+02  0.7816164E-02  0.1312668E+00
        -11   -1    0    0    0    0  0.00000000000E+00  0.00000000000E+00  0.45593999997E+02  0.45594000000E+02  0.51100000000E-03 0. -1.
         11   -1    0    0    0    0 -0.00000000000E+00 -0.00000000000E+00 -0.45593999997E+02  0.45594000000E+02  0.51100000000E-03 0.  1.
    9900012    2    1    2    0    0 -0.65793502940E+01  0.41291986914E+02  0.11632140943E+02  0.47787277235E+02  0.20000028227E+02 0.  0.
        -12    1    1    2    0    0  0.65793502940E+01 -0.41291986914E+02 -0.11632140943E+02  0.43400722765E+02  0.00000000000E+00 0.  1.
         11    1    3    3    0    0  0.24206210623E+01  0.10650143221E+02 -0.98876000019E+00  0.10966430757E+02  0.51100000000E-03 0.  1.
        -11    1    3    3    0    0  0.14452170303E+01  0.70104207721E+01  0.77117607837E+01  0.10521687427E+02  0.51100000000E-03 0. -1.
        -12    1    3    3    0    0 -0.10445188387E+02  0.23631422921E+02  0.49091401596E+01  0.26299159051E+02  0.00000000000E+00 0.  1.
</event>
<event>
 7    1  0.4519225E-009  0.4778727E+02  0.7816164E-02  0.1312668E+00
        -11   -1    0    0    0    0  0.00000000000E+00  0.00000000000E+00  0.45593999997E+02  0.45594000000E+02  0.51100000000E-03 0.  1.
         11   -1    0    0    0    0 -0.00000000000E+00 -0.00000000000E+00 -0.45593999997E+02  0.45594000000E+02  0.51100000000E-03 0. -1.
    9900012    2    1    2    0    0  0.25114381320E+02 -0.15217013159E+02 -0.31958307775E+02  0.47787273342E+02  0.20000010475E+02 0.  0.
        -12    1    1    2    0    0 -0.25114381320E+02  0.15217013159E+02  0.31958307775E+02  0.43400726658E+02  0.00000000000E+00 0.  1.
         11    1    3    3    0    0  0.55848105055E+01 -0.32912232928E+01 -0.14278130020E+01  0.66378392099E+01  0.51100000000E-03 0. -1.
        -11    1    3    3    0    0  0.32936128476E+01 -0.65218839490E+01 -0.15115982580E+01  0.74610847327E+01  0.51100000000E-03 0.  1.
         12    1    3    3    0    0  0.16235957967E+02 -0.54039059171E+01 -0.29018896515E+02  0.33688349399E+02  0.00000000000E+00 0. -1.
</event>
<event>
 7    1  0.4519225E-009  0.4778727E+02  0.7816164E-02  0.1312668E+00
        -11   -1    0    0    0    0  0.00000000000E+00  0.00000000000E+00  0.45593999997E+02  0.45594000000E+02  0.51100000000E-03 0.  1.
         11   -1    0    0    0    0 -0.00000000000E+00 -0.00000000000E+00 -0.45593999997E+02  0.45594000000E+02  0.51100000000E-03 0. -1.
    9900012    2    1    2    0    0 -0.10620868204E+01  0.39666979074E+02 -0.17579141100E+02  0.47787268910E+02  0.19999990270E+02 0.  0.
        -12    1    1    2    0    0  0.10620868204E+01 -0.39666979074E+02  0.17579141100E+02  0.43400731090E+02  0.00000000000E+00 0.  1.
         11    1    3    3    0    0 -0.30619653833E+01  0.24290716023E+02 -0.37236386281E+01  0.24764490744E+02  0.51100000000E-03 0. -1.
        -11    1    3    3    0    0 -0.42893477687E+00 -0.64542440623E+00  0.84290460016E+00  0.11450092284E+01  0.51100000000E-03 0.  1.
        -12    1    3    3    0    0  0.24288133398E+01  0.16021687457E+02 -0.14698407073E+02  0.21877768938E+02  0.00000000000E+00 0.  1.
</event>
<event>
 7    1  0.4519225E-009  0.4778726E+02  0.7816164E-02  0.1312668E+00
        -11   -1    0    0    0    0  0.00000000000E+00  0.00000000000E+00  0.45593999997E+02  0.45594000000E+02  0.51100000000E-03 0.  1.
         11   -1    0    0    0    0 -0.00000000000E+00 -0.00000000000E+00 -0.45593999997E+02  0.45594000000E+02  0.51100000000E-03 0. -1.
    9900012    2    1    2    0    0  0.28527834937E+02  0.26388548020E+02 -0.19324362872E+02  0.47787264601E+02  0.19999970622E+02 0.  0.
        -12    1    1    2    0    0 -0.28527834937E+02 -0.26388548020E+02  0.19324362872E+02  0.43400735399E+02  0.00000000000E+00 0.  1.
         11    1    3    3    0    0  0.37863343712E+01  0.69422809315E+01 -0.59798451218E+01  0.99141384116E+01  0.51100000000E-03 0. -1.
        -11    1    3    3    0    0  0.16805405182E+02  0.20365381263E+02 -0.61247138914E+01  0.27105027538E+02  0.51100000000E-03 0.  1.
         12    1    3    3    0    0  0.79360953837E+01 -0.91911417518E+00 -0.72198038585E+01  0.10768098651E+02  0.00000000000E+00 0. -1.
</event>
<event>
 7    1  0.4519225E-009  0.4778728E+02  0.7816164E-02  0.1312668E+00
        -11   -1    0    0    0    0  0.00000000000E+00  0.00000000000E+00  0.45593999997E+02  0.45594000000E+02  0.51100000000E-03 0. -1.
         11   -1    0    0    0    0 -0.00000000000E+00 -0.00000000000E+00 -0.45593999997E+02  0.45594000000E+02  0.51100000000E-03 0.  1.
    9900012    2    1    2    0    0 -0.19005967741E+02  0.39010928948E+02 -0.73693385969E+00  0.47787280436E+02  0.20000042819E+02 0.  0.
        -12    1    1    2    0    0  0.19005967741E+02 -0.39010928948E+02  0.73693385969E+00  0.43400719564E+02  0.00000000000E+00 0.  1.
         11    1    3    3    0    0 -0.13142062515E+02  0.83046549964E+01  0.93393708031E+00  0.15574124068E+02  0.51100000000E-03 0. -1.
        -11    1    3    3    0    0 -0.35934950357E+01  0.11193405046E+02  0.27587116443E+01  0.12075430150E+02  0.51100000000E-03 0.  1.
        -12    1    3    3    0    0 -0.22704101904E+01  0.19512868906E+02 -0.44295825843E+01  0.20137726218E+02  0.00000000000E+00 0.  1.
</event>
<event>
 7    1  0.4519225E-009  0.4778727E+02  0.7816164E-02  0.1312668E+00
        -11   -1    0    0    0    0  0.00000000000E+00  0.00000000000E+00  0.45593999997E+02  0.45594000000E+02  0.51100000000E-03 0.  1.
         11   -1    0    0    0    0 -0.00000000000E+00 -0.00000000000E+00 -0.45593999997E+02  0.45594000000E+02  0.51100000000E-03 0. -1.
    9900012    2    1    2    0    0 -0.67150338790E+01  0.39300296425E+02 -0.17146960169E+02  0.47787271641E+02  0.20000002720E+02 0.  0.
        -12    1    1    2    0    0  0.67150338790E+01 -0.39300296425E+02  0.17146960169E+02  0.43400728359E+02  0.00000000000E+00 0.  1.
         11    1    3    3    0    0 -0.55141458221E+01  0.30563165996E+01 -0.36605056416E+01  0.72901424621E+01  0.51100000000E-03 0.  1.
        -11    1    3    3    0    0 -0.43805730623E+01  0.82877277627E+01 -0.18771119684E+00  0.93760912740E+01  0.51100000000E-03 0. -1.
         12    1    3    3    0    0  0.31796850055E+01  0.27956252063E+02 -0.13298743330E+02  0.31121037905E+02  0.00000000000E+00 0. -1.
</event>
<event>
 7    1  0.4519225E-009  0.4778728E+02  0.7816164E-02  0.1312668E+00
        -11   -1    0    0    0    0  0.00000000000E+00  0.00000000000E+00  0.45593999997E+02  0.45594000000E+02  0.51100000000E-03 0. -1.
         11   -1    0    0    0    0 -0.00000000000E+00 -0.00000000000E+00 -0.45593999997E+02  0.45594000000E+02  0.51100000000E-03 0.  1.
    9900012    2    1    2    0    0  0.12586595343E+02  0.34710075846E+02  0.22812522295E+02  0.47787275109E+02  0.20000018533E+02 0.  0.
        -12    1    1    2    0    0 -0.12586595343E+02 -0.34710075846E+02 -0.22812522295E+02  0.43400724891E+02  0.00000000000E+00 0.  1.
         11    1    3    3    0    0 -0.20047324533E+01  0.27018989124E+01  0.58631832717E-02  0.33644085038E+01  0.51100000000E-03 0. -1.
        -11    1    3    3    0    0  0.42875709306E+01  0.39973474668E+01 -0.13624686140E+01  0.60181701738E+01  0.51100000000E-03 0.  1.
         12    1    3    3    0    0  0.10303756866E+02  0.28010829467E+02  0.24169127725E+02  0.38404696432E+02  0.00000000000E+00 0. -1.
</event>
<event>
 7    1  0.4519225E-009  0.4778728E+02  0.7816164E-02  0.1312668E+00
        -11   -1    0    0    0    0  0.00000000000E+00  0.00000000000E+00  0.45593999997E+02  0.45594000000E+02  0.51100000000E-03 0.  1.
         11   -1    0    0    0    0 -0.00000000000E+00 -0.00000000000E+00 -0.45593999997E+02  0.45594000000E+02  0.51100000000E-03 0. -1.
    9900012    2    1    2    0    0  0.67761335369E+01 -0.42604862923E+02 -0.47468224492E+01  0.47787278188E+02  0.20000032571E+02 0.  0.
        -12    1    1    2    0    0 -0.67761335369E+01  0.42604862923E+02  0.47468224492E+01  0.43400721812E+02  0.00000000000E+00 0.  1.
         11    1    3    3    0    0 -0.23147405726E+01 -0.46269036921E+01  0.26635231512E+00  0.51804638317E+01  0.51100000000E-03 0. -1.
        -11    1    3    3    0    0  0.29460149036E+00 -0.61044062333E+00  0.32657666774E+01  0.33353650543E+01  0.51100000000E-03 0.  1.
        -12    1    3    3    0    0  0.87962726191E+01 -0.37367518608E+02 -0.82789414417E+01  0.39271449302E+02  0.00000000000E+00 0.  1.
</event>
<event>
 7    1  0.4519225E-009  0.4778727E+02  0.7816164E-02  0.1312668E+00
        -11   -1    0    0    0    0  0.00000000000E+00  0.00000000000E+00  0.45593999997E+02  0.45594000000E+02  0.51100000000E-03 0.  1.
         11   -1    0    0    0    0 -0.00000000000E+00 -0.00000000000E+00 -0.45593999997E+02  0.45594000000E+02  0.51100000000E-03 0. -1.
    9900012    2    1    2    0    0 -0.27027091730E+02 -0.25739551339E+02 -0.22150280329E+02  0.47787272942E+02  0.20000008652E+02 0.  0.
        -12    1    1    2    0    0  0.27027091730E+02  0.25739551339E+02  0.22150280329E+02  0.43400727058E+02  0.00000000000E+00 0.  1.
         11    1    3    3    0    0 -0.32836394327E+01  0.16423365261E+01 -0.42512170140E+01  0.56171526194E+01  0.51100000000E-03 0. -1.
        -11    1    3    3    0    0 -0.64669790473E+00  0.12042307155E+01 -0.11333073190E+01  0.17756056815E+01  0.51100000000E-03 0.  1.
        -12    1    3    3    0    0 -0.23096754392E+02 -0.28586118581E+02 -0.16765755996E+02  0.40394514641E+02  0.00000000000E+00 0.  1.
</event>
<event>
 7    1  0.4519225E-009  0.4778727E+02  0.7816164E-02  0.1312668E+00
        -11   -1    0    0    0    0  0.00000000000E+00  0.00000000000E+00  0.45593999997E+02  0.45594000000E+02  0.51100000000E-03 0.  1.
         11   -1    0    0    0    0 -0.00000000000E+00 -0.00000000000E+00 -0.45593999997E+02  0.45594000000E+02  0.51100000000E-03 0. -1.
    9900012    2    1    2    0    0 -0.10858765922E+02  0.23766768365E+02 -0.34653302744E+02  0.47787268820E+02  0.19999989858E+02 0.  0.
        -12    1    1    2    0    0  0.10858765922E+02 -0.23766768365E+02  0.34653302744E+02  0.43400731180E+02  0.00000000000E+00 0.  1.
         11    1    3    3    0    0 -0.20987064865E+01 -0.30805361319E+00 -0.16843227362E+01  0.27085806774E+01  0.51100000000E-03 0. -1.
        -11    1    3    3    0    0 -0.62818199554E+01  0.12495517448E+02 -0.52540534457E+01  0.14940023297E+02  0.51100000000E-03 0.  1.
         12    1    3    3    0    0 -0.24782394799E+01  0.11579304531E+02 -0.27714926562E+02  0.30138664846E+02  0.00000000000E+00 0. -1.
</event>
<event>
 7    1  0.4519225E-009  0.4778727E+02  0.7816164E-02  0.1312668E+00
        -11   -1    0    0    0    0  0.00000000000E+00  0.00000000000E+00  0.45593999997E+02  0.45594000000E+02  0.51100000000E-03 0.  1.
         11   -1    0    0    0    0 -0.00000000000E+00 -0.00000000000E+00 -0.45593999997E+02  0.45594000000E+02  0.51100000000E-03 0. -1.
    9900012    2    1    2    0    0  0.31886454185E+01  0.20988624255E+02 -0.37854109321E+02  0.47787269589E+02  0.19999993363E+02 0.  0.
        -12    1    1    2    0    0 -0.31886454185E+01 -0.20988624255E+02  0.37854109321E+02  0.43400730411E+02  0.00000000000E+00 0.  1.
         11    1    3    3    0    0  0.10170855409E+02  0.98999426127E+01 -0.17778164244E+02  0.22749028279E+02  0.51100000000E-03 0. -1.
        -11    1    3    3    0    0 -0.80043935739E+00  0.70633116014E+01 -0.67285905547E+01  0.97880031190E+01  0.51100000000E-03 0.  1.
         12    1    3    3    0    0 -0.61817706331E+01  0.40253700410E+01 -0.13347354522E+02  0.15250238191E+02  0.00000000000E+00 0. -1.
</event>
<event>
 7    1  0.4519225E-009  0.4778728E+02  0.7816164E-02  0.1312668E+00
        -11   -1    0    0    0    0  0.00000000000E+00  0.00000000000E+00  0.45593999997E+02  0.45594000000E+02  0.51100000000E-03 0.  1.
         11   -1    0    0    0    0 -0.00000000000E+00 -0.00000000000E+00 -0.45593999997E+02  0.45594000000E+02  0.51100000000E-03 0. -1.
    9900012    2    1    2    0    0 -0.27434460992E+00  0.22569282890E+01 -0.43341131017E+02  0.47787278484E+02  0.20000033918E+02 0.  0.
        -12    1    1    2    0    0  0.27434460992E+00 -0.22569282890E+01  0.43341131017E+02  0.43400721516E+02  0.00000000000E+00 0.  1.
         11    1    3    3    0    0  0.19609219673E+01  0.23424038269E+01 -0.50042728918E+01  0.58630041861E+01  0.51100000000E-03 0. -1.
        -11    1    3    3    0    0 -0.65803742500E+01 -0.16545912670E+01 -0.54183306025E+01  0.86831621147E+01  0.51100000000E-03 0.  1.
         12    1    3    3    0    0  0.43451076728E+01  0.15691157291E+01 -0.32918527523E+02  0.33241112183E+02  0.00000000000E+00 0. -1.
</event>
<event>
 7    1  0.4519225E-009  0.4778728E+02  0.7816164E-02  0.1312668E+00
        -11   -1    0    0    0    0  0.00000000000E+00  0.00000000000E+00  0.45593999997E+02  0.45594000000E+02  0.51100000000E-03 0.  1.
         11   -1    0    0    0    0 -0.00000000000E+00 -0.00000000000E+00 -0.45593999997E+02  0.45594000000E+02  0.51100000000E-03 0. -1.
    9900012    2    1    2    0    0 -0.37336979540E+02  0.21686115258E+02  0.43914997233E+01  0.47787275283E+02  0.20000019324E+02 0.  0.
        -12    1    1    2    0    0  0.37336979540E+02 -0.21686115258E+02 -0.43914997233E+01  0.43400724717E+02  0.00000000000E+00 0.  1.
         11    1    3    3    0    0 -0.19109443120E+02  0.37430891005E+01  0.55485483979E+01  0.20247664605E+02  0.51100000000E-03 0. -1.
        -11    1    3    3    0    0 -0.89316798547E+01  0.23570866383E+01 -0.16582119082E+01  0.93851174442E+01  0.51100000000E-03 0.  1.
        -12    1    3    3    0    0 -0.92958565653E+01  0.15585939519E+02  0.50116323365E+00  0.18154493234E+02  0.00000000000E+00 0.  1.
</event>
<event>
 7    1  0.4519225E-009  0.4778728E+02  0.7816164E-02  0.1312668E+00
        -11   -1    0    0    0    0  0.00000000000E+00  0.00000000000E+00  0.45593999997E+02  0.45594000000E+02  0.51100000000E-03 0.  1.
         11   -1    0    0    0    0 -0.00000000000E+00 -0.00000000000E+00 -0.45593999997E+02  0.45594000000E+02  0.51100000000E-03 0. -1.
    9900012    2    1    2    0    0  0.38498672080E+02 -0.14907159156E+02 -0.13388494447E+02  0.47787275011E+02  0.20000018084E+02 0.  0.
        -12    1    1    2    0    0 -0.38498672080E+02  0.14907159156E+02  0.13388494447E+02  0.43400724989E+02  0.00000000000E+00 0.  1.
         11    1    3    3    0    0  0.64627046787E+01  0.87079248825E+00 -0.36957915252E+00  0.65315710463E+01  0.51100000000E-03 0. -1.
        -11    1    3    3    0    0  0.83093316263E+01  0.22875047985E+01  0.23503777760E+00  0.86216537449E+01  0.51100000000E-03 0.  1.
         12    1    3    3    0    0  0.23726635775E+02 -0.18065456442E+02 -0.13253953072E+02  0.32634050219E+02  0.00000000000E+00 0. -1.
</event>
<event>
 7    1  0.4519225E-009  0.4778727E+02  0.7816164E-02  0.1312668E+00
        -11   -1    0    0    0    0  0.00000000000E+00  0.00000000000E+00  0.45593999997E+02  0.45594000000E+02  0.51100000000E-03 0.  1.
         11   -1    0    0    0    0 -0.00000000000E+00 -0.00000000000E+00 -0.45593999997E+02  0.45594000000E+02  0.51100000000E-03 0. -1.
    9900012    2    1    2    0    0  0.30203454159E+02  0.21868644666E+02 -0.22206687086E+02  0.47787271735E+02  0.20000003147E+02 0.  0.
        -12    1    1    2    0    0 -0.30203454159E+02 -0.21868644666E+02  0.22206687086E+02  0.43400728265E+02  0.00000000000E+00 0.  1.
         11    1    3    3    0    0  0.19875439249E+02  0.14909924462E+02 -0.16056181398E+02  0.29582763463E+02  0.51100000000E-03 0. -1.
        -11    1    3    3    0    0  0.79533241291E+01  0.10301568122E+02 -0.43068074188E+01  0.13708619948E+02  0.51100000000E-03 0.  1.
         12    1    3    3    0    0  0.23746907809E+01 -0.33428479182E+01 -0.18436982693E+01  0.44958883235E+01  0.00000000000E+00 0. -1.
</event>
<event>
 7    1  0.4519225E-009  0.4778727E+02  0.7816164E-02  0.1312668E+00
        -11   -1    0    0    0    0  0.00000000000E+00  0.00000000000E+00  0.45593999997E+02  0.45594000000E+02  0.51100000000E-03 0.  1.
         11   -1    0    0    0    0 -0.00000000000E+00 -0.00000000000E+00 -0.45593999997E+02  0.45594000000E+02  0.51100000000E-03 0. -1.
    9900012    2    1    2    0    0  0.25517420895E+02  0.64599671469E+01 -0.34507295645E+02  0.47787269621E+02  0.19999993510E+02 0.  0.
        -12    1    1    2    0    0 -0.25517420895E+02 -0.64599671469E+01  0.34507295645E+02  0.43400730379E+02  0.00000000000E+00 0.  1.
         11    1    3    3    0    0  0.20146357281E+02  0.82230813887E+01 -0.20057894326E+02  0.29594153211E+02  0.51100000000E-03 0. -1.
        -11    1    3    3    0    0  0.30231920313E+01 -0.77631851400E+00  0.38206567257E+00  0.31445722973E+01  0.51100000000E-03 0.  1.
        -12    1    3    3    0    0  0.23478715829E+01 -0.98679572786E+00 -0.14831466992E+02  0.15048544113E+02  0.00000000000E+00 0.  1.
</event>
<event>
 7    1  0.4519225E-009  0.4778727E+02  0.7816164E-02  0.1312668E+00
        -11   -1    0    0    0    0  0.00000000000E+00  0.00000000000E+00  0.45593999997E+02  0.45594000000E+02  0.51100000000E-03 0.  1.
         11   -1    0    0    0    0 -0.00000000000E+00 -0.00000000000E+00 -0.45593999997E+02  0.45594000000E+02  0.51100000000E-03 0. -1.
    9900012    2    1    2    0    0 -0.39132950045E+02 -0.13540065611E+02  0.12996245680E+02  0.47787267774E+02  0.19999985090E+02 0.  0.
        -12    1    1    2    0    0  0.39132950045E+02  0.13540065611E+02 -0.12996245680E+02  0.43400732226E+02  0.00000000000E+00 0.  1.
         11    1    3    3    0    0 -0.23929331953E+00  0.15246772726E+01  0.11136128478E+01  0.19031647102E+01  0.51100000000E-03 0.  1.
        -11    1    3    3    0    0 -0.11073435841E+02  0.23620024776E+01  0.13214363708E+01  0.11399396097E+02  0.51100000000E-03 0. -1.
         12    1    3    3    0    0 -0.27820220884E+02 -0.17426745361E+02  0.10561196461E+02  0.34484706967E+02  0.00000000000E+00 0. -1.
</event>
<event>
 7    1  0.4519225E-009  0.4778727E+02  0.7816164E-02  0.1312668E+00
        -11   -1    0    0    0    0  0.00000000000E+00  0.00000000000E+00  0.45593999997E+02  0.45594000000E+02  0.51100000000E-03 0.  1.
         11   -1    0    0    0    0 -0.00000000000E+00 -0.00000000000E+00 -0.45593999997E+02  0.45594000000E+02  0.51100000000E-03 0. -1.
    9900012    2    1    2    0    0 -0.57180264553E+01 -0.29021818164E+02 -0.31759432364E+02  0.47787270741E+02  0.19999998616E+02 0.  0.
        -12    1    1    2    0    0  0.57180264553E+01  0.29021818164E+02  0.31759432364E+02  0.43400729259E+02  0.00000000000E+00 0.  1.
         11    1    3    3    0    0 -0.36407743812E+01 -0.51948211172E+01 -0.13816407041E+02  0.15203108508E+02  0.51100000000E-03 0. -1.
        -11    1    3    3    0    0  0.19822326699E+01  0.52549733069E+00  0.22525368589E-01  0.20508294555E+01  0.51100000000E-03 0.  1.
         12    1    3    3    0    0 -0.40594847440E+01 -0.24352494378E+02 -0.17965550692E+02  0.30533332777E+02  0.00000000000E+00 0. -1.
</event>
<event>
 7    1  0.4519225E-009  0.4778727E+02  0.7816164E-02  0.1312668E+00
        -11   -1    0    0    0    0  0.00000000000E+00  0.00000000000E+00  0.45593999997E+02  0.45594000000E+02  0.51100000000E-03 0.  1.
         11   -1    0    0    0    0 -0.00000000000E+00 -0.00000000000E+00 -0.45593999997E+02  0.45594000000E+02  0.51100000000E-03 0. -1.
    9900012    2    1    2    0    0 -0.32688670156E+02  0.28182809691E+02 -0.45610531563E+01  0.47787272765E+02  0.20000007846E+02 0.  0.
        -12    1    1    2    0    0  0.32688670156E+02 -0.28182809691E+02  0.45610531563E+01  0.43400727235E+02  0.00000000000E+00 0.  1.
         11    1    3    3    0    0 -0.89078537452E+01  0.12158865598E+02 -0.24629760458E+01  0.15272659305E+02  0.51100000000E-03 0. -1.
        -11    1    3    3    0    0 -0.91338988909E+01  0.48921523298E+01 -0.81123879277E+01  0.13159487130E+02  0.51100000000E-03 0.  1.
         12    1    3    3    0    0 -0.14646917520E+02  0.11131791763E+02  0.60143108172E+01  0.19355126331E+02  0.00000000000E+00 0. -1.
</event>
<event>
 7    1  0.4519225E-009  0.4778727E+02  0.7816164E-02  0.1312668E+00
        -11   -1    0    0    0    0  0.00000000000E+00  0.00000000000E+00  0.45593999997E+02  0.45594000000E+02  0.51100000000E-03 0. -1.
         11   -1    0    0    0    0 -0.00000000000E+00 -0.00000000000E+00 -0.45593999997E+02  0.45594000000E+02  0.51100000000E-03 0.  1.
    9900012    2    1    2    0    0 -0.37688633107E+02  0.10505371142E+01  0.21496202471E+02  0.47787269426E+02  0.19999992622E+02 0.  0.
        -12    1    1    2    0    0  0.37688633107E+02 -0.10505371142E+01 -0.21496202471E+02  0.43400730574E+02  0.00000000000E+00 0.  1.
         11    1    3    3    0    0 -0.18268963635E+02 -0.64650203193E+01  0.13580462366E+02  0.23663906658E+02  0.51100000000E-03 0. -1.
        -11    1    3    3    0    0 -0.69762779374E+01  0.57777180534E+01  0.71425330637E+01  0.11535434911E+02  0.51100000000E-03 0.  1.
        -12    1    3    3    0    0 -0.12443391535E+02  0.17378393801E+01  0.77320704122E+00  0.12587927857E+02  0.00000000000E+00 0.  1.
</event>
<event>
 7    1  0.4519225E-009  0.4778729E+02  0.7816164E-02  0.1312668E+00
        -11   -1    0    0    0    0  0.00000000000E+00  0.00000000000E+00  0.45593999997E+02  0.45594000000E+02  0.51100000000E-03 0.  1.
         11   -1    0    0    0    0 -0.00000000000E+00 -0.00000000000E+00 -0.45593999997E+02  0.45594000000E+02  0.51100000000E-03 0. -1.
    9900012    2    1    2    0    0 -0.19999085793E+02  0.27554650280E+02 -0.26914666752E+02  0.47787291815E+02  0.20000094701E+02 0.  0.
        -12    1    1    2    0    0  0.19999085793E+02 -0.27554650280E+02  0.26914666752E+02  0.43400708185E+02  0.00000000000E+00 0.  1.
         11    1    3    3    0    0 -0.13701972969E+02  0.19824943155E+02 -0.18800481824E+02  0.30565185283E+02  0.51100000000E-03 0. -1.
        -11    1    3    3    0    0 -0.90762470908E+01  0.33719150444E+01 -0.69652414868E+01  0.11927391230E+02  0.51100000000E-03 0.  1.
        -12    1    3    3    0    0  0.27791342671E+01  0.43577920813E+01 -0.11489434407E+01  0.52947153019E+01  0.00000000000E+00 0.  1.
</event>
<event>
 7    1  0.4519225E-009  0.4778727E+02  0.7816164E-02  0.1312668E+00
        -11   -1    0    0    0    0  0.00000000000E+00  0.00000000000E+00  0.45593999997E+02  0.45594000000E+02  0.51100000000E-03 0. -1.
         11   -1    0    0    0    0 -0.00000000000E+00 -0.00000000000E+00 -0.45593999997E+02  0.45594000000E+02  0.51100000000E-03 0.  1.
    9900012    2    1    2    0    0 -0.27507881933E+02  0.36853236697E+01  0.33367020322E+02  0.47787271617E+02  0.20000002610E+02 0.  0.
        -12    1    1    2    0    0  0.27507881933E+02 -0.36853236697E+01 -0.33367020322E+02  0.43400728383E+02  0.00000000000E+00 0.  1.
         11    1    3    3    0    0 -0.13346070460E+02  0.10328881840E+02  0.18467432428E+02  0.25016983382E+02  0.51100000000E-03 0. -1.
        -11    1    3    3    0    0 -0.81381370467E+01  0.30653538165E-01  0.59211794042E+01  0.10064322135E+02  0.51100000000E-03 0.  1.
        -12    1    3    3    0    0 -0.60236744266E+01 -0.66742117089E+01  0.89784084903E+01  0.12705966101E+02  0.00000000000E+00 0.  1.
</event>
<event>
 7    1  0.4519225E-009  0.4778728E+02  0.7816164E-02  0.1312668E+00
        -11   -1    0    0    0    0  0.00000000000E+00  0.00000000000E+00  0.45593999997E+02  0.45594000000E+02  0.51100000000E-03 0. -1.
         11   -1    0    0    0    0 -0.00000000000E+00 -0.00000000000E+00 -0.45593999997E+02  0.45594000000E+02  0.51100000000E-03 0.  1.
    9900012    2    1    2    0    0 -0.23531188614E+02  0.31366696733E+02  0.18602049209E+02  0.47787277238E+02  0.20000028237E+02 0.  0.
        -12    1    1    2    0    0  0.23531188614E+02 -0.31366696733E+02 -0.18602049209E+02  0.43400722762E+02  0.00000000000E+00 0.  1.
         11    1    3    3    0    0 -0.18182090146E+02  0.17144843347E+02  0.16267793980E+02  0.29819040506E+02  0.51100000000E-03 0. -1.
        -11    1    3    3    0    0 -0.14831069382E+01  0.73341074488E+01  0.56760733294E+01  0.93918340574E+01  0.51100000000E-03 0.  1.
        -12    1    3    3    0    0 -0.38659915299E+01  0.68877459380E+01 -0.33418181006E+01  0.85764026744E+01  0.00000000000E+00 0.  1.
</event>
<event>
 7    1  0.4519225E-009  0.4778727E+02  0.7816164E-02  0.1312668E+00
        -11   -1    0    0    0    0  0.00000000000E+00  0.00000000000E+00  0.45593999997E+02  0.45594000000E+02  0.51100000000E-03 0.  1.
         11   -1    0    0    0    0 -0.00000000000E+00 -0.00000000000E+00 -0.45593999997E+02  0.45594000000E+02  0.51100000000E-03 0. -1.
    9900012    2    1    2    0    0 -0.29881474811E+02 -0.26149522232E+02 -0.17519217290E+02  0.47787273920E+02  0.20000013110E+02 0.  0.
        -12    1    1    2    0    0  0.29881474811E+02  0.26149522232E+02  0.17519217290E+02  0.43400726080E+02  0.00000000000E+00 0.  1.
         11    1    3    3    0    0 -0.81466646913E+01 -0.58871594552E+01  0.24106067416E+01  0.10336238057E+02  0.51100000000E-03 0. -1.
        -11    1    3    3    0    0  0.69491424785E+00 -0.38553077068E+01 -0.25185805248E+01  0.46572042522E+01  0.51100000000E-03 0.  1.
         12    1    3    3    0    0 -0.22429724367E+02 -0.16407055070E+02 -0.17411243507E+02  0.32793831611E+02  0.00000000000E+00 0. -1.
</event>
<event>
 7    1  0.4519225E-009  0.4778727E+02  0.7816164E-02  0.1312668E+00
        -11   -1    0    0    0    0  0.00000000000E+00  0.00000000000E+00  0.45593999997E+02  0.45594000000E+02  0.51100000000E-03 0.  1.
         11   -1    0    0    0    0 -0.00000000000E+00 -0.00000000000E+00 -0.45593999997E+02  0.45594000000E+02  0.51100000000E-03 0. -1.
    9900012    2    1    2    0    0  0.98456291464E+01 -0.21181107541E+02 -0.36579334088E+02  0.47787269450E+02  0.19999992730E+02 0.  0.
        -12    1    1    2    0    0 -0.98456291464E+01  0.21181107541E+02  0.36579334088E+02  0.43400730550E+02  0.00000000000E+00 0.  1.
         11    1    3    3    0    0 -0.28154112622E+01 -0.20919926035E+01 -0.15303110035E+02  0.15699941103E+02  0.51100000000E-03 0. -1.
        -11    1    3    3    0    0  0.38981295755E+01 -0.16646847895E+01 -0.58294642713E+01  0.72075823677E+01  0.51100000000E-03 0.  1.
        -12    1    3    3    0    0  0.87629108331E+01 -0.17424430148E+02 -0.15446759782E+02  0.24879745979E+02  0.00000000000E+00 0.  1.
</event>
<event>
 7    1  0.4519225E-009  0.4778727E+02  0.7816164E-02  0.1312668E+00
        -11   -1    0    0    0    0  0.00000000000E+00  0.00000000000E+00  0.45593999997E+02  0.45594000000E+02  0.51100000000E-03 0.  1.
         11   -1    0    0    0    0 -0.00000000000E+00 -0.00000000000E+00 -0.45593999997E+02  0.45594000000E+02  0.51100000000E-03 0. -1.
    9900012    2    1    2    0    0 -0.14378675638E+02 -0.38153653453E+02 -0.14871975755E+02  0.47787271345E+02  0.20000001371E+02 0.  0.
        -12    1    1    2    0    0  0.14378675638E+02  0.38153653453E+02  0.14871975755E+02  0.43400728655E+02  0.00000000000E+00 0.  1.
         11    1    3    3    0    0  0.32637142109E+01 -0.70249207554E+01 -0.49891960131E+01  0.92137624881E+01  0.51100000000E-03 0. -1.
        -11    1    3    3    0    0 -0.37193866584E+01 -0.14828013697E+02 -0.85062344173E+00  0.15311021776E+02  0.51100000000E-03 0.  1.
        -12    1    3    3    0    0 -0.13923003190E+02 -0.16300719001E+02 -0.90321562998E+01  0.23262487081E+02  0.00000000000E+00 0.  1.
</event>
<event>
 7    1  0.4519225E-009  0.4778727E+02  0.7816164E-02  0.1312668E+00
        -11   -1    0    0    0    0  0.00000000000E+00  0.00000000000E+00  0.45593999997E+02  0.45594000000E+02  0.51100000000E-03 0. -1.
         11   -1    0    0    0    0 -0.00000000000E+00 -0.00000000000E+00 -0.45593999997E+02  0.45594000000E+02  0.51100000000E-03 0.  1.
    9900012    2    1    2    0    0  0.10501646448E+02 -0.28829909594E+02  0.30694866739E+02  0.47787272938E+02  0.20000008635E+02 0.  0.
        -12    1    1    2    0    0 -0.10501646448E+02  0.28829909594E+02 -0.30694866739E+02  0.43400727062E+02  0.00000000000E+00 0.  1.
         11    1    3    3    0    0 -0.14378325170E+01 -0.98164862874E+01  0.72409513203E+01  0.12282595070E+02  0.51100000000E-03 0. -1.
        -11    1    3    3    0    0 -0.33125321812E+01 -0.41924955181E+01  0.55595982211E+01  0.77109675633E+01  0.51100000000E-03 0.  1.
        -12    1    3    3    0    0  0.15252011146E+02 -0.14820927789E+02  0.17894317198E+02  0.27793710305E+02  0.00000000000E+00 0.  1.
</event>
<event>
 7    1  0.4519225E-009  0.4778728E+02  0.7816164E-02  0.1312668E+00
        -11   -1    0    0    0    0  0.00000000000E+00  0.00000000000E+00  0.45593999997E+02  0.45594000000E+02  0.51100000000E-03 0. -1.
         11   -1    0    0    0    0 -0.00000000000E+00 -0.00000000000E+00 -0.45593999997E+02  0.45594000000E+02  0.51100000000E-03 0.  1.
    9900012    2    1    2    0    0 -0.19573712105E+02 -0.38697858838E+02  0.17228461163E+01  0.47787277853E+02  0.20000031041E+02 0.  0.
        -12    1    1    2    0    0  0.19573712105E+02  0.38697858838E+02 -0.17228461163E+01  0.43400722147E+02  0.00000000000E+00 0.  1.
         11    1    3    3    0    0 -0.97690309977E+00 -0.31182859554E+01  0.10118904451E+01  0.34208141575E+01  0.51100000000E-03 0. -1.
        -11    1    3    3    0    0 -0.19269692011E+02 -0.17099659940E+02 -0.10972618669E+01  0.25786108356E+02  0.51100000000E-03 0.  1.
        -12    1    3    3    0    0  0.67288300555E+00 -0.18479912942E+02  0.18082175380E+01  0.18580355339E+02  0.00000000000E+00 0.  1.
</event>
<event>
 7    1  0.4519225E-009  0.4778728E+02  0.7816164E-02  0.1312668E+00
        -11   -1    0    0    0    0  0.00000000000E+00  0.00000000000E+00  0.45593999997E+02  0.45594000000E+02  0.51100000000E-03 0.  1.
         11   -1    0    0    0    0 -0.00000000000E+00 -0.00000000000E+00 -0.45593999997E+02  0.45594000000E+02  0.51100000000E-03 0. -1.
    9900012    2    1    2    0    0 -0.29629322878E+02 -0.15957098402E+02 -0.27406147837E+02  0.47787277623E+02  0.20000029993E+02 0.  0.
        -12    1    1    2    0    0  0.29629322878E+02  0.15957098402E+02  0.27406147837E+02  0.43400722377E+02  0.00000000000E+00 0.  1.
         11    1    3    3    0    0 -0.14052560612E+02 -0.83235049649E+01 -0.16244577731E+02  0.23035657155E+02  0.51100000000E-03 0. -1.
        -11    1    3    3    0    0 -0.14554287045E+02 -0.10919371866E+02 -0.73692581217E+01  0.19630739132E+02  0.51100000000E-03 0.  1.
         12    1    3    3    0    0 -0.10224752209E+01  0.32857784294E+01 -0.37923119843E+01  0.51208813354E+01  0.00000000000E+00 0. -1.
</event>
<event>
 7    1  0.4519225E-009  0.4778727E+02  0.7816164E-02  0.1312668E+00
        -11   -1    0    0    0    0  0.00000000000E+00  0.00000000000E+00  0.45593999997E+02  0.45594000000E+02  0.51100000000E-03 0.  1.
         11   -1    0    0    0    0 -0.00000000000E+00 -0.00000000000E+00 -0.45593999997E+02  0.45594000000E+02  0.51100000000E-03 0. -1.
    9900012    2    1    2    0    0  0.16175091913E+02 -0.27447721854E+01 -0.40180296097E+02  0.47787267665E+02  0.19999984593E+02 0.  0.
        -12    1    1    2    0    0 -0.16175091913E+02  0.27447721854E+01  0.40180296097E+02  0.43400732335E+02  0.00000000000E+00 0.  1.
         11    1    3    3    0    0  0.83590902663E+01  0.71242775768E+01 -0.11766712889E+02  0.16096125420E+02  0.51100000000E-03 0. -1.
        -11    1    3    3    0    0  0.19758788521E+01 -0.29097202970E+01 -0.27430821059E+01  0.44603889007E+01  0.51100000000E-03 0.  1.
         12    1    3    3    0    0  0.58401227948E+01 -0.69593294652E+01 -0.25670501103E+02  0.27230753345E+02  0.00000000000E+00 0. -1.
</event>
<event>
 7    1  0.4519225E-009  0.4778727E+02  0.7816164E-02  0.1312668E+00
        -11   -1    0    0    0    0  0.00000000000E+00  0.00000000000E+00  0.45593999997E+02  0.45594000000E+02  0.51100000000E-03 0.  1.
         11   -1    0    0    0    0 -0.00000000000E+00 -0.00000000000E+00 -0.45593999997E+02  0.45594000000E+02  0.51100000000E-03 0. -1.
    9900012    2    1    2    0    0 -0.23610479919E+02  0.36190559942E+02 -0.40511519951E+01  0.47787271626E+02  0.20000002651E+02 0.  0.
        -12    1    1    2    0    0  0.23610479919E+02 -0.36190559942E+02  0.40511519951E+01  0.43400728374E+02  0.00000000000E+00 0.  1.
         11    1    3    3    0    0 -0.99704908261E+01  0.13043336045E+02  0.35011078203E+01  0.16786812048E+02  0.51100000000E-03 0. -1.
        -11    1    3    3    0    0 -0.55778340895E+01  0.20632326777E+02 -0.35920689810E+01  0.21672750199E+02  0.51100000000E-03 0.  1.
         12    1    3    3    0    0 -0.80621550030E+01  0.25148971203E+01 -0.39601908345E+01  0.93277093793E+01  0.00000000000E+00 0. -1.
</event>
<event>
 7    1  0.4519225E-009  0.4778727E+02  0.7816164E-02  0.1312668E+00
        -11   -1    0    0    0    0  0.00000000000E+00  0.00000000000E+00  0.45593999997E+02  0.45594000000E+02  0.51100000000E-03 0.  1.
         11   -1    0    0    0    0 -0.00000000000E+00 -0.00000000000E+00 -0.45593999997E+02  0.45594000000E+02  0.51100000000E-03 0. -1.
    9900012    2    1    2    0    0  0.23597476409E+02 -0.34315365681E+02  0.12216298294E+02  0.47787272371E+02  0.20000006050E+02 0.  0.
        -12    1    1    2    0    0 -0.23597476409E+02  0.34315365681E+02 -0.12216298294E+02  0.43400727629E+02  0.00000000000E+00 0.  1.
         11    1    3    3    0    0  0.56772021785E+01 -0.80243765616E+01  0.51313879383E+01  0.11088389703E+02  0.51100000000E-03 0. -1.
        -11    1    3    3    0    0  0.13430826606E+02 -0.53333522965E+01  0.13629796868E+01  0.14515146018E+02  0.51100000000E-03 0.  1.
         12    1    3    3    0    0  0.44894476247E+01 -0.20957636822E+02  0.57219306693E+01  0.22183736650E+02  0.00000000000E+00 0. -1.
</event>
<event>
 7    1  0.4519225E-009  0.4778727E+02  0.7816164E-02  0.1312668E+00
        -11   -1    0    0    0    0  0.00000000000E+00  0.00000000000E+00  0.45593999997E+02  0.45594000000E+02  0.51100000000E-03 0.  1.
         11   -1    0    0    0    0 -0.00000000000E+00 -0.00000000000E+00 -0.45593999997E+02  0.45594000000E+02  0.51100000000E-03 0. -1.
    9900012    2    1    2    0    0 -0.12786843698E+02  0.28446216883E+02 -0.30181660122E+02  0.47787271499E+02  0.20000002071E+02 0.  0.
        -12    1    1    2    0    0  0.12786843698E+02 -0.28446216883E+02  0.30181660122E+02  0.43400728501E+02  0.00000000000E+00 0.  1.
         11    1    3    3    0    0  0.33088325922E+01  0.57445042115E+01 -0.86510764962E+01  0.10899028698E+02  0.51100000000E-03 0. -1.
        -11    1    3    3    0    0 -0.58847729401E+01  0.10558657875E+01 -0.35507000466E+01  0.69536232425E+01  0.51100000000E-03 0.  1.
         12    1    3    3    0    0 -0.10210903350E+02  0.21645846884E+02 -0.17979883579E+02  0.29934619558E+02  0.00000000000E+00 0. -1.
</event>
<event>
 7    1  0.4519225E-009  0.4778727E+02  0.7816164E-02  0.1312668E+00
        -11   -1    0    0    0    0  0.00000000000E+00  0.00000000000E+00  0.45593999997E+02  0.45594000000E+02  0.51100000000E-03 0.  1.
         11   -1    0    0    0    0 -0.00000000000E+00 -0.00000000000E+00 -0.45593999997E+02  0.45594000000E+02  0.51100000000E-03 0. -1.
    9900012    2    1    2    0    0  0.25506018959E+02  0.49444649605E+01 -0.34765194014E+02  0.47787268996E+02  0.19999990659E+02 0.  0.
        -12    1    1    2    0    0 -0.25506018959E+02 -0.49444649605E+01  0.34765194014E+02  0.43400731004E+02  0.00000000000E+00 0.  1.
         11    1    3    3    0    0  0.18110528295E+01  0.19081851331E+01 -0.18340040508E+01  0.32069695934E+01  0.51100000000E-03 0. -1.
        -11    1    3    3    0    0  0.96766572086E+00 -0.30009202078E+01  0.99041105641E+00  0.33049679821E+01  0.51100000000E-03 0.  1.
         12    1    3    3    0    0  0.22727300408E+02  0.60372000352E+01 -0.33921601020E+02  0.41275331420E+02  0.00000000000E+00 0. -1.
</event>
<event>
 7    1  0.4519225E-009  0.4778727E+02  0.7816164E-02  0.1312668E+00
        -11   -1    0    0    0    0  0.00000000000E+00  0.00000000000E+00  0.45593999997E+02  0.45594000000E+02  0.51100000000E-03 0.  1.
         11   -1    0    0    0    0 -0.00000000000E+00 -0.00000000000E+00 -0.45593999997E+02  0.45594000000E+02  0.51100000000E-03 0. -1.
    9900012    2    1    2    0    0  0.32815682836E+02  0.28292127420E+02 -0.25118756171E+01  0.47787273819E+02  0.20000012648E+02 0.  0.
        -12    1    1    2    0    0 -0.32815682836E+02 -0.28292127420E+02  0.25118756171E+01  0.43400726181E+02  0.00000000000E+00 0.  1.
         11    1    3    3    0    0  0.12004530606E+01  0.13218282110E+01  0.25910930199E+01  0.31467571672E+01  0.51100000000E-03 0. -1.
        -11    1    3    3    0    0  0.29367256359E+02  0.17042767109E+02 -0.20606797684E+01  0.34016732032E+02  0.51100000000E-03 0.  1.
         12    1    3    3    0    0  0.22479734168E+01  0.99275320997E+01 -0.30422888686E+01  0.10623784619E+02  0.00000000000E+00 0. -1.
</event>
<event>
 7    1  0.4519225E-009  0.4778727E+02  0.7816164E-02  0.1312668E+00
        -11   -1    0    0    0    0  0.00000000000E+00  0.00000000000E+00  0.45593999997E+02  0.45594000000E+02  0.51100000000E-03 0.  1.
         11   -1    0    0    0    0 -0.00000000000E+00 -0.00000000000E+00 -0.45593999997E+02  0.45594000000E+02  0.51100000000E-03 0. -1.
    9900012    2    1    2    0    0  0.17215881705E+02 -0.20710545126E+02 -0.34033956883E+02  0.47787268630E+02  0.19999988993E+02 0.  0.
        -12    1    1    2    0    0 -0.17215881705E+02  0.20710545126E+02  0.34033956883E+02  0.43400731370E+02  0.00000000000E+00 0.  1.
         11    1    3    3    0    0 -0.93427375542E+00 -0.69712374956E+00  0.94157185360E+00  0.14984681474E+01  0.51100000000E-03 0. -1.
        -11    1    3    3    0    0 -0.20310067615E+01 -0.22720022885E+00 -0.27361655271E+01  0.34151442812E+01  0.51100000000E-03 0.  1.
         12    1    3    3    0    0  0.20181162222E+02 -0.19786221147E+02 -0.32239363210E+02  0.42873656202E+02  0.00000000000E+00 0. -1.
</event>
<event>
 7    1  0.4519225E-009  0.4778727E+02  0.7816164E-02  0.1312668E+00
        -11   -1    0    0    0    0  0.00000000000E+00  0.00000000000E+00  0.45593999997E+02  0.45594000000E+02  0.51100000000E-03 0.  1.
         11   -1    0    0    0    0 -0.00000000000E+00 -0.00000000000E+00 -0.45593999997E+02  0.45594000000E+02  0.51100000000E-03 0. -1.
    9900012    2    1    2    0    0 -0.15971354823E+02 -0.39045475569E+02 -0.10197567693E+02  0.47787265857E+02  0.19999976349E+02 0.  0.
        -12    1    1    2    0    0  0.15971354823E+02  0.39045475569E+02  0.10197567693E+02  0.43400734143E+02  0.00000000000E+00 0.  1.
         11    1    3    3    0    0 -0.14900606535E+01  0.20731909571E+01 -0.16076763832E+01  0.30171219912E+01  0.51100000000E-03 0.  1.
        -11    1    3    3    0    0 -0.22521242515E+00 -0.24241532770E+01 -0.16802763574E+01  0.29581360085E+01  0.51100000000E-03 0. -1.
        -12    1    3    3    0    0 -0.14256081745E+02 -0.38694513249E+02 -0.69096149527E+01  0.41812007857E+02  0.00000000000E+00 0.  1.
</event>
<event>
 7    1  0.4519225E-009  0.4778727E+02  0.7816164E-02  0.1312668E+00
        -11   -1    0    0    0    0  0.00000000000E+00  0.00000000000E+00  0.45593999997E+02  0.45594000000E+02  0.51100000000E-03 0.  1.
         11   -1    0    0    0    0 -0.00000000000E+00 -0.00000000000E+00 -0.45593999997E+02  0.45594000000E+02  0.51100000000E-03 0. -1.
    9900012    2    1    2    0    0 -0.83528660784E+01 -0.17417325699E+02 -0.38865017526E+02  0.47787271970E+02  0.20000004220E+02 0.  0.
        -12    1    1    2    0    0  0.83528660784E+01  0.17417325699E+02  0.38865017526E+02  0.43400728030E+02  0.00000000000E+00 0.  1.
         11    1    3    3    0    0 -0.13281499696E+01 -0.50758384149E+01 -0.89281492780E+01  0.10355673216E+02  0.51100000000E-03 0. -1.
        -11    1    3    3    0    0 -0.11200665987E+02 -0.24127952432E+01 -0.18155725323E+02  0.21468741502E+02  0.51100000000E-03 0.  1.
        -12    1    3    3    0    0  0.41759498779E+01 -0.99286920411E+01 -0.11781142925E+02  0.15962857252E+02  0.00000000000E+00 0.  1.
</event>
<event>
 7    1  0.4519225E-009  0.4778727E+02  0.7816164E-02  0.1312668E+00
        -11   -1    0    0    0    0  0.00000000000E+00  0.00000000000E+00  0.45593999997E+02  0.45594000000E+02  0.51100000000E-03 0. -1.
         11   -1    0    0    0    0 -0.00000000000E+00 -0.00000000000E+00 -0.45593999997E+02  0.45594000000E+02  0.51100000000E-03 0.  1.
    9900012    2    1    2    0    0 -0.18947526752E+02  0.38982842038E+02  0.22254682010E+01  0.47787268991E+02  0.19999990638E+02 0.  0.
        -12    1    1    2    0    0  0.18947526752E+02 -0.38982842038E+02 -0.22254682010E+01  0.43400731009E+02  0.00000000000E+00 0.  1.
         11    1    3    3    0    0 -0.23436123899E+01  0.13494188534E+02  0.91704889925E-01  0.13696497847E+02  0.51100000000E-03 0. -1.
        -11    1    3    3    0    0 -0.66889075892E+01  0.87106320744E+01 -0.65145726478E+01  0.12769348179E+02  0.51100000000E-03 0.  1.
         12    1    3    3    0    0 -0.99150067731E+01  0.16778021430E+02  0.86483359589E+01  0.21321422966E+02  0.00000000000E+00 0. -1.
</event>
<event>
 7    1  0.4519225E-009  0.4778730E+02  0.7816164E-02  0.1312668E+00
        -11   -1    0    0    0    0  0.00000000000E+00  0.00000000000E+00  0.45593999997E+02  0.45594000000E+02  0.51100000000E-03 0. -1.
         11   -1    0    0    0    0 -0.00000000000E+00 -0.00000000000E+00 -0.45593999997E+02  0.45594000000E+02  0.51100000000E-03 0.  1.
    9900012    2    1    2    0    0 -0.29616149072E+02  0.39347924372E+01  0.31480504079E+02  0.47787297074E+02  0.20000118680E+02 0.  0.
        -12    1    1    2    0    0  0.29616149072E+02 -0.39347924372E+01 -0.31480504079E+02  0.43400702926E+02  0.00000000000E+00 0.  1.
         11    1    3    3    0    0 -0.13728725169E+01 -0.26533124729E+01  0.88588430599E+01  0.93490077895E+01  0.51100000000E-03 0. -1.
        -11    1    3    3    0    0 -0.57177170712E+01 -0.21685321459E+01  0.84214943303E+01  0.10407515899E+02  0.51100000000E-03 0.  1.
         12    1    3    3    0    0 -0.22525559484E+02  0.87566370561E+01  0.14200166688E+02  0.28030773386E+02  0.00000000000E+00 0. -1.
</event>
<event>
 7    1  0.4519225E-009  0.4778727E+02  0.7816164E-02  0.1312668E+00
        -11   -1    0    0    0    0  0.00000000000E+00  0.00000000000E+00  0.45593999997E+02  0.45594000000E+02  0.51100000000E-03 0.  1.
         11   -1    0    0    0    0 -0.00000000000E+00 -0.00000000000E+00 -0.45593999997E+02  0.45594000000E+02  0.51100000000E-03 0. -1.
    9900012    2    1    2    0    0 -0.35332835646E+02  0.13153723940E+02 -0.21498693883E+02  0.47787267668E+02  0.19999984607E+02 0.  0.
        -12    1    1    2    0    0  0.35332835646E+02 -0.13153723940E+02  0.21498693883E+02  0.43400732332E+02  0.00000000000E+00 0.  1.
         11    1    3    3    0    0 -0.94186082851E+01  0.10202077637E+02 -0.79899588954E+01  0.16019738248E+02  0.51100000000E-03 0. -1.
        -11    1    3    3    0    0 -0.24901042386E+01  0.12321989447E+01 -0.67928862807E+01  0.73390897012E+01  0.51100000000E-03 0.  1.
         12    1    3    3    0    0 -0.23424123122E+02  0.17194473585E+01 -0.67158487068E+01  0.24428439719E+02  0.00000000000E+00 0. -1.
</event>
<event>
 7    1  0.4519225E-009  0.4778727E+02  0.7816164E-02  0.1312668E+00
        -11   -1    0    0    0    0  0.00000000000E+00  0.00000000000E+00  0.45593999997E+02  0.45594000000E+02  0.51100000000E-03 0.  1.
         11   -1    0    0    0    0 -0.00000000000E+00 -0.00000000000E+00 -0.45593999997E+02  0.45594000000E+02  0.51100000000E-03 0. -1.
    9900012    2    1    2    0    0  0.12110307451E+02 -0.45786313000E+01 -0.41424632456E+02  0.47787267458E+02  0.19999983646E+02 0.  0.
        -12    1    1    2    0    0 -0.12110307451E+02  0.45786313000E+01  0.41424632456E+02  0.43400732542E+02  0.00000000000E+00 0.  1.
         11    1    3    3    0    0  0.62556085174E+01 -0.73362335107E+01 -0.10392711260E+02  0.14176085766E+02  0.51100000000E-03 0. -1.
        -11    1    3    3    0    0  0.17394958346E+01 -0.42017537731E+01 -0.80107340601E+01  0.92115384693E+01  0.51100000000E-03 0.  1.
        -12    1    3    3    0    0  0.41152030989E+01  0.69593559837E+01 -0.23021187135E+02  0.24399643222E+02  0.00000000000E+00 0.  1.
</event>
<event>
 7    1  0.4519225E-009  0.4778727E+02  0.7816164E-02  0.1312668E+00
        -11   -1    0    0    0    0  0.00000000000E+00  0.00000000000E+00  0.45593999997E+02  0.45594000000E+02  0.51100000000E-03 0.  1.
         11   -1    0    0    0    0 -0.00000000000E+00 -0.00000000000E+00 -0.45593999997E+02  0.45594000000E+02  0.51100000000E-03 0. -1.
    9900012    2    1    2    0    0  0.21678946360E+02  0.50657011835E+00 -0.37595078341E+02  0.47787271388E+02  0.20000001567E+02 0.  0.
        -12    1    1    2    0    0 -0.21678946360E+02 -0.50657011835E+00  0.37595078341E+02  0.43400728612E+02  0.00000000000E+00 0.  1.
         11    1    3    3    0    0 -0.20154695902E+01  0.33964390903E+01 -0.48269166393E+01  0.62367492067E+01  0.51100000000E-03 0. -1.
        -11    1    3    3    0    0  0.15049925488E+01  0.15389743583E-01 -0.81217718412E+01  0.82600494864E+01  0.51100000000E-03 0.  1.
        -12    1    3    3    0    0  0.22189423402E+02 -0.29052587155E+01 -0.24646389861E+02  0.33290472695E+02  0.00000000000E+00 0.  1.
</event>
<event>
 7    1  0.4519225E-009  0.4778727E+02  0.7816164E-02  0.1312668E+00
        -11   -1    0    0    0    0  0.00000000000E+00  0.00000000000E+00  0.45593999997E+02  0.45594000000E+02  0.51100000000E-03 0. -1.
         11   -1    0    0    0    0 -0.00000000000E+00 -0.00000000000E+00 -0.45593999997E+02  0.45594000000E+02  0.51100000000E-03 0.  1.
    9900012    2    1    2    0    0 -0.22218073161E+02  0.86750544549E+01  0.36259120312E+02  0.47787272465E+02  0.20000006475E+02 0.  0.
        -12    1    1    2    0    0  0.22218073161E+02 -0.86750544549E+01 -0.36259120312E+02  0.43400727535E+02  0.00000000000E+00 0.  1.
         11    1    3    3    0    0 -0.10023102228E+02  0.34811883717E+00  0.15514103219E+02  0.18473526030E+02  0.51100000000E-03 0. -1.
        -11    1    3    3    0    0 -0.11613515195E+02  0.21502237631E+01  0.19776034391E+02  0.23034511801E+02  0.51100000000E-03 0.  1.
        -12    1    3    3    0    0 -0.58145573774E+00  0.61767118546E+01  0.96898270154E+00  0.62792346338E+01  0.00000000000E+00 0.  1.
</event>
<event>
 7    1  0.4519225E-009  0.4778727E+02  0.7816164E-02  0.1312668E+00
        -11   -1    0    0    0    0  0.00000000000E+00  0.00000000000E+00  0.45593999997E+02  0.45594000000E+02  0.51100000000E-03 0. -1.
         11   -1    0    0    0    0 -0.00000000000E+00 -0.00000000000E+00 -0.45593999997E+02  0.45594000000E+02  0.51100000000E-03 0.  1.
    9900012    2    1    2    0    0 -0.32904597154E+02 -0.75931568213E+01 -0.27262701140E+02  0.47787269386E+02  0.19999992438E+02 0.  0.
        -12    1    1    2    0    0  0.32904597154E+02  0.75931568213E+01  0.27262701140E+02  0.43400730614E+02  0.00000000000E+00 0.  1.
         11    1    3    3    0    0 -0.72924379208E+01 -0.22220261864E+01 -0.53231694787E+01  0.92980204755E+01  0.51100000000E-03 0. -1.
        -11    1    3    3    0    0 -0.25076752888E+01  0.44214750138E+01  0.10994099888E+00  0.50842859810E+01  0.51100000000E-03 0.  1.
        -12    1    3    3    0    0 -0.23104483944E+02 -0.97926056487E+01 -0.22049472660E+02  0.33404962930E+02  0.00000000000E+00 0.  1.
</event>
<event>
 7    1  0.4519225E-009  0.4778724E+02  0.7816164E-02  0.1312668E+00
        -11   -1    0    0    0    0  0.00000000000E+00  0.00000000000E+00  0.45593999997E+02  0.45594000000E+02  0.51100000000E-03 0. -1.
         11   -1    0    0    0    0 -0.00000000000E+00 -0.00000000000E+00 -0.45593999997E+02  0.45594000000E+02  0.51100000000E-03 0.  1.
    9900012    2    1    2    0    0 -0.20950205422E+02  0.33261650926E+02  0.18395036374E+02  0.47787240874E+02  0.19999862439E+02 0.  0.
        -12    1    1    2    0    0  0.20950205422E+02 -0.33261650926E+02 -0.18395036374E+02  0.43400759126E+02  0.00000000000E+00 0.  1.
         11    1    3    3    0    0 -0.51302631129E+01  0.16026968271E+02  0.36684484646E+01  0.17223264091E+02  0.51100000000E-03 0. -1.
        -11    1    3    3    0    0 -0.10240660939E+02  0.16999608856E+02  0.15144324721E+02  0.24964142470E+02  0.51100000000E-03 0.  1.
        -12    1    3    3    0    0 -0.55792813692E+01  0.23507379939E+00 -0.41773681096E+00  0.55998343128E+01  0.00000000000E+00 0.  1.
</event>
<event>
 7    1  0.4519225E-009  0.4778727E+02  0.7816164E-02  0.1312668E+00
        -11   -1    0    0    0    0  0.00000000000E+00  0.00000000000E+00  0.45593999997E+02  0.45594000000E+02  0.51100000000E-03 0.  1.
         11   -1    0    0    0    0 -0.00000000000E+00 -0.00000000000E+00 -0.45593999997E+02  0.45594000000E+02  0.51100000000E-03 0. -1.
    9900012    2    1    2    0    0 -0.17549813296E+02 -0.14939368142E+02 -0.36775569805E+02  0.47787271876E+02  0.20000003793E+02 0.  0.
        -12    1    1    2    0    0  0.17549813296E+02  0.14939368142E+02  0.36775569805E+02  0.43400728124E+02  0.00000000000E+00 0.  1.
         11    1    3    3    0    0  0.37308609452E+01 -0.66286286413E+00 -0.53498129378E+01  0.65558530566E+01  0.51100000000E-03 0. -1.
        -11    1    3    3    0    0 -0.43576811421E+01 -0.52538417056E+01 -0.45064600834E+01  0.81792677147E+01  0.51100000000E-03 0.  1.
         12    1    3    3    0    0 -0.16922993099E+02 -0.90226635727E+01 -0.26919296783E+02  0.33052151105E+02  0.00000000000E+00 0. -1.
</event>
<event>
 7    1  0.4519225E-009  0.4778727E+02  0.7816164E-02  0.1312668E+00
        -11   -1    0    0    0    0  0.00000000000E+00  0.00000000000E+00  0.45593999997E+02  0.45594000000E+02  0.51100000000E-03 0. -1.
         11   -1    0    0    0    0 -0.00000000000E+00 -0.00000000000E+00 -0.45593999997E+02  0.45594000000E+02  0.51100000000E-03 0.  1.
    9900012    2    1    2    0    0 -0.54673272758E+01 -0.41635944814E+02 -0.10962668537E+02  0.47787266486E+02  0.19999979217E+02 0.  0.
        -12    1    1    2    0    0  0.54673272758E+01  0.41635944814E+02  0.10962668537E+02  0.43400733514E+02  0.00000000000E+00 0.  1.
         11    1    3    3    0    0  0.78577182260E+00 -0.16921848940E+02 -0.20367663883E+01  0.17062087401E+02  0.51100000000E-03 0. -1.
        -11    1    3    3    0    0  0.33219744728E+01 -0.68315509619E+01 -0.70332710823E+01  0.10352415434E+02  0.51100000000E-03 0.  1.
         12    1    3    3    0    0 -0.95750735711E+01 -0.17882544912E+02 -0.18926310664E+01  0.20372763651E+02  0.00000000000E+00 0. -1.
</event>
<event>
 7    1  0.4519225E-009  0.4778728E+02  0.7816164E-02  0.1312668E+00
        -11   -1    0    0    0    0  0.00000000000E+00  0.00000000000E+00  0.45593999997E+02  0.45594000000E+02  0.51100000000E-03 0. -1.
         11   -1    0    0    0    0 -0.00000000000E+00 -0.00000000000E+00 -0.45593999997E+02  0.45594000000E+02  0.51100000000E-03 0.  1.
    9900012    2    1    2    0    0  0.36698801905E+02  0.44191006004E+00  0.23165178600E+02  0.47787275982E+02  0.20000022512E+02 0.  0.
        -12    1    1    2    0    0 -0.36698801905E+02 -0.44191006004E+00 -0.23165178600E+02  0.43400724018E+02  0.00000000000E+00 0.  1.
         11    1    3    3    0    0  0.18745484373E+02  0.59269474445E+01  0.94247563871E+01  0.21802475171E+02  0.51100000000E-03 0. -1.
        -11    1    3    3    0    0  0.78987950124E+01  0.26002715554E+01  0.20283699824E+01  0.85595946082E+01  0.51100000000E-03 0.  1.
        -12    1    3    3    0    0  0.10054522520E+02 -0.80853089399E+01  0.11712052230E+02  0.17425206202E+02  0.00000000000E+00 0.  1.
</event>
<event>
 7    1  0.4519225E-009  0.4778727E+02  0.7816164E-02  0.1312668E+00
        -11   -1    0    0    0    0  0.00000000000E+00  0.00000000000E+00  0.45593999997E+02  0.45594000000E+02  0.51100000000E-03 0.  1.
         11   -1    0    0    0    0 -0.00000000000E+00 -0.00000000000E+00 -0.45593999997E+02  0.45594000000E+02  0.51100000000E-03 0. -1.
    9900012    2    1    2    0    0 -0.29250795118E+02  0.31747326602E+02  0.44857402695E+01  0.47787266975E+02  0.19999981444E+02 0.  0.
        -12    1    1    2    0    0  0.29250795118E+02 -0.31747326602E+02 -0.44857402695E+01  0.43400733025E+02  0.00000000000E+00 0.  1.
         11    1    3    3    0    0 -0.25926170066E+02  0.21273038332E+02  0.84886240265E+01  0.34594294216E+02  0.51100000000E-03 0. -1.
        -11    1    3    3    0    0  0.53030199819E+00 -0.61647638350E+00 -0.98010108949E-01  0.81906628747E+00  0.51100000000E-03 0.  1.
         12    1    3    3    0    0 -0.38549270496E+01  0.11090764653E+02 -0.39048736480E+01  0.12373906471E+02  0.00000000000E+00 0. -1.
</event>
<event>
 7    1  0.4519225E-009  0.4778727E+02  0.7816164E-02  0.1312668E+00
        -11   -1    0    0    0    0  0.00000000000E+00  0.00000000000E+00  0.45593999997E+02  0.45594000000E+02  0.51100000000E-03 0.  1.
         11   -1    0    0    0    0 -0.00000000000E+00 -0.00000000000E+00 -0.45593999997E+02  0.45594000000E+02  0.51100000000E-03 0. -1.
    9900012    2    1    2    0    0 -0.37476283211E+02  0.82946524860E+01 -0.20257100170E+02  0.47787272236E+02  0.20000005431E+02 0.  0.
        -12    1    1    2    0    0  0.37476283211E+02 -0.82946524860E+01  0.20257100170E+02  0.43400727764E+02  0.00000000000E+00 0.  1.
         11    1    3    3    0    0 -0.97754099247E+01  0.50876267376E+01 -0.12314169200E+02  0.16525173172E+02  0.51100000000E-03 0. -1.
        -11    1    3    3    0    0 -0.12743579222E+02  0.71979278105E+01 -0.52503030847E+01  0.15549104762E+02  0.51100000000E-03 0.  1.
        -12    1    3    3    0    0 -0.14957294064E+02 -0.39909020621E+01 -0.26926278856E+01  0.15712994302E+02  0.00000000000E+00 0.  1.
</event>
<event>
 7    1  0.4519225E-009  0.4778725E+02  0.7816164E-02  0.1312668E+00
        -11   -1    0    0    0    0  0.00000000000E+00  0.00000000000E+00  0.45593999997E+02  0.45594000000E+02  0.51100000000E-03 0.  1.
         11   -1    0    0    0    0 -0.00000000000E+00 -0.00000000000E+00 -0.45593999997E+02  0.45594000000E+02  0.51100000000E-03 0. -1.
    9900012    2    1    2    0    0 -0.39610625061E+02  0.16129167339E+02 -0.73805936132E+01  0.47787253245E+02  0.19999918844E+02 0.  0.
        -12    1    1    2    0    0  0.39610625061E+02 -0.16129167339E+02  0.73805936132E+01  0.43400746755E+02  0.00000000000E+00 0.  1.
         11    1    3    3    0    0 -0.28734924481E+02  0.65575294593E+01 -0.90301517073E+01  0.30825974724E+02  0.51100000000E-03 0. -1.
        -11    1    3    3    0    0 -0.88912661833E+01  0.20834412074E+01  0.75951546022E+00  0.91636349558E+01  0.51100000000E-03 0.  1.
        -12    1    3    3    0    0 -0.19844343971E+01  0.74881966726E+01  0.89004263387E+00  0.77976435655E+01  0.00000000000E+00 0.  1.
</event>
<event>
 7    1  0.4519225E-009  0.4778728E+02  0.7816164E-02  0.1312668E+00
        -11   -1    0    0    0    0  0.00000000000E+00  0.00000000000E+00  0.45593999997E+02  0.45594000000E+02  0.51100000000E-03 0.  1.
         11   -1    0    0    0    0 -0.00000000000E+00 -0.00000000000E+00 -0.45593999997E+02  0.45594000000E+02  0.51100000000E-03 0. -1.
    9900012    2    1    2    0    0 -0.13441285104E+02  0.40618183790E+02 -0.72881864491E+01  0.47787278101E+02  0.20000032172E+02 0.  0.
        -12    1    1    2    0    0  0.13441285104E+02 -0.40618183790E+02  0.72881864491E+01  0.43400721899E+02  0.00000000000E+00 0.  1.
         11    1    3    3    0    0 -0.90773791333E+01  0.36537874249E+02 -0.92218931338E+01  0.38761558016E+02  0.51100000000E-03 0. -1.
        -11    1    3    3    0    0 -0.32273454921E+01  0.57922183499E+01  0.79963146617E+00  0.66786947139E+01  0.51100000000E-03 0.  1.
         12    1    3    3    0    0 -0.11365604781E+01 -0.17119088087E+01  0.11340752186E+01  0.23470253708E+01  0.00000000000E+00 0. -1.
</event>
<event>
 7    1  0.4519225E-009  0.4778727E+02  0.7816164E-02  0.1312668E+00
        -11   -1    0    0    0    0  0.00000000000E+00  0.00000000000E+00  0.45593999997E+02  0.45594000000E+02  0.51100000000E-03 0. -1.
         11   -1    0    0    0    0 -0.00000000000E+00 -0.00000000000E+00 -0.45593999997E+02  0.45594000000E+02  0.51100000000E-03 0.  1.
    9900012    2    1    2    0    0  0.11532806041E+02  0.39756198671E+02  0.13040801835E+02  0.47787268895E+02  0.19999990200E+02 0.  0.
        -12    1    1    2    0    0 -0.11532806041E+02 -0.39756198671E+02 -0.13040801835E+02  0.43400731105E+02  0.00000000000E+00 0.  1.
         11    1    3    3    0    0  0.20797404423E+00  0.12777883283E+01  0.40675587629E+01  0.42686099336E+01  0.51100000000E-03 0. -1.
        -11    1    3    3    0    0 -0.28728564950E+01  0.11539473769E+02  0.46206944879E+01  0.12757882940E+02  0.51100000000E-03 0.  1.
         12    1    3    3    0    0  0.14197688492E+02  0.26938936574E+02  0.43525485838E+01  0.30760776021E+02  0.00000000000E+00 0. -1.
</event>
<event>
 7    1  0.4519225E-009  0.4778727E+02  0.7816164E-02  0.1312668E+00
        -11   -1    0    0    0    0  0.00000000000E+00  0.00000000000E+00  0.45593999997E+02  0.45594000000E+02  0.51100000000E-03 0. -1.
         11   -1    0    0    0    0 -0.00000000000E+00 -0.00000000000E+00 -0.45593999997E+02  0.45594000000E+02  0.51100000000E-03 0.  1.
    9900012    2    1    2    0    0  0.16906726926E+02  0.25991681515E+02  0.30368043669E+02  0.47787274204E+02  0.20000014406E+02 0.  0.
        -12    1    1    2    0    0 -0.16906726926E+02 -0.25991681515E+02 -0.30368043669E+02  0.43400725796E+02  0.00000000000E+00 0.  1.
         11    1    3    3    0    0  0.10103389676E+02  0.14768820604E+02  0.14208168237E+02  0.22848820317E+02  0.51100000000E-03 0. -1.
        -11    1    3    3    0    0  0.10544743517E+02  0.69280173665E+01  0.78361607798E+01  0.14852422580E+02  0.51100000000E-03 0.  1.
        -12    1    3    3    0    0 -0.37414062661E+01  0.42948435445E+01  0.83237146521E+01  0.10086031307E+02  0.00000000000E+00 0.  1.
</event>
<event>
 7    1  0.4519225E-009  0.4778727E+02  0.7816164E-02  0.1312668E+00
        -11   -1    0    0    0    0  0.00000000000E+00  0.00000000000E+00  0.45593999997E+02  0.45594000000E+02  0.51100000000E-03 0.  1.
         11   -1    0    0    0    0 -0.00000000000E+00 -0.00000000000E+00 -0.45593999997E+02  0.45594000000E+02  0.51100000000E-03 0. -1.
    9900012    2    1    2    0    0  0.55552762443E+01 -0.31704375011E+02 -0.29113483016E+02  0.47787269795E+02  0.19999994304E+02 0.  0.
        -12    1    1    2    0    0 -0.55552762443E+01  0.31704375011E+02  0.29113483016E+02  0.43400730205E+02  0.00000000000E+00 0.  1.
         11    1    3    3    0    0  0.16123623315E+01 -0.51496077496E+01 -0.47726750742E+01  0.72039294754E+01  0.51100000000E-03 0. -1.
        -11    1    3    3    0    0 -0.72470355443E+01 -0.12425371365E+02 -0.12089173668E+02  0.18789824320E+02  0.51100000000E-03 0.  1.
        -12    1    3    3    0    0  0.11189949457E+02 -0.14129395896E+02 -0.12251634274E+02  0.21793516000E+02  0.00000000000E+00 0.  1.
</event>
<event>
 7    1  0.4519225E-009  0.4778727E+02  0.7816164E-02  0.1312668E+00
        -11   -1    0    0    0    0  0.00000000000E+00  0.00000000000E+00  0.45593999997E+02  0.45594000000E+02  0.51100000000E-03 0.  1.
         11   -1    0    0    0    0 -0.00000000000E+00 -0.00000000000E+00 -0.45593999997E+02  0.45594000000E+02  0.51100000000E-03 0. -1.
    9900012    2    1    2    0    0 -0.23655340724E+02 -0.29645649019E+02 -0.21099375856E+02  0.47787270605E+02  0.19999997995E+02 0.  0.
        -12    1    1    2    0    0  0.23655340724E+02  0.29645649019E+02  0.21099375856E+02  0.43400729395E+02  0.00000000000E+00 0.  1.
         11    1    3    3    0    0 -0.11433159959E+02 -0.72719064627E+01 -0.24919227798E+01  0.13777062447E+02  0.51100000000E-03 0. -1.
        -11    1    3    3    0    0 -0.83377832921E+01 -0.63223931744E+01 -0.12735121567E+02  0.16482554634E+02  0.51100000000E-03 0.  1.
        -12    1    3    3    0    0 -0.38843974729E+01 -0.16051349382E+02 -0.58723315090E+01  0.17527653524E+02  0.00000000000E+00 0.  1.
</event>
<event>
 7    1  0.4519225E-009  0.4778727E+02  0.7816164E-02  0.1312668E+00
        -11   -1    0    0    0    0  0.00000000000E+00  0.00000000000E+00  0.45593999997E+02  0.45594000000E+02  0.51100000000E-03 0.  1.
         11   -1    0    0    0    0 -0.00000000000E+00 -0.00000000000E+00 -0.45593999997E+02  0.45594000000E+02  0.51100000000E-03 0. -1.
    9900012    2    1    2    0    0 -0.16599389175E+02  0.34077990874E+02 -0.21137030906E+02  0.47787271221E+02  0.20000000806E+02 0.  0.
        -12    1    1    2    0    0  0.16599389175E+02 -0.34077990874E+02  0.21137030906E+02  0.43400728779E+02  0.00000000000E+00 0.  1.
         11    1    3    3    0    0 -0.12158888636E+02  0.23581821497E+02 -0.20318284404E+02  0.33418162119E+02  0.51100000000E-03 0. -1.
        -11    1    3    3    0    0 -0.28937677505E+01 -0.29558202551E+00 -0.18037263771E+01  0.34226728784E+01  0.51100000000E-03 0.  1.
        -12    1    3    3    0    0 -0.15467327890E+01  0.10791751402E+02  0.98497987563E+00  0.10946436224E+02  0.00000000000E+00 0.  1.
</event>
<event>
 7    1  0.4519225E-009  0.4778727E+02  0.7816164E-02  0.1312668E+00
        -11   -1    0    0    0    0  0.00000000000E+00  0.00000000000E+00  0.45593999997E+02  0.45594000000E+02  0.51100000000E-03 0. -1.
         11   -1    0    0    0    0 -0.00000000000E+00 -0.00000000000E+00 -0.45593999997E+02  0.45594000000E+02  0.51100000000E-03 0.  1.
    9900012    2    1    2    0    0  0.22245646163E+02 -0.35365295115E+02  0.11749484053E+02  0.47787271351E+02  0.20000001396E+02 0.  0.
        -12    1    1    2    0    0 -0.22245646163E+02  0.35365295115E+02 -0.11749484053E+02  0.43400728649E+02  0.00000000000E+00 0.  1.
         11    1    3    3    0    0  0.63891784168E+01 -0.89222190766E+01  0.26166607937E+01  0.11281600421E+02  0.51100000000E-03 0. -1.
        -11    1    3    3    0    0 -0.30244971965E+00 -0.15531495008E+02  0.16529106479E+01  0.15622129397E+02  0.51100000000E-03 0.  1.
        -12    1    3    3    0    0  0.16158917466E+02 -0.10911581030E+02  0.74799126118E+01  0.20883541532E+02  0.00000000000E+00 0.  1.
</event>
<event>
 7    1  0.4519225E-009  0.4778727E+02  0.7816164E-02  0.1312668E+00
        -11   -1    0    0    0    0  0.00000000000E+00  0.00000000000E+00  0.45593999997E+02  0.45594000000E+02  0.51100000000E-03 0. -1.
         11   -1    0    0    0    0 -0.00000000000E+00 -0.00000000000E+00 -0.45593999997E+02  0.45594000000E+02  0.51100000000E-03 0.  1.
    9900012    2    1    2    0    0  0.30013659072E+02  0.26350296860E+02  0.16984267534E+02  0.47787271675E+02  0.20000002874E+02 0.  0.
        -12    1    1    2    0    0 -0.30013659072E+02 -0.26350296860E+02 -0.16984267534E+02  0.43400728325E+02  0.00000000000E+00 0.  1.
         11    1    3    3    0    0  0.68901827249E+01  0.13119670559E+01  0.80263230835E+01  0.10659162164E+02  0.51100000000E-03 0. -1.
        -11    1    3    3    0    0  0.13722285707E+02  0.64535456577E+01  0.46380441715E+01  0.15857516533E+02  0.51100000000E-03 0.  1.
        -12    1    3    3    0    0  0.94011906395E+01  0.18584784146E+02  0.43199002789E+01  0.21270592978E+02  0.00000000000E+00 0.  1.
</event>
<event>
 7    1  0.4519225E-009  0.4778727E+02  0.7816164E-02  0.1312668E+00
        -11   -1    0    0    0    0  0.00000000000E+00  0.00000000000E+00  0.45593999997E+02  0.45594000000E+02  0.51100000000E-03 0. -1.
         11   -1    0    0    0    0 -0.00000000000E+00 -0.00000000000E+00 -0.45593999997E+02  0.45594000000E+02  0.51100000000E-03 0.  1.
    9900012    2    1    2    0    0 -0.30078568096E+02  0.29716318059E+02 -0.97899886168E+01  0.47787266194E+02  0.19999977887E+02 0.  0.
        -12    1    1    2    0    0  0.30078568096E+02 -0.29716318059E+02  0.97899886168E+01  0.43400733806E+02  0.00000000000E+00 0.  1.
         11    1    3    3    0    0 -0.40653924073E+01 -0.21952098587E+00  0.35958037390E+00  0.40871632210E+01  0.51100000000E-03 0. -1.
        -11    1    3    3    0    0 -0.63088813321E+01  0.23737596313E+01  0.29721273547E+01  0.73668351226E+01  0.51100000000E-03 0.  1.
         12    1    3    3    0    0 -0.19704294357E+02  0.27562079414E+02 -0.13121696345E+02  0.36333267851E+02  0.00000000000E+00 0. -1.
</event>
<event>
 7    1  0.4519225E-009  0.4778727E+02  0.7816164E-02  0.1312668E+00
        -11   -1    0    0    0    0  0.00000000000E+00  0.00000000000E+00  0.45593999997E+02  0.45594000000E+02  0.51100000000E-03 0.  1.
         11   -1    0    0    0    0 -0.00000000000E+00 -0.00000000000E+00 -0.45593999997E+02  0.45594000000E+02  0.51100000000E-03 0. -1.
    9900012    2    1    2    0    0  0.19365544530E+02 -0.29819710063E+02 -0.24887420032E+02  0.47787273059E+02  0.20000009183E+02 0.  0.
        -12    1    1    2    0    0 -0.19365544530E+02  0.29819710063E+02  0.24887420032E+02  0.43400726941E+02  0.00000000000E+00 0.  1.
         11    1    3    3    0    0  0.32965255153E+01 -0.28534157547E+00 -0.46344392137E+01  0.56944295039E+01  0.51100000000E-03 0. -1.
        -11    1    3    3    0    0 -0.13866458580E+01 -0.14790956524E+01  0.15094894576E+01  0.25276608491E+01  0.51100000000E-03 0.  1.
         12    1    3    3    0    0  0.17455664872E+02 -0.28055272835E+02 -0.21762470276E+02  0.39565182706E+02  0.00000000000E+00 0. -1.
</event>
<event>
 7    1  0.4519225E-009  0.4778727E+02  0.7816164E-02  0.1312668E+00
        -11   -1    0    0    0    0  0.00000000000E+00  0.00000000000E+00  0.45593999997E+02  0.45594000000E+02  0.51100000000E-03 0.  1.
         11   -1    0    0    0    0 -0.00000000000E+00 -0.00000000000E+00 -0.45593999997E+02  0.45594000000E+02  0.51100000000E-03 0. -1.
    9900012    2    1    2    0    0 -0.29767383697E+02  0.22839013209E+02 -0.21815259815E+02  0.47787271696E+02  0.20000002973E+02 0.  0.
        -12    1    1    2    0    0  0.29767383697E+02 -0.22839013209E+02  0.21815259815E+02  0.43400728304E+02  0.00000000000E+00 0.  1.
         11    1    3    3    0    0 -0.25466468306E+02  0.15509700610E+02 -0.21573701195E+02  0.36803755305E+02  0.51100000000E-03 0. -1.
        -11    1    3    3    0    0 -0.60349965343E+01  0.67369494135E+01  0.36823645425E+00  0.90522521461E+01  0.51100000000E-03 0.  1.
         12    1    3    3    0    0  0.17340811435E+01  0.59236318477E+00 -0.60979507347E+00  0.19312642456E+01  0.00000000000E+00 0. -1.
</event>
<event>
 7    1  0.4519225E-009  0.4778727E+02  0.7816164E-02  0.1312668E+00
        -11   -1    0    0    0    0  0.00000000000E+00  0.00000000000E+00  0.45593999997E+02  0.45594000000E+02  0.51100000000E-03 0. -1.
         11   -1    0    0    0    0 -0.00000000000E+00 -0.00000000000E+00 -0.45593999997E+02  0.45594000000E+02  0.51100000000E-03 0.  1.
    9900012    2    1    2    0    0 -0.86981585055E+01 -0.44698807661E+01  0.42284576531E+02  0.47787271805E+02  0.20000003466E+02 0.  0.
        -12    1    1    2    0    0  0.86981585055E+01  0.44698807661E+01 -0.42284576531E+02  0.43400728195E+02  0.00000000000E+00 0.  1.
         11    1    3    3    0    0 -0.78568739599E+00 -0.26908673724E+01  0.10034097016E+02  0.10418309608E+02  0.51100000000E-03 0. -1.
        -11    1    3    3    0    0  0.18719526300E+01  0.32261399674E+01  0.22086476613E+02  0.22399210593E+02  0.51100000000E-03 0.  1.
         12    1    3    3    0    0 -0.97844237395E+01 -0.50051533611E+01  0.10164002902E+02  0.14969751603E+02  0.00000000000E+00 0. -1.
</event>
<event>
 7    1  0.4519225E-009  0.4778727E+02  0.7816164E-02  0.1312668E+00
        -11   -1    0    0    0    0  0.00000000000E+00  0.00000000000E+00  0.45593999997E+02  0.45594000000E+02  0.51100000000E-03 0. -1.
         11   -1    0    0    0    0 -0.00000000000E+00 -0.00000000000E+00 -0.45593999997E+02  0.45594000000E+02  0.51100000000E-03 0.  1.
    9900012    2    1    2    0    0 -0.63962582372E+00 -0.17404432268E+02  0.39752985426E+02  0.47787271504E+02  0.20000002095E+02 0.  0.
        -12    1    1    2    0    0  0.63962582372E+00  0.17404432268E+02 -0.39752985426E+02  0.43400728496E+02  0.00000000000E+00 0.  1.
         11    1    3    3    0    0  0.21286465869E+01  0.13230821742E+01  0.13298408806E+01  0.28372803457E+01  0.51100000000E-03 0. -1.
        -11    1    3    3    0    0 -0.47255893064E+01 -0.24654234259E+00  0.72542071370E+01  0.86611488191E+01  0.51100000000E-03 0.  1.
         12    1    3    3    0    0  0.19573168958E+01 -0.18480972099E+02  0.31168937408E+02  0.36288842339E+02  0.00000000000E+00 0. -1.
</event>
<event>
 7    1  0.4519225E-009  0.4778728E+02  0.7816164E-02  0.1312668E+00
        -11   -1    0    0    0    0  0.00000000000E+00  0.00000000000E+00  0.45593999997E+02  0.45594000000E+02  0.51100000000E-03 0.  1.
         11   -1    0    0    0    0 -0.00000000000E+00 -0.00000000000E+00 -0.45593999997E+02  0.45594000000E+02  0.51100000000E-03 0. -1.
    9900012    2    1    2    0    0 -0.22609751468E+02  0.18887522528E+02 -0.31869788628E+02  0.47787276551E+02  0.20000025106E+02 0.  0.
        -12    1    1    2    0    0  0.22609751468E+02 -0.18887522528E+02  0.31869788628E+02  0.43400723449E+02  0.00000000000E+00 0.  1.
         11    1    3    3    0    0 -0.61904887242E+01  0.91070367385E+01 -0.72135307244E+01  0.13164167067E+02  0.51100000000E-03 0. -1.
        -11    1    3    3    0    0 -0.90942095335E+01  0.96334560985E+01 -0.23810534985E+02  0.27247930196E+02  0.51100000000E-03 0.  1.
        -12    1    3    3    0    0 -0.73250532107E+01  0.14702969140E+00 -0.84572291894E+00  0.73751792876E+01  0.00000000000E+00 0.  1.
</event>
<event>
 7    1  0.4519225E-009  0.4778727E+02  0.7816164E-02  0.1312668E+00
        -11   -1    0    0    0    0  0.00000000000E+00  0.00000000000E+00  0.45593999997E+02  0.45594000000E+02  0.51100000000E-03 0.  1.
         11   -1    0    0    0    0 -0.00000000000E+00 -0.00000000000E+00 -0.45593999997E+02  0.45594000000E+02  0.51100000000E-03 0. -1.
    9900012    2    1    2    0    0 -0.29132595127E+02  0.22107677295E+00 -0.32169332736E+02  0.47787274863E+02  0.20000017410E+02 0.  0.
        -12    1    1    2    0    0  0.29132595127E+02 -0.22107677295E+00  0.32169332736E+02  0.43400725137E+02  0.00000000000E+00 0.  1.
         11    1    3    3    0    0 -0.47053395901E+01 -0.22151550353E+01 -0.34377832737E+01  0.62342190037E+01  0.51100000000E-03 0. -1.
        -11    1    3    3    0    0 -0.16225259910E+02  0.38190436668E+01 -0.28753083402E+02  0.33235281841E+02  0.51100000000E-03 0.  1.
        -12    1    3    3    0    0 -0.82019956268E+01 -0.13828118586E+01  0.21533940287E-01  0.83177740177E+01  0.00000000000E+00 0.  1.
</event>
<event>
 7    1  0.4519225E-009  0.4778727E+02  0.7816164E-02  0.1312668E+00
        -11   -1    0    0    0    0  0.00000000000E+00  0.00000000000E+00  0.45593999997E+02  0.45594000000E+02  0.51100000000E-03 0.  1.
         11   -1    0    0    0    0 -0.00000000000E+00 -0.00000000000E+00 -0.45593999997E+02  0.45594000000E+02  0.51100000000E-03 0. -1.
    9900012    2    1    2    0    0 -0.26226741277E+01 -0.24396931919E+02 -0.35798524376E+02  0.47787273576E+02  0.20000011542E+02 0.  0.
        -12    1    1    2    0    0  0.26226741277E+01  0.24396931919E+02  0.35798524376E+02  0.43400726424E+02  0.00000000000E+00 0.  1.
         11    1    3    3    0    0  0.11227671859E+01 -0.83736116820E+01 -0.12349313128E+02  0.14962737509E+02  0.51100000000E-03 0. -1.
        -11    1    3    3    0    0  0.16689253781E+01 -0.16437726822E+01 -0.15210841855E+02  0.15390159542E+02  0.51100000000E-03 0.  1.
         12    1    3    3    0    0 -0.54143666917E+01 -0.14379547555E+02 -0.82383693932E+01  0.17434376525E+02  0.00000000000E+00 0. -1.
</event>
<event>
 7    1  0.4519225E-009  0.4778727E+02  0.7816164E-02  0.1312668E+00
        -11   -1    0    0    0    0  0.00000000000E+00  0.00000000000E+00  0.45593999997E+02  0.45594000000E+02  0.51100000000E-03 0. -1.
         11   -1    0    0    0    0 -0.00000000000E+00 -0.00000000000E+00 -0.45593999997E+02  0.45594000000E+02  0.51100000000E-03 0.  1.
    9900012    2    1    2    0    0  0.39155750261E+02 -0.14841855900E+02  0.11409191382E+02  0.47787272897E+02  0.20000008448E+02 0.  0.
        -12    1    1    2    0    0 -0.39155750261E+02  0.14841855900E+02 -0.11409191382E+02  0.43400727103E+02  0.00000000000E+00 0.  1.
         11    1    3    3    0    0  0.16014878744E+02 -0.38802627986E+01  0.27370977915E+01  0.16704026016E+02  0.51100000000E-03 0. -1.
        -11    1    3    3    0    0  0.19401245481E+02 -0.14722034303E+02  0.57343889417E+01  0.25020588263E+02  0.51100000000E-03 0.  1.
        -12    1    3    3    0    0  0.37396260365E+01  0.37604412016E+01  0.29377046483E+01  0.60626586185E+01  0.00000000000E+00 0.  1.
</event>
<event>
 7    1  0.4519225E-009  0.4778727E+02  0.7816164E-02  0.1312668E+00
        -11   -1    0    0    0    0  0.00000000000E+00  0.00000000000E+00  0.45593999997E+02  0.45594000000E+02  0.51100000000E-03 0.  1.
         11   -1    0    0    0    0 -0.00000000000E+00 -0.00000000000E+00 -0.45593999997E+02  0.45594000000E+02  0.51100000000E-03 0. -1.
    9900012    2    1    2    0    0  0.18675522473E+02 -0.24739408760E+02 -0.30377784631E+02  0.47787270922E+02  0.19999999441E+02 0.  0.
        -12    1    1    2    0    0 -0.18675522473E+02  0.24739408760E+02  0.30377784631E+02  0.43400729078E+02  0.00000000000E+00 0.  1.
         11    1    3    3    0    0  0.46909699566E+01 -0.74257751229E+01 -0.35026976252E+01  0.94560153460E+01  0.51100000000E-03 0. -1.
        -11    1    3    3    0    0  0.67121016948E+01 -0.16192332240E+02 -0.25344482691E+02  0.30815365253E+02  0.51100000000E-03 0.  1.
        -12    1    3    3    0    0  0.72724508217E+01 -0.11213013972E+01 -0.15306043143E+01  0.75158903228E+01  0.00000000000E+00 0.  1.
</event>
<event>
 7    1  0.4519225E-009  0.4778727E+02  0.7816164E-02  0.1312668E+00
        -11   -1    0    0    0    0  0.00000000000E+00  0.00000000000E+00  0.45593999997E+02  0.45594000000E+02  0.51100000000E-03 0.  1.
         11   -1    0    0    0    0 -0.00000000000E+00 -0.00000000000E+00 -0.45593999997E+02  0.45594000000E+02  0.51100000000E-03 0. -1.
    9900012    2    1    2    0    0  0.26253794902E+02  0.16430257688E+02 -0.30404089470E+02  0.47787265318E+02  0.19999973889E+02 0.  0.
        -12    1    1    2    0    0 -0.26253794902E+02 -0.16430257688E+02  0.30404089470E+02  0.43400734682E+02  0.00000000000E+00 0.  1.
         11    1    3    3    0    0  0.57672802952E+01  0.10470416063E+02 -0.25964925246E+01  0.12232453075E+02  0.51100000000E-03 0. -1.
        -11    1    3    3    0    0  0.25250965606E+01 -0.69159348640E+00 -0.59014823623E+01  0.64561527650E+01  0.51100000000E-03 0.  1.
         12    1    3    3    0    0  0.17961418046E+02  0.66514351114E+01 -0.21906114583E+02  0.29098659478E+02  0.00000000000E+00 0. -1.
</event>
<event>
 7    1  0.4519225E-009  0.4778727E+02  0.7816164E-02  0.1312668E+00
        -11   -1    0    0    0    0  0.00000000000E+00  0.00000000000E+00  0.45593999997E+02  0.45594000000E+02  0.51100000000E-03 0.  1.
         11   -1    0    0    0    0 -0.00000000000E+00 -0.00000000000E+00 -0.45593999997E+02  0.45594000000E+02  0.51100000000E-03 0. -1.
    9900012    2    1    2    0    0 -0.14885446911E+02  0.32261774876E+02 -0.24924386472E+02  0.47787266264E+02  0.19999978202E+02 0.  0.
        -12    1    1    2    0    0  0.14885446911E+02 -0.32261774876E+02  0.24924386472E+02  0.43400733736E+02  0.00000000000E+00 0.  1.
         11    1    3    3    0    0 -0.81209571492E+00  0.68899663888E+00 -0.25625834708E+00  0.10953923590E+01  0.51100000000E-03 0. -1.
        -11    1    3    3    0    0 -0.73523840469E+01  0.60964282520E+01 -0.16573278861E+02  0.19128448998E+02  0.51100000000E-03 0.  1.
         12    1    3    3    0    0 -0.67209671495E+01  0.25476349985E+02 -0.80948492633E+01  0.27563424906E+02  0.00000000000E+00 0. -1.
</event>
<event>
 7    1  0.4519225E-009  0.4778728E+02  0.7816164E-02  0.1312668E+00
        -11   -1    0    0    0    0  0.00000000000E+00  0.00000000000E+00  0.45593999997E+02  0.45594000000E+02  0.51100000000E-03 0. -1.
         11   -1    0    0    0    0 -0.00000000000E+00 -0.00000000000E+00 -0.45593999997E+02  0.45594000000E+02  0.51100000000E-03 0.  1.
    9900012    2    1    2    0    0 -0.30214102389E+02 -0.31058250295E+02  0.24730401819E+01  0.47787276247E+02  0.20000023719E+02 0.  0.
        -12    1    1    2    0    0  0.30214102389E+02  0.31058250295E+02 -0.24730401819E+01  0.43400723753E+02  0.00000000000E+00 0.  1.
         11    1    3    3    0    0 -0.26963453111E+01 -0.22136098732E+01 -0.19672438483E+01  0.40050462328E+01  0.51100000000E-03 0. -1.
        -11    1    3    3    0    0 -0.29645104748E+02 -0.25411302307E+02  0.20731468816E+01  0.39100696397E+02  0.51100000000E-03 0.  1.
        -12    1    3    3    0    0  0.21273476706E+01 -0.34333381156E+01  0.23671371486E+01  0.46815336171E+01  0.00000000000E+00 0.  1.
</event>
<event>
 7    1  0.4519225E-009  0.4778727E+02  0.7816164E-02  0.1312668E+00
        -11   -1    0    0    0    0  0.00000000000E+00  0.00000000000E+00  0.45593999997E+02  0.45594000000E+02  0.51100000000E-03 0.  1.
         11   -1    0    0    0    0 -0.00000000000E+00 -0.00000000000E+00 -0.45593999997E+02  0.45594000000E+02  0.51100000000E-03 0. -1.
    9900012    2    1    2    0    0  0.19505368423E+02  0.36817063335E+02 -0.12151866951E+02  0.47787269357E+02  0.19999992307E+02 0.  0.
        -12    1    1    2    0    0 -0.19505368423E+02 -0.36817063335E+02  0.12151866951E+02  0.43400730643E+02  0.00000000000E+00 0.  1.
         11    1    3    3    0    0  0.29377397075E+01  0.19178845145E+02 -0.99495344806E+01  0.21804853871E+02  0.51100000000E-03 0. -1.
        -11    1    3    3    0    0  0.56360229013E+01  0.95840643333E+01 -0.48807147099E+01  0.12142504669E+02  0.51100000000E-03 0.  1.
        -12    1    3    3    0    0  0.10931605814E+02  0.80541538565E+01  0.26783822394E+01  0.13839910817E+02  0.00000000000E+00 0.  1.
</event>
<event>
 7    1  0.4519225E-009  0.4778727E+02  0.7816164E-02  0.1312668E+00
        -11   -1    0    0    0    0  0.00000000000E+00  0.00000000000E+00  0.45593999997E+02  0.45594000000E+02  0.51100000000E-03 0. -1.
         11   -1    0    0    0    0 -0.00000000000E+00 -0.00000000000E+00 -0.45593999997E+02  0.45594000000E+02  0.51100000000E-03 0.  1.
    9900012    2    1    2    0    0 -0.11935889707E+02  0.12247983572E+02  0.39889156179E+02  0.47787270221E+02  0.19999996246E+02 0.  0.
        -12    1    1    2    0    0  0.11935889707E+02 -0.12247983572E+02 -0.39889156179E+02  0.43400729779E+02  0.00000000000E+00 0.  1.
         11    1    3    3    0    0 -0.72528521112E+01  0.85177864445E+01  0.10583252782E+02  0.15400058096E+02  0.51100000000E-03 0.  1.
        -11    1    3    3    0    0 -0.52921199943E+01  0.27608860924E+01  0.30293090708E+02  0.30875562682E+02  0.51100000000E-03 0. -1.
         12    1    3    3    0    0  0.60908239869E+00  0.96931103486E+00 -0.98718731078E+00  0.15116494426E+01  0.00000000000E+00 0. -1.
</event>
<event>
 7    1  0.4519225E-009  0.4778727E+02  0.7816164E-02  0.1312668E+00
        -11   -1    0    0    0    0  0.00000000000E+00  0.00000000000E+00  0.45593999997E+02  0.45594000000E+02  0.51100000000E-03 0.  1.
         11   -1    0    0    0    0 -0.00000000000E+00 -0.00000000000E+00 -0.45593999997E+02  0.45594000000E+02  0.51100000000E-03 0. -1.
    9900012    2    1    2    0    0  0.33817076305E+02 -0.14751616582E+02 -0.22856477683E+02  0.47787269434E+02  0.19999992656E+02 0.  0.
        -12    1    1    2    0    0 -0.33817076305E+02  0.14751616582E+02  0.22856477683E+02  0.43400730566E+02  0.00000000000E+00 0.  1.
         11    1    3    3    0    0  0.89300753045E+01  0.45654602413E+00 -0.62182522989E+01  0.10891342485E+02  0.51100000000E-03 0. -1.
        -11    1    3    3    0    0  0.10951426151E+02 -0.49096958854E+01 -0.15399240219E+02  0.19523715016E+02  0.51100000000E-03 0.  1.
        -12    1    3    3    0    0  0.13935574850E+02 -0.10298466721E+02 -0.12389851646E+01  0.17372211933E+02  0.00000000000E+00 0.  1.
</event>
<event>
 7    1  0.4519225E-009  0.4778727E+02  0.7816164E-02  0.1312668E+00
        -11   -1    0    0    0    0  0.00000000000E+00  0.00000000000E+00  0.45593999997E+02  0.45594000000E+02  0.51100000000E-03 0. -1.
         11   -1    0    0    0    0 -0.00000000000E+00 -0.00000000000E+00 -0.45593999997E+02  0.45594000000E+02  0.51100000000E-03 0.  1.
    9900012    2    1    2    0    0  0.29543033688E+02 -0.29140630375E+02  0.12714422071E+02  0.47787266058E+02  0.19999977263E+02 0.  0.
        -12    1    1    2    0    0 -0.29543033688E+02  0.29140630375E+02 -0.12714422071E+02  0.43400733942E+02  0.00000000000E+00 0.  1.
         11    1    3    3    0    0  0.21515336047E+02 -0.20245750475E+02  0.47443074284E+01  0.29921707016E+02  0.51100000000E-03 0. -1.
        -11    1    3    3    0    0  0.10269968227E+02 -0.84685281076E+01  0.80955489620E+01  0.15579670374E+02  0.51100000000E-03 0.  1.
        -12    1    3    3    0    0 -0.22422705864E+01 -0.42635179187E+00 -0.12543431907E+00  0.22858886677E+01  0.00000000000E+00 0.  1.
</event>
<event>
 7    1  0.4519225E-009  0.4778727E+02  0.7816164E-02  0.1312668E+00
        -11   -1    0    0    0    0  0.00000000000E+00  0.00000000000E+00  0.45593999997E+02  0.45594000000E+02  0.51100000000E-03 0.  1.
         11   -1    0    0    0    0 -0.00000000000E+00 -0.00000000000E+00 -0.45593999997E+02  0.45594000000E+02  0.51100000000E-03 0. -1.
    9900012    2    1    2    0    0  0.19495213875E+02  0.38391309268E+02  0.54467667893E+01  0.47787271207E+02  0.20000000740E+02 0.  0.
        -12    1    1    2    0    0 -0.19495213875E+02 -0.38391309268E+02 -0.54467667893E+01  0.43400728793E+02  0.00000000000E+00 0.  1.
         11    1    3    3    0    0  0.50545605892E+01  0.14150154258E+02  0.59715301104E+01  0.16168939990E+02  0.51100000000E-03 0. -1.
        -11    1    3    3    0    0  0.66318674090E+01  0.13986043548E+01  0.26351597269E+01  0.72719891721E+01  0.51100000000E-03 0.  1.
         12    1    3    3    0    0  0.78087858765E+01  0.22842550655E+02 -0.31599230480E+01  0.24346342045E+02  0.00000000000E+00 0. -1.
</event>
<event>
 7    1  0.4519225E-009  0.4778727E+02  0.7816164E-02  0.1312668E+00
        -11   -1    0    0    0    0  0.00000000000E+00  0.00000000000E+00  0.45593999997E+02  0.45594000000E+02  0.51100000000E-03 0.  1.
         11   -1    0    0    0    0 -0.00000000000E+00 -0.00000000000E+00 -0.45593999997E+02  0.45594000000E+02  0.51100000000E-03 0. -1.
    9900012    2    1    2    0    0  0.99886784319E+01  0.87774629841E+01 -0.41313509169E+02  0.47787267367E+02  0.19999983234E+02 0.  0.
        -12    1    1    2    0    0 -0.99886784319E+01 -0.87774629841E+01  0.41313509169E+02  0.43400732633E+02  0.00000000000E+00 0.  1.
         11    1    3    3    0    0 -0.89340111458E+00  0.71112185157E+00 -0.15434307993E+02  0.15476489374E+02  0.51100000000E-03 0. -1.
        -11    1    3    3    0    0  0.40913659631E+01  0.55262874685E+01 -0.17210049966E+01  0.70880876890E+01  0.51100000000E-03 0.  1.
         12    1    3    3    0    0  0.67907135834E+01  0.25400536641E+01 -0.24158196179E+02  0.25222690304E+02  0.00000000000E+00 0. -1.
</event>
<event>
 7    1  0.4519225E-009  0.4778727E+02  0.7816164E-02  0.1312668E+00
        -11   -1    0    0    0    0  0.00000000000E+00  0.00000000000E+00  0.45593999997E+02  0.45594000000E+02  0.51100000000E-03 0.  1.
         11   -1    0    0    0    0 -0.00000000000E+00 -0.00000000000E+00 -0.45593999997E+02  0.45594000000E+02  0.51100000000E-03 0. -1.
    9900012    2    1    2    0    0  0.56177872676E+01  0.30660564283E+02 -0.30199232753E+02  0.47787269651E+02  0.19999993648E+02 0.  0.
        -12    1    1    2    0    0 -0.56177872676E+01 -0.30660564283E+02  0.30199232753E+02  0.43400730349E+02  0.00000000000E+00 0.  1.
         11    1    3    3    0    0 -0.50090445228E+01  0.13243767517E+02 -0.16873304011E+02  0.22027171711E+02  0.51100000000E-03 0. -1.
        -11    1    3    3    0    0  0.20551200369E+01  0.26098956530E+01 -0.65765466699E+01  0.73679060830E+01  0.51100000000E-03 0.  1.
        -12    1    3    3    0    0  0.85717117536E+01  0.14806901113E+02 -0.67493820720E+01  0.18392191857E+02  0.00000000000E+00 0.  1.
</event>
<event>
 7    1  0.4519225E-009  0.4778727E+02  0.7816164E-02  0.1312668E+00
        -11   -1    0    0    0    0  0.00000000000E+00  0.00000000000E+00  0.45593999997E+02  0.45594000000E+02  0.51100000000E-03 0.  1.
         11   -1    0    0    0    0 -0.00000000000E+00 -0.00000000000E+00 -0.45593999997E+02  0.45594000000E+02  0.51100000000E-03 0. -1.
    9900012    2    1    2    0    0  0.87057760026E+01 -0.38626224658E+02 -0.17772102625E+02  0.47787269604E+02  0.19999993434E+02 0.  0.
        -12    1    1    2    0    0 -0.87057760026E+01  0.38626224658E+02  0.17772102625E+02  0.43400730396E+02  0.00000000000E+00 0.  1.
         11    1    3    3    0    0  0.23949646664E+01  0.42758311701E+00 -0.34366221743E+01  0.42105884750E+01  0.51100000000E-03 0. -1.
        -11    1    3    3    0    0  0.13194127473E+01 -0.26953317559E+01  0.17861457054E+01  0.34922743326E+01  0.51100000000E-03 0.  1.
        -12    1    3    3    0    0  0.49913985889E+01 -0.36358476019E+02 -0.16121626156E+02  0.40084406797E+02  0.00000000000E+00 0.  1.
</event>
<event>
 7    1  0.4519225E-009  0.4778727E+02  0.7816164E-02  0.1312668E+00
        -11   -1    0    0    0    0  0.00000000000E+00  0.00000000000E+00  0.45593999997E+02  0.45594000000E+02  0.51100000000E-03 0. -1.
         11   -1    0    0    0    0 -0.00000000000E+00 -0.00000000000E+00 -0.45593999997E+02  0.45594000000E+02  0.51100000000E-03 0.  1.
    9900012    2    1    2    0    0  0.21216269589E+02  0.28047409775E+02  0.25432971641E+02  0.47787270319E+02  0.19999996693E+02 0.  0.
        -12    1    1    2    0    0 -0.21216269589E+02 -0.28047409775E+02 -0.25432971641E+02  0.43400729681E+02  0.00000000000E+00 0.  1.
         11    1    3    3    0    0  0.28649480341E+01  0.21606884371E+01  0.16885819514E+01  0.39658304336E+01  0.51100000000E-03 0. -1.
        -11    1    3    3    0    0  0.11202995378E+02  0.50429375338E+01  0.12773274098E+01  0.12351918474E+02  0.51100000000E-03 0.  1.
         12    1    3    3    0    0  0.71483261767E+01  0.20843783804E+02  0.22467062279E+02  0.31469521411E+02  0.00000000000E+00 0. -1.
</event>
<event>
 7    1  0.4519225E-009  0.4778728E+02  0.7816164E-02  0.1312668E+00
        -11   -1    0    0    0    0  0.00000000000E+00  0.00000000000E+00  0.45593999997E+02  0.45594000000E+02  0.51100000000E-03 0.  1.
         11   -1    0    0    0    0 -0.00000000000E+00 -0.00000000000E+00 -0.45593999997E+02  0.45594000000E+02  0.51100000000E-03 0. -1.
    9900012    2    1    2    0    0 -0.23996629204E+02 -0.24960389586E+01 -0.36077062389E+02  0.47787275879E+02  0.20000022042E+02 0.  0.
        -12    1    1    2    0    0  0.23996629204E+02  0.24960389586E+01  0.36077062389E+02  0.43400724121E+02  0.00000000000E+00 0.  1.
         11    1    3    3    0    0 -0.83225330464E+01  0.53218608807E+00 -0.18861867203E+02  0.20623234785E+02  0.51100000000E-03 0. -1.
        -11    1    3    3    0    0 -0.52292967527E+01  0.44332850731E+01 -0.17685858619E+01  0.70800746662E+01  0.51100000000E-03 0.  1.
         12    1    3    3    0    0 -0.10444799405E+02 -0.74615101197E+01 -0.15446609324E+02  0.20083966428E+02  0.00000000000E+00 0. -1.
</event>
<event>
 7    1  0.4519225E-009  0.4778727E+02  0.7816164E-02  0.1312668E+00
        -11   -1    0    0    0    0  0.00000000000E+00  0.00000000000E+00  0.45593999997E+02  0.45594000000E+02  0.51100000000E-03 0.  1.
         11   -1    0    0    0    0 -0.00000000000E+00 -0.00000000000E+00 -0.45593999997E+02  0.45594000000E+02  0.51100000000E-03 0. -1.
    9900012    2    1    2    0    0  0.42372942521E+02 -0.52508375271E+00  0.93744923495E+01  0.47787273305E+02  0.20000010308E+02 0.  0.
        -12    1    1    2    0    0 -0.42372942521E+02  0.52508375271E+00 -0.93744923495E+01  0.43400726695E+02  0.00000000000E+00 0.  1.
         11    1    3    3    0    0  0.33117376886E+01  0.11987112552E+01 -0.37799575733E+01  0.51664876569E+01  0.51100000000E-03 0. -1.
        -11    1    3    3    0    0  0.95821778847E+01  0.41185176108E+01  0.24024191681E+01  0.10702893928E+02  0.51100000000E-03 0.  1.
         12    1    3    3    0    0  0.29479026947E+02 -0.58423126187E+01  0.10752030755E+02  0.31917891720E+02  0.00000000000E+00 0. -1.
</event>
<event>
 7    1  0.4519225E-009  0.4778726E+02  0.7816164E-02  0.1312668E+00
        -11   -1    0    0    0    0  0.00000000000E+00  0.00000000000E+00  0.45593999997E+02  0.45594000000E+02  0.51100000000E-03 0. -1.
         11   -1    0    0    0    0 -0.00000000000E+00 -0.00000000000E+00 -0.45593999997E+02  0.45594000000E+02  0.51100000000E-03 0.  1.
    9900012    2    1    2    0    0 -0.15948026786E+02  0.38117941736E+02  0.13278076044E+02  0.47787258716E+02  0.19999943791E+02 0.  0.
        -12    1    1    2    0    0  0.15948026786E+02 -0.38117941736E+02 -0.13278076044E+02  0.43400741284E+02  0.00000000000E+00 0.  1.
         11    1    3    3    0    0 -0.20021475599E+01  0.98263026590E+01  0.17673551202E+01  0.10182748312E+02  0.51100000000E-03 0. -1.
        -11    1    3    3    0    0  0.10817676799E+01 -0.11925955132E+01  0.30470269599E+01  0.34462848006E+01  0.51100000000E-03 0.  1.
        -12    1    3    3    0    0 -0.15027646906E+02  0.29484234590E+02  0.84636939642E+01  0.34158225604E+02  0.00000000000E+00 0.  1.
</event>
<event>
 7    1  0.4519225E-009  0.4778727E+02  0.7816164E-02  0.1312668E+00
        -11   -1    0    0    0    0  0.00000000000E+00  0.00000000000E+00  0.45593999997E+02  0.45594000000E+02  0.51100000000E-03 0.  1.
         11   -1    0    0    0    0 -0.00000000000E+00 -0.00000000000E+00 -0.45593999997E+02  0.45594000000E+02  0.51100000000E-03 0. -1.
    9900012    2    1    2    0    0  0.11421253514E+02 -0.25797751885E+02 -0.32979599138E+02  0.47787274275E+02  0.20000014730E+02 0.  0.
        -12    1    1    2    0    0 -0.11421253514E+02  0.25797751885E+02  0.32979599138E+02  0.43400725725E+02  0.00000000000E+00 0.  1.
         11    1    3    3    0    0  0.63196567517E+01 -0.87397541102E+01 -0.22193636681E+02  0.24675471074E+02  0.51100000000E-03 0. -1.
        -11    1    3    3    0    0  0.26362286038E+01 -0.26504515710E+01  0.14894700038E+01  0.40240670888E+01  0.51100000000E-03 0.  1.
        -12    1    3    3    0    0  0.24653681581E+01 -0.14407546204E+02 -0.12275432461E+02  0.19087736112E+02  0.00000000000E+00 0.  1.
</event>
<event>
 7    1  0.4519225E-009  0.4778727E+02  0.7816164E-02  0.1312668E+00
        -11   -1    0    0    0    0  0.00000000000E+00  0.00000000000E+00  0.45593999997E+02  0.45594000000E+02  0.51100000000E-03 0. -1.
         11   -1    0    0    0    0 -0.00000000000E+00 -0.00000000000E+00 -0.45593999997E+02  0.45594000000E+02  0.51100000000E-03 0.  1.
    9900012    2    1    2    0    0  0.30700046947E+02  0.27251326635E+01  0.30556570036E+02  0.47787271861E+02  0.20000003725E+02 0.  0.
        -12    1    1    2    0    0 -0.30700046947E+02 -0.27251326635E+01 -0.30556570036E+02  0.43400728139E+02  0.00000000000E+00 0.  1.
         11    1    3    3    0    0  0.63602508503E+01  0.51368498955E+01  0.11009375313E+02  0.13712999773E+02  0.51100000000E-03 0. -1.
        -11    1    3    3    0    0  0.41905601868E-03 -0.34895424834E+01  0.32022495905E+01  0.47361703538E+01  0.51100000000E-03 0.  1.
         12    1    3    3    0    0  0.24339377041E+02  0.10778252513E+01  0.16344945133E+02  0.29338101735E+02  0.00000000000E+00 0. -1.
</event>
<event>
 7    1  0.4519225E-009  0.4778723E+02  0.7816164E-02  0.1312668E+00
        -11   -1    0    0    0    0  0.00000000000E+00  0.00000000000E+00  0.45593999997E+02  0.45594000000E+02  0.51100000000E-03 0.  1.
         11   -1    0    0    0    0 -0.00000000000E+00 -0.00000000000E+00 -0.45593999997E+02  0.45594000000E+02  0.51100000000E-03 0. -1.
    9900012    2    1    2    0    0  0.26809268322E+01 -0.34283554548E+02 -0.26477859060E+02  0.47787233861E+02  0.19999830464E+02 0.  0.
        -12    1    1    2    0    0 -0.26809268322E+01  0.34283554548E+02  0.26477859060E+02  0.43400766139E+02  0.00000000000E+00 0.  1.
         11    1    3    3    0    0  0.60949622889E+01 -0.68416479812E+01 -0.34361267456E+01  0.97858918691E+01  0.51100000000E-03 0. -1.
        -11    1    3    3    0    0 -0.30690512859E+01 -0.42220037376E+00 -0.14908996285E+01  0.34380388181E+01  0.51100000000E-03 0.  1.
        -12    1    3    3    0    0 -0.34498417073E+00 -0.27019706193E+02 -0.21550832685E+02  0.34563303173E+02  0.00000000000E+00 0.  1.
</event>
<event>
 7    1  0.4519225E-009  0.4778727E+02  0.7816164E-02  0.1312668E+00
        -11   -1    0    0    0    0  0.00000000000E+00  0.00000000000E+00  0.45593999997E+02  0.45594000000E+02  0.51100000000E-03 0.  1.
         11   -1    0    0    0    0 -0.00000000000E+00 -0.00000000000E+00 -0.45593999997E+02  0.45594000000E+02  0.51100000000E-03 0. -1.
    9900012    2    1    2    0    0  0.39630758986E+02  0.30670636419E+01 -0.17424683502E+02  0.47787268067E+02  0.19999986425E+02 0.  0.
        -12    1    1    2    0    0 -0.39630758986E+02 -0.30670636419E+01  0.17424683502E+02  0.43400731933E+02  0.00000000000E+00 0.  1.
         11    1    3    3    0    0  0.12072482203E+02  0.43251337382E+01 -0.92423791590E+01  0.15807377429E+02  0.51100000000E-03 0. -1.
        -11    1    3    3    0    0  0.74970719793E+01  0.42929184937E+01  0.19091445369E+01  0.88476025329E+01  0.51100000000E-03 0.  1.
        -12    1    3    3    0    0  0.20061204804E+02 -0.55509885900E+01 -0.10091448880E+02  0.23132288105E+02  0.00000000000E+00 0.  1.
</event>
<event>
 7    1  0.4519225E-009  0.4778723E+02  0.7816164E-02  0.1312668E+00
        -11   -1    0    0    0    0  0.00000000000E+00  0.00000000000E+00  0.45593999997E+02  0.45594000000E+02  0.51100000000E-03 0. -1.
         11   -1    0    0    0    0 -0.00000000000E+00 -0.00000000000E+00 -0.45593999997E+02  0.45594000000E+02  0.51100000000E-03 0.  1.
    9900012    2    1    2    0    0  0.22123188483E+02  0.23002724101E+02  0.29412005144E+02  0.47787230061E+02  0.19999813139E+02 0.  0.
        -12    1    1    2    0    0 -0.22123188483E+02 -0.23002724101E+02 -0.29412005144E+02  0.43400769939E+02  0.00000000000E+00 0.  1.
         11    1    3    3    0    0  0.55746487935E+01  0.88252795457E+01  0.13603678134E+02  0.17147079264E+02  0.51100000000E-03 0. -1.
        -11    1    3    3    0    0  0.14687318419E+02  0.71532269069E+01  0.16648570221E+02  0.23325112394E+02  0.51100000000E-03 0.  1.
        -12    1    3    3    0    0  0.18612212703E+01  0.70242176485E+01 -0.84024321104E+00  0.73150384035E+01  0.00000000000E+00 0.  1.
</event>
<event>
 7    1  0.4519225E-009  0.4778727E+02  0.7816164E-02  0.1312668E+00
        -11   -1    0    0    0    0  0.00000000000E+00  0.00000000000E+00  0.45593999997E+02  0.45594000000E+02  0.51100000000E-03 0.  1.
         11   -1    0    0    0    0 -0.00000000000E+00 -0.00000000000E+00 -0.45593999997E+02  0.45594000000E+02  0.51100000000E-03 0. -1.
    9900012    2    1    2    0    0  0.39199570071E+02 -0.17142468481E+02  0.72905982934E+01  0.47787270250E+02  0.19999996378E+02 0.  0.
        -12    1    1    2    0    0 -0.39199570071E+02  0.17142468481E+02 -0.72905982934E+01  0.43400729750E+02  0.00000000000E+00 0.  1.
         11    1    3    3    0    0  0.17727203038E+02 -0.30275689663E+01  0.73884007580E+01  0.19442437281E+02  0.51100000000E-03 0. -1.
        -11    1    3    3    0    0  0.15663981632E+02 -0.11672554055E+02  0.50854262170E+01  0.20185896036E+02  0.51100000000E-03 0.  1.
         12    1    3    3    0    0  0.58083854013E+01 -0.24423454601E+01 -0.51832286815E+01  0.81589369333E+01  0.00000000000E+00 0. -1.
</event>
<event>
 7    1  0.4519225E-009  0.4778727E+02  0.7816164E-02  0.1312668E+00
        -11   -1    0    0    0    0  0.00000000000E+00  0.00000000000E+00  0.45593999997E+02  0.45594000000E+02  0.51100000000E-03 0.  1.
         11   -1    0    0    0    0 -0.00000000000E+00 -0.00000000000E+00 -0.45593999997E+02  0.45594000000E+02  0.51100000000E-03 0. -1.
    9900012    2    1    2    0    0  0.25705260141E+02  0.21365818283E+02 -0.27683293984E+02  0.47787270103E+02  0.19999995706E+02 0.  0.
        -12    1    1    2    0    0 -0.25705260141E+02 -0.21365818283E+02  0.27683293984E+02  0.43400729897E+02  0.00000000000E+00 0.  1.
         11    1    3    3    0    0 -0.51532748497E+00 -0.46414524408E+00 -0.79496560329E+00  0.10549709929E+01  0.51100000000E-03 0.  1.
        -11    1    3    3    0    0  0.21381823836E+02  0.22839101030E+02 -0.16830835774E+02  0.35525821025E+02  0.51100000000E-03 0. -1.
        -12    1    3    3    0    0  0.48387637894E+01 -0.10091375028E+01 -0.10057492607E+02  0.11206478084E+02  0.00000000000E+00 0.  1.
</event>
<event>
 7    1  0.4519225E-009  0.4778727E+02  0.7816164E-02  0.1312668E+00
        -11   -1    0    0    0    0  0.00000000000E+00  0.00000000000E+00  0.45593999997E+02  0.45594000000E+02  0.51100000000E-03 0.  1.
         11   -1    0    0    0    0 -0.00000000000E+00 -0.00000000000E+00 -0.45593999997E+02  0.45594000000E+02  0.51100000000E-03 0. -1.
    9900012    2    1    2    0    0  0.50746531664E+01 -0.21415664796E+02 -0.37406419998E+02  0.47787273502E+02  0.20000011206E+02 0.  0.
        -12    1    1    2    0    0 -0.50746531664E+01  0.21415664796E+02  0.37406419998E+02  0.43400726498E+02  0.00000000000E+00 0.  1.
         11    1    3    3    0    0  0.77226187340E+01 -0.64733009053E+01 -0.11494783921E+02  0.15286350852E+02  0.51100000000E-03 0. -1.
        -11    1    3    3    0    0  0.37070526200E+01 -0.61664355162E+01 -0.17041054973E+02  0.18497695017E+02  0.51100000000E-03 0.  1.
        -12    1    3    3    0    0 -0.63550181875E+01 -0.87759283750E+01 -0.88705811045E+01  0.14003227633E+02  0.00000000000E+00 0.  1.
</event>
<event>
 7    1  0.4519225E-009  0.4778727E+02  0.7816164E-02  0.1312668E+00
        -11   -1    0    0    0    0  0.00000000000E+00  0.00000000000E+00  0.45593999997E+02  0.45594000000E+02  0.51100000000E-03 0.  1.
         11   -1    0    0    0    0 -0.00000000000E+00 -0.00000000000E+00 -0.45593999997E+02  0.45594000000E+02  0.51100000000E-03 0. -1.
    9900012    2    1    2    0    0 -0.38964967356E+02 -0.16773610808E+02  0.91651861770E+01  0.47787270303E+02  0.19999996618E+02 0.  0.
        -12    1    1    2    0    0  0.38964967356E+02  0.16773610808E+02 -0.91651861770E+01  0.43400729697E+02  0.00000000000E+00 0.  1.
         11    1    3    3    0    0 -0.16950297867E+02 -0.88081102597E+01 -0.20008546760E+01  0.19206739021E+02  0.51100000000E-03 0. -1.
        -11    1    3    3    0    0 -0.20475432009E+02 -0.53761168334E+01  0.50508531133E+01  0.21763663883E+02  0.51100000000E-03 0.  1.
        -12    1    3    3    0    0 -0.15392374797E+01 -0.25893837150E+01  0.61151877397E+01  0.68168673989E+01  0.00000000000E+00 0.  1.
</event>
<event>
 7    1  0.4519225E-009  0.4778729E+02  0.7816164E-02  0.1312668E+00
        -11   -1    0    0    0    0  0.00000000000E+00  0.00000000000E+00  0.45593999997E+02  0.45594000000E+02  0.51100000000E-03 0.  1.
         11   -1    0    0    0    0 -0.00000000000E+00 -0.00000000000E+00 -0.45593999997E+02  0.45594000000E+02  0.51100000000E-03 0. -1.
    9900012    2    1    2    0    0 -0.23784913471E+02  0.35958721719E+02  0.49869896041E+01  0.47787287543E+02  0.20000075222E+02 0.  0.
        -12    1    1    2    0    0  0.23784913471E+02 -0.35958721719E+02 -0.49869896041E+01  0.43400712457E+02  0.00000000000E+00 0.  1.
         11    1    3    3    0    0 -0.15945498110E+02  0.14734508318E+02  0.59414536461E+01  0.22509231819E+02  0.51100000000E-03 0. -1.
        -11    1    3    3    0    0 -0.21181684284E+01  0.77076188125E+01  0.50113469409E+01  0.94343851773E+01  0.51100000000E-03 0.  1.
        -12    1    3    3    0    0 -0.57212469322E+01  0.13516594588E+02 -0.59658109829E+01  0.15843670547E+02  0.00000000000E+00 0.  1.
</event>
<event>
 7    1  0.4519225E-009  0.4778727E+02  0.7816164E-02  0.1312668E+00
        -11   -1    0    0    0    0  0.00000000000E+00  0.00000000000E+00  0.45593999997E+02  0.45594000000E+02  0.51100000000E-03 0.  1.
         11   -1    0    0    0    0 -0.00000000000E+00 -0.00000000000E+00 -0.45593999997E+02  0.45594000000E+02  0.51100000000E-03 0. -1.
    9900012    2    1    2    0    0  0.36916749993E+02  0.10949631770E+01 -0.22794252249E+02  0.47787270628E+02  0.19999998103E+02 0.  0.
        -12    1    1    2    0    0 -0.36916749993E+02 -0.10949631770E+01  0.22794252249E+02  0.43400729372E+02  0.00000000000E+00 0.  1.
         11    1    3    3    0    0  0.18511243053E+02  0.72734962514E+01 -0.19702722182E+02  0.27995841276E+02  0.51100000000E-03 0. -1.
        -11    1    3    3    0    0  0.45752357310E+01 -0.99612726424E+00  0.90026188157E-01  0.46832847977E+01  0.51100000000E-03 0.  1.
         12    1    3    3    0    0  0.13830271209E+02 -0.51824058101E+01 -0.31815562553E+01  0.15108144555E+02  0.00000000000E+00 0. -1.
</event>
<event>
 7    1  0.4519225E-009  0.4778728E+02  0.7816164E-02  0.1312668E+00
        -11   -1    0    0    0    0  0.00000000000E+00  0.00000000000E+00  0.45593999997E+02  0.45594000000E+02  0.51100000000E-03 0.  1.
         11   -1    0    0    0    0 -0.00000000000E+00 -0.00000000000E+00 -0.45593999997E+02  0.45594000000E+02  0.51100000000E-03 0. -1.
    9900012    2    1    2    0    0 -0.86707230011E+01  0.50322048531E+01 -0.42226980626E+02  0.47787280929E+02  0.20000045069E+02 0.  0.
        -12    1    1    2    0    0  0.86707230011E+01 -0.50322048531E+01  0.42226980626E+02  0.43400719071E+02  0.00000000000E+00 0.  1.
         11    1    3    3    0    0  0.32686855038E+00  0.81948347189E+00 -0.13204665967E+02  0.13234107441E+02  0.51100000000E-03 0. -1.
        -11    1    3    3    0    0 -0.27058764119E+01 -0.32043287729E+01 -0.22393599013E+02  0.22782949042E+02  0.51100000000E-03 0.  1.
        -12    1    3    3    0    0 -0.62917151396E+01  0.74170501542E+01 -0.66287156470E+01  0.11770224446E+02  0.00000000000E+00 0.  1.
</event>
<event>
 7    1  0.4519225E-009  0.4778727E+02  0.7816164E-02  0.1312668E+00
        -11   -1    0    0    0    0  0.00000000000E+00  0.00000000000E+00  0.45593999997E+02  0.45594000000E+02  0.51100000000E-03 0. -1.
         11   -1    0    0    0    0 -0.00000000000E+00 -0.00000000000E+00 -0.45593999997E+02  0.45594000000E+02  0.51100000000E-03 0.  1.
    9900012    2    1    2    0    0 -0.11277297851E+02  0.15871669656E+02  0.38788347834E+02  0.47787271064E+02  0.20000000091E+02 0.  0.
        -12    1    1    2    0    0  0.11277297851E+02 -0.15871669656E+02 -0.38788347834E+02  0.43400728936E+02  0.00000000000E+00 0.  1.
         11    1    3    3    0    0 -0.54089663467E+01  0.24544525567E+01  0.11248302861E+02  0.12720281908E+02  0.51100000000E-03 0. -1.
        -11    1    3    3    0    0  0.30221039977E+01  0.32774426245E+01  0.18011268466E+02  0.18554798160E+02  0.51100000000E-03 0.  1.
        -12    1    3    3    0    0 -0.88904355020E+01  0.10139774475E+02  0.95287765061E+01  0.16512190997E+02  0.00000000000E+00 0.  1.
</event>
<event>
 7    1  0.4519225E-009  0.4778727E+02  0.7816164E-02  0.1312668E+00
        -11   -1    0    0    0    0  0.00000000000E+00  0.00000000000E+00  0.45593999997E+02  0.45594000000E+02  0.51100000000E-03 0. -1.
         11   -1    0    0    0    0 -0.00000000000E+00 -0.00000000000E+00 -0.45593999997E+02  0.45594000000E+02  0.51100000000E-03 0.  1.
    9900012    2    1    2    0    0 -0.57243681630E+01 -0.10087227775E+02  0.41822276058E+02  0.47787270401E+02  0.19999997067E+02 0.  0.
        -12    1    1    2    0    0  0.57243681630E+01  0.10087227775E+02 -0.41822276058E+02  0.43400729599E+02  0.00000000000E+00 0.  1.
         11    1    3    3    0    0  0.50487113642E+01 -0.45858424652E+00  0.14532032535E+02  0.15390898473E+02  0.51100000000E-03 0. -1.
        -11    1    3    3    0    0 -0.75428077505E+01 -0.16588894008E+01  0.18742664646E+02  0.20271490845E+02  0.51100000000E-03 0.  1.
        -12    1    3    3    0    0 -0.32302717768E+01 -0.79697541279E+01  0.85475788769E+01  0.12124881083E+02  0.00000000000E+00 0.  1.
</event>
<event>
 7    1  0.4519225E-009  0.4778727E+02  0.7816164E-02  0.1312668E+00
        -11   -1    0    0    0    0  0.00000000000E+00  0.00000000000E+00  0.45593999997E+02  0.45594000000E+02  0.51100000000E-03 0. -1.
         11   -1    0    0    0    0 -0.00000000000E+00 -0.00000000000E+00 -0.45593999997E+02  0.45594000000E+02  0.51100000000E-03 0.  1.
    9900012    2    1    2    0    0  0.49086976098E+01 -0.20605797260E+02  0.37880455977E+02  0.47787272610E+02  0.20000007140E+02 0.  0.
        -12    1    1    2    0    0 -0.49086976098E+01  0.20605797260E+02 -0.37880455977E+02  0.43400727390E+02  0.00000000000E+00 0.  1.
         11    1    3    3    0    0  0.28362879164E+01 -0.27592317685E+01  0.82318853860E+01  0.91335549687E+01  0.51100000000E-03 0. -1.
        -11    1    3    3    0    0 -0.34779501160E+01  0.16079815255E+01  0.18026906058E+01  0.42345525474E+01  0.51100000000E-03 0.  1.
         12    1    3    3    0    0  0.55503598094E+01 -0.19454547017E+02  0.27845879985E+02  0.34419165094E+02  0.00000000000E+00 0. -1.
</event>
<event>
 7    1  0.4519225E-009  0.4778727E+02  0.7816164E-02  0.1312668E+00
        -11   -1    0    0    0    0  0.00000000000E+00  0.00000000000E+00  0.45593999997E+02  0.45594000000E+02  0.51100000000E-03 0. -1.
         11   -1    0    0    0    0 -0.00000000000E+00 -0.00000000000E+00 -0.45593999997E+02  0.45594000000E+02  0.51100000000E-03 0.  1.
    9900012    2    1    2    0    0 -0.23944443221E+02 -0.33983193965E+02  0.12467152799E+02  0.47787265765E+02  0.19999975929E+02 0.  0.
        -12    1    1    2    0    0  0.23944443221E+02  0.33983193965E+02 -0.12467152799E+02  0.43400734235E+02  0.00000000000E+00 0.  1.
         11    1    3    3    0    0 -0.27400683255E+01 -0.21785378116E+01  0.62009775481E+01  0.71208232837E+01  0.51100000000E-03 0. -1.
        -11    1    3    3    0    0 -0.34069328902E+01 -0.13133649388E+02  0.60874273960E+01  0.14871338559E+02  0.51100000000E-03 0.  1.
         12    1    3    3    0    0 -0.17797442006E+02 -0.18671006765E+02  0.17874785447E+00  0.25795103922E+02  0.00000000000E+00 0. -1.
</event>
<event>
 7    1  0.4519225E-009  0.4778727E+02  0.7816164E-02  0.1312668E+00
        -11   -1    0    0    0    0  0.00000000000E+00  0.00000000000E+00  0.45593999997E+02  0.45594000000E+02  0.51100000000E-03 0.  1.
         11   -1    0    0    0    0 -0.00000000000E+00 -0.00000000000E+00 -0.45593999997E+02  0.45594000000E+02  0.51100000000E-03 0. -1.
    9900012    2    1    2    0    0 -0.82157222119E+01 -0.10136117729E+02 -0.41393047758E+02  0.47787269858E+02  0.19999994592E+02 0.  0.
        -12    1    1    2    0    0  0.82157222119E+01  0.10136117729E+02  0.41393047758E+02  0.43400730142E+02  0.00000000000E+00 0.  1.
         11    1    3    3    0    0 -0.12245724736E+02 -0.20786961318E+01 -0.21643761903E+02  0.24954582375E+02  0.51100000000E-03 0. -1.
        -11    1    3    3    0    0  0.30869058212E+00  0.12955308891E+01 -0.31466588626E+01  0.34168922164E+01  0.51100000000E-03 0.  1.
         12    1    3    3    0    0  0.37213119423E+01 -0.93529524867E+01 -0.16602626993E+02  0.19415795267E+02  0.00000000000E+00 0. -1.
</event>
<event>
 7    1  0.4519225E-009  0.4778726E+02  0.7816164E-02  0.1312668E+00
        -11   -1    0    0    0    0  0.00000000000E+00  0.00000000000E+00  0.45593999997E+02  0.45594000000E+02  0.51100000000E-03 0.  1.
         11   -1    0    0    0    0 -0.00000000000E+00 -0.00000000000E+00 -0.45593999997E+02  0.45594000000E+02  0.51100000000E-03 0. -1.
    9900012    2    1    2    0    0 -0.11478777282E+02 -0.15448686367E+02 -0.38899867171E+02  0.47787263782E+02  0.19999966886E+02 0.  0.
        -12    1    1    2    0    0  0.11478777282E+02  0.15448686367E+02  0.38899867171E+02  0.43400736218E+02  0.00000000000E+00 0.  1.
         11    1    3    3    0    0 -0.14211080027E+02 -0.82815438204E+01 -0.29562082934E+02  0.33829802116E+02  0.51100000000E-03 0. -1.
        -11    1    3    3    0    0 -0.19081612217E+01 -0.47981468276E+01 -0.46459067604E+01  0.69460594667E+01  0.51100000000E-03 0.  1.
        -12    1    3    3    0    0  0.46404639659E+01 -0.23689957190E+01 -0.46918774771E+01  0.70114021989E+01  0.00000000000E+00 0.  1.
</event>
<event>
 7    1  0.4519225E-009  0.4778727E+02  0.7816164E-02  0.1312668E+00
        -11   -1    0    0    0    0  0.00000000000E+00  0.00000000000E+00  0.45593999997E+02  0.45594000000E+02  0.51100000000E-03 0. -1.
         11   -1    0    0    0    0 -0.00000000000E+00 -0.00000000000E+00 -0.45593999997E+02  0.45594000000E+02  0.51100000000E-03 0.  1.
    9900012    2    1    2    0    0  0.35060885969E+02 -0.23553835526E+02 -0.99786977778E+01  0.47787270718E+02  0.19999998510E+02 0.  0.
        -12    1    1    2    0    0 -0.35060885969E+02  0.23553835526E+02  0.99786977778E+01  0.43400729282E+02  0.00000000000E+00 0.  1.
         11    1    3    3    0    0  0.15874205822E+02 -0.66053103260E+01  0.13378678037E+01  0.17245591481E+02  0.51100000000E-03 0. -1.
        -11    1    3    3    0    0  0.41442860517E+01 -0.54443560168E+01  0.22986295019E+01  0.72180203078E+01  0.51100000000E-03 0.  1.
         12    1    3    3    0    0  0.15042394095E+02 -0.11504169183E+02 -0.13615195083E+02  0.23323658929E+02  0.00000000000E+00 0. -1.
</event>
<event>
 7    1  0.4519225E-009  0.4778728E+02  0.7816164E-02  0.1312668E+00
        -11   -1    0    0    0    0  0.00000000000E+00  0.00000000000E+00  0.45593999997E+02  0.45594000000E+02  0.51100000000E-03 0. -1.
         11   -1    0    0    0    0 -0.00000000000E+00 -0.00000000000E+00 -0.45593999997E+02  0.45594000000E+02  0.51100000000E-03 0.  1.
    9900012    2    1    2    0    0 -0.35799201668E+01 -0.20929461489E+02  0.37851874210E+02  0.47787279179E+02  0.20000037087E+02 0.  0.
        -12    1    1    2    0    0  0.35799201668E+01  0.20929461489E+02 -0.37851874210E+02  0.43400720821E+02  0.00000000000E+00 0.  1.
         11    1    3    3    0    0  0.57916168260E+00 -0.36935025991E+01  0.17642557837E+02  0.18034334948E+02  0.51100000000E-03 0. -1.
        -11    1    3    3    0    0  0.42228926894E+01 -0.60741080877E+01  0.10093310402E+02  0.12514093129E+02  0.51100000000E-03 0.  1.
         12    1    3    3    0    0 -0.83819745388E+01 -0.11161850802E+02  0.10116005971E+02  0.17238851101E+02  0.00000000000E+00 0. -1.
</event>
<event>
 7    1  0.4519225E-009  0.4778727E+02  0.7816164E-02  0.1312668E+00
        -11   -1    0    0    0    0  0.00000000000E+00  0.00000000000E+00  0.45593999997E+02  0.45594000000E+02  0.51100000000E-03 0. -1.
         11   -1    0    0    0    0 -0.00000000000E+00 -0.00000000000E+00 -0.45593999997E+02  0.45594000000E+02  0.51100000000E-03 0.  1.
    9900012    2    1    2    0    0  0.39093267606E+01  0.36173650947E+02  0.23660252407E+02  0.47787269563E+02  0.19999993243E+02 0.  0.
        -12    1    1    2    0    0 -0.39093267606E+01 -0.36173650947E+02 -0.23660252407E+02  0.43400730437E+02  0.00000000000E+00 0.  1.
         11    1    3    3    0    0 -0.34424864946E+00  0.28867362166E+02  0.21053425151E+02  0.35730796470E+02  0.51100000000E-03 0. -1.
        -11    1    3    3    0    0  0.33482482140E+01  0.13627624792E+01  0.44825581150E+01  0.57585775321E+01  0.51100000000E-03 0.  1.
        -12    1    3    3    0    0  0.90532719603E+00  0.59435263019E+01 -0.18757308590E+01  0.62978955603E+01  0.00000000000E+00 0.  1.
</event>
<event>
 7    1  0.4519225E-009  0.4778727E+02  0.7816164E-02  0.1312668E+00
        -11   -1    0    0    0    0  0.00000000000E+00  0.00000000000E+00  0.45593999997E+02  0.45594000000E+02  0.51100000000E-03 0. -1.
         11   -1    0    0    0    0 -0.00000000000E+00 -0.00000000000E+00 -0.45593999997E+02  0.45594000000E+02  0.51100000000E-03 0.  1.
    9900012    2    1    2    0    0  0.80987272762E+01  0.37914692433E+02  0.19506669658E+02  0.47787269051E+02  0.19999990910E+02 0.  0.
        -12    1    1    2    0    0 -0.80987272762E+01 -0.37914692433E+02 -0.19506669658E+02  0.43400730949E+02  0.00000000000E+00 0.  1.
         11    1    3    3    0    0  0.30669452185E+01  0.32415578704E+02  0.10620943036E+02  0.34248800372E+02  0.51100000000E-03 0. -1.
        -11    1    3    3    0    0  0.30966568487E+01  0.70716145132E+01  0.67975501961E+01  0.10286092766E+02  0.51100000000E-03 0.  1.
         12    1    3    3    0    0  0.19351252090E+01 -0.15725007842E+01  0.20881764258E+01  0.32523759125E+01  0.00000000000E+00 0. -1.
</event>
<event>
 7    1  0.4519225E-009  0.4778726E+02  0.7816164E-02  0.1312668E+00
        -11   -1    0    0    0    0  0.00000000000E+00  0.00000000000E+00  0.45593999997E+02  0.45594000000E+02  0.51100000000E-03 0.  1.
         11   -1    0    0    0    0 -0.00000000000E+00 -0.00000000000E+00 -0.45593999997E+02  0.45594000000E+02  0.51100000000E-03 0. -1.
    9900012    2    1    2    0    0  0.43363667130E+01 -0.12535994501E+02 -0.41323949031E+02  0.47787262703E+02  0.19999961967E+02 0.  0.
        -12    1    1    2    0    0 -0.43363667130E+01  0.12535994501E+02  0.41323949031E+02  0.43400737297E+02  0.00000000000E+00 0.  1.
         11    1    3    3    0    0  0.14119577335E+01  0.22021872565E+01 -0.12788555250E+02  0.13053367343E+02  0.51100000000E-03 0. -1.
        -11    1    3    3    0    0  0.43782221161E+01  0.48140825746E+00 -0.79960539822E+01  0.91289354448E+01  0.51100000000E-03 0.  1.
        -12    1    3    3    0    0 -0.14538131366E+01 -0.15219590014E+02 -0.20539339800E+02  0.25604959915E+02  0.00000000000E+00 0.  1.
</event>
<event>
 7    1  0.4519225E-009  0.4778727E+02  0.7816164E-02  0.1312668E+00
        -11   -1    0    0    0    0  0.00000000000E+00  0.00000000000E+00  0.45593999997E+02  0.45594000000E+02  0.51100000000E-03 0.  1.
         11   -1    0    0    0    0 -0.00000000000E+00 -0.00000000000E+00 -0.45593999997E+02  0.45594000000E+02  0.51100000000E-03 0. -1.
    9900012    2    1    2    0    0 -0.35444583130E+02  0.18835593887E+02 -0.16508335301E+02  0.47787271841E+02  0.20000003633E+02 0.  0.
        -12    1    1    2    0    0  0.35444583130E+02 -0.18835593887E+02  0.16508335301E+02  0.43400728159E+02  0.00000000000E+00 0.  1.
         11    1    3    3    0    0 -0.13075909919E+01  0.11070370475E+01 -0.64523011846E+01  0.66758906570E+01  0.51100000000E-03 0. -1.
        -11    1    3    3    0    0 -0.11963962426E+02  0.11983167239E+01 -0.48701858829E+01  0.12972704834E+02  0.51100000000E-03 0.  1.
        -12    1    3    3    0    0 -0.22173029711E+02  0.16530240116E+02 -0.51858482335E+01  0.28138676351E+02  0.00000000000E+00 0.  1.
</event>
<event>
 7    1  0.4519225E-009  0.4778727E+02  0.7816164E-02  0.1312668E+00
        -11   -1    0    0    0    0  0.00000000000E+00  0.00000000000E+00  0.45593999997E+02  0.45594000000E+02  0.51100000000E-03 0.  1.
         11   -1    0    0    0    0 -0.00000000000E+00 -0.00000000000E+00 -0.45593999997E+02  0.45594000000E+02  0.51100000000E-03 0. -1.
    9900012    2    1    2    0    0 -0.48008168987E+01  0.42523208619E+02 -0.72354826345E+01  0.47787270477E+02  0.19999997415E+02 0.  0.
        -12    1    1    2    0    0  0.48008168987E+01 -0.42523208619E+02  0.72354826345E+01  0.43400729523E+02  0.00000000000E+00 0.  1.
         11    1    3    3    0    0 -0.44937443177E+01  0.28716908550E+02 -0.41220195048E+00  0.29069304866E+02  0.51100000000E-03 0. -1.
        -11    1    3    3    0    0 -0.50671670905E+01  0.45930663479E+01 -0.12753342236E+01  0.69569331205E+01  0.51100000000E-03 0.  1.
         12    1    3    3    0    0  0.47600945095E+01  0.92132337210E+01 -0.55479464605E+01  0.11761032491E+02  0.00000000000E+00 0. -1.
</event>
<event>
 7    1  0.4519225E-009  0.4778727E+02  0.7816164E-02  0.1312668E+00
        -11   -1    0    0    0    0  0.00000000000E+00  0.00000000000E+00  0.45593999997E+02  0.45594000000E+02  0.51100000000E-03 0. -1.
         11   -1    0    0    0    0 -0.00000000000E+00 -0.00000000000E+00 -0.45593999997E+02  0.45594000000E+02  0.51100000000E-03 0.  1.
    9900012    2    1    2    0    0  0.70037677008E+01  0.28229810927E+02  0.32212550713E+02  0.47787269472E+02  0.19999992829E+02 0.  0.
        -12    1    1    2    0    0 -0.70037677008E+01 -0.28229810927E+02 -0.32212550713E+02  0.43400730528E+02  0.00000000000E+00 0.  1.
         11    1    3    3    0    0 -0.23847029689E+00  0.46359140620E+00  0.62501895642E+01  0.62718940460E+01  0.51100000000E-03 0. -1.
        -11    1    3    3    0    0  0.44111723460E+01  0.52201766580E+01  0.14576803436E+02  0.16099437396E+02  0.51100000000E-03 0.  1.
         12    1    3    3    0    0  0.28310656517E+01  0.22546042863E+02  0.11385557713E+02  0.25415938030E+02  0.00000000000E+00 0. -1.
</event>
<event>
 7    1  0.4519225E-009  0.4778727E+02  0.7816164E-02  0.1312668E+00
        -11   -1    0    0    0    0  0.00000000000E+00  0.00000000000E+00  0.45593999997E+02  0.45594000000E+02  0.51100000000E-03 0. -1.
         11   -1    0    0    0    0 -0.00000000000E+00 -0.00000000000E+00 -0.45593999997E+02  0.45594000000E+02  0.51100000000E-03 0.  1.
    9900012    2    1    2    0    0 -0.15356980127E+02 -0.37016796296E+02 -0.16659618975E+02  0.47787274764E+02  0.20000016958E+02 0.  0.
        -12    1    1    2    0    0  0.15356980127E+02  0.37016796296E+02  0.16659618975E+02  0.43400725236E+02  0.00000000000E+00 0.  1.
         11    1    3    3    0    0 -0.54032743158E+01 -0.20320579544E+02 -0.10982734018E+02  0.23722178929E+02  0.51100000000E-03 0. -1.
        -11    1    3    3    0    0  0.29403700210E+01 -0.39822783836E+01 -0.29232165310E+01  0.57488705093E+01  0.51100000000E-03 0.  1.
         12    1    3    3    0    0 -0.12894075832E+02 -0.12713938368E+02 -0.27536684263E+01  0.18316225326E+02  0.00000000000E+00 0. -1.
</event>
<event>
 7    1  0.4519225E-009  0.4778732E+02  0.7816164E-02  0.1312668E+00
        -11   -1    0    0    0    0  0.00000000000E+00  0.00000000000E+00  0.45593999997E+02  0.45594000000E+02  0.51100000000E-03 0.  1.
         11   -1    0    0    0    0 -0.00000000000E+00 -0.00000000000E+00 -0.45593999997E+02  0.45594000000E+02  0.51100000000E-03 0. -1.
    9900012    2    1    2    0    0 -0.33050407379E+02 -0.53912094685E+01 -0.27608418780E+02  0.47787316192E+02  0.20000205846E+02 0.  0.
        -12    1    1    2    0    0  0.33050407379E+02  0.53912094685E+01  0.27608418780E+02  0.43400683808E+02  0.00000000000E+00 0.  1.
         11    1    3    3    0    0 -0.72552650824E+01  0.15818216362E+01 -0.14733999373E+02  0.16499447533E+02  0.51100000000E-03 0. -1.
        -11    1    3    3    0    0 -0.11460245306E+02 -0.67576050747E+01 -0.10055621312E+02  0.16676869282E+02  0.51100000000E-03 0.  1.
        -12    1    3    3    0    0 -0.14334896991E+02 -0.21542602999E+00 -0.28187980948E+01  0.14610999378E+02  0.00000000000E+00 0.  1.
</event>
<event>
 7    1  0.4519225E-009  0.4778727E+02  0.7816164E-02  0.1312668E+00
        -11   -1    0    0    0    0  0.00000000000E+00  0.00000000000E+00  0.45593999997E+02  0.45594000000E+02  0.51100000000E-03 0.  1.
         11   -1    0    0    0    0 -0.00000000000E+00 -0.00000000000E+00 -0.45593999997E+02  0.45594000000E+02  0.51100000000E-03 0. -1.
    9900012    2    1    2    0    0 -0.10644201926E+02  0.29846873498E+02 -0.29656165682E+02  0.47787273564E+02  0.20000011487E+02 0.  0.
        -12    1    1    2    0    0  0.10644201926E+02 -0.29846873498E+02  0.29656165682E+02  0.43400726436E+02  0.00000000000E+00 0.  1.
         11    1    3    3    0    0 -0.13816819622E+01  0.18358244027E+02 -0.11267606574E+02  0.21584557604E+02  0.51100000000E-03 0. -1.
        -11    1    3    3    0    0 -0.67301522715E+01  0.60600741770E+01 -0.27633817633E+01  0.94686708496E+01  0.51100000000E-03 0.  1.
         12    1    3    3    0    0 -0.25323676919E+01  0.54285552945E+01 -0.15625177344E+02  0.16734045110E+02  0.00000000000E+00 0. -1.
</event>
<event>
 7    1  0.4519225E-009  0.4778727E+02  0.7816164E-02  0.1312668E+00
        -11   -1    0    0    0    0  0.00000000000E+00  0.00000000000E+00  0.45593999997E+02  0.45594000000E+02  0.51100000000E-03 0.  1.
         11   -1    0    0    0    0 -0.00000000000E+00 -0.00000000000E+00 -0.45593999997E+02  0.45594000000E+02  0.51100000000E-03 0. -1.
    9900012    2    1    2    0    0 -0.78245983410E+01  0.43591449035E+00 -0.42687340414E+02  0.47787269681E+02  0.19999993783E+02 0.  0.
        -12    1    1    2    0    0  0.78245983410E+01 -0.43591449035E+00  0.42687340414E+02  0.43400730319E+02  0.00000000000E+00 0.  1.
         11    1    3    3    0    0 -0.40080134063E+01  0.64700883766E+01 -0.16950739578E+02  0.18581006097E+02  0.51100000000E-03 0. -1.
        -11    1    3    3    0    0 -0.19167250272E+01 -0.14196975415E+01 -0.23694609699E+02  0.23814363417E+02  0.51100000000E-03 0.  1.
        -12    1    3    3    0    0 -0.18998599075E+01 -0.46144763448E+01 -0.20419911370E+01  0.53919001667E+01  0.00000000000E+00 0.  1.
</event>
<event>
 7    1  0.4519225E-009  0.4778727E+02  0.7816164E-02  0.1312668E+00
        -11   -1    0    0    0    0  0.00000000000E+00  0.00000000000E+00  0.45593999997E+02  0.45594000000E+02  0.51100000000E-03 0. -1.
         11   -1    0    0    0    0 -0.00000000000E+00 -0.00000000000E+00 -0.45593999997E+02  0.45594000000E+02  0.51100000000E-03 0.  1.
    9900012    2    1    2    0    0  0.44592398755E+01  0.43121739372E+02 -0.20625515937E+01  0.47787270216E+02  0.19999996221E+02 0.  0.
        -12    1    1    2    0    0 -0.44592398755E+01 -0.43121739372E+02  0.20625515937E+01  0.43400729784E+02  0.00000000000E+00 0.  1.
         11    1    3    3    0    0 -0.37111011662E+01  0.17382885365E+02 -0.36463383902E+01  0.18144772233E+02  0.51100000000E-03 0. -1.
        -11    1    3    3    0    0  0.22789559937E+01  0.11574631418E+02 -0.51712526414E+01  0.12880511908E+02  0.51100000000E-03 0.  1.
        -12    1    3    3    0    0  0.58913850481E+01  0.14164222590E+02  0.67550394380E+01  0.16761986074E+02  0.00000000000E+00 0.  1.
</event>
<event>
 7    1  0.4519225E-009  0.4778725E+02  0.7816164E-02  0.1312668E+00
        -11   -1    0    0    0    0  0.00000000000E+00  0.00000000000E+00  0.45593999997E+02  0.45594000000E+02  0.51100000000E-03 0.  1.
         11   -1    0    0    0    0 -0.00000000000E+00 -0.00000000000E+00 -0.45593999997E+02  0.45594000000E+02  0.51100000000E-03 0. -1.
    9900012    2    1    2    0    0  0.35779701721E+02 -0.13240380622E+02 -0.20691307283E+02  0.47787251949E+02  0.19999912938E+02 0.  0.
        -12    1    1    2    0    0 -0.35779701721E+02  0.13240380622E+02  0.20691307283E+02  0.43400748051E+02  0.00000000000E+00 0.  1.
         11    1    3    3    0    0  0.20634934536E+02 -0.59376695429E+01 -0.15800582615E+02  0.26659235813E+02  0.51100000000E-03 0. -1.
        -11    1    3    3    0    0  0.96106153447E+01 -0.76782262549E+01 -0.80915493789E+01  0.14723866929E+02  0.51100000000E-03 0.  1.
        -12    1    3    3    0    0  0.55341518411E+01  0.37551517547E+00  0.32008247110E+01  0.64041492079E+01  0.00000000000E+00 0.  1.
</event>
<event>
 7    1  0.4519225E-009  0.4778727E+02  0.7816164E-02  0.1312668E+00
        -11   -1    0    0    0    0  0.00000000000E+00  0.00000000000E+00  0.45593999997E+02  0.45594000000E+02  0.51100000000E-03 0. -1.
         11   -1    0    0    0    0 -0.00000000000E+00 -0.00000000000E+00 -0.45593999997E+02  0.45594000000E+02  0.51100000000E-03 0.  1.
    9900012    2    1    2    0    0 -0.25721314630E+02  0.71009191814E+01  0.34228845516E+02  0.47787274835E+02  0.20000017281E+02 0.  0.
        -12    1    1    2    0    0  0.25721314630E+02 -0.71009191814E+01 -0.34228845516E+02  0.43400725165E+02  0.00000000000E+00 0.  1.
         11    1    3    3    0    0 -0.83906239949E+01 -0.32660544093E+01  0.11172244379E+02  0.14348823198E+02  0.51100000000E-03 0. -1.
        -11    1    3    3    0    0  0.74268293174E-01  0.17926685966E+01  0.97447331722E+01  0.99085317447E+01  0.51100000000E-03 0.  1.
         12    1    3    3    0    0 -0.17404958928E+02  0.85743049942E+01  0.13311867965E+02  0.23529919892E+02  0.00000000000E+00 0. -1.
</event>
<event>
 7    1  0.4519225E-009  0.4778727E+02  0.7816164E-02  0.1312668E+00
        -11   -1    0    0    0    0  0.00000000000E+00  0.00000000000E+00  0.45593999997E+02  0.45594000000E+02  0.51100000000E-03 0.  1.
         11   -1    0    0    0    0 -0.00000000000E+00 -0.00000000000E+00 -0.45593999997E+02  0.45594000000E+02  0.51100000000E-03 0. -1.
    9900012    2    1    2    0    0  0.64117547585E+01 -0.41274604168E+02  0.11786423328E+02  0.47787270476E+02  0.19999997410E+02 0.  0.
        -12    1    1    2    0    0 -0.64117547585E+01  0.41274604168E+02 -0.11786423328E+02  0.43400729524E+02  0.00000000000E+00 0.  1.
         11    1    3    3    0    0 -0.64019345022E+00 -0.22989872862E+02  0.91191385802E+01  0.24740711198E+02  0.51100000000E-03 0. -1.
        -11    1    3    3    0    0 -0.12750180687E+01 -0.25493380314E+01 -0.32154430056E+01  0.42969604905E+01  0.51100000000E-03 0.  1.
         12    1    3    3    0    0  0.83269662774E+01 -0.15735393275E+02  0.58827277528E+01  0.18749598788E+02  0.00000000000E+00 0. -1.
</event>
<event>
 7    1  0.4519225E-009  0.4778728E+02  0.7816164E-02  0.1312668E+00
        -11   -1    0    0    0    0  0.00000000000E+00  0.00000000000E+00  0.45593999997E+02  0.45594000000E+02  0.51100000000E-03 0.  1.
         11   -1    0    0    0    0 -0.00000000000E+00 -0.00000000000E+00 -0.45593999997E+02  0.45594000000E+02  0.51100000000E-03 0. -1.
    9900012    2    1    2    0    0 -0.35483058209E+02  0.24237806160E+02  0.60912830123E+01  0.47787281158E+02  0.20000046111E+02 0.  0.
        -12    1    1    2    0    0  0.35483058209E+02 -0.24237806160E+02 -0.60912830123E+01  0.43400718842E+02  0.00000000000E+00 0.  1.
         11    1    3    3    0    0 -0.40982024690E+00 -0.16877398004E+01  0.73541000624E+00  0.18860663846E+01  0.51100000000E-03 0.  1.
        -11    1    3    3    0    0 -0.19249857603E+02  0.91830509426E+01  0.78567498596E+01  0.22729143428E+02  0.51100000000E-03 0. -1.
        -12    1    3    3    0    0 -0.15823380358E+02  0.16742495018E+02 -0.25008768536E+01  0.23172071345E+02  0.00000000000E+00 0.  1.
</event>
<event>
 7    1  0.4519225E-009  0.4778727E+02  0.7816164E-02  0.1312668E+00
        -11   -1    0    0    0    0  0.00000000000E+00  0.00000000000E+00  0.45593999997E+02  0.45594000000E+02  0.51100000000E-03 0.  1.
         11   -1    0    0    0    0 -0.00000000000E+00 -0.00000000000E+00 -0.45593999997E+02  0.45594000000E+02  0.51100000000E-03 0. -1.
    9900012    2    1    2    0    0 -0.15104744091E+02  0.35093500443E+02 -0.20589221402E+02  0.47787272986E+02  0.20000008854E+02 0.  0.
        -12    1    1    2    0    0  0.15104744091E+02 -0.35093500443E+02  0.20589221402E+02  0.43400727014E+02  0.00000000000E+00 0.  1.
         11    1    3    3    0    0 -0.59323379283E+01  0.22972182428E+02 -0.11757810089E+02  0.26479424034E+02  0.51100000000E-03 0. -1.
        -11    1    3    3    0    0 -0.11378164653E+02  0.12752757967E+02 -0.79601368190E+01  0.18853626841E+02  0.51100000000E-03 0.  1.
        -12    1    3    3    0    0  0.22057584900E+01 -0.63143995220E+00 -0.87127449351E+00  0.24542221115E+01  0.00000000000E+00 0.  1.
</event>
<event>
 7    1  0.4519225E-009  0.4778727E+02  0.7816164E-02  0.1312668E+00
        -11   -1    0    0    0    0  0.00000000000E+00  0.00000000000E+00  0.45593999997E+02  0.45594000000E+02  0.51100000000E-03 0.  1.
         11   -1    0    0    0    0 -0.00000000000E+00 -0.00000000000E+00 -0.45593999997E+02  0.45594000000E+02  0.51100000000E-03 0. -1.
    9900012    2    1    2    0    0  0.17433338593E+02  0.39033627436E+02 -0.74885286833E+01  0.47787269278E+02  0.19999991948E+02 0.  0.
        -12    1    1    2    0    0 -0.17433338593E+02 -0.39033627436E+02  0.74885286833E+01  0.43400730722E+02  0.00000000000E+00 0.  1.
         11    1    3    3    0    0  0.11638247293E+02  0.15245865213E+02 -0.59792145442E+01  0.20090699663E+02  0.51100000000E-03 0. -1.
        -11    1    3    3    0    0  0.90579053749E+01  0.13492832876E+02  0.19231300903E+01  0.16364614826E+02  0.51100000000E-03 0.  1.
         12    1    3    3    0    0 -0.32628140746E+01  0.10294929348E+02 -0.34324442295E+01  0.11331954789E+02  0.00000000000E+00 0. -1.
</event>
<event>
 7    1  0.4519225E-009  0.4778727E+02  0.7816164E-02  0.1312668E+00
        -11   -1    0    0    0    0  0.00000000000E+00  0.00000000000E+00  0.45593999997E+02  0.45594000000E+02  0.51100000000E-03 0. -1.
         11   -1    0    0    0    0 -0.00000000000E+00 -0.00000000000E+00 -0.45593999997E+02  0.45594000000E+02  0.51100000000E-03 0.  1.
    9900012    2    1    2    0    0 -0.51580267957E+01 -0.24234824374E+02  0.35632730655E+02  0.47787269053E+02  0.19999990919E+02 0.  0.
        -12    1    1    2    0    0  0.51580267957E+01  0.24234824374E+02 -0.35632730655E+02  0.43400730947E+02  0.00000000000E+00 0.  1.
         11    1    3    3    0    0  0.98208528933E+00  0.27111630715E+00  0.11499729971E+00  0.10252903041E+01  0.51100000000E-03 0. -1.
        -11    1    3    3    0    0 -0.65811375374E+00 -0.94651586287E+01  0.27020589692E+02  0.28637992408E+02  0.51100000000E-03 0.  1.
         12    1    3    3    0    0 -0.54819983312E+01 -0.15040782052E+02  0.84971436626E+01  0.18123986341E+02  0.00000000000E+00 0. -1.
</event>
<event>
 7    1  0.4519225E-009  0.4778727E+02  0.7816164E-02  0.1312668E+00
        -11   -1    0    0    0    0  0.00000000000E+00  0.00000000000E+00  0.45593999997E+02  0.45594000000E+02  0.51100000000E-03 0.  1.
         11   -1    0    0    0    0 -0.00000000000E+00 -0.00000000000E+00 -0.45593999997E+02  0.45594000000E+02  0.51100000000E-03 0. -1.
    9900012    2    1    2    0    0  0.22373491663E+02 -0.76732728809E+01 -0.36389160240E+02  0.47787271563E+02  0.20000002365E+02 0.  0.
        -12    1    1    2    0    0 -0.22373491663E+02  0.76732728809E+01  0.36389160240E+02  0.43400728437E+02  0.00000000000E+00 0.  1.
         11    1    3    3    0    0  0.73937005919E+01 -0.24640737219E+01 -0.35717085530E+01  0.85729557329E+01  0.51100000000E-03 0. -1.
        -11    1    3    3    0    0 -0.66990439730E+00 -0.80997000250E+00  0.11495558602E+01  0.15576592193E+01  0.51100000000E-03 0.  1.
         12    1    3    3    0    0  0.15649695468E+02 -0.43992291565E+01 -0.33967007547E+02  0.37656656611E+02  0.00000000000E+00 0. -1.
</event>
<event>
 7    1  0.4519225E-009  0.4778727E+02  0.7816164E-02  0.1312668E+00
        -11   -1    0    0    0    0  0.00000000000E+00  0.00000000000E+00  0.45593999997E+02  0.45594000000E+02  0.51100000000E-03 0.  1.
         11   -1    0    0    0    0 -0.00000000000E+00 -0.00000000000E+00 -0.45593999997E+02  0.45594000000E+02  0.51100000000E-03 0. -1.
    9900012    2    1    2    0    0  0.23681030737E+02  0.12348196447E+02 -0.34210438626E+02  0.47787270936E+02  0.19999999507E+02 0.  0.
        -12    1    1    2    0    0 -0.23681030737E+02 -0.12348196447E+02  0.34210438626E+02  0.43400729064E+02  0.00000000000E+00 0.  1.
         11    1    3    3    0    0  0.61772416635E+00  0.33688842021E+01  0.11416777457E+01  0.36103174721E+01  0.51100000000E-03 0. -1.
        -11    1    3    3    0    0  0.63056452144E+01 -0.18114973921E+01 -0.87579758617E+01  0.10942797898E+02  0.51100000000E-03 0.  1.
         12    1    3    3    0    0  0.16757661356E+02  0.10790809637E+02 -0.26594140510E+02  0.33234155567E+02  0.00000000000E+00 0. -1.
</event>
<event>
 7    1  0.4519225E-009  0.4778727E+02  0.7816164E-02  0.1312668E+00
        -11   -1    0    0    0    0  0.00000000000E+00  0.00000000000E+00  0.45593999997E+02  0.45594000000E+02  0.51100000000E-03 0.  1.
         11   -1    0    0    0    0 -0.00000000000E+00 -0.00000000000E+00 -0.45593999997E+02  0.45594000000E+02  0.51100000000E-03 0. -1.
    9900012    2    1    2    0    0  0.40284073184E+02  0.39739572649E+01 -0.15653253109E+02  0.47787271647E+02  0.20000002749E+02 0.  0.
        -12    1    1    2    0    0 -0.40284073184E+02 -0.39739572649E+01  0.15653253109E+02  0.43400728353E+02  0.00000000000E+00 0.  1.
         11    1    3    3    0    0  0.17954254563E+02 -0.48639318926E+01 -0.96567029145E+01  0.20958649809E+02  0.51100000000E-03 0. -1.
        -11    1    3    3    0    0  0.19398791953E+02  0.30339637696E+01 -0.48722413442E+01  0.20230096425E+02  0.51100000000E-03 0.  1.
        -12    1    3    3    0    0  0.29310266676E+01  0.58039253879E+01 -0.11243088507E+01  0.65985254131E+01  0.00000000000E+00 0.  1.
</event>
<event>
 7    1  0.4519225E-009  0.4778727E+02  0.7816164E-02  0.1312668E+00
        -11   -1    0    0    0    0  0.00000000000E+00  0.00000000000E+00  0.45593999997E+02  0.45594000000E+02  0.51100000000E-03 0. -1.
         11   -1    0    0    0    0 -0.00000000000E+00 -0.00000000000E+00 -0.45593999997E+02  0.45594000000E+02  0.51100000000E-03 0.  1.
    9900012    2    1    2    0    0 -0.42273319664E+02 -0.40833705134E+01 -0.89395576063E+01  0.47787272353E+02  0.20000005964E+02 0.  0.
        -12    1    1    2    0    0  0.42273319664E+02  0.40833705134E+01  0.89395576063E+01  0.43400727647E+02  0.00000000000E+00 0.  1.
         11    1    3    3    0    0 -0.71839623475E+00  0.19100228020E+01  0.25899906628E+00  0.20570272316E+01  0.51100000000E-03 0. -1.
        -11    1    3    3    0    0 -0.14620954762E+02 -0.73723881087E+01  0.20634466175E+01  0.16504006688E+02  0.51100000000E-03 0.  1.
         12    1    3    3    0    0 -0.26933968667E+02  0.13789947933E+01 -0.11262003290E+02  0.29226238433E+02  0.00000000000E+00 0. -1.
</event>
<event>
 7    1  0.4519225E-009  0.4778728E+02  0.7816164E-02  0.1312668E+00
        -11   -1    0    0    0    0  0.00000000000E+00  0.00000000000E+00  0.45593999997E+02  0.45594000000E+02  0.51100000000E-03 0. -1.
         11   -1    0    0    0    0 -0.00000000000E+00 -0.00000000000E+00 -0.45593999997E+02  0.45594000000E+02  0.51100000000E-03 0.  1.
    9900012    2    1    2    0    0 -0.40911626902E+02  0.13915307568E+02  0.40281397122E+01  0.47787275236E+02  0.20000019111E+02 0.  0.
        -12    1    1    2    0    0  0.40911626902E+02 -0.13915307568E+02 -0.40281397122E+01  0.43400724764E+02  0.00000000000E+00 0.  1.
         11    1    3    3    0    0 -0.98464843981E+01  0.61484365254E+01 -0.11741485770E+01  0.11667696939E+02  0.51100000000E-03 0. -1.
        -11    1    3    3    0    0 -0.20877745453E+01  0.57532380639E+01 -0.15164761794E+01  0.63054144222E+01  0.51100000000E-03 0.  1.
         12    1    3    3    0    0 -0.28977367959E+02  0.20136329783E+01  0.67187644687E+01  0.29814163875E+02  0.00000000000E+00 0. -1.
</event>
<event>
 7    1  0.4519225E-009  0.4778727E+02  0.7816164E-02  0.1312668E+00
        -11   -1    0    0    0    0  0.00000000000E+00  0.00000000000E+00  0.45593999997E+02  0.45594000000E+02  0.51100000000E-03 0. -1.
         11   -1    0    0    0    0 -0.00000000000E+00 -0.00000000000E+00 -0.45593999997E+02  0.45594000000E+02  0.51100000000E-03 0.  1.
    9900012    2    1    2    0    0 -0.22419668322E+02  0.20674958641E+02 -0.30879242144E+02  0.47787273764E+02  0.20000012399E+02 0.  0.
        -12    1    1    2    0    0  0.22419668322E+02 -0.20674958641E+02  0.30879242144E+02  0.43400726236E+02  0.00000000000E+00 0.  1.
         11    1    3    3    0    0 -0.17425370186E+02  0.13840948916E+02 -0.18438728933E+02  0.28899863632E+02  0.51100000000E-03 0.  1.
        -11    1    3    3    0    0 -0.80070900912E+01  0.24817321475E+01 -0.50153895668E+01  0.97686549202E+01  0.51100000000E-03 0. -1.
         12    1    3    3    0    0  0.30127919559E+01  0.43522775776E+01 -0.74251236443E+01  0.91187552119E+01  0.00000000000E+00 0. -1.
</event>
<event>
 7    1  0.4519225E-009  0.4778727E+02  0.7816164E-02  0.1312668E+00
        -11   -1    0    0    0    0  0.00000000000E+00  0.00000000000E+00  0.45593999997E+02  0.45594000000E+02  0.51100000000E-03 0. -1.
         11   -1    0    0    0    0 -0.00000000000E+00 -0.00000000000E+00 -0.45593999997E+02  0.45594000000E+02  0.51100000000E-03 0.  1.
    9900012    2    1    2    0    0 -0.43156510811E+02 -0.29775510810E+01  0.35032439017E+01  0.47787274734E+02  0.20000016821E+02 0.  0.
        -12    1    1    2    0    0  0.43156510811E+02  0.29775510810E+01 -0.35032439017E+01  0.43400725266E+02  0.00000000000E+00 0.  1.
         11    1    3    3    0    0 -0.28157009571E+02  0.17196376416E+01  0.31579837528E+01  0.28385686591E+02  0.51100000000E-03 0. -1.
        -11    1    3    3    0    0 -0.88686943512E+01  0.24223661507E+01  0.29438439088E+01  0.96533835769E+01  0.51100000000E-03 0.  1.
         12    1    3    3    0    0 -0.61308068880E+01 -0.71195548733E+01 -0.25985837599E+01  0.97482045654E+01  0.00000000000E+00 0. -1.
</event>
<event>
 7    1  0.4519225E-009  0.4778727E+02  0.7816164E-02  0.1312668E+00
        -11   -1    0    0    0    0  0.00000000000E+00  0.00000000000E+00  0.45593999997E+02  0.45594000000E+02  0.51100000000E-03 0. -1.
         11   -1    0    0    0    0 -0.00000000000E+00 -0.00000000000E+00 -0.45593999997E+02  0.45594000000E+02  0.51100000000E-03 0.  1.
    9900012    2    1    2    0    0 -0.29275648464E+02  0.28550719372E+02  0.14540153799E+02  0.47787271410E+02  0.20000001668E+02 0.  0.
        -12    1    1    2    0    0  0.29275648464E+02 -0.28550719372E+02 -0.14540153799E+02  0.43400728590E+02  0.00000000000E+00 0.  1.
         11    1    3    3    0    0 -0.33163435979E+01  0.12226444152E+02  0.46055032771E+01  0.13479418836E+02  0.51100000000E-03 0. -1.
        -11    1    3    3    0    0 -0.49487064459E+01  0.80568547128E+01 -0.42749754066E+00  0.94649541869E+01  0.51100000000E-03 0.  1.
        -12    1    3    3    0    0 -0.21010598420E+02  0.82674205068E+01  0.10362148062E+02  0.24842898387E+02  0.00000000000E+00 0.  1.
</event>
<event>
 7    1  0.4519225E-009  0.4778727E+02  0.7816164E-02  0.1312668E+00
        -11   -1    0    0    0    0  0.00000000000E+00  0.00000000000E+00  0.45593999997E+02  0.45594000000E+02  0.51100000000E-03 0. -1.
         11   -1    0    0    0    0 -0.00000000000E+00 -0.00000000000E+00 -0.45593999997E+02  0.45594000000E+02  0.51100000000E-03 0.  1.
    9900012    2    1    2    0    0 -0.53130814625E+01  0.33279416165E+02  0.27347310128E+02  0.47787265604E+02  0.19999975195E+02 0.  0.
        -12    1    1    2    0    0  0.53130814625E+01 -0.33279416165E+02 -0.27347310128E+02  0.43400734396E+02  0.00000000000E+00 0.  1.
         11    1    3    3    0    0 -0.37107092443E+00  0.11550048326E+02  0.75513557976E+01  0.13804502331E+02  0.51100000000E-03 0. -1.
        -11    1    3    3    0    0 -0.51107490964E+00  0.35825030938E+01  0.13946494940E+02  0.14408339507E+02  0.51100000000E-03 0.  1.
        -12    1    3    3    0    0 -0.44309356284E+01  0.18146864745E+02  0.58494593903E+01  0.19574423766E+02  0.00000000000E+00 0.  1.
</event>
<event>
 7    1  0.4519225E-009  0.4778727E+02  0.7816164E-02  0.1312668E+00
        -11   -1    0    0    0    0  0.00000000000E+00  0.00000000000E+00  0.45593999997E+02  0.45594000000E+02  0.51100000000E-03 0.  1.
         11   -1    0    0    0    0 -0.00000000000E+00 -0.00000000000E+00 -0.45593999997E+02  0.45594000000E+02  0.51100000000E-03 0. -1.
    9900012    2    1    2    0    0 -0.33463341034E+02  0.10811849890E+02 -0.25434867652E+02  0.47787265172E+02  0.19999973224E+02 0.  0.
        -12    1    1    2    0    0  0.33463341034E+02 -0.10811849890E+02  0.25434867652E+02  0.43400734828E+02  0.00000000000E+00 0.  1.
         11    1    3    3    0    0 -0.11442608769E+02  0.96784726315E+01 -0.27465862411E+01  0.15236464950E+02  0.51100000000E-03 0. -1.
        -11    1    3    3    0    0 -0.37320870585E+01 -0.12352879930E+01 -0.95070829601E+00  0.40445341837E+01  0.51100000000E-03 0.  1.
        -12    1    3    3    0    0 -0.18288645206E+02  0.23686652519E+01 -0.21737573114E+02  0.28506266038E+02  0.00000000000E+00 0.  1.
</event>
<event>
 7    1  0.4519225E-009  0.4778727E+02  0.7816164E-02  0.1312668E+00
        -11   -1    0    0    0    0  0.00000000000E+00  0.00000000000E+00  0.45593999997E+02  0.45594000000E+02  0.51100000000E-03 0.  1.
         11   -1    0    0    0    0 -0.00000000000E+00 -0.00000000000E+00 -0.45593999997E+02  0.45594000000E+02  0.51100000000E-03 0. -1.
    9900012    2    1    2    0    0 -0.20976510007E+02  0.33428307225E+02 -0.18059828074E+02  0.47787273208E+02  0.20000009864E+02 0.  0.
        -12    1    1    2    0    0  0.20976510007E+02 -0.33428307225E+02  0.18059828074E+02  0.43400726792E+02  0.00000000000E+00 0.  1.
         11    1    3    3    0    0 -0.16965656136E+01  0.60180960945E+01 -0.75547159061E+01  0.98066073729E+01  0.51100000000E-03 0. -1.
        -11    1    3    3    0    0 -0.14149892928E+02  0.94833952317E+01 -0.90212975565E+01  0.19275322692E+02  0.51100000000E-03 0.  1.
        -12    1    3    3    0    0 -0.51300514656E+01  0.17926815899E+02 -0.14838146115E+01  0.18705343143E+02  0.00000000000E+00 0.  1.
</event>
<event>
 7    1  0.4519225E-009  0.4778727E+02  0.7816164E-02  0.1312668E+00
        -11   -1    0    0    0    0  0.00000000000E+00  0.00000000000E+00  0.45593999997E+02  0.45594000000E+02  0.51100000000E-03 0.  1.
         11   -1    0    0    0    0 -0.00000000000E+00 -0.00000000000E+00 -0.45593999997E+02  0.45594000000E+02  0.51100000000E-03 0. -1.
    9900012    2    1    2    0    0  0.34803818544E+02  0.15580286389E+02 -0.20726117626E+02  0.47787273496E+02  0.20000011177E+02 0.  0.
        -12    1    1    2    0    0 -0.34803818544E+02 -0.15580286389E+02  0.20726117626E+02  0.43400726504E+02  0.00000000000E+00 0.  1.
         11    1    3    3    0    0  0.16756464115E+02  0.10673257213E+02 -0.20263230557E+02  0.28377738142E+02  0.51100000000E-03 0. -1.
        -11    1    3    3    0    0  0.93244763914E+01  0.40379690359E+01 -0.23800682211E+01  0.10436272271E+02  0.51100000000E-03 0.  1.
         12    1    3    3    0    0  0.87228780378E+01  0.86906014040E+00  0.19171811521E+01  0.89732630832E+01  0.00000000000E+00 0. -1.
</event>
<event>
 7    1  0.4519225E-009  0.4778727E+02  0.7816164E-02  0.1312668E+00
        -11   -1    0    0    0    0  0.00000000000E+00  0.00000000000E+00  0.45593999997E+02  0.45594000000E+02  0.51100000000E-03 0.  1.
         11   -1    0    0    0    0 -0.00000000000E+00 -0.00000000000E+00 -0.45593999997E+02  0.45594000000E+02  0.51100000000E-03 0. -1.
    9900012    2    1    2    0    0 -0.32731786112E+02  0.30057205448E+01 -0.28341119905E+02  0.47787271256E+02  0.20000000963E+02 0.  0.
        -12    1    1    2    0    0  0.32731786112E+02 -0.30057205448E+01  0.28341119905E+02  0.43400728744E+02  0.00000000000E+00 0.  1.
         11    1    3    3    0    0 -0.96069778669E+01 -0.12020710987E+01 -0.91042930060E+01  0.13290114750E+02  0.51100000000E-03 0. -1.
        -11    1    3    3    0    0 -0.22044026220E+02 -0.13355315515E+01 -0.11445292603E+02  0.24874031831E+02  0.51100000000E-03 0.  1.
         12    1    3    3    0    0 -0.10807820260E+01  0.55433231949E+01 -0.77915342956E+01  0.96231246750E+01  0.00000000000E+00 0. -1.
</event>
<event>
 7    1  0.4519225E-009  0.4778728E+02  0.7816164E-02  0.1312668E+00
        -11   -1    0    0    0    0  0.00000000000E+00  0.00000000000E+00  0.45593999997E+02  0.45594000000E+02  0.51100000000E-03 0.  1.
         11   -1    0    0    0    0 -0.00000000000E+00 -0.00000000000E+00 -0.45593999997E+02  0.45594000000E+02  0.51100000000E-03 0. -1.
    9900012    2    1    2    0    0 -0.70012868017E+01  0.40123748790E+02 -0.14989634355E+02  0.47787281436E+02  0.20000047378E+02 0.  0.
        -12    1    1    2    0    0  0.70012868017E+01 -0.40123748790E+02  0.14989634355E+02  0.43400718564E+02  0.00000000000E+00 0.  1.
         11    1    3    3    0    0 -0.48859158949E+01  0.12074760658E+02 -0.51387545565E+00  0.13035953641E+02  0.51100000000E-03 0. -1.
        -11    1    3    3    0    0  0.23147196908E+01  0.78126556401E+01  0.18739225294E+01  0.83610466632E+01  0.51100000000E-03 0.  1.
         12    1    3    3    0    0 -0.44300905976E+01  0.20236332492E+02 -0.16349681428E+02  0.26390281132E+02  0.00000000000E+00 0. -1.
</event>
<event>
 7    1  0.4519225E-009  0.4778727E+02  0.7816164E-02  0.1312668E+00
        -11   -1    0    0    0    0  0.00000000000E+00  0.00000000000E+00  0.45593999997E+02  0.45594000000E+02  0.51100000000E-03 0.  1.
         11   -1    0    0    0    0 -0.00000000000E+00 -0.00000000000E+00 -0.45593999997E+02  0.45594000000E+02  0.51100000000E-03 0. -1.
    9900012    2    1    2    0    0 -0.33947837656E+02  0.24529191225E+02 -0.11379201955E+02  0.47787272577E+02  0.20000006987E+02 0.  0.
        -12    1    1    2    0    0  0.33947837656E+02 -0.24529191225E+02  0.11379201955E+02  0.43400727423E+02  0.00000000000E+00 0.  1.
         11    1    3    3    0    0 -0.15136536062E+02  0.61185362496E+01 -0.78331380953E+01  0.18108265032E+02  0.51100000000E-03 0. -1.
        -11    1    3    3    0    0 -0.15255095845E+02  0.10429168333E+02  0.30521796683E+01  0.18729690396E+02  0.51100000000E-03 0.  1.
         12    1    3    3    0    0 -0.35562057502E+01  0.79814866433E+01 -0.65982435283E+01  0.10949317149E+02  0.00000000000E+00 0. -1.
</event>
<event>
 7    1  0.4519225E-009  0.4778728E+02  0.7816164E-02  0.1312668E+00
        -11   -1    0    0    0    0  0.00000000000E+00  0.00000000000E+00  0.45593999997E+02  0.45594000000E+02  0.51100000000E-03 0. -1.
         11   -1    0    0    0    0 -0.00000000000E+00 -0.00000000000E+00 -0.45593999997E+02  0.45594000000E+02  0.51100000000E-03 0.  1.
    9900012    2    1    2    0    0  0.24637859917E+02  0.19888654492E+02  0.29682321243E+02  0.47787275200E+02  0.20000018946E+02 0.  0.
        -12    1    1    2    0    0 -0.24637859917E+02 -0.19888654492E+02 -0.29682321243E+02  0.43400724800E+02  0.00000000000E+00 0.  1.
         11    1    3    3    0    0  0.89275590851E+00  0.10833965363E+01 -0.93998563485E-01  0.14069815770E+01  0.51100000000E-03 0. -1.
        -11    1    3    3    0    0  0.39031487568E+01 -0.99722413746E+00 -0.15735193475E+01  0.43249265423E+01  0.51100000000E-03 0.  1.
         12    1    3    3    0    0  0.19841955252E+02  0.19802482093E+02  0.31349839154E+02  0.42055367080E+02  0.00000000000E+00 0. -1.
</event>
<event>
 7    1  0.4519225E-009  0.4778727E+02  0.7816164E-02  0.1312668E+00
        -11   -1    0    0    0    0  0.00000000000E+00  0.00000000000E+00  0.45593999997E+02  0.45594000000E+02  0.51100000000E-03 0.  1.
         11   -1    0    0    0    0 -0.00000000000E+00 -0.00000000000E+00 -0.45593999997E+02  0.45594000000E+02  0.51100000000E-03 0. -1.
    9900012    2    1    2    0    0  0.21506897295E+02 -0.79394499765E+01 -0.36851614619E+02  0.47787274232E+02  0.20000014532E+02 0.  0.
        -12    1    1    2    0    0 -0.21506897295E+02  0.79394499765E+01  0.36851614619E+02  0.43400725768E+02  0.00000000000E+00 0.  1.
         11    1    3    3    0    0  0.73648552056E+01  0.34166910635E+01 -0.13164986010E+02  0.15467117603E+02  0.51100000000E-03 0. -1.
        -11    1    3    3    0    0  0.25635449995E+01  0.21705736241E+01 -0.10486723467E+01  0.35189297768E+01  0.51100000000E-03 0.  1.
         12    1    3    3    0    0  0.11578497090E+02 -0.13526714664E+02 -0.22637956262E+02  0.28801226852E+02  0.00000000000E+00 0. -1.
</event>
<event>
 7    1  0.4519225E-009  0.4778727E+02  0.7816164E-02  0.1312668E+00
        -11   -1    0    0    0    0  0.00000000000E+00  0.00000000000E+00  0.45593999997E+02  0.45594000000E+02  0.51100000000E-03 0. -1.
         11   -1    0    0    0    0 -0.00000000000E+00 -0.00000000000E+00 -0.45593999997E+02  0.45594000000E+02  0.51100000000E-03 0.  1.
    9900012    2    1    2    0    0  0.20736599216E+02  0.14450253383E+02  0.35281824792E+02  0.47787268088E+02  0.19999986519E+02 0.  0.
        -12    1    1    2    0    0 -0.20736599216E+02 -0.14450253383E+02 -0.35281824792E+02  0.43400731912E+02  0.00000000000E+00 0.  1.
         11    1    3    3    0    0  0.60132194248E+01  0.22061842088E+00  0.13139469019E+02  0.14451751682E+02  0.51100000000E-03 0. -1.
        -11    1    3    3    0    0  0.40319480592E+01 -0.26987212639E+01  0.51438997944E+01  0.70710258780E+01  0.51100000000E-03 0.  1.
        -12    1    3    3    0    0  0.10691431732E+02  0.16928356226E+02  0.16998455979E+02  0.26264490527E+02  0.00000000000E+00 0.  1.
</event>
<event>
 7    1  0.4519225E-009  0.4778727E+02  0.7816164E-02  0.1312668E+00
        -11   -1    0    0    0    0  0.00000000000E+00  0.00000000000E+00  0.45593999997E+02  0.45594000000E+02  0.51100000000E-03 0.  1.
         11   -1    0    0    0    0 -0.00000000000E+00 -0.00000000000E+00 -0.45593999997E+02  0.45594000000E+02  0.51100000000E-03 0. -1.
    9900012    2    1    2    0    0  0.19501262987E+02  0.19212514028E+02 -0.33677934238E+02  0.47787271804E+02  0.20000003465E+02 0.  0.
        -12    1    1    2    0    0 -0.19501262987E+02 -0.19212514028E+02  0.33677934238E+02  0.43400728196E+02  0.00000000000E+00 0.  1.
         11    1    3    3    0    0 -0.19271436173E+01  0.97404735870E+00  0.31172061749E+00  0.21817013506E+01  0.51100000000E-03 0. -1.
        -11    1    3    3    0    0 -0.11042734994E+01  0.10205172322E+01 -0.42706196332E+01  0.45275896121E+01  0.51100000000E-03 0.  1.
         12    1    3    3    0    0  0.22532680104E+02  0.17217949437E+02 -0.29719035223E+02  0.41077980842E+02  0.00000000000E+00 0. -1.
</event>
<event>
 7    1  0.4519225E-009  0.4778727E+02  0.7816164E-02  0.1312668E+00
        -11   -1    0    0    0    0  0.00000000000E+00  0.00000000000E+00  0.45593999997E+02  0.45594000000E+02  0.51100000000E-03 0. -1.
         11   -1    0    0    0    0 -0.00000000000E+00 -0.00000000000E+00 -0.45593999997E+02  0.45594000000E+02  0.51100000000E-03 0.  1.
    9900012    2    1    2    0    0  0.74243414458E+01 -0.31905918187E+01  0.42641796111E+02  0.47787268467E+02  0.19999988248E+02 0.  0.
        -12    1    1    2    0    0 -0.74243414458E+01  0.31905918187E+01 -0.42641796111E+02  0.43400731533E+02  0.00000000000E+00 0.  1.
         11    1    3    3    0    0  0.10843694972E+02 -0.95809817621E+00  0.24253523508E+02  0.26584526995E+02  0.51100000000E-03 0. -1.
        -11    1    3    3    0    0  0.16407547851E+01 -0.43994790663E+01  0.11234607887E+02  0.12176366739E+02  0.51100000000E-03 0.  1.
        -12    1    3    3    0    0 -0.50601083113E+01  0.21669854237E+01  0.71536647159E+01  0.90263747328E+01  0.00000000000E+00 0.  1.
</event>
<event>
 7    1  0.4519225E-009  0.4778727E+02  0.7816164E-02  0.1312668E+00
        -11   -1    0    0    0    0  0.00000000000E+00  0.00000000000E+00  0.45593999997E+02  0.45594000000E+02  0.51100000000E-03 0.  1.
         11   -1    0    0    0    0 -0.00000000000E+00 -0.00000000000E+00 -0.45593999997E+02  0.45594000000E+02  0.51100000000E-03 0. -1.
    9900012    2    1    2    0    0  0.19161824158E+02 -0.30701494225E+01 -0.38820379463E+02  0.47787272078E+02  0.20000004712E+02 0.  0.
        -12    1    1    2    0    0 -0.19161824158E+02  0.30701494225E+01  0.38820379463E+02  0.43400727922E+02  0.00000000000E+00 0.  1.
         11    1    3    3    0    0  0.42561200134E+01  0.51654942514E+01 -0.68565685841E+01  0.95817233022E+01  0.51100000000E-03 0.  1.
        -11    1    3    3    0    0  0.39083569148E+01 -0.19953760062E+01 -0.21049687959E+02  0.21502235758E+02  0.51100000000E-03 0. -1.
         12    1    3    3    0    0  0.10997347230E+02 -0.62402676676E+01 -0.10914122920E+02  0.16703313018E+02  0.00000000000E+00 0. -1.
</event>
<event>
 7    1  0.4519225E-009  0.4778727E+02  0.7816164E-02  0.1312668E+00
        -11   -1    0    0    0    0  0.00000000000E+00  0.00000000000E+00  0.45593999997E+02  0.45594000000E+02  0.51100000000E-03 0.  1.
         11   -1    0    0    0    0 -0.00000000000E+00 -0.00000000000E+00 -0.45593999997E+02  0.45594000000E+02  0.51100000000E-03 0. -1.
    9900012    2    1    2    0    0 -0.35903508055E+02  0.46822107302E+01 -0.23929861819E+02  0.47787271036E+02  0.19999999960E+02 0.  0.
        -12    1    1    2    0    0  0.35903508055E+02 -0.46822107302E+01  0.23929861819E+02  0.43400728964E+02  0.00000000000E+00 0.  1.
         11    1    3    3    0    0 -0.91415503718E+00  0.45833032166E+01 -0.14906529249E+01  0.49055472896E+01  0.51100000000E-03 0.  1.
        -11    1    3    3    0    0 -0.17826432699E+02  0.51371704754E+01 -0.98142012124E+01  0.20987871949E+02  0.51100000000E-03 0. -1.
        -12    1    3    3    0    0 -0.17162920318E+02 -0.50382629617E+01 -0.12625007682E+02  0.21893851797E+02  0.00000000000E+00 0.  1.
</event>
<event>
 7    1  0.4519225E-009  0.4778727E+02  0.7816164E-02  0.1312668E+00
        -11   -1    0    0    0    0  0.00000000000E+00  0.00000000000E+00  0.45593999997E+02  0.45594000000E+02  0.51100000000E-03 0. -1.
         11   -1    0    0    0    0 -0.00000000000E+00 -0.00000000000E+00 -0.45593999997E+02  0.45594000000E+02  0.51100000000E-03 0.  1.
    9900012    2    1    2    0    0  0.33009107557E+02  0.12216076175E+02  0.25392708711E+02  0.47787270115E+02  0.19999995764E+02 0.  0.
        -12    1    1    2    0    0 -0.33009107557E+02 -0.12216076175E+02 -0.25392708711E+02  0.43400729885E+02  0.00000000000E+00 0.  1.
         11    1    3    3    0    0  0.18493092873E+02  0.11208642550E+02  0.14620909939E+02  0.26103623494E+02  0.51100000000E-03 0. -1.
        -11    1    3    3    0    0  0.11312147892E+02  0.60224299377E+01  0.65921654147E+01  0.14411488382E+02  0.51100000000E-03 0.  1.
        -12    1    3    3    0    0  0.32038667921E+01 -0.50149963133E+01  0.41796333576E+01  0.72721582387E+01  0.00000000000E+00 0.  1.
</event>
<event>
 7    1  0.4519225E-009  0.4778727E+02  0.7816164E-02  0.1312668E+00
        -11   -1    0    0    0    0  0.00000000000E+00  0.00000000000E+00  0.45593999997E+02  0.45594000000E+02  0.51100000000E-03 0. -1.
         11   -1    0    0    0    0 -0.00000000000E+00 -0.00000000000E+00 -0.45593999997E+02  0.45594000000E+02  0.51100000000E-03 0.  1.
    9900012    2    1    2    0    0 -0.22371240298E+01  0.30499427059E+02  0.30796159888E+02  0.47787271449E+02  0.20000001846E+02 0.  0.
        -12    1    1    2    0    0  0.22371240298E+01 -0.30499427059E+02 -0.30796159888E+02  0.43400728551E+02  0.00000000000E+00 0.  1.
         11    1    3    3    0    0  0.77967244483E-01  0.15669025498E+02  0.20810043573E+02  0.26049613293E+02  0.51100000000E-03 0. -1.
        -11    1    3    3    0    0 -0.31658042355E+01  0.15379265702E+02  0.11812867795E+02  0.19649121502E+02  0.51100000000E-03 0.  1.
        -12    1    3    3    0    0  0.85071296115E+00 -0.54886414050E+00 -0.18267514798E+01  0.20885366542E+01  0.00000000000E+00 0.  1.
</event>
<event>
 7    1  0.4519225E-009  0.4778727E+02  0.7816164E-02  0.1312668E+00
        -11   -1    0    0    0    0  0.00000000000E+00  0.00000000000E+00  0.45593999997E+02  0.45594000000E+02  0.51100000000E-03 0. -1.
         11   -1    0    0    0    0 -0.00000000000E+00 -0.00000000000E+00 -0.45593999997E+02  0.45594000000E+02  0.51100000000E-03 0.  1.
    9900012    2    1    2    0    0  0.10439318116E+02 -0.14542487697E+02  0.39536815811E+02  0.47787272868E+02  0.20000008313E+02 0.  0.
        -12    1    1    2    0    0 -0.10439318116E+02  0.14542487697E+02 -0.39536815811E+02  0.43400727132E+02  0.00000000000E+00 0.  1.
         11    1    3    3    0    0  0.75446918366E+01 -0.43798308915E+01  0.17504116779E+02  0.19557591825E+02  0.51100000000E-03 0. -1.
        -11    1    3    3    0    0  0.85425634132E+01 -0.54445065308E+01  0.14598599987E+02  0.17768994425E+02  0.51100000000E-03 0.  1.
         12    1    3    3    0    0 -0.56479371343E+01 -0.47181502747E+01  0.74340990452E+01  0.10460686617E+02  0.00000000000E+00 0. -1.
</event>
<event>
 7    1  0.4519225E-009  0.4778727E+02  0.7816164E-02  0.1312668E+00
        -11   -1    0    0    0    0  0.00000000000E+00  0.00000000000E+00  0.45593999997E+02  0.45594000000E+02  0.51100000000E-03 0.  1.
         11   -1    0    0    0    0 -0.00000000000E+00 -0.00000000000E+00 -0.45593999997E+02  0.45594000000E+02  0.51100000000E-03 0. -1.
    9900012    2    1    2    0    0 -0.33626081767E+02 -0.13108183528E+02 -0.24105717011E+02  0.47787269096E+02  0.19999991115E+02 0.  0.
        -12    1    1    2    0    0  0.33626081767E+02  0.13108183528E+02  0.24105717011E+02  0.43400730904E+02  0.00000000000E+00 0.  1.
         11    1    3    3    0    0 -0.23849230330E+01 -0.11904992152E+01 -0.64958812588E+01  0.70215112223E+01  0.51100000000E-03 0. -1.
        -11    1    3    3    0    0 -0.13531857161E+02 -0.12808475998E+02 -0.12022883798E+02  0.22174714219E+02  0.51100000000E-03 0.  1.
        -12    1    3    3    0    0 -0.17709301572E+02  0.89079168477E+00 -0.55869519542E+01  0.18591043654E+02  0.00000000000E+00 0.  1.
</event>
<event>
 7    1  0.4519225E-009  0.4778727E+02  0.7816164E-02  0.1312668E+00
        -11   -1    0    0    0    0  0.00000000000E+00  0.00000000000E+00  0.45593999997E+02  0.45594000000E+02  0.51100000000E-03 0. -1.
         11   -1    0    0    0    0 -0.00000000000E+00 -0.00000000000E+00 -0.45593999997E+02  0.45594000000E+02  0.51100000000E-03 0.  1.
    9900012    2    1    2    0    0 -0.25052012907E+01  0.75531036707E+01  0.42664953807E+02  0.47787266228E+02  0.19999978040E+02 0.  0.
        -12    1    1    2    0    0  0.25052012907E+01 -0.75531036707E+01 -0.42664953807E+02  0.43400733772E+02  0.00000000000E+00 0.  1.
         11    1    3    3    0    0 -0.86565084416E+00  0.81931383624E+01  0.15055804041E+02  0.17162578571E+02  0.51100000000E-03 0. -1.
        -11    1    3    3    0    0 -0.18212582591E+01  0.38638153126E+01  0.25109967939E+02  0.25470699649E+02  0.51100000000E-03 0.  1.
        -12    1    3    3    0    0  0.18170781264E+00 -0.45038500043E+01  0.24991818272E+01  0.51539880089E+01  0.00000000000E+00 0.  1.
</event>
<event>
 7    1  0.4519225E-009  0.4778727E+02  0.7816164E-02  0.1312668E+00
        -11   -1    0    0    0    0  0.00000000000E+00  0.00000000000E+00  0.45593999997E+02  0.45594000000E+02  0.51100000000E-03 0.  1.
         11   -1    0    0    0    0 -0.00000000000E+00 -0.00000000000E+00 -0.45593999997E+02  0.45594000000E+02  0.51100000000E-03 0. -1.
    9900012    2    1    2    0    0  0.21549392684E+02 -0.35154730382E+02 -0.13542224922E+02  0.47787271330E+02  0.20000001302E+02 0.  0.
        -12    1    1    2    0    0 -0.21549392684E+02  0.35154730382E+02  0.13542224922E+02  0.43400728670E+02  0.00000000000E+00 0.  1.
         11    1    3    3    0    0  0.82155800943E+01 -0.84179444002E+01  0.23862655986E+01  0.12002158472E+02  0.51100000000E-03 0. -1.
        -11    1    3    3    0    0 -0.20144893566E+01 -0.49549097619E+01 -0.19354033333E+01  0.56881529902E+01  0.51100000000E-03 0.  1.
         12    1    3    3    0    0  0.15348301946E+02 -0.21781876220E+02 -0.13993087187E+02  0.30096959868E+02  0.00000000000E+00 0. -1.
</event>
<event>
 7    1  0.4519225E-009  0.4778726E+02  0.7816164E-02  0.1312668E+00
        -11   -1    0    0    0    0  0.00000000000E+00  0.00000000000E+00  0.45593999997E+02  0.45594000000E+02  0.51100000000E-03 0.  1.
         11   -1    0    0    0    0 -0.00000000000E+00 -0.00000000000E+00 -0.45593999997E+02  0.45594000000E+02  0.51100000000E-03 0. -1.
    9900012    2    1    2    0    0  0.69091429319E+01 -0.25840770954E+02 -0.34178100525E+02  0.47787259741E+02  0.19999948463E+02 0.  0.
        -12    1    1    2    0    0 -0.69091429319E+01  0.25840770954E+02  0.34178100525E+02  0.43400740259E+02  0.00000000000E+00 0.  1.
         11    1    3    3    0    0  0.24202265158E+01 -0.15121186915E+02 -0.22647399825E+02  0.27338846157E+02  0.51100000000E-03 0. -1.
        -11    1    3    3    0    0  0.23500044266E+01 -0.13240783280E+02 -0.81751008790E+01  0.15737634426E+02  0.51100000000E-03 0.  1.
        -12    1    3    3    0    0  0.21389119894E+01  0.25211992418E+01 -0.33555998206E+01  0.47107791576E+01  0.00000000000E+00 0.  1.
</event>
<event>
 7    1  0.4519225E-009  0.4778727E+02  0.7816164E-02  0.1312668E+00
        -11   -1    0    0    0    0  0.00000000000E+00  0.00000000000E+00  0.45593999997E+02  0.45594000000E+02  0.51100000000E-03 0. -1.
         11   -1    0    0    0    0 -0.00000000000E+00 -0.00000000000E+00 -0.45593999997E+02  0.45594000000E+02  0.51100000000E-03 0.  1.
    9900012    2    1    2    0    0 -0.37779969208E+02 -0.79881042003E+01  0.19811299286E+02  0.47787268883E+02  0.19999990147E+02 0.  0.
        -12    1    1    2    0    0  0.37779969208E+02  0.79881042003E+01 -0.19811299286E+02  0.43400731117E+02  0.00000000000E+00 0.  1.
         11    1    3    3    0    0 -0.75756594645E+01 -0.45093177056E+01  0.13446171710E+02  0.16078684536E+02  0.51100000000E-03 0. -1.
        -11    1    3    3    0    0 -0.67921527079E+01 -0.72687541868E+00 -0.12323140542E+01  0.69412019471E+01  0.51100000000E-03 0.  1.
        -12    1    3    3    0    0 -0.23412157036E+02 -0.27519110760E+01  0.75974416294E+01  0.24767382400E+02  0.00000000000E+00 0.  1.
</event>
<event>
 7    1  0.4519225E-009  0.4778727E+02  0.7816164E-02  0.1312668E+00
        -11   -1    0    0    0    0  0.00000000000E+00  0.00000000000E+00  0.45593999997E+02  0.45594000000E+02  0.51100000000E-03 0.  1.
         11   -1    0    0    0    0 -0.00000000000E+00 -0.00000000000E+00 -0.45593999997E+02  0.45594000000E+02  0.51100000000E-03 0. -1.
    9900012    2    1    2    0    0  0.10791186490E+01 -0.65957395696E+01 -0.42883038449E+02  0.47787271157E+02  0.20000000511E+02 0.  0.
        -12    1    1    2    0    0 -0.10791186490E+01  0.65957395696E+01  0.42883038449E+02  0.43400728843E+02  0.00000000000E+00 0.  1.
         11    1    3    3    0    0  0.84166761279E+01  0.27923888559E+01 -0.17115427116E+02  0.19276299390E+02  0.51100000000E-03 0. -1.
        -11    1    3    3    0    0 -0.36340851041E+01 -0.39044982545E+01 -0.14420892879E+02  0.15375754708E+02  0.51100000000E-03 0.  1.
         12    1    3    3    0    0 -0.37034723748E+01 -0.54836301709E+01 -0.11346718454E+02  0.13135217058E+02  0.00000000000E+00 0. -1.
</event>
<event>
 7    1  0.4519225E-009  0.4778727E+02  0.7816164E-02  0.1312668E+00
        -11   -1    0    0    0    0  0.00000000000E+00  0.00000000000E+00  0.45593999997E+02  0.45594000000E+02  0.51100000000E-03 0. -1.
         11   -1    0    0    0    0 -0.00000000000E+00 -0.00000000000E+00 -0.45593999997E+02  0.45594000000E+02  0.51100000000E-03 0.  1.
    9900012    2    1    2    0    0  0.29959772365E+02 -0.19123123297E+02  0.24906655660E+02  0.47787270732E+02  0.19999998578E+02 0.  0.
        -12    1    1    2    0    0 -0.29959772365E+02  0.19123123297E+02 -0.24906655660E+02  0.43400729268E+02  0.00000000000E+00 0.  1.
         11    1    3    3    0    0  0.95598837025E+01 -0.56839666036E+01  0.70029847242E+00  0.11144024002E+02  0.51100000000E-03 0. -1.
        -11    1    3    3    0    0  0.10754776028E+02 -0.83642108043E+01  0.49108266034E+01  0.14482453106E+02  0.51100000000E-03 0.  1.
        -12    1    3    3    0    0  0.96451126349E+01 -0.50749458890E+01  0.19295530584E+02  0.22160793624E+02  0.00000000000E+00 0.  1.
</event>
<event>
 7    1  0.4519225E-009  0.4778728E+02  0.7816164E-02  0.1312668E+00
        -11   -1    0    0    0    0  0.00000000000E+00  0.00000000000E+00  0.45593999997E+02  0.45594000000E+02  0.51100000000E-03 0. -1.
         11   -1    0    0    0    0 -0.00000000000E+00 -0.00000000000E+00 -0.45593999997E+02  0.45594000000E+02  0.51100000000E-03 0.  1.
    9900012    2    1    2    0    0 -0.14220531890E+02  0.40274980568E+02 -0.77022850669E+01  0.47787276708E+02  0.20000025823E+02 0.  0.
        -12    1    1    2    0    0  0.14220531890E+02 -0.40274980568E+02  0.77022850669E+01  0.43400723292E+02  0.00000000000E+00 0.  1.
         11    1    3    3    0    0  0.94652738997E+00  0.10690256350E+02 -0.17585741075E+01  0.10875204737E+02  0.51100000000E-03 0. -1.
        -11    1    3    3    0    0  0.19611410707E+01  0.10125926198E+00  0.85738321192E+00  0.21427631625E+01  0.51100000000E-03 0.  1.
        -12    1    3    3    0    0 -0.17128200350E+02  0.29483464957E+02 -0.68010941713E+01  0.34769308808E+02  0.00000000000E+00 0.  1.
</event>
<event>
 7    1  0.4519225E-009  0.4778727E+02  0.7816164E-02  0.1312668E+00
        -11   -1    0    0    0    0  0.00000000000E+00  0.00000000000E+00  0.45593999997E+02  0.45594000000E+02  0.51100000000E-03 0.  1.
         11   -1    0    0    0    0 -0.00000000000E+00 -0.00000000000E+00 -0.45593999997E+02  0.45594000000E+02  0.51100000000E-03 0. -1.
    9900012    2    1    2    0    0 -0.95250622234E+01  0.32362734318E+02 -0.27304756046E+02  0.47787273213E+02  0.20000009887E+02 0.  0.
        -12    1    1    2    0    0  0.95250622234E+01 -0.32362734318E+02  0.27304756046E+02  0.43400726787E+02  0.00000000000E+00 0.  1.
         11    1    3    3    0    0  0.18227288006E+01  0.12780306668E+02 -0.11931086412E+02  0.17578663261E+02  0.51100000000E-03 0. -1.
        -11    1    3    3    0    0  0.28227809891E+01  0.25505925597E+01 -0.28907571187E+01  0.47780845428E+01  0.51100000000E-03 0.  1.
         12    1    3    3    0    0 -0.14170572013E+02  0.17031835090E+02 -0.12482912516E+02  0.25430525409E+02  0.00000000000E+00 0. -1.
</event>
<event>
 7    1  0.4519225E-009  0.4778727E+02  0.7816164E-02  0.1312668E+00
        -11   -1    0    0    0    0  0.00000000000E+00  0.00000000000E+00  0.45593999997E+02  0.45594000000E+02  0.51100000000E-03 0. -1.
         11   -1    0    0    0    0 -0.00000000000E+00 -0.00000000000E+00 -0.45593999997E+02  0.45594000000E+02  0.51100000000E-03 0.  1.
    9900012    2    1    2    0    0  0.11931814042E+02  0.38967013270E+02  0.14927391756E+02  0.47787270350E+02  0.19999996832E+02 0.  0.
        -12    1    1    2    0    0 -0.11931814042E+02 -0.38967013270E+02 -0.14927391756E+02  0.43400729650E+02  0.00000000000E+00 0.  1.
         11    1    3    3    0    0 -0.37682891926E-01  0.66401588156E+01  0.30160497792E+01  0.72931259161E+01  0.51100000000E-03 0. -1.
        -11    1    3    3    0    0  0.67585420281E+01  0.10497000603E+02 -0.38553621570E+01  0.13066320432E+02  0.51100000000E-03 0.  1.
        -12    1    3    3    0    0  0.52109549061E+01  0.21829853851E+02  0.15766704134E+02  0.27427824002E+02  0.00000000000E+00 0.  1.
</event>
<event>
 7    1 -0.3351040E-008  0.4778727E+02  0.7816164E-02  0.1312668E+00
        -11   -1    0    0    0    0  0.00000000000E+00  0.00000000000E+00  0.45593999997E+02  0.45594000000E+02  0.51100000000E-03 0.  1.
         11   -1    0    0    0    0 -0.00000000000E+00 -0.00000000000E+00 -0.45593999997E+02  0.45594000000E+02  0.51100000000E-03 0. -1.
    9900012    2    1    2    0    0 -0.41627381087E+02  0.59371278317E+00 -0.12265064816E+02  0.47787272288E+02  0.20000005669E+02 0.  0.
        -12    1    1    2    0    0  0.41627381087E+02 -0.59371278317E+00  0.12265064816E+02  0.43400727712E+02  0.00000000000E+00 0.  1.
         11    1    3    3    0    0 -0.11835871121E+02  0.27261918018E+01 -0.69531945280E-01  0.12145978836E+02  0.51100000000E-03 0. -1.
        -11    1    3    3    0    0 -0.30828421708E+02 -0.42137957770E+01 -0.10837296051E+02  0.32948363325E+02  0.51100000000E-03 0.  1.
        -12    1    3    3    0    0  0.10369117418E+01  0.20813167584E+01 -0.13582368206E+01  0.26929301272E+01  0.00000000000E+00 0.  1.
</event>
<event>
 7    1  0.4519225E-009  0.4778727E+02  0.7816164E-02  0.1312668E+00
        -11   -1    0    0    0    0  0.00000000000E+00  0.00000000000E+00  0.45593999997E+02  0.45594000000E+02  0.51100000000E-03 0. -1.
         11   -1    0    0    0    0 -0.00000000000E+00 -0.00000000000E+00 -0.45593999997E+02  0.45594000000E+02  0.51100000000E-03 0.  1.
    9900012    2    1    2    0    0 -0.30359895873E+02 -0.31006656763E+02  0.69793269181E+00  0.47787272459E+02  0.20000006450E+02 0.  0.
        -12    1    1    2    0    0  0.30359895873E+02  0.31006656763E+02 -0.69793269181E+00  0.43400727541E+02  0.00000000000E+00 0.  1.
         11    1    3    3    0    0 -0.79497648187E+01 -0.36285950931E+01  0.14529833678E+01  0.88587032883E+01  0.51100000000E-03 0. -1.
        -11    1    3    3    0    0 -0.88861130728E+01 -0.66171507323E+01 -0.73413952150E+01  0.13290815375E+02  0.51100000000E-03 0.  1.
         12    1    3    3    0    0 -0.13524017981E+02 -0.20760910938E+02  0.65863445391E+01  0.25637753796E+02  0.00000000000E+00 0. -1.
</event>
<event>
 7    1  0.4519225E-009  0.4778727E+02  0.7816164E-02  0.1312668E+00
        -11   -1    0    0    0    0  0.00000000000E+00  0.00000000000E+00  0.45593999997E+02  0.45594000000E+02  0.51100000000E-03 0.  1.
         11   -1    0    0    0    0 -0.00000000000E+00 -0.00000000000E+00 -0.45593999997E+02  0.45594000000E+02  0.51100000000E-03 0. -1.
    9900012    2    1    2    0    0 -0.13840532457E+02  0.40778337023E+02  0.54028097120E+01  0.47787268879E+02  0.19999990126E+02 0.  0.
        -12    1    1    2    0    0  0.13840532457E+02 -0.40778337023E+02 -0.54028097120E+01  0.43400731121E+02  0.00000000000E+00 0.  1.
         11    1    3    3    0    0 -0.40175192428E+01  0.20248513124E+02  0.86131294737E+01  0.22368029510E+02  0.51100000000E-03 0. -1.
        -11    1    3    3    0    0 -0.33092971367E+01  0.26114247774E+01  0.32132872331E+01  0.53005850630E+01  0.51100000000E-03 0.  1.
         12    1    3    3    0    0 -0.65137160776E+01  0.17918399122E+02 -0.64236069948E+01  0.20118654306E+02  0.00000000000E+00 0. -1.
</event>
<event>
 7    1  0.4519225E-009  0.4778727E+02  0.7816164E-02  0.1312668E+00
        -11   -1    0    0    0    0  0.00000000000E+00  0.00000000000E+00  0.45593999997E+02  0.45594000000E+02  0.51100000000E-03 0.  1.
         11   -1    0    0    0    0 -0.00000000000E+00 -0.00000000000E+00 -0.45593999997E+02  0.45594000000E+02  0.51100000000E-03 0. -1.
    9900012    2    1    2    0    0 -0.97917386419E+00 -0.31164008602E+02 -0.30190541910E+02  0.47787273802E+02  0.20000012575E+02 0.  0.
        -12    1    1    2    0    0  0.97917386419E+00  0.31164008602E+02  0.30190541910E+02  0.43400726198E+02  0.00000000000E+00 0.  1.
         11    1    3    3    0    0 -0.26864873155E+01 -0.12413576046E+02 -0.11536755463E+02  0.17158403516E+02  0.51100000000E-03 0. -1.
        -11    1    3    3    0    0  0.11951094350E-01 -0.12051116518E+02 -0.20223926046E+02  0.23542233054E+02  0.51100000000E-03 0.  1.
         12    1    3    3    0    0  0.16953623570E+01 -0.66993160388E+01  0.15701395993E+01  0.70866372329E+01  0.00000000000E+00 0. -1.
</event>
<event>
 7    1  0.4519225E-009  0.4778725E+02  0.7816164E-02  0.1312668E+00
        -11   -1    0    0    0    0  0.00000000000E+00  0.00000000000E+00  0.45593999997E+02  0.45594000000E+02  0.51100000000E-03 0.  1.
         11   -1    0    0    0    0 -0.00000000000E+00 -0.00000000000E+00 -0.45593999997E+02  0.45594000000E+02  0.51100000000E-03 0. -1.
    9900012    2    1    2    0    0 -0.76547540576E+00 -0.24889033961E+02 -0.35546806143E+02  0.47787246653E+02  0.19999888788E+02 0.  0.
        -12    1    1    2    0    0  0.76547540576E+00  0.24889033961E+02  0.35546806143E+02  0.43400753347E+02  0.00000000000E+00 0.  1.
         11    1    3    3    0    0 -0.72396050641E+01 -0.13831479223E+02 -0.24969807368E+02  0.29448480083E+02  0.51100000000E-03 0. -1.
        -11    1    3    3    0    0  0.18666264198E+01 -0.13672023138E+01 -0.64328939344E+01  0.68363485130E+01  0.51100000000E-03 0.  1.
        -12    1    3    3    0    0  0.46075032385E+01 -0.96903524250E+01 -0.41441048408E+01  0.11502418056E+02  0.00000000000E+00 0.  1.
</event>
<event>
 7    1  0.4519225E-009  0.4778727E+02  0.7816164E-02  0.1312668E+00
        -11   -1    0    0    0    0  0.00000000000E+00  0.00000000000E+00  0.45593999997E+02  0.45594000000E+02  0.51100000000E-03 0. -1.
         11   -1    0    0    0    0 -0.00000000000E+00 -0.00000000000E+00 -0.45593999997E+02  0.45594000000E+02  0.51100000000E-03 0.  1.
    9900012    2    1    2    0    0 -0.94476215657E+01 -0.41214504519E+02 -0.97841763685E+01  0.47787273702E+02  0.20000012116E+02 0.  0.
        -12    1    1    2    0    0  0.94476215657E+01  0.41214504519E+02  0.97841763685E+01  0.43400726298E+02  0.00000000000E+00 0.  1.
         11    1    3    3    0    0 -0.57173771283E+01 -0.24477381380E+02 -0.22698606276E-01  0.25136251032E+02  0.51100000000E-03 0. -1.
        -11    1    3    3    0    0 -0.48043748409E+01 -0.17858032572E+02 -0.76092664248E+01  0.19997306837E+02  0.51100000000E-03 0.  1.
        -12    1    3    3    0    0  0.10741304035E+01  0.11209094330E+01 -0.21522113374E+01  0.26537158328E+01  0.00000000000E+00 0.  1.
</event>
<event>
 7    1  0.4519225E-009  0.4778727E+02  0.7816164E-02  0.1312668E+00
        -11   -1    0    0    0    0  0.00000000000E+00  0.00000000000E+00  0.45593999997E+02  0.45594000000E+02  0.51100000000E-03 0.  1.
         11   -1    0    0    0    0 -0.00000000000E+00 -0.00000000000E+00 -0.45593999997E+02  0.45594000000E+02  0.51100000000E-03 0. -1.
    9900012    2    1    2    0    0  0.35647375055E+02  0.19630052015E+02 -0.15084728606E+02  0.47787270426E+02  0.19999997180E+02 0.  0.
        -12    1    1    2    0    0 -0.35647375055E+02 -0.19630052015E+02  0.15084728606E+02  0.43400729574E+02  0.00000000000E+00 0.  1.
         11    1    3    3    0    0  0.77030270009E+01 -0.84774247246E+00 -0.49664792647E+01  0.92044124649E+01  0.51100000000E-03 0. -1.
        -11    1    3    3    0    0  0.92657465747E+01 -0.24679337173E+00 -0.35081809450E+01  0.99107164403E+01  0.51100000000E-03 0.  1.
         12    1    3    3    0    0  0.18678601480E+02  0.20724587860E+02 -0.66100683958E+01  0.28672141521E+02  0.00000000000E+00 0. -1.
</event>
<event>
 7    1  0.4519225E-009  0.4778728E+02  0.7816164E-02  0.1312668E+00
        -11   -1    0    0    0    0  0.00000000000E+00  0.00000000000E+00  0.45593999997E+02  0.45594000000E+02  0.51100000000E-03 0. -1.
         11   -1    0    0    0    0 -0.00000000000E+00 -0.00000000000E+00 -0.45593999997E+02  0.45594000000E+02  0.51100000000E-03 0.  1.
    9900012    2    1    2    0    0 -0.16335638100E+02  0.39853633314E+02  0.53345081222E+01  0.47787284138E+02  0.20000059697E+02 0.  0.
        -12    1    1    2    0    0  0.16335638100E+02 -0.39853633314E+02 -0.53345081222E+01  0.43400715862E+02  0.00000000000E+00 0.  1.
         11    1    3    3    0    0 -0.94263097991E+01  0.12961509595E+02  0.49655595727E+01  0.16778344064E+02  0.51100000000E-03 0. -1.
        -11    1    3    3    0    0 -0.95618037092E+01  0.10102558066E+02 -0.10649640629E+01  0.13950767662E+02  0.51100000000E-03 0.  1.
        -12    1    3    3    0    0  0.26524754086E+01  0.16789565654E+02  0.14339126124E+01  0.17058172411E+02  0.00000000000E+00 0.  1.
</event>
<event>
 7    1  0.4519225E-009  0.4778726E+02  0.7816164E-02  0.1312668E+00
        -11   -1    0    0    0    0  0.00000000000E+00  0.00000000000E+00  0.45593999997E+02  0.45594000000E+02  0.51100000000E-03 0. -1.
         11   -1    0    0    0    0 -0.00000000000E+00 -0.00000000000E+00 -0.45593999997E+02  0.45594000000E+02  0.51100000000E-03 0.  1.
    9900012    2    1    2    0    0  0.66175506182E+01  0.31649843712E+02  0.28950295487E+02  0.47787260468E+02  0.19999951777E+02 0.  0.
        -12    1    1    2    0    0 -0.66175506182E+01 -0.31649843712E+02 -0.28950295487E+02  0.43400739532E+02  0.00000000000E+00 0.  1.
         11    1    3    3    0    0  0.42168045022E+00  0.24399969722E+02  0.17305558962E+02  0.29916863272E+02  0.51100000000E-03 0. -1.
        -11    1    3    3    0    0  0.25761056463E+01  0.56020910413E+01  0.67610254770E+00  0.62029718081E+01  0.51100000000E-03 0.  1.
        -12    1    3    3    0    0  0.36197645216E+01  0.16477829490E+01  0.10968633977E+02  0.11667425387E+02  0.00000000000E+00 0.  1.
</event>
<event>
 7    1  0.4519225E-009  0.4778727E+02  0.7816164E-02  0.1312668E+00
        -11   -1    0    0    0    0  0.00000000000E+00  0.00000000000E+00  0.45593999997E+02  0.45594000000E+02  0.51100000000E-03 0.  1.
         11   -1    0    0    0    0 -0.00000000000E+00 -0.00000000000E+00 -0.45593999997E+02  0.45594000000E+02  0.51100000000E-03 0. -1.
    9900012    2    1    2    0    0 -0.20918419067E+02 -0.70758280655E+01 -0.37362757553E+02  0.47787271307E+02  0.20000001199E+02 0.  0.
        -12    1    1    2    0    0  0.20918419067E+02  0.70758280655E+01  0.37362757553E+02  0.43400728693E+02  0.00000000000E+00 0.  1.
         11    1    3    3    0    0 -0.27437415956E+01  0.51074615389E+01 -0.23084592844E+01  0.62404539774E+01  0.51100000000E-03 0.  1.
        -11    1    3    3    0    0 -0.65899739066E+01 -0.31256668911E+01 -0.14994560448E+02  0.16674363343E+02  0.51100000000E-03 0. -1.
         12    1    3    3    0    0 -0.11584703565E+02 -0.90576227134E+01 -0.20059737821E+02  0.24872453987E+02  0.00000000000E+00 0. -1.
</event>
<event>
 7    1  0.4519225E-009  0.4778727E+02  0.7816164E-02  0.1312668E+00
        -11   -1    0    0    0    0  0.00000000000E+00  0.00000000000E+00  0.45593999997E+02  0.45594000000E+02  0.51100000000E-03 0. -1.
         11   -1    0    0    0    0 -0.00000000000E+00 -0.00000000000E+00 -0.45593999997E+02  0.45594000000E+02  0.51100000000E-03 0.  1.
    9900012    2    1    2    0    0  0.33753722356E+02 -0.10879420252E+02  0.25018947755E+02  0.47787270689E+02  0.19999998382E+02 0.  0.
        -12    1    1    2    0    0 -0.33753722356E+02  0.10879420252E+02 -0.25018947755E+02  0.43400729311E+02  0.00000000000E+00 0.  1.
         11    1    3    3    0    0  0.83868633187E+01  0.14615295692E+00 -0.31179725298E+00  0.83939296400E+01  0.51100000000E-03 0. -1.
        -11    1    3    3    0    0 -0.74442640708E+00  0.37856829169E+00  0.32229387248E+01  0.33293871676E+01  0.51100000000E-03 0.  1.
         12    1    3    3    0    0  0.26111285445E+02 -0.11404141501E+02  0.22107806283E+02  0.36063953882E+02  0.00000000000E+00 0. -1.
</event>
<event>
 7    1  0.4519225E-009  0.4778723E+02  0.7816164E-02  0.1312668E+00
        -11   -1    0    0    0    0  0.00000000000E+00  0.00000000000E+00  0.45593999997E+02  0.45594000000E+02  0.51100000000E-03 0.  1.
         11   -1    0    0    0    0 -0.00000000000E+00 -0.00000000000E+00 -0.45593999997E+02  0.45594000000E+02  0.51100000000E-03 0. -1.
    9900012    2    1    2    0    0 -0.31518350112E+02  0.15323885656E+02 -0.25600764563E+02  0.47787227984E+02  0.19999803669E+02 0.  0.
        -12    1    1    2    0    0  0.31518350112E+02 -0.15323885656E+02  0.25600764563E+02  0.43400772016E+02  0.00000000000E+00 0.  1.
         11    1    3    3    0    0 -0.77077213189E+01  0.97159811581E+01 -0.11397848466E+02  0.16843996192E+02  0.51100000000E-03 0.  1.
        -11    1    3    3    0    0 -0.15619177607E+02  0.53109319476E+01 -0.15509300496E+02  0.22642948337E+02  0.51100000000E-03 0. -1.
        -12    1    3    3    0    0 -0.81914511860E+01  0.29697255066E+00  0.13063843995E+01  0.83002834547E+01  0.00000000000E+00 0.  1.
</event>
<event>
 7    1  0.4519225E-009  0.4778728E+02  0.7816164E-02  0.1312668E+00
        -11   -1    0    0    0    0  0.00000000000E+00  0.00000000000E+00  0.45593999997E+02  0.45594000000E+02  0.51100000000E-03 0.  1.
         11   -1    0    0    0    0 -0.00000000000E+00 -0.00000000000E+00 -0.45593999997E+02  0.45594000000E+02  0.51100000000E-03 0. -1.
    9900012    2    1    2    0    0 -0.40774154246E+01 -0.91289979328E+01 -0.42233386827E+02  0.47787275551E+02  0.20000020549E+02 0.  0.
        -12    1    1    2    0    0  0.40774154246E+01  0.91289979328E+01  0.42233386827E+02  0.43400724449E+02  0.00000000000E+00 0.  1.
         11    1    3    3    0    0  0.22410049690E+01  0.33867159081E+00 -0.17893556822E+01  0.28876626770E+01  0.51100000000E-03 0. -1.
        -11    1    3    3    0    0  0.33837786987E+01 -0.22173645308E+01 -0.24733953485E+02  0.25062623945E+02  0.51100000000E-03 0.  1.
         12    1    3    3    0    0 -0.97021990923E+01 -0.72503049928E+01 -0.15710077660E+02  0.19836988930E+02  0.00000000000E+00 0. -1.
</event>
<event>
 7    1  0.4519225E-009  0.4778727E+02  0.7816164E-02  0.1312668E+00
        -11   -1    0    0    0    0  0.00000000000E+00  0.00000000000E+00  0.45593999997E+02  0.45594000000E+02  0.51100000000E-03 0. -1.
         11   -1    0    0    0    0 -0.00000000000E+00 -0.00000000000E+00 -0.45593999997E+02  0.45594000000E+02  0.51100000000E-03 0.  1.
    9900012    2    1    2    0    0 -0.62117670272E+01  0.17155698749E+01  0.42919623303E+02  0.47787270812E+02  0.19999998941E+02 0.  0.
        -12    1    1    2    0    0  0.62117670272E+01 -0.17155698749E+01 -0.42919623303E+02  0.43400729188E+02  0.00000000000E+00 0.  1.
         11    1    3    3    0    0 -0.26110790465E+01  0.42729292610E+01  0.26719435069E+02  0.27184625598E+02  0.51100000000E-03 0. -1.
        -11    1    3    3    0    0 -0.32050877677E+01  0.41678186044E+01  0.37882220284E+01  0.64802720557E+01  0.51100000000E-03 0.  1.
         12    1    3    3    0    0 -0.39560021296E+00 -0.67251779905E+01  0.12411966205E+02  0.14122373158E+02  0.00000000000E+00 0. -1.
</event>
<event>
 7    1  0.4519225E-009  0.4778727E+02  0.7816164E-02  0.1312668E+00
        -11   -1    0    0    0    0  0.00000000000E+00  0.00000000000E+00  0.45593999997E+02  0.45594000000E+02  0.51100000000E-03 0. -1.
         11   -1    0    0    0    0 -0.00000000000E+00 -0.00000000000E+00 -0.45593999997E+02  0.45594000000E+02  0.51100000000E-03 0.  1.
    9900012    2    1    2    0    0 -0.34772048968E+02 -0.16954717704E+02  0.19673981930E+02  0.47787269512E+02  0.19999993015E+02 0.  0.
        -12    1    1    2    0    0  0.34772048968E+02  0.16954717704E+02 -0.19673981930E+02  0.43400730488E+02  0.00000000000E+00 0.  1.
         11    1    3    3    0    0 -0.25627759284E+02 -0.10108072933E+02  0.11365518865E+02  0.29801513445E+02  0.51100000000E-03 0. -1.
        -11    1    3    3    0    0 -0.80218486382E+01 -0.39911849135E+01  0.10800410366E+02  0.14033120712E+02  0.51100000000E-03 0.  1.
         12    1    3    3    0    0 -0.11224410460E+01 -0.28554598582E+01 -0.24919473001E+01  0.39526353551E+01  0.00000000000E+00 0. -1.
</event>
<event>
 7    1  0.4519225E-009  0.4778727E+02  0.7816164E-02  0.1312668E+00
        -11   -1    0    0    0    0  0.00000000000E+00  0.00000000000E+00  0.45593999997E+02  0.45594000000E+02  0.51100000000E-03 0.  1.
         11   -1    0    0    0    0 -0.00000000000E+00 -0.00000000000E+00 -0.45593999997E+02  0.45594000000E+02  0.51100000000E-03 0. -1.
    9900012    2    1    2    0    0  0.13134309304E+02  0.23551156466E+02 -0.34006704122E+02  0.47787274464E+02  0.20000015593E+02 0.  0.
        -12    1    1    2    0    0 -0.13134309304E+02 -0.23551156466E+02  0.34006704122E+02  0.43400725536E+02  0.00000000000E+00 0.  1.
         11    1    3    3    0    0  0.56380220307E+01  0.13566153555E+02 -0.12680356593E+02  0.19406680764E+02  0.51100000000E-03 0. -1.
        -11    1    3    3    0    0  0.91040934324E+01  0.51130388090E+01 -0.56209024143E+01  0.11858424318E+02  0.51100000000E-03 0.  1.
         12    1    3    3    0    0 -0.16078061591E+01  0.48719641020E+01 -0.15705445115E+02  0.16522169383E+02  0.00000000000E+00 0. -1.
</event>
<event>
 7    1  0.4519225E-009  0.4778726E+02  0.7816164E-02  0.1312668E+00
        -11   -1    0    0    0    0  0.00000000000E+00  0.00000000000E+00  0.45593999997E+02  0.45594000000E+02  0.51100000000E-03 0.  1.
         11   -1    0    0    0    0 -0.00000000000E+00 -0.00000000000E+00 -0.45593999997E+02  0.45594000000E+02  0.51100000000E-03 0. -1.
    9900012    2    1    2    0    0 -0.27957502175E+01  0.18858894031E+02 -0.38989107080E+02  0.47787256064E+02  0.19999931696E+02 0.  0.
        -12    1    1    2    0    0  0.27957502175E+01 -0.18858894031E+02  0.38989107080E+02  0.43400743936E+02  0.00000000000E+00 0.  1.
         11    1    3    3    0    0 -0.20195489019E+01  0.12267697589E+02 -0.15482158960E+02  0.19856289387E+02  0.51100000000E-03 0. -1.
        -11    1    3    3    0    0  0.16678319762E+01  0.26838286954E+01  0.74376515560E+00  0.32461957481E+01  0.51100000000E-03 0.  1.
         12    1    3    3    0    0 -0.24440332919E+01  0.39073677475E+01 -0.24250713275E+02  0.24684770929E+02  0.00000000000E+00 0. -1.
</event>
<event>
 7    1  0.4519225E-009  0.4778727E+02  0.7816164E-02  0.1312668E+00
        -11   -1    0    0    0    0  0.00000000000E+00  0.00000000000E+00  0.45593999997E+02  0.45594000000E+02  0.51100000000E-03 0. -1.
         11   -1    0    0    0    0 -0.00000000000E+00 -0.00000000000E+00 -0.45593999997E+02  0.45594000000E+02  0.51100000000E-03 0.  1.
    9900012    2    1    2    0    0 -0.37282587508E+02 -0.79277150352E+01  0.20755312547E+02  0.47787274247E+02  0.20000014602E+02 0.  0.
        -12    1    1    2    0    0  0.37282587508E+02  0.79277150352E+01 -0.20755312547E+02  0.43400725753E+02  0.00000000000E+00 0.  1.
         11    1    3    3    0    0 -0.50745360060E+01 -0.25998991766E+01  0.78879009037E+01  0.97329015372E+01  0.51100000000E-03 0. -1.
        -11    1    3    3    0    0  0.80848664278E-01  0.25224831786E+01  0.14915385999E+01  0.29315773142E+01  0.51100000000E-03 0.  1.
        -12    1    3    3    0    0 -0.32288900166E+02 -0.78502990373E+01  0.11375873043E+02  0.35122795396E+02  0.00000000000E+00 0.  1.
</event>
<event>
 7    1  0.4519225E-009  0.4778727E+02  0.7816164E-02  0.1312668E+00
        -11   -1    0    0    0    0  0.00000000000E+00  0.00000000000E+00  0.45593999997E+02  0.45594000000E+02  0.51100000000E-03 0.  1.
         11   -1    0    0    0    0 -0.00000000000E+00 -0.00000000000E+00 -0.45593999997E+02  0.45594000000E+02  0.51100000000E-03 0. -1.
    9900012    2    1    2    0    0 -0.24016717686E+02 -0.21164343032E+02 -0.29306843566E+02  0.47787271617E+02  0.20000002611E+02 0.  0.
        -12    1    1    2    0    0  0.24016717686E+02  0.21164343032E+02  0.29306843566E+02  0.43400728383E+02  0.00000000000E+00 0.  1.
         11    1    3    3    0    0 -0.31837598650E+01 -0.63385208703E+01  0.15953459280E+01  0.72703715581E+01  0.51100000000E-03 0.  1.
        -11    1    3    3    0    0 -0.84513536319E+01 -0.37537425685E+01 -0.14320352721E+02  0.17046655502E+02  0.51100000000E-03 0. -1.
        -12    1    3    3    0    0 -0.12381604189E+02 -0.11072079593E+02 -0.16581836773E+02  0.23470244557E+02  0.00000000000E+00 0.  1.
</event>
<event>
 7    1  0.4519225E-009  0.4778727E+02  0.7816164E-02  0.1312668E+00
        -11   -1    0    0    0    0  0.00000000000E+00  0.00000000000E+00  0.45593999997E+02  0.45594000000E+02  0.51100000000E-03 0.  1.
         11   -1    0    0    0    0 -0.00000000000E+00 -0.00000000000E+00 -0.45593999997E+02  0.45594000000E+02  0.51100000000E-03 0. -1.
    9900012    2    1    2    0    0 -0.11658185226E+02  0.13774756299E+02 -0.39471078655E+02  0.47787271388E+02  0.20000001565E+02 0.  0.
        -12    1    1    2    0    0  0.11658185226E+02 -0.13774756299E+02  0.39471078655E+02  0.43400728612E+02  0.00000000000E+00 0.  1.
         11    1    3    3    0    0  0.22151926411E+01  0.69754384678E+01 -0.15808522070E+02  0.17420481926E+02  0.51100000000E-03 0. -1.
        -11    1    3    3    0    0  0.34187683043E+00  0.43748335266E+01 -0.76396065965E+01  0.88102007561E+01  0.51100000000E-03 0.  1.
        -12    1    3    3    0    0 -0.14215254697E+02  0.24244843045E+01 -0.16022949989E+02  0.21556588705E+02  0.00000000000E+00 0.  1.
</event>
<event>
 7    1  0.4519225E-009  0.4778727E+02  0.7816164E-02  0.1312668E+00
        -11   -1    0    0    0    0  0.00000000000E+00  0.00000000000E+00  0.45593999997E+02  0.45594000000E+02  0.51100000000E-03 0.  1.
         11   -1    0    0    0    0 -0.00000000000E+00 -0.00000000000E+00 -0.45593999997E+02  0.45594000000E+02  0.51100000000E-03 0. -1.
    9900012    2    1    2    0    0 -0.17411995608E+02  0.81787392794E+01 -0.38904418458E+02  0.47787272555E+02  0.20000006885E+02 0.  0.
        -12    1    1    2    0    0  0.17411995608E+02 -0.81787392794E+01  0.38904418458E+02  0.43400727445E+02  0.00000000000E+00 0.  1.
         11    1    3    3    0    0 -0.19190887631E+02  0.46755727774E+01 -0.22428104559E+02  0.29885966995E+02  0.51100000000E-03 0. -1.
        -11    1    3    3    0    0  0.44319466047E+00 -0.16277933865E+01 -0.35775286286E+01  0.39553563892E+01  0.51100000000E-03 0.  1.
         12    1    3    3    0    0  0.13356973619E+01  0.51309598885E+01 -0.12898785270E+02  0.13945949170E+02  0.00000000000E+00 0. -1.
</event>
<event>
 7    1  0.4519225E-009  0.4778727E+02  0.7816164E-02  0.1312668E+00
        -11   -1    0    0    0    0  0.00000000000E+00  0.00000000000E+00  0.45593999997E+02  0.45594000000E+02  0.51100000000E-03 0.  1.
         11   -1    0    0    0    0 -0.00000000000E+00 -0.00000000000E+00 -0.45593999997E+02  0.45594000000E+02  0.51100000000E-03 0. -1.
    9900012    2    1    2    0    0  0.25457370110E+01 -0.34991568420E+02 -0.25548633173E+02  0.47787270807E+02  0.19999998919E+02 0.  0.
        -12    1    1    2    0    0 -0.25457370110E+01  0.34991568420E+02  0.25548633173E+02  0.43400729193E+02  0.00000000000E+00 0.  1.
         11    1    3    3    0    0 -0.23548077962E+01 -0.27611970073E+02 -0.24432807901E+02  0.36944933526E+02  0.51100000000E-03 0. -1.
        -11    1    3    3    0    0 -0.37665612504E+00 -0.49664429658E+01 -0.43179716787E+00  0.49993874249E+01  0.51100000000E-03 0.  1.
         12    1    3    3    0    0  0.52772009322E+01 -0.24131553814E+01 -0.68402810438E+00  0.58429498562E+01  0.00000000000E+00 0. -1.
</event>
<event>
 7    1  0.4519225E-009  0.4778727E+02  0.7816164E-02  0.1312668E+00
        -11   -1    0    0    0    0  0.00000000000E+00  0.00000000000E+00  0.45593999997E+02  0.45594000000E+02  0.51100000000E-03 0. -1.
         11   -1    0    0    0    0 -0.00000000000E+00 -0.00000000000E+00 -0.45593999997E+02  0.45594000000E+02  0.51100000000E-03 0.  1.
    9900012    2    1    2    0    0 -0.99162592840E-01  0.16394937134E+02  0.40184815494E+02  0.47787271975E+02  0.20000004242E+02 0.  0.
        -12    1    1    2    0    0  0.99162592840E-01 -0.16394937134E+02 -0.40184815494E+02  0.43400728025E+02  0.00000000000E+00 0.  1.
         11    1    3    3    0    0 -0.61656698813E+01  0.80614638708E+01  0.13943039956E+02  0.17245609537E+02  0.51100000000E-03 0. -1.
        -11    1    3    3    0    0 -0.16304726108E+01  0.10112068724E+01 -0.31001076456E+00  0.19434729760E+01  0.51100000000E-03 0.  1.
         12    1    3    3    0    0  0.76969798992E+01  0.73222663911E+01  0.26551786302E+02  0.28598189462E+02  0.00000000000E+00 0. -1.
</event>
<event>
 7    1  0.4519225E-009  0.4778727E+02  0.7816164E-02  0.1312668E+00
        -11   -1    0    0    0    0  0.00000000000E+00  0.00000000000E+00  0.45593999997E+02  0.45594000000E+02  0.51100000000E-03 0.  1.
         11   -1    0    0    0    0 -0.00000000000E+00 -0.00000000000E+00 -0.45593999997E+02  0.45594000000E+02  0.51100000000E-03 0. -1.
    9900012    2    1    2    0    0  0.13839551002E+02 -0.15876286895E+01 -0.41104374436E+02  0.47787270345E+02  0.19999996810E+02 0.  0.
        -12    1    1    2    0    0 -0.13839551002E+02  0.15876286895E+01  0.41104374436E+02  0.43400729655E+02  0.00000000000E+00 0.  1.
         11    1    3    3    0    0  0.46479389677E-01 -0.34572076794E+01 -0.14300322181E+02  0.14712364188E+02  0.51100000000E-03 0. -1.
        -11    1    3    3    0    0 -0.16932980761E+01 -0.24906926283E+01 -0.65447350635E+01  0.72044684368E+01  0.51100000000E-03 0.  1.
        -12    1    3    3    0    0  0.15486369689E+02  0.43602716181E+01 -0.20259317192E+02  0.25870437720E+02  0.00000000000E+00 0.  1.
</event>
<event>
 7    1  0.4519225E-009  0.4778727E+02  0.7816164E-02  0.1312668E+00
        -11   -1    0    0    0    0  0.00000000000E+00  0.00000000000E+00  0.45593999997E+02  0.45594000000E+02  0.51100000000E-03 0.  1.
         11   -1    0    0    0    0 -0.00000000000E+00 -0.00000000000E+00 -0.45593999997E+02  0.45594000000E+02  0.51100000000E-03 0. -1.
    9900012    2    1    2    0    0  0.49985337824E+01 -0.27404680747E+02 -0.33280953149E+02  0.47787266028E+02  0.19999977128E+02 0.  0.
        -12    1    1    2    0    0 -0.49985337824E+01  0.27404680747E+02  0.33280953149E+02  0.43400733972E+02  0.00000000000E+00 0.  1.
         11    1    3    3    0    0 -0.42270921001E+01 -0.90531504881E+00 -0.86806881454E+01  0.96975383423E+01  0.51100000000E-03 0. -1.
        -11    1    3    3    0    0  0.31080640328E+01 -0.21926830850E+01 -0.49379556383E+01  0.62330832892E+01  0.51100000000E-03 0.  1.
         12    1    3    3    0    0  0.61175618497E+01 -0.24306682613E+02 -0.19662309365E+02  0.31856644396E+02  0.00000000000E+00 0. -1.
</event>
<event>
 7    1  0.4519225E-009  0.4778727E+02  0.7816164E-02  0.1312668E+00
        -11   -1    0    0    0    0  0.00000000000E+00  0.00000000000E+00  0.45593999997E+02  0.45594000000E+02  0.51100000000E-03 0.  1.
         11   -1    0    0    0    0 -0.00000000000E+00 -0.00000000000E+00 -0.45593999997E+02  0.45594000000E+02  0.51100000000E-03 0. -1.
    9900012    2    1    2    0    0 -0.12661492969E+02  0.15750303883E+02 -0.38408824646E+02  0.47787270890E+02  0.19999999297E+02 0.  0.
        -12    1    1    2    0    0  0.12661492969E+02 -0.15750303883E+02  0.38408824646E+02  0.43400729110E+02  0.00000000000E+00 0.  1.
         11    1    3    3    0    0 -0.17965176210E+01  0.54721092993E+01 -0.96448830708E+01  0.11233664828E+02  0.51100000000E-03 0. -1.
        -11    1    3    3    0    0  0.39406508834E+01  0.48750514891E+01 -0.12035420437E+02  0.13570047964E+02  0.51100000000E-03 0.  1.
         12    1    3    3    0    0 -0.14805626231E+02  0.54031430941E+01 -0.16728521138E+02  0.22983558098E+02  0.00000000000E+00 0. -1.
</event>
<event>
 7    1  0.4519225E-009  0.4778727E+02  0.7816164E-02  0.1312668E+00
        -11   -1    0    0    0    0  0.00000000000E+00  0.00000000000E+00  0.45593999997E+02  0.45594000000E+02  0.51100000000E-03 0. -1.
         11   -1    0    0    0    0 -0.00000000000E+00 -0.00000000000E+00 -0.45593999997E+02  0.45594000000E+02  0.51100000000E-03 0.  1.
    9900012    2    1    2    0    0 -0.33560706668E+02 -0.38855650300E+01  0.27243430812E+02  0.47787272240E+02  0.20000005452E+02 0.  0.
        -12    1    1    2    0    0  0.33560706668E+02  0.38855650300E+01 -0.27243430812E+02  0.43400727760E+02  0.00000000000E+00 0.  1.
         11    1    3    3    0    0 -0.90209247113E+01  0.90599841545E+00  0.10056576338E+02  0.13540038541E+02  0.51100000000E-03 0. -1.
        -11    1    3    3    0    0 -0.25799851559E+02 -0.31010327204E+01  0.18376041291E+02  0.31826524130E+02  0.51100000000E-03 0.  1.
        -12    1    3    3    0    0  0.12600696022E+01 -0.16905307250E+01 -0.11891868173E+01  0.24207095698E+01  0.00000000000E+00 0.  1.
</event>
<event>
 7    1  0.4519225E-009  0.4778727E+02  0.7816164E-02  0.1312668E+00
        -11   -1    0    0    0    0  0.00000000000E+00  0.00000000000E+00  0.45593999997E+02  0.45594000000E+02  0.51100000000E-03 0. -1.
         11   -1    0    0    0    0 -0.00000000000E+00 -0.00000000000E+00 -0.45593999997E+02  0.45594000000E+02  0.51100000000E-03 0.  1.
    9900012    2    1    2    0    0  0.34139173207E+02 -0.26772936094E+02 -0.11617994581E+01  0.47787273827E+02  0.20000012687E+02 0.  0.
        -12    1    1    2    0    0 -0.34139173207E+02  0.26772936094E+02  0.11617994581E+01  0.43400726173E+02  0.00000000000E+00 0.  1.
         11    1    3    3    0    0  0.71276735360E+01 -0.13173444815E+01 -0.40729321091E+01  0.83143191390E+01  0.51100000000E-03 0. -1.
        -11    1    3    3    0    0  0.49217909641E+00 -0.19710227959E+01  0.34977781796E+01  0.40449503803E+01  0.51100000000E-03 0.  1.
         12    1    3    3    0    0  0.26519320574E+02 -0.23484568817E+02 -0.58664552857E+00  0.35428004308E+02  0.00000000000E+00 0. -1.
</event>
<event>
 7    1  0.4519225E-009  0.4778727E+02  0.7816164E-02  0.1312668E+00
        -11   -1    0    0    0    0  0.00000000000E+00  0.00000000000E+00  0.45593999997E+02  0.45594000000E+02  0.51100000000E-03 0.  1.
         11   -1    0    0    0    0 -0.00000000000E+00 -0.00000000000E+00 -0.45593999997E+02  0.45594000000E+02  0.51100000000E-03 0. -1.
    9900012    2    1    2    0    0 -0.21217061266E+02  0.88659786605E+01 -0.36808342311E+02  0.47787270397E+02  0.19999997047E+02 0.  0.
        -12    1    1    2    0    0  0.21217061266E+02 -0.88659786605E+01  0.36808342311E+02  0.43400729603E+02  0.00000000000E+00 0.  1.
         11    1    3    3    0    0 -0.17433498063E+02  0.96348267686E+01 -0.22869756205E+02  0.30327916030E+02  0.51100000000E-03 0. -1.
        -11    1    3    3    0    0 -0.32915753538E+01  0.37521935878E+01 -0.10904053152E+02  0.11992155787E+02  0.51100000000E-03 0.  1.
        -12    1    3    3    0    0 -0.49198784950E+00 -0.45210416959E+01 -0.30345329545E+01  0.54671985799E+01  0.00000000000E+00 0.  1.
</event>
<event>
 7    1  0.4519225E-009  0.4778727E+02  0.7816164E-02  0.1312668E+00
        -11   -1    0    0    0    0  0.00000000000E+00  0.00000000000E+00  0.45593999997E+02  0.45594000000E+02  0.51100000000E-03 0.  1.
         11   -1    0    0    0    0 -0.00000000000E+00 -0.00000000000E+00 -0.45593999997E+02  0.45594000000E+02  0.51100000000E-03 0. -1.
    9900012    2    1    2    0    0  0.94872987284E+01  0.40040532556E+02 -0.13797471734E+02  0.47787270619E+02  0.19999998062E+02 0.  0.
        -12    1    1    2    0    0 -0.94872987284E+01 -0.40040532556E+02  0.13797471734E+02  0.43400729381E+02  0.00000000000E+00 0.  1.
         11    1    3    3    0    0  0.59122237030E+01  0.10282318708E+02 -0.12069234863E+01  0.11922127817E+02  0.51100000000E-03 0. -1.
        -11    1    3    3    0    0  0.77019592658E+01  0.10588412111E+02 -0.11045500492E+01  0.13139812732E+02  0.51100000000E-03 0.  1.
         12    1    3    3    0    0 -0.41268842404E+01  0.19169801737E+02 -0.11485998199E+02  0.22725330070E+02  0.00000000000E+00 0. -1.
</event>
<event>
 7    1  0.4519225E-009  0.4778726E+02  0.7816164E-02  0.1312668E+00
        -11   -1    0    0    0    0  0.00000000000E+00  0.00000000000E+00  0.45593999997E+02  0.45594000000E+02  0.51100000000E-03 0.  1.
         11   -1    0    0    0    0 -0.00000000000E+00 -0.00000000000E+00 -0.45593999997E+02  0.45594000000E+02  0.51100000000E-03 0. -1.
    9900012    2    1    2    0    0  0.10423076937E+02  0.23888901146E+02 -0.34703078715E+02  0.47787264948E+02  0.19999972204E+02 0.  0.
        -12    1    1    2    0    0 -0.10423076937E+02 -0.23888901146E+02  0.34703078715E+02  0.43400735052E+02  0.00000000000E+00 0.  1.
         11    1    3    3    0    0  0.51997058768E+01  0.21743165698E+02 -0.35168597757E+02  0.41672922434E+02  0.51100000000E-03 0. -1.
        -11    1    3    3    0    0  0.16569035297E+01 -0.77776599853E-01 -0.62463024781E+00  0.17724394810E+01  0.51100000000E-03 0.  1.
         12    1    3    3    0    0  0.35664675302E+01  0.22235120478E+01  0.10901492900E+01  0.43419030327E+01  0.00000000000E+00 0. -1.
</event>
<event>
 7    1  0.4519225E-009  0.4778727E+02  0.7816164E-02  0.1312668E+00
        -11   -1    0    0    0    0  0.00000000000E+00  0.00000000000E+00  0.45593999997E+02  0.45594000000E+02  0.51100000000E-03 0. -1.
         11   -1    0    0    0    0 -0.00000000000E+00 -0.00000000000E+00 -0.45593999997E+02  0.45594000000E+02  0.51100000000E-03 0.  1.
    9900012    2    1    2    0    0  0.38309688621E+02  0.19401803111E+02 -0.62897730128E+01  0.47787269007E+02  0.19999990710E+02 0.  0.
        -12    1    1    2    0    0 -0.38309688621E+02 -0.19401803111E+02  0.62897730128E+01  0.43400730993E+02  0.00000000000E+00 0.  1.
         11    1    3    3    0    0  0.15532655418E+02  0.11729146313E+02 -0.49427379712E+01  0.20081506828E+02  0.51100000000E-03 0. -1.
        -11    1    3    3    0    0 -0.18832149275E+01  0.14630506788E+00 -0.35648697846E-01  0.18892259597E+01  0.51100000000E-03 0.  1.
         12    1    3    3    0    0  0.24660248130E+02  0.75263517301E+01 -0.13113863438E+01  0.25816536219E+02  0.00000000000E+00 0. -1.
</event>
<event>
 7    1  0.4519225E-009  0.4778733E+02  0.7816164E-02  0.1312667E+00
        -11   -1    0    0    0    0  0.00000000000E+00  0.00000000000E+00  0.45593999997E+02  0.45594000000E+02  0.51100000000E-03 0. -1.
         11   -1    0    0    0    0 -0.00000000000E+00 -0.00000000000E+00 -0.45593999997E+02  0.45594000000E+02  0.51100000000E-03 0.  1.
    9900012    2    1    2    0    0  0.18077548203E+02  0.83034158495E+00  0.39447824342E+02  0.47787331094E+02  0.20000273789E+02 0.  0.
        -12    1    1    2    0    0 -0.18077548203E+02 -0.83034158495E+00 -0.39447824342E+02  0.43400668906E+02  0.00000000000E+00 0.  1.
         11    1    3    3    0    0  0.29583926422E+01  0.22092107405E+01  0.53413658329E+01  0.64932956458E+01  0.51100000000E-03 0. -1.
        -11    1    3    3    0    0  0.64439681502E+01  0.79087289899E+01  0.18886676923E+02  0.21465770082E+02  0.51100000000E-03 0.  1.
         12    1    3    3    0    0  0.86751874105E+01 -0.92875981454E+01  0.15219781586E+02  0.19828265366E+02  0.00000000000E+00 0. -1.
</event>
<event>
 7    1  0.4519225E-009  0.4778727E+02  0.7816164E-02  0.1312668E+00
        -11   -1    0    0    0    0  0.00000000000E+00  0.00000000000E+00  0.45593999997E+02  0.45594000000E+02  0.51100000000E-03 0. -1.
         11   -1    0    0    0    0 -0.00000000000E+00 -0.00000000000E+00 -0.45593999997E+02  0.45594000000E+02  0.51100000000E-03 0.  1.
    9900012    2    1    2    0    0 -0.32568731659E+02  0.22656993408E+02  0.17594366416E+02  0.47787270032E+02  0.19999995383E+02 0.  0.
        -12    1    1    2    0    0  0.32568731659E+02 -0.22656993408E+02 -0.17594366416E+02  0.43400729968E+02  0.00000000000E+00 0.  1.
         11    1    3    3    0    0 -0.11250347699E+02  0.77678672534E+01  0.18789522035E+01  0.13800019807E+02  0.51100000000E-03 0. -1.
        -11    1    3    3    0    0 -0.18136499065E+02  0.16096184553E+02  0.17723626674E+02  0.30035756995E+02  0.51100000000E-03 0.  1.
        -12    1    3    3    0    0 -0.31818848949E+01 -0.12070583977E+01 -0.20082124616E+01  0.39514932306E+01  0.00000000000E+00 0.  1.
</event>
<event>
 7    1  0.4519225E-009  0.4778727E+02  0.7816164E-02  0.1312668E+00
        -11   -1    0    0    0    0  0.00000000000E+00  0.00000000000E+00  0.45593999997E+02  0.45594000000E+02  0.51100000000E-03 0.  1.
         11   -1    0    0    0    0 -0.00000000000E+00 -0.00000000000E+00 -0.45593999997E+02  0.45594000000E+02  0.51100000000E-03 0. -1.
    9900012    2    1    2    0    0  0.14083287284E+02  0.19537180589E+02 -0.36105167058E+02  0.47787268504E+02  0.19999988419E+02 0.  0.
        -12    1    1    2    0    0 -0.14083287284E+02 -0.19537180589E+02  0.36105167058E+02  0.43400731496E+02  0.00000000000E+00 0.  1.
         11    1    3    3    0    0  0.12476228733E+02  0.77352444268E+01 -0.13831337227E+02  0.20169188865E+02  0.51100000000E-03 0. -1.
        -11    1    3    3    0    0  0.49117950993E+01  0.36734312959E+01 -0.39325580473E+01  0.72859345070E+01  0.51100000000E-03 0.  1.
        -12    1    3    3    0    0 -0.33047365490E+01  0.81285048666E+01 -0.18341271784E+02  0.20332145132E+02  0.00000000000E+00 0.  1.
</event>
<event>
 7    1  0.4519225E-009  0.4778727E+02  0.7816164E-02  0.1312668E+00
        -11   -1    0    0    0    0  0.00000000000E+00  0.00000000000E+00  0.45593999997E+02  0.45594000000E+02  0.51100000000E-03 0.  1.
         11   -1    0    0    0    0 -0.00000000000E+00 -0.00000000000E+00 -0.45593999997E+02  0.45594000000E+02  0.51100000000E-03 0. -1.
    9900012    2    1    2    0    0 -0.64153226840E+01 -0.15762021643E+02 -0.39925249313E+02  0.47787271618E+02  0.20000002614E+02 0.  0.
        -12    1    1    2    0    0  0.64153226840E+01  0.15762021643E+02  0.39925249313E+02  0.43400728382E+02  0.00000000000E+00 0.  1.
         11    1    3    3    0    0 -0.78939608390E+01 -0.84152960268E+01 -0.15120784310E+02  0.19020250875E+02  0.51100000000E-03 0. -1.
        -11    1    3    3    0    0 -0.44465871970E+01 -0.50573214841E+00 -0.37100741244E+01  0.58131362427E+01  0.51100000000E-03 0.  1.
         12    1    3    3    0    0  0.59252253520E+01 -0.68409934678E+01 -0.21094390879E+02  0.22953884500E+02  0.00000000000E+00 0. -1.
</event>
<event>
 7    1  0.4519225E-009  0.4778727E+02  0.7816164E-02  0.1312668E+00
        -11   -1    0    0    0    0  0.00000000000E+00  0.00000000000E+00  0.45593999997E+02  0.45594000000E+02  0.51100000000E-03 0. -1.
         11   -1    0    0    0    0 -0.00000000000E+00 -0.00000000000E+00 -0.45593999997E+02  0.45594000000E+02  0.51100000000E-03 0.  1.
    9900012    2    1    2    0    0  0.25733823897E+02 -0.30948902199E+02  0.16234499529E+02  0.47787271727E+02  0.20000003112E+02 0.  0.
        -12    1    1    2    0    0 -0.25733823897E+02  0.30948902199E+02 -0.16234499529E+02  0.43400728273E+02  0.00000000000E+00 0.  1.
         11    1    3    3    0    0 -0.96929663697E+00 -0.15904011794E+00 -0.25723321962E+01  0.27534928579E+01  0.51100000000E-03 0.  1.
        -11    1    3    3    0    0  0.10544305314E+02 -0.12889354467E+02  0.95941158951E+01  0.19218868156E+02  0.51100000000E-03 0. -1.
        -12    1    3    3    0    0  0.16158815219E+02 -0.17900507614E+02  0.92127158300E+01  0.25814910713E+02  0.00000000000E+00 0.  1.
</event>
<event>
 7    1  0.4519225E-009  0.4778727E+02  0.7816164E-02  0.1312668E+00
        -11   -1    0    0    0    0  0.00000000000E+00  0.00000000000E+00  0.45593999997E+02  0.45594000000E+02  0.51100000000E-03 0.  1.
         11   -1    0    0    0    0 -0.00000000000E+00 -0.00000000000E+00 -0.45593999997E+02  0.45594000000E+02  0.51100000000E-03 0. -1.
    9900012    2    1    2    0    0  0.54101345083E+01  0.60808340081E+01 -0.42630705629E+02  0.47787272356E+02  0.20000005978E+02 0.  0.
        -12    1    1    2    0    0 -0.54101345083E+01 -0.60808340081E+01  0.42630705629E+02  0.43400727644E+02  0.00000000000E+00 0.  1.
         11    1    3    3    0    0 -0.21317684371E+01 -0.49459613878E+01 -0.43622830434E+01  0.69308357599E+01  0.51100000000E-03 0.  1.
        -11    1    3    3    0    0  0.50131780126E+01  0.29428779274E+01 -0.16813229453E+02  0.17789805204E+02  0.51100000000E-03 0. -1.
        -12    1    3    3    0    0  0.25287249329E+01  0.80839174685E+01 -0.21455193132E+02  0.23066631392E+02  0.00000000000E+00 0.  1.
</event>
<event>
 7    1  0.4519225E-009  0.4778727E+02  0.7816164E-02  0.1312668E+00
        -11   -1    0    0    0    0  0.00000000000E+00  0.00000000000E+00  0.45593999997E+02  0.45594000000E+02  0.51100000000E-03 0.  1.
         11   -1    0    0    0    0 -0.00000000000E+00 -0.00000000000E+00 -0.45593999997E+02  0.45594000000E+02  0.51100000000E-03 0. -1.
    9900012    2    1    2    0    0 -0.17459701045E+02 -0.25962182746E+02 -0.30079018140E+02  0.47787269294E+02  0.19999992020E+02 0.  0.
        -12    1    1    2    0    0  0.17459701045E+02  0.25962182746E+02  0.30079018140E+02  0.43400730706E+02  0.00000000000E+00 0.  1.
         11    1    3    3    0    0  0.32349671375E+01 -0.71641115542E+01 -0.88598298647E+01  0.11844243000E+02  0.51100000000E-03 0. -1.
        -11    1    3    3    0    0 -0.21099551364E+01 -0.48822831155E+01 -0.16217376213E+01  0.55604525240E+01  0.51100000000E-03 0.  1.
        -12    1    3    3    0    0 -0.18584713046E+02 -0.13915788077E+02 -0.19597450654E+02  0.30382573771E+02  0.00000000000E+00 0.  1.
</event>
<event>
 7    1  0.4519225E-009  0.4778727E+02  0.7816164E-02  0.1312668E+00
        -11   -1    0    0    0    0  0.00000000000E+00  0.00000000000E+00  0.45593999997E+02  0.45594000000E+02  0.51100000000E-03 0.  1.
         11   -1    0    0    0    0 -0.00000000000E+00 -0.00000000000E+00 -0.45593999997E+02  0.45594000000E+02  0.51100000000E-03 0. -1.
    9900012    2    1    2    0    0 -0.15527266540E+02  0.38052150777E+02 -0.13948515678E+02  0.47787271037E+02  0.19999999964E+02 0.  0.
        -12    1    1    2    0    0  0.15527266540E+02 -0.38052150777E+02  0.13948515678E+02  0.43400728963E+02  0.00000000000E+00 0.  1.
         11    1    3    3    0    0 -0.15577642532E+01  0.69316629538E+01  0.87620904376E+00  0.71583743492E+01  0.51100000000E-03 0. -1.
        -11    1    3    3    0    0 -0.11416922462E+02  0.17216103560E+02 -0.73652954698E+00  0.20670820408E+02  0.51100000000E-03 0.  1.
        -12    1    3    3    0    0 -0.25525798244E+01  0.13904384263E+02 -0.14088195175E+02  0.19958076280E+02  0.00000000000E+00 0.  1.
</event>
<event>
 7    1  0.4519225E-009  0.4778727E+02  0.7816164E-02  0.1312668E+00
        -11   -1    0    0    0    0  0.00000000000E+00  0.00000000000E+00  0.45593999997E+02  0.45594000000E+02  0.51100000000E-03 0. -1.
         11   -1    0    0    0    0 -0.00000000000E+00 -0.00000000000E+00 -0.45593999997E+02  0.45594000000E+02  0.51100000000E-03 0.  1.
    9900012    2    1    2    0    0 -0.36881188612E+02 -0.13483621148E+02  0.18482248385E+02  0.47787267079E+02  0.19999981921E+02 0.  0.
        -12    1    1    2    0    0  0.36881188612E+02  0.13483621148E+02 -0.18482248385E+02  0.43400732921E+02  0.00000000000E+00 0.  1.
         11    1    3    3    0    0 -0.30920840932E+02 -0.10350562883E+02  0.95123402439E+01  0.33966412426E+02  0.51100000000E-03 0. -1.
        -11    1    3    3    0    0 -0.50261557777E+01  0.71596429349E+00  0.84059683414E+01  0.98201400595E+01  0.51100000000E-03 0.  1.
        -12    1    3    3    0    0 -0.93419190277E+00 -0.38490225579E+01  0.56393979943E+00  0.40007145937E+01  0.00000000000E+00 0.  1.
</event>
<event>
 7    1  0.4519225E-009  0.4778727E+02  0.7816164E-02  0.1312668E+00
        -11   -1    0    0    0    0  0.00000000000E+00  0.00000000000E+00  0.45593999997E+02  0.45594000000E+02  0.51100000000E-03 0.  1.
         11   -1    0    0    0    0 -0.00000000000E+00 -0.00000000000E+00 -0.45593999997E+02  0.45594000000E+02  0.51100000000E-03 0. -1.
    9900012    2    1    2    0    0 -0.94420091252E+01 -0.12121358258E+02 -0.40589955206E+02  0.47787270444E+02  0.19999997264E+02 0.  0.
        -12    1    1    2    0    0  0.94420091252E+01  0.12121358258E+02  0.40589955206E+02  0.43400729556E+02  0.00000000000E+00 0.  1.
         11    1    3    3    0    0 -0.20885492723E+00 -0.28614147081E+01 -0.17281441112E+02  0.17517977100E+02  0.51100000000E-03 0. -1.
        -11    1    3    3    0    0 -0.74221444273E+01 -0.18237634790E+01 -0.24107556551E+01  0.80141178065E+01  0.51100000000E-03 0.  1.
         12    1    3    3    0    0 -0.18110097707E+01 -0.74361800711E+01 -0.20897758439E+02  0.22255175538E+02  0.00000000000E+00 0. -1.
</event>
<event>
 7    1  0.4519225E-009  0.4778727E+02  0.7816164E-02  0.1312668E+00
        -11   -1    0    0    0    0  0.00000000000E+00  0.00000000000E+00  0.45593999997E+02  0.45594000000E+02  0.51100000000E-03 0. -1.
         11   -1    0    0    0    0 -0.00000000000E+00 -0.00000000000E+00 -0.45593999997E+02  0.45594000000E+02  0.51100000000E-03 0.  1.
    9900012    2    1    2    0    0  0.11741079832E+02 -0.40536440346E+02  0.10127550014E+02  0.47787271655E+02  0.20000002785E+02 0.  0.
        -12    1    1    2    0    0 -0.11741079832E+02  0.40536440346E+02 -0.10127550014E+02  0.43400728345E+02  0.00000000000E+00 0.  1.
         11    1    3    3    0    0  0.78918232472E+01 -0.89533170773E+01  0.45034812048E+01  0.12756335840E+02  0.51100000000E-03 0. -1.
        -11    1    3    3    0    0  0.76765295422E+01 -0.19310415170E+02 -0.51060758805E+00  0.20786581253E+02  0.51100000000E-03 0.  1.
         12    1    3    3    0    0 -0.38272729569E+01 -0.12272708099E+02  0.61346763974E+01  0.14244354561E+02  0.00000000000E+00 0. -1.
</event>
<event>
 7    1  0.4519225E-009  0.4778727E+02  0.7816164E-02  0.1312668E+00
        -11   -1    0    0    0    0  0.00000000000E+00  0.00000000000E+00  0.45593999997E+02  0.45594000000E+02  0.51100000000E-03 0.  1.
         11   -1    0    0    0    0 -0.00000000000E+00 -0.00000000000E+00 -0.45593999997E+02  0.45594000000E+02  0.51100000000E-03 0. -1.
    9900012    2    1    2    0    0  0.25885604568E+02  0.11469410619E+02 -0.32893948702E+02  0.47787265386E+02  0.19999974203E+02 0.  0.
        -12    1    1    2    0    0 -0.25885604568E+02 -0.11469410619E+02  0.32893948702E+02  0.43400734614E+02  0.00000000000E+00 0.  1.
         11    1    3    3    0    0  0.39162586164E+01 -0.11644286643E+01 -0.23758603808E+00  0.40926058998E+01  0.51100000000E-03 0. -1.
        -11    1    3    3    0    0  0.18220338623E+02  0.44439190725E+01 -0.15552654464E+02  0.24364199503E+02  0.51100000000E-03 0.  1.
        -12    1    3    3    0    0  0.37490073283E+01  0.81899202109E+01 -0.17103708200E+02  0.19330459984E+02  0.00000000000E+00 0.  1.
</event>
<event>
 7    1  0.4519225E-009  0.4778727E+02  0.7816164E-02  0.1312668E+00
        -11   -1    0    0    0    0  0.00000000000E+00  0.00000000000E+00  0.45593999997E+02  0.45594000000E+02  0.51100000000E-03 0.  1.
         11   -1    0    0    0    0 -0.00000000000E+00 -0.00000000000E+00 -0.45593999997E+02  0.45594000000E+02  0.51100000000E-03 0. -1.
    9900012    2    1    2    0    0  0.31188916424E+02  0.25477561434E+02 -0.16179259942E+02  0.47787273087E+02  0.20000009311E+02 0.  0.
        -12    1    1    2    0    0 -0.31188916424E+02 -0.25477561434E+02  0.16179259942E+02  0.43400726913E+02  0.00000000000E+00 0.  1.
         11    1    3    3    0    0  0.11262016573E+02  0.80872925614E+01  0.82522640591E+00  0.13889503848E+02  0.51100000000E-03 0. -1.
        -11    1    3    3    0    0  0.41418296323E+01  0.39660708482E-01  0.10784664089E+01  0.42801186585E+01  0.51100000000E-03 0.  1.
         12    1    3    3    0    0  0.15785070219E+02  0.17350608164E+02 -0.18082952757E+02  0.29617650580E+02  0.00000000000E+00 0. -1.
</event>
<event>
 7    1  0.4519225E-009  0.4778724E+02  0.7816164E-02  0.1312668E+00
        -11   -1    0    0    0    0  0.00000000000E+00  0.00000000000E+00  0.45593999997E+02  0.45594000000E+02  0.51100000000E-03 0.  1.
         11   -1    0    0    0    0 -0.00000000000E+00 -0.00000000000E+00 -0.45593999997E+02  0.45594000000E+02  0.51100000000E-03 0. -1.
    9900012    2    1    2    0    0  0.16026297055E+00  0.38293885954E+02 -0.20424944102E+02  0.47787242781E+02  0.19999871133E+02 0.  0.
        -12    1    1    2    0    0 -0.16026297055E+00 -0.38293885954E+02  0.20424944102E+02  0.43400757219E+02  0.00000000000E+00 0.  1.
         11    1    3    3    0    0  0.22682324067E+01  0.10003326987E+02 -0.11104504179E+02  0.15116925692E+02  0.51100000000E-03 0. -1.
        -11    1    3    3    0    0  0.12851631626E+01  0.19579467314E+01 -0.53299030683E+01  0.58217752220E+01  0.51100000000E-03 0.  1.
        -12    1    3    3    0    0 -0.33931325987E+01  0.26332612236E+02 -0.39905368548E+01  0.26848541867E+02  0.00000000000E+00 0.  1.
</event>
<event>
 7    1  0.4519225E-009  0.4778727E+02  0.7816164E-02  0.1312668E+00
        -11   -1    0    0    0    0  0.00000000000E+00  0.00000000000E+00  0.45593999997E+02  0.45594000000E+02  0.51100000000E-03 0. -1.
         11   -1    0    0    0    0 -0.00000000000E+00 -0.00000000000E+00 -0.45593999997E+02  0.45594000000E+02  0.51100000000E-03 0.  1.
    9900012    2    1    2    0    0  0.41544972633E+01  0.28290193239E+02  0.32650098203E+02  0.47787265056E+02  0.19999972695E+02 0.  0.
        -12    1    1    2    0    0 -0.41544972633E+01 -0.28290193239E+02 -0.32650098203E+02  0.43400734944E+02  0.00000000000E+00 0.  1.
         11    1    3    3    0    0  0.98648653646E+00  0.15573396115E+02  0.25952881908E+02  0.30282930866E+02  0.51100000000E-03 0. -1.
        -11    1    3    3    0    0  0.24926120470E+01  0.11927543470E+02  0.88862864822E+01  0.15081296222E+02  0.51100000000E-03 0.  1.
        -12    1    3    3    0    0  0.67539867979E+00  0.78925365402E+00 -0.21890701869E+01  0.24230379671E+01  0.00000000000E+00 0.  1.
</event>
<event>
 7    1  0.4519225E-009  0.4778727E+02  0.7816164E-02  0.1312668E+00
        -11   -1    0    0    0    0  0.00000000000E+00  0.00000000000E+00  0.45593999997E+02  0.45594000000E+02  0.51100000000E-03 0.  1.
         11   -1    0    0    0    0 -0.00000000000E+00 -0.00000000000E+00 -0.45593999997E+02  0.45594000000E+02  0.51100000000E-03 0. -1.
    9900012    2    1    2    0    0  0.37726970315E+02  0.61959535357E+00 -0.21445624486E+02  0.47787274233E+02  0.20000014538E+02 0.  0.
        -12    1    1    2    0    0 -0.37726970315E+02 -0.61959535357E+00  0.21445624486E+02  0.43400725767E+02  0.00000000000E+00 0.  1.
         11    1    3    3    0    0  0.23433535171E+02 -0.20767363557E+01 -0.31472200907E+01  0.23734961535E+02  0.51100000000E-03 0. -1.
        -11    1    3    3    0    0  0.17369975707E+01  0.24469485351E+01 -0.28002435958E+01  0.41043979036E+01  0.51100000000E-03 0.  1.
         12    1    3    3    0    0  0.12556437572E+02  0.24938317416E+00 -0.15498160799E+02  0.19947914794E+02  0.00000000000E+00 0. -1.
</event>
<event>
 7    1  0.4519225E-009  0.4778727E+02  0.7816164E-02  0.1312668E+00
        -11   -1    0    0    0    0  0.00000000000E+00  0.00000000000E+00  0.45593999997E+02  0.45594000000E+02  0.51100000000E-03 0. -1.
         11   -1    0    0    0    0 -0.00000000000E+00 -0.00000000000E+00 -0.45593999997E+02  0.45594000000E+02  0.51100000000E-03 0.  1.
    9900012    2    1    2    0    0 -0.74832146260E+01 -0.92961670698E+01  0.41727759771E+02  0.47787272370E+02  0.20000006044E+02 0.  0.
        -12    1    1    2    0    0  0.74832146260E+01  0.92961670698E+01 -0.41727759771E+02  0.43400727630E+02  0.00000000000E+00 0.  1.
         11    1    3    3    0    0  0.55529872077E+01 -0.56031550612E+01  0.19427852802E+02  0.20968368518E+02  0.51100000000E-03 0.  1.
        -11    1    3    3    0    0 -0.15579865808E+01  0.49361204365E+00  0.72601065830E+01  0.74417822390E+01  0.51100000000E-03 0. -1.
        -12    1    3    3    0    0 -0.11478215253E+02 -0.41866240523E+01  0.15039800386E+02  0.19377121613E+02  0.00000000000E+00 0.  1.
</event>
<event>
 7    1  0.4519225E-009  0.4778727E+02  0.7816164E-02  0.1312668E+00
        -11   -1    0    0    0    0  0.00000000000E+00  0.00000000000E+00  0.45593999997E+02  0.45594000000E+02  0.51100000000E-03 0.  1.
         11   -1    0    0    0    0 -0.00000000000E+00 -0.00000000000E+00 -0.45593999997E+02  0.45594000000E+02  0.51100000000E-03 0. -1.
    9900012    2    1    2    0    0 -0.38520587765E+02  0.48296828925E+01 -0.19402627026E+02  0.47787268968E+02  0.19999990533E+02 0.  0.
        -12    1    1    2    0    0  0.38520587765E+02 -0.48296828925E+01  0.19402627026E+02  0.43400731032E+02  0.00000000000E+00 0.  1.
         11    1    3    3    0    0 -0.77807551853E+01  0.10221459708E+01  0.66433755143E+00  0.78756763699E+01  0.51100000000E-03 0. -1.
        -11    1    3    3    0    0 -0.85935357906E+01 -0.57844682028E+01 -0.56670434737E+01  0.11807807238E+02  0.51100000000E-03 0.  1.
         12    1    3    3    0    0 -0.22146296789E+02  0.95920051245E+01 -0.14399921103E+02  0.28103785360E+02  0.00000000000E+00 0. -1.
</event>
<event>
 7    1  0.4519225E-009  0.4778727E+02  0.7816164E-02  0.1312668E+00
        -11   -1    0    0    0    0  0.00000000000E+00  0.00000000000E+00  0.45593999997E+02  0.45594000000E+02  0.51100000000E-03 0.  1.
         11   -1    0    0    0    0 -0.00000000000E+00 -0.00000000000E+00 -0.45593999997E+02  0.45594000000E+02  0.51100000000E-03 0. -1.
    9900012    2    1    2    0    0 -0.26686371496E+02  0.59529247335E+01 -0.33704946005E+02  0.47787272797E+02  0.20000007992E+02 0.  0.
        -12    1    1    2    0    0  0.26686371496E+02 -0.59529247335E+01  0.33704946005E+02  0.43400727203E+02  0.00000000000E+00 0.  1.
         11    1    3    3    0    0 -0.86044960172E+01  0.23427982892E+01 -0.17538352810E+02  0.19675362134E+02  0.51100000000E-03 0. -1.
        -11    1    3    3    0    0 -0.46810647401E+01  0.66027997609E+01 -0.19055719323E+01  0.83150788592E+01  0.51100000000E-03 0.  1.
         12    1    3    3    0    0 -0.13400810739E+02 -0.29926733167E+01 -0.14261021263E+02  0.19796831804E+02  0.00000000000E+00 0. -1.
</event>
<event>
 7    1  0.4519225E-009  0.4778727E+02  0.7816164E-02  0.1312668E+00
        -11   -1    0    0    0    0  0.00000000000E+00  0.00000000000E+00  0.45593999997E+02  0.45594000000E+02  0.51100000000E-03 0. -1.
         11   -1    0    0    0    0 -0.00000000000E+00 -0.00000000000E+00 -0.45593999997E+02  0.45594000000E+02  0.51100000000E-03 0.  1.
    9900012    2    1    2    0    0  0.13489704674E+02 -0.37898630727E+02  0.16289404922E+02  0.47787273555E+02  0.20000011448E+02 0.  0.
        -12    1    1    2    0    0 -0.13489704674E+02  0.37898630727E+02 -0.16289404922E+02  0.43400726445E+02  0.00000000000E+00 0.  1.
         11    1    3    3    0    0  0.59352966422E+00 -0.20968919890E+01 -0.62612320223E+00  0.22674355562E+01  0.51100000000E-03 0. -1.
        -11    1    3    3    0    0 -0.34291140988E+01 -0.28115014178E+01  0.53249266062E+01  0.69295171078E+01  0.51100000000E-03 0.  1.
         12    1    3    3    0    0  0.16325289109E+02 -0.32990237321E+02  0.11590601518E+02  0.38590320891E+02  0.00000000000E+00 0. -1.
</event>
<event>
 7    1  0.4519225E-009  0.4778727E+02  0.7816164E-02  0.1312668E+00
        -11   -1    0    0    0    0  0.00000000000E+00  0.00000000000E+00  0.45593999997E+02  0.45594000000E+02  0.51100000000E-03 0. -1.
         11   -1    0    0    0    0 -0.00000000000E+00 -0.00000000000E+00 -0.45593999997E+02  0.45594000000E+02  0.51100000000E-03 0.  1.
    9900012    2    1    2    0    0  0.13204010998E+02 -0.25520247947E+02  0.32526825312E+02  0.47787270437E+02  0.19999997232E+02 0.  0.
        -12    1    1    2    0    0 -0.13204010998E+02  0.25520247947E+02 -0.32526825312E+02  0.43400729563E+02  0.00000000000E+00 0.  1.
         11    1    3    3    0    0  0.59463889941E+01 -0.14049108759E+02  0.26630608094E+02  0.30690817629E+02  0.51100000000E-03 0.  1.
        -11    1    3    3    0    0  0.62950340809E+01 -0.10206067521E+02  0.80329339428E+01  0.14433270465E+02  0.51100000000E-03 0. -1.
        -12    1    3    3    0    0  0.96258792262E+00 -0.12650716668E+01 -0.21367167253E+01  0.26631823436E+01  0.00000000000E+00 0.  1.
</event>
<event>
 7    1  0.4519225E-009  0.4778727E+02  0.7816164E-02  0.1312668E+00
        -11   -1    0    0    0    0  0.00000000000E+00  0.00000000000E+00  0.45593999997E+02  0.45594000000E+02  0.51100000000E-03 0.  1.
         11   -1    0    0    0    0 -0.00000000000E+00 -0.00000000000E+00 -0.45593999997E+02  0.45594000000E+02  0.51100000000E-03 0. -1.
    9900012    2    1    2    0    0  0.15707015244E+02 -0.21978211322E+01 -0.40399040122E+02  0.47787272030E+02  0.20000004491E+02 0.  0.
        -12    1    1    2    0    0 -0.15707015244E+02  0.21978211322E+01  0.40399040122E+02  0.43400727970E+02  0.00000000000E+00 0.  1.
         11    1    3    3    0    0 -0.13169190306E+01 -0.35206844995E+00 -0.15431687446E+01  0.20590284025E+01  0.51100000000E-03 0.  1.
        -11    1    3    3    0    0  0.16915649976E+02  0.29713393775E+01 -0.20465398780E+02  0.26717047354E+02  0.51100000000E-03 0. -1.
         12    1    3    3    0    0  0.10828429859E+00 -0.48170920597E+01 -0.18390472597E+02  0.19011196273E+02  0.00000000000E+00 0. -1.
</event>
<event>
 7    1  0.4519225E-009  0.4778728E+02  0.7816164E-02  0.1312668E+00
        -11   -1    0    0    0    0  0.00000000000E+00  0.00000000000E+00  0.45593999997E+02  0.45594000000E+02  0.51100000000E-03 0.  1.
         11   -1    0    0    0    0 -0.00000000000E+00 -0.00000000000E+00 -0.45593999997E+02  0.45594000000E+02  0.51100000000E-03 0. -1.
    9900012    2    1    2    0    0 -0.70246495138E+01  0.22067175920E+02 -0.36705814697E+02  0.47787276660E+02  0.20000025605E+02 0.  0.
        -12    1    1    2    0    0  0.70246495138E+01 -0.22067175920E+02  0.36705814697E+02  0.43400723340E+02  0.00000000000E+00 0.  1.
         11    1    3    3    0    0  0.31515096542E+00  0.37797750138E+01 -0.10047958380E+01  0.39237270832E+01  0.51100000000E-03 0. -1.
        -11    1    3    3    0    0  0.31938360891E+01  0.44071265148E+01 -0.17757769459E+01  0.57250971262E+01  0.51100000000E-03 0.  1.
         12    1    3    3    0    0 -0.10533636568E+02  0.13880274391E+02 -0.33925241913E+02  0.38138452451E+02  0.00000000000E+00 0. -1.
</event>
<event>
 7    1  0.4519225E-009  0.4778727E+02  0.7816164E-02  0.1312668E+00
        -11   -1    0    0    0    0  0.00000000000E+00  0.00000000000E+00  0.45593999997E+02  0.45594000000E+02  0.51100000000E-03 0. -1.
         11   -1    0    0    0    0 -0.00000000000E+00 -0.00000000000E+00 -0.45593999997E+02  0.45594000000E+02  0.51100000000E-03 0.  1.
    9900012    2    1    2    0    0 -0.26774688595E+02 -0.59218753818E+01  0.33640316442E+02  0.47787269042E+02  0.19999990870E+02 0.  0.
        -12    1    1    2    0    0  0.26774688595E+02  0.59218753818E+01 -0.33640316442E+02  0.43400730958E+02  0.00000000000E+00 0.  1.
         11    1    3    3    0    0 -0.10974516426E+02 -0.68629247761E+00  0.17240116486E+02  0.20448291490E+02  0.51100000000E-03 0. -1.
        -11    1    3    3    0    0  0.15301707699E+01 -0.24835550872E+01  0.66567788447E+01  0.72678864400E+01  0.51100000000E-03 0.  1.
         12    1    3    3    0    0 -0.17330342939E+02 -0.27520278170E+01  0.97434211111E+01  0.20071091112E+02  0.00000000000E+00 0. -1.
</event>
<event>
 7    1  0.4519225E-009  0.4778728E+02  0.7816164E-02  0.1312668E+00
        -11   -1    0    0    0    0  0.00000000000E+00  0.00000000000E+00  0.45593999997E+02  0.45594000000E+02  0.51100000000E-03 0.  1.
         11   -1    0    0    0    0 -0.00000000000E+00 -0.00000000000E+00 -0.45593999997E+02  0.45594000000E+02  0.51100000000E-03 0. -1.
    9900012    2    1    2    0    0 -0.12539545362E+02  0.66080962884E+01 -0.41020916068E+02  0.47787277777E+02  0.20000030696E+02 0.  0.
        -12    1    1    2    0    0  0.12539545362E+02 -0.66080962884E+01  0.41020916068E+02  0.43400722223E+02  0.00000000000E+00 0.  1.
         11    1    3    3    0    0 -0.70531051276E+00  0.78626830129E+01 -0.11376823362E+02  0.13847431428E+02  0.51100000000E-03 0. -1.
        -11    1    3    3    0    0  0.19792512721E+01  0.12153725567E+01 -0.27071445238E+01  0.35669591788E+01  0.51100000000E-03 0.  1.
         12    1    3    3    0    0 -0.13813486122E+02 -0.24699592811E+01 -0.26936948182E+02  0.30372887170E+02  0.00000000000E+00 0. -1.
</event>
<event>
 7    1  0.4519225E-009  0.4778728E+02  0.7816164E-02  0.1312668E+00
        -11   -1    0    0    0    0  0.00000000000E+00  0.00000000000E+00  0.45593999997E+02  0.45594000000E+02  0.51100000000E-03 0.  1.
         11   -1    0    0    0    0 -0.00000000000E+00 -0.00000000000E+00 -0.45593999997E+02  0.45594000000E+02  0.51100000000E-03 0. -1.
    9900012    2    1    2    0    0 -0.39016569314E+02 -0.29955966909E+01 -0.18771163706E+02  0.47787275727E+02  0.20000021348E+02 0.  0.
        -12    1    1    2    0    0  0.39016569314E+02  0.29955966909E+01  0.18771163706E+02  0.43400724273E+02  0.00000000000E+00 0.  1.
         11    1    3    3    0    0 -0.53215993740E+01 -0.28539978496E+01  0.15175910637E+01  0.62263798889E+01  0.51100000000E-03 0. -1.
        -11    1    3    3    0    0 -0.19285026659E+02  0.40645800522E+01 -0.54385076809E+01  0.20445303379E+02  0.51100000000E-03 0.  1.
         12    1    3    3    0    0 -0.14409943282E+02 -0.42061788934E+01 -0.14850247089E+02  0.21115592458E+02  0.00000000000E+00 0. -1.
</event>
<event>
 7    1  0.4519225E-009  0.4778727E+02  0.7816164E-02  0.1312668E+00
        -11   -1    0    0    0    0  0.00000000000E+00  0.00000000000E+00  0.45593999997E+02  0.45594000000E+02  0.51100000000E-03 0.  1.
         11   -1    0    0    0    0 -0.00000000000E+00 -0.00000000000E+00 -0.45593999997E+02  0.45594000000E+02  0.51100000000E-03 0. -1.
    9900012    2    1    2    0    0 -0.40171396630E+02  0.14935514432E+02 -0.68419617288E+01  0.47787272600E+02  0.20000007093E+02 0.  0.
        -12    1    1    2    0    0  0.40171396630E+02 -0.14935514432E+02  0.68419617288E+01  0.43400727400E+02  0.00000000000E+00 0.  1.
         11    1    3    3    0    0 -0.15018100292E+02  0.59952184263E+01  0.46869899204E+00  0.16177319289E+02  0.51100000000E-03 0. -1.
        -11    1    3    3    0    0 -0.22470428524E+02  0.98340971266E+01 -0.83338029939E+00  0.24542293033E+02  0.51100000000E-03 0.  1.
        -12    1    3    3    0    0 -0.26828678139E+01 -0.89380112070E+00 -0.64772804215E+01  0.70676602782E+01  0.00000000000E+00 0.  1.
</event>
<event>
 7    1  0.4519225E-009  0.4778727E+02  0.7816164E-02  0.1312668E+00
        -11   -1    0    0    0    0  0.00000000000E+00  0.00000000000E+00  0.45593999997E+02  0.45594000000E+02  0.51100000000E-03 0. -1.
         11   -1    0    0    0    0 -0.00000000000E+00 -0.00000000000E+00 -0.45593999997E+02  0.45594000000E+02  0.51100000000E-03 0.  1.
    9900012    2    1    2    0    0  0.19055875478E+01 -0.13698045247E+02  0.41138249106E+02  0.47787271354E+02  0.20000001412E+02 0.  0.
        -12    1    1    2    0    0 -0.19055875478E+01  0.13698045247E+02 -0.41138249106E+02  0.43400728646E+02  0.00000000000E+00 0.  1.
         11    1    3    3    0    0 -0.14444858188E+01 -0.55525954725E+01  0.38307486944E+01  0.68987311575E+01  0.51100000000E-03 0. -1.
        -11    1    3    3    0    0  0.20052328559E+01 -0.11730206865E+02  0.20998894704E+02  0.24136534361E+02  0.51100000000E-03 0.  1.
         12    1    3    3    0    0  0.13448405107E+01  0.35847570904E+01  0.16308605707E+02  0.16752005835E+02  0.00000000000E+00 0. -1.
</event>
<event>
 7    1  0.4519225E-009  0.4778727E+02  0.7816164E-02  0.1312668E+00
        -11   -1    0    0    0    0  0.00000000000E+00  0.00000000000E+00  0.45593999997E+02  0.45594000000E+02  0.51100000000E-03 0.  1.
         11   -1    0    0    0    0 -0.00000000000E+00 -0.00000000000E+00 -0.45593999997E+02  0.45594000000E+02  0.51100000000E-03 0. -1.
    9900012    2    1    2    0    0 -0.52761900688E+01 -0.13375582798E+02 -0.40949711267E+02  0.47787271323E+02  0.20000001272E+02 0.  0.
        -12    1    1    2    0    0  0.52761900688E+01  0.13375582798E+02  0.40949711267E+02  0.43400728677E+02  0.00000000000E+00 0.  1.
         11    1    3    3    0    0 -0.71373159917E+01 -0.11745010482E+02 -0.26234561471E+02  0.29616528606E+02  0.51100000000E-03 0. -1.
        -11    1    3    3    0    0 -0.30728196640E+01 -0.47417443282E+00 -0.12050681541E+02  0.12445319921E+02  0.51100000000E-03 0.  1.
        -12    1    3    3    0    0  0.49339455868E+01 -0.11563978833E+01 -0.26644682541E+01  0.57254227962E+01  0.00000000000E+00 0.  1.
</event>
<event>
 7    1  0.4519225E-009  0.4778727E+02  0.7816164E-02  0.1312668E+00
        -11   -1    0    0    0    0  0.00000000000E+00  0.00000000000E+00  0.45593999997E+02  0.45594000000E+02  0.51100000000E-03 0. -1.
         11   -1    0    0    0    0 -0.00000000000E+00 -0.00000000000E+00 -0.45593999997E+02  0.45594000000E+02  0.51100000000E-03 0.  1.
    9900012    2    1    2    0    0 -0.45066579253E+01  0.42029847791E+02 -0.98389563418E+01  0.47787272669E+02  0.20000007407E+02 0.  0.
        -12    1    1    2    0    0  0.45066579253E+01 -0.42029847791E+02  0.98389563418E+01  0.43400727331E+02  0.00000000000E+00 0.  1.
         11    1    3    3    0    0  0.10708761091E+01  0.23664334124E+02 -0.54332711012E+00  0.23694781911E+02  0.51100000000E-03 0. -1.
        -11    1    3    3    0    0  0.28655191294E+01  0.61781297864E+01 -0.44367538477E+00  0.68247590175E+01  0.51100000000E-03 0.  1.
        -12    1    3    3    0    0 -0.84430531638E+01  0.12187383880E+02 -0.88519538469E+01  0.17267731741E+02  0.00000000000E+00 0.  1.
</event>
<event>
 7    1  0.4519225E-009  0.4778727E+02  0.7816164E-02  0.1312668E+00
        -11   -1    0    0    0    0  0.00000000000E+00  0.00000000000E+00  0.45593999997E+02  0.45594000000E+02  0.51100000000E-03 0. -1.
         11   -1    0    0    0    0 -0.00000000000E+00 -0.00000000000E+00 -0.45593999997E+02  0.45594000000E+02  0.51100000000E-03 0.  1.
    9900012    2    1    2    0    0 -0.37282502042E+02 -0.12125001810E+02  0.18617805175E+02  0.47787270779E+02  0.19999998789E+02 0.  0.
        -12    1    1    2    0    0  0.37282502042E+02  0.12125001810E+02 -0.18617805175E+02  0.43400729221E+02  0.00000000000E+00 0.  1.
         11    1    3    3    0    0 -0.11298035443E+02  0.37796444081E+01  0.66872494159E+01  0.13662013824E+02  0.51100000000E-03 0. -1.
        -11    1    3    3    0    0 -0.94041195522E+01 -0.18207861824E+01  0.68759436534E+01  0.11791154662E+02  0.51100000000E-03 0.  1.
        -12    1    3    3    0    0 -0.16580347047E+02 -0.14083860035E+02  0.50546121061E+01  0.22334102293E+02  0.00000000000E+00 0.  1.
</event>
<event>
 7    1  0.4519225E-009  0.4778727E+02  0.7816164E-02  0.1312668E+00
        -11   -1    0    0    0    0  0.00000000000E+00  0.00000000000E+00  0.45593999997E+02  0.45594000000E+02  0.51100000000E-03 0.  1.
         11   -1    0    0    0    0 -0.00000000000E+00 -0.00000000000E+00 -0.45593999997E+02  0.45594000000E+02  0.51100000000E-03 0. -1.
    9900012    2    1    2    0    0 -0.35988184025E+01  0.26433908685E+02 -0.34233319944E+02  0.47787271704E+02  0.20000003006E+02 0.  0.
        -12    1    1    2    0    0  0.35988184025E+01 -0.26433908685E+02  0.34233319944E+02  0.43400728296E+02  0.00000000000E+00 0.  1.
         11    1    3    3    0    0  0.92882493781E+00  0.87052322569E+00 -0.47440730725E+00  0.13585245695E+01  0.51100000000E-03 0. -1.
        -11    1    3    3    0    0  0.30369072547E+01  0.23089582555E+02 -0.28854883416E+02  0.37080398129E+02  0.51100000000E-03 0.  1.
        -12    1    3    3    0    0 -0.75645505950E+01  0.24738029044E+01 -0.49040292210E+01  0.93483490048E+01  0.00000000000E+00 0.  1.
</event>
<event>
 7    1  0.4519225E-009  0.4778727E+02  0.7816164E-02  0.1312668E+00
        -11   -1    0    0    0    0  0.00000000000E+00  0.00000000000E+00  0.45593999997E+02  0.45594000000E+02  0.51100000000E-03 0. -1.
         11   -1    0    0    0    0 -0.00000000000E+00 -0.00000000000E+00 -0.45593999997E+02  0.45594000000E+02  0.51100000000E-03 0.  1.
    9900012    2    1    2    0    0  0.37811307246E+01  0.18763916766E+02  0.38951783203E+02  0.47787274929E+02  0.20000017713E+02 0.  0.
        -12    1    1    2    0    0 -0.37811307246E+01 -0.18763916766E+02 -0.38951783203E+02  0.43400725071E+02  0.00000000000E+00 0.  1.
         11    1    3    3    0    0 -0.17820134710E+01  0.12310841525E+02  0.14340289214E+02  0.18983579380E+02  0.51100000000E-03 0. -1.
        -11    1    3    3    0    0 -0.28197430947E+01  0.28072209455E+01  0.15084100920E+02  0.15600049403E+02  0.51100000000E-03 0.  1.
         12    1    3    3    0    0  0.83828872903E+01  0.36458542948E+01  0.95273930696E+01  0.13203646147E+02  0.00000000000E+00 0. -1.
</event>
<event>
 7    1  0.4519225E-009  0.4778727E+02  0.7816164E-02  0.1312668E+00
        -11   -1    0    0    0    0  0.00000000000E+00  0.00000000000E+00  0.45593999997E+02  0.45594000000E+02  0.51100000000E-03 0. -1.
         11   -1    0    0    0    0 -0.00000000000E+00 -0.00000000000E+00 -0.45593999997E+02  0.45594000000E+02  0.51100000000E-03 0.  1.
    9900012    2    1    2    0    0 -0.70829370158E+01 -0.51827275949E+01  0.42504053449E+02  0.47787271646E+02  0.20000002742E+02 0.  0.
        -12    1    1    2    0    0  0.70829370158E+01  0.51827275949E+01 -0.42504053449E+02  0.43400728354E+02  0.00000000000E+00 0.  1.
         11    1    3    3    0    0 -0.94498490444E+01 -0.33643664734E+01  0.29522726707E+02  0.31180282250E+02  0.51100000000E-03 0. -1.
        -11    1    3    3    0    0 -0.20017673423E+01  0.13598736102E+01  0.10291035814E+02  0.10571742861E+02  0.51100000000E-03 0.  1.
        -12    1    3    3    0    0  0.43686793709E+01 -0.31782347317E+01  0.26902909274E+01  0.60352465343E+01  0.00000000000E+00 0.  1.
</event>
<event>
 7    1  0.4519225E-009  0.4778727E+02  0.7816164E-02  0.1312668E+00
        -11   -1    0    0    0    0  0.00000000000E+00  0.00000000000E+00  0.45593999997E+02  0.45594000000E+02  0.51100000000E-03 0.  1.
         11   -1    0    0    0    0 -0.00000000000E+00 -0.00000000000E+00 -0.45593999997E+02  0.45594000000E+02  0.51100000000E-03 0. -1.
    9900012    2    1    2    0    0  0.16416915882E+02  0.14350474546E+02 -0.37525622341E+02  0.47787267531E+02  0.19999983983E+02 0.  0.
        -12    1    1    2    0    0 -0.16416915882E+02 -0.14350474546E+02  0.37525622341E+02  0.43400732469E+02  0.00000000000E+00 0.  1.
         11    1    3    3    0    0  0.69288655620E+01  0.78143519010E+01 -0.23927243668E+02  0.26107207117E+02  0.51100000000E-03 0. -1.
        -11    1    3    3    0    0  0.52433809029E+01 -0.27363027330E+01 -0.82895057399E+01  0.10183138102E+02  0.51100000000E-03 0.  1.
        -12    1    3    3    0    0  0.42446694167E+01  0.92724253781E+01 -0.53088729325E+01  0.11496922313E+02  0.00000000000E+00 0.  1.
</event>
<event>
 7    1  0.4519225E-009  0.4778726E+02  0.7816164E-02  0.1312668E+00
        -11   -1    0    0    0    0  0.00000000000E+00  0.00000000000E+00  0.45593999997E+02  0.45594000000E+02  0.51100000000E-03 0. -1.
         11   -1    0    0    0    0 -0.00000000000E+00 -0.00000000000E+00 -0.45593999997E+02  0.45594000000E+02  0.51100000000E-03 0.  1.
    9900012    2    1    2    0    0 -0.71310971798E+00  0.11926133356E+02  0.41723889723E+02  0.47787260883E+02  0.19999953672E+02 0.  0.
        -12    1    1    2    0    0  0.71310971798E+00 -0.11926133356E+02 -0.41723889723E+02  0.43400739117E+02  0.00000000000E+00 0.  1.
         11    1    3    3    0    0 -0.60816829605E+01  0.11653318250E+02  0.29407658319E+02  0.32211753475E+02  0.51100000000E-03 0. -1.
        -11    1    3    3    0    0 -0.12229797929E+01 -0.90816999765E+00 -0.37243925563E-01  0.15237584092E+01  0.51100000000E-03 0.  1.
         12    1    3    3    0    0  0.65915530353E+01  0.11809851030E+01  0.12353475330E+02  0.14051749000E+02  0.00000000000E+00 0. -1.
</event>
<event>
 7    1  0.4519225E-009  0.4778727E+02  0.7816164E-02  0.1312668E+00
        -11   -1    0    0    0    0  0.00000000000E+00  0.00000000000E+00  0.45593999997E+02  0.45594000000E+02  0.51100000000E-03 0. -1.
         11   -1    0    0    0    0 -0.00000000000E+00 -0.00000000000E+00 -0.45593999997E+02  0.45594000000E+02  0.51100000000E-03 0.  1.
    9900012    2    1    2    0    0 -0.13553705509E+02 -0.34623031651E+02 -0.22386737985E+02  0.47787270843E+02  0.19999999084E+02 0.  0.
        -12    1    1    2    0    0  0.13553705509E+02  0.34623031651E+02  0.22386737985E+02  0.43400729157E+02  0.00000000000E+00 0.  1.
         11    1    3    3    0    0  0.40768001752E+01 -0.53624489094E+01 -0.84487683830E+00  0.67889597956E+01  0.51100000000E-03 0. -1.
        -11    1    3    3    0    0 -0.78873798816E+00 -0.61623165326E+01 -0.27887445597E+01  0.68097980250E+01  0.51100000000E-03 0.  1.
        -12    1    3    3    0    0 -0.16841767697E+02 -0.23098266209E+02 -0.18753116587E+02  0.34188513023E+02  0.00000000000E+00 0.  1.
</event>
<event>
 7    1  0.4519225E-009  0.4778727E+02  0.7816164E-02  0.1312668E+00
        -11   -1    0    0    0    0  0.00000000000E+00  0.00000000000E+00  0.45593999997E+02  0.45594000000E+02  0.51100000000E-03 0. -1.
         11   -1    0    0    0    0 -0.00000000000E+00 -0.00000000000E+00 -0.45593999997E+02  0.45594000000E+02  0.51100000000E-03 0.  1.
    9900012    2    1    2    0    0 -0.30809909164E+02  0.85516845440E+01  0.29346914409E+02  0.47787271935E+02  0.20000004059E+02 0.  0.
        -12    1    1    2    0    0  0.30809909164E+02 -0.85516845440E+01 -0.29346914409E+02  0.43400728065E+02  0.00000000000E+00 0.  1.
         11    1    3    3    0    0 -0.33405158268E+01 -0.15390115727E+01  0.12726820329E+01  0.38919561184E+01  0.51100000000E-03 0. -1.
        -11    1    3    3    0    0 -0.40498642385E+01  0.88501156238E+01  0.47909313566E+01  0.10847993844E+02  0.51100000000E-03 0.  1.
         12    1    3    3    0    0 -0.23419529099E+02  0.12405804928E+01  0.23283301020E+02  0.33047321973E+02  0.00000000000E+00 0. -1.
</event>
<event>
 7    1  0.5332249E-009  0.4778728E+02  0.7816164E-02  0.1312668E+00
        -11   -1    0    0    0    0  0.00000000000E+00  0.00000000000E+00  0.45593999997E+02  0.45594000000E+02  0.51100000000E-03 0.  1.
         11   -1    0    0    0    0 -0.00000000000E+00 -0.00000000000E+00 -0.45593999997E+02  0.45594000000E+02  0.51100000000E-03 0. -1.
    9900012    2    1    2    0    0  0.25208042639E+02 -0.24632784612E+02 -0.25325942051E+02  0.47787276133E+02  0.20000023201E+02 0.  0.
        -12    1    1    2    0    0 -0.25208042639E+02  0.24632784612E+02  0.25325942051E+02  0.43400723867E+02  0.00000000000E+00 0.  1.
         11    1    3    3    0    0  0.33529130296E+01  0.20168757093E+01 -0.50081726292E+01  0.63554391474E+01  0.51100000000E-03 0. -1.
        -11    1    3    3    0    0  0.16765833705E+01 -0.50326524718E+01  0.40844550721E+00  0.53202773136E+01  0.51100000000E-03 0.  1.
         12    1    3    3    0    0  0.20178546239E+02 -0.21617007850E+02 -0.20726214929E+02  0.36111559672E+02  0.00000000000E+00 0. -1.
</event>
<event>
 7    1  0.4519225E-009  0.4778727E+02  0.7816164E-02  0.1312668E+00
        -11   -1    0    0    0    0  0.00000000000E+00  0.00000000000E+00  0.45593999997E+02  0.45594000000E+02  0.51100000000E-03 0.  1.
         11   -1    0    0    0    0 -0.00000000000E+00 -0.00000000000E+00 -0.45593999997E+02  0.45594000000E+02  0.51100000000E-03 0. -1.
    9900012    2    1    2    0    0  0.15834984696E+02  0.78074136949E+01 -0.39647458081E+02  0.47787269808E+02  0.19999994363E+02 0.  0.
        -12    1    1    2    0    0 -0.15834984696E+02 -0.78074136949E+01  0.39647458081E+02  0.43400730192E+02  0.00000000000E+00 0.  1.
         11    1    3    3    0    0 -0.12541893947E+01  0.92893114511E-01 -0.11304939195E+02  0.11374676727E+02  0.51100000000E-03 0. -1.
        -11    1    3    3    0    0  0.24432366141E+01  0.13534473489E+00  0.10871034698E+01  0.26775954820E+01  0.51100000000E-03 0.  1.
         12    1    3    3    0    0  0.14645937476E+02  0.75791758455E+01 -0.29429622356E+02  0.33734997600E+02  0.00000000000E+00 0. -1.
</event>
<event>
 7    1  0.4519225E-009  0.4778727E+02  0.7816164E-02  0.1312668E+00
        -11   -1    0    0    0    0  0.00000000000E+00  0.00000000000E+00  0.45593999997E+02  0.45594000000E+02  0.51100000000E-03 0.  1.
         11   -1    0    0    0    0 -0.00000000000E+00 -0.00000000000E+00 -0.45593999997E+02  0.45594000000E+02  0.51100000000E-03 0. -1.
    9900012    2    1    2    0    0  0.13454927606E+02  0.39159606784E+02 -0.13004364794E+02  0.47787269775E+02  0.19999994213E+02 0.  0.
        -12    1    1    2    0    0 -0.13454927606E+02 -0.39159606784E+02  0.13004364794E+02  0.43400730225E+02  0.00000000000E+00 0.  1.
         11    1    3    3    0    0 -0.27097462191E+01  0.42666539809E+01  0.54633173628E+00  0.50838508428E+01  0.51100000000E-03 0. -1.
        -11    1    3    3    0    0 -0.83744497071E+00  0.23964721090E+01  0.16228678440E+01  0.30129873793E+01  0.51100000000E-03 0.  1.
        -12    1    3    3    0    0  0.17002118796E+02  0.32496480694E+02 -0.15173564374E+02  0.39690431553E+02  0.00000000000E+00 0.  1.
</event>
<event>
 7    1  0.4519225E-009  0.4778727E+02  0.7816164E-02  0.1312668E+00
        -11   -1    0    0    0    0  0.00000000000E+00  0.00000000000E+00  0.45593999997E+02  0.45594000000E+02  0.51100000000E-03 0.  1.
         11   -1    0    0    0    0 -0.00000000000E+00 -0.00000000000E+00 -0.45593999997E+02  0.45594000000E+02  0.51100000000E-03 0. -1.
    9900012    2    1    2    0    0 -0.23952197679E+02  0.24363241121E+02 -0.26764679074E+02  0.47787270312E+02  0.19999996659E+02 0.  0.
        -12    1    1    2    0    0  0.23952197679E+02 -0.24363241121E+02  0.26764679074E+02  0.43400729688E+02  0.00000000000E+00 0.  1.
         11    1    3    3    0    0  0.13727045798E+00  0.13129232688E+01 -0.11201467028E+01  0.17312826416E+01  0.51100000000E-03 0. -1.
        -11    1    3    3    0    0  0.31325300880E+01  0.30746881755E+01 -0.40775752398E+01  0.59910827257E+01  0.51100000000E-03 0.  1.
         12    1    3    3    0    0 -0.27221998224E+02  0.19975629677E+02 -0.21566957131E+02  0.40064904944E+02  0.00000000000E+00 0. -1.
</event>
<event>
 7    1  0.4519225E-009  0.4778728E+02  0.7816164E-02  0.1312668E+00
        -11   -1    0    0    0    0  0.00000000000E+00  0.00000000000E+00  0.45593999997E+02  0.45594000000E+02  0.51100000000E-03 0.  1.
         11   -1    0    0    0    0 -0.00000000000E+00 -0.00000000000E+00 -0.45593999997E+02  0.45594000000E+02  0.51100000000E-03 0. -1.
    9900012    2    1    2    0    0  0.50494660463E+01  0.23504560765E+02 -0.36133936859E+02  0.47787275616E+02  0.20000020845E+02 0.  0.
        -12    1    1    2    0    0 -0.50494660463E+01 -0.23504560765E+02  0.36133936859E+02  0.43400724384E+02  0.00000000000E+00 0.  1.
         11    1    3    3    0    0  0.42265670244E+01  0.83543156853E+01 -0.74704255464E+01  0.11977717541E+02  0.51100000000E-03 0. -1.
        -11    1    3    3    0    0 -0.68284858254E+01  0.39333590651E+01 -0.10112518487E+02  0.12820396352E+02  0.51100000000E-03 0.  1.
        -12    1    3    3    0    0  0.76513848473E+01  0.11216886014E+02 -0.18550992825E+02  0.22989161723E+02  0.00000000000E+00 0.  1.
</event>
<event>
 7    1  0.4519225E-009  0.4778727E+02  0.7816164E-02  0.1312668E+00
        -11   -1    0    0    0    0  0.00000000000E+00  0.00000000000E+00  0.45593999997E+02  0.45594000000E+02  0.51100000000E-03 0.  1.
         11   -1    0    0    0    0 -0.00000000000E+00 -0.00000000000E+00 -0.45593999997E+02  0.45594000000E+02  0.51100000000E-03 0. -1.
    9900012    2    1    2    0    0  0.23186017964E-01 -0.40663351341E+02 -0.15169533597E+02  0.47787269253E+02  0.19999991830E+02 0.  0.
        -12    1    1    2    0    0 -0.23186017964E-01  0.40663351341E+02  0.15169533597E+02  0.43400730747E+02  0.00000000000E+00 0.  1.
         11    1    3    3    0    0 -0.45436461602E+01 -0.21622867719E+02 -0.49377427179E+01  0.22640106718E+02  0.51100000000E-03 0. -1.
        -11    1    3    3    0    0  0.11755324810E+01 -0.15451704700E+02 -0.21059930071E+01  0.15638806270E+02  0.51100000000E-03 0.  1.
         12    1    3    3    0    0  0.33912996971E+01 -0.35887789224E+01 -0.81257978720E+01  0.95083562642E+01  0.00000000000E+00 0. -1.
</event>
<event>
 7    1  0.4519225E-009  0.4778727E+02  0.7816164E-02  0.1312668E+00
        -11   -1    0    0    0    0  0.00000000000E+00  0.00000000000E+00  0.45593999997E+02  0.45594000000E+02  0.51100000000E-03 0.  1.
         11   -1    0    0    0    0 -0.00000000000E+00 -0.00000000000E+00 -0.45593999997E+02  0.45594000000E+02  0.51100000000E-03 0. -1.
    9900012    2    1    2    0    0 -0.10310330329E+02  0.90088068384E+01 -0.41184486448E+02  0.47787269176E+02  0.19999991479E+02 0.  0.
        -12    1    1    2    0    0  0.10310330329E+02 -0.90088068384E+01  0.41184486448E+02  0.43400730824E+02  0.00000000000E+00 0.  1.
         11    1    3    3    0    0  0.53039657707E+01  0.31834672882E+01 -0.11568576001E+02  0.13118630562E+02  0.51100000000E-03 0. -1.
        -11    1    3    3    0    0 -0.32770274450E+01  0.34347157069E+01 -0.12971920851E+02  0.13813287505E+02  0.51100000000E-03 0.  1.
        -12    1    3    3    0    0 -0.12337268654E+02  0.23906238433E+01 -0.16643989595E+02  0.20855351108E+02  0.00000000000E+00 0.  1.
</event>
<event>
 7    1  0.4519225E-009  0.4778727E+02  0.7816164E-02  0.1312668E+00
        -11   -1    0    0    0    0  0.00000000000E+00  0.00000000000E+00  0.45593999997E+02  0.45594000000E+02  0.51100000000E-03 0. -1.
         11   -1    0    0    0    0 -0.00000000000E+00 -0.00000000000E+00 -0.45593999997E+02  0.45594000000E+02  0.51100000000E-03 0.  1.
    9900012    2    1    2    0    0 -0.27833850283E+02  0.15639510416E+02  0.29399080718E+02  0.47787268961E+02  0.19999990502E+02 0.  0.
        -12    1    1    2    0    0  0.27833850283E+02 -0.15639510416E+02 -0.29399080718E+02  0.43400731039E+02  0.00000000000E+00 0.  1.
         11    1    3    3    0    0 -0.16322501291E+02  0.65643148927E+01  0.13120678166E+02  0.21946901244E+02  0.51100000000E-03 0.  1.
        -11    1    3    3    0    0 -0.95975223371E+01  0.40610106687E+01  0.17470435457E+02  0.20342575009E+02  0.51100000000E-03 0. -1.
        -12    1    3    3    0    0 -0.19138266548E+01  0.50141848547E+01 -0.11920329051E+01  0.54977927088E+01  0.00000000000E+00 0.  1.
</event>
<event>
 7    1  0.4519225E-009  0.4778727E+02  0.7816164E-02  0.1312668E+00
        -11   -1    0    0    0    0  0.00000000000E+00  0.00000000000E+00  0.45593999997E+02  0.45594000000E+02  0.51100000000E-03 0.  1.
         11   -1    0    0    0    0 -0.00000000000E+00 -0.00000000000E+00 -0.45593999997E+02  0.45594000000E+02  0.51100000000E-03 0. -1.
    9900012    2    1    2    0    0  0.25086592262E+02  0.13550072012E+02 -0.32721271481E+02  0.47787272239E+02  0.20000005448E+02 0.  0.
        -12    1    1    2    0    0 -0.25086592262E+02 -0.13550072012E+02  0.32721271481E+02  0.43400727761E+02  0.00000000000E+00 0.  1.
         11    1    3    3    0    0  0.41265471394E+01  0.79902974273E+00 -0.98070865751E+01  0.10669854131E+02  0.51100000000E-03 0. -1.
        -11    1    3    3    0    0  0.95999068117E+01  0.39510199850E+01 -0.19885033890E+02  0.22431748545E+02  0.51100000000E-03 0.  1.
        -12    1    3    3    0    0  0.11360138311E+02  0.88000222842E+01 -0.30291510153E+01  0.14685669563E+02  0.00000000000E+00 0.  1.
</event>
<event>
 7    1  0.4519225E-009  0.4778731E+02  0.7816164E-02  0.1312668E+00
        -11   -1    0    0    0    0  0.00000000000E+00  0.00000000000E+00  0.45593999997E+02  0.45594000000E+02  0.51100000000E-03 0. -1.
         11   -1    0    0    0    0 -0.00000000000E+00 -0.00000000000E+00 -0.45593999997E+02  0.45594000000E+02  0.51100000000E-03 0.  1.
    9900012    2    1    2    0    0  0.21872763074E+02 -0.25940210961E+02  0.27061188340E+02  0.47787306186E+02  0.20000160222E+02 0.  0.
        -12    1    1    2    0    0 -0.21872763074E+02  0.25940210961E+02 -0.27061188340E+02  0.43400693814E+02  0.00000000000E+00 0.  1.
         11    1    3    3    0    0  0.51301631126E+01  0.10496087490E+01  0.13470441223E+01  0.54069196606E+01  0.51100000000E-03 0. -1.
        -11    1    3    3    0    0 -0.35240854962E+00 -0.70217531011E+01  0.81632255875E+01  0.10773460941E+02  0.51100000000E-03 0.  1.
         12    1    3    3    0    0  0.17095008511E+02 -0.19968066609E+02  0.17550918630E+02  0.31606925584E+02  0.00000000000E+00 0. -1.
</event>
<event>
 7    1  0.4519225E-009  0.4778727E+02  0.7816164E-02  0.1312668E+00
        -11   -1    0    0    0    0  0.00000000000E+00  0.00000000000E+00  0.45593999997E+02  0.45594000000E+02  0.51100000000E-03 0.  1.
         11   -1    0    0    0    0 -0.00000000000E+00 -0.00000000000E+00 -0.45593999997E+02  0.45594000000E+02  0.51100000000E-03 0. -1.
    9900012    2    1    2    0    0  0.12896663830E+02  0.70999943185E+01 -0.40827557286E+02  0.47787270845E+02  0.19999999089E+02 0.  0.
        -12    1    1    2    0    0 -0.12896663830E+02 -0.70999943185E+01  0.40827557286E+02  0.43400729155E+02  0.00000000000E+00 0.  1.
         11    1    3    3    0    0  0.57278246602E+01 -0.36338192681E+01 -0.10187611887E+02  0.12239283232E+02  0.51100000000E-03 0. -1.
        -11    1    3    3    0    0  0.50944985071E+01  0.44977367153E+01 -0.35400947639E+01  0.76626249939E+01  0.51100000000E-03 0.  1.
         12    1    3    3    0    0  0.20743406630E+01  0.62360768714E+01 -0.27099850635E+02  0.27885362619E+02  0.00000000000E+00 0. -1.
</event>
<event>
 7    1  0.4519225E-009  0.4778727E+02  0.7816164E-02  0.1312668E+00
        -11   -1    0    0    0    0  0.00000000000E+00  0.00000000000E+00  0.45593999997E+02  0.45594000000E+02  0.51100000000E-03 0.  1.
         11   -1    0    0    0    0 -0.00000000000E+00 -0.00000000000E+00 -0.45593999997E+02  0.45594000000E+02  0.51100000000E-03 0. -1.
    9900012    2    1    2    0    0  0.46317475884E+00 -0.63213273551E+01 -0.42935411017E+02  0.47787271555E+02  0.20000002327E+02 0.  0.
        -12    1    1    2    0    0 -0.46317475884E+00  0.63213273551E+01  0.42935411017E+02  0.43400728445E+02  0.00000000000E+00 0.  1.
         11    1    3    3    0    0  0.56437215899E+00  0.25059230609E+01 -0.62385213433E+01  0.67466521425E+01  0.51100000000E-03 0. -1.
        -11    1    3    3    0    0  0.21956127786E+01 -0.24090914898E+01  0.43480686809E+00  0.32883878351E+01  0.51100000000E-03 0.  1.
         12    1    3    3    0    0 -0.22968101788E+01 -0.64181589262E+01 -0.37131696542E+02  0.37752231577E+02  0.00000000000E+00 0. -1.
</event>
<event>
 7    1  0.4519225E-009  0.4778727E+02  0.7816164E-02  0.1312668E+00
        -11   -1    0    0    0    0  0.00000000000E+00  0.00000000000E+00  0.45593999997E+02  0.45594000000E+02  0.51100000000E-03 0. -1.
         11   -1    0    0    0    0 -0.00000000000E+00 -0.00000000000E+00 -0.45593999997E+02  0.45594000000E+02  0.51100000000E-03 0.  1.
    9900012    2    1    2    0    0 -0.32688519017E+02  0.22979769211E+02  0.16941498239E+02  0.47787269233E+02  0.19999991742E+02 0.  0.
        -12    1    1    2    0    0  0.32688519017E+02 -0.22979769211E+02 -0.16941498239E+02  0.43400730767E+02  0.00000000000E+00 0.  1.
         11    1    3    3    0    0 -0.15093143738E+02  0.75498101601E+01  0.12101743689E+01  0.16919430949E+02  0.51100000000E-03 0. -1.
        -11    1    3    3    0    0 -0.69614244694E+01  0.71374216972E+01 -0.22972280971E+00  0.99728126402E+01  0.51100000000E-03 0.  1.
        -12    1    3    3    0    0 -0.10633950809E+02  0.82925373538E+01  0.15961046679E+02  0.20895025644E+02  0.00000000000E+00 0.  1.
</event>
<event>
 7    1  0.4519225E-009  0.4778728E+02  0.7816164E-02  0.1312668E+00
        -11   -1    0    0    0    0  0.00000000000E+00  0.00000000000E+00  0.45593999997E+02  0.45594000000E+02  0.51100000000E-03 0.  1.
         11   -1    0    0    0    0 -0.00000000000E+00 -0.00000000000E+00 -0.45593999997E+02  0.45594000000E+02  0.51100000000E-03 0. -1.
    9900012    2    1    2    0    0  0.26000488130E+02  0.12251137085E+02 -0.32519328201E+02  0.47787280542E+02  0.20000043302E+02 0.  0.
        -12    1    1    2    0    0 -0.26000488130E+02 -0.12251137085E+02  0.32519328201E+02  0.43400719458E+02  0.00000000000E+00 0.  1.
         11    1    3    3    0    0  0.80011667813E+01  0.14581149672E+02 -0.15286868595E+02  0.22590195823E+02  0.51100000000E-03 0.  1.
        -11    1    3    3    0    0  0.43175192797E+01 -0.95608668942E+00 -0.26565769876E+01  0.51587281417E+01  0.51100000000E-03 0. -1.
        -12    1    3    3    0    0  0.13681802069E+02 -0.13739258973E+01 -0.14575882618E+02  0.20038356577E+02  0.00000000000E+00 0.  1.
</event>
<event>
 7    1  0.4519225E-009  0.4778727E+02  0.7816164E-02  0.1312668E+00
        -11   -1    0    0    0    0  0.00000000000E+00  0.00000000000E+00  0.45593999997E+02  0.45594000000E+02  0.51100000000E-03 0.  1.
         11   -1    0    0    0    0 -0.00000000000E+00 -0.00000000000E+00 -0.45593999997E+02  0.45594000000E+02  0.51100000000E-03 0. -1.
    9900012    2    1    2    0    0 -0.17830846917E+02 -0.28744528681E+02  0.27192577693E+02  0.47787270600E+02  0.19999997972E+02 0.  0.
        -12    1    1    2    0    0  0.17830846917E+02  0.28744528681E+02 -0.27192577693E+02  0.43400729400E+02  0.00000000000E+00 0.  1.
         11    1    3    3    0    0 -0.38249077590E+01 -0.12259844706E+02  0.13715536320E+02  0.18789615440E+02  0.51100000000E-03 0. -1.
        -11    1    3    3    0    0  0.27029585933E+01 -0.39537030556E+01  0.24439200559E+01  0.53768483808E+01  0.51100000000E-03 0.  1.
        -12    1    3    3    0    0 -0.16708897752E+02 -0.12530980919E+02  0.11033121317E+02  0.23620806779E+02  0.00000000000E+00 0.  1.
</event>
<event>
 7    1  0.4519225E-009  0.4778727E+02  0.7816164E-02  0.1312668E+00
        -11   -1    0    0    0    0  0.00000000000E+00  0.00000000000E+00  0.45593999997E+02  0.45594000000E+02  0.51100000000E-03 0. -1.
         11   -1    0    0    0    0 -0.00000000000E+00 -0.00000000000E+00 -0.45593999997E+02  0.45594000000E+02  0.51100000000E-03 0.  1.
    9900012    2    1    2    0    0  0.21445646748E+02  0.36412417035E+01  0.37555943954E+02  0.47787270377E+02  0.19999996956E+02 0.  0.
        -12    1    1    2    0    0 -0.21445646748E+02 -0.36412417035E+01 -0.37555943954E+02  0.43400729623E+02  0.00000000000E+00 0.  1.
         11    1    3    3    0    0  0.19297135494E+02  0.59745051479E+01  0.20261509584E+02  0.28611237669E+02  0.51100000000E-03 0. -1.
        -11    1    3    3    0    0  0.27378291440E+01  0.54567279352E+00  0.15463948791E+02  0.15713916752E+02  0.51100000000E-03 0.  1.
        -12    1    3    3    0    0 -0.58931789071E+00 -0.28789362379E+01  0.18304855788E+01  0.34621159560E+01  0.00000000000E+00 0.  1.
</event>
<event>
 7    1  0.4519225E-009  0.4778727E+02  0.7816164E-02  0.1312668E+00
        -11   -1    0    0    0    0  0.00000000000E+00  0.00000000000E+00  0.45593999997E+02  0.45594000000E+02  0.51100000000E-03 0. -1.
         11   -1    0    0    0    0 -0.00000000000E+00 -0.00000000000E+00 -0.45593999997E+02  0.45594000000E+02  0.51100000000E-03 0.  1.
    9900012    2    1    2    0    0  0.28787946875E+02  0.32478396472E+02 -0.17693275591E+00  0.47787269270E+02  0.19999991911E+02 0.  0.
        -12    1    1    2    0    0 -0.28787946875E+02 -0.32478396472E+02  0.17693275591E+00  0.43400730730E+02  0.00000000000E+00 0.  1.
         11    1    3    3    0    0  0.10110949288E+02  0.53744053162E+01  0.24160141220E+01  0.11702677152E+02  0.51100000000E-03 0.  1.
        -11    1    3    3    0    0  0.19420230240E+02  0.18843272210E+02 -0.48459416275E+01  0.27489950904E+02  0.51100000000E-03 0. -1.
        -12    1    3    3    0    0 -0.74323265320E+00  0.82607189452E+01  0.22529947496E+01  0.85946412148E+01  0.00000000000E+00 0.  1.
</event>
<event>
 7    1  0.4519225E-009  0.4778728E+02  0.7816164E-02  0.1312668E+00
        -11   -1    0    0    0    0  0.00000000000E+00  0.00000000000E+00  0.45593999997E+02  0.45594000000E+02  0.51100000000E-03 0.  1.
         11   -1    0    0    0    0 -0.00000000000E+00 -0.00000000000E+00 -0.45593999997E+02  0.45594000000E+02  0.51100000000E-03 0. -1.
    9900012    2    1    2    0    0  0.10683087222E+02  0.42051486497E+02  0.10802669643E+01  0.47787275975E+02  0.20000022480E+02 0.  0.
        -12    1    1    2    0    0 -0.10683087222E+02 -0.42051486497E+02 -0.10802669643E+01  0.43400724025E+02  0.00000000000E+00 0.  1.
         11    1    3    3    0    0 -0.77638775113E+00  0.10183005751E+02 -0.62385380334E+01  0.11967277933E+02  0.51100000000E-03 0. -1.
        -11    1    3    3    0    0  0.82963586569E+01  0.11096370847E+02  0.47765961812E+01  0.14655199906E+02  0.51100000000E-03 0.  1.
        -12    1    3    3    0    0  0.31631163160E+01  0.20772109899E+02  0.25422088165E+01  0.21164798136E+02  0.00000000000E+00 0.  1.
</event>
<event>
 7    1  0.4519225E-009  0.4778727E+02  0.7816164E-02  0.1312668E+00
        -11   -1    0    0    0    0  0.00000000000E+00  0.00000000000E+00  0.45593999997E+02  0.45594000000E+02  0.51100000000E-03 0. -1.
         11   -1    0    0    0    0 -0.00000000000E+00 -0.00000000000E+00 -0.45593999997E+02  0.45594000000E+02  0.51100000000E-03 0.  1.
    9900012    2    1    2    0    0  0.33867264429E+02 -0.17851040892E+02 -0.20444357941E+02  0.47787273826E+02  0.20000012682E+02 0.  0.
        -12    1    1    2    0    0 -0.33867264429E+02  0.17851040892E+02  0.20444357941E+02  0.43400726174E+02  0.00000000000E+00 0.  1.
         11    1    3    3    0    0 -0.19888802682E+00 -0.23070168450E+00  0.17174778159E+01  0.17442792276E+01  0.51100000000E-03 0.  1.
        -11    1    3    3    0    0  0.11219832915E+02 -0.12730777559E+02 -0.10134668075E+02  0.19765344549E+02  0.51100000000E-03 0. -1.
        -12    1    3    3    0    0  0.22846319541E+02 -0.48895616487E+01 -0.12027167682E+02  0.26277650049E+02  0.00000000000E+00 0.  1.
</event>
<event>
 7    1  0.4519225E-009  0.4778727E+02  0.7816164E-02  0.1312668E+00
        -11   -1    0    0    0    0  0.00000000000E+00  0.00000000000E+00  0.45593999997E+02  0.45594000000E+02  0.51100000000E-03 0.  1.
         11   -1    0    0    0    0 -0.00000000000E+00 -0.00000000000E+00 -0.45593999997E+02  0.45594000000E+02  0.51100000000E-03 0. -1.
    9900012    2    1    2    0    0 -0.23008660738E+02  0.28891031790E+02 -0.22793268209E+02  0.47787271175E+02  0.20000000597E+02 0.  0.
        -12    1    1    2    0    0  0.23008660738E+02 -0.28891031790E+02  0.22793268209E+02  0.43400728825E+02  0.00000000000E+00 0.  1.
         11    1    3    3    0    0 -0.15999054469E+02  0.21669569849E+02 -0.22051702246E+02  0.34811170241E+02  0.51100000000E-03 0. -1.
        -11    1    3    3    0    0  0.85072911096E+00  0.44408539467E+01  0.48956595479E+00  0.45480324186E+01  0.51100000000E-03 0.  1.
        -12    1    3    3    0    0 -0.78603353804E+01  0.27806079942E+01 -0.12311319178E+01  0.84280685159E+01  0.00000000000E+00 0.  1.
</event>
<event>
 7    1  0.4519225E-009  0.4778727E+02  0.7816164E-02  0.1312668E+00
        -11   -1    0    0    0    0  0.00000000000E+00  0.00000000000E+00  0.45593999997E+02  0.45594000000E+02  0.51100000000E-03 0.  1.
         11   -1    0    0    0    0 -0.00000000000E+00 -0.00000000000E+00 -0.45593999997E+02  0.45594000000E+02  0.51100000000E-03 0. -1.
    9900012    2    1    2    0    0  0.31818917055E+02 -0.41239180585E+01 -0.29226240574E+02  0.47787270504E+02  0.19999997536E+02 0.  0.
        -12    1    1    2    0    0 -0.31818917055E+02  0.41239180585E+01  0.29226240574E+02  0.43400729496E+02  0.00000000000E+00 0.  1.
         11    1    3    3    0    0  0.15657799434E+01 -0.46459469322E+01 -0.83805274356E+01  0.97092600175E+01  0.51100000000E-03 0. -1.
        -11    1    3    3    0    0  0.65472195725E+01  0.25022787886E+01 -0.92729039111E+01  0.11623864696E+02  0.51100000000E-03 0.  1.
         12    1    3    3    0    0  0.23705917539E+02 -0.19802499149E+01 -0.11572809228E+02  0.26454145790E+02  0.00000000000E+00 0. -1.
</event>
<event>
 7    1  0.4519225E-009  0.4778727E+02  0.7816164E-02  0.1312668E+00
        -11   -1    0    0    0    0  0.00000000000E+00  0.00000000000E+00  0.45593999997E+02  0.45594000000E+02  0.51100000000E-03 0.  1.
         11   -1    0    0    0    0 -0.00000000000E+00 -0.00000000000E+00 -0.45593999997E+02  0.45594000000E+02  0.51100000000E-03 0. -1.
    9900012    2    1    2    0    0 -0.39603123846E+02  0.42636288342E+01 -0.17234767971E+02  0.47787272170E+02  0.20000005131E+02 0.  0.
        -12    1    1    2    0    0  0.39603123846E+02 -0.42636288342E+01  0.17234767971E+02  0.43400727830E+02  0.00000000000E+00 0.  1.
         11    1    3    3    0    0 -0.16819468376E+02  0.24293860206E+01 -0.38621428820E+01  0.17427351514E+02  0.51100000000E-03 0. -1.
        -11    1    3    3    0    0 -0.21575982174E+02  0.71139394559E-01 -0.55889620390E+01  0.22288215822E+02  0.51100000000E-03 0.  1.
        -12    1    3    3    0    0 -0.12076732957E+01  0.17631034191E+01 -0.77836630497E+01  0.80717048340E+01  0.00000000000E+00 0.  1.
</event>
<event>
 7    1  0.4519225E-009  0.4778725E+02  0.7816164E-02  0.1312668E+00
        -11   -1    0    0    0    0  0.00000000000E+00  0.00000000000E+00  0.45593999997E+02  0.45594000000E+02  0.51100000000E-03 0.  1.
         11   -1    0    0    0    0 -0.00000000000E+00 -0.00000000000E+00 -0.45593999997E+02  0.45594000000E+02  0.51100000000E-03 0. -1.
    9900012    2    1    2    0    0  0.23259354191E+02 -0.19421406053E+02 -0.31071470232E+02  0.47787253084E+02  0.19999918112E+02 0.  0.
        -12    1    1    2    0    0 -0.23259354191E+02  0.19421406053E+02  0.31071470232E+02  0.43400746916E+02  0.00000000000E+00 0.  1.
         11    1    3    3    0    0  0.12242656971E+02 -0.81678035430E+01 -0.10223599243E+02  0.17919755751E+02  0.51100000000E-03 0. -1.
        -11    1    3    3    0    0  0.10491990267E+02 -0.17010877566E+01 -0.15822138178E+02  0.19060839858E+02  0.51100000000E-03 0.  1.
        -12    1    3    3    0    0  0.52470695350E+00 -0.95525147532E+01 -0.50257328117E+01  0.10806657475E+02  0.00000000000E+00 0.  1.
</event>
<event>
 7    1  0.4519225E-009  0.4778727E+02  0.7816164E-02  0.1312668E+00
        -11   -1    0    0    0    0  0.00000000000E+00  0.00000000000E+00  0.45593999997E+02  0.45594000000E+02  0.51100000000E-03 0.  1.
         11   -1    0    0    0    0 -0.00000000000E+00 -0.00000000000E+00 -0.45593999997E+02  0.45594000000E+02  0.51100000000E-03 0. -1.
    9900012    2    1    2    0    0  0.39798249821E+02  0.16579897089E+02 -0.49829008041E+01  0.47787274468E+02  0.20000015610E+02 0.  0.
        -12    1    1    2    0    0 -0.39798249821E+02 -0.16579897089E+02  0.49829008041E+01  0.43400725532E+02  0.00000000000E+00 0.  1.
         11    1    3    3    0    0  0.12367379006E+02  0.25574706372E+01 -0.54507472267E+01  0.13755121415E+02  0.51100000000E-03 0. -1.
        -11    1    3    3    0    0  0.11043013291E+02  0.42105483137E+00 -0.48699310821E+01  0.12076491987E+02  0.51100000000E-03 0.  1.
        -12    1    3    3    0    0  0.16387857524E+02  0.13601371620E+02  0.53377775047E+01  0.21955661066E+02  0.00000000000E+00 0.  1.
</event>
<event>
 7    1  0.4519225E-009  0.4778727E+02  0.7816164E-02  0.1312668E+00
        -11   -1    0    0    0    0  0.00000000000E+00  0.00000000000E+00  0.45593999997E+02  0.45594000000E+02  0.51100000000E-03 0.  1.
         11   -1    0    0    0    0 -0.00000000000E+00 -0.00000000000E+00 -0.45593999997E+02  0.45594000000E+02  0.51100000000E-03 0. -1.
    9900012    2    1    2    0    0  0.20344971829E+02  0.16070144328E+02 -0.34805979383E+02  0.47787267077E+02  0.19999981911E+02 0.  0.
        -12    1    1    2    0    0 -0.20344971829E+02 -0.16070144328E+02  0.34805979383E+02  0.43400732923E+02  0.00000000000E+00 0.  1.
         11    1    3    3    0    0  0.37927939539E+01  0.83438300653E+01 -0.21611210244E+02  0.23474437046E+02  0.51100000000E-03 0. -1.
        -11    1    3    3    0    0  0.46323127466E+01  0.41606210720E+01 -0.94552243104E+01  0.11321234743E+02  0.51100000000E-03 0.  1.
        -12    1    3    3    0    0  0.11919865128E+02  0.35656931907E+01 -0.37395448286E+01  0.12991595288E+02  0.00000000000E+00 0.  1.
</event>
<event>
 7    1  0.4519225E-009  0.4778727E+02  0.7816164E-02  0.1312668E+00
        -11   -1    0    0    0    0  0.00000000000E+00  0.00000000000E+00  0.45593999997E+02  0.45594000000E+02  0.51100000000E-03 0.  1.
         11   -1    0    0    0    0 -0.00000000000E+00 -0.00000000000E+00 -0.45593999997E+02  0.45594000000E+02  0.51100000000E-03 0. -1.
    9900012    2    1    2    0    0  0.10730411865E+02 -0.12174665846E+02 -0.40252444953E+02  0.47787267841E+02  0.19999985395E+02 0.  0.
        -12    1    1    2    0    0 -0.10730411865E+02  0.12174665846E+02  0.40252444953E+02  0.43400732159E+02  0.00000000000E+00 0.  1.
         11    1    3    3    0    0 -0.31500044922E+01 -0.46607067340E+01 -0.17323131380E+02  0.18213610203E+02  0.51100000000E-03 0. -1.
        -11    1    3    3    0    0  0.35466793905E+01  0.19091013837E+01 -0.88778118117E+01  0.97488022657E+01  0.51100000000E-03 0.  1.
         12    1    3    3    0    0  0.10333736966E+02 -0.94230604957E+01 -0.14051501761E+02  0.19824855373E+02  0.00000000000E+00 0. -1.
</event>
<event>
 7    1  0.4519225E-009  0.4778727E+02  0.7816164E-02  0.1312668E+00
        -11   -1    0    0    0    0  0.00000000000E+00  0.00000000000E+00  0.45593999997E+02  0.45594000000E+02  0.51100000000E-03 0.  1.
         11   -1    0    0    0    0 -0.00000000000E+00 -0.00000000000E+00 -0.45593999997E+02  0.45594000000E+02  0.51100000000E-03 0. -1.
    9900012    2    1    2    0    0  0.31963961895E+02  0.17416083292E+02 -0.23634902920E+02  0.47787268978E+02  0.19999990576E+02 0.  0.
        -12    1    1    2    0    0 -0.31963961895E+02 -0.17416083292E+02  0.23634902920E+02  0.43400731022E+02  0.00000000000E+00 0.  1.
         11    1    3    3    0    0  0.17238767256E+02  0.93299071444E+01 -0.14899915973E+02  0.24621733491E+02  0.51100000000E-03 0. -1.
        -11    1    3    3    0    0  0.85983812458E+01  0.78800552621E+01 -0.11554907410E+02  0.16417774408E+02  0.51100000000E-03 0.  1.
        -12    1    3    3    0    0  0.61268133922E+01  0.20612088549E+00  0.28199204626E+01  0.67477610789E+01  0.00000000000E+00 0.  1.
</event>
<event>
 7    1  0.4519225E-009  0.4778723E+02  0.7816164E-02  0.1312668E+00
        -11   -1    0    0    0    0  0.00000000000E+00  0.00000000000E+00  0.45593999997E+02  0.45594000000E+02  0.51100000000E-03 0.  1.
         11   -1    0    0    0    0 -0.00000000000E+00 -0.00000000000E+00 -0.45593999997E+02  0.45594000000E+02  0.51100000000E-03 0. -1.
    9900012    2    1    2    0    0 -0.42187459273E+02 -0.93783194803E+01 -0.39865163352E+01  0.47787229170E+02  0.19999809076E+02 0.  0.
        -12    1    1    2    0    0  0.42187459273E+02  0.93783194803E+01  0.39865163352E+01  0.43400770830E+02  0.00000000000E+00 0.  1.
         11    1    3    3    0    0 -0.53510381700E+01  0.93389522303E+00 -0.42552059548E+01  0.69001846181E+01  0.51100000000E-03 0. -1.
        -11    1    3    3    0    0 -0.20355918170E+02 -0.10423129055E+02 -0.53281071792E+01  0.23481774853E+02  0.51100000000E-03 0.  1.
        -12    1    3    3    0    0 -0.16480502932E+02  0.11091435167E+00  0.55967967988E+01  0.17405269699E+02  0.00000000000E+00 0.  1.
</event>
<event>
 7    1  0.4519225E-009  0.4778727E+02  0.7816164E-02  0.1312668E+00
        -11   -1    0    0    0    0  0.00000000000E+00  0.00000000000E+00  0.45593999997E+02  0.45594000000E+02  0.51100000000E-03 0.  1.
         11   -1    0    0    0    0 -0.00000000000E+00 -0.00000000000E+00 -0.45593999997E+02  0.45594000000E+02  0.51100000000E-03 0. -1.
    9900012    2    1    2    0    0 -0.28748293592E+02 -0.26902027106E+02 -0.18260333051E+02  0.47787271781E+02  0.20000003357E+02 0.  0.
        -12    1    1    2    0    0  0.28748293592E+02  0.26902027106E+02  0.18260333051E+02  0.43400728219E+02  0.00000000000E+00 0.  1.
         11    1    3    3    0    0 -0.14599212838E+02 -0.15483149795E+02 -0.15349414609E+02  0.26238701800E+02  0.51100000000E-03 0. -1.
        -11    1    3    3    0    0 -0.27385644450E+00  0.81909252057E+00 -0.29225496827E+01  0.30474918898E+01  0.51100000000E-03 0.  1.
         12    1    3    3    0    0 -0.13875224310E+02 -0.12237969832E+02  0.11631240671E-01  0.18501078091E+02  0.00000000000E+00 0. -1.
</event>
<event>
 7    1  0.4519225E-009  0.4778727E+02  0.7816164E-02  0.1312668E+00
        -11   -1    0    0    0    0  0.00000000000E+00  0.00000000000E+00  0.45593999997E+02  0.45594000000E+02  0.51100000000E-03 0.  1.
         11   -1    0    0    0    0 -0.00000000000E+00 -0.00000000000E+00 -0.45593999997E+02  0.45594000000E+02  0.51100000000E-03 0. -1.
    9900012    2    1    2    0    0  0.35761539447E+02  0.33424360440E+01 -0.24363165640E+02  0.47787269334E+02  0.19999992203E+02 0.  0.
        -12    1    1    2    0    0 -0.35761539447E+02 -0.33424360440E+01  0.24363165640E+02  0.43400730666E+02  0.00000000000E+00 0.  1.
         11    1    3    3    0    0  0.10273584026E+02 -0.50520387228E+01 -0.46075627754E+01  0.12340958593E+02  0.51100000000E-03 0.  1.
        -11    1    3    3    0    0  0.16143312426E+02  0.11188878711E+02 -0.12375235961E+02  0.23215167634E+02  0.51100000000E-03 0. -1.
         12    1    3    3    0    0  0.93446429949E+01 -0.27944039444E+01 -0.73803669031E+01  0.12231143108E+02  0.00000000000E+00 0. -1.
</event>
<event>
 7    1  0.4519225E-009  0.4778726E+02  0.7816164E-02  0.1312668E+00
        -11   -1    0    0    0    0  0.00000000000E+00  0.00000000000E+00  0.45593999997E+02  0.45594000000E+02  0.51100000000E-03 0.  1.
         11   -1    0    0    0    0 -0.00000000000E+00 -0.00000000000E+00 -0.45593999997E+02  0.45594000000E+02  0.51100000000E-03 0. -1.
    9900012    2    1    2    0    0 -0.15174397377E+02 -0.22784894724E+01 -0.40597664366E+02  0.47787260352E+02  0.19999951248E+02 0.  0.
        -12    1    1    2    0    0  0.15174397377E+02  0.22784894724E+01  0.40597664366E+02  0.43400739648E+02  0.00000000000E+00 0.  1.
         11    1    3    3    0    0  0.11091818365E+01  0.34192390017E+00 -0.32219120584E+00  0.12045761637E+01  0.51100000000E-03 0. -1.
        -11    1    3    3    0    0  0.39363489979E+00  0.31451543376E+01 -0.17430576939E+02  0.17716431834E+02  0.51100000000E-03 0.  1.
         12    1    3    3    0    0 -0.16677214114E+02 -0.57655677102E+01 -0.22844896221E+02  0.28866252354E+02  0.00000000000E+00 0. -1.
</event>
<event>
 7    1  0.4519225E-009  0.4778727E+02  0.7816164E-02  0.1312668E+00
        -11   -1    0    0    0    0  0.00000000000E+00  0.00000000000E+00  0.45593999997E+02  0.45594000000E+02  0.51100000000E-03 0. -1.
         11   -1    0    0    0    0 -0.00000000000E+00 -0.00000000000E+00 -0.45593999997E+02  0.45594000000E+02  0.51100000000E-03 0.  1.
    9900012    2    1    2    0    0 -0.37600679049E+02 -0.21085622935E+02 -0.50208360254E+01  0.47787270123E+02  0.19999995798E+02 0.  0.
        -12    1    1    2    0    0  0.37600679049E+02  0.21085622935E+02  0.50208360254E+01  0.43400729877E+02  0.00000000000E+00 0.  1.
         11    1    3    3    0    0 -0.53653793235E+01 -0.42218729173E+01 -0.52960349506E+01  0.86405724737E+01  0.51100000000E-03 0. -1.
        -11    1    3    3    0    0  0.12625821451E+01 -0.14896177691E+01 -0.11417687504E+01  0.22620147903E+01  0.51100000000E-03 0.  1.
         12    1    3    3    0    0 -0.33497881870E+02 -0.15374132248E+02  0.14169676756E+01  0.36884682859E+02  0.00000000000E+00 0. -1.
</event>
<event>
 7    1  0.4519225E-009  0.4778728E+02  0.7816164E-02  0.1312668E+00
        -11   -1    0    0    0    0  0.00000000000E+00  0.00000000000E+00  0.45593999997E+02  0.45594000000E+02  0.51100000000E-03 0. -1.
         11   -1    0    0    0    0 -0.00000000000E+00 -0.00000000000E+00 -0.45593999997E+02  0.45594000000E+02  0.51100000000E-03 0.  1.
    9900012    2    1    2    0    0  0.39480352902E+02 -0.13043371958E+02 -0.12441667271E+02  0.47787275331E+02  0.20000019545E+02 0.  0.
        -12    1    1    2    0    0 -0.39480352902E+02  0.13043371958E+02  0.12441667271E+02  0.43400724669E+02  0.00000000000E+00 0.  1.
         11    1    3    3    0    0  0.74662943390E+01 -0.18053690349E+01 -0.80068896753E+00  0.77230830367E+01  0.51100000000E-03 0. -1.
        -11    1    3    3    0    0 -0.60233796340E+00  0.63967675811E+00 -0.45518741278E+01  0.46358985875E+01  0.51100000000E-03 0.  1.
        -12    1    3    3    0    0  0.32616396526E+02 -0.11877679681E+02 -0.70891041755E+01  0.35428293707E+02  0.00000000000E+00 0.  1.
</event>
<event>
 7    1  0.4519225E-009  0.4778727E+02  0.7816164E-02  0.1312668E+00
        -11   -1    0    0    0    0  0.00000000000E+00  0.00000000000E+00  0.45593999997E+02  0.45594000000E+02  0.51100000000E-03 0.  1.
         11   -1    0    0    0    0 -0.00000000000E+00 -0.00000000000E+00 -0.45593999997E+02  0.45594000000E+02  0.51100000000E-03 0. -1.
    9900012    2    1    2    0    0 -0.50838919707E+01 -0.37029139058E+02 -0.22059469519E+02  0.47787270831E+02  0.19999999026E+02 0.  0.
        -12    1    1    2    0    0  0.50838919707E+01  0.37029139058E+02  0.22059469519E+02  0.43400729169E+02  0.00000000000E+00 0.  1.
         11    1    3    3    0    0  0.31594869730E+01 -0.20392189314E+02 -0.17788519134E+02  0.27244360080E+02  0.51100000000E-03 0. -1.
        -11    1    3    3    0    0  0.51289512046E+00 -0.52790324654E+01  0.73156930954E+00  0.53541048824E+01  0.51100000000E-03 0.  1.
        -12    1    3    3    0    0 -0.87562740641E+01 -0.11357917279E+02 -0.50025196946E+01  0.15188805868E+02  0.00000000000E+00 0.  1.
</event>
<event>
 7    1  0.4519225E-009  0.4778727E+02  0.7816164E-02  0.1312668E+00
        -11   -1    0    0    0    0  0.00000000000E+00  0.00000000000E+00  0.45593999997E+02  0.45594000000E+02  0.51100000000E-03 0. -1.
         11   -1    0    0    0    0 -0.00000000000E+00 -0.00000000000E+00 -0.45593999997E+02  0.45594000000E+02  0.51100000000E-03 0.  1.
    9900012    2    1    2    0    0  0.15307503701E+02 -0.36398215185E+02 -0.18013144158E+02  0.47787273040E+02  0.20000009097E+02 0.  0.
        -12    1    1    2    0    0 -0.15307503701E+02  0.36398215185E+02  0.18013144158E+02  0.43400726960E+02  0.00000000000E+00 0.  1.
         11    1    3    3    0    0  0.40943483251E+01 -0.11052303791E+02 -0.16750522726E+01  0.11904743075E+02  0.51100000000E-03 0. -1.
        -11    1    3    3    0    0 -0.21326523942E+01 -0.11616595022E+02 -0.20389170590E+01  0.11985435711E+02  0.51100000000E-03 0.  1.
         12    1    3    3    0    0  0.13345807771E+02 -0.13729316372E+02 -0.14299174826E+02  0.23897094254E+02  0.00000000000E+00 0. -1.
</event>
<event>
 7    1  0.4519225E-009  0.4778727E+02  0.7816164E-02  0.1312668E+00
        -11   -1    0    0    0    0  0.00000000000E+00  0.00000000000E+00  0.45593999997E+02  0.45594000000E+02  0.51100000000E-03 0.  1.
         11   -1    0    0    0    0 -0.00000000000E+00 -0.00000000000E+00 -0.45593999997E+02  0.45594000000E+02  0.51100000000E-03 0. -1.
    9900012    2    1    2    0    0  0.10991518581E+02  0.41975291448E+02  0.94073409928E+00  0.47787267823E+02  0.19999985313E+02 0.  0.
        -12    1    1    2    0    0 -0.10991518581E+02 -0.41975291448E+02 -0.94073409928E+00  0.43400732177E+02  0.00000000000E+00 0.  1.
         11    1    3    3    0    0  0.38387497169E+01  0.46247018658E+01  0.32723956340E+01  0.68434231334E+01  0.51100000000E-03 0. -1.
        -11    1    3    3    0    0 -0.51158517042E+00 -0.11953479828E+01  0.78686497025E+00  0.15197805529E+01  0.51100000000E-03 0.  1.
         12    1    3    3    0    0  0.76643540344E+01  0.38545937565E+02 -0.31185265050E+01  0.39424064137E+02  0.00000000000E+00 0. -1.
</event>
<event>
 7    1  0.4519225E-009  0.4778732E+02  0.7816164E-02  0.1312668E+00
        -11   -1    0    0    0    0  0.00000000000E+00  0.00000000000E+00  0.45593999997E+02  0.45594000000E+02  0.51100000000E-03 0.  1.
         11   -1    0    0    0    0 -0.00000000000E+00 -0.00000000000E+00 -0.45593999997E+02  0.45594000000E+02  0.51100000000E-03 0. -1.
    9900012    2    1    2    0    0  0.48066161874E+01  0.19992430581E+02 -0.38220648524E+02  0.47787322433E+02  0.20000234300E+02 0.  0.
        -12    1    1    2    0    0 -0.48066161874E+01 -0.19992430581E+02  0.38220648524E+02  0.43400677567E+02  0.00000000000E+00 0.  1.
         11    1    3    3    0    0  0.51472240639E+01  0.73655577970E+01 -0.22394830038E+02  0.24130349560E+02  0.51100000000E-03 0. -1.
        -11    1    3    3    0    0 -0.58787798056E+01  0.36779940679E+01 -0.49283216103E+01  0.85074112703E+01  0.51100000000E-03 0.  1.
         12    1    3    3    0    0  0.55381719292E+01  0.89488787158E+01 -0.10897496876E+02  0.15149561603E+02  0.00000000000E+00 0. -1.
</event>
<event>
 7    1  0.4519225E-009  0.4778728E+02  0.7816164E-02  0.1312668E+00
        -11   -1    0    0    0    0  0.00000000000E+00  0.00000000000E+00  0.45593999997E+02  0.45594000000E+02  0.51100000000E-03 0.  1.
         11   -1    0    0    0    0 -0.00000000000E+00 -0.00000000000E+00 -0.45593999997E+02  0.45594000000E+02  0.51100000000E-03 0. -1.
    9900012    2    1    2    0    0  0.16442834437E+02  0.65108055840E+00 -0.40160078599E+02  0.47787278539E+02  0.20000034172E+02 0.  0.
        -12    1    1    2    0    0 -0.16442834437E+02 -0.65108055840E+00  0.40160078599E+02  0.43400721461E+02  0.00000000000E+00 0.  1.
         11    1    3    3    0    0  0.51092635316E+01  0.87461008031E+00 -0.66587018876E+01  0.84384730679E+01  0.51100000000E-03 0. -1.
        -11    1    3    3    0    0 -0.53691304688E+00 -0.17281907974E+01 -0.24004398902E+02  0.24072517233E+02  0.51100000000E-03 0.  1.
        -12    1    3    3    0    0  0.11870483953E+02  0.15046612755E+01 -0.94969778097E+01  0.15276288238E+02  0.00000000000E+00 0.  1.
</event>
<event>
 7    1  0.4519225E-009  0.4778728E+02  0.7816164E-02  0.1312668E+00
        -11   -1    0    0    0    0  0.00000000000E+00  0.00000000000E+00  0.45593999997E+02  0.45594000000E+02  0.51100000000E-03 0.  1.
         11   -1    0    0    0    0 -0.00000000000E+00 -0.00000000000E+00 -0.45593999997E+02  0.45594000000E+02  0.51100000000E-03 0. -1.
    9900012    2    1    2    0    0 -0.80141764391E+01 -0.50644344009E+01 -0.42352650185E+02  0.47787279989E+02  0.20000040780E+02 0.  0.
        -12    1    1    2    0    0  0.80141764391E+01  0.50644344009E+01  0.42352650185E+02  0.43400720011E+02  0.00000000000E+00 0.  1.
         11    1    3    3    0    0 -0.61108300474E+01 -0.67261220380E+01 -0.12185648929E+02  0.15201085541E+02  0.51100000000E-03 0. -1.
        -11    1    3    3    0    0 -0.14165754064E+01  0.16439943216E+01  0.23273130849E+00  0.21825598124E+01  0.51100000000E-03 0.  1.
        -12    1    3    3    0    0 -0.48677098533E+00  0.17693315488E-01 -0.30399732564E+02  0.30403634635E+02  0.00000000000E+00 0.  1.
</event>
<event>
 7    1  0.4519225E-009  0.4778727E+02  0.7816164E-02  0.1312668E+00
        -11   -1    0    0    0    0  0.00000000000E+00  0.00000000000E+00  0.45593999997E+02  0.45594000000E+02  0.51100000000E-03 0.  1.
         11   -1    0    0    0    0 -0.00000000000E+00 -0.00000000000E+00 -0.45593999997E+02  0.45594000000E+02  0.51100000000E-03 0. -1.
    9900012    2    1    2    0    0 -0.19841417762E+02 -0.11342943730E+02 -0.36895514149E+02  0.47787271946E+02  0.20000004112E+02 0.  0.
        -12    1    1    2    0    0  0.19841417762E+02  0.11342943730E+02  0.36895514149E+02  0.43400728054E+02  0.00000000000E+00 0.  1.
         11    1    3    3    0    0 -0.48864224853E+00  0.15604859646E+01 -0.11359740715E+02  0.11476828703E+02  0.51100000000E-03 0. -1.
        -11    1    3    3    0    0 -0.62796917941E+01 -0.43366321329E+01 -0.16687418974E+02  0.18349682819E+02  0.51100000000E-03 0.  1.
        -12    1    3    3    0    0 -0.13073083719E+02 -0.85667975613E+01 -0.88483544607E+01  0.17960760425E+02  0.00000000000E+00 0.  1.
</event>
<event>
 7    1  0.4519225E-009  0.4778728E+02  0.7816164E-02  0.1312668E+00
        -11   -1    0    0    0    0  0.00000000000E+00  0.00000000000E+00  0.45593999997E+02  0.45594000000E+02  0.51100000000E-03 0.  1.
         11   -1    0    0    0    0 -0.00000000000E+00 -0.00000000000E+00 -0.45593999997E+02  0.45594000000E+02  0.51100000000E-03 0. -1.
    9900012    2    1    2    0    0  0.17139953219E+02 -0.30003184199E+02 -0.26261246771E+02  0.47787284103E+02  0.20000059538E+02 0.  0.
        -12    1    1    2    0    0 -0.17139953219E+02  0.30003184199E+02  0.26261246771E+02  0.43400715897E+02  0.00000000000E+00 0.  1.
         11    1    3    3    0    0  0.94721033984E+01 -0.19309718307E+02 -0.24278258125E+02  0.32434854428E+02  0.51100000000E-03 0. -1.
        -11    1    3    3    0    0  0.31807182898E+01 -0.61457695636E+01 -0.47466580389E+01  0.83915561827E+01  0.51100000000E-03 0.  1.
        -12    1    3    3    0    0  0.44871315304E+01 -0.45476963280E+01  0.27636693929E+01  0.69608734923E+01  0.00000000000E+00 0.  1.
</event>
<event>
 7    1  0.4519225E-009  0.4778727E+02  0.7816164E-02  0.1312668E+00
        -11   -1    0    0    0    0  0.00000000000E+00  0.00000000000E+00  0.45593999997E+02  0.45594000000E+02  0.51100000000E-03 0.  1.
         11   -1    0    0    0    0 -0.00000000000E+00 -0.00000000000E+00 -0.45593999997E+02  0.45594000000E+02  0.51100000000E-03 0. -1.
    9900012    2    1    2    0    0  0.31517156474E+02  0.62180430358E+01 -0.29182666224E+02  0.47787271673E+02  0.20000002865E+02 0.  0.
        -12    1    1    2    0    0 -0.31517156474E+02 -0.62180430358E+01  0.29182666224E+02  0.43400728327E+02  0.00000000000E+00 0.  1.
         11    1    3    3    0    0  0.87063870711E+01  0.37265100570E+00 -0.13469420492E+02  0.16042609927E+02  0.51100000000E-03 0. -1.
        -11    1    3    3    0    0  0.59029420918E+01  0.82710333312E+01 -0.83169837626E+01  0.13131143776E+02  0.51100000000E-03 0.  1.
        -12    1    3    3    0    0  0.16907827311E+02 -0.24256413012E+01 -0.73962619692E+01  0.18613517970E+02  0.00000000000E+00 0.  1.
</event>
<event>
 7    1  0.4519225E-009  0.4778727E+02  0.7816164E-02  0.1312668E+00
        -11   -1    0    0    0    0  0.00000000000E+00  0.00000000000E+00  0.45593999997E+02  0.45594000000E+02  0.51100000000E-03 0.  1.
         11   -1    0    0    0    0 -0.00000000000E+00 -0.00000000000E+00 -0.45593999997E+02  0.45594000000E+02  0.51100000000E-03 0. -1.
    9900012    2    1    2    0    0 -0.20650637061E+02 -0.31113809795E+01 -0.38045943572E+02  0.47787270456E+02  0.19999997319E+02 0.  0.
        -12    1    1    2    0    0  0.20650637061E+02  0.31113809795E+01  0.38045943572E+02  0.43400729544E+02  0.00000000000E+00 0.  1.
         11    1    3    3    0    0 -0.17259486563E+02 -0.55973743456E+00 -0.29595873466E+02  0.34265418557E+02  0.51100000000E-03 0. -1.
        -11    1    3    3    0    0 -0.48404896722E+01  0.11872578581E+01 -0.80817642164E+01  0.94949899736E+01  0.51100000000E-03 0.  1.
        -12    1    3    3    0    0  0.14493391734E+01 -0.37389014031E+01 -0.36830588954E+00  0.40268619259E+01  0.00000000000E+00 0.  1.
</event>
<event>
 7    1  0.4519225E-009  0.4778727E+02  0.7816164E-02  0.1312668E+00
        -11   -1    0    0    0    0  0.00000000000E+00  0.00000000000E+00  0.45593999997E+02  0.45594000000E+02  0.51100000000E-03 0.  1.
         11   -1    0    0    0    0 -0.00000000000E+00 -0.00000000000E+00 -0.45593999997E+02  0.45594000000E+02  0.51100000000E-03 0. -1.
    9900012    2    1    2    0    0 -0.24351860742E+02  0.25332766242E+02 -0.25472748705E+02  0.47787273120E+02  0.20000009464E+02 0.  0.
        -12    1    1    2    0    0  0.24351860742E+02 -0.25332766242E+02  0.25472748705E+02  0.43400726880E+02  0.00000000000E+00 0.  1.
         11    1    3    3    0    0 -0.18636928301E+02  0.72432690668E+01 -0.14679779101E+02  0.24805159906E+02  0.51100000000E-03 0. -1.
        -11    1    3    3    0    0  0.13079235511E+01  0.69204146228E+00 -0.12292306019E+01  0.19236926820E+01  0.51100000000E-03 0.  1.
        -12    1    3    3    0    0 -0.70228559926E+01  0.17397455713E+02 -0.95637390024E+01  0.21058420532E+02  0.00000000000E+00 0.  1.
</event>
<event>
 7    1  0.4519225E-009  0.4778727E+02  0.7816164E-02  0.1312668E+00
        -11   -1    0    0    0    0  0.00000000000E+00  0.00000000000E+00  0.45593999997E+02  0.45594000000E+02  0.51100000000E-03 0.  1.
         11   -1    0    0    0    0 -0.00000000000E+00 -0.00000000000E+00 -0.45593999997E+02  0.45594000000E+02  0.51100000000E-03 0. -1.
    9900012    2    1    2    0    0  0.15422350259E+02 -0.50377994732E+00 -0.40565020771E+02  0.47787267380E+02  0.19999983295E+02 0.  0.
        -12    1    1    2    0    0 -0.15422350259E+02  0.50377994732E+00  0.40565020771E+02  0.43400732620E+02  0.00000000000E+00 0.  1.
         11    1    3    3    0    0  0.65283817918E+01 -0.51236842341E-01 -0.21591501102E+02  0.22556934945E+02  0.51100000000E-03 0. -1.
        -11    1    3    3    0    0  0.11468500403E+02  0.19102633396E+01 -0.18285578760E+02  0.21668825496E+02  0.51100000000E-03 0.  1.
        -12    1    3    3    0    0 -0.25745319361E+01 -0.23628064446E+01 -0.68794090945E+00  0.35615069394E+01  0.00000000000E+00 0.  1.
</event>
<event>
 7    1  0.4519225E-009  0.4778727E+02  0.7816164E-02  0.1312668E+00
        -11   -1    0    0    0    0  0.00000000000E+00  0.00000000000E+00  0.45593999997E+02  0.45594000000E+02  0.51100000000E-03 0. -1.
         11   -1    0    0    0    0 -0.00000000000E+00 -0.00000000000E+00 -0.45593999997E+02  0.45594000000E+02  0.51100000000E-03 0.  1.
    9900012    2    1    2    0    0 -0.40795048325E+02 -0.53594617014E+01  0.13808093800E+02  0.47787271297E+02  0.20000001150E+02 0.  0.
        -12    1    1    2    0    0  0.40795048325E+02  0.53594617014E+01 -0.13808093800E+02  0.43400728703E+02  0.00000000000E+00 0.  1.
         11    1    3    3    0    0 -0.15483617808E+02 -0.17242940496E+01  0.76775682496E+00  0.15598239042E+02  0.51100000000E-03 0. -1.
        -11    1    3    3    0    0 -0.10513708160E+02 -0.71040154312E+01  0.87109118536E+00  0.12718643585E+02  0.51100000000E-03 0.  1.
        -12    1    3    3    0    0 -0.14797722357E+02  0.34688477795E+01  0.12169245790E+02  0.19470388670E+02  0.00000000000E+00 0.  1.
</event>
<event>
 7    1  0.4519225E-009  0.4778727E+02  0.7816164E-02  0.1312668E+00
        -11   -1    0    0    0    0  0.00000000000E+00  0.00000000000E+00  0.45593999997E+02  0.45594000000E+02  0.51100000000E-03 0.  1.
         11   -1    0    0    0    0 -0.00000000000E+00 -0.00000000000E+00 -0.45593999997E+02  0.45594000000E+02  0.51100000000E-03 0. -1.
    9900012    2    1    2    0    0 -0.21299397795E+02 -0.19286364301E+02 -0.32526833879E+02  0.47787272857E+02  0.20000008263E+02 0.  0.
        -12    1    1    2    0    0  0.21299397795E+02  0.19286364301E+02  0.32526833879E+02  0.43400727143E+02  0.00000000000E+00 0.  1.
         11    1    3    3    0    0 -0.11532658192E+01 -0.46686604431E+01 -0.73500226825E+00  0.48648371996E+01  0.51100000000E-03 0. -1.
        -11    1    3    3    0    0  0.29596306930E+00  0.66329570447E+00  0.10826331660E+01  0.13037063178E+01  0.51100000000E-03 0.  1.
         12    1    3    3    0    0 -0.20442095045E+02 -0.15280999562E+02 -0.32874464777E+02  0.41618729339E+02  0.00000000000E+00 0. -1.
</event>
<event>
 7    1  0.4519225E-009  0.4778727E+02  0.7816164E-02  0.1312668E+00
        -11   -1    0    0    0    0  0.00000000000E+00  0.00000000000E+00  0.45593999997E+02  0.45594000000E+02  0.51100000000E-03 0. -1.
         11   -1    0    0    0    0 -0.00000000000E+00 -0.00000000000E+00 -0.45593999997E+02  0.45594000000E+02  0.51100000000E-03 0.  1.
    9900012    2    1    2    0    0 -0.35938854140E+02  0.17582774717E+02  0.16818683759E+02  0.47787270432E+02  0.19999997209E+02 0.  0.
        -12    1    1    2    0    0  0.35938854140E+02 -0.17582774717E+02 -0.16818683759E+02  0.43400729568E+02  0.00000000000E+00 0.  1.
         11    1    3    3    0    0 -0.36145776897E+00 -0.12009940993E+01 -0.26477776624E+01  0.29298063683E+01  0.51100000000E-03 0. -1.
        -11    1    3    3    0    0 -0.15648357987E+01  0.30847720982E+00  0.14808036839E+01  0.21763844048E+01  0.51100000000E-03 0.  1.
         12    1    3    3    0    0 -0.34012560572E+02  0.18475291606E+02  0.17985657737E+02  0.42681079659E+02  0.00000000000E+00 0. -1.
</event>
<event>
 7    1  0.4519225E-009  0.4778727E+02  0.7816164E-02  0.1312668E+00
        -11   -1    0    0    0    0  0.00000000000E+00  0.00000000000E+00  0.45593999997E+02  0.45594000000E+02  0.51100000000E-03 0. -1.
         11   -1    0    0    0    0 -0.00000000000E+00 -0.00000000000E+00 -0.45593999997E+02  0.45594000000E+02  0.51100000000E-03 0.  1.
    9900012    2    1    2    0    0  0.36577012437E+02 -0.21912598779E+02 -0.80983765698E+01  0.47787268127E+02  0.19999986697E+02 0.  0.
        -12    1    1    2    0    0 -0.36577012437E+02  0.21912598779E+02  0.80983765698E+01  0.43400731873E+02  0.00000000000E+00 0.  1.
         11    1    3    3    0    0  0.77873243335E+01 -0.11901280452E+02 -0.60500927603E+01  0.15455954171E+02  0.51100000000E-03 0. -1.
        -11    1    3    3    0    0  0.25100750106E+01 -0.11975735402E+00 -0.33898870507E+01  0.42197337428E+01  0.51100000000E-03 0.  1.
         12    1    3    3    0    0  0.26279613093E+02 -0.98915609732E+01  0.13416032412E+01  0.28111580213E+02  0.00000000000E+00 0. -1.
</event>
<event>
 7    1  0.4519225E-009  0.4778729E+02  0.7816164E-02  0.1312668E+00
        -11   -1    0    0    0    0  0.00000000000E+00  0.00000000000E+00  0.45593999997E+02  0.45594000000E+02  0.51100000000E-03 0. -1.
         11   -1    0    0    0    0 -0.00000000000E+00 -0.00000000000E+00 -0.45593999997E+02  0.45594000000E+02  0.51100000000E-03 0.  1.
    9900012    2    1    2    0    0  0.40986561375E+01  0.37707051798E+02  0.21095041866E+02  0.47787291149E+02  0.20000091664E+02 0.  0.
        -12    1    1    2    0    0 -0.40986561375E+01 -0.37707051798E+02 -0.21095041866E+02  0.43400708851E+02  0.00000000000E+00 0.  1.
         11    1    3    3    0    0  0.14061651697E+01  0.12536764034E+02  0.61565909339E+01  0.14037498535E+02  0.51100000000E-03 0. -1.
        -11    1    3    3    0    0  0.80056169660E+01  0.12007896603E+02  0.13000128033E+02  0.19423769278E+02  0.51100000000E-03 0.  1.
         12    1    3    3    0    0 -0.53131259981E+01  0.13162391161E+02  0.19383228986E+01  0.14326023336E+02  0.00000000000E+00 0. -1.
</event>
<event>
 7    1  0.4519225E-009  0.4778728E+02  0.7816164E-02  0.1312668E+00
        -11   -1    0    0    0    0  0.00000000000E+00  0.00000000000E+00  0.45593999997E+02  0.45594000000E+02  0.51100000000E-03 0.  1.
         11   -1    0    0    0    0 -0.00000000000E+00 -0.00000000000E+00 -0.45593999997E+02  0.45594000000E+02  0.51100000000E-03 0. -1.
    9900012    2    1    2    0    0 -0.13710555805E+02  0.18544798369E+02 -0.36765931068E+02  0.47787279104E+02  0.20000036745E+02 0.  0.
        -12    1    1    2    0    0  0.13710555805E+02 -0.18544798369E+02  0.36765931068E+02  0.43400720896E+02  0.00000000000E+00 0.  1.
         11    1    3    3    0    0 -0.38780808888E+01  0.74363417502E+01 -0.36518209398E+01  0.91473759321E+01  0.51100000000E-03 0.  1.
        -11    1    3    3    0    0 -0.70251059739E+01  0.40318812590E+01 -0.50127236449E+01  0.95255225071E+01  0.51100000000E-03 0. -1.
         12    1    3    3    0    0 -0.28073689425E+01  0.70765753601E+01 -0.28101386483E+02  0.29114380664E+02  0.00000000000E+00 0. -1.
</event>
<event>
 7    1  0.4519225E-009  0.4778727E+02  0.7816164E-02  0.1312668E+00
        -11   -1    0    0    0    0  0.00000000000E+00  0.00000000000E+00  0.45593999997E+02  0.45594000000E+02  0.51100000000E-03 0.  1.
         11   -1    0    0    0    0 -0.00000000000E+00 -0.00000000000E+00 -0.45593999997E+02  0.45594000000E+02  0.51100000000E-03 0. -1.
    9900012    2    1    2    0    0 -0.37775524629E+02 -0.59215591686E+01 -0.20532119151E+02  0.47787273730E+02  0.20000012244E+02 0.  0.
        -12    1    1    2    0    0  0.37775524629E+02  0.59215591686E+01  0.20532119151E+02  0.43400726270E+02  0.00000000000E+00 0.  1.
         11    1    3    3    0    0 -0.67865027180E+01 -0.26081669057E+01  0.14325270406E+01  0.74102150936E+01  0.51100000000E-03 0. -1.
        -11    1    3    3    0    0 -0.39207640274E+01 -0.24744351966E+01  0.11452290337E+01  0.47756434018E+01  0.51100000000E-03 0.  1.
         12    1    3    3    0    0 -0.27068257883E+02 -0.83895706635E+00 -0.23109875225E+02  0.35601415235E+02  0.00000000000E+00 0. -1.
</event>
<event>
 7    1  0.4519225E-009  0.4778727E+02  0.7816164E-02  0.1312668E+00
        -11   -1    0    0    0    0  0.00000000000E+00  0.00000000000E+00  0.45593999997E+02  0.45594000000E+02  0.51100000000E-03 0. -1.
         11   -1    0    0    0    0 -0.00000000000E+00 -0.00000000000E+00 -0.45593999997E+02  0.45594000000E+02  0.51100000000E-03 0.  1.
    9900012    2    1    2    0    0 -0.36115284490E+02 -0.20163227256E+02 -0.13143585756E+02  0.47787270125E+02  0.19999995807E+02 0.  0.
        -12    1    1    2    0    0  0.36115284490E+02  0.20163227256E+02  0.13143585756E+02  0.43400729875E+02  0.00000000000E+00 0.  1.
         11    1    3    3    0    0 -0.40199374927E+01 -0.79090705823E+01 -0.54819905461E+01  0.10429070693E+02  0.51100000000E-03 0. -1.
        -11    1    3    3    0    0 -0.56445891343E+01 -0.21877571296E+01 -0.67148809555E+01  0.90408680037E+01  0.51100000000E-03 0.  1.
         12    1    3    3    0    0 -0.26450757863E+02 -0.10066399544E+02 -0.94671425489E+00  0.28317331428E+02  0.00000000000E+00 0. -1.
</event>
<event>
 7    1  0.4519225E-009  0.4778727E+02  0.7816164E-02  0.1312668E+00
        -11   -1    0    0    0    0  0.00000000000E+00  0.00000000000E+00  0.45593999997E+02  0.45594000000E+02  0.51100000000E-03 0. -1.
         11   -1    0    0    0    0 -0.00000000000E+00 -0.00000000000E+00 -0.45593999997E+02  0.45594000000E+02  0.51100000000E-03 0.  1.
    9900012    2    1    2    0    0  0.25671066555E+00 -0.10506686081E+02  0.42108989532E+02  0.47787270142E+02  0.19999995887E+02 0.  0.
        -12    1    1    2    0    0 -0.25671066555E+00  0.10506686081E+02 -0.42108989532E+02  0.43400729858E+02  0.00000000000E+00 0.  1.
         11    1    3    3    0    0  0.11216713711E+01 -0.49247117619E+01  0.63994458139E+00  0.50912141902E+01  0.51100000000E-03 0. -1.
        -11    1    3    3    0    0  0.35943129088E+01 -0.13118461584E+01  0.12326987632E+02  0.12907154991E+02  0.51100000000E-03 0.  1.
         12    1    3    3    0    0 -0.44592736144E+01 -0.42701281605E+01  0.29142057319E+02  0.29788900961E+02  0.00000000000E+00 0. -1.
</event>
<event>
 7    1  0.4519225E-009  0.4778727E+02  0.7816164E-02  0.1312668E+00
        -11   -1    0    0    0    0  0.00000000000E+00  0.00000000000E+00  0.45593999997E+02  0.45594000000E+02  0.51100000000E-03 0. -1.
         11   -1    0    0    0    0 -0.00000000000E+00 -0.00000000000E+00 -0.45593999997E+02  0.45594000000E+02  0.51100000000E-03 0.  1.
    9900012    2    1    2    0    0  0.19151401994E+02 -0.23223289313E+02  0.31265408371E+02  0.47787272754E+02  0.20000007796E+02 0.  0.
        -12    1    1    2    0    0 -0.19151401994E+02  0.23223289313E+02 -0.31265408371E+02  0.43400727246E+02  0.00000000000E+00 0.  1.
         11    1    3    3    0    0  0.46795124798E+01 -0.30118447918E+01  0.73701430270E+01  0.92351531984E+01  0.51100000000E-03 0. -1.
        -11    1    3    3    0    0  0.11892684331E+02 -0.22800280196E+02  0.23570284811E+02  0.34883334760E+02  0.51100000000E-03 0.  1.
        -12    1    3    3    0    0  0.25792051833E+01  0.25888356754E+01  0.32498053277E+00  0.36687847958E+01  0.00000000000E+00 0.  1.
</event>
<event>
 7    1  0.4519225E-009  0.4778726E+02  0.7816164E-02  0.1312668E+00
        -11   -1    0    0    0    0  0.00000000000E+00  0.00000000000E+00  0.45593999997E+02  0.45594000000E+02  0.51100000000E-03 0.  1.
         11   -1    0    0    0    0 -0.00000000000E+00 -0.00000000000E+00 -0.45593999997E+02  0.45594000000E+02  0.51100000000E-03 0. -1.
    9900012    2    1    2    0    0 -0.20800316888E+02 -0.75300596128E+01 -0.37339909830E+02  0.47787264447E+02  0.19999969921E+02 0.  0.
        -12    1    1    2    0    0  0.20800316888E+02  0.75300596128E+01  0.37339909830E+02  0.43400735553E+02  0.00000000000E+00 0.  1.
         11    1    3    3    0    0 -0.80502511873E+01 -0.72896660568E+01 -0.15639678341E+02  0.19040622738E+02  0.51100000000E-03 0. -1.
        -11    1    3    3    0    0 -0.10977395214E+02 -0.12891724211E+00 -0.23671453489E+02  0.26093246940E+02  0.51100000000E-03 0.  1.
        -12    1    3    3    0    0 -0.17726704872E+01 -0.11147631391E+00  0.19712220002E+01  0.26533947687E+01  0.00000000000E+00 0.  1.
</event>
<event>
 7    1  0.4519225E-009  0.4778727E+02  0.7816164E-02  0.1312668E+00
        -11   -1    0    0    0    0  0.00000000000E+00  0.00000000000E+00  0.45593999997E+02  0.45594000000E+02  0.51100000000E-03 0.  1.
         11   -1    0    0    0    0 -0.00000000000E+00 -0.00000000000E+00 -0.45593999997E+02  0.45594000000E+02  0.51100000000E-03 0. -1.
    9900012    2    1    2    0    0  0.20613609279E+02  0.37389775665E+01 -0.38009509958E+02  0.47787266273E+02  0.19999978247E+02 0.  0.
        -12    1    1    2    0    0 -0.20613609279E+02 -0.37389775665E+01  0.38009509958E+02  0.43400733727E+02  0.00000000000E+00 0.  1.
         11    1    3    3    0    0  0.87299621760E+01  0.10010586120E+02 -0.18586557767E+02  0.22844785049E+02  0.51100000000E-03 0. -1.
        -11    1    3    3    0    0  0.61711405246E+01 -0.77923477138E+00 -0.34526273660E+01  0.71141280698E+01  0.51100000000E-03 0.  1.
        -12    1    3    3    0    0  0.57125065781E+01 -0.54923737823E+01 -0.15970324825E+02  0.17828353154E+02  0.00000000000E+00 0.  1.
</event>
<event>
 7    1  0.4519225E-009  0.4778727E+02  0.7816164E-02  0.1312668E+00
        -11   -1    0    0    0    0  0.00000000000E+00  0.00000000000E+00  0.45593999997E+02  0.45594000000E+02  0.51100000000E-03 0.  1.
         11   -1    0    0    0    0 -0.00000000000E+00 -0.00000000000E+00 -0.45593999997E+02  0.45594000000E+02  0.51100000000E-03 0. -1.
    9900012    2    1    2    0    0 -0.41467599815E+02  0.12477105861E+02 -0.28954108435E+01  0.47787269488E+02  0.19999992902E+02 0.  0.
        -12    1    1    2    0    0  0.41467599815E+02 -0.12477105861E+02  0.28954108435E+01  0.43400730512E+02  0.00000000000E+00 0.  1.
         11    1    3    3    0    0 -0.94677640408E+01 -0.32071661069E+01 -0.44335667181E+00  0.10006049958E+02  0.51100000000E-03 0. -1.
        -11    1    3    3    0    0 -0.13276372646E+02  0.34051111433E+00 -0.27936797586E+01  0.13571391428E+02  0.51100000000E-03 0.  1.
        -12    1    3    3    0    0 -0.18723463128E+02  0.15343760854E+02  0.34162558688E+00  0.24209828101E+02  0.00000000000E+00 0.  1.
</event>
<event>
 7    1  0.4519225E-009  0.4778727E+02  0.7816164E-02  0.1312668E+00
        -11   -1    0    0    0    0  0.00000000000E+00  0.00000000000E+00  0.45593999997E+02  0.45594000000E+02  0.51100000000E-03 0. -1.
         11   -1    0    0    0    0 -0.00000000000E+00 -0.00000000000E+00 -0.45593999997E+02  0.45594000000E+02  0.51100000000E-03 0.  1.
    9900012    2    1    2    0    0 -0.19962310471E+01  0.38928953475E+02  0.19083364925E+02  0.47787272196E+02  0.20000005248E+02 0.  0.
        -12    1    1    2    0    0  0.19962310471E+01 -0.38928953475E+02 -0.19083364925E+02  0.43400727804E+02  0.00000000000E+00 0.  1.
         11    1    3    3    0    0  0.80030556988E+00  0.27687053845E+01  0.13373332429E+01  0.31772124535E+01  0.51100000000E-03 0. -1.
        -11    1    3    3    0    0 -0.59240514335E+01  0.15823294731E+02 -0.79239505060E+00  0.16914459249E+02  0.51100000000E-03 0.  1.
        -12    1    3    3    0    0  0.31275148166E+01  0.20336953360E+02  0.18538426733E+02  0.27695600493E+02  0.00000000000E+00 0.  1.
</event>
<event>
 7    1  0.4519225E-009  0.4778727E+02  0.7816164E-02  0.1312668E+00
        -11   -1    0    0    0    0  0.00000000000E+00  0.00000000000E+00  0.45593999997E+02  0.45594000000E+02  0.51100000000E-03 0.  1.
         11   -1    0    0    0    0 -0.00000000000E+00 -0.00000000000E+00 -0.45593999997E+02  0.45594000000E+02  0.51100000000E-03 0. -1.
    9900012    2    1    2    0    0  0.13895717366E+02  0.23781952438E+02 -0.33540292526E+02  0.47787269067E+02  0.19999990982E+02 0.  0.
        -12    1    1    2    0    0 -0.13895717366E+02 -0.23781952438E+02  0.33540292526E+02  0.43400730933E+02  0.00000000000E+00 0.  1.
         11    1    3    3    0    0  0.63325722658E+01  0.46263128887E+01 -0.33512626378E+01  0.85284936521E+01  0.51100000000E-03 0. -1.
        -11    1    3    3    0    0  0.36299353132E+01 -0.43236692181E+00 -0.10864974248E+02  0.11463465323E+02  0.51100000000E-03 0.  1.
        -12    1    3    3    0    0  0.39332097870E+01  0.19588006471E+02 -0.19324055640E+02  0.27795310092E+02  0.00000000000E+00 0.  1.
</event>
<event>
 7    1  0.4519225E-009  0.4778727E+02  0.7816164E-02  0.1312668E+00
        -11   -1    0    0    0    0  0.00000000000E+00  0.00000000000E+00  0.45593999997E+02  0.45594000000E+02  0.51100000000E-03 0. -1.
         11   -1    0    0    0    0 -0.00000000000E+00 -0.00000000000E+00 -0.45593999997E+02  0.45594000000E+02  0.51100000000E-03 0.  1.
    9900012    2    1    2    0    0  0.13881396826E+02  0.22747458549E+01  0.41057954153E+02  0.47787271368E+02  0.20000001477E+02 0.  0.
        -12    1    1    2    0    0 -0.13881396826E+02 -0.22747458549E+01 -0.41057954153E+02  0.43400728632E+02  0.00000000000E+00 0.  1.
         11    1    3    3    0    0  0.27074606978E+01 -0.31576250791E+01  0.66822039732E+01  0.78710094506E+01  0.51100000000E-03 0. -1.
        -11    1    3    3    0    0  0.65901935799E+00 -0.31224110883E+01  0.19625851946E+02  0.19883606876E+02  0.51100000000E-03 0.  1.
         12    1    3    3    0    0  0.10514916770E+02  0.85547820224E+01  0.14749898233E+02  0.20032655042E+02  0.00000000000E+00 0. -1.
</event>
<event>
 7    1  0.4519225E-009  0.4778727E+02  0.7816164E-02  0.1312668E+00
        -11   -1    0    0    0    0  0.00000000000E+00  0.00000000000E+00  0.45593999997E+02  0.45594000000E+02  0.51100000000E-03 0. -1.
         11   -1    0    0    0    0 -0.00000000000E+00 -0.00000000000E+00 -0.45593999997E+02  0.45594000000E+02  0.51100000000E-03 0.  1.
    9900012    2    1    2    0    0 -0.37545498936E+02 -0.16443021613E+02  0.14268341343E+02  0.47787274029E+02  0.20000013607E+02 0.  0.
        -12    1    1    2    0    0  0.37545498936E+02  0.16443021613E+02 -0.14268341343E+02  0.43400725971E+02  0.00000000000E+00 0.  1.
         11    1    3    3    0    0  0.12634984785E+01 -0.43434200435E-01  0.24190226958E+00  0.12871798259E+01  0.51100000000E-03 0. -1.
        -11    1    3    3    0    0 -0.16695000823E+02 -0.69154500678E+01 -0.10567962011E+01  0.18101472884E+02  0.51100000000E-03 0.  1.
         12    1    3    3    0    0 -0.22113996592E+02 -0.94841373451E+01  0.15083235274E+02  0.28398621319E+02  0.00000000000E+00 0. -1.
</event>
<event>
 7    1  0.4519225E-009  0.4778727E+02  0.7816164E-02  0.1312668E+00
        -11   -1    0    0    0    0  0.00000000000E+00  0.00000000000E+00  0.45593999997E+02  0.45594000000E+02  0.51100000000E-03 0. -1.
         11   -1    0    0    0    0 -0.00000000000E+00 -0.00000000000E+00 -0.45593999997E+02  0.45594000000E+02  0.51100000000E-03 0.  1.
    9900012    2    1    2    0    0 -0.12149060904E+00 -0.19937740413E+02  0.38549899864E+02  0.47787273828E+02  0.20000012689E+02 0.  0.
        -12    1    1    2    0    0  0.12149060904E+00  0.19937740413E+02 -0.38549899864E+02  0.43400726172E+02  0.00000000000E+00 0.  1.
         11    1    3    3    0    0 -0.61660160032E+01 -0.15740296366E+02  0.22923563520E+02  0.28482739470E+02  0.51100000000E-03 0. -1.
        -11    1    3    3    0    0  0.27867227487E+01 -0.50830932962E+01  0.36240539987E+01  0.68364778053E+01  0.51100000000E-03 0.  1.
         12    1    3    3    0    0  0.32578026455E+01  0.88564924880E+00  0.12002282346E+02  0.12468056552E+02  0.00000000000E+00 0. -1.
</event>
<event>
 7    1  0.4519225E-009  0.4778727E+02  0.7816164E-02  0.1312668E+00
        -11   -1    0    0    0    0  0.00000000000E+00  0.00000000000E+00  0.45593999997E+02  0.45594000000E+02  0.51100000000E-03 0. -1.
         11   -1    0    0    0    0 -0.00000000000E+00 -0.00000000000E+00 -0.45593999997E+02  0.45594000000E+02  0.51100000000E-03 0.  1.
    9900012    2    1    2    0    0  0.11650863229E+02 -0.35165528817E+02 -0.22611202007E+02  0.47787268587E+02  0.19999988796E+02 0.  0.
        -12    1    1    2    0    0 -0.11650863229E+02  0.35165528817E+02  0.22611202007E+02  0.43400731413E+02  0.00000000000E+00 0.  1.
         11    1    3    3    0    0 -0.18506149132E+01 -0.84729186960E+01 -0.59771941567E+01  0.10532899745E+02  0.51100000000E-03 0. -1.
        -11    1    3    3    0    0  0.42251796783E+01 -0.83595364470E+01 -0.13558284341E+02  0.16479110032E+02  0.51100000000E-03 0.  1.
         12    1    3    3    0    0  0.92762984634E+01 -0.18333073674E+02 -0.30757235097E+01  0.20775258810E+02  0.00000000000E+00 0. -1.
</event>
<event>
 7    1  0.4519225E-009  0.4778727E+02  0.7816164E-02  0.1312668E+00
        -11   -1    0    0    0    0  0.00000000000E+00  0.00000000000E+00  0.45593999997E+02  0.45594000000E+02  0.51100000000E-03 0.  1.
         11   -1    0    0    0    0 -0.00000000000E+00 -0.00000000000E+00 -0.45593999997E+02  0.45594000000E+02  0.51100000000E-03 0. -1.
    9900012    2    1    2    0    0 -0.21808004970E+02 -0.33404102117E+01 -0.37374802140E+02  0.47787271248E+02  0.20000000930E+02 0.  0.
        -12    1    1    2    0    0  0.21808004970E+02  0.33404102117E+01  0.37374802140E+02  0.43400728752E+02  0.00000000000E+00 0.  1.
         11    1    3    3    0    0 -0.44493926676E+00 -0.18119171589E+01 -0.12747507800E+02  0.12883321393E+02  0.51100000000E-03 0.  1.
        -11    1    3    3    0    0 -0.13026174297E+02  0.48724386961E+01 -0.11229313297E+02  0.17875104281E+02  0.51100000000E-03 0. -1.
         12    1    3    3    0    0 -0.83368914059E+01 -0.64009317489E+01 -0.13397981043E+02  0.17028845575E+02  0.00000000000E+00 0. -1.
</event>
<event>
 7    1  0.4519225E-009  0.4778727E+02  0.7816164E-02  0.1312668E+00
        -11   -1    0    0    0    0  0.00000000000E+00  0.00000000000E+00  0.45593999997E+02  0.45594000000E+02  0.51100000000E-03 0.  1.
         11   -1    0    0    0    0 -0.00000000000E+00 -0.00000000000E+00 -0.45593999997E+02  0.45594000000E+02  0.51100000000E-03 0. -1.
    9900012    2    1    2    0    0  0.35324659348E+01 -0.14760464862E+02 -0.40660471145E+02  0.47787267837E+02  0.19999985375E+02 0.  0.
        -12    1    1    2    0    0 -0.35324659348E+01  0.14760464862E+02  0.40660471145E+02  0.43400732163E+02  0.00000000000E+00 0.  1.
         11    1    3    3    0    0 -0.17282615925E+01 -0.25895413869E+01 -0.19954059864E+02  0.20195472712E+02  0.51100000000E-03 0. -1.
        -11    1    3    3    0    0  0.30910396083E+00 -0.97704073831E+01 -0.19708004683E+02  0.21999133041E+02  0.51100000000E-03 0.  1.
        -12    1    3    3    0    0  0.49516235665E+01 -0.24005160924E+01 -0.99840659821E+00  0.55926620844E+01  0.00000000000E+00 0.  1.
</event>
<event>
 7    1  0.4519225E-009  0.4778726E+02  0.7816164E-02  0.1312668E+00
        -11   -1    0    0    0    0  0.00000000000E+00  0.00000000000E+00  0.45593999997E+02  0.45594000000E+02  0.51100000000E-03 0.  1.
         11   -1    0    0    0    0 -0.00000000000E+00 -0.00000000000E+00 -0.45593999997E+02  0.45594000000E+02  0.51100000000E-03 0. -1.
    9900012    2    1    2    0    0 -0.19656462283E+02 -0.33414903990E+02 -0.19511332765E+02  0.47787257789E+02  0.19999939565E+02 0.  0.
        -12    1    1    2    0    0  0.19656462283E+02  0.33414903990E+02  0.19511332765E+02  0.43400742211E+02  0.00000000000E+00 0.  1.
         11    1    3    3    0    0 -0.20192162078E+01 -0.56216402361E+01 -0.33375846524E+01  0.68424808813E+01  0.51100000000E-03 0. -1.
        -11    1    3    3    0    0 -0.35926791279E+01  0.20155423125E+01  0.24982029557E+00  0.41270043095E+01  0.51100000000E-03 0.  1.
        -12    1    3    3    0    0 -0.14044566948E+02 -0.29808806067E+02 -0.16423568408E+02  0.36817772599E+02  0.00000000000E+00 0.  1.
</event>
<event>
 7    1  0.4519225E-009  0.4778725E+02  0.7816164E-02  0.1312668E+00
        -11   -1    0    0    0    0  0.00000000000E+00  0.00000000000E+00  0.45593999997E+02  0.45594000000E+02  0.51100000000E-03 0.  1.
         11   -1    0    0    0    0 -0.00000000000E+00 -0.00000000000E+00 -0.45593999997E+02  0.45594000000E+02  0.51100000000E-03 0. -1.
    9900012    2    1    2    0    0 -0.64665969654E+01 -0.27445885518E+02 -0.32992896198E+02  0.47787254526E+02  0.19999924685E+02 0.  0.
        -12    1    1    2    0    0  0.64665969654E+01  0.27445885518E+02  0.32992896198E+02  0.43400745474E+02  0.00000000000E+00 0.  1.
         11    1    3    3    0    0  0.15608378177E+01 -0.44866040897E+01 -0.15790293828E+02  0.16489366586E+02  0.51100000000E-03 0. -1.
        -11    1    3    3    0    0  0.16706087495E+01 -0.21866116641E+01 -0.20595616924E+00  0.27594605212E+01  0.51100000000E-03 0.  1.
         12    1    3    3    0    0 -0.96980435326E+01 -0.20772669764E+02 -0.16996646200E+02  0.28538427419E+02  0.00000000000E+00 0. -1.
</event>
<event>
 7    1  0.4519225E-009  0.4778727E+02  0.7816164E-02  0.1312668E+00
        -11   -1    0    0    0    0  0.00000000000E+00  0.00000000000E+00  0.45593999997E+02  0.45594000000E+02  0.51100000000E-03 0. -1.
         11   -1    0    0    0    0 -0.00000000000E+00 -0.00000000000E+00 -0.45593999997E+02  0.45594000000E+02  0.51100000000E-03 0.  1.
    9900012    2    1    2    0    0 -0.83161374636E+01 -0.93085308499E+01  0.41567010143E+02  0.47787271652E+02  0.20000002771E+02 0.  0.
        -12    1    1    2    0    0  0.83161374636E+01  0.93085308499E+01 -0.41567010143E+02  0.43400728348E+02  0.00000000000E+00 0.  1.
         11    1    3    3    0    0  0.29645090478E+01 -0.31185530713E+01  0.17954733604E+02  0.18463102291E+02  0.51100000000E-03 0. -1.
        -11    1    3    3    0    0 -0.55865189234E+01  0.14805143189E+01  0.16298759331E+02  0.17293081632E+02  0.51100000000E-03 0.  1.
        -12    1    3    3    0    0 -0.56941275879E+01 -0.76704920974E+01  0.73135172081E+01  0.12031087730E+02  0.00000000000E+00 0.  1.
</event>
<event>
 7    1  0.4519225E-009  0.4778727E+02  0.7816164E-02  0.1312668E+00
        -11   -1    0    0    0    0  0.00000000000E+00  0.00000000000E+00  0.45593999997E+02  0.45594000000E+02  0.51100000000E-03 0.  1.
         11   -1    0    0    0    0 -0.00000000000E+00 -0.00000000000E+00 -0.45593999997E+02  0.45594000000E+02  0.51100000000E-03 0. -1.
    9900012    2    1    2    0    0  0.15997290113E+02  0.10631161055E+02 -0.38918998613E+02  0.47787270405E+02  0.19999997082E+02 0.  0.
        -12    1    1    2    0    0 -0.15997290113E+02 -0.10631161055E+02  0.38918998613E+02  0.43400729595E+02  0.00000000000E+00 0.  1.
         11    1    3    3    0    0  0.15161468352E+02  0.13440716130E+02 -0.21222132085E+02  0.29341129208E+02  0.51100000000E-03 0. -1.
        -11    1    3    3    0    0  0.20664075605E+01 -0.11632321286E+01 -0.44654157593E+01  0.50559951894E+01  0.51100000000E-03 0.  1.
         12    1    3    3    0    0 -0.12305857990E+01 -0.16463229464E+01 -0.13231450769E+02  0.13390146007E+02  0.00000000000E+00 0. -1.
</event>
<event>
 7    1  0.4519225E-009  0.4778727E+02  0.7816164E-02  0.1312668E+00
        -11   -1    0    0    0    0  0.00000000000E+00  0.00000000000E+00  0.45593999997E+02  0.45594000000E+02  0.51100000000E-03 0. -1.
         11   -1    0    0    0    0 -0.00000000000E+00 -0.00000000000E+00 -0.45593999997E+02  0.45594000000E+02  0.51100000000E-03 0.  1.
    9900012    2    1    2    0    0  0.91739645270E+01  0.43873307965E+01  0.42192569425E+02  0.47787271765E+02  0.20000003286E+02 0.  0.
        -12    1    1    2    0    0 -0.91739645270E+01 -0.43873307965E+01 -0.42192569425E+02  0.43400728235E+02  0.00000000000E+00 0.  1.
         11    1    3    3    0    0  0.16809457176E+01  0.26151379584E+01 -0.23474981686E+00  0.31176325608E+01  0.51100000000E-03 0. -1.
        -11    1    3    3    0    0  0.66247987097E+01 -0.21802427734E+01  0.11290080689E+02  0.13270544025E+02  0.51100000000E-03 0.  1.
         12    1    3    3    0    0  0.86822009977E+00  0.39524356115E+01  0.31137238553E+02  0.31399095180E+02  0.00000000000E+00 0. -1.
</event>
<event>
 7    1  0.4519225E-009  0.4778727E+02  0.7816164E-02  0.1312668E+00
        -11   -1    0    0    0    0  0.00000000000E+00  0.00000000000E+00  0.45593999997E+02  0.45594000000E+02  0.51100000000E-03 0. -1.
         11   -1    0    0    0    0 -0.00000000000E+00 -0.00000000000E+00 -0.45593999997E+02  0.45594000000E+02  0.51100000000E-03 0.  1.
    9900012    2    1    2    0    0  0.36020570682E+01 -0.92615251544E+01  0.42247752719E+02  0.47787271054E+02  0.20000000041E+02 0.  0.
        -12    1    1    2    0    0 -0.36020570682E+01  0.92615251544E+01 -0.42247752719E+02  0.43400728946E+02  0.00000000000E+00 0.  1.
         11    1    3    3    0    0 -0.19903115505E+01 -0.11399183535E+01  0.77944033130E+01  0.81248678259E+01  0.51100000000E-03 0. -1.
        -11    1    3    3    0    0  0.21674585262E+01  0.31187952457E+01  0.22796455024E+02  0.23110671175E+02  0.51100000000E-03 0.  1.
         12    1    3    3    0    0  0.34249100926E+01 -0.11240402047E+02  0.11656894382E+02  0.16551732053E+02  0.00000000000E+00 0. -1.
</event>
<event>
 7    1  0.4519225E-009  0.4778731E+02  0.7816164E-02  0.1312668E+00
        -11   -1    0    0    0    0  0.00000000000E+00  0.00000000000E+00  0.45593999997E+02  0.45594000000E+02  0.51100000000E-03 0.  1.
         11   -1    0    0    0    0 -0.00000000000E+00 -0.00000000000E+00 -0.45593999997E+02  0.45594000000E+02  0.51100000000E-03 0. -1.
    9900012    2    1    2    0    0 -0.32478977443E+02  0.27919401453E+02 -0.70173529091E+01  0.47787306514E+02  0.20000161719E+02 0.  0.
        -12    1    1    2    0    0  0.32478977443E+02 -0.27919401453E+02  0.70173529091E+01  0.43400693486E+02  0.00000000000E+00 0.  1.
         11    1    3    3    0    0 -0.27867386029E+02  0.17860305983E+02  0.99302570703E+00  0.33114465633E+02  0.51100000000E-03 0.  1.
        -11    1    3    3    0    0 -0.36110678256E+01  0.65191953566E+01 -0.21549823609E+01  0.77578133630E+01  0.51100000000E-03 0. -1.
        -12    1    3    3    0    0 -0.10005235888E+01  0.35399001134E+01 -0.58553962553E+01  0.69150275177E+01  0.00000000000E+00 0.  1.
</event>
<event>
 7    1  0.4519225E-009  0.4778727E+02  0.7816164E-02  0.1312668E+00
        -11   -1    0    0    0    0  0.00000000000E+00  0.00000000000E+00  0.45593999997E+02  0.45594000000E+02  0.51100000000E-03 0.  1.
         11   -1    0    0    0    0 -0.00000000000E+00 -0.00000000000E+00 -0.45593999997E+02  0.45594000000E+02  0.51100000000E-03 0. -1.
    9900012    2    1    2    0    0 -0.43916593042E+01  0.59808037905E+01 -0.42761742756E+02  0.47787270410E+02  0.19999997108E+02 0.  0.
        -12    1    1    2    0    0  0.43916593042E+01 -0.59808037905E+01  0.42761742756E+02  0.43400729590E+02  0.00000000000E+00 0.  1.
         11    1    3    3    0    0  0.82802301866E+00  0.16077616671E+01 -0.22588473672E+02  0.22660751594E+02  0.51100000000E-03 0. -1.
        -11    1    3    3    0    0  0.13480288514E+01 -0.40545858863E+01 -0.63906164850E+01  0.76874461177E+01  0.51100000000E-03 0.  1.
         12    1    3    3    0    0 -0.65677111743E+01  0.84276280096E+01 -0.13782652598E+02  0.17439072698E+02  0.00000000000E+00 0. -1.
</event>
<event>
 7    1  0.4519225E-009  0.4778727E+02  0.7816164E-02  0.1312668E+00
        -11   -1    0    0    0    0  0.00000000000E+00  0.00000000000E+00  0.45593999997E+02  0.45594000000E+02  0.51100000000E-03 0.  1.
         11   -1    0    0    0    0 -0.00000000000E+00 -0.00000000000E+00 -0.45593999997E+02  0.45594000000E+02  0.51100000000E-03 0. -1.
    9900012    2    1    2    0    0 -0.10913296947E+02 -0.19352019249E+02 -0.37283004488E+02  0.47787272783E+02  0.20000007927E+02 0.  0.
        -12    1    1    2    0    0  0.10913296947E+02  0.19352019249E+02  0.37283004488E+02  0.43400727217E+02  0.00000000000E+00 0.  1.
         11    1    3    3    0    0 -0.54691153222E+01 -0.77359224877E+01 -0.78531144504E+01  0.12305572964E+02  0.51100000000E-03 0. -1.
        -11    1    3    3    0    0 -0.10543982873E+02 -0.92885307290E+01 -0.22984292668E+02  0.26939378011E+02  0.51100000000E-03 0.  1.
        -12    1    3    3    0    0  0.50998012482E+01 -0.23275660327E+01 -0.64455973702E+01  0.85423218078E+01  0.00000000000E+00 0.  1.
</event>
<event>
 7    1  0.4519225E-009  0.4778727E+02  0.7816164E-02  0.1312668E+00
        -11   -1    0    0    0    0  0.00000000000E+00  0.00000000000E+00  0.45593999997E+02  0.45594000000E+02  0.51100000000E-03 0. -1.
         11   -1    0    0    0    0 -0.00000000000E+00 -0.00000000000E+00 -0.45593999997E+02  0.45594000000E+02  0.51100000000E-03 0.  1.
    9900012    2    1    2    0    0  0.14822065486E+02  0.19602034992E+02  0.35772752568E+02  0.47787271580E+02  0.20000002442E+02 0.  0.
        -12    1    1    2    0    0 -0.14822065486E+02 -0.19602034992E+02 -0.35772752568E+02  0.43400728420E+02  0.00000000000E+00 0.  1.
         11    1    3    3    0    0  0.56806133124E+01  0.84184388604E+01  0.23791887943E+02  0.25868772924E+02  0.51100000000E-03 0. -1.
        -11    1    3    3    0    0  0.26350583159E+01  0.11221586186E+02  0.95630090794E+01  0.14977271840E+02  0.51100000000E-03 0.  1.
         12    1    3    3    0    0  0.65063938574E+01 -0.37990053688E-01  0.24178555450E+01  0.69412268158E+01  0.00000000000E+00 0. -1.
</event>
<event>
 7    1  0.4519225E-009  0.4778727E+02  0.7816164E-02  0.1312668E+00
        -11   -1    0    0    0    0  0.00000000000E+00  0.00000000000E+00  0.45593999997E+02  0.45594000000E+02  0.51100000000E-03 0. -1.
         11   -1    0    0    0    0 -0.00000000000E+00 -0.00000000000E+00 -0.45593999997E+02  0.45594000000E+02  0.51100000000E-03 0.  1.
    9900012    2    1    2    0    0  0.14301651065E+02 -0.15697142044E+01  0.40946578650E+02  0.47787268105E+02  0.19999986596E+02 0.  0.
        -12    1    1    2    0    0 -0.14301651065E+02  0.15697142044E+01 -0.40946578650E+02  0.43400731895E+02  0.00000000000E+00 0.  1.
         11    1    3    3    0    0  0.10122858162E+02 -0.49806322342E+01  0.29683897429E+02  0.31755514822E+02  0.51100000000E-03 0. -1.
        -11    1    3    3    0    0  0.53638506828E+01  0.30952731800E+01  0.12707758057E+02  0.14136432552E+02  0.51100000000E-03 0.  1.
        -12    1    3    3    0    0 -0.11850577800E+01  0.31564484985E+00 -0.14450768347E+01  0.18953207304E+01  0.00000000000E+00 0.  1.
</event>
<event>
 7    1  0.4519225E-009  0.4778726E+02  0.7816164E-02  0.1312668E+00
        -11   -1    0    0    0    0  0.00000000000E+00  0.00000000000E+00  0.45593999997E+02  0.45594000000E+02  0.51100000000E-03 0.  1.
         11   -1    0    0    0    0 -0.00000000000E+00 -0.00000000000E+00 -0.45593999997E+02  0.45594000000E+02  0.51100000000E-03 0. -1.
    9900012    2    1    2    0    0  0.28345174587E+02 -0.17146979503E+02  0.28038475165E+02  0.47787263623E+02  0.19999966164E+02 0.  0.
        -12    1    1    2    0    0 -0.28345174587E+02  0.17146979503E+02 -0.28038475165E+02  0.43400736377E+02  0.00000000000E+00 0.  1.
         11    1    3    3    0    0  0.13194372436E+02  0.13889140363E+01  0.48820461589E+01  0.14137005381E+02  0.51100000000E-03 0. -1.
        -11    1    3    3    0    0  0.34537691479E+00 -0.11873335643E+01  0.28748957246E+01  0.31295481934E+01  0.51100000000E-03 0.  1.
         12    1    3    3    0    0  0.14805425237E+02 -0.17348559975E+02  0.20281533282E+02  0.30520710049E+02  0.00000000000E+00 0. -1.
</event>
<event>
 7    1  0.4519225E-009  0.4778727E+02  0.7816164E-02  0.1312668E+00
        -11   -1    0    0    0    0  0.00000000000E+00  0.00000000000E+00  0.45593999997E+02  0.45594000000E+02  0.51100000000E-03 0.  1.
         11   -1    0    0    0    0 -0.00000000000E+00 -0.00000000000E+00 -0.45593999997E+02  0.45594000000E+02  0.51100000000E-03 0. -1.
    9900012    2    1    2    0    0  0.22664853135E+02  0.14950572052E+02 -0.33858647449E+02  0.47787272133E+02  0.20000004965E+02 0.  0.
        -12    1    1    2    0    0 -0.22664853135E+02 -0.14950572052E+02  0.33858647449E+02  0.43400727867E+02  0.00000000000E+00 0.  1.
         11    1    3    3    0    0  0.17402101198E+00  0.34553037330E+01 -0.92293059627E+01  0.98564443901E+01  0.51100000000E-03 0. -1.
        -11    1    3    3    0    0 -0.71899284830E+00  0.44217810945E+01 -0.50660904617E+01  0.67627192453E+01  0.51100000000E-03 0.  1.
         12    1    3    3    0    0  0.23209824971E+02  0.70734872246E+01 -0.19563251024E+02  0.31168108498E+02  0.00000000000E+00 0. -1.
</event>
<event>
 7    1  0.4519225E-009  0.4778727E+02  0.7816164E-02  0.1312668E+00
        -11   -1    0    0    0    0  0.00000000000E+00  0.00000000000E+00  0.45593999997E+02  0.45594000000E+02  0.51100000000E-03 0.  1.
         11   -1    0    0    0    0 -0.00000000000E+00 -0.00000000000E+00 -0.45593999997E+02  0.45594000000E+02  0.51100000000E-03 0. -1.
    9900012    2    1    2    0    0 -0.32613526109E+02 -0.16463383170E+02 -0.23429436258E+02  0.47787267817E+02  0.19999985283E+02 0.  0.
        -12    1    1    2    0    0  0.32613526109E+02  0.16463383170E+02  0.23429436258E+02  0.43400732183E+02  0.00000000000E+00 0.  1.
         11    1    3    3    0    0 -0.13640802194E+02 -0.66933427123E+01 -0.20186296227E+02  0.25265764916E+02  0.51100000000E-03 0. -1.
        -11    1    3    3    0    0 -0.11837083901E+01 -0.30482191131E+01 -0.44550632863E+00  0.33001941556E+01  0.51100000000E-03 0.  1.
         12    1    3    3    0    0 -0.17789015525E+02 -0.67218213444E+01 -0.27976337023E+01  0.19221308745E+02  0.00000000000E+00 0. -1.
</event>
<event>
 7    1  0.4519225E-009  0.4778727E+02  0.7816164E-02  0.1312668E+00
        -11   -1    0    0    0    0  0.00000000000E+00  0.00000000000E+00  0.45593999997E+02  0.45594000000E+02  0.51100000000E-03 0.  1.
         11   -1    0    0    0    0 -0.00000000000E+00 -0.00000000000E+00 -0.45593999997E+02  0.45594000000E+02  0.51100000000E-03 0. -1.
    9900012    2    1    2    0    0  0.28579173871E+01  0.30941652625E+02 -0.30299667779E+02  0.47787269287E+02  0.19999991985E+02 0.  0.
        -12    1    1    2    0    0 -0.28579173871E+01 -0.30941652625E+02  0.30299667779E+02  0.43400730713E+02  0.00000000000E+00 0.  1.
         11    1    3    3    0    0  0.50560170292E+01  0.38728061326E+01 -0.23618243351E+01  0.67926541198E+01  0.51100000000E-03 0. -1.
        -11    1    3    3    0    0 -0.11144390731E+01  0.13436099884E-01 -0.61216308586E+01  0.62222600079E+01  0.51100000000E-03 0.  1.
         12    1    3    3    0    0 -0.10836605690E+01  0.27055410393E+02 -0.21816212585E+02  0.34772355159E+02  0.00000000000E+00 0. -1.
</event>
<event>
 7    1  0.4519225E-009  0.4778727E+02  0.7816164E-02  0.1312668E+00
        -11   -1    0    0    0    0  0.00000000000E+00  0.00000000000E+00  0.45593999997E+02  0.45594000000E+02  0.51100000000E-03 0. -1.
         11   -1    0    0    0    0 -0.00000000000E+00 -0.00000000000E+00 -0.45593999997E+02  0.45594000000E+02  0.51100000000E-03 0.  1.
    9900012    2    1    2    0    0 -0.19343094859E+02 -0.38210268117E+02  0.70315968176E+01  0.47787271180E+02  0.20000000620E+02 0.  0.
        -12    1    1    2    0    0  0.19343094859E+02  0.38210268117E+02 -0.70315968176E+01  0.43400728820E+02  0.00000000000E+00 0.  1.
         11    1    3    3    0    0 -0.16412072293E+02 -0.23743331845E+02  0.27477612836E+01  0.28994001386E+02  0.51100000000E-03 0. -1.
        -11    1    3    3    0    0 -0.29829591491E+01 -0.36524935652E+01  0.62211980109E+01  0.78065395331E+01  0.51100000000E-03 0.  1.
        -12    1    3    3    0    0  0.51936583451E-01 -0.10814442706E+02 -0.19373624769E+01  0.10986730261E+02  0.00000000000E+00 0.  1.
</event>
<event>
 7    1  0.4519225E-009  0.4778727E+02  0.7816164E-02  0.1312668E+00
        -11   -1    0    0    0    0  0.00000000000E+00  0.00000000000E+00  0.45593999997E+02  0.45594000000E+02  0.51100000000E-03 0. -1.
         11   -1    0    0    0    0 -0.00000000000E+00 -0.00000000000E+00 -0.45593999997E+02  0.45594000000E+02  0.51100000000E-03 0.  1.
    9900012    2    1    2    0    0 -0.38537465613E+02 -0.34488545533E+01 -0.19661949289E+02  0.47787273008E+02  0.20000008952E+02 0.  0.
        -12    1    1    2    0    0  0.38537465613E+02  0.34488545533E+01  0.19661949289E+02  0.43400726992E+02  0.00000000000E+00 0.  1.
         11    1    3    3    0    0 -0.15537933063E+02 -0.49717659524E+01 -0.95639055556E+01  0.18910687726E+02  0.51100000000E-03 0. -1.
        -11    1    3    3    0    0  0.35117934612E+00 -0.31963450318E+01 -0.15166308961E+01  0.35552943664E+01  0.51100000000E-03 0.  1.
         12    1    3    3    0    0 -0.23350711896E+02  0.47192564309E+01 -0.85814128375E+01  0.25321290915E+02  0.00000000000E+00 0. -1.
</event>
<event>
 7    1  0.4519225E-009  0.4778727E+02  0.7816164E-02  0.1312668E+00
        -11   -1    0    0    0    0  0.00000000000E+00  0.00000000000E+00  0.45593999997E+02  0.45594000000E+02  0.51100000000E-03 0.  1.
         11   -1    0    0    0    0 -0.00000000000E+00 -0.00000000000E+00 -0.45593999997E+02  0.45594000000E+02  0.51100000000E-03 0. -1.
    9900012    2    1    2    0    0 -0.14334790929E+02  0.28381650354E+02 -0.29540120527E+02  0.47787273871E+02  0.20000012886E+02 0.  0.
        -12    1    1    2    0    0  0.14334790929E+02 -0.28381650354E+02  0.29540120527E+02  0.43400726129E+02  0.00000000000E+00 0.  1.
         11    1    3    3    0    0 -0.42652246274E+00  0.13679483518E+02 -0.61649993877E+01  0.15010576553E+02  0.51100000000E-03 0. -1.
        -11    1    3    3    0    0 -0.92474377104E+01  0.99069298567E+01 -0.73606039586E+01  0.15422089816E+02  0.51100000000E-03 0.  1.
         12    1    3    3    0    0 -0.46608307563E+01  0.47952369794E+01 -0.16014517180E+02  0.17354607502E+02  0.00000000000E+00 0. -1.
</event>
<event>
 7    1  0.4519225E-009  0.4778726E+02  0.7816164E-02  0.1312668E+00
        -11   -1    0    0    0    0  0.00000000000E+00  0.00000000000E+00  0.45593999997E+02  0.45594000000E+02  0.51100000000E-03 0.  1.
         11   -1    0    0    0    0 -0.00000000000E+00 -0.00000000000E+00 -0.45593999997E+02  0.45594000000E+02  0.51100000000E-03 0. -1.
    9900012    2    1    2    0    0 -0.32619084266E+02 -0.28299228399E+02  0.43328356992E+01  0.47787257477E+02  0.19999938141E+02 0.  0.
        -12    1    1    2    0    0  0.32619084266E+02  0.28299228399E+02 -0.43328356992E+01  0.43400742523E+02  0.00000000000E+00 0.  1.
         11    1    3    3    0    0 -0.18860326262E+02 -0.86695946376E+01 -0.20853216426E+01  0.20861983235E+02  0.51100000000E-03 0. -1.
        -11    1    3    3    0    0 -0.71219027195E+01 -0.23817117159E+01  0.52619639064E+00  0.75280098264E+01  0.51100000000E-03 0.  1.
        -12    1    3    3    0    0 -0.66368552851E+01 -0.17247922046E+02  0.58919609512E+01  0.19397264416E+02  0.00000000000E+00 0.  1.
</event>
<event>
 7    1  0.4519225E-009  0.4778727E+02  0.7816164E-02  0.1312668E+00
        -11   -1    0    0    0    0  0.00000000000E+00  0.00000000000E+00  0.45593999997E+02  0.45594000000E+02  0.51100000000E-03 0.  1.
         11   -1    0    0    0    0 -0.00000000000E+00 -0.00000000000E+00 -0.45593999997E+02  0.45594000000E+02  0.51100000000E-03 0. -1.
    9900012    2    1    2    0    0 -0.31399642152E+02 -0.11626764533E+02 -0.27613476110E+02  0.47787271392E+02  0.20000001584E+02 0.  0.
        -12    1    1    2    0    0  0.31399642152E+02  0.11626764533E+02  0.27613476110E+02  0.43400728608E+02  0.00000000000E+00 0.  1.
         11    1    3    3    0    0 -0.41479472629E+01 -0.19517984908E+01  0.10603971953E+01  0.47052551809E+01  0.51100000000E-03 0. -1.
        -11    1    3    3    0    0 -0.74185009937E+01 -0.93189684057E+01 -0.75399102185E+01  0.14097076843E+02  0.51100000000E-03 0.  1.
         12    1    3    3    0    0 -0.19833193896E+02 -0.35599763668E+00 -0.21133963087E+02  0.28984939369E+02  0.00000000000E+00 0. -1.
</event>
<event>
 7    1  0.4519225E-009  0.4778730E+02  0.7816164E-02  0.1312668E+00
        -11   -1    0    0    0    0  0.00000000000E+00  0.00000000000E+00  0.45593999997E+02  0.45594000000E+02  0.51100000000E-03 0. -1.
         11   -1    0    0    0    0 -0.00000000000E+00 -0.00000000000E+00 -0.45593999997E+02  0.45594000000E+02  0.51100000000E-03 0.  1.
    9900012    2    1    2    0    0 -0.91651726547E+00  0.41914793925E+02 -0.11221884409E+02  0.47787301349E+02  0.20000138171E+02 0.  0.
        -12    1    1    2    0    0  0.91651726547E+00 -0.41914793925E+02  0.11221884409E+02  0.43400698651E+02  0.00000000000E+00 0.  1.
         11    1    3    3    0    0  0.87218398975E+01  0.12169005518E+02 -0.21891931668E+01  0.15131019578E+02  0.51100000000E-03 0.  1.
        -11    1    3    3    0    0 -0.18598251071E+01  0.95156598745E+01 -0.23677165538E+01  0.99806219354E+01  0.51100000000E-03 0. -1.
        -12    1    3    3    0    0 -0.77785320558E+01  0.20230128532E+02 -0.66649746881E+01  0.22675659836E+02  0.00000000000E+00 0.  1.
</event>
<event>
 7    1  0.4519225E-009  0.4778727E+02  0.7816164E-02  0.1312668E+00
        -11   -1    0    0    0    0  0.00000000000E+00  0.00000000000E+00  0.45593999997E+02  0.45594000000E+02  0.51100000000E-03 0. -1.
         11   -1    0    0    0    0 -0.00000000000E+00 -0.00000000000E+00 -0.45593999997E+02  0.45594000000E+02  0.51100000000E-03 0.  1.
    9900012    2    1    2    0    0 -0.28159686109E+02 -0.57668804526E+01  0.32517659342E+02  0.47787274188E+02  0.20000014334E+02 0.  0.
        -12    1    1    2    0    0  0.28159686109E+02  0.57668804526E+01 -0.32517659342E+02  0.43400725812E+02  0.00000000000E+00 0.  1.
         11    1    3    3    0    0 -0.40926902034E+01  0.11551690885E+01  0.12430996940E+02  0.13138272866E+02  0.51100000000E-03 0. -1.
        -11    1    3    3    0    0 -0.89551736093E+01  0.30554292595E+01  0.10590157605E+02  0.14201486566E+02  0.51100000000E-03 0.  1.
         12    1    3    3    0    0 -0.15111822296E+02 -0.99774788006E+01  0.94965047974E+01  0.20447514756E+02  0.00000000000E+00 0. -1.
</event>
<event>
 7    1  0.4519225E-009  0.4778727E+02  0.7816164E-02  0.1312668E+00
        -11   -1    0    0    0    0  0.00000000000E+00  0.00000000000E+00  0.45593999997E+02  0.45594000000E+02  0.51100000000E-03 0.  1.
         11   -1    0    0    0    0 -0.00000000000E+00 -0.00000000000E+00 -0.45593999997E+02  0.45594000000E+02  0.51100000000E-03 0. -1.
    9900012    2    1    2    0    0  0.73392213453E+01  0.90084587434E+01 -0.41816345149E+02  0.47787271659E+02  0.20000002804E+02 0.  0.
        -12    1    1    2    0    0 -0.73392213453E+01 -0.90084587434E+01  0.41816345149E+02  0.43400728341E+02  0.00000000000E+00 0.  1.
         11    1    3    3    0    0  0.73782284053E+01  0.18469589617E+01 -0.12826116757E+02  0.14911699539E+02  0.51100000000E-03 0. -1.
        -11    1    3    3    0    0  0.32618283812E+01  0.10366650790E+02 -0.21353968427E+02  0.23960361868E+02  0.51100000000E-03 0.  1.
         12    1    3    3    0    0 -0.33008354412E+01 -0.32051510087E+01 -0.76362599646E+01  0.89152102525E+01  0.00000000000E+00 0. -1.
</event>
<event>
 7    1  0.4519225E-009  0.4778727E+02  0.7816164E-02  0.1312668E+00
        -11   -1    0    0    0    0  0.00000000000E+00  0.00000000000E+00  0.45593999997E+02  0.45594000000E+02  0.51100000000E-03 0.  1.
         11   -1    0    0    0    0 -0.00000000000E+00 -0.00000000000E+00 -0.45593999997E+02  0.45594000000E+02  0.51100000000E-03 0. -1.
    9900012    2    1    2    0    0  0.17476105642E+02 -0.39438190860E+02 -0.47788881109E+01  0.47787274910E+02  0.20000017626E+02 0.  0.
        -12    1    1    2    0    0 -0.17476105642E+02  0.39438190860E+02  0.47788881109E+01  0.43400725090E+02  0.00000000000E+00 0.  1.
         11    1    3    3    0    0  0.89943265671E+01 -0.17842314844E+02 -0.60705622615E+01  0.20882955630E+02  0.51100000000E-03 0. -1.
        -11    1    3    3    0    0  0.12032040965E+02 -0.16390016524E+02  0.25092147494E+01  0.20486551940E+02  0.51100000000E-03 0.  1.
        -12    1    3    3    0    0 -0.35502618903E+01 -0.52058594916E+01 -0.12175405988E+01  0.64177673412E+01  0.00000000000E+00 0.  1.
</event>
<event>
 7    1  0.4519225E-009  0.4778727E+02  0.7816164E-02  0.1312668E+00
        -11   -1    0    0    0    0  0.00000000000E+00  0.00000000000E+00  0.45593999997E+02  0.45594000000E+02  0.51100000000E-03 0.  1.
         11   -1    0    0    0    0 -0.00000000000E+00 -0.00000000000E+00 -0.45593999997E+02  0.45594000000E+02  0.51100000000E-03 0. -1.
    9900012    2    1    2    0    0 -0.37258077043E+02 -0.17734697579E+02 -0.13451363774E+02  0.47787274309E+02  0.20000014885E+02 0.  0.
        -12    1    1    2    0    0  0.37258077043E+02  0.17734697579E+02  0.13451363774E+02  0.43400725691E+02  0.00000000000E+00 0.  1.
         11    1    3    3    0    0 -0.27339926355E+02 -0.88289427510E+01 -0.37574528334E+01  0.28974821056E+02  0.51100000000E-03 0. -1.
        -11    1    3    3    0    0 -0.29826128401E+01 -0.33909540711E+01  0.12931783697E+01  0.46975375914E+01  0.51100000000E-03 0.  1.
        -12    1    3    3    0    0 -0.69355378479E+01 -0.55148007571E+01 -0.10987089310E+02  0.14114915662E+02  0.00000000000E+00 0.  1.
</event>
<event>
 7    1  0.4519225E-009  0.4778727E+02  0.7816164E-02  0.1312668E+00
        -11   -1    0    0    0    0  0.00000000000E+00  0.00000000000E+00  0.45593999997E+02  0.45594000000E+02  0.51100000000E-03 0. -1.
         11   -1    0    0    0    0 -0.00000000000E+00 -0.00000000000E+00 -0.45593999997E+02  0.45594000000E+02  0.51100000000E-03 0.  1.
    9900012    2    1    2    0    0  0.23032815487E+01  0.45235119142E+01  0.43102857622E+02  0.47787267275E+02  0.19999982813E+02 0.  0.
        -12    1    1    2    0    0 -0.23032815487E+01 -0.45235119142E+01 -0.43102857622E+02  0.43400732725E+02  0.00000000000E+00 0.  1.
         11    1    3    3    0    0  0.24691140625E+01 -0.62098484105E+01  0.25477266481E+02  0.26339131518E+02  0.51100000000E-03 0. -1.
        -11    1    3    3    0    0 -0.20786674782E+01  0.11967028631E+01  0.24953940864E+01  0.34612061676E+01  0.51100000000E-03 0.  1.
         12    1    3    3    0    0  0.19128349644E+01  0.95366574616E+01  0.15130197054E+02  0.17986929589E+02  0.00000000000E+00 0. -1.
</event>
<event>
 7    1  0.4519225E-009  0.4778727E+02  0.7816164E-02  0.1312668E+00
        -11   -1    0    0    0    0  0.00000000000E+00  0.00000000000E+00  0.45593999997E+02  0.45594000000E+02  0.51100000000E-03 0. -1.
         11   -1    0    0    0    0 -0.00000000000E+00 -0.00000000000E+00 -0.45593999997E+02  0.45594000000E+02  0.51100000000E-03 0.  1.
    9900012    2    1    2    0    0  0.39261568074E+02  0.16709282535E+02  0.79342776098E+01  0.47787267153E+02  0.19999982256E+02 0.  0.
        -12    1    1    2    0    0 -0.39261568074E+02 -0.16709282535E+02 -0.79342776098E+01  0.43400732847E+02  0.00000000000E+00 0.  1.
         11    1    3    3    0    0 -0.51570601501E+00  0.41600474944E+00 -0.13035519648E+01  0.14622792591E+01  0.51100000000E-03 0. -1.
        -11    1    3    3    0    0  0.20114625946E+01  0.22180912846E+01 -0.29657822913E+01  0.42144721587E+01  0.51100000000E-03 0.  1.
         12    1    3    3    0    0  0.37765811495E+02  0.14075186501E+02  0.12203611866E+02  0.42110515735E+02  0.00000000000E+00 0. -1.
</event>
<event>
 7    1  0.4519225E-009  0.4778728E+02  0.7816164E-02  0.1312668E+00
        -11   -1    0    0    0    0  0.00000000000E+00  0.00000000000E+00  0.45593999997E+02  0.45594000000E+02  0.51100000000E-03 0. -1.
         11   -1    0    0    0    0 -0.00000000000E+00 -0.00000000000E+00 -0.45593999997E+02  0.45594000000E+02  0.51100000000E-03 0.  1.
    9900012    2    1    2    0    0  0.27381200830E+02 -0.22796079359E+02  0.24783691888E+02  0.47787276773E+02  0.20000026118E+02 0.  0.
        -12    1    1    2    0    0 -0.27381200830E+02  0.22796079359E+02 -0.24783691888E+02  0.43400723227E+02  0.00000000000E+00 0.  1.
         11    1    3    3    0    0  0.14031722523E+02 -0.54207947225E+01  0.89348330679E+01  0.17495870787E+02  0.51100000000E-03 0. -1.
        -11    1    3    3    0    0  0.14379400577E+02 -0.18983388979E+02  0.15294342248E+02  0.28302881888E+02  0.51100000000E-03 0.  1.
        -12    1    3    3    0    0 -0.10299222697E+01  0.16081043428E+01  0.55451657169E+00  0.19885240977E+01  0.00000000000E+00 0.  1.
</event>
<event>
 7    1  0.4519225E-009  0.4778727E+02  0.7816164E-02  0.1312668E+00
        -11   -1    0    0    0    0  0.00000000000E+00  0.00000000000E+00  0.45593999997E+02  0.45594000000E+02  0.51100000000E-03 0.  1.
         11   -1    0    0    0    0 -0.00000000000E+00 -0.00000000000E+00 -0.45593999997E+02  0.45594000000E+02  0.51100000000E-03 0. -1.
    9900012    2    1    2    0    0 -0.29172537880E+02  0.31837001684E+02 -0.43579539430E+01  0.47787269532E+02  0.19999993105E+02 0.  0.
        -12    1    1    2    0    0  0.29172537880E+02 -0.31837001684E+02  0.43579539430E+01  0.43400730468E+02  0.00000000000E+00 0.  1.
         11    1    3    3    0    0 -0.52384744580E+01  0.49441655297E+01 -0.52281109584E+01  0.89005354832E+01  0.51100000000E-03 0. -1.
        -11    1    3    3    0    0 -0.13536543253E+02  0.48296521737E+01  0.17625823972E+01  0.14479994486E+02  0.51100000000E-03 0.  1.
        -12    1    3    3    0    0 -0.10397520169E+02  0.22063183981E+02 -0.89242538177E+00  0.24406739563E+02  0.00000000000E+00 0.  1.
</event>
<event>
 7    1  0.4519225E-009  0.4778727E+02  0.7816164E-02  0.1312668E+00
        -11   -1    0    0    0    0  0.00000000000E+00  0.00000000000E+00  0.45593999997E+02  0.45594000000E+02  0.51100000000E-03 0.  1.
         11   -1    0    0    0    0 -0.00000000000E+00 -0.00000000000E+00 -0.45593999997E+02  0.45594000000E+02  0.51100000000E-03 0. -1.
    9900012    2    1    2    0    0  0.41899368690E+02  0.11274449310E+02  0.97604591363E+00  0.47787274551E+02  0.20000015987E+02 0.  0.
        -12    1    1    2    0    0 -0.41899368690E+02 -0.11274449310E+02 -0.97604591363E+00  0.43400725449E+02  0.00000000000E+00 0.  1.
         11    1    3    3    0    0  0.57897857870E+01 -0.34331622051E+01  0.97048036580E+00  0.68007392678E+01  0.51100000000E-03 0. -1.
        -11    1    3    3    0    0  0.23202349363E+01  0.45580715142E+01  0.23484961188E+01  0.56280494285E+01  0.51100000000E-03 0.  1.
         12    1    3    3    0    0  0.33789347967E+02  0.10149540001E+02 -0.23429305710E+01  0.35358485855E+02  0.00000000000E+00 0. -1.
</event>
<event>
 7    1  0.4519225E-009  0.4778727E+02  0.7816164E-02  0.1312668E+00
        -11   -1    0    0    0    0  0.00000000000E+00  0.00000000000E+00  0.45593999997E+02  0.45594000000E+02  0.51100000000E-03 0. -1.
         11   -1    0    0    0    0 -0.00000000000E+00 -0.00000000000E+00 -0.45593999997E+02  0.45594000000E+02  0.51100000000E-03 0.  1.
    9900012    2    1    2    0    0 -0.24417375269E+02  0.19758053420E+02  0.29950533748E+02  0.47787270032E+02  0.19999995382E+02 0.  0.
        -12    1    1    2    0    0  0.24417375269E+02 -0.19758053420E+02 -0.29950533748E+02  0.43400729968E+02  0.00000000000E+00 0.  1.
         11    1    3    3    0    0 -0.96855553265E+01  0.16386532194E+02  0.13256518790E+02  0.23196200336E+02  0.51100000000E-03 0. -1.
        -11    1    3    3    0    0 -0.13349665357E+02  0.58570969601E+01  0.11125661340E+02  0.18338470232E+02  0.51100000000E-03 0.  1.
        -12    1    3    3    0    0 -0.13821545858E+01 -0.24855757345E+01  0.55683536179E+01  0.62525994630E+01  0.00000000000E+00 0.  1.
</event>
<event>
 7    1  0.4519225E-009  0.4778727E+02  0.7816164E-02  0.1312668E+00
        -11   -1    0    0    0    0  0.00000000000E+00  0.00000000000E+00  0.45593999997E+02  0.45594000000E+02  0.51100000000E-03 0.  1.
         11   -1    0    0    0    0 -0.00000000000E+00 -0.00000000000E+00 -0.45593999997E+02  0.45594000000E+02  0.51100000000E-03 0. -1.
    9900012    2    1    2    0    0 -0.22518342387E+02  0.34136330015E+02 -0.14534733672E+02  0.47787271277E+02  0.20000001058E+02 0.  0.
        -12    1    1    2    0    0  0.22518342387E+02 -0.34136330015E+02  0.14534733672E+02  0.43400728723E+02  0.00000000000E+00 0.  1.
         11    1    3    3    0    0  0.12075506408E+01  0.18020932949E+01 -0.14249216450E+01  0.25954037738E+01  0.51100000000E-03 0. -1.
        -11    1    3    3    0    0 -0.18282427171E+02  0.30464893981E+02 -0.15744627074E+02  0.38861937555E+02  0.51100000000E-03 0.  1.
        -12    1    3    3    0    0 -0.54434658571E+01  0.18693427395E+01  0.26348150469E+01  0.63299299480E+01  0.00000000000E+00 0.  1.
</event>
<event>
 7    1  0.4519225E-009  0.4778727E+02  0.7816164E-02  0.1312668E+00
        -11   -1    0    0    0    0  0.00000000000E+00  0.00000000000E+00  0.45593999997E+02  0.45594000000E+02  0.51100000000E-03 0.  1.
         11   -1    0    0    0    0 -0.00000000000E+00 -0.00000000000E+00 -0.45593999997E+02  0.45594000000E+02  0.51100000000E-03 0. -1.
    9900012    2    1    2    0    0 -0.31881564013E+02 -0.12434158077E+02 -0.26694214044E+02  0.47787268734E+02  0.19999989466E+02 0.  0.
        -12    1    1    2    0    0  0.31881564013E+02  0.12434158077E+02  0.26694214044E+02  0.43400731266E+02  0.00000000000E+00 0.  1.
         11    1    3    3    0    0  0.17638621208E+00 -0.15674458911E+00 -0.49636455309E+01  0.49692512695E+01  0.51100000000E-03 0. -1.
        -11    1    3    3    0    0 -0.86388306176E+01 -0.41470471867E+01  0.39392012947E+00  0.95907543050E+01  0.51100000000E-03 0.  1.
         12    1    3    3    0    0 -0.23419119608E+02 -0.81303663014E+01 -0.22124488642E+02  0.33227263160E+02  0.00000000000E+00 0. -1.
</event>
<event>
 7    1  0.4519225E-009  0.4778726E+02  0.7816164E-02  0.1312668E+00
        -11   -1    0    0    0    0  0.00000000000E+00  0.00000000000E+00  0.45593999997E+02  0.45594000000E+02  0.51100000000E-03 0.  1.
         11   -1    0    0    0    0 -0.00000000000E+00 -0.00000000000E+00 -0.45593999997E+02  0.45594000000E+02  0.51100000000E-03 0. -1.
    9900012    2    1    2    0    0  0.40267758346E+02  0.15827867395E+02 -0.34074287444E+01  0.47787259002E+02  0.19999945096E+02 0.  0.
        -12    1    1    2    0    0 -0.40267758346E+02 -0.15827867395E+02  0.34074287444E+01  0.43400740998E+02  0.00000000000E+00 0.  1.
         11    1    3    3    0    0  0.41400391569E+01 -0.12287436329E+01 -0.41864567596E+01  0.60146617192E+01  0.51100000000E-03 0. -1.
        -11    1    3    3    0    0  0.42897904648E+01  0.62489993898E+01 -0.25228750062E+01  0.79885664649E+01  0.51100000000E-03 0.  1.
         12    1    3    3    0    0  0.31837928724E+02  0.10807611638E+02  0.33019030214E+01  0.33784030818E+02  0.00000000000E+00 0. -1.
</event>
<event>
 7    1  0.4519225E-009  0.4778725E+02  0.7816164E-02  0.1312668E+00
        -11   -1    0    0    0    0  0.00000000000E+00  0.00000000000E+00  0.45593999997E+02  0.45594000000E+02  0.51100000000E-03 0.  1.
         11   -1    0    0    0    0 -0.00000000000E+00 -0.00000000000E+00 -0.45593999997E+02  0.45594000000E+02  0.51100000000E-03 0. -1.
    9900012    2    1    2    0    0 -0.27599167638E+02  0.54553580626E+01 -0.33047691102E+02  0.47787252620E+02  0.19999915997E+02 0.  0.
        -12    1    1    2    0    0  0.27599167638E+02 -0.54553580626E+01  0.33047691102E+02  0.43400747380E+02  0.00000000000E+00 0.  1.
         11    1    3    3    0    0 -0.18287986149E+02 -0.19399282440E+01 -0.25033258034E+02  0.31062481663E+02  0.51100000000E-03 0. -1.
        -11    1    3    3    0    0 -0.19921878967E+01 -0.16948380790E+01 -0.87934429729E-01  0.26170635176E+01  0.51100000000E-03 0.  1.
        -12    1    3    3    0    0 -0.73189935924E+01  0.90901243856E+01 -0.79264986383E+01  0.14107707440E+02  0.00000000000E+00 0.  1.
</event>
<event>
 7    1  0.4519225E-009  0.4778727E+02  0.7816164E-02  0.1312668E+00
        -11   -1    0    0    0    0  0.00000000000E+00  0.00000000000E+00  0.45593999997E+02  0.45594000000E+02  0.51100000000E-03 0.  1.
         11   -1    0    0    0    0 -0.00000000000E+00 -0.00000000000E+00 -0.45593999997E+02  0.45594000000E+02  0.51100000000E-03 0. -1.
    9900012    2    1    2    0    0 -0.14072745999E+02  0.37889428104E+02 -0.15810517626E+02  0.47787269481E+02  0.19999992871E+02 0.  0.
        -12    1    1    2    0    0  0.14072745999E+02 -0.37889428104E+02  0.15810517626E+02  0.43400730519E+02  0.00000000000E+00 0.  1.
         11    1    3    3    0    0 -0.49462820452E+00  0.11008433432E+01  0.17002639962E+01  0.20850446146E+01  0.51100000000E-03 0. -1.
        -11    1    3    3    0    0 -0.33700492499E+01  0.22283065651E+02 -0.29005165078E+01  0.22722351177E+02  0.51100000000E-03 0.  1.
         12    1    3    3    0    0 -0.10208068544E+02  0.14505519110E+02 -0.14610265114E+02  0.22979873689E+02  0.00000000000E+00 0. -1.
</event>
<event>
 7    1  0.4519225E-009  0.4778727E+02  0.7816164E-02  0.1312668E+00
        -11   -1    0    0    0    0  0.00000000000E+00  0.00000000000E+00  0.45593999997E+02  0.45594000000E+02  0.51100000000E-03 0.  1.
         11   -1    0    0    0    0 -0.00000000000E+00 -0.00000000000E+00 -0.45593999997E+02  0.45594000000E+02  0.51100000000E-03 0. -1.
    9900012    2    1    2    0    0  0.26941551325E+02  0.13104207092E+02 -0.31401526566E+02  0.47787270721E+02  0.19999998524E+02 0.  0.
        -12    1    1    2    0    0 -0.26941551325E+02 -0.13104207092E+02  0.31401526566E+02  0.43400729279E+02  0.00000000000E+00 0.  1.
         11    1    3    3    0    0  0.96971667587E+01 -0.65001913503E+00 -0.51362420042E+01  0.10992658924E+02  0.51100000000E-03 0. -1.
        -11    1    3    3    0    0  0.42607885768E+01 -0.19463848468E+01 -0.19548427374E+01  0.50758392072E+01  0.51100000000E-03 0.  1.
        -12    1    3    3    0    0  0.12983595989E+02  0.15700611074E+02 -0.24310441824E+02  0.31718772590E+02  0.00000000000E+00 0.  1.
</event>
<event>
 7    1  0.4519225E-009  0.4778727E+02  0.7816164E-02  0.1312668E+00
        -11   -1    0    0    0    0  0.00000000000E+00  0.00000000000E+00  0.45593999997E+02  0.45594000000E+02  0.51100000000E-03 0. -1.
         11   -1    0    0    0    0 -0.00000000000E+00 -0.00000000000E+00 -0.45593999997E+02  0.45594000000E+02  0.51100000000E-03 0.  1.
    9900012    2    1    2    0    0 -0.34701827839E+02 -0.12400907207E+02 -0.22926484621E+02  0.47787273601E+02  0.20000011655E+02 0.  0.
        -12    1    1    2    0    0  0.34701827839E+02  0.12400907207E+02  0.22926484621E+02  0.43400726399E+02  0.00000000000E+00 0.  1.
         11    1    3    3    0    0 -0.51918800227E+01 -0.38766487900E+00  0.14796199676E+01  0.54125019850E+01  0.51100000000E-03 0. -1.
        -11    1    3    3    0    0 -0.16284790798E+01 -0.37424269754E+01  0.46512743083E+00  0.41078032533E+01  0.51100000000E-03 0.  1.
         12    1    3    3    0    0 -0.27881468736E+02 -0.82708153525E+01 -0.24871232020E+02  0.38266968362E+02  0.00000000000E+00 0. -1.
</event>
<event>
 7    1  0.4519225E-009  0.4778727E+02  0.7816164E-02  0.1312668E+00
        -11   -1    0    0    0    0  0.00000000000E+00  0.00000000000E+00  0.45593999997E+02  0.45594000000E+02  0.51100000000E-03 0.  1.
         11   -1    0    0    0    0 -0.00000000000E+00 -0.00000000000E+00 -0.45593999997E+02  0.45594000000E+02  0.51100000000E-03 0. -1.
    9900012    2    1    2    0    0  0.46750127320E+01 -0.34721390994E+01 -0.43008276006E+02  0.47787270755E+02  0.19999998683E+02 0.  0.
        -12    1    1    2    0    0 -0.46750127320E+01  0.34721390994E+01  0.43008276006E+02  0.43400729245E+02  0.00000000000E+00 0.  1.
         11    1    3    3    0    0  0.37555205734E+01 -0.15019022169E+01 -0.68330450573E+01  0.79404124617E+01  0.51100000000E-03 0. -1.
        -11    1    3    3    0    0 -0.48218816171E+01 -0.66259600196E+01 -0.11733563480E+02  0.14311897174E+02  0.51100000000E-03 0.  1.
        -12    1    3    3    0    0  0.57413737758E+01  0.46557231371E+01 -0.24441667469E+02  0.25534961120E+02  0.00000000000E+00 0.  1.
</event>
<event>
 7    1  0.4519225E-009  0.4778728E+02  0.7816164E-02  0.1312668E+00
        -11   -1    0    0    0    0  0.00000000000E+00  0.00000000000E+00  0.45593999997E+02  0.45594000000E+02  0.51100000000E-03 0. -1.
         11   -1    0    0    0    0 -0.00000000000E+00 -0.00000000000E+00 -0.45593999997E+02  0.45594000000E+02  0.51100000000E-03 0.  1.
    9900012    2    1    2    0    0  0.14777715476E+02 -0.22634306821E+01  0.40744555766E+02  0.47787276300E+02  0.20000023961E+02 0.  0.
        -12    1    1    2    0    0 -0.14777715476E+02  0.22634306821E+01 -0.40744555766E+02  0.43400723700E+02  0.00000000000E+00 0.  1.
         11    1    3    3    0    0  0.42939249344E+01 -0.14151086616E+01 -0.95272831464E+00  0.46203912571E+01  0.51100000000E-03 0. -1.
        -11    1    3    3    0    0  0.24330304724E+01 -0.18470810446E+01  0.11233691020E+02  0.11641613284E+02  0.51100000000E-03 0.  1.
         12    1    3    3    0    0  0.80507600693E+01  0.99875902405E+00  0.30463593061E+02  0.31525271759E+02  0.00000000000E+00 0. -1.
</event>
<event>
 7    1  0.4519225E-009  0.4778727E+02  0.7816164E-02  0.1312668E+00
        -11   -1    0    0    0    0  0.00000000000E+00  0.00000000000E+00  0.45593999997E+02  0.45594000000E+02  0.51100000000E-03 0.  1.
         11   -1    0    0    0    0 -0.00000000000E+00 -0.00000000000E+00 -0.45593999997E+02  0.45594000000E+02  0.51100000000E-03 0. -1.
    9900012    2    1    2    0    0  0.29475424709E+02 -0.46490086470E+01 -0.31515222273E+02  0.47787272148E+02  0.20000005031E+02 0.  0.
        -12    1    1    2    0    0 -0.29475424709E+02  0.46490086470E+01  0.31515222273E+02  0.43400727852E+02  0.00000000000E+00 0.  1.
         11    1    3    3    0    0  0.68401165713E+01  0.38913316827E+00 -0.50032309869E+01  0.84835688187E+01  0.51100000000E-03 0. -1.
        -11    1    3    3    0    0  0.42374799996E+01  0.60713060820E+01 -0.84053948457E+01  0.11201234622E+02  0.51100000000E-03 0.  1.
         12    1    3    3    0    0  0.18397828138E+02 -0.11109447897E+02 -0.18106596440E+02  0.28102468707E+02  0.00000000000E+00 0. -1.
</event>
<event>
 7    1  0.4519225E-009  0.4778726E+02  0.7816164E-02  0.1312668E+00
        -11   -1    0    0    0    0  0.00000000000E+00  0.00000000000E+00  0.45593999997E+02  0.45594000000E+02  0.51100000000E-03 0. -1.
         11   -1    0    0    0    0 -0.00000000000E+00 -0.00000000000E+00 -0.45593999997E+02  0.45594000000E+02  0.51100000000E-03 0.  1.
    9900012    2    1    2    0    0 -0.23357157591E+02 -0.21088859001E+02  0.29888579991E+02  0.47787262696E+02  0.19999961934E+02 0.  0.
        -12    1    1    2    0    0  0.23357157591E+02  0.21088859001E+02 -0.29888579991E+02  0.43400737304E+02  0.00000000000E+00 0.  1.
         11    1    3    3    0    0 -0.11154712886E+02 -0.13050916178E+02  0.19422195449E+02  0.25922494266E+02  0.51100000000E-03 0. -1.
        -11    1    3    3    0    0 -0.13624845067E+02 -0.68789246949E+01  0.12045880167E+02  0.19443745455E+02  0.51100000000E-03 0.  1.
        -12    1    3    3    0    0  0.14224003619E+01 -0.11590181284E+01 -0.15794956255E+01  0.24210229744E+01  0.00000000000E+00 0.  1.
</event>
<event>
 7    1  0.4519225E-009  0.4778727E+02  0.7816164E-02  0.1312668E+00
        -11   -1    0    0    0    0  0.00000000000E+00  0.00000000000E+00  0.45593999997E+02  0.45594000000E+02  0.51100000000E-03 0.  1.
         11   -1    0    0    0    0 -0.00000000000E+00 -0.00000000000E+00 -0.45593999997E+02  0.45594000000E+02  0.51100000000E-03 0. -1.
    9900012    2    1    2    0    0 -0.32109542104E+02  0.11856686039E+02 -0.26683690814E+02  0.47787273584E+02  0.20000011580E+02 0.  0.
        -12    1    1    2    0    0  0.32109542104E+02 -0.11856686039E+02  0.26683690814E+02  0.43400726416E+02  0.00000000000E+00 0.  1.
         11    1    3    3    0    0 -0.18219571438E+02  0.10351115539E+02 -0.18914603344E+02  0.28228719351E+02  0.51100000000E-03 0. -1.
        -11    1    3    3    0    0 -0.22023184770E+01  0.52322283095E+01 -0.22420023261E+01  0.61035231177E+01  0.51100000000E-03 0.  1.
         12    1    3    3    0    0 -0.11687652189E+02 -0.37266578098E+01 -0.55270851438E+01  0.13455031116E+02  0.00000000000E+00 0. -1.
</event>
<event>
 7    1  0.4519225E-009  0.4778727E+02  0.7816164E-02  0.1312668E+00
        -11   -1    0    0    0    0  0.00000000000E+00  0.00000000000E+00  0.45593999997E+02  0.45594000000E+02  0.51100000000E-03 0. -1.
         11   -1    0    0    0    0 -0.00000000000E+00 -0.00000000000E+00 -0.45593999997E+02  0.45594000000E+02  0.51100000000E-03 0.  1.
    9900012    2    1    2    0    0 -0.31084093462E+02  0.22750503768E+02  0.19995426344E+02  0.47787270021E+02  0.19999995334E+02 0.  0.
        -12    1    1    2    0    0  0.31084093462E+02 -0.22750503768E+02 -0.19995426344E+02  0.43400729979E+02  0.00000000000E+00 0.  1.
         11    1    3    3    0    0 -0.32816409100E+00  0.20639609596E+00  0.49215920457E+01  0.49368369980E+01  0.51100000000E-03 0. -1.
        -11    1    3    3    0    0 -0.64927728562E+01  0.11170387433E+02  0.77680434803E+01  0.15075680898E+02  0.51100000000E-03 0.  1.
         12    1    3    3    0    0 -0.24263156515E+02  0.11373720239E+02  0.73057908183E+01  0.27774752125E+02  0.00000000000E+00 0. -1.
</event>
<event>
 7    1  0.4519225E-009  0.4778727E+02  0.7816164E-02  0.1312668E+00
        -11   -1    0    0    0    0  0.00000000000E+00  0.00000000000E+00  0.45593999997E+02  0.45594000000E+02  0.51100000000E-03 0.  1.
         11   -1    0    0    0    0 -0.00000000000E+00 -0.00000000000E+00 -0.45593999997E+02  0.45594000000E+02  0.51100000000E-03 0. -1.
    9900012    2    1    2    0    0  0.39274407828E+01 -0.39174386571E+02 -0.18263790640E+02  0.47787269558E+02  0.19999993223E+02 0.  0.
        -12    1    1    2    0    0 -0.39274407828E+01  0.39174386571E+02  0.18263790640E+02  0.43400730442E+02  0.00000000000E+00 0.  1.
         11    1    3    3    0    0 -0.44124866436E+01 -0.77416460849E+01 -0.19241118106E+01  0.91162124264E+01  0.51100000000E-03 0. -1.
        -11    1    3    3    0    0 -0.31533780180E+01 -0.11648725652E+02 -0.70540682508E+01  0.13978429146E+02  0.51100000000E-03 0.  1.
         12    1    3    3    0    0  0.11493305444E+02 -0.19784014835E+02 -0.92856105788E+01  0.24692627986E+02  0.00000000000E+00 0. -1.
</event>
<event>
 7    1  0.4519225E-009  0.4778729E+02  0.7816164E-02  0.1312668E+00
        -11   -1    0    0    0    0  0.00000000000E+00  0.00000000000E+00  0.45593999997E+02  0.45594000000E+02  0.51100000000E-03 0.  1.
         11   -1    0    0    0    0 -0.00000000000E+00 -0.00000000000E+00 -0.45593999997E+02  0.45594000000E+02  0.51100000000E-03 0. -1.
    9900012    2    1    2    0    0  0.18147214432E+02  0.90090819035E+01 -0.38381465004E+02  0.47787287975E+02  0.20000077194E+02 0.  0.
        -12    1    1    2    0    0 -0.18147214432E+02 -0.90090819035E+01  0.38381465004E+02  0.43400712025E+02  0.00000000000E+00 0.  1.
         11    1    3    3    0    0  0.59087583964E+00 -0.31557294524E+01 -0.27820607932E+01  0.42482496576E+01  0.51100000000E-03 0. -1.
        -11    1    3    3    0    0  0.83206460215E+01 -0.30822512716E+00 -0.65133425792E+01  0.10571271672E+02  0.51100000000E-03 0.  1.
         12    1    3    3    0    0  0.92356925712E+01  0.12473036483E+02 -0.29086061632E+02  0.32967766646E+02  0.00000000000E+00 0. -1.
</event>
<event>
 7    1  0.4519225E-009  0.4778727E+02  0.7816164E-02  0.1312668E+00
        -11   -1    0    0    0    0  0.00000000000E+00  0.00000000000E+00  0.45593999997E+02  0.45594000000E+02  0.51100000000E-03 0. -1.
         11   -1    0    0    0    0 -0.00000000000E+00 -0.00000000000E+00 -0.45593999997E+02  0.45594000000E+02  0.51100000000E-03 0.  1.
    9900012    2    1    2    0    0 -0.24277679246E+02 -0.22254236284E+02 -0.28265991606E+02  0.47787273927E+02  0.20000013145E+02 0.  0.
        -12    1    1    2    0    0  0.24277679246E+02  0.22254236284E+02  0.28265991606E+02  0.43400726073E+02  0.00000000000E+00 0.  1.
         11    1    3    3    0    0 -0.44970072990E+01 -0.83876396833E+01 -0.56146734162E+01  0.11049892847E+02  0.51100000000E-03 0. -1.
        -11    1    3    3    0    0 -0.16059607807E+02 -0.33956786196E+01 -0.77592388434E+01  0.18156195194E+02  0.51100000000E-03 0.  1.
        -12    1    3    3    0    0 -0.37210641396E+01 -0.10470917982E+02 -0.14892079346E+02  0.18581185887E+02  0.00000000000E+00 0.  1.
</event>
<event>
 7    1  0.4519225E-009  0.4778727E+02  0.7816164E-02  0.1312668E+00
        -11   -1    0    0    0    0  0.00000000000E+00  0.00000000000E+00  0.45593999997E+02  0.45594000000E+02  0.51100000000E-03 0.  1.
         11   -1    0    0    0    0 -0.00000000000E+00 -0.00000000000E+00 -0.45593999997E+02  0.45594000000E+02  0.51100000000E-03 0. -1.
    9900012    2    1    2    0    0 -0.24054591909E+02 -0.35632210640E+02  0.59452448058E+01  0.47787265411E+02  0.19999974316E+02 0.  0.
        -12    1    1    2    0    0  0.24054591909E+02  0.35632210640E+02 -0.59452448058E+01  0.43400734589E+02  0.00000000000E+00 0.  1.
         11    1    3    3    0    0 -0.16038099590E+02 -0.12967477512E+02  0.28484443247E+01  0.20820416586E+02  0.51100000000E-03 0. -1.
        -11    1    3    3    0    0 -0.72841730874E+01 -0.81724629584E+01 -0.28060306344E+01  0.11301421882E+02  0.51100000000E-03 0.  1.
        -12    1    3    3    0    0 -0.73231923201E+00 -0.14492270170E+02  0.59028311154E+01  0.15665426944E+02  0.00000000000E+00 0.  1.
</event>
<event>
 7    1  0.5295504E-009  0.4778727E+02  0.7816164E-02  0.1312668E+00
        -11   -1    0    0    0    0  0.00000000000E+00  0.00000000000E+00  0.45593999997E+02  0.45594000000E+02  0.51100000000E-03 0. -1.
         11   -1    0    0    0    0 -0.00000000000E+00 -0.00000000000E+00 -0.45593999997E+02  0.45594000000E+02  0.51100000000E-03 0.  1.
    9900012    2    1    2    0    0  0.24946832877E+01  0.33983880214E+02  0.26879285395E+02  0.47787267950E+02  0.19999985893E+02 0.  0.
        -12    1    1    2    0    0 -0.24946832877E+01 -0.33983880214E+02 -0.26879285395E+02  0.43400732050E+02  0.00000000000E+00 0.  1.
         11    1    3    3    0    0  0.17333888187E+01  0.67496547362E+01  0.11792765492E+02  0.13697875531E+02  0.51100000000E-03 0. -1.
        -11    1    3    3    0    0  0.74116917647E+00 -0.11684244355E+01  0.28397593925E+01  0.31589208724E+01  0.51100000000E-03 0.  1.
         12    1    3    3    0    0  0.20125292524E-01  0.28402649913E+02  0.12246760511E+02  0.30930471547E+02  0.00000000000E+00 0. -1.
</event>
<event>
 7    1  0.4519225E-009  0.4778727E+02  0.7816164E-02  0.1312668E+00
        -11   -1    0    0    0    0  0.00000000000E+00  0.00000000000E+00  0.45593999997E+02  0.45594000000E+02  0.51100000000E-03 0.  1.
         11   -1    0    0    0    0 -0.00000000000E+00 -0.00000000000E+00 -0.45593999997E+02  0.45594000000E+02  0.51100000000E-03 0. -1.
    9900012    2    1    2    0    0 -0.79999181013E+00  0.10137485401E+02 -0.42192595567E+02  0.47787265930E+02  0.19999976679E+02 0.  0.
        -12    1    1    2    0    0  0.79999181013E+00 -0.10137485401E+02  0.42192595567E+02  0.43400734070E+02  0.00000000000E+00 0.  1.
         11    1    3    3    0    0  0.68441123119E-01 -0.12354337762E+01  0.12296965513E+01  0.17444582747E+01  0.51100000000E-03 0. -1.
        -11    1    3    3    0    0 -0.32105654763E+01 -0.73101526552E-01 -0.14470593260E+02  0.14822656444E+02  0.51100000000E-03 0.  1.
         12    1    3    3    0    0  0.23421325431E+01  0.11446020704E+02 -0.28951698859E+02  0.31220151211E+02  0.00000000000E+00 0. -1.
</event>
<event>
 7    1  0.4519225E-009  0.4778727E+02  0.7816164E-02  0.1312668E+00
        -11   -1    0    0    0    0  0.00000000000E+00  0.00000000000E+00  0.45593999997E+02  0.45594000000E+02  0.51100000000E-03 0. -1.
         11   -1    0    0    0    0 -0.00000000000E+00 -0.00000000000E+00 -0.45593999997E+02  0.45594000000E+02  0.51100000000E-03 0.  1.
    9900012    2    1    2    0    0  0.34311887986E+02  0.20464177010E+02  0.16956862960E+02  0.47787269600E+02  0.19999993414E+02 0.  0.
        -12    1    1    2    0    0 -0.34311887986E+02 -0.20464177010E+02 -0.16956862960E+02  0.43400730400E+02  0.00000000000E+00 0.  1.
         11    1    3    3    0    0  0.58709973431E+00 -0.17353703412E+01 -0.30619093675E+00  0.18574039598E+01  0.51100000000E-03 0. -1.
        -11    1    3    3    0    0  0.86886196176E+01  0.54803436582E+01 -0.16095874731E+01  0.10397934870E+02  0.51100000000E-03 0.  1.
         12    1    3    3    0    0  0.25036168634E+02  0.16719203693E+02  0.18872641370E+02  0.35531930770E+02  0.00000000000E+00 0. -1.
</event>
<event>
 7    1  0.4519225E-009  0.4778727E+02  0.7816164E-02  0.1312668E+00
        -11   -1    0    0    0    0  0.00000000000E+00  0.00000000000E+00  0.45593999997E+02  0.45594000000E+02  0.51100000000E-03 0.  1.
         11   -1    0    0    0    0 -0.00000000000E+00 -0.00000000000E+00 -0.45593999997E+02  0.45594000000E+02  0.51100000000E-03 0. -1.
    9900012    2    1    2    0    0 -0.11808965255E+02 -0.17862174968E+02 -0.37750686698E+02  0.47787270730E+02  0.19999998568E+02 0.  0.
        -12    1    1    2    0    0  0.11808965255E+02  0.17862174968E+02  0.37750686698E+02  0.43400729270E+02  0.00000000000E+00 0.  1.
         11    1    3    3    0    0 -0.10112640292E+01 -0.12240492937E+02 -0.26287192138E+02  0.29014975324E+02  0.51100000000E-03 0. -1.
        -11    1    3    3    0    0 -0.15202184186E+01 -0.32515156252E+01  0.30279396134E+00  0.36020969372E+01  0.51100000000E-03 0.  1.
        -12    1    3    3    0    0 -0.92774828075E+01 -0.23701664056E+01 -0.11766288521E+02  0.15170198469E+02  0.00000000000E+00 0.  1.
</event>
<event>
 7    1  0.4519225E-009  0.4778727E+02  0.7816164E-02  0.1312668E+00
        -11   -1    0    0    0    0  0.00000000000E+00  0.00000000000E+00  0.45593999997E+02  0.45594000000E+02  0.51100000000E-03 0.  1.
         11   -1    0    0    0    0 -0.00000000000E+00 -0.00000000000E+00 -0.45593999997E+02  0.45594000000E+02  0.51100000000E-03 0. -1.
    9900012    2    1    2    0    0 -0.23474365338E+01 -0.21106268656E+02 -0.37850209692E+02  0.47787269493E+02  0.19999992925E+02 0.  0.
        -12    1    1    2    0    0  0.23474365338E+01  0.21106268656E+02  0.37850209692E+02  0.43400730507E+02  0.00000000000E+00 0.  1.
         11    1    3    3    0    0  0.17191271206E+00 -0.43016521855E+01 -0.13579104810E+02  0.14245204569E+02  0.51100000000E-03 0. -1.
        -11    1    3    3    0    0  0.28411978199E+01 -0.17264658872E+02 -0.16218795498E+02  0.23857706903E+02  0.51100000000E-03 0.  1.
        -12    1    3    3    0    0 -0.53605470657E+01  0.46004240191E+00 -0.80523093836E+01  0.96843580202E+01  0.00000000000E+00 0.  1.
</event>
<event>
 7    1  0.4519225E-009  0.4778727E+02  0.7816164E-02  0.1312668E+00
        -11   -1    0    0    0    0  0.00000000000E+00  0.00000000000E+00  0.45593999997E+02  0.45594000000E+02  0.51100000000E-03 0.  1.
         11   -1    0    0    0    0 -0.00000000000E+00 -0.00000000000E+00 -0.45593999997E+02  0.45594000000E+02  0.51100000000E-03 0. -1.
    9900012    2    1    2    0    0 -0.28068008495E+02  0.32497658408E+02  0.63018065849E+01  0.47787266491E+02  0.19999979241E+02 0.  0.
        -12    1    1    2    0    0  0.28068008495E+02 -0.32497658408E+02 -0.63018065849E+01  0.43400733509E+02  0.00000000000E+00 0.  1.
         11    1    3    3    0    0 -0.94311092808E+01  0.20652550312E+02 -0.25584649271E+01  0.22847743864E+02  0.51100000000E-03 0. -1.
        -11    1    3    3    0    0 -0.69948183921E+00  0.18194710888E+01  0.29884331375E+01  0.35679802080E+01  0.51100000000E-03 0.  1.
         12    1    3    3    0    0 -0.17937417375E+02  0.10025637007E+02  0.58718383744E+01  0.21371542419E+02  0.00000000000E+00 0. -1.
</event>
<event>
 7    1  0.4519225E-009  0.4778727E+02  0.7816164E-02  0.1312668E+00
        -11   -1    0    0    0    0  0.00000000000E+00  0.00000000000E+00  0.45593999997E+02  0.45594000000E+02  0.51100000000E-03 0.  1.
         11   -1    0    0    0    0 -0.00000000000E+00 -0.00000000000E+00 -0.45593999997E+02  0.45594000000E+02  0.51100000000E-03 0. -1.
    9900012    2    1    2    0    0 -0.54687048902E+01 -0.39754888493E+02 -0.16530747646E+02  0.47787268324E+02  0.19999987598E+02 0.  0.
        -12    1    1    2    0    0  0.54687048902E+01  0.39754888493E+02  0.16530747646E+02  0.43400731676E+02  0.00000000000E+00 0.  1.
         11    1    3    3    0    0  0.47627585958E+01 -0.78896464848E+01 -0.17808911095E+01  0.93862646724E+01  0.51100000000E-03 0. -1.
        -11    1    3    3    0    0 -0.41863035778E+01 -0.22105357623E+02 -0.43592684912E+01  0.22916701232E+02  0.51100000000E-03 0.  1.
        -12    1    3    3    0    0 -0.60451599081E+01 -0.97598843849E+01 -0.10390588045E+02  0.15484302420E+02  0.00000000000E+00 0.  1.
</event>
<event>
 7    1  0.4519225E-009  0.4778727E+02  0.7816164E-02  0.1312668E+00
        -11   -1    0    0    0    0  0.00000000000E+00  0.00000000000E+00  0.45593999997E+02  0.45594000000E+02  0.51100000000E-03 0.  1.
         11   -1    0    0    0    0 -0.00000000000E+00 -0.00000000000E+00 -0.45593999997E+02  0.45594000000E+02  0.51100000000E-03 0. -1.
    9900012    2    1    2    0    0  0.24123217343E+02 -0.28646714518E+01 -0.35965084776E+02  0.47787270969E+02  0.19999999655E+02 0.  0.
        -12    1    1    2    0    0 -0.24123217343E+02  0.28646714518E+01  0.35965084776E+02  0.43400729031E+02  0.00000000000E+00 0.  1.
         11    1    3    3    0    0  0.20499413161E+02 -0.41180590313E+01 -0.23383073251E+02  0.31368016594E+02  0.51100000000E-03 0. -1.
        -11    1    3    3    0    0  0.31752051108E+01 -0.27577933605E+01 -0.12462929721E+01  0.43864106224E+01  0.51100000000E-03 0.  1.
        -12    1    3    3    0    0  0.44859907158E+00  0.40111809399E+01 -0.11335718553E+02  0.12032843753E+02  0.00000000000E+00 0.  1.
</event>
<event>
 7    1  0.4519225E-009  0.4778727E+02  0.7816164E-02  0.1312668E+00
        -11   -1    0    0    0    0  0.00000000000E+00  0.00000000000E+00  0.45593999997E+02  0.45594000000E+02  0.51100000000E-03 0. -1.
         11   -1    0    0    0    0 -0.00000000000E+00 -0.00000000000E+00 -0.45593999997E+02  0.45594000000E+02  0.51100000000E-03 0.  1.
    9900012    2    1    2    0    0  0.39006979515E+02 -0.11665662795E+02  0.15033010364E+02  0.47787267979E+02  0.19999986025E+02 0.  0.
        -12    1    1    2    0    0 -0.39006979515E+02  0.11665662795E+02 -0.15033010364E+02  0.43400732021E+02  0.00000000000E+00 0.  1.
         11    1    3    3    0    0  0.82783667550E+01  0.35528552927E+01  0.21453322932E+01  0.92604852881E+01  0.51100000000E-03 0.  1.
        -11    1    3    3    0    0  0.63277338670E+01 -0.16117012262E+01  0.77258236819E+01  0.10115638811E+02  0.51100000000E-03 0. -1.
        -12    1    3    3    0    0  0.24400878893E+02 -0.13606816862E+02  0.51618543891E+01  0.28411143880E+02  0.00000000000E+00 0.  1.
</event>
<event>
 7    1  0.4519225E-009  0.4778727E+02  0.7816164E-02  0.1312668E+00
        -11   -1    0    0    0    0  0.00000000000E+00  0.00000000000E+00  0.45593999997E+02  0.45594000000E+02  0.51100000000E-03 0.  1.
         11   -1    0    0    0    0 -0.00000000000E+00 -0.00000000000E+00 -0.45593999997E+02  0.45594000000E+02  0.51100000000E-03 0. -1.
    9900012    2    1    2    0    0 -0.84605527459E+00  0.43268044587E+02  0.32838899700E+01  0.47787269301E+02  0.19999992049E+02 0.  0.
        -12    1    1    2    0    0  0.84605527459E+00 -0.43268044587E+02 -0.32838899700E+01  0.43400730699E+02  0.00000000000E+00 0.  1.
         11    1    3    3    0    0 -0.41029342564E+01  0.19737370744E+02 -0.34311628850E+01  0.20449223761E+02  0.51100000000E-03 0. -1.
        -11    1    3    3    0    0 -0.38297107108E+01  0.81224527935E+01  0.50350985894E+01  0.10295297061E+02  0.51100000000E-03 0.  1.
         12    1    3    3    0    0  0.70865896927E+01  0.15408221049E+02  0.16799542656E+01  0.17042748479E+02  0.00000000000E+00 0. -1.
</event>
<event>
 7    1  0.4519225E-009  0.4778726E+02  0.7816164E-02  0.1312668E+00
        -11   -1    0    0    0    0  0.00000000000E+00  0.00000000000E+00  0.45593999997E+02  0.45594000000E+02  0.51100000000E-03 0. -1.
         11   -1    0    0    0    0 -0.00000000000E+00 -0.00000000000E+00 -0.45593999997E+02  0.45594000000E+02  0.51100000000E-03 0.  1.
    9900012    2    1    2    0    0  0.15656477212E+02 -0.10869536119E+02  0.38991689825E+02  0.47787263030E+02  0.19999963459E+02 0.  0.
        -12    1    1    2    0    0 -0.15656477212E+02  0.10869536119E+02 -0.38991689825E+02  0.43400736970E+02  0.00000000000E+00 0.  1.
         11    1    3    3    0    0  0.14535432041E+02 -0.75019800042E+01  0.29803526276E+02  0.33997186168E+02  0.51100000000E-03 0. -1.
        -11    1    3    3    0    0  0.30499724621E+01 -0.57938919846E+01  0.37903757718E+01  0.75656106892E+01  0.51100000000E-03 0.  1.
        -12    1    3    3    0    0 -0.19289272913E+01  0.24263358696E+01  0.53977877774E+01  0.62244661729E+01  0.00000000000E+00 0.  1.
</event>
<event>
 7    1  0.4519225E-009  0.4778727E+02  0.7816164E-02  0.1312668E+00
        -11   -1    0    0    0    0  0.00000000000E+00  0.00000000000E+00  0.45593999997E+02  0.45594000000E+02  0.51100000000E-03 0. -1.
         11   -1    0    0    0    0 -0.00000000000E+00 -0.00000000000E+00 -0.45593999997E+02  0.45594000000E+02  0.51100000000E-03 0.  1.
    9900012    2    1    2    0    0 -0.64642125261E+01 -0.12532895842E+02  0.41045876545E+02  0.47787268403E+02  0.19999987958E+02 0.  0.
        -12    1    1    2    0    0  0.64642125261E+01  0.12532895842E+02 -0.41045876545E+02  0.43400731597E+02  0.00000000000E+00 0.  1.
         11    1    3    3    0    0 -0.20845854180E+00 -0.26538124142E+00  0.96823040603E+01  0.96881832324E+01  0.51100000000E-03 0. -1.
        -11    1    3    3    0    0 -0.29295933848E+00  0.41463172318E+01  0.65005559414E+01  0.77158926618E+01  0.51100000000E-03 0.  1.
         12    1    3    3    0    0 -0.59627946459E+01 -0.16413831832E+02  0.24863016543E+02  0.30383192509E+02  0.00000000000E+00 0. -1.
</event>
<event>
 7    1  0.4519225E-009  0.4778727E+02  0.7816164E-02  0.1312668E+00
        -11   -1    0    0    0    0  0.00000000000E+00  0.00000000000E+00  0.45593999997E+02  0.45594000000E+02  0.51100000000E-03 0. -1.
         11   -1    0    0    0    0 -0.00000000000E+00 -0.00000000000E+00 -0.45593999997E+02  0.45594000000E+02  0.51100000000E-03 0.  1.
    9900012    2    1    2    0    0 -0.66398042379E+01  0.29499333685E+01  0.42788248339E+02  0.47787270708E+02  0.19999998465E+02 0.  0.
        -12    1    1    2    0    0  0.66398042379E+01 -0.29499333685E+01 -0.42788248339E+02  0.43400729292E+02  0.00000000000E+00 0.  1.
         11    1    3    3    0    0 -0.22221952658E+01  0.59255827593E+01  0.72399831169E+01  0.96160302948E+01  0.51100000000E-03 0. -1.
        -11    1    3    3    0    0 -0.40486093471E+01 -0.30710111210E+01  0.36162605961E+01  0.62369614325E+01  0.51100000000E-03 0.  1.
        -12    1    3    3    0    0 -0.36899962497E+00  0.95361730200E-01  0.31932004626E+02  0.31934278980E+02  0.00000000000E+00 0.  1.
</event>
<event>
 7    1  0.4519225E-009  0.4778727E+02  0.7816164E-02  0.1312668E+00
        -11   -1    0    0    0    0  0.00000000000E+00  0.00000000000E+00  0.45593999997E+02  0.45594000000E+02  0.51100000000E-03 0. -1.
         11   -1    0    0    0    0 -0.00000000000E+00 -0.00000000000E+00 -0.45593999997E+02  0.45594000000E+02  0.51100000000E-03 0.  1.
    9900012    2    1    2    0    0 -0.41909475220E+01 -0.63173827382E+01  0.42733474410E+02  0.47787271885E+02  0.20000003832E+02 0.  0.
        -12    1    1    2    0    0  0.41909475220E+01  0.63173827382E+01 -0.42733474410E+02  0.43400728115E+02  0.00000000000E+00 0.  1.
         11    1    3    3    0    0 -0.58161608573E+01  0.17380376188E+01  0.76083801251E+01  0.97332394542E+01  0.51100000000E-03 0.  1.
        -11    1    3    3    0    0 -0.22700846341E+01 -0.91368647825E+00  0.24746456688E+02  0.24867151547E+02  0.51100000000E-03 0. -1.
         12    1    3    3    0    0  0.38952979694E+01 -0.71417338788E+01  0.10378637597E+02  0.13186880883E+02  0.00000000000E+00 0. -1.
</event>
<event>
 7    1  0.4519225E-009  0.4778727E+02  0.7816164E-02  0.1312668E+00
        -11   -1    0    0    0    0  0.00000000000E+00  0.00000000000E+00  0.45593999997E+02  0.45594000000E+02  0.51100000000E-03 0.  1.
         11   -1    0    0    0    0 -0.00000000000E+00 -0.00000000000E+00 -0.45593999997E+02  0.45594000000E+02  0.51100000000E-03 0. -1.
    9900012    2    1    2    0    0  0.24615656860E+02 -0.26632470311E+02 -0.23841226423E+02  0.47787272877E+02  0.20000008354E+02 0.  0.
        -12    1    1    2    0    0 -0.24615656860E+02  0.26632470311E+02  0.23841226423E+02  0.43400727123E+02  0.00000000000E+00 0.  1.
         11    1    3    3    0    0  0.16593337851E+02 -0.17174291392E+02 -0.14435590496E+02  0.27904863717E+02  0.51100000000E-03 0. -1.
        -11    1    3    3    0    0 -0.11086502318E+01  0.10151767995E+01 -0.51283901056E+01  0.53441626666E+01  0.51100000000E-03 0.  1.
        -12    1    3    3    0    0  0.91309692405E+01 -0.10473355718E+02 -0.42772458216E+01  0.14538246493E+02  0.00000000000E+00 0.  1.
</event>
<event>
 7    1  0.4519225E-009  0.4778727E+02  0.7816164E-02  0.1312668E+00
        -11   -1    0    0    0    0  0.00000000000E+00  0.00000000000E+00  0.45593999997E+02  0.45594000000E+02  0.51100000000E-03 0. -1.
         11   -1    0    0    0    0 -0.00000000000E+00 -0.00000000000E+00 -0.45593999997E+02  0.45594000000E+02  0.51100000000E-03 0.  1.
    9900012    2    1    2    0    0  0.35609330018E+02 -0.22625284028E+02  0.10183103594E+02  0.47787268895E+02  0.19999990198E+02 0.  0.
        -12    1    1    2    0    0 -0.35609330018E+02  0.22625284028E+02 -0.10183103594E+02  0.43400731105E+02  0.00000000000E+00 0.  1.
         11    1    3    3    0    0  0.10824423912E+02 -0.10739978859E+02  0.65719724135E+01  0.16604400639E+02  0.51100000000E-03 0. -1.
        -11    1    3    3    0    0  0.49904911832E+01 -0.87782971638E+01 -0.21710802241E+01  0.10328460338E+02  0.51100000000E-03 0.  1.
        -12    1    3    3    0    0  0.19794414922E+02 -0.31070080050E+01  0.57822114043E+01  0.20854407918E+02  0.00000000000E+00 0.  1.
</event>
<event>
 7    1  0.4519225E-009  0.4778727E+02  0.7816164E-02  0.1312668E+00
        -11   -1    0    0    0    0  0.00000000000E+00  0.00000000000E+00  0.45593999997E+02  0.45594000000E+02  0.51100000000E-03 0. -1.
         11   -1    0    0    0    0 -0.00000000000E+00 -0.00000000000E+00 -0.45593999997E+02  0.45594000000E+02  0.51100000000E-03 0.  1.
    9900012    2    1    2    0    0  0.73187649142E+01  0.16365444838E+02  0.39525070693E+02  0.47787270537E+02  0.19999997685E+02 0.  0.
        -12    1    1    2    0    0 -0.73187649142E+01 -0.16365444838E+02 -0.39525070693E+02  0.43400729463E+02  0.00000000000E+00 0.  1.
         11    1    3    3    0    0  0.13062776785E+01  0.65211135947E+01  0.24649498526E+02  0.25530943220E+02  0.51100000000E-03 0. -1.
        -11    1    3    3    0    0  0.51719902016E+01 -0.23891918795E+00  0.94496420301E+01  0.10775077716E+02  0.51100000000E-03 0.  1.
         12    1    3    3    0    0  0.84049703402E+00  0.10083250432E+02  0.54259301377E+01  0.11481249601E+02  0.00000000000E+00 0. -1.
</event>
<event>
 7    1  0.4519225E-009  0.4778727E+02  0.7816164E-02  0.1312668E+00
        -11   -1    0    0    0    0  0.00000000000E+00  0.00000000000E+00  0.45593999997E+02  0.45594000000E+02  0.51100000000E-03 0.  1.
         11   -1    0    0    0    0 -0.00000000000E+00 -0.00000000000E+00 -0.45593999997E+02  0.45594000000E+02  0.51100000000E-03 0. -1.
    9900012    2    1    2    0    0 -0.22770477889E+02  0.32467600971E+02 -0.17634731700E+02  0.47787267999E+02  0.19999986114E+02 0.  0.
        -12    1    1    2    0    0  0.22770477889E+02 -0.32467600971E+02  0.17634731700E+02  0.43400732001E+02  0.00000000000E+00 0.  1.
         11    1    3    3    0    0 -0.86102595199E+01  0.19162442530E+02 -0.25673697738E+01  0.21164289748E+02  0.51100000000E-03 0. -1.
        -11    1    3    3    0    0 -0.70725922096E+01  0.10475298685E+02 -0.41511583594E+01  0.13303591962E+02  0.51100000000E-03 0.  1.
        -12    1    3    3    0    0 -0.70876261592E+01  0.28298597563E+01 -0.10916203566E+02  0.13319386289E+02  0.00000000000E+00 0.  1.
</event>
<event>
 7    1  0.4519225E-009  0.4778727E+02  0.7816164E-02  0.1312668E+00
        -11   -1    0    0    0    0  0.00000000000E+00  0.00000000000E+00  0.45593999997E+02  0.45594000000E+02  0.51100000000E-03 0.  1.
         11   -1    0    0    0    0 -0.00000000000E+00 -0.00000000000E+00 -0.45593999997E+02  0.45594000000E+02  0.51100000000E-03 0. -1.
    9900012    2    1    2    0    0  0.25523232451E+02 -0.34968241534E+02  0.30675895612E+01  0.47787269402E+02  0.19999992512E+02 0.  0.
        -12    1    1    2    0    0 -0.25523232451E+02  0.34968241534E+02 -0.30675895612E+01  0.43400730598E+02  0.00000000000E+00 0.  1.
         11    1    3    3    0    0  0.21308546805E+02 -0.29838339709E+02  0.54554498395E+01  0.37069429679E+02  0.51100000000E-03 0. -1.
        -11    1    3    3    0    0  0.81370533320E+00 -0.56881419863E+01  0.10597691871E+01  0.58429604326E+01  0.51100000000E-03 0.  1.
        -12    1    3    3    0    0  0.34009803130E+01  0.55824016143E+00 -0.34476294654E+01  0.48748792906E+01  0.00000000000E+00 0.  1.
</event>
<event>
 7    1  0.4519225E-009  0.4778727E+02  0.7816164E-02  0.1312668E+00
        -11   -1    0    0    0    0  0.00000000000E+00  0.00000000000E+00  0.45593999997E+02  0.45594000000E+02  0.51100000000E-03 0.  1.
         11   -1    0    0    0    0 -0.00000000000E+00 -0.00000000000E+00 -0.45593999997E+02  0.45594000000E+02  0.51100000000E-03 0. -1.
    9900012    2    1    2    0    0 -0.77621968871E+01 -0.15439445026E+02 -0.39812003468E+02  0.47787265175E+02  0.19999973237E+02 0.  0.
        -12    1    1    2    0    0  0.77621968871E+01  0.15439445026E+02  0.39812003468E+02  0.43400734825E+02  0.00000000000E+00 0.  1.
         11    1    3    3    0    0 -0.23138218718E+01 -0.67663620175E+01 -0.15416156831E+02  0.16993978884E+02  0.51100000000E-03 0. -1.
        -11    1    3    3    0    0  0.47701251437E+01 -0.45956964525E+01 -0.43430313547E+01  0.79206339001E+01  0.51100000000E-03 0.  1.
         12    1    3    3    0    0 -0.10218500159E+02 -0.40773865557E+01 -0.20052815283E+02  0.22872652391E+02  0.00000000000E+00 0. -1.
</event>
<event>
 7    1  0.4519225E-009  0.4778727E+02  0.7816164E-02  0.1312668E+00
        -11   -1    0    0    0    0  0.00000000000E+00  0.00000000000E+00  0.45593999997E+02  0.45594000000E+02  0.51100000000E-03 0. -1.
         11   -1    0    0    0    0 -0.00000000000E+00 -0.00000000000E+00 -0.45593999997E+02  0.45594000000E+02  0.51100000000E-03 0.  1.
    9900012    2    1    2    0    0  0.65050997115E+00 -0.28092097085E+02  0.33076184415E+02  0.47787273540E+02  0.20000011378E+02 0.  0.
        -12    1    1    2    0    0 -0.65050997115E+00  0.28092097085E+02 -0.33076184415E+02  0.43400726460E+02  0.00000000000E+00 0.  1.
         11    1    3    3    0    0  0.23709376040E+01 -0.12968583386E+02  0.61068989344E+01  0.14529270973E+02  0.51100000000E-03 0. -1.
        -11    1    3    3    0    0 -0.69848007949E+00 -0.12203591961E+02  0.94040920418E+01  0.15422466683E+02  0.51100000000E-03 0.  1.
        -12    1    3    3    0    0 -0.10219475534E+01 -0.29199217376E+01  0.17565193438E+02  0.17835535884E+02  0.00000000000E+00 0.  1.
</event>
<event>
 7    1  0.4519225E-009  0.4778727E+02  0.7816164E-02  0.1312668E+00
        -11   -1    0    0    0    0  0.00000000000E+00  0.00000000000E+00  0.45593999997E+02  0.45594000000E+02  0.51100000000E-03 0. -1.
         11   -1    0    0    0    0 -0.00000000000E+00 -0.00000000000E+00 -0.45593999997E+02  0.45594000000E+02  0.51100000000E-03 0.  1.
    9900012    2    1    2    0    0  0.12609325298E+02  0.28741435497E+02  0.29975960396E+02  0.47787269585E+02  0.19999993346E+02 0.  0.
        -12    1    1    2    0    0 -0.12609325298E+02 -0.28741435497E+02 -0.29975960396E+02  0.43400730415E+02  0.00000000000E+00 0.  1.
         11    1    3    3    0    0  0.44123904790E+01  0.19843273932E+02  0.16275846780E+02  0.26040888978E+02  0.51100000000E-03 0. -1.
        -11    1    3    3    0    0  0.61174507409E+01  0.10325125733E+02  0.55640174386E+01  0.13228367824E+02  0.51100000000E-03 0.  1.
         12    1    3    3    0    0  0.20794840785E+01 -0.14269641684E+01  0.81360961769E+01  0.85180127829E+01  0.00000000000E+00 0. -1.
</event>
<event>
 7    1  0.4519225E-009  0.4778727E+02  0.7816164E-02  0.1312668E+00
        -11   -1    0    0    0    0  0.00000000000E+00  0.00000000000E+00  0.45593999997E+02  0.45594000000E+02  0.51100000000E-03 0. -1.
         11   -1    0    0    0    0 -0.00000000000E+00 -0.00000000000E+00 -0.45593999997E+02  0.45594000000E+02  0.51100000000E-03 0.  1.
    9900012    2    1    2    0    0 -0.62145929963E+01 -0.16027727378E+02  0.39851148832E+02  0.47787271040E+02  0.19999999979E+02 0.  0.
        -12    1    1    2    0    0  0.62145929963E+01  0.16027727378E+02 -0.39851148832E+02  0.43400728960E+02  0.00000000000E+00 0.  1.
         11    1    3    3    0    0  0.57919518317E+01 -0.92120345687E+01  0.14726305856E+02  0.18310444324E+02  0.51100000000E-03 0. -1.
        -11    1    3    3    0    0 -0.18998865651E+01  0.35459072656E+00  0.64191800839E+00  0.20365074353E+01  0.51100000000E-03 0.  1.
         12    1    3    3    0    0 -0.10106658263E+02 -0.71702835356E+01  0.24482924968E+02  0.27440319280E+02  0.00000000000E+00 0. -1.
</event>
<event>
 7    1  0.4519225E-009  0.4778727E+02  0.7816164E-02  0.1312668E+00
        -11   -1    0    0    0    0  0.00000000000E+00  0.00000000000E+00  0.45593999997E+02  0.45594000000E+02  0.51100000000E-03 0.  1.
         11   -1    0    0    0    0 -0.00000000000E+00 -0.00000000000E+00 -0.45593999997E+02  0.45594000000E+02  0.51100000000E-03 0. -1.
    9900012    2    1    2    0    0 -0.12414023575E+00 -0.43178771548E+02 -0.43819222356E+01  0.47787274595E+02  0.20000016187E+02 0.  0.
        -12    1    1    2    0    0  0.12414023575E+00  0.43178771548E+02  0.43819222356E+01  0.43400725405E+02  0.00000000000E+00 0.  1.
         11    1    3    3    0    0  0.49917234515E+01 -0.34094266829E+02 -0.93448951962E+01  0.35702428490E+02  0.51100000000E-03 0. -1.
        -11    1    3    3    0    0  0.36140188167E+00 -0.18438153563E+01  0.13489372652E+01  0.23129847373E+01  0.51100000000E-03 0.  1.
         12    1    3    3    0    0 -0.54772655690E+01 -0.72406893633E+01  0.36140356954E+01  0.97718613670E+01  0.00000000000E+00 0. -1.
</event>
<event>
 7    1  0.4519225E-009  0.4778725E+02  0.7816164E-02  0.1312668E+00
        -11   -1    0    0    0    0  0.00000000000E+00  0.00000000000E+00  0.45593999997E+02  0.45594000000E+02  0.51100000000E-03 0. -1.
         11   -1    0    0    0    0 -0.00000000000E+00 -0.00000000000E+00 -0.45593999997E+02  0.45594000000E+02  0.51100000000E-03 0.  1.
    9900012    2    1    2    0    0 -0.17131160704E+01  0.40357468247E+02  0.15873402713E+02  0.47787252038E+02  0.19999913343E+02 0.  0.
        -12    1    1    2    0    0  0.17131160704E+01 -0.40357468247E+02 -0.15873402713E+02  0.43400747962E+02  0.00000000000E+00 0.  1.
         11    1    3    3    0    0 -0.38451840376E+01  0.37347320248E+01  0.38154002932E+01  0.65795853394E+01  0.51100000000E-03 0. -1.
        -11    1    3    3    0    0  0.45862136227E+01  0.53639747497E+01  0.60211797455E+01  0.92768629557E+01  0.51100000000E-03 0.  1.
        -12    1    3    3    0    0 -0.24541456555E+01  0.31258761472E+02  0.60368226742E+01  0.31930803743E+02  0.00000000000E+00 0.  1.
</event>
<event>
 7    1  0.4519225E-009  0.4778727E+02  0.7816164E-02  0.1312668E+00
        -11   -1    0    0    0    0  0.00000000000E+00  0.00000000000E+00  0.45593999997E+02  0.45594000000E+02  0.51100000000E-03 0. -1.
         11   -1    0    0    0    0 -0.00000000000E+00 -0.00000000000E+00 -0.45593999997E+02  0.45594000000E+02  0.51100000000E-03 0.  1.
    9900012    2    1    2    0    0  0.69637548751E+01 -0.40285422646E+02 -0.14567560335E+02  0.47787274501E+02  0.20000015759E+02 0.  0.
        -12    1    1    2    0    0 -0.69637548751E+01  0.40285422646E+02  0.14567560335E+02  0.43400725499E+02  0.00000000000E+00 0.  1.
         11    1    3    3    0    0  0.39126773526E+01 -0.97573335556E+01 -0.10417059646E+02  0.14799653175E+02  0.51100000000E-03 0. -1.
        -11    1    3    3    0    0 -0.36955819401E+01 -0.48938810083E+01 -0.17207133386E+01  0.63693211455E+01  0.51100000000E-03 0.  1.
        -12    1    3    3    0    0  0.67466594626E+01 -0.25634208082E+02 -0.24297873503E+01  0.26618300180E+02  0.00000000000E+00 0.  1.
</event>
<event>
 7    1  0.4519225E-009  0.4778727E+02  0.7816164E-02  0.1312668E+00
        -11   -1    0    0    0    0  0.00000000000E+00  0.00000000000E+00  0.45593999997E+02  0.45594000000E+02  0.51100000000E-03 0. -1.
         11   -1    0    0    0    0 -0.00000000000E+00 -0.00000000000E+00 -0.45593999997E+02  0.45594000000E+02  0.51100000000E-03 0.  1.
    9900012    2    1    2    0    0  0.10792691030E+02  0.19836879098E+01  0.41990545396E+02  0.47787273047E+02  0.20000009129E+02 0.  0.
        -12    1    1    2    0    0 -0.10792691030E+02 -0.19836879098E+01 -0.41990545396E+02  0.43400726953E+02  0.00000000000E+00 0.  1.
         11    1    3    3    0    0  0.43638542859E+01  0.37440074526E+01  0.16861242033E+02  0.17814665285E+02  0.51100000000E-03 0. -1.
        -11    1    3    3    0    0  0.22447377518E+01  0.64156593541E+01  0.76949450305E+01  0.10267020590E+02  0.51100000000E-03 0.  1.
         12    1    3    3    0    0  0.41840989926E+01 -0.81759788970E+01  0.17434358333E+02  0.19705587172E+02  0.00000000000E+00 0. -1.
</event>
<event>
 7    1  0.4519225E-009  0.4778727E+02  0.7816164E-02  0.1312668E+00
        -11   -1    0    0    0    0  0.00000000000E+00  0.00000000000E+00  0.45593999997E+02  0.45594000000E+02  0.51100000000E-03 0. -1.
         11   -1    0    0    0    0 -0.00000000000E+00 -0.00000000000E+00 -0.45593999997E+02  0.45594000000E+02  0.51100000000E-03 0.  1.
    9900012    2    1    2    0    0  0.54457025249E+01 -0.10026453952E+02  0.41874069282E+02  0.47787272667E+02  0.20000007396E+02 0.  0.
        -12    1    1    2    0    0 -0.54457025249E+01  0.10026453952E+02 -0.41874069282E+02  0.43400727333E+02  0.00000000000E+00 0.  1.
         11    1    3    3    0    0  0.34171994802E+01 -0.55480769627E+00  0.23924599218E+01  0.42081977860E+01  0.51100000000E-03 0. -1.
        -11    1    3    3    0    0 -0.28505137859E+01 -0.92184672938E+01  0.10792738113E+02  0.14477180814E+02  0.51100000000E-03 0.  1.
         12    1    3    3    0    0  0.48790168305E+01 -0.25317896188E+00  0.28688871247E+02  0.29101894067E+02  0.00000000000E+00 0. -1.
</event>
<event>
 7    1  0.4519225E-009  0.4778728E+02  0.7816164E-02  0.1312668E+00
        -11   -1    0    0    0    0  0.00000000000E+00  0.00000000000E+00  0.45593999997E+02  0.45594000000E+02  0.51100000000E-03 0.  1.
         11   -1    0    0    0    0 -0.00000000000E+00 -0.00000000000E+00 -0.45593999997E+02  0.45594000000E+02  0.51100000000E-03 0. -1.
    9900012    2    1    2    0    0  0.10127500840E+02  0.38625847916E+02 -0.17002950699E+02  0.47787277276E+02  0.20000028411E+02 0.  0.
        -12    1    1    2    0    0 -0.10127500840E+02 -0.38625847916E+02  0.17002950699E+02  0.43400722724E+02  0.00000000000E+00 0.  1.
         11    1    3    3    0    0  0.27783227097E+01  0.15217013162E+02 -0.35932960002E+01  0.15880439007E+02  0.51100000000E-03 0. -1.
        -11    1    3    3    0    0  0.64506905702E+01  0.19554073478E+02 -0.30480624563E+01  0.20814991795E+02  0.51100000000E-03 0.  1.
        -12    1    3    3    0    0  0.89848756045E+00  0.38547612755E+01 -0.10361592243E+02  0.11091846473E+02  0.00000000000E+00 0.  1.
</event>
<event>
 7    1  0.4519225E-009  0.4778727E+02  0.7816164E-02  0.1312668E+00
        -11   -1    0    0    0    0  0.00000000000E+00  0.00000000000E+00  0.45593999997E+02  0.45594000000E+02  0.51100000000E-03 0.  1.
         11   -1    0    0    0    0 -0.00000000000E+00 -0.00000000000E+00 -0.45593999997E+02  0.45594000000E+02  0.51100000000E-03 0. -1.
    9900012    2    1    2    0    0 -0.58771202845E+01  0.24419274431E+02 -0.35394659989E+02  0.47787268874E+02  0.19999990104E+02 0.  0.
        -12    1    1    2    0    0  0.58771202845E+01 -0.24419274431E+02  0.35394659989E+02  0.43400731126E+02  0.00000000000E+00 0.  1.
         11    1    3    3    0    0 -0.32854051348E+01  0.14873963771E+01 -0.19859027761E+01  0.41170432326E+01  0.51100000000E-03 0. -1.
        -11    1    3    3    0    0 -0.67447534047E+01  0.40682882884E+01 -0.50436053809E+01  0.93531076968E+01  0.51100000000E-03 0.  1.
        -12    1    3    3    0    0  0.41530382550E+01  0.18863589765E+02 -0.28365151832E+02  0.34317117944E+02  0.00000000000E+00 0.  1.
</event>
<event>
 7    1  0.4519225E-009  0.4778727E+02  0.7816164E-02  0.1312668E+00
        -11   -1    0    0    0    0  0.00000000000E+00  0.00000000000E+00  0.45593999997E+02  0.45594000000E+02  0.51100000000E-03 0.  1.
         11   -1    0    0    0    0 -0.00000000000E+00 -0.00000000000E+00 -0.45593999997E+02  0.45594000000E+02  0.51100000000E-03 0. -1.
    9900012    2    1    2    0    0 -0.37370756917E+01 -0.22436675736E+02 -0.36962859074E+02  0.47787273004E+02  0.20000008935E+02 0.  0.
        -12    1    1    2    0    0  0.37370756917E+01  0.22436675736E+02  0.36962859074E+02  0.43400726996E+02  0.00000000000E+00 0.  1.
         11    1    3    3    0    0 -0.50201723058E+01 -0.19422151626E+01 -0.55297033518E+01  0.77169909380E+01  0.51100000000E-03 0. -1.
        -11    1    3    3    0    0  0.30493014146E+01  0.78065425878E+00 -0.66690929903E+01  0.73745821416E+01  0.51100000000E-03 0.  1.
         12    1    3    3    0    0 -0.17662048005E+01 -0.21275114833E+02 -0.24764062732E+02  0.32695699924E+02  0.00000000000E+00 0. -1.
</event>
<event>
 7    1  0.4519225E-009  0.4778727E+02  0.7816164E-02  0.1312668E+00
        -11   -1    0    0    0    0  0.00000000000E+00  0.00000000000E+00  0.45593999997E+02  0.45594000000E+02  0.51100000000E-03 0. -1.
         11   -1    0    0    0    0 -0.00000000000E+00 -0.00000000000E+00 -0.45593999997E+02  0.45594000000E+02  0.51100000000E-03 0.  1.
    9900012    2    1    2    0    0  0.17548712962E+02  0.35581126289E+01  0.39534868435E+02  0.47787270579E+02  0.19999997879E+02 0.  0.
        -12    1    1    2    0    0 -0.17548712962E+02 -0.35581126289E+01 -0.39534868435E+02  0.43400729421E+02  0.00000000000E+00 0.  1.
         11    1    3    3    0    0  0.45768474178E+01  0.19968021073E+01  0.49201905085E+01  0.70102086875E+01  0.51100000000E-03 0. -1.
        -11    1    3    3    0    0  0.13503693232E+02  0.54060736899E+01  0.15435961908E+02  0.21209532855E+02  0.51100000000E-03 0.  1.
         12    1    3    3    0    0 -0.53182768720E+00 -0.38447631683E+01  0.19178716018E+02  0.19567529037E+02  0.00000000000E+00 0. -1.
</event>
<event>
 7    1  0.4519225E-009  0.4778727E+02  0.7816164E-02  0.1312668E+00
        -11   -1    0    0    0    0  0.00000000000E+00  0.00000000000E+00  0.45593999997E+02  0.45594000000E+02  0.51100000000E-03 0.  1.
         11   -1    0    0    0    0 -0.00000000000E+00 -0.00000000000E+00 -0.45593999997E+02  0.45594000000E+02  0.51100000000E-03 0. -1.
    9900012    2    1    2    0    0 -0.28196201909E+01  0.20803492195E+02 -0.37985362639E+02  0.47787270509E+02  0.19999997559E+02 0.  0.
        -12    1    1    2    0    0  0.28196201909E+01 -0.20803492195E+02  0.37985362639E+02  0.43400729491E+02  0.00000000000E+00 0.  1.
         11    1    3    3    0    0 -0.16129662504E+00  0.34557998694E+01 -0.86884347922E+01  0.93518697991E+01  0.51100000000E-03 0. -1.
        -11    1    3    3    0    0  0.62846737150E+01  0.48360890782E+01 -0.16949767975E+02  0.18713084084E+02  0.51100000000E-03 0.  1.
         12    1    3    3    0    0 -0.89429972809E+01  0.12511603247E+02 -0.12347159872E+02  0.19722316626E+02  0.00000000000E+00 0. -1.
</event>
<event>
 7    1  0.4519225E-009  0.4778727E+02  0.7816164E-02  0.1312668E+00
        -11   -1    0    0    0    0  0.00000000000E+00  0.00000000000E+00  0.45593999997E+02  0.45594000000E+02  0.51100000000E-03 0.  1.
         11   -1    0    0    0    0 -0.00000000000E+00 -0.00000000000E+00 -0.45593999997E+02  0.45594000000E+02  0.51100000000E-03 0. -1.
    9900012    2    1    2    0    0  0.81854005427E+01  0.31929054827E+02 -0.28233985196E+02  0.47787271386E+02  0.20000001557E+02 0.  0.
        -12    1    1    2    0    0 -0.81854005427E+01 -0.31929054827E+02  0.28233985196E+02  0.43400728614E+02  0.00000000000E+00 0.  1.
         11    1    3    3    0    0  0.45220278627E+01 -0.11417792636E+01 -0.43842760046E+01  0.64011149203E+01  0.51100000000E-03 0. -1.
        -11    1    3    3    0    0  0.23539258123E+01  0.62368507902E+01 -0.26920881754E+01  0.71893402698E+01  0.51100000000E-03 0.  1.
         12    1    3    3    0    0  0.13094468677E+01  0.26833983300E+02 -0.21157621016E+02  0.34196816196E+02  0.00000000000E+00 0. -1.
</event>
<event>
 7    1  0.4519225E-009  0.4778727E+02  0.7816164E-02  0.1312668E+00
        -11   -1    0    0    0    0  0.00000000000E+00  0.00000000000E+00  0.45593999997E+02  0.45594000000E+02  0.51100000000E-03 0. -1.
         11   -1    0    0    0    0 -0.00000000000E+00 -0.00000000000E+00 -0.45593999997E+02  0.45594000000E+02  0.51100000000E-03 0.  1.
    9900012    2    1    2    0    0 -0.29941658941E+02 -0.30729995628E+02  0.65412427645E+01  0.47787269265E+02  0.19999991887E+02 0.  0.
        -12    1    1    2    0    0  0.29941658941E+02  0.30729995628E+02 -0.65412427645E+01  0.43400730735E+02  0.00000000000E+00 0.  1.
         11    1    3    3    0    0 -0.18565562405E+02 -0.16471093338E+02  0.12137149807E+01  0.24848543770E+02  0.51100000000E-03 0. -1.
        -11    1    3    3    0    0 -0.12360140424E+02 -0.72372417913E+01  0.44509756261E+00  0.14329998331E+02  0.51100000000E-03 0.  1.
         12    1    3    3    0    0  0.98404388855E+00 -0.70216604982E+01  0.48824302212E+01  0.86087271644E+01  0.00000000000E+00 0. -1.
</event>
<event>
 7    1  0.4519225E-009  0.4778727E+02  0.7816164E-02  0.1312668E+00
        -11   -1    0    0    0    0  0.00000000000E+00  0.00000000000E+00  0.45593999997E+02  0.45594000000E+02  0.51100000000E-03 0.  1.
         11   -1    0    0    0    0 -0.00000000000E+00 -0.00000000000E+00 -0.45593999997E+02  0.45594000000E+02  0.51100000000E-03 0. -1.
    9900012    2    1    2    0    0  0.20216755090E+02 -0.30458402620E+02 -0.23392132325E+02  0.47787270384E+02  0.19999996987E+02 0.  0.
        -12    1    1    2    0    0 -0.20216755090E+02  0.30458402620E+02  0.23392132325E+02  0.43400729616E+02  0.00000000000E+00 0.  1.
         11    1    3    3    0    0  0.11712149941E+02 -0.10682557894E+02 -0.69428950508E+01  0.17305932259E+02  0.51100000000E-03 0. -1.
        -11    1    3    3    0    0  0.46050732012E+01 -0.12426583255E+02 -0.14529900878E+01  0.13331835996E+02  0.51100000000E-03 0.  1.
         12    1    3    3    0    0  0.38995319478E+01 -0.73492614712E+01 -0.14996247186E+02  0.17149502129E+02  0.00000000000E+00 0. -1.
</event>
<event>
 7    1  0.4519225E-009  0.4778727E+02  0.7816164E-02  0.1312668E+00
        -11   -1    0    0    0    0  0.00000000000E+00  0.00000000000E+00  0.45593999997E+02  0.45594000000E+02  0.51100000000E-03 0. -1.
         11   -1    0    0    0    0 -0.00000000000E+00 -0.00000000000E+00 -0.45593999997E+02  0.45594000000E+02  0.51100000000E-03 0.  1.
    9900012    2    1    2    0    0 -0.14409199229E+02 -0.33423004373E+02  0.23641090082E+02  0.47787269776E+02  0.19999994215E+02 0.  0.
        -12    1    1    2    0    0  0.14409199229E+02  0.33423004373E+02 -0.23641090082E+02  0.43400730224E+02  0.00000000000E+00 0.  1.
         11    1    3    3    0    0 -0.13873271406E+01 -0.14341372098E+02  0.11468189940E+02  0.18415184252E+02  0.51100000000E-03 0. -1.
        -11    1    3    3    0    0 -0.98223247355E+01 -0.20711016999E+02  0.11745528176E+02  0.25756197715E+02  0.51100000000E-03 0.  1.
         12    1    3    3    0    0 -0.31995473534E+01  0.16293847249E+01  0.42737196595E+00  0.36158878088E+01  0.00000000000E+00 0. -1.
</event>
<event>
 7    1  0.4519225E-009  0.4778727E+02  0.7816164E-02  0.1312668E+00
        -11   -1    0    0    0    0  0.00000000000E+00  0.00000000000E+00  0.45593999997E+02  0.45594000000E+02  0.51100000000E-03 0.  1.
         11   -1    0    0    0    0 -0.00000000000E+00 -0.00000000000E+00 -0.45593999997E+02  0.45594000000E+02  0.51100000000E-03 0. -1.
    9900012    2    1    2    0    0 -0.38176732527E+01 -0.15552855598E+02 -0.40338041674E+02  0.47787267836E+02  0.19999985370E+02 0.  0.
        -12    1    1    2    0    0  0.38176732527E+01  0.15552855598E+02  0.40338041674E+02  0.43400732164E+02  0.00000000000E+00 0.  1.
         11    1    3    3    0    0 -0.33239012980E+01  0.15387355067E+01 -0.66370715917E+01  0.75806824478E+01  0.51100000000E-03 0.  1.
        -11    1    3    3    0    0 -0.67310027416E+01 -0.53961873313E+01 -0.14571517627E+02  0.16933823013E+02  0.51100000000E-03 0. -1.
         12    1    3    3    0    0  0.62372307870E+01 -0.11695403773E+02 -0.19129452455E+02  0.23272762375E+02  0.00000000000E+00 0. -1.
</event>
<event>
 7    1  0.4519225E-009  0.4778728E+02  0.7816164E-02  0.1312668E+00
        -11   -1    0    0    0    0  0.00000000000E+00  0.00000000000E+00  0.45593999997E+02  0.45594000000E+02  0.51100000000E-03 0. -1.
         11   -1    0    0    0    0 -0.00000000000E+00 -0.00000000000E+00 -0.45593999997E+02  0.45594000000E+02  0.51100000000E-03 0.  1.
    9900012    2    1    2    0    0  0.36038879378E+02  0.22698897068E+02  0.83415898610E+01  0.47787275624E+02  0.20000020881E+02 0.  0.
        -12    1    1    2    0    0 -0.36038879378E+02 -0.22698897068E+02 -0.83415898610E+01  0.43400724376E+02  0.00000000000E+00 0.  1.
         11    1    3    3    0    0  0.24702439967E+02  0.13306806690E+02  0.35732552380E+00  0.28060814785E+02  0.51100000000E-03 0. -1.
        -11    1    3    3    0    0  0.65542734402E+00  0.12071406324E+01 -0.23755072787E+01  0.27440496719E+01  0.51100000000E-03 0.  1.
         12    1    3    3    0    0  0.10681012068E+02  0.81849497452E+01  0.10359771616E+02  0.16982411167E+02  0.00000000000E+00 0. -1.
</event>
<event>
 7    1  0.4519225E-009  0.4778727E+02  0.7816164E-02  0.1312668E+00
        -11   -1    0    0    0    0  0.00000000000E+00  0.00000000000E+00  0.45593999997E+02  0.45594000000E+02  0.51100000000E-03 0.  1.
         11   -1    0    0    0    0 -0.00000000000E+00 -0.00000000000E+00 -0.45593999997E+02  0.45594000000E+02  0.51100000000E-03 0. -1.
    9900012    2    1    2    0    0 -0.31543721021E+02  0.28669832600E+02 -0.81644073820E+01  0.47787272068E+02  0.20000004666E+02 0.  0.
        -12    1    1    2    0    0  0.31543721021E+02 -0.28669832600E+02  0.81644073820E+01  0.43400727932E+02  0.00000000000E+00 0.  1.
         11    1    3    3    0    0 -0.32228349037E+01  0.50323103338E+01  0.32737517233E+01  0.68138287857E+01  0.51100000000E-03 0. -1.
        -11    1    3    3    0    0 -0.10371808120E+00  0.58914534907E+01 -0.60358240048E+00  0.59231996124E+01  0.51100000000E-03 0.  1.
         12    1    3    3    0    0 -0.28217168036E+02  0.17746068776E+02 -0.10834576705E+02  0.35050243670E+02  0.00000000000E+00 0. -1.
</event>
<event>
 7    1  0.4519225E-009  0.4778727E+02  0.7816164E-02  0.1312668E+00
        -11   -1    0    0    0    0  0.00000000000E+00  0.00000000000E+00  0.45593999997E+02  0.45594000000E+02  0.51100000000E-03 0.  1.
         11   -1    0    0    0    0 -0.00000000000E+00 -0.00000000000E+00 -0.45593999997E+02  0.45594000000E+02  0.51100000000E-03 0. -1.
    9900012    2    1    2    0    0 -0.36078157925E+02  0.23186244701E+02  0.66624488729E+01  0.47787266739E+02  0.19999980369E+02 0.  0.
        -12    1    1    2    0    0  0.36078157925E+02 -0.23186244701E+02 -0.66624488729E+01  0.43400733261E+02  0.00000000000E+00 0.  1.
         11    1    3    3    0    0 -0.20589076999E+01  0.39381788496E+00  0.85619560960E+00  0.22643464015E+01  0.51100000000E-03 0. -1.
        -11    1    3    3    0    0 -0.35926626695E+01 -0.29539133315E+01  0.30664199928E+01  0.55709748573E+01  0.51100000000E-03 0.  1.
        -12    1    3    3    0    0 -0.30426587556E+02  0.25746340148E+02  0.27398332705E+01  0.39951945480E+02  0.00000000000E+00 0.  1.
</event>
<event>
 7    1  0.4519225E-009  0.4778727E+02  0.7816164E-02  0.1312668E+00
        -11   -1    0    0    0    0  0.00000000000E+00  0.00000000000E+00  0.45593999997E+02  0.45594000000E+02  0.51100000000E-03 0. -1.
         11   -1    0    0    0    0 -0.00000000000E+00 -0.00000000000E+00 -0.45593999997E+02  0.45594000000E+02  0.51100000000E-03 0.  1.
    9900012    2    1    2    0    0 -0.45354294608E+01  0.40185731321E+02  0.15753114262E+02  0.47787265777E+02  0.19999975982E+02 0.  0.
        -12    1    1    2    0    0  0.45354294608E+01 -0.40185731321E+02 -0.15753114262E+02  0.43400734223E+02  0.00000000000E+00 0.  1.
         11    1    3    3    0    0 -0.34471731990E+01  0.24465890409E+01  0.50926861016E+01  0.66184781475E+01  0.51100000000E-03 0. -1.
        -11    1    3    3    0    0  0.28582559711E+01  0.23963625647E+01 -0.78169262768E+00  0.38109348411E+01  0.51100000000E-03 0.  1.
         12    1    3    3    0    0 -0.39465122328E+01  0.35342779715E+02  0.11442120788E+02  0.37357852788E+02  0.00000000000E+00 0. -1.
</event>
<event>
 7    1  0.4519225E-009  0.4778727E+02  0.7816164E-02  0.1312668E+00
        -11   -1    0    0    0    0  0.00000000000E+00  0.00000000000E+00  0.45593999997E+02  0.45594000000E+02  0.51100000000E-03 0.  1.
         11   -1    0    0    0    0 -0.00000000000E+00 -0.00000000000E+00 -0.45593999997E+02  0.45594000000E+02  0.51100000000E-03 0. -1.
    9900012    2    1    2    0    0  0.26218182379E+02  0.20725233699E+02 -0.27689259687E+02  0.47787268426E+02  0.19999988062E+02 0.  0.
        -12    1    1    2    0    0 -0.26218182379E+02 -0.20725233699E+02  0.27689259687E+02  0.43400731574E+02  0.00000000000E+00 0.  1.
         11    1    3    3    0    0  0.13889948076E+01  0.70369794699E+01 -0.28620590638E+01  0.77226788734E+01  0.51100000000E-03 0. -1.
        -11    1    3    3    0    0  0.95716576890E+01  0.56054298662E+01 -0.17289130972E+01  0.11226157653E+02  0.51100000000E-03 0.  1.
        -12    1    3    3    0    0  0.15257529883E+02  0.80828243629E+01 -0.23098287526E+02  0.28838431899E+02  0.00000000000E+00 0.  1.
</event>
<event>
 7    1  0.4519225E-009  0.4778727E+02  0.7816164E-02  0.1312668E+00
        -11   -1    0    0    0    0  0.00000000000E+00  0.00000000000E+00  0.45593999997E+02  0.45594000000E+02  0.51100000000E-03 0.  1.
         11   -1    0    0    0    0 -0.00000000000E+00 -0.00000000000E+00 -0.45593999997E+02  0.45594000000E+02  0.51100000000E-03 0. -1.
    9900012    2    1    2    0    0  0.42246514540E+02 -0.64994536395E+01  0.75241471202E+01  0.47787266386E+02  0.19999978758E+02 0.  0.
        -12    1    1    2    0    0 -0.42246514540E+02  0.64994536395E+01 -0.75241471202E+01  0.43400733614E+02  0.00000000000E+00 0.  1.
         11    1    3    3    0    0  0.14869140216E+02  0.23816931271E+01  0.57308469629E+01  0.16112305858E+02  0.51100000000E-03 0. -1.
        -11    1    3    3    0    0  0.17100277855E+02  0.10796524391E+01  0.26462401670E+01  0.17337466348E+02  0.51100000000E-03 0.  1.
        -12    1    3    3    0    0  0.10277096470E+02 -0.99607992058E+01 -0.85294000981E+00  0.14337494179E+02  0.00000000000E+00 0.  1.
</event>
<event>
 7    1  0.4519225E-009  0.4778727E+02  0.7816164E-02  0.1312668E+00
        -11   -1    0    0    0    0  0.00000000000E+00  0.00000000000E+00  0.45593999997E+02  0.45594000000E+02  0.51100000000E-03 0.  1.
         11   -1    0    0    0    0 -0.00000000000E+00 -0.00000000000E+00 -0.45593999997E+02  0.45594000000E+02  0.51100000000E-03 0. -1.
    9900012    2    1    2    0    0  0.79504125430E+01  0.83952216741E+01 -0.41832214100E+02  0.47787274856E+02  0.20000017376E+02 0.  0.
        -12    1    1    2    0    0 -0.79504125430E+01 -0.83952216741E+01  0.41832214100E+02  0.43400725144E+02  0.00000000000E+00 0.  1.
         11    1    3    3    0    0  0.98881506498E+00  0.12789596822E+00 -0.21942314151E+02  0.21964955342E+02  0.51100000000E-03 0. -1.
        -11    1    3    3    0    0  0.15148927480E+01 -0.31757318536E+01 -0.25526489124E+01  0.43469747613E+01  0.51100000000E-03 0.  1.
        -12    1    3    3    0    0  0.54467047300E+01  0.11443057559E+02 -0.17337251036E+02  0.21475344752E+02  0.00000000000E+00 0.  1.
</event>
<event>
 7    1  0.4519225E-009  0.4778727E+02  0.7816164E-02  0.1312668E+00
        -11   -1    0    0    0    0  0.00000000000E+00  0.00000000000E+00  0.45593999997E+02  0.45594000000E+02  0.51100000000E-03 0.  1.
         11   -1    0    0    0    0 -0.00000000000E+00 -0.00000000000E+00 -0.45593999997E+02  0.45594000000E+02  0.51100000000E-03 0. -1.
    9900012    2    1    2    0    0 -0.27277725406E+02 -0.85385286367E+01 -0.32659495585E+02  0.47787269286E+02  0.19999991984E+02 0.  0.
        -12    1    1    2    0    0  0.27277725406E+02  0.85385286367E+01  0.32659495585E+02  0.43400730714E+02  0.00000000000E+00 0.  1.
         11    1    3    3    0    0  0.15768426912E+00 -0.75694664627E+00  0.41780902452E+00  0.87886130653E+00  0.51100000000E-03 0.  1.
        -11    1    3    3    0    0 -0.28096134655E+02 -0.28084407090E+01 -0.28448775877E+02  0.40082576900E+02  0.51100000000E-03 0. -1.
         12    1    3    3    0    0  0.66072497974E+00 -0.49731412814E+01 -0.46285287322E+01  0.68258310797E+01  0.00000000000E+00 0. -1.
</event>
<event>
 7    1  0.4928800E-009  0.4778727E+02  0.7816164E-02  0.1312668E+00
        -11   -1    0    0    0    0  0.00000000000E+00  0.00000000000E+00  0.45593999997E+02  0.45594000000E+02  0.51100000000E-03 0.  1.
         11   -1    0    0    0    0 -0.00000000000E+00 -0.00000000000E+00 -0.45593999997E+02  0.45594000000E+02  0.51100000000E-03 0. -1.
    9900012    2    1    2    0    0 -0.29709844733E+02  0.29916239810E+02 -0.10294048444E+02  0.47787266000E+02  0.19999977000E+02 0.  0.
        -12    1    1    2    0    0  0.29709844733E+02 -0.29916239810E+02  0.10294048444E+02  0.43400734000E+02  0.00000000000E+00 0.  1.
         11    1    3    3    0    0 -0.18507425214E+02  0.14240808803E+02  0.55736857732E+00  0.23358854497E+02  0.51100000000E-03 0. -1.
        -11    1    3    3    0    0 -0.49708257956E+00 -0.12576212494E+01  0.45250469159E+00  0.14259954611E+01  0.51100000000E-03 0.  1.
         12    1    3    3    0    0 -0.10705336939E+02  0.16933052256E+02 -0.11303921713E+02  0.23002416042E+02  0.00000000000E+00 0. -1.
</event>
<event>
 7    1  0.4519225E-009  0.4778727E+02  0.7816164E-02  0.1312668E+00
        -11   -1    0    0    0    0  0.00000000000E+00  0.00000000000E+00  0.45593999997E+02  0.45594000000E+02  0.51100000000E-03 0.  1.
         11   -1    0    0    0    0 -0.00000000000E+00 -0.00000000000E+00 -0.45593999997E+02  0.45594000000E+02  0.51100000000E-03 0. -1.
    9900012    2    1    2    0    0  0.22105892418E+02 -0.21170094462E+02 -0.30769790393E+02  0.47787269823E+02  0.19999994429E+02 0.  0.
        -12    1    1    2    0    0 -0.22105892418E+02  0.21170094462E+02  0.30769790393E+02  0.43400730177E+02  0.00000000000E+00 0.  1.
         11    1    3    3    0    0  0.70478487789E+00 -0.60629767864E+01 -0.15551862793E+01  0.62988105116E+01  0.51100000000E-03 0.  1.
        -11    1    3    3    0    0  0.19924354766E+01 -0.66361984806E+01 -0.24276948999E+01  0.73418411990E+01  0.51100000000E-03 0. -1.
         12    1    3    3    0    0  0.19408672064E+02 -0.84709191946E+01 -0.26786909214E+02  0.34146618112E+02  0.00000000000E+00 0. -1.
</event>
<event>
 7    1  0.4519225E-009  0.4778724E+02  0.7816164E-02  0.1312668E+00
        -11   -1    0    0    0    0  0.00000000000E+00  0.00000000000E+00  0.45593999997E+02  0.45594000000E+02  0.51100000000E-03 0.  1.
         11   -1    0    0    0    0 -0.00000000000E+00 -0.00000000000E+00 -0.45593999997E+02  0.45594000000E+02  0.51100000000E-03 0. -1.
    9900012    2    1    2    0    0 -0.15461948469E+02  0.28258977271E+02 -0.29085816564E+02  0.47787235352E+02  0.19999837263E+02 0.  0.
        -12    1    1    2    0    0  0.15461948469E+02 -0.28258977271E+02  0.29085816564E+02  0.43400764648E+02  0.00000000000E+00 0.  1.
         11    1    3    3    0    0 -0.45866250672E+01 -0.72029781151E-01 -0.48875529011E+01  0.67030210666E+01  0.51100000000E-03 0. -1.
        -11    1    3    3    0    0 -0.14275793209E+01 -0.72137792975E+00 -0.43955049723E+01  0.46774814867E+01  0.51100000000E-03 0.  1.
         12    1    3    3    0    0 -0.94477440805E+01  0.29052384981E+02 -0.19802758691E+02  0.36406732799E+02  0.00000000000E+00 0. -1.
</event>
<event>
 7    1  0.4519225E-009  0.4778727E+02  0.7816164E-02  0.1312668E+00
        -11   -1    0    0    0    0  0.00000000000E+00  0.00000000000E+00  0.45593999997E+02  0.45594000000E+02  0.51100000000E-03 0. -1.
         11   -1    0    0    0    0 -0.00000000000E+00 -0.00000000000E+00 -0.45593999997E+02  0.45594000000E+02  0.51100000000E-03 0.  1.
    9900012    2    1    2    0    0 -0.18907187429E+02  0.28024909381E+02  0.27216646839E+02  0.47787272501E+02  0.20000006640E+02 0.  0.
        -12    1    1    2    0    0  0.18907187429E+02 -0.28024909381E+02 -0.27216646839E+02  0.43400727499E+02  0.00000000000E+00 0.  1.
         11    1    3    3    0    0 -0.15880420044E+02  0.15528754260E+02  0.26110474314E+02  0.34279539361E+02  0.51100000000E-03 0. -1.
        -11    1    3    3    0    0 -0.27675792463E+01  0.36996552611E+01  0.88723679279E+00  0.47046926917E+01  0.51100000000E-03 0.  1.
         12    1    3    3    0    0 -0.25918813921E+00  0.87964998596E+01  0.21893573211E+00  0.88030404479E+01  0.00000000000E+00 0. -1.
</event>
<event>
 7    1  0.4519225E-009  0.4778728E+02  0.7816164E-02  0.1312668E+00
        -11   -1    0    0    0    0  0.00000000000E+00  0.00000000000E+00  0.45593999997E+02  0.45594000000E+02  0.51100000000E-03 0. -1.
         11   -1    0    0    0    0 -0.00000000000E+00 -0.00000000000E+00 -0.45593999997E+02  0.45594000000E+02  0.51100000000E-03 0.  1.
    9900012    2    1    2    0    0 -0.40153268193E+02  0.82401550574E+01 -0.14263150334E+02  0.47787279275E+02  0.20000037528E+02 0.  0.
        -12    1    1    2    0    0  0.40153268193E+02 -0.82401550574E+01  0.14263150334E+02  0.43400720725E+02  0.00000000000E+00 0.  1.
         11    1    3    3    0    0 -0.16537238235E+02  0.66744867730E+01 -0.85627734584E+01  0.19782570907E+02  0.51100000000E-03 0. -1.
        -11    1    3    3    0    0 -0.48346672035E+01 -0.17524526811E+01 -0.72288073307E+01  0.88713444896E+01  0.51100000000E-03 0.  1.
        -12    1    3    3    0    0 -0.18781362755E+02  0.33181209655E+01  0.15284304552E+01  0.19133363879E+02  0.00000000000E+00 0.  1.
</event>
<event>
 7    1  0.4519225E-009  0.4778727E+02  0.7816164E-02  0.1312668E+00
        -11   -1    0    0    0    0  0.00000000000E+00  0.00000000000E+00  0.45593999997E+02  0.45594000000E+02  0.51100000000E-03 0. -1.
         11   -1    0    0    0    0 -0.00000000000E+00 -0.00000000000E+00 -0.45593999997E+02  0.45594000000E+02  0.51100000000E-03 0.  1.
    9900012    2    1    2    0    0 -0.38138714018E+02  0.10495595831E+02  0.17857894237E+02  0.47787269299E+02  0.19999992040E+02 0.  0.
        -12    1    1    2    0    0  0.38138714018E+02 -0.10495595831E+02 -0.17857894237E+02  0.43400730701E+02  0.00000000000E+00 0.  1.
         11    1    3    3    0    0 -0.21548550338E+02  0.10140830927E+02  0.85184269398E+01  0.25293083468E+02  0.51100000000E-03 0. -1.
        -11    1    3    3    0    0 -0.85100917765E+01  0.27787078602E+01 -0.11583892534E+01  0.90268901256E+01  0.51100000000E-03 0.  1.
         12    1    3    3    0    0 -0.80800719044E+01 -0.24239429567E+01  0.10497856551E+02  0.13467295705E+02  0.00000000000E+00 0. -1.
</event>
<event>
 7    1  0.4519225E-009  0.4778727E+02  0.7816164E-02  0.1312668E+00
        -11   -1    0    0    0    0  0.00000000000E+00  0.00000000000E+00  0.45593999997E+02  0.45594000000E+02  0.51100000000E-03 0.  1.
         11   -1    0    0    0    0 -0.00000000000E+00 -0.00000000000E+00 -0.45593999997E+02  0.45594000000E+02  0.51100000000E-03 0. -1.
    9900012    2    1    2    0    0 -0.19770965232E+01 -0.36890946195E+02 -0.22776576285E+02  0.47787271330E+02  0.20000001303E+02 0.  0.
        -12    1    1    2    0    0  0.19770965232E+01  0.36890946195E+02  0.22776576285E+02  0.43400728670E+02  0.00000000000E+00 0.  1.
         11    1    3    3    0    0 -0.84410023859E+01 -0.12497888683E+02 -0.14588268219E+02  0.20982500154E+02  0.51100000000E-03 0. -1.
        -11    1    3    3    0    0  0.54206087267E+00 -0.83617845614E+01 -0.35194685274E+01  0.90884503640E+01  0.51100000000E-03 0.  1.
        -12    1    3    3    0    0  0.59218449901E+01 -0.16031272950E+02 -0.46688395383E+01  0.17716320813E+02  0.00000000000E+00 0.  1.
</event>
<event>
 7    1  0.4519225E-009  0.4778727E+02  0.7816164E-02  0.1312668E+00
        -11   -1    0    0    0    0  0.00000000000E+00  0.00000000000E+00  0.45593999997E+02  0.45594000000E+02  0.51100000000E-03 0. -1.
         11   -1    0    0    0    0 -0.00000000000E+00 -0.00000000000E+00 -0.45593999997E+02  0.45594000000E+02  0.51100000000E-03 0.  1.
    9900012    2    1    2    0    0  0.17379756796E+02 -0.37211630839E+02  0.14030748897E+02  0.47787270391E+02  0.19999997022E+02 0.  0.
        -12    1    1    2    0    0 -0.17379756796E+02  0.37211630839E+02 -0.14030748897E+02  0.43400729609E+02  0.00000000000E+00 0.  1.
         11    1    3    3    0    0  0.10023281804E+02 -0.24832888730E+02  0.63802321355E+01  0.27529001129E+02  0.51100000000E-03 0. -1.
        -11    1    3    3    0    0 -0.26848844164E+00 -0.10327160966E+02  0.66811469410E+01  0.12302847816E+02  0.51100000000E-03 0.  1.
         12    1    3    3    0    0  0.76249634334E+01 -0.20515811428E+01  0.96936982029E+00  0.79554214467E+01  0.00000000000E+00 0. -1.
</event>
<event>
 7    1  0.4519225E-009  0.4778726E+02  0.7816164E-02  0.1312668E+00
        -11   -1    0    0    0    0  0.00000000000E+00  0.00000000000E+00  0.45593999997E+02  0.45594000000E+02  0.51100000000E-03 0.  1.
         11   -1    0    0    0    0 -0.00000000000E+00 -0.00000000000E+00 -0.45593999997E+02  0.45594000000E+02  0.51100000000E-03 0. -1.
    9900012    2    1    2    0    0  0.22155030212E+02  0.33472769851E+02 -0.16503110064E+02  0.47787258912E+02  0.19999944682E+02 0.  0.
        -12    1    1    2    0    0 -0.22155030212E+02 -0.33472769851E+02  0.16503110064E+02  0.43400741088E+02  0.00000000000E+00 0.  1.
         11    1    3    3    0    0  0.49814132584E+01  0.37287596309E+01  0.17879630329E+01  0.64741747354E+01  0.51100000000E-03 0. -1.
        -11    1    3    3    0    0  0.10173495134E+02  0.10096916037E+02 -0.12649835665E+01  0.14389159127E+02  0.51100000000E-03 0.  1.
         12    1    3    3    0    0  0.70001218196E+01  0.19647094183E+02 -0.17026089531E+02  0.26923925049E+02  0.00000000000E+00 0. -1.
</event>
<event>
 7    1  0.4519225E-009  0.4778727E+02  0.7816164E-02  0.1312668E+00
        -11   -1    0    0    0    0  0.00000000000E+00  0.00000000000E+00  0.45593999997E+02  0.45594000000E+02  0.51100000000E-03 0. -1.
         11   -1    0    0    0    0 -0.00000000000E+00 -0.00000000000E+00 -0.45593999997E+02  0.45594000000E+02  0.51100000000E-03 0.  1.
    9900012    2    1    2    0    0  0.33031703542E+02  0.59795428782E+01 -0.27509537152E+02  0.47787274128E+02  0.20000014061E+02 0.  0.
        -12    1    1    2    0    0 -0.33031703542E+02 -0.59795428782E+01  0.27509537152E+02  0.43400725872E+02  0.00000000000E+00 0.  1.
         11    1    3    3    0    0  0.13773727350E+02  0.58184520594E+01 -0.16973880231E+02  0.22620401407E+02  0.51100000000E-03 0. -1.
        -11    1    3    3    0    0  0.20739587034E+01  0.32822425075E+01 -0.59586001784E+01  0.71119151379E+01  0.51100000000E-03 0.  1.
        -12    1    3    3    0    0  0.17184017488E+02 -0.31211516887E+01 -0.45770567421E+01  0.18054957583E+02  0.00000000000E+00 0.  1.
</event>
<event>
 7    1  0.4519225E-009  0.4778727E+02  0.7816164E-02  0.1312668E+00
        -11   -1    0    0    0    0  0.00000000000E+00  0.00000000000E+00  0.45593999997E+02  0.45594000000E+02  0.51100000000E-03 0.  1.
         11   -1    0    0    0    0 -0.00000000000E+00 -0.00000000000E+00 -0.45593999997E+02  0.45594000000E+02  0.51100000000E-03 0. -1.
    9900012    2    1    2    0    0 -0.26646031076E+01 -0.20031905419E+01 -0.43272515628E+02  0.47787268545E+02  0.19999988604E+02 0.  0.
        -12    1    1    2    0    0  0.26646031076E+01  0.20031905419E+01  0.43272515628E+02  0.43400731455E+02  0.00000000000E+00 0.  1.
         11    1    3    3    0    0 -0.24198418824E-01  0.20145421286E+01 -0.14120825253E+02  0.14263823879E+02  0.51100000000E-03 0. -1.
        -11    1    3    3    0    0 -0.53881130103E+01  0.46285255817E+01 -0.16415077359E+02  0.17886021800E+02  0.51100000000E-03 0.  1.
         12    1    3    3    0    0  0.27477083216E+01 -0.86462582523E+01 -0.12736613016E+02  0.15637422866E+02  0.00000000000E+00 0. -1.
</event>
<event>
 7    1  0.4519225E-009  0.4778727E+02  0.7816164E-02  0.1312668E+00
        -11   -1    0    0    0    0  0.00000000000E+00  0.00000000000E+00  0.45593999997E+02  0.45594000000E+02  0.51100000000E-03 0.  1.
         11   -1    0    0    0    0 -0.00000000000E+00 -0.00000000000E+00 -0.45593999997E+02  0.45594000000E+02  0.51100000000E-03 0. -1.
    9900012    2    1    2    0    0 -0.24409360984E+02  0.34613907054E+02 -0.94701507382E+01  0.47787271662E+02  0.20000002817E+02 0.  0.
        -12    1    1    2    0    0  0.24409360984E+02 -0.34613907054E+02  0.94701507382E+01  0.43400728338E+02  0.00000000000E+00 0.  1.
         11    1    3    3    0    0 -0.17230091193E+02  0.13712253977E+02  0.17334963306E+00  0.22021171676E+02  0.51100000000E-03 0. -1.
        -11    1    3    3    0    0 -0.88156569305E+01  0.12401456066E+02 -0.56174252864E+01  0.16219352231E+02  0.51100000000E-03 0.  1.
        -12    1    3    3    0    0  0.16363871393E+01  0.85001970116E+01 -0.40260750849E+01  0.95467477548E+01  0.00000000000E+00 0.  1.
</event>
<event>
 7    1  0.4519225E-009  0.4778727E+02  0.7816164E-02  0.1312668E+00
        -11   -1    0    0    0    0  0.00000000000E+00  0.00000000000E+00  0.45593999997E+02  0.45594000000E+02  0.51100000000E-03 0.  1.
         11   -1    0    0    0    0 -0.00000000000E+00 -0.00000000000E+00 -0.45593999997E+02  0.45594000000E+02  0.51100000000E-03 0. -1.
    9900012    2    1    2    0    0  0.49738205431E+01 -0.10645255989E+01 -0.43101633787E+02  0.47787274883E+02  0.20000017503E+02 0.  0.
        -12    1    1    2    0    0 -0.49738205431E+01  0.10645255989E+01  0.43101633787E+02  0.43400725117E+02  0.00000000000E+00 0.  1.
         11    1    3    3    0    0  0.80753835321E+01 -0.65541862210E+01 -0.14727880013E+02  0.18029964674E+02  0.51100000000E-03 0. -1.
        -11    1    3    3    0    0  0.26242930032E+00  0.24171320502E+01 -0.25068017766E+01  0.34921987191E+01  0.51100000000E-03 0.  1.
         12    1    3    3    0    0 -0.33639922893E+01  0.30725285719E+01 -0.25866951998E+02  0.26265111490E+02  0.00000000000E+00 0. -1.
</event>
<event>
 7    1  0.4519225E-009  0.4778727E+02  0.7816164E-02  0.1312668E+00
        -11   -1    0    0    0    0  0.00000000000E+00  0.00000000000E+00  0.45593999997E+02  0.45594000000E+02  0.51100000000E-03 0. -1.
         11   -1    0    0    0    0 -0.00000000000E+00 -0.00000000000E+00 -0.45593999997E+02  0.45594000000E+02  0.51100000000E-03 0.  1.
    9900012    2    1    2    0    0  0.98551981762E+01  0.24159081849E+02  0.34681939323E+02  0.47787273254E+02  0.20000010076E+02 0.  0.
        -12    1    1    2    0    0 -0.98551981762E+01 -0.24159081849E+02 -0.34681939323E+02  0.43400726746E+02  0.00000000000E+00 0.  1.
         11    1    3    3    0    0  0.39104521058E+01  0.10983060597E+02  0.12881431868E+02  0.17373846522E+02  0.51100000000E-03 0. -1.
        -11    1    3    3    0    0  0.81985521542E+01  0.93216602441E+01  0.22686976028E+02  0.25861331921E+02  0.51100000000E-03 0.  1.
         12    1    3    3    0    0 -0.22538060838E+01  0.38543610076E+01 -0.88646857374E+00  0.45520948114E+01  0.00000000000E+00 0. -1.
</event>
<event>
 7    1  0.4667559E-009  0.4778727E+02  0.7816164E-02  0.1312668E+00
        -11   -1    0    0    0    0  0.00000000000E+00  0.00000000000E+00  0.45593999997E+02  0.45594000000E+02  0.51100000000E-03 0.  1.
         11   -1    0    0    0    0 -0.00000000000E+00 -0.00000000000E+00 -0.45593999997E+02  0.45594000000E+02  0.51100000000E-03 0. -1.
    9900012    2    1    2    0    0  0.29065710800E+02 -0.98003361052E+01 -0.30704420356E+02  0.47787267731E+02  0.19999984891E+02 0.  0.
        -12    1    1    2    0    0 -0.29065710800E+02  0.98003361052E+01  0.30704420356E+02  0.43400732269E+02  0.00000000000E+00 0.  1.
         11    1    3    3    0    0  0.15345003179E+02 -0.11052472399E+02 -0.13647349451E+02  0.23321158119E+02  0.51100000000E-03 0. -1.
        -11    1    3    3    0    0  0.20516519427E+01 -0.63290361772E+00  0.13893867995E+01  0.25573890246E+01  0.51100000000E-03 0.  1.
         12    1    3    3    0    0  0.11669055678E+02  0.18850399120E+01 -0.18446457705E+02  0.21908720587E+02  0.00000000000E+00 0. -1.
</event>
<event>
 7    1  0.4519225E-009  0.4778728E+02  0.7816164E-02  0.1312668E+00
        -11   -1    0    0    0    0  0.00000000000E+00  0.00000000000E+00  0.45593999997E+02  0.45594000000E+02  0.51100000000E-03 0. -1.
         11   -1    0    0    0    0 -0.00000000000E+00 -0.00000000000E+00 -0.45593999997E+02  0.45594000000E+02  0.51100000000E-03 0.  1.
    9900012    2    1    2    0    0  0.37240211404E+02  0.88809695681E+01  0.20443035193E+02  0.47787278188E+02  0.20000032571E+02 0.  0.
        -12    1    1    2    0    0 -0.37240211404E+02 -0.88809695681E+01 -0.20443035193E+02  0.43400721812E+02  0.00000000000E+00 0.  1.
         11    1    3    3    0    0 -0.49563020151E+00 -0.16852018870E+01  0.45660778223E+00  0.18149505846E+01  0.51100000000E-03 0. -1.
        -11    1    3    3    0    0  0.24273340703E+02  0.21175963382E+01  0.67358674569E+01  0.25279461897E+02  0.51100000000E-03 0.  1.
         12    1    3    3    0    0  0.13462500902E+02  0.84485751170E+01  0.13250559954E+02  0.20692865706E+02  0.00000000000E+00 0. -1.
</event>
<event>
 7    1  0.4519225E-009  0.4778727E+02  0.7816164E-02  0.1312668E+00
        -11   -1    0    0    0    0  0.00000000000E+00  0.00000000000E+00  0.45593999997E+02  0.45594000000E+02  0.51100000000E-03 0.  1.
         11   -1    0    0    0    0 -0.00000000000E+00 -0.00000000000E+00 -0.45593999997E+02  0.45594000000E+02  0.51100000000E-03 0. -1.
    9900012    2    1    2    0    0 -0.11241028646E+02 -0.38286843350E+02 -0.17069862454E+02  0.47787270710E+02  0.19999998475E+02 0.  0.
        -12    1    1    2    0    0  0.11241028646E+02  0.38286843350E+02  0.17069862454E+02  0.43400729290E+02  0.00000000000E+00 0.  1.
         11    1    3    3    0    0 -0.74119407455E+01 -0.28429025391E+02 -0.77854189630E+01  0.30393405518E+02  0.51100000000E-03 0. -1.
        -11    1    3    3    0    0 -0.38193459010E+01 -0.11387729484E+02 -0.53051474341E+01  0.13130589304E+02  0.51100000000E-03 0.  1.
        -12    1    3    3    0    0 -0.97419999224E-02  0.15299115257E+01 -0.39792960572E+01  0.42632758876E+01  0.00000000000E+00 0.  1.
</event>
<event>
 7    1  0.4519225E-009  0.4778728E+02  0.7816164E-02  0.1312668E+00
        -11   -1    0    0    0    0  0.00000000000E+00  0.00000000000E+00  0.45593999997E+02  0.45594000000E+02  0.51100000000E-03 0. -1.
         11   -1    0    0    0    0 -0.00000000000E+00 -0.00000000000E+00 -0.45593999997E+02  0.45594000000E+02  0.51100000000E-03 0.  1.
    9900012    2    1    2    0    0  0.87539382551E+01  0.17838828683E+01  0.42471275463E+02  0.47787275207E+02  0.20000018981E+02 0.  0.
        -12    1    1    2    0    0 -0.87539382551E+01 -0.17838828683E+01 -0.42471275463E+02  0.43400724793E+02  0.00000000000E+00 0.  1.
         11    1    3    3    0    0  0.11210568158E+02  0.30433817304E+01  0.20224085076E+02  0.23322792033E+02  0.51100000000E-03 0. -1.
        -11    1    3    3    0    0 -0.30442359260E+01  0.29402281763E+01  0.43399241590E+01  0.60619515067E+01  0.51100000000E-03 0.  1.
        -12    1    3    3    0    0  0.58760602319E+00 -0.41997270384E+01  0.17907266228E+02  0.18402531668E+02  0.00000000000E+00 0.  1.
</event>
<event>
 7    1  0.4519225E-009  0.4778727E+02  0.7816164E-02  0.1312668E+00
        -11   -1    0    0    0    0  0.00000000000E+00  0.00000000000E+00  0.45593999997E+02  0.45594000000E+02  0.51100000000E-03 0.  1.
         11   -1    0    0    0    0 -0.00000000000E+00 -0.00000000000E+00 -0.45593999997E+02  0.45594000000E+02  0.51100000000E-03 0. -1.
    9900012    2    1    2    0    0  0.26642712750E+02  0.16528038169E+02 -0.30010217531E+02  0.47787270229E+02  0.19999996282E+02 0.  0.
        -12    1    1    2    0    0 -0.26642712750E+02 -0.16528038169E+02  0.30010217531E+02  0.43400729771E+02  0.00000000000E+00 0.  1.
         11    1    3    3    0    0  0.18110346594E+02  0.46140816314E+01 -0.14349043345E+02  0.23562034043E+02  0.51100000000E-03 0. -1.
        -11    1    3    3    0    0  0.21338273525E+01 -0.10968421662E+01  0.56507790431E+00  0.24648722496E+01  0.51100000000E-03 0.  1.
         12    1    3    3    0    0  0.63985388029E+01  0.13010798704E+02 -0.16226252091E+02  0.21760363936E+02  0.00000000000E+00 0. -1.
</event>
<event>
 7    1  0.4851890E-009  0.4778727E+02  0.7816164E-02  0.1312668E+00
        -11   -1    0    0    0    0  0.00000000000E+00  0.00000000000E+00  0.45593999997E+02  0.45594000000E+02  0.51100000000E-03 0. -1.
         11   -1    0    0    0    0 -0.00000000000E+00 -0.00000000000E+00 -0.45593999997E+02  0.45594000000E+02  0.51100000000E-03 0.  1.
    9900012    2    1    2    0    0 -0.96196671116E+01  0.19099293296E+02  0.37766418352E+02  0.47787270111E+02  0.19999995745E+02 0.  0.
        -12    1    1    2    0    0  0.96196671116E+01 -0.19099293296E+02 -0.37766418352E+02  0.43400729889E+02  0.00000000000E+00 0.  1.
         11    1    3    3    0    0 -0.25247701359E+01  0.90219988853E+01  0.69082225152E+01  0.11640209049E+02  0.51100000000E-03 0. -1.
        -11    1    3    3    0    0 -0.61297348239E+01  0.95270432942E+00  0.31462306445E+01  0.69555777675E+01  0.51100000000E-03 0.  1.
         12    1    3    3    0    0 -0.96516215185E+00  0.91245900815E+01  0.27711965192E+02  0.29191483295E+02  0.00000000000E+00 0. -1.
</event>
<event>
 7    1  0.4519225E-009  0.4778726E+02  0.7816164E-02  0.1312668E+00
        -11   -1    0    0    0    0  0.00000000000E+00  0.00000000000E+00  0.45593999997E+02  0.45594000000E+02  0.51100000000E-03 0.  1.
         11   -1    0    0    0    0 -0.00000000000E+00 -0.00000000000E+00 -0.45593999997E+02  0.45594000000E+02  0.51100000000E-03 0. -1.
    9900012    2    1    2    0    0 -0.17139085034E+02  0.39347332799E+02 -0.64547333165E+01  0.47787257882E+02  0.19999939987E+02 0.  0.
        -12    1    1    2    0    0  0.17139085034E+02 -0.39347332799E+02  0.64547333165E+01  0.43400742118E+02  0.00000000000E+00 0.  1.
         11    1    3    3    0    0 -0.14564775403E+02  0.27043266442E+02 -0.53250492033E+01  0.31174141395E+02  0.51100000000E-03 0. -1.
        -11    1    3    3    0    0 -0.33199871126E+01  0.78491697146E+01 -0.56481584116E+01  0.10224161254E+02  0.51100000000E-03 0.  1.
        -12    1    3    3    0    0  0.74567748112E+00  0.44548966419E+01  0.45184742984E+01  0.63889552339E+01  0.00000000000E+00 0.  1.
</event>
<event>
 7    1  0.4519225E-009  0.4778727E+02  0.7816164E-02  0.1312668E+00
        -11   -1    0    0    0    0  0.00000000000E+00  0.00000000000E+00  0.45593999997E+02  0.45594000000E+02  0.51100000000E-03 0.  1.
         11   -1    0    0    0    0 -0.00000000000E+00 -0.00000000000E+00 -0.45593999997E+02  0.45594000000E+02  0.51100000000E-03 0. -1.
    9900012    2    1    2    0    0 -0.40287104162E+01  0.12384393585E+02 -0.41400721402E+02  0.47787269077E+02  0.19999991028E+02 0.  0.
        -12    1    1    2    0    0  0.40287104162E+01 -0.12384393585E+02  0.41400721402E+02  0.43400730923E+02  0.00000000000E+00 0.  1.
         11    1    3    3    0    0 -0.37881995437E+01  0.10468164361E+01 -0.12648511099E+02  0.13245041099E+02  0.51100000000E-03 0. -1.
        -11    1    3    3    0    0 -0.56179060909E+01  0.12443176358E+02 -0.20671975028E+02  0.24773454715E+02  0.51100000000E-03 0.  1.
         12    1    3    3    0    0  0.53773952185E+01 -0.11055992092E+01 -0.80802352749E+01  0.97687732620E+01  0.00000000000E+00 0. -1.
</event>
<event>
 7    1  0.4519225E-009  0.4778727E+02  0.7816164E-02  0.1312668E+00
        -11   -1    0    0    0    0  0.00000000000E+00  0.00000000000E+00  0.45593999997E+02  0.45594000000E+02  0.51100000000E-03 0. -1.
         11   -1    0    0    0    0 -0.00000000000E+00 -0.00000000000E+00 -0.45593999997E+02  0.45594000000E+02  0.51100000000E-03 0.  1.
    9900012    2    1    2    0    0  0.14532226189E+02 -0.37645427157E+02  0.15976841937E+02  0.47787271180E+02  0.20000000618E+02 0.  0.
        -12    1    1    2    0    0 -0.14532226189E+02  0.37645427157E+02 -0.15976841937E+02  0.43400728820E+02  0.00000000000E+00 0.  1.
         11    1    3    3    0    0  0.11257683283E+02 -0.32763596707E+02  0.11363503433E+02  0.36459812295E+02  0.51100000000E-03 0. -1.
        -11    1    3    3    0    0  0.19907291130E+01 -0.62518923248E+01  0.60798528385E+01  0.89450416903E+01  0.51100000000E-03 0.  1.
        -12    1    3    3    0    0  0.12838137924E+01  0.13700618745E+01 -0.14665143348E+01  0.23824171943E+01  0.00000000000E+00 0.  1.
</event>
<event>
 7    1  0.4519225E-009  0.4778727E+02  0.7816164E-02  0.1312668E+00
        -11   -1    0    0    0    0  0.00000000000E+00  0.00000000000E+00  0.45593999997E+02  0.45594000000E+02  0.51100000000E-03 0. -1.
         11   -1    0    0    0    0 -0.00000000000E+00 -0.00000000000E+00 -0.45593999997E+02  0.45594000000E+02  0.51100000000E-03 0.  1.
    9900012    2    1    2    0    0  0.28122560369E+02  0.54090511769E+01  0.32611148264E+02  0.47787271580E+02  0.20000002441E+02 0.  0.
        -12    1    1    2    0    0 -0.28122560369E+02 -0.54090511769E+01 -0.32611148264E+02  0.43400728420E+02  0.00000000000E+00 0.  1.
         11    1    3    3    0    0  0.20573638721E+01 -0.70885592000E+00  0.76572578630E+01  0.79604535712E+01  0.51100000000E-03 0. -1.
        -11    1    3    3    0    0  0.24034404229E+01 -0.41762611965E+01  0.65532062633E+01  0.81340147552E+01  0.51100000000E-03 0.  1.
        -12    1    3    3    0    0  0.23661756074E+02  0.10294168293E+02  0.18400684138E+02  0.31692803254E+02  0.00000000000E+00 0.  1.
</event>
<event>
 7    1  0.4519225E-009  0.4778727E+02  0.7816164E-02  0.1312668E+00
        -11   -1    0    0    0    0  0.00000000000E+00  0.00000000000E+00  0.45593999997E+02  0.45594000000E+02  0.51100000000E-03 0. -1.
         11   -1    0    0    0    0 -0.00000000000E+00 -0.00000000000E+00 -0.45593999997E+02  0.45594000000E+02  0.51100000000E-03 0.  1.
    9900012    2    1    2    0    0  0.17723957485E+02  0.27303091141E+02  0.28705851346E+02  0.47787270094E+02  0.19999995668E+02 0.  0.
        -12    1    1    2    0    0 -0.17723957485E+02 -0.27303091141E+02 -0.28705851346E+02  0.43400729906E+02  0.00000000000E+00 0.  1.
         11    1    3    3    0    0  0.13684421028E+02  0.14881463662E+02  0.19311165307E+02  0.27957869113E+02  0.51100000000E-03 0. -1.
        -11    1    3    3    0    0  0.25246576842E+01  0.14266486297E+01  0.81625646883E+01  0.86623718049E+01  0.51100000000E-03 0.  1.
        -12    1    3    3    0    0  0.15148787735E+01  0.10994978850E+02  0.12321213517E+01  0.11167029176E+02  0.00000000000E+00 0.  1.
</event>
<event>
 7    1  0.4519225E-009  0.4778731E+02  0.7816164E-02  0.1312668E+00
        -11   -1    0    0    0    0  0.00000000000E+00  0.00000000000E+00  0.45593999997E+02  0.45594000000E+02  0.51100000000E-03 0.  1.
         11   -1    0    0    0    0 -0.00000000000E+00 -0.00000000000E+00 -0.45593999997E+02  0.45594000000E+02  0.51100000000E-03 0. -1.
    9900012    2    1    2    0    0 -0.71991344709E+01 -0.28911780577E+02 -0.31557904643E+02  0.47787309468E+02  0.20000175186E+02 0.  0.
        -12    1    1    2    0    0  0.71991344709E+01  0.28911780577E+02  0.31557904643E+02  0.43400690532E+02  0.00000000000E+00 0.  1.
         11    1    3    3    0    0 -0.38718591896E+01 -0.11252307583E+02 -0.15662111937E+02  0.19669963653E+02  0.51100000000E-03 0. -1.
        -11    1    3    3    0    0 -0.31403115481E+01 -0.11233393458E+02 -0.17916222179E+02  0.21378533687E+02  0.51100000000E-03 0.  1.
        -12    1    3    3    0    0 -0.18696373317E+00 -0.64260795353E+01  0.20204294727E+01  0.67388121272E+01  0.00000000000E+00 0.  1.
</event>
<event>
 7    1  0.4519225E-009  0.4778727E+02  0.7816164E-02  0.1312668E+00
        -11   -1    0    0    0    0  0.00000000000E+00  0.00000000000E+00  0.45593999997E+02  0.45594000000E+02  0.51100000000E-03 0.  1.
         11   -1    0    0    0    0 -0.00000000000E+00 -0.00000000000E+00 -0.45593999997E+02  0.45594000000E+02  0.51100000000E-03 0. -1.
    9900012    2    1    2    0    0  0.60126231054E+01 -0.14062399803E+02 -0.40616751628E+02  0.47787271462E+02  0.20000001905E+02 0.  0.
        -12    1    1    2    0    0 -0.60126231054E+01  0.14062399803E+02  0.40616751628E+02  0.43400728538E+02  0.00000000000E+00 0.  1.
         11    1    3    3    0    0  0.71743177565E+01 -0.68952245177E+01 -0.11038852923E+02  0.14861737131E+02  0.51100000000E-03 0. -1.
        -11    1    3    3    0    0  0.29336319918E+01 -0.17980251927E+01 -0.10326227786E+01  0.35924088465E+01  0.51100000000E-03 0.  1.
         12    1    3    3    0    0 -0.40953266429E+01 -0.53691500929E+01 -0.28545275926E+02  0.29333125485E+02  0.00000000000E+00 0. -1.
</event>
<event>
 7    1  0.4519225E-009  0.4778728E+02  0.7816164E-02  0.1312668E+00
        -11   -1    0    0    0    0  0.00000000000E+00  0.00000000000E+00  0.45593999997E+02  0.45594000000E+02  0.51100000000E-03 0.  1.
         11   -1    0    0    0    0 -0.00000000000E+00 -0.00000000000E+00 -0.45593999997E+02  0.45594000000E+02  0.51100000000E-03 0. -1.
    9900012    2    1    2    0    0 -0.40086338131E+02  0.95589799753E+01 -0.13613750055E+02  0.47787276579E+02  0.20000025234E+02 0.  0.
        -12    1    1    2    0    0  0.40086338131E+02 -0.95589799753E+01  0.13613750055E+02  0.43400723421E+02  0.00000000000E+00 0.  1.
         11    1    3    3    0    0 -0.14115768534E+01  0.24908370733E+01  0.19665514271E+01  0.34733475662E+01  0.51100000000E-03 0. -1.
        -11    1    3    3    0    0 -0.10957058569E+02 -0.39333721617E+01 -0.37325722927E+01  0.12225409818E+02  0.51100000000E-03 0.  1.
         12    1    3    3    0    0 -0.27717702709E+02  0.11001515064E+02 -0.11847729189E+02  0.32088519195E+02  0.00000000000E+00 0. -1.
</event>
<event>
 7    1  0.4519225E-009  0.4778727E+02  0.7816164E-02  0.1312668E+00
        -11   -1    0    0    0    0  0.00000000000E+00  0.00000000000E+00  0.45593999997E+02  0.45594000000E+02  0.51100000000E-03 0. -1.
         11   -1    0    0    0    0 -0.00000000000E+00 -0.00000000000E+00 -0.45593999997E+02  0.45594000000E+02  0.51100000000E-03 0.  1.
    9900012    2    1    2    0    0  0.37735584824E+02  0.21429600926E+02  0.64898847852E+00  0.47787270238E+02  0.19999996323E+02 0.  0.
        -12    1    1    2    0    0 -0.37735584824E+02 -0.21429600926E+02 -0.64898847852E+00  0.43400729762E+02  0.00000000000E+00 0.  1.
         11    1    3    3    0    0  0.18171349629E+02  0.47969460490E+01 -0.19848756377E+01  0.18898369514E+02  0.51100000000E-03 0. -1.
        -11    1    3    3    0    0  0.11453209575E+02  0.10780233217E+02 -0.47798755835E+01  0.16438876137E+02  0.51100000000E-03 0.  1.
        -12    1    3    3    0    0  0.81110256195E+01  0.58524216602E+01  0.74137396997E+01  0.12450024587E+02  0.00000000000E+00 0.  1.
</event>
<event>
 7    1  0.4519225E-009  0.4778727E+02  0.7816164E-02  0.1312668E+00
        -11   -1    0    0    0    0  0.00000000000E+00  0.00000000000E+00  0.45593999997E+02  0.45594000000E+02  0.51100000000E-03 0.  1.
         11   -1    0    0    0    0 -0.00000000000E+00 -0.00000000000E+00 -0.45593999997E+02  0.45594000000E+02  0.51100000000E-03 0. -1.
    9900012    2    1    2    0    0  0.33723528636E+02  0.12455812987E+02 -0.24314601808E+02  0.47787268187E+02  0.19999986971E+02 0.  0.
        -12    1    1    2    0    0 -0.33723528636E+02 -0.12455812987E+02  0.24314601808E+02  0.43400731813E+02  0.00000000000E+00 0.  1.
         11    1    3    3    0    0  0.21038392920E+02  0.26791775446E+01 -0.18170623438E+02  0.27927827079E+02  0.51100000000E-03 0. -1.
        -11    1    3    3    0    0  0.11616163249E+02  0.61087562532E+01 -0.82449330659E+01  0.15499389443E+02  0.51100000000E-03 0.  1.
        -12    1    3    3    0    0  0.10689724672E+01  0.36678791891E+01  0.21009546962E+01  0.43600516644E+01  0.00000000000E+00 0.  1.
</event>
<event>
 7    1  0.4519225E-009  0.4778727E+02  0.7816164E-02  0.1312668E+00
        -11   -1    0    0    0    0  0.00000000000E+00  0.00000000000E+00  0.45593999997E+02  0.45594000000E+02  0.51100000000E-03 0. -1.
         11   -1    0    0    0    0 -0.00000000000E+00 -0.00000000000E+00 -0.45593999997E+02  0.45594000000E+02  0.51100000000E-03 0.  1.
    9900012    2    1    2    0    0 -0.13547023493E+01 -0.30608112945E+02  0.30739745046E+02  0.47787265881E+02  0.19999976460E+02 0.  0.
        -12    1    1    2    0    0  0.13547023493E+01  0.30608112945E+02 -0.30739745046E+02  0.43400734119E+02  0.00000000000E+00 0.  1.
         11    1    3    3    0    0 -0.76604106501E+00 -0.13118981725E+02  0.14183491981E+02  0.19335613397E+02  0.51100000000E-03 0. -1.
        -11    1    3    3    0    0  0.42347411130E+01 -0.16814901385E+02  0.92003702090E+01  0.19629588715E+02  0.51100000000E-03 0.  1.
        -12    1    3    3    0    0 -0.48234023973E+01 -0.67422983564E+00  0.73558828559E+01  0.88220637692E+01  0.00000000000E+00 0.  1.
</event>
<event>
 7    1  0.4519225E-009  0.4778728E+02  0.7816164E-02  0.1312668E+00
        -11   -1    0    0    0    0  0.00000000000E+00  0.00000000000E+00  0.45593999997E+02  0.45594000000E+02  0.51100000000E-03 0.  1.
         11   -1    0    0    0    0 -0.00000000000E+00 -0.00000000000E+00 -0.45593999997E+02  0.45594000000E+02  0.51100000000E-03 0. -1.
    9900012    2    1    2    0    0 -0.41650619308E+02 -0.12161785366E+02 -0.96940799622E+00  0.47787275767E+02  0.20000021534E+02 0.  0.
        -12    1    1    2    0    0  0.41650619308E+02  0.12161785366E+02  0.96940799622E+00  0.43400724233E+02  0.00000000000E+00 0.  1.
         11    1    3    3    0    0 -0.13727626846E+02 -0.24972014881E+01 -0.21193537304E+01  0.14112952016E+02  0.51100000000E-03 0. -1.
        -11    1    3    3    0    0 -0.23601572995E+02 -0.34656432580E+01  0.61232788028E+01  0.24628022141E+02  0.51100000000E-03 0.  1.
         12    1    3    3    0    0 -0.43214194671E+01 -0.61989406201E+01 -0.49733330686E+01  0.90463016108E+01  0.00000000000E+00 0. -1.
</event>
<event>
 7    1  0.4519225E-009  0.4778727E+02  0.7816164E-02  0.1312668E+00
        -11   -1    0    0    0    0  0.00000000000E+00  0.00000000000E+00  0.45593999997E+02  0.45594000000E+02  0.51100000000E-03 0. -1.
         11   -1    0    0    0    0 -0.00000000000E+00 -0.00000000000E+00 -0.45593999997E+02  0.45594000000E+02  0.51100000000E-03 0.  1.
    9900012    2    1    2    0    0  0.47643412417E+01  0.19324732789E+02  0.38567848914E+02  0.47787271726E+02  0.20000003108E+02 0.  0.
        -12    1    1    2    0    0 -0.47643412417E+01 -0.19324732789E+02 -0.38567848914E+02  0.43400728274E+02  0.00000000000E+00 0.  1.
         11    1    3    3    0    0  0.33560370623E+01  0.28075765881E+01 -0.64454734190E+00  0.44227720491E+01  0.51100000000E-03 0. -1.
        -11    1    3    3    0    0 -0.99428547282E+00  0.79619059373E+01  0.99474100499E+01  0.12780121937E+02  0.51100000000E-03 0.  1.
         12    1    3    3    0    0  0.24025896523E+01  0.85552502636E+01  0.29264986206E+02  0.30584377740E+02  0.00000000000E+00 0. -1.
</event>
<event>
 7    1  0.4519225E-009  0.4778727E+02  0.7816164E-02  0.1312668E+00
        -11   -1    0    0    0    0  0.00000000000E+00  0.00000000000E+00  0.45593999997E+02  0.45594000000E+02  0.51100000000E-03 0.  1.
         11   -1    0    0    0    0 -0.00000000000E+00 -0.00000000000E+00 -0.45593999997E+02  0.45594000000E+02  0.51100000000E-03 0. -1.
    9900012    2    1    2    0    0 -0.26445732956E+01 -0.37468544496E+02 -0.21742537639E+02  0.47787268006E+02  0.19999986149E+02 0.  0.
        -12    1    1    2    0    0  0.26445732956E+01  0.37468544496E+02  0.21742537639E+02  0.43400731994E+02  0.00000000000E+00 0.  1.
         11    1    3    3    0    0  0.28394773324E+01 -0.33555405346E+01 -0.58710276627E+01  0.73342518281E+01  0.51100000000E-03 0. -1.
        -11    1    3    3    0    0 -0.31137378832E+01 -0.33152117372E+01  0.17710061649E+01  0.48808252954E+01  0.51100000000E-03 0.  1.
         12    1    3    3    0    0 -0.23703127448E+01 -0.30797792225E+02 -0.17642516141E+02  0.35572190883E+02  0.00000000000E+00 0. -1.
</event>
<event>
 7    1  0.4519225E-009  0.4778727E+02  0.7816164E-02  0.1312668E+00
        -11   -1    0    0    0    0  0.00000000000E+00  0.00000000000E+00  0.45593999997E+02  0.45594000000E+02  0.51100000000E-03 0.  1.
         11   -1    0    0    0    0 -0.00000000000E+00 -0.00000000000E+00 -0.45593999997E+02  0.45594000000E+02  0.51100000000E-03 0. -1.
    9900012    2    1    2    0    0  0.31526034296E+01  0.40532872994E+02  0.15191136901E+02  0.47787270261E+02  0.19999996428E+02 0.  0.
        -12    1    1    2    0    0 -0.31526034296E+01 -0.40532872994E+02 -0.15191136901E+02  0.43400729739E+02  0.00000000000E+00 0.  1.
         11    1    3    3    0    0 -0.11195421035E+01  0.12826097816E+02  0.26562729795E+01  0.13146023966E+02  0.51100000000E-03 0. -1.
        -11    1    3    3    0    0 -0.11847703727E+00 -0.30198465720E+00 -0.25202339968E+01  0.25410256200E+01  0.51100000000E-03 0.  1.
         12    1    3    3    0    0  0.43906225704E+01  0.28008759835E+02  0.15055097919E+02  0.32100220675E+02  0.00000000000E+00 0. -1.
</event>
<event>
 7    1  0.4519225E-009  0.4778726E+02  0.7816164E-02  0.1312668E+00
        -11   -1    0    0    0    0  0.00000000000E+00  0.00000000000E+00  0.45593999997E+02  0.45594000000E+02  0.51100000000E-03 0.  1.
         11   -1    0    0    0    0 -0.00000000000E+00 -0.00000000000E+00 -0.45593999997E+02  0.45594000000E+02  0.51100000000E-03 0. -1.
    9900012    2    1    2    0    0 -0.15510428696E+02 -0.10574699775E+02 -0.39130886509E+02  0.47787263224E+02  0.19999964345E+02 0.  0.
        -12    1    1    2    0    0  0.15510428696E+02  0.10574699775E+02  0.39130886509E+02  0.43400736776E+02  0.00000000000E+00 0.  1.
         11    1    3    3    0    0 -0.60714678147E+01 -0.29949901611E+00 -0.92647061195E+01  0.11080938626E+02  0.51100000000E-03 0. -1.
        -11    1    3    3    0    0 -0.10130711254E+02 -0.22747546076E+01 -0.71344162479E+01  0.12597845629E+02  0.51100000000E-03 0.  1.
         12    1    3    3    0    0  0.69175037348E+00 -0.80004461517E+01 -0.22731764142E+02  0.24108478969E+02  0.00000000000E+00 0. -1.
</event>
<event>
 7    1  0.4519225E-009  0.4778727E+02  0.7816164E-02  0.1312668E+00
        -11   -1    0    0    0    0  0.00000000000E+00  0.00000000000E+00  0.45593999997E+02  0.45594000000E+02  0.51100000000E-03 0.  1.
         11   -1    0    0    0    0 -0.00000000000E+00 -0.00000000000E+00 -0.45593999997E+02  0.45594000000E+02  0.51100000000E-03 0. -1.
    9900012    2    1    2    0    0 -0.25515721580E+02 -0.55035470778E+01 -0.34673939294E+02  0.47787272537E+02  0.20000006803E+02 0.  0.
        -12    1    1    2    0    0  0.25515721580E+02  0.55035470778E+01  0.34673939294E+02  0.43400727463E+02  0.00000000000E+00 0.  1.
         11    1    3    3    0    0 -0.14790704936E+02 -0.51845690883E+01 -0.14813114312E+02  0.21565552741E+02  0.51100000000E-03 0. -1.
        -11    1    3    3    0    0 -0.94598155810E+01  0.46174984042E+01 -0.77178431636E+01  0.13052758547E+02  0.51100000000E-03 0.  1.
         12    1    3    3    0    0 -0.12652010631E+01 -0.49364763936E+01 -0.12142981819E+02  0.13168961249E+02  0.00000000000E+00 0. -1.
</event>
<event>
 7    1  0.4519225E-009  0.4778727E+02  0.7816164E-02  0.1312668E+00
        -11   -1    0    0    0    0  0.00000000000E+00  0.00000000000E+00  0.45593999997E+02  0.45594000000E+02  0.51100000000E-03 0. -1.
         11   -1    0    0    0    0 -0.00000000000E+00 -0.00000000000E+00 -0.45593999997E+02  0.45594000000E+02  0.51100000000E-03 0.  1.
    9900012    2    1    2    0    0  0.24800852216E+02  0.33485296243E+02  0.12135726740E+02  0.47787271911E+02  0.20000003952E+02 0.  0.
        -12    1    1    2    0    0 -0.24800852216E+02 -0.33485296243E+02 -0.12135726740E+02  0.43400728089E+02  0.00000000000E+00 0.  1.
         11    1    3    3    0    0  0.13839888793E+02  0.16189860694E+02  0.15290561263E+02  0.26219370227E+02  0.51100000000E-03 0. -1.
        -11    1    3    3    0    0  0.22250091278E+01  0.84127149245E+00 -0.16144723344E+01  0.28748781753E+01  0.51100000000E-03 0.  1.
        -12    1    3    3    0    0  0.87359542946E+01  0.16454164056E+02 -0.15403621879E+01  0.18693023509E+02  0.00000000000E+00 0.  1.
</event>
<event>
 7    1  0.4519225E-009  0.4778727E+02  0.7816164E-02  0.1312668E+00
        -11   -1    0    0    0    0  0.00000000000E+00  0.00000000000E+00  0.45593999997E+02  0.45594000000E+02  0.51100000000E-03 0.  1.
         11   -1    0    0    0    0 -0.00000000000E+00 -0.00000000000E+00 -0.45593999997E+02  0.45594000000E+02  0.51100000000E-03 0. -1.
    9900012    2    1    2    0    0 -0.29278791144E+01 -0.41347981702E+02  0.12860612597E+02  0.47787269322E+02  0.19999992148E+02 0.  0.
        -12    1    1    2    0    0  0.29278791144E+01  0.41347981702E+02 -0.12860612597E+02  0.43400730678E+02  0.00000000000E+00 0.  1.
         11    1    3    3    0    0 -0.45970084150E+01 -0.49289402045E+01  0.56146344070E+01  0.87721751973E+01  0.51100000000E-03 0. -1.
        -11    1    3    3    0    0 -0.39804522632E+01 -0.10164862979E+02  0.51728945893E+01  0.12080036353E+02  0.51100000000E-03 0.  1.
         12    1    3    3    0    0  0.56495815638E+01 -0.26254178519E+02  0.20730836008E+01  0.26935057772E+02  0.00000000000E+00 0. -1.
</event>
<event>
 7    1  0.4519225E-009  0.4778727E+02  0.7816164E-02  0.1312668E+00
        -11   -1    0    0    0    0  0.00000000000E+00  0.00000000000E+00  0.45593999997E+02  0.45594000000E+02  0.51100000000E-03 0.  1.
         11   -1    0    0    0    0 -0.00000000000E+00 -0.00000000000E+00 -0.45593999997E+02  0.45594000000E+02  0.51100000000E-03 0. -1.
    9900012    2    1    2    0    0  0.59092077352E+01 -0.31031930949E+02 -0.29761112696E+02  0.47787270705E+02  0.19999998451E+02 0.  0.
        -12    1    1    2    0    0 -0.59092077352E+01  0.31031930949E+02  0.29761112696E+02  0.43400729295E+02  0.00000000000E+00 0.  1.
         11    1    3    3    0    0  0.88616741213E+01 -0.10012913818E+02 -0.17792912121E+02  0.22257031100E+02  0.51100000000E-03 0. -1.
        -11    1    3    3    0    0 -0.46060289831E+01 -0.98437217205E+01 -0.82239903784E+01  0.13628953676E+02  0.51100000000E-03 0.  1.
        -12    1    3    3    0    0  0.16535625970E+01 -0.11175295410E+02 -0.37442101967E+01  0.11901285929E+02  0.00000000000E+00 0.  1.
</event>
<event>
 7    1  0.4519225E-009  0.4778727E+02  0.7816164E-02  0.1312668E+00
        -11   -1    0    0    0    0  0.00000000000E+00  0.00000000000E+00  0.45593999997E+02  0.45594000000E+02  0.51100000000E-03 0. -1.
         11   -1    0    0    0    0 -0.00000000000E+00 -0.00000000000E+00 -0.45593999997E+02  0.45594000000E+02  0.51100000000E-03 0.  1.
    9900012    2    1    2    0    0 -0.38996805330E+02 -0.14138677077E+02  0.12765977562E+02  0.47787271912E+02  0.20000003956E+02 0.  0.
        -12    1    1    2    0    0  0.38996805330E+02  0.14138677077E+02 -0.12765977562E+02  0.43400728088E+02  0.00000000000E+00 0.  1.
         11    1    3    3    0    0 -0.22004607516E+02 -0.51304049639E+01 -0.15232647735E+01  0.22646062414E+02  0.51100000000E-03 0. -1.
        -11    1    3    3    0    0 -0.65780957492E+01 -0.62362631345E+01  0.30341082966E+01  0.95586680550E+01  0.51100000000E-03 0.  1.
         12    1    3    3    0    0 -0.10414102065E+02 -0.27720089787E+01  0.11255134039E+02  0.15582541443E+02  0.00000000000E+00 0. -1.
</event>
<event>
 7    1  0.4519225E-009  0.4778727E+02  0.7816164E-02  0.1312668E+00
        -11   -1    0    0    0    0  0.00000000000E+00  0.00000000000E+00  0.45593999997E+02  0.45594000000E+02  0.51100000000E-03 0.  1.
         11   -1    0    0    0    0 -0.00000000000E+00 -0.00000000000E+00 -0.45593999997E+02  0.45594000000E+02  0.51100000000E-03 0. -1.
    9900012    2    1    2    0    0  0.28104826656E+02  0.11881385406E+02 -0.30863810783E+02  0.47787269400E+02  0.19999992503E+02 0.  0.
        -12    1    1    2    0    0 -0.28104826656E+02 -0.11881385406E+02  0.30863810783E+02  0.43400730600E+02  0.00000000000E+00 0.  1.
         11    1    3    3    0    0  0.14557943173E+02  0.37815477848E+01 -0.22135070559E+02  0.26761822845E+02  0.51100000000E-03 0. -1.
        -11    1    3    3    0    0  0.11893992578E+02  0.11841490701E+01 -0.63011973222E+01  0.13512007860E+02  0.51100000000E-03 0.  1.
         12    1    3    3    0    0  0.16528909053E+01  0.69156885515E+01 -0.24275429025E+01  0.75134386954E+01  0.00000000000E+00 0. -1.
</event>
<event>
 7    1  0.4519225E-009  0.4778727E+02  0.7816164E-02  0.1312668E+00
        -11   -1    0    0    0    0  0.00000000000E+00  0.00000000000E+00  0.45593999997E+02  0.45594000000E+02  0.51100000000E-03 0. -1.
         11   -1    0    0    0    0 -0.00000000000E+00 -0.00000000000E+00 -0.45593999997E+02  0.45594000000E+02  0.51100000000E-03 0.  1.
    9900012    2    1    2    0    0 -0.24742869697E+02  0.17899893835E+02  0.30838408695E+02  0.47787271308E+02  0.20000001203E+02 0.  0.
        -12    1    1    2    0    0  0.24742869697E+02 -0.17899893835E+02 -0.30838408695E+02  0.43400728692E+02  0.00000000000E+00 0.  1.
         11    1    3    3    0    0 -0.77476023351E+01  0.23933373013E+01  0.51801849683E+01  0.96222513970E+01  0.51100000000E-03 0. -1.
        -11    1    3    3    0    0 -0.53030480259E+01 -0.25854664206E+01  0.21486485132E+01  0.62788251824E+01  0.51100000000E-03 0.  1.
         12    1    3    3    0    0 -0.11692219336E+02  0.18092022954E+02  0.23509575213E+02  0.31886194729E+02  0.00000000000E+00 0. -1.
</event>
<event>
 7    1  0.4519225E-009  0.4778727E+02  0.7816164E-02  0.1312668E+00
        -11   -1    0    0    0    0  0.00000000000E+00  0.00000000000E+00  0.45593999997E+02  0.45594000000E+02  0.51100000000E-03 0.  1.
         11   -1    0    0    0    0 -0.00000000000E+00 -0.00000000000E+00 -0.45593999997E+02  0.45594000000E+02  0.51100000000E-03 0. -1.
    9900012    2    1    2    0    0 -0.18629548692E+02 -0.33063334145E+00 -0.39197621881E+02  0.47787274614E+02  0.20000016276E+02 0.  0.
        -12    1    1    2    0    0  0.18629548692E+02  0.33063334145E+00  0.39197621881E+02  0.43400725386E+02  0.00000000000E+00 0.  1.
         11    1    3    3    0    0 -0.41728103497E+01  0.85876057803E+00 -0.11527425630E+02  0.12289481594E+02  0.51100000000E-03 0. -1.
        -11    1    3    3    0    0 -0.13254674004E+02  0.33607244956E+01 -0.93064419239E+01  0.16540577790E+02  0.51100000000E-03 0.  1.
         12    1    3    3    0    0 -0.12020643383E+01 -0.45501184151E+01 -0.18363754328E+02  0.18957215230E+02  0.00000000000E+00 0. -1.
</event>
<event>
 7    1  0.4519225E-009  0.4778727E+02  0.7816164E-02  0.1312668E+00
        -11   -1    0    0    0    0  0.00000000000E+00  0.00000000000E+00  0.45593999997E+02  0.45594000000E+02  0.51100000000E-03 0.  1.
         11   -1    0    0    0    0 -0.00000000000E+00 -0.00000000000E+00 -0.45593999997E+02  0.45594000000E+02  0.51100000000E-03 0. -1.
    9900012    2    1    2    0    0 -0.24998060245E+02 -0.19839266965E+01 -0.35422932584E+02  0.47787272656E+02  0.20000007349E+02 0.  0.
        -12    1    1    2    0    0  0.24998060245E+02  0.19839266965E+01  0.35422932584E+02  0.43400727344E+02  0.00000000000E+00 0.  1.
         11    1    3    3    0    0 -0.55801961925E+01 -0.11735437448E+01 -0.11906113103E+02  0.13201186460E+02  0.51100000000E-03 0. -1.
        -11    1    3    3    0    0 -0.61667923606E+01  0.23978542819E+01 -0.19164167423E+02  0.20274228628E+02  0.51100000000E-03 0.  1.
        -12    1    3    3    0    0 -0.13251071692E+02 -0.32082372336E+01 -0.43526520573E+01  0.14311857568E+02  0.00000000000E+00 0.  1.
</event>
<event>
 7    1  0.4519225E-009  0.4778727E+02  0.7816164E-02  0.1312668E+00
        -11   -1    0    0    0    0  0.00000000000E+00  0.00000000000E+00  0.45593999997E+02  0.45594000000E+02  0.51100000000E-03 0.  1.
         11   -1    0    0    0    0 -0.00000000000E+00 -0.00000000000E+00 -0.45593999997E+02  0.45594000000E+02  0.51100000000E-03 0. -1.
    9900012    2    1    2    0    0  0.82921324825E+01 -0.39176644730E+02  0.16734832499E+02  0.47787267608E+02  0.19999984331E+02 0.  0.
        -12    1    1    2    0    0 -0.82921324825E+01  0.39176644730E+02 -0.16734832499E+02  0.43400732392E+02  0.00000000000E+00 0.  1.
         11    1    3    3    0    0  0.75952070322E+01 -0.32424044330E+02  0.67582767482E+01  0.33980584536E+02  0.51100000000E-03 0. -1.
        -11    1    3    3    0    0  0.25826288045E+01 -0.51795854552E-01  0.26856829718E+01  0.37263316598E+01  0.51100000000E-03 0.  1.
        -12    1    3    3    0    0 -0.18857033542E+01 -0.67008045457E+01  0.72908727791E+01  0.10080351412E+02  0.00000000000E+00 0.  1.
</event>
<event>
 7    1  0.4519225E-009  0.4778727E+02  0.7816164E-02  0.1312668E+00
        -11   -1    0    0    0    0  0.00000000000E+00  0.00000000000E+00  0.45593999997E+02  0.45594000000E+02  0.51100000000E-03 0. -1.
         11   -1    0    0    0    0 -0.00000000000E+00 -0.00000000000E+00 -0.45593999997E+02  0.45594000000E+02  0.51100000000E-03 0.  1.
    9900012    2    1    2    0    0  0.13578823153E+02  0.37138757092E+02 -0.17887191083E+02  0.47787270496E+02  0.19999997502E+02 0.  0.
        -12    1    1    2    0    0 -0.13578823153E+02 -0.37138757092E+02  0.17887191083E+02  0.43400729504E+02  0.00000000000E+00 0.  1.
         11    1    3    3    0    0  0.15331736130E+02  0.14865700150E+02 -0.70367355366E+01  0.22484813119E+02  0.51100000000E-03 0. -1.
        -11    1    3    3    0    0  0.66509566068E+00  0.18843535749E+01  0.16040086993E+00  0.20047117831E+01  0.51100000000E-03 0.  1.
        -12    1    3    3    0    0 -0.24180086373E+01  0.20388703367E+02 -0.11010856417E+02  0.23297745595E+02  0.00000000000E+00 0.  1.
</event>
<event>
 7    1  0.4519225E-009  0.4778727E+02  0.7816164E-02  0.1312668E+00
        -11   -1    0    0    0    0  0.00000000000E+00  0.00000000000E+00  0.45593999997E+02  0.45594000000E+02  0.51100000000E-03 0.  1.
         11   -1    0    0    0    0 -0.00000000000E+00 -0.00000000000E+00 -0.45593999997E+02  0.45594000000E+02  0.51100000000E-03 0. -1.
    9900012    2    1    2    0    0  0.46154253419E+01 -0.43070636470E+02  0.26909496599E+01  0.47787273196E+02  0.20000009811E+02 0.  0.
        -12    1    1    2    0    0 -0.46154253419E+01  0.43070636470E+02 -0.26909496599E+01  0.43400726804E+02  0.00000000000E+00 0.  1.
         11    1    3    3    0    0  0.58080229569E+01 -0.72780095114E+01 -0.17429095644E+01  0.94731350211E+01  0.51100000000E-03 0. -1.
        -11    1    3    3    0    0 -0.87595400698E+00  0.46464996232E+00  0.16803273962E+01  0.19510754545E+01  0.51100000000E-03 0.  1.
         12    1    3    3    0    0 -0.31664360807E+00 -0.36257276921E+02  0.27535318281E+01  0.36363062721E+02  0.00000000000E+00 0. -1.
</event>
<event>
 7    1  0.4519225E-009  0.4778727E+02  0.7816164E-02  0.1312668E+00
        -11   -1    0    0    0    0  0.00000000000E+00  0.00000000000E+00  0.45593999997E+02  0.45594000000E+02  0.51100000000E-03 0.  1.
         11   -1    0    0    0    0 -0.00000000000E+00 -0.00000000000E+00 -0.45593999997E+02  0.45594000000E+02  0.51100000000E-03 0. -1.
    9900012    2    1    2    0    0  0.11590253969E+02  0.12184025822E+01 -0.41806756755E+02  0.47787269565E+02  0.19999993255E+02 0.  0.
        -12    1    1    2    0    0 -0.11590253969E+02 -0.12184025822E+01  0.41806756755E+02  0.43400730435E+02  0.00000000000E+00 0.  1.
         11    1    3    3    0    0  0.21293104533E+01 -0.32891014622E+00 -0.26921269773E+02  0.27007349210E+02  0.51100000000E-03 0. -1.
        -11    1    3    3    0    0 -0.15660187354E+01 -0.19470470135E+01 -0.95993061606E+00  0.26767281896E+01  0.51100000000E-03 0.  1.
        -12    1    3    3    0    0  0.11026962251E+02  0.34943597419E+01 -0.13925556366E+02  0.18103192165E+02  0.00000000000E+00 0.  1.
</event>
<event>
 7    1  0.4519225E-009  0.4778732E+02  0.7816164E-02  0.1312668E+00
        -11   -1    0    0    0    0  0.00000000000E+00  0.00000000000E+00  0.45593999997E+02  0.45594000000E+02  0.51100000000E-03 0. -1.
         11   -1    0    0    0    0 -0.00000000000E+00 -0.00000000000E+00 -0.45593999997E+02  0.45594000000E+02  0.51100000000E-03 0.  1.
    9900012    2    1    2    0    0 -0.43227097308E+02  0.37852627495E+01  0.84208267044E+00  0.47787317298E+02  0.20000210889E+02 0.  0.
        -12    1    1    2    0    0  0.43227097308E+02 -0.37852627495E+01 -0.84208267044E+00  0.43400682702E+02  0.00000000000E+00 0.  1.
         11    1    3    3    0    0 -0.40549915612E+02  0.13091703714E+01  0.47987242414E+01  0.40853853403E+02  0.51100000000E-03 0. -1.
        -11    1    3    3    0    0 -0.12073476940E+01 -0.10264772377E+01 -0.21077144097E+00  0.15986772142E+01  0.51100000000E-03 0.  1.
         12    1    3    3    0    0 -0.14698340014E+01  0.35025696159E+01 -0.37458701300E+01  0.53347866815E+01  0.00000000000E+00 0. -1.
</event>
<event>
 7    1  0.4519225E-009  0.4778727E+02  0.7816164E-02  0.1312668E+00
        -11   -1    0    0    0    0  0.00000000000E+00  0.00000000000E+00  0.45593999997E+02  0.45594000000E+02  0.51100000000E-03 0.  1.
         11   -1    0    0    0    0 -0.00000000000E+00 -0.00000000000E+00 -0.45593999997E+02  0.45594000000E+02  0.51100000000E-03 0. -1.
    9900012    2    1    2    0    0 -0.57746081138E+01  0.31940841378E+02 -0.28810760982E+02  0.47787269647E+02  0.19999993629E+02 0.  0.
        -12    1    1    2    0    0  0.57746081138E+01 -0.31940841378E+02  0.28810760982E+02  0.43400730353E+02  0.00000000000E+00 0.  1.
         11    1    3    3    0    0 -0.10602393435E+01  0.14918071123E+01 -0.57192889935E+01  0.60049864927E+01  0.51100000000E-03 0. -1.
        -11    1    3    3    0    0  0.21593468893E+01 -0.81875901635E+00 -0.59155831863E-03  0.23093605016E+01  0.51100000000E-03 0.  1.
         12    1    3    3    0    0 -0.68737156596E+01  0.31267793282E+02 -0.23090880431E+02  0.39472922653E+02  0.00000000000E+00 0. -1.
</event>
<event>
 7    1  0.4519225E-009  0.4778727E+02  0.7816164E-02  0.1312668E+00
        -11   -1    0    0    0    0  0.00000000000E+00  0.00000000000E+00  0.45593999997E+02  0.45594000000E+02  0.51100000000E-03 0.  1.
         11   -1    0    0    0    0 -0.00000000000E+00 -0.00000000000E+00 -0.45593999997E+02  0.45594000000E+02  0.51100000000E-03 0. -1.
    9900012    2    1    2    0    0  0.21903144743E+01 -0.26849885079E+02 -0.34028069127E+02  0.47787270804E+02  0.19999998905E+02 0.  0.
        -12    1    1    2    0    0 -0.21903144743E+01  0.26849885079E+02  0.34028069127E+02  0.43400729196E+02  0.00000000000E+00 0.  1.
         11    1    3    3    0    0  0.19292147659E+01 -0.30615355116E+01 -0.13187876042E+02  0.13675340729E+02  0.51100000000E-03 0. -1.
        -11    1    3    3    0    0  0.13638708894E+00  0.12959626114E+01  0.26502089367E+00  0.13297957976E+01  0.51100000000E-03 0.  1.
         12    1    3    3    0    0  0.12471261946E+00 -0.25084312179E+02 -0.21105213979E+02  0.32782134278E+02  0.00000000000E+00 0. -1.
</event>
<event>
 7    1  0.4519225E-009  0.4778727E+02  0.7816164E-02  0.1312668E+00
        -11   -1    0    0    0    0  0.00000000000E+00  0.00000000000E+00  0.45593999997E+02  0.45594000000E+02  0.51100000000E-03 0.  1.
         11   -1    0    0    0    0 -0.00000000000E+00 -0.00000000000E+00 -0.45593999997E+02  0.45594000000E+02  0.51100000000E-03 0. -1.
    9900012    2    1    2    0    0 -0.39541765063E+02 -0.70432919041E+01 -0.16445793924E+02  0.47787270940E+02  0.19999999523E+02 0.  0.
        -12    1    1    2    0    0  0.39541765063E+02  0.70432919041E+01  0.16445793924E+02  0.43400729060E+02  0.00000000000E+00 0.  1.
         11    1    3    3    0    0 -0.20174095663E+02  0.71152772377E+00 -0.13626913795E+02  0.24355557628E+02  0.51100000000E-03 0. -1.
        -11    1    3    3    0    0 -0.51734761242E+01  0.22624409028E+01  0.74941348346E+00  0.56960613477E+01  0.51100000000E-03 0.  1.
        -12    1    3    3    0    0 -0.14194193276E+02 -0.10017260531E+02 -0.35682936130E+01  0.17735651964E+02  0.00000000000E+00 0.  1.
</event>
<event>
 7    1  0.4519225E-009  0.4778727E+02  0.7816164E-02  0.1312668E+00
        -11   -1    0    0    0    0  0.00000000000E+00  0.00000000000E+00  0.45593999997E+02  0.45594000000E+02  0.51100000000E-03 0.  1.
         11   -1    0    0    0    0 -0.00000000000E+00 -0.00000000000E+00 -0.45593999997E+02  0.45594000000E+02  0.51100000000E-03 0. -1.
    9900012    2    1    2    0    0  0.18968552148E+02 -0.28314607467E+02 -0.26871925046E+02  0.47787270487E+02  0.19999997458E+02 0.  0.
        -12    1    1    2    0    0 -0.18968552148E+02  0.28314607467E+02  0.26871925046E+02  0.43400729513E+02  0.00000000000E+00 0.  1.
         11    1    3    3    0    0  0.32613278660E+01  0.50391258442E+00  0.10513032165E+01  0.34634413603E+01  0.51100000000E-03 0.  1.
        -11    1    3    3    0    0  0.56366402493E+01 -0.10745659260E+02 -0.17119094513E+02  0.20983429258E+02  0.51100000000E-03 0. -1.
         12    1    3    3    0    0  0.10070584032E+02 -0.18072860791E+02 -0.10804133750E+02  0.23340399868E+02  0.00000000000E+00 0. -1.
</event>
<event>
 7    1  0.4519225E-009  0.4778727E+02  0.7816164E-02  0.1312668E+00
        -11   -1    0    0    0    0  0.00000000000E+00  0.00000000000E+00  0.45593999997E+02  0.45594000000E+02  0.51100000000E-03 0.  1.
         11   -1    0    0    0    0 -0.00000000000E+00 -0.00000000000E+00 -0.45593999997E+02  0.45594000000E+02  0.51100000000E-03 0. -1.
    9900012    2    1    2    0    0 -0.26237464808E+02  0.27816573123E+02 -0.20529425627E+02  0.47787267098E+02  0.19999982007E+02 0.  0.
        -12    1    1    2    0    0  0.26237464808E+02 -0.27816573123E+02  0.20529425627E+02  0.43400732902E+02  0.00000000000E+00 0.  1.
         11    1    3    3    0    0 -0.22520544482E+01  0.63354182822E+01 -0.83002322751E+01  0.10681906671E+02  0.51100000000E-03 0.  1.
        -11    1    3    3    0    0 -0.10278599577E+02  0.14065589245E+02 -0.12627392793E+02  0.21516074435E+02  0.51100000000E-03 0. -1.
         12    1    3    3    0    0 -0.13706810784E+02  0.74155655953E+01  0.39819944098E+00  0.15589285992E+02  0.00000000000E+00 0. -1.
</event>
<event>
 7    1  0.4519225E-009  0.4778727E+02  0.7816164E-02  0.1312668E+00
        -11   -1    0    0    0    0  0.00000000000E+00  0.00000000000E+00  0.45593999997E+02  0.45594000000E+02  0.51100000000E-03 0. -1.
         11   -1    0    0    0    0 -0.00000000000E+00 -0.00000000000E+00 -0.45593999997E+02  0.45594000000E+02  0.51100000000E-03 0.  1.
    9900012    2    1    2    0    0  0.36275881242E+02 -0.19955658162E+02  0.13017500669E+02  0.47787272169E+02  0.20000005128E+02 0.  0.
        -12    1    1    2    0    0 -0.36275881242E+02  0.19955658162E+02 -0.13017500669E+02  0.43400727831E+02  0.00000000000E+00 0.  1.
         11    1    3    3    0    0  0.12465408121E+00 -0.18469230292E+01  0.10677546790E+00  0.18542018708E+01  0.51100000000E-03 0. -1.
        -11    1    3    3    0    0 -0.31523439412E+00  0.93510609600E+00  0.36271099991E+01  0.37589524260E+01  0.51100000000E-03 0.  1.
         12    1    3    3    0    0  0.36466461555E+02 -0.19043841229E+02  0.92836152020E+01  0.42174117872E+02  0.00000000000E+00 0. -1.
</event>
<event>
 7    1  0.4519225E-009  0.4778727E+02  0.7816164E-02  0.1312668E+00
        -11   -1    0    0    0    0  0.00000000000E+00  0.00000000000E+00  0.45593999997E+02  0.45594000000E+02  0.51100000000E-03 0.  1.
         11   -1    0    0    0    0 -0.00000000000E+00 -0.00000000000E+00 -0.45593999997E+02  0.45594000000E+02  0.51100000000E-03 0. -1.
    9900012    2    1    2    0    0  0.17680195023E+02  0.18298291574E+02 -0.35159733532E+02  0.47787266912E+02  0.19999981156E+02 0.  0.
        -12    1    1    2    0    0 -0.17680195023E+02 -0.18298291574E+02  0.35159733532E+02  0.43400733088E+02  0.00000000000E+00 0.  1.
         11    1    3    3    0    0 -0.65322284808E+00  0.51543725407E+01 -0.15400060296E+01  0.54190289914E+01  0.51100000000E-03 0. -1.
        -11    1    3    3    0    0  0.95301806939E+01  0.12760741935E+02 -0.15522451054E+02  0.22239769912E+02  0.51100000000E-03 0.  1.
         12    1    3    3    0    0  0.88032371769E+01  0.38317709912E+00 -0.18097276449E+02  0.20128468008E+02  0.00000000000E+00 0. -1.
</event>
<event>
 7    1  0.4519225E-009  0.4778727E+02  0.7816164E-02  0.1312668E+00
        -11   -1    0    0    0    0  0.00000000000E+00  0.00000000000E+00  0.45593999997E+02  0.45594000000E+02  0.51100000000E-03 0.  1.
         11   -1    0    0    0    0 -0.00000000000E+00 -0.00000000000E+00 -0.45593999997E+02  0.45594000000E+02  0.51100000000E-03 0. -1.
    9900012    2    1    2    0    0 -0.22401875581E+01 -0.31282709449E+02 -0.29999951041E+02  0.47787269439E+02  0.19999992678E+02 0.  0.
        -12    1    1    2    0    0  0.22401875581E+01  0.31282709449E+02  0.29999951041E+02  0.43400730561E+02  0.00000000000E+00 0.  1.
         11    1    3    3    0    0 -0.81657140904E+00 -0.11489527701E+02 -0.17000343744E+02  0.20535036482E+02  0.51100000000E-03 0. -1.
        -11    1    3    3    0    0 -0.67541203163E+01 -0.16109322506E+02 -0.97132884692E+01  0.19986905364E+02  0.51100000000E-03 0.  1.
        -12    1    3    3    0    0  0.53305041672E+01 -0.36838592416E+01 -0.32863188282E+01  0.72653275927E+01  0.00000000000E+00 0.  1.
</event>
<event>
 7    1  0.4519225E-009  0.4778730E+02  0.7816164E-02  0.1312668E+00
        -11   -1    0    0    0    0  0.00000000000E+00  0.00000000000E+00  0.45593999997E+02  0.45594000000E+02  0.51100000000E-03 0.  1.
         11   -1    0    0    0    0 -0.00000000000E+00 -0.00000000000E+00 -0.45593999997E+02  0.45594000000E+02  0.51100000000E-03 0. -1.
    9900012    2    1    2    0    0  0.38678374006E+02 -0.19554248764E+02 -0.22881603278E+01  0.47787297953E+02  0.20000122689E+02 0.  0.
        -12    1    1    2    0    0 -0.38678374006E+02  0.19554248764E+02  0.22881603278E+01  0.43400702047E+02  0.00000000000E+00 0.  1.
         11    1    3    3    0    0  0.53013244489E+01 -0.11518205717E+01  0.33998109209E+01  0.64023000633E+01  0.51100000000E-03 0. -1.
        -11    1    3    3    0    0  0.44014058459E+01 -0.55244536739E+01  0.41413011207E+01  0.81879385104E+01  0.51100000000E-03 0.  1.
         12    1    3    3    0    0  0.28975643711E+02 -0.12877974518E+02 -0.98292723694E+01  0.33197059380E+02  0.00000000000E+00 0. -1.
</event>
<event>
 7    1  0.4519225E-009  0.4778728E+02  0.7816164E-02  0.1312668E+00
        -11   -1    0    0    0    0  0.00000000000E+00  0.00000000000E+00  0.45593999997E+02  0.45594000000E+02  0.51100000000E-03 0.  1.
         11   -1    0    0    0    0 -0.00000000000E+00 -0.00000000000E+00 -0.45593999997E+02  0.45594000000E+02  0.51100000000E-03 0. -1.
    9900012    2    1    2    0    0 -0.15651848242E+02 -0.65545295044E+01 -0.39945972417E+02  0.47787275090E+02  0.20000018445E+02 0.  0.
        -12    1    1    2    0    0  0.15651848242E+02  0.65545295044E+01  0.39945972417E+02  0.43400724910E+02  0.00000000000E+00 0.  1.
         11    1    3    3    0    0 -0.22570311060E+01 -0.10589897385E+02 -0.18296287194E+02  0.21260156194E+02  0.51100000000E-03 0.  1.
        -11    1    3    3    0    0 -0.47879633449E+01 -0.36034046516E+00 -0.34229273833E+01  0.58966829977E+01  0.51100000000E-03 0. -1.
        -12    1    3    3    0    0 -0.86068537910E+01  0.43957083453E+01 -0.18226757839E+02  0.20630435898E+02  0.00000000000E+00 0.  1.
</event>
<event>
 7    1  0.4519225E-009  0.4778723E+02  0.7816164E-02  0.1312668E+00
        -11   -1    0    0    0    0  0.00000000000E+00  0.00000000000E+00  0.45593999997E+02  0.45594000000E+02  0.51100000000E-03 0.  1.
         11   -1    0    0    0    0 -0.00000000000E+00 -0.00000000000E+00 -0.45593999997E+02  0.45594000000E+02  0.51100000000E-03 0. -1.
    9900012    2    1    2    0    0 -0.37377359714E+01 -0.38249696026E+02  0.20164741476E+02  0.47787231400E+02  0.19999819243E+02 0.  0.
        -12    1    1    2    0    0  0.37377359714E+01  0.38249696026E+02 -0.20164741476E+02  0.43400768600E+02  0.00000000000E+00 0.  1.
         11    1    3    3    0    0  0.27219054638E+01 -0.47412784407E+01  0.19114824502E+01  0.57915676655E+01  0.51100000000E-03 0. -1.
        -11    1    3    3    0    0  0.19166894723E+01  0.10745706074E+01  0.15386614757E+01  0.26825137318E+01  0.51100000000E-03 0.  1.
         12    1    3    3    0    0 -0.83763309075E+01 -0.34582988193E+02  0.16714597550E+02  0.39313150002E+02  0.00000000000E+00 0. -1.
</event>
<event>
 7    1  0.4519225E-009  0.4778727E+02  0.7816164E-02  0.1312668E+00
        -11   -1    0    0    0    0  0.00000000000E+00  0.00000000000E+00  0.45593999997E+02  0.45594000000E+02  0.51100000000E-03 0.  1.
         11   -1    0    0    0    0 -0.00000000000E+00 -0.00000000000E+00 -0.45593999997E+02  0.45594000000E+02  0.51100000000E-03 0. -1.
    9900012    2    1    2    0    0  0.17176982084E+00 -0.69053614157E+01 -0.42847516008E+02  0.47787272480E+02  0.20000006547E+02 0.  0.
        -12    1    1    2    0    0 -0.17176982084E+00  0.69053614157E+01  0.42847516008E+02  0.43400727520E+02  0.00000000000E+00 0.  1.
         11    1    3    3    0    0 -0.45698388275E+01 -0.52723505451E-01 -0.15305173634E+02  0.15972931694E+02  0.51100000000E-03 0. -1.
        -11    1    3    3    0    0  0.17561724629E+01 -0.99668408443E+01 -0.24577779183E+02  0.26579866214E+02  0.51100000000E-03 0.  1.
        -12    1    3    3    0    0  0.29854361855E+01  0.31142029340E+01 -0.29645631913E+01  0.52344745722E+01  0.00000000000E+00 0.  1.
</event>
<event>
 7    1  0.4519225E-009  0.4778727E+02  0.7816164E-02  0.1312668E+00
        -11   -1    0    0    0    0  0.00000000000E+00  0.00000000000E+00  0.45593999997E+02  0.45594000000E+02  0.51100000000E-03 0.  1.
         11   -1    0    0    0    0 -0.00000000000E+00 -0.00000000000E+00 -0.45593999997E+02  0.45594000000E+02  0.51100000000E-03 0. -1.
    9900012    2    1    2    0    0 -0.11631339418E+02  0.20973151829E+02 -0.36172672789E+02  0.47787269465E+02  0.19999992798E+02 0.  0.
        -12    1    1    2    0    0  0.11631339418E+02 -0.20973151829E+02  0.36172672789E+02  0.43400730535E+02  0.00000000000E+00 0.  1.
         11    1    3    3    0    0 -0.11437397654E+02  0.97475242742E+01 -0.22930275248E+02  0.27415795042E+02  0.51100000000E-03 0. -1.
        -11    1    3    3    0    0 -0.96741500852E+00  0.10060073554E+02 -0.15023617244E+02  0.18106629920E+02  0.51100000000E-03 0.  1.
        -12    1    3    3    0    0  0.77347324495E+00  0.11655540015E+01  0.17812197033E+01  0.22648445029E+01  0.00000000000E+00 0.  1.
</event>
<event>
 7    1  0.4519225E-009  0.4778727E+02  0.7816164E-02  0.1312668E+00
        -11   -1    0    0    0    0  0.00000000000E+00  0.00000000000E+00  0.45593999997E+02  0.45594000000E+02  0.51100000000E-03 0.  1.
         11   -1    0    0    0    0 -0.00000000000E+00 -0.00000000000E+00 -0.45593999997E+02  0.45594000000E+02  0.51100000000E-03 0. -1.
    9900012    2    1    2    0    0 -0.21796053961E+02  0.31710088951E+02  0.20075504833E+02  0.47787267243E+02  0.19999982667E+02 0.  0.
        -12    1    1    2    0    0  0.21796053961E+02 -0.31710088951E+02 -0.20075504833E+02  0.43400732757E+02  0.00000000000E+00 0.  1.
         11    1    3    3    0    0 -0.67015707572E+00 -0.46193898126E-01  0.18754549284E+01  0.19921284677E+01  0.51100000000E-03 0. -1.
        -11    1    3    3    0    0 -0.65426662694E+01 -0.27127008031E+00  0.99620755847E+00  0.66236318685E+01  0.51100000000E-03 0.  1.
         12    1    3    3    0    0 -0.14583230616E+02  0.32027552930E+02  0.17203842346E+02  0.39171506907E+02  0.00000000000E+00 0. -1.
</event>
<event>
 7    1  0.4519225E-009  0.4778727E+02  0.7816164E-02  0.1312668E+00
        -11   -1    0    0    0    0  0.00000000000E+00  0.00000000000E+00  0.45593999997E+02  0.45594000000E+02  0.51100000000E-03 0. -1.
         11   -1    0    0    0    0 -0.00000000000E+00 -0.00000000000E+00 -0.45593999997E+02  0.45594000000E+02  0.51100000000E-03 0.  1.
    9900012    2    1    2    0    0 -0.14707662650E+02  0.36332088793E+02  0.18635654775E+02  0.47787266762E+02  0.19999980476E+02 0.  0.
        -12    1    1    2    0    0  0.14707662650E+02 -0.36332088793E+02 -0.18635654775E+02  0.43400733238E+02  0.00000000000E+00 0.  1.
         11    1    3    3    0    0 -0.33293970858E+01 -0.12104162671E+00  0.76628348193E+00  0.34185854774E+01  0.51100000000E-03 0. -1.
        -11    1    3    3    0    0 -0.11324701219E+02  0.13625760719E+02  0.90684600384E+01  0.19903446451E+02  0.51100000000E-03 0.  1.
        -12    1    3    3    0    0 -0.53564344769E-01  0.22827369700E+02  0.88009112551E+01  0.24465234834E+02  0.00000000000E+00 0.  1.
</event>
<event>
 7    1  0.4519225E-009  0.4778727E+02  0.7816164E-02  0.1312668E+00
        -11   -1    0    0    0    0  0.00000000000E+00  0.00000000000E+00  0.45593999997E+02  0.45594000000E+02  0.51100000000E-03 0. -1.
         11   -1    0    0    0    0 -0.00000000000E+00 -0.00000000000E+00 -0.45593999997E+02  0.45594000000E+02  0.51100000000E-03 0.  1.
    9900012    2    1    2    0    0  0.18773442358E+02 -0.12217529776E+02  0.37174094161E+02  0.47787269033E+02  0.19999990827E+02 0.  0.
        -12    1    1    2    0    0 -0.18773442358E+02  0.12217529776E+02 -0.37174094161E+02  0.43400730967E+02  0.00000000000E+00 0.  1.
         11    1    3    3    0    0  0.40221424954E+01 -0.58167586107E+01  0.98669303308E+01  0.12139547990E+02  0.51100000000E-03 0. -1.
        -11    1    3    3    0    0 -0.11708214191E+01 -0.68207603106E+01  0.70553215410E+01  0.98828718659E+01  0.51100000000E-03 0.  1.
        -12    1    3    3    0    0  0.15922121281E+02  0.41998914488E+00  0.20251842289E+02  0.25764849177E+02  0.00000000000E+00 0.  1.
</event>
<event>
 7    1  0.4519225E-009  0.4778726E+02  0.7816164E-02  0.1312668E+00
        -11   -1    0    0    0    0  0.00000000000E+00  0.00000000000E+00  0.45593999997E+02  0.45594000000E+02  0.51100000000E-03 0.  1.
         11   -1    0    0    0    0 -0.00000000000E+00 -0.00000000000E+00 -0.45593999997E+02  0.45594000000E+02  0.51100000000E-03 0. -1.
    9900012    2    1    2    0    0 -0.30569977267E+02  0.21951101789E+02 -0.21615955431E+02  0.47787263727E+02  0.19999966637E+02 0.  0.
        -12    1    1    2    0    0  0.30569977267E+02 -0.21951101789E+02  0.21615955431E+02  0.43400736273E+02  0.00000000000E+00 0.  1.
         11    1    3    3    0    0 -0.17972531537E+02  0.16548042760E+02 -0.15195372427E+02  0.28770626557E+02  0.51100000000E-03 0. -1.
        -11    1    3    3    0    0 -0.17698422644E+01  0.34462419015E+01 -0.69976583764E+01  0.79985091048E+01  0.51100000000E-03 0.  1.
        -12    1    3    3    0    0 -0.10827603466E+02  0.19568171277E+01  0.57707537230E+00  0.11018128066E+02  0.00000000000E+00 0.  1.
</event>
<event>
 7    1  0.4519225E-009  0.4778727E+02  0.7816164E-02  0.1312668E+00
        -11   -1    0    0    0    0  0.00000000000E+00  0.00000000000E+00  0.45593999997E+02  0.45594000000E+02  0.51100000000E-03 0.  1.
         11   -1    0    0    0    0 -0.00000000000E+00 -0.00000000000E+00 -0.45593999997E+02  0.45594000000E+02  0.51100000000E-03 0. -1.
    9900012    2    1    2    0    0  0.18623947221E+02 -0.26691497789E+02 -0.28711252406E+02  0.47787268681E+02  0.19999989225E+02 0.  0.
        -12    1    1    2    0    0 -0.18623947221E+02  0.26691497789E+02  0.28711252406E+02  0.43400731319E+02  0.00000000000E+00 0.  1.
         11    1    3    3    0    0  0.32901500851E+01 -0.76048434125E+01 -0.13651095728E+02  0.15969068406E+02  0.51100000000E-03 0. -1.
        -11    1    3    3    0    0  0.15805829961E+02 -0.11205095099E+02 -0.13883147231E+02  0.23835272061E+02  0.51100000000E-03 0.  1.
        -12    1    3    3    0    0 -0.47203282495E+00 -0.78815592777E+01 -0.11770094461E+01  0.79829282141E+01  0.00000000000E+00 0.  1.
</event>
<event>
 7    1  0.4519225E-009  0.4778722E+02  0.7816164E-02  0.1312668E+00
        -11   -1    0    0    0    0  0.00000000000E+00  0.00000000000E+00  0.45593999997E+02  0.45594000000E+02  0.51100000000E-03 0. -1.
         11   -1    0    0    0    0 -0.00000000000E+00 -0.00000000000E+00 -0.45593999997E+02  0.45594000000E+02  0.51100000000E-03 0.  1.
    9900012    2    1    2    0    0 -0.16108179483E+02 -0.20997886870E+02  0.34398299029E+02  0.47787220338E+02  0.19999768806E+02 0.  0.
        -12    1    1    2    0    0  0.16108179483E+02  0.20997886870E+02 -0.34398299029E+02  0.43400779662E+02  0.00000000000E+00 0.  1.
         11    1    3    3    0    0 -0.81604721072E+00 -0.95349226342E+01  0.93817062742E+01  0.13401384091E+02  0.51100000000E-03 0.  1.
        -11    1    3    3    0    0  0.19872485895E+01 -0.31822026707E+01  0.14732056898E+01  0.40306210513E+01  0.51100000000E-03 0. -1.
         12    1    3    3    0    0 -0.17279380862E+02 -0.82807615647E+01  0.23543387065E+02  0.30355215195E+02  0.00000000000E+00 0. -1.
</event>
<event>
 7    1  0.4519225E-009  0.4778727E+02  0.7816164E-02  0.1312668E+00
        -11   -1    0    0    0    0  0.00000000000E+00  0.00000000000E+00  0.45593999997E+02  0.45594000000E+02  0.51100000000E-03 0.  1.
         11   -1    0    0    0    0 -0.00000000000E+00 -0.00000000000E+00 -0.45593999997E+02  0.45594000000E+02  0.51100000000E-03 0. -1.
    9900012    2    1    2    0    0  0.20182767614E+02  0.12070484645E+02 -0.36477152094E+02  0.47787270363E+02  0.19999996894E+02 0.  0.
        -12    1    1    2    0    0 -0.20182767614E+02 -0.12070484645E+02  0.36477152094E+02  0.43400729637E+02  0.00000000000E+00 0.  1.
         11    1    3    3    0    0  0.40905465944E+01  0.49351607312E+01 -0.15727971002E+02  0.16984035297E+02  0.51100000000E-03 0. -1.
        -11    1    3    3    0    0  0.87144300029E+01  0.11220250192E+02 -0.11423380297E+02  0.18229890902E+02  0.51100000000E-03 0.  1.
         12    1    3    3    0    0  0.73777910172E+01 -0.40849262781E+01 -0.93258007949E+01  0.12573344164E+02  0.00000000000E+00 0. -1.
</event>
<event>
 7    1  0.4519225E-009  0.4778727E+02  0.7816164E-02  0.1312668E+00
        -11   -1    0    0    0    0  0.00000000000E+00  0.00000000000E+00  0.45593999997E+02  0.45594000000E+02  0.51100000000E-03 0.  1.
         11   -1    0    0    0    0 -0.00000000000E+00 -0.00000000000E+00 -0.45593999997E+02  0.45594000000E+02  0.51100000000E-03 0. -1.
    9900012    2    1    2    0    0 -0.11894441546E+02 -0.10502620233E+02 -0.40396051149E+02  0.47787265906E+02  0.19999976572E+02 0.  0.
        -12    1    1    2    0    0  0.11894441546E+02  0.10502620233E+02  0.40396051149E+02  0.43400734094E+02  0.00000000000E+00 0.  1.
         11    1    3    3    0    0  0.70256973916E+00 -0.45886621115E+01 -0.24496847255E+01  0.52488455614E+01  0.51100000000E-03 0. -1.
        -11    1    3    3    0    0  0.28322276832E+01 -0.12761008938E+01 -0.65686361440E+01  0.72661494751E+01  0.51100000000E-03 0.  1.
        -12    1    3    3    0    0 -0.15429238968E+02 -0.46378572272E+01 -0.31377730280E+02  0.35272270870E+02  0.00000000000E+00 0.  1.
</event>
<event>
 7    1  0.4519225E-009  0.4778727E+02  0.7816164E-02  0.1312668E+00
        -11   -1    0    0    0    0  0.00000000000E+00  0.00000000000E+00  0.45593999997E+02  0.45594000000E+02  0.51100000000E-03 0. -1.
         11   -1    0    0    0    0 -0.00000000000E+00 -0.00000000000E+00 -0.45593999997E+02  0.45594000000E+02  0.51100000000E-03 0.  1.
    9900012    2    1    2    0    0  0.31394528897E+02 -0.11688407622E+02  0.27593256304E+02  0.47787272923E+02  0.20000008563E+02 0.  0.
        -12    1    1    2    0    0 -0.31394528897E+02  0.11688407622E+02 -0.27593256304E+02  0.43400727077E+02  0.00000000000E+00 0.  1.
         11    1    3    3    0    0  0.30492961401E+01 -0.71940241969E+01  0.85590632785E+01  0.11589208582E+02  0.51100000000E-03 0. -1.
        -11    1    3    3    0    0  0.78844711238E+01 -0.65116046190E+01  0.60520946473E+01  0.11882496770E+02  0.51100000000E-03 0.  1.
        -12    1    3    3    0    0  0.20460761633E+02  0.20172211943E+01  0.12982098378E+02  0.24315567570E+02  0.00000000000E+00 0.  1.
</event>
<event>
 7    1  0.4519225E-009  0.4778727E+02  0.7816164E-02  0.1312668E+00
        -11   -1    0    0    0    0  0.00000000000E+00  0.00000000000E+00  0.45593999997E+02  0.45594000000E+02  0.51100000000E-03 0.  1.
         11   -1    0    0    0    0 -0.00000000000E+00 -0.00000000000E+00 -0.45593999997E+02  0.45594000000E+02  0.51100000000E-03 0. -1.
    9900012    2    1    2    0    0  0.13326658195E+02 -0.19864636909E+01 -0.41256239873E+02  0.47787272067E+02  0.20000004662E+02 0.  0.
        -12    1    1    2    0    0 -0.13326658195E+02  0.19864636909E+01  0.41256239873E+02  0.43400727933E+02  0.00000000000E+00 0.  1.
         11    1    3    3    0    0  0.13647666561E+02 -0.29668911213E+01 -0.27975006308E+02  0.31267590628E+02  0.51100000000E-03 0.  1.
        -11    1    3    3    0    0  0.23671296001E+01 -0.35248771301E+01 -0.38703003184E+01  0.57451967887E+01  0.51100000000E-03 0. -1.
        -12    1    3    3    0    0 -0.26881379659E+01  0.45053045605E+01 -0.94109332471E+01  0.10774484651E+02  0.00000000000E+00 0.  1.
</event>
<event>
 7    1  0.4519225E-009  0.4778727E+02  0.7816164E-02  0.1312668E+00
        -11   -1    0    0    0    0  0.00000000000E+00  0.00000000000E+00  0.45593999997E+02  0.45594000000E+02  0.51100000000E-03 0.  1.
         11   -1    0    0    0    0 -0.00000000000E+00 -0.00000000000E+00 -0.45593999997E+02  0.45594000000E+02  0.51100000000E-03 0. -1.
    9900012    2    1    2    0    0 -0.10510580722E+02  0.26390609290E+02 -0.32812901211E+02  0.47787273604E+02  0.20000011669E+02 0.  0.
        -12    1    1    2    0    0  0.10510580722E+02 -0.26390609290E+02  0.32812901211E+02  0.43400726396E+02  0.00000000000E+00 0.  1.
         11    1    3    3    0    0  0.25464898243E+01 -0.71823621985E+00 -0.16277220995E+01  0.31064373786E+01  0.51100000000E-03 0. -1.
        -11    1    3    3    0    0 -0.65455394561E+01  0.44076308542E+01 -0.46550240977E+01  0.91619073412E+01  0.51100000000E-03 0.  1.
         12    1    3    3    0    0 -0.65115310906E+01  0.22701214656E+02 -0.26530155014E+02  0.35518928884E+02  0.00000000000E+00 0. -1.
</event>
<event>
 7    1  0.4519225E-009  0.4778727E+02  0.7816164E-02  0.1312668E+00
        -11   -1    0    0    0    0  0.00000000000E+00  0.00000000000E+00  0.45593999997E+02  0.45594000000E+02  0.51100000000E-03 0.  1.
         11   -1    0    0    0    0 -0.00000000000E+00 -0.00000000000E+00 -0.45593999997E+02  0.45594000000E+02  0.51100000000E-03 0. -1.
    9900012    2    1    2    0    0 -0.26264645816E+02 -0.18133633546E+02 -0.29410251773E+02  0.47787271956E+02  0.20000004156E+02 0.  0.
        -12    1    1    2    0    0  0.26264645816E+02  0.18133633546E+02  0.29410251773E+02  0.43400728044E+02  0.00000000000E+00 0.  1.
         11    1    3    3    0    0 -0.16468198474E+02 -0.93083649472E+01 -0.21734776483E+02  0.28814019644E+02  0.51100000000E-03 0. -1.
        -11    1    3    3    0    0 -0.42043070568E-01 -0.32376070906E+01 -0.69987502475E+01  0.77114442604E+01  0.51100000000E-03 0.  1.
        -12    1    3    3    0    0 -0.97544042712E+01 -0.55876615083E+01 -0.67672504193E+00  0.11261808052E+02  0.00000000000E+00 0.  1.
</event>
<event>
 7    1  0.4519225E-009  0.4778727E+02  0.7816164E-02  0.1312668E+00
        -11   -1    0    0    0    0  0.00000000000E+00  0.00000000000E+00  0.45593999997E+02  0.45594000000E+02  0.51100000000E-03 0. -1.
         11   -1    0    0    0    0 -0.00000000000E+00 -0.00000000000E+00 -0.45593999997E+02  0.45594000000E+02  0.51100000000E-03 0.  1.
    9900012    2    1    2    0    0  0.60219161676E+01  0.42872857557E+02 -0.30459971128E+01  0.47787268579E+02  0.19999988760E+02 0.  0.
        -12    1    1    2    0    0 -0.60219161676E+01 -0.42872857557E+02  0.30459971128E+01  0.43400731421E+02  0.00000000000E+00 0.  1.
         11    1    3    3    0    0 -0.19145902778E+01  0.59489144807E+01 -0.27881277292E+01  0.68431641750E+01  0.51100000000E-03 0. -1.
        -11    1    3    3    0    0  0.25606058950E+01  0.76230370621E+01 -0.66982939768E+01  0.10465874978E+02  0.51100000000E-03 0.  1.
         12    1    3    3    0    0  0.53759005504E+01  0.29300906015E+02  0.64404245932E+01  0.30478229426E+02  0.00000000000E+00 0. -1.
</event>
<event>
 7    1  0.4519225E-009  0.4778727E+02  0.7816164E-02  0.1312668E+00
        -11   -1    0    0    0    0  0.00000000000E+00  0.00000000000E+00  0.45593999997E+02  0.45594000000E+02  0.51100000000E-03 0.  1.
         11   -1    0    0    0    0 -0.00000000000E+00 -0.00000000000E+00 -0.45593999997E+02  0.45594000000E+02  0.51100000000E-03 0. -1.
    9900012    2    1    2    0    0 -0.27884280907E+02  0.27725693171E+02 -0.18367796053E+02  0.47787272871E+02  0.20000008326E+02 0.  0.
        -12    1    1    2    0    0  0.27884280907E+02 -0.27725693171E+02  0.18367796053E+02  0.43400727129E+02  0.00000000000E+00 0.  1.
         11    1    3    3    0    0 -0.86923640707E+00  0.26887446157E+01 -0.47893839042E+01  0.55608558678E+01  0.51100000000E-03 0. -1.
        -11    1    3    3    0    0 -0.19611123498E+02  0.10760602848E+02 -0.13532856399E+02  0.26144309918E+02  0.51100000000E-03 0.  1.
        -12    1    3    3    0    0 -0.74039210020E+01  0.14276345707E+02 -0.45555749610E-01  0.16082107085E+02  0.00000000000E+00 0.  1.
</event>
<event>
 7    1  0.4519225E-009  0.4778726E+02  0.7816164E-02  0.1312668E+00
        -11   -1    0    0    0    0  0.00000000000E+00  0.00000000000E+00  0.45593999997E+02  0.45594000000E+02  0.51100000000E-03 0. -1.
         11   -1    0    0    0    0 -0.00000000000E+00 -0.00000000000E+00 -0.45593999997E+02  0.45594000000E+02  0.51100000000E-03 0.  1.
    9900012    2    1    2    0    0  0.90416812015E+01  0.24865954491E+00  0.42447736518E+02  0.47787260766E+02  0.19999953136E+02 0.  0.
        -12    1    1    2    0    0 -0.90416812015E+01 -0.24865954491E+00 -0.42447736518E+02  0.43400739234E+02  0.00000000000E+00 0.  1.
         11    1    3    3    0    0  0.42779791590E+01  0.10096562264E+01  0.54656076525E+01  0.70137991597E+01  0.51100000000E-03 0. -1.
        -11    1    3    3    0    0  0.99178180285E+01 -0.31189506827E+01  0.16338497845E+02  0.19365884434E+02  0.51100000000E-03 0.  1.
        -12    1    3    3    0    0 -0.51541159859E+01  0.23579540013E+01  0.20643631021E+02  0.21407577173E+02  0.00000000000E+00 0.  1.
</event>
<event>
 7    1  0.4519225E-009  0.4778727E+02  0.7816164E-02  0.1312668E+00
        -11   -1    0    0    0    0  0.00000000000E+00  0.00000000000E+00  0.45593999997E+02  0.45594000000E+02  0.51100000000E-03 0.  1.
         11   -1    0    0    0    0 -0.00000000000E+00 -0.00000000000E+00 -0.45593999997E+02  0.45594000000E+02  0.51100000000E-03 0. -1.
    9900012    2    1    2    0    0 -0.21758241259E+02  0.78534919721E+01 -0.36722266427E+02  0.47787271315E+02  0.20000001235E+02 0.  0.
        -12    1    1    2    0    0  0.21758241259E+02 -0.78534919721E+01  0.36722266427E+02  0.43400728685E+02  0.00000000000E+00 0.  1.
         11    1    3    3    0    0 -0.25105300563E+01 -0.40387987629E+01 -0.30522933789E+01  0.56507655891E+01  0.51100000000E-03 0. -1.
        -11    1    3    3    0    0 -0.56465051264E+01  0.13826666814E+01 -0.20822226689E+01  0.61749849229E+01  0.51100000000E-03 0.  1.
         12    1    3    3    0    0 -0.13601206076E+02  0.10509624054E+02 -0.31587750379E+02  0.35961520803E+02  0.00000000000E+00 0. -1.
</event>
<event>
 7    1  0.4519225E-009  0.4778727E+02  0.7816164E-02  0.1312668E+00
        -11   -1    0    0    0    0  0.00000000000E+00  0.00000000000E+00  0.45593999997E+02  0.45594000000E+02  0.51100000000E-03 0.  1.
         11   -1    0    0    0    0 -0.00000000000E+00 -0.00000000000E+00 -0.45593999997E+02  0.45594000000E+02  0.51100000000E-03 0. -1.
    9900012    2    1    2    0    0  0.10486764141E+02 -0.28578742817E+02 -0.30933910255E+02  0.47787267669E+02  0.19999984611E+02 0.  0.
        -12    1    1    2    0    0 -0.10486764141E+02  0.28578742817E+02  0.30933910255E+02  0.43400732331E+02  0.00000000000E+00 0.  1.
         11    1    3    3    0    0  0.74066542722E+01 -0.12623832481E+02 -0.71622348675E+01  0.16294701058E+02  0.51100000000E-03 0. -1.
        -11    1    3    3    0    0  0.49232957311E+01 -0.11085143319E+02 -0.71621521974E+01  0.14086009641E+02  0.51100000000E-03 0.  1.
        -12    1    3    3    0    0 -0.18431858625E+01 -0.48697670176E+01 -0.16609523190E+02  0.17406556970E+02  0.00000000000E+00 0.  1.
</event>
<event>
 7    1  0.4519225E-009  0.4778727E+02  0.7816164E-02  0.1312668E+00
        -11   -1    0    0    0    0  0.00000000000E+00  0.00000000000E+00  0.45593999997E+02  0.45594000000E+02  0.51100000000E-03 0.  1.
         11   -1    0    0    0    0 -0.00000000000E+00 -0.00000000000E+00 -0.45593999997E+02  0.45594000000E+02  0.51100000000E-03 0. -1.
    9900012    2    1    2    0    0 -0.41884455533E+02 -0.73493687595E+01 -0.86777029480E+01  0.47787269995E+02  0.19999995217E+02 0.  0.
        -12    1    1    2    0    0  0.41884455533E+02  0.73493687595E+01  0.86777029480E+01  0.43400730005E+02  0.00000000000E+00 0.  1.
         11    1    3    3    0    0 -0.38870755208E+02 -0.99523047639E+01 -0.36192930199E+01  0.40287507527E+02  0.51100000000E-03 0. -1.
        -11    1    3    3    0    0  0.64940832268E+00  0.76849702225E-01  0.12778542655E+00  0.66630805387E+00  0.51100000000E-03 0.  1.
         12    1    3    3    0    0 -0.36631086481E+01  0.25260863022E+01 -0.51861953547E+01  0.68334544142E+01  0.00000000000E+00 0. -1.
</event>
<event>
 7    1  0.4519225E-009  0.4778727E+02  0.7816164E-02  0.1312668E+00
        -11   -1    0    0    0    0  0.00000000000E+00  0.00000000000E+00  0.45593999997E+02  0.45594000000E+02  0.51100000000E-03 0.  1.
         11   -1    0    0    0    0 -0.00000000000E+00 -0.00000000000E+00 -0.45593999997E+02  0.45594000000E+02  0.51100000000E-03 0. -1.
    9900012    2    1    2    0    0  0.17488774233E+02  0.15865131852E+02 -0.36415156498E+02  0.47787271255E+02  0.20000000958E+02 0.  0.
        -12    1    1    2    0    0 -0.17488774233E+02 -0.15865131852E+02  0.36415156498E+02  0.43400728745E+02  0.00000000000E+00 0.  1.
         11    1    3    3    0    0  0.93762435986E+01  0.68669013786E+01 -0.19987741909E+02  0.23120945168E+02  0.51100000000E-03 0. -1.
        -11    1    3    3    0    0  0.84109138279E+01  0.93798428910E+00 -0.13790848982E+02  0.16180568650E+02  0.51100000000E-03 0.  1.
         12    1    3    3    0    0 -0.29838319313E+00  0.80602461839E+01 -0.26365656076E+01  0.84857574369E+01  0.00000000000E+00 0. -1.
</event>
<event>
 7    1  0.4519225E-009  0.4778727E+02  0.7816164E-02  0.1312668E+00
        -11   -1    0    0    0    0  0.00000000000E+00  0.00000000000E+00  0.45593999997E+02  0.45594000000E+02  0.51100000000E-03 0. -1.
         11   -1    0    0    0    0 -0.00000000000E+00 -0.00000000000E+00 -0.45593999997E+02  0.45594000000E+02  0.51100000000E-03 0.  1.
    9900012    2    1    2    0    0  0.41845100284E+02 -0.10325461313E+02 -0.50986165964E+01  0.47787268896E+02  0.19999990206E+02 0.  0.
        -12    1    1    2    0    0 -0.41845100284E+02  0.10325461313E+02  0.50986165964E+01  0.43400731104E+02  0.00000000000E+00 0.  1.
         11    1    3    3    0    0  0.21569374506E+01 -0.15990895778E+01 -0.30699742926E+01  0.40785057389E+01  0.51100000000E-03 0. -1.
        -11    1    3    3    0    0  0.15994593092E+02 -0.71622720148E+01 -0.79386201441E+01  0.19239200572E+02  0.51100000000E-03 0.  1.
         12    1    3    3    0    0  0.23693569742E+02 -0.15640997207E+01  0.59099778403E+01  0.24469562586E+02  0.00000000000E+00 0. -1.
</event>
<event>
 7    1 -0.4519225E-009  0.4778727E+02  0.7816164E-02  0.1312668E+00
        -11   -1    0    0    0    0  0.00000000000E+00  0.00000000000E+00  0.45593999997E+02  0.45594000000E+02  0.51100000000E-03 0.  1.
         11   -1    0    0    0    0 -0.00000000000E+00 -0.00000000000E+00 -0.45593999997E+02  0.45594000000E+02  0.51100000000E-03 0. -1.
    9900012    2    1    2    0    0  0.36421416532E+02  0.93031411247E+01 -0.21692282728E+02  0.47787272507E+02  0.20000006669E+02 0.  0.
        -12    1    1    2    0    0 -0.36421416532E+02 -0.93031411247E+01  0.21692282728E+02  0.43400727493E+02  0.00000000000E+00 0.  1.
         11    1    3    3    0    0  0.87275511506E+01 -0.61999766392E+00 -0.80017621836E+01  0.11856759443E+02  0.51100000000E-03 0. -1.
        -11    1    3    3    0    0  0.70350310368E+00  0.54019548897E+01 -0.44881833362E+01  0.70583158875E+01  0.51100000000E-03 0.  1.
        -12    1    3    3    0    0  0.26990362277E+02  0.45211838990E+01 -0.92023372082E+01  0.28872197177E+02  0.00000000000E+00 0.  1.
</event>
<event>
 7    1  0.4519225E-009  0.4778727E+02  0.7816164E-02  0.1312668E+00
        -11   -1    0    0    0    0  0.00000000000E+00  0.00000000000E+00  0.45593999997E+02  0.45594000000E+02  0.51100000000E-03 0.  1.
         11   -1    0    0    0    0 -0.00000000000E+00 -0.00000000000E+00 -0.45593999997E+02  0.45594000000E+02  0.51100000000E-03 0. -1.
    9900012    2    1    2    0    0  0.62750391788E+01  0.35337085004E+02 -0.24403641555E+02  0.47787269426E+02  0.19999992620E+02 0.  0.
        -12    1    1    2    0    0 -0.62750391788E+01 -0.35337085004E+02  0.24403641555E+02  0.43400730574E+02  0.00000000000E+00 0.  1.
         11    1    3    3    0    0 -0.61741222958E+00  0.12276409338E+01  0.33891784950E+00  0.14153323614E+01  0.51100000000E-03 0. -1.
        -11    1    3    3    0    0 -0.26307711378E+01  0.19162663686E+01  0.16673130224E+01  0.36569066916E+01  0.51100000000E-03 0.  1.
         12    1    3    3    0    0  0.95232225462E+01  0.32193177701E+02 -0.26409872427E+02  0.42715030373E+02  0.00000000000E+00 0. -1.
</event>
<event>
 7    1  0.4519225E-009  0.4778727E+02  0.7816164E-02  0.1312668E+00
        -11   -1    0    0    0    0  0.00000000000E+00  0.00000000000E+00  0.45593999997E+02  0.45594000000E+02  0.51100000000E-03 0.  1.
         11   -1    0    0    0    0 -0.00000000000E+00 -0.00000000000E+00 -0.45593999997E+02  0.45594000000E+02  0.51100000000E-03 0. -1.
    9900012    2    1    2    0    0 -0.16547179477E+02  0.71726137030E+01 -0.39476168498E+02  0.47787269415E+02  0.19999992572E+02 0.  0.
        -12    1    1    2    0    0  0.16547179477E+02 -0.71726137030E+01  0.39476168498E+02  0.43400730585E+02  0.00000000000E+00 0.  1.
         11    1    3    3    0    0 -0.93396499192E+01  0.33966003074E+01 -0.34739520091E+02  0.36133090246E+02  0.51100000000E-03 0. -1.
        -11    1    3    3    0    0 -0.59482883489E+01  0.24934122103E+01 -0.64852925685E+01  0.91464888724E+01  0.51100000000E-03 0.  1.
         12    1    3    3    0    0 -0.12592412093E+01  0.12826011853E+01  0.17486441617E+01  0.25076902974E+01  0.00000000000E+00 0. -1.
</event>
<event>
 7    1  0.4519225E-009  0.4778727E+02  0.7816164E-02  0.1312668E+00
        -11   -1    0    0    0    0  0.00000000000E+00  0.00000000000E+00  0.45593999997E+02  0.45594000000E+02  0.51100000000E-03 0.  1.
         11   -1    0    0    0    0 -0.00000000000E+00 -0.00000000000E+00 -0.45593999997E+02  0.45594000000E+02  0.51100000000E-03 0. -1.
    9900012    2    1    2    0    0  0.20130974304E+02 -0.22342595131E+02 -0.31291782950E+02  0.47787270008E+02  0.19999995276E+02 0.  0.
        -12    1    1    2    0    0 -0.20130974304E+02  0.22342595131E+02  0.31291782950E+02  0.43400729992E+02  0.00000000000E+00 0.  1.
         11    1    3    3    0    0  0.61027669230E+01 -0.10947179190E+02 -0.11566043021E+02  0.17054555044E+02  0.51100000000E-03 0. -1.
        -11    1    3    3    0    0  0.17678028571E+01 -0.52472771404E+01 -0.15378077220E+02  0.16344549660E+02  0.51100000000E-03 0.  1.
        -12    1    3    3    0    0  0.12260404524E+02 -0.61481388003E+01 -0.43476627096E+01  0.14388165304E+02  0.00000000000E+00 0.  1.
</event>
<event>
 7    1  0.4519225E-009  0.4778727E+02  0.7816164E-02  0.1312668E+00
        -11   -1    0    0    0    0  0.00000000000E+00  0.00000000000E+00  0.45593999997E+02  0.45594000000E+02  0.51100000000E-03 0.  1.
         11   -1    0    0    0    0 -0.00000000000E+00 -0.00000000000E+00 -0.45593999997E+02  0.45594000000E+02  0.51100000000E-03 0. -1.
    9900012    2    1    2    0    0 -0.41621349701E+02  0.15505600284E+01  0.12201722530E+02  0.47787273969E+02  0.20000013335E+02 0.  0.
        -12    1    1    2    0    0  0.41621349701E+02 -0.15505600284E+01 -0.12201722530E+02  0.43400726031E+02  0.00000000000E+00 0.  1.
         11    1    3    3    0    0 -0.55114769664E+01  0.14932353679E+01  0.45975337461E+01  0.73309922264E+01  0.51100000000E-03 0. -1.
        -11    1    3    3    0    0 -0.21183558701E+02  0.39526185114E+01 -0.29713734430E+01  0.21753055250E+02  0.51100000000E-03 0.  1.
        -12    1    3    3    0    0 -0.14926314033E+02 -0.38952938509E+01  0.10575562227E+02  0.18703226492E+02  0.00000000000E+00 0.  1.
</event>
<event>
 7    1  0.4808889E-009  0.4778727E+02  0.7816164E-02  0.1312668E+00
        -11   -1    0    0    0    0  0.00000000000E+00  0.00000000000E+00  0.45593999997E+02  0.45594000000E+02  0.51100000000E-03 0. -1.
         11   -1    0    0    0    0 -0.00000000000E+00 -0.00000000000E+00 -0.45593999997E+02  0.45594000000E+02  0.51100000000E-03 0.  1.
    9900012    2    1    2    0    0  0.31797145850E+02 -0.26270232085E+02  0.13507021943E+02  0.47787271667E+02  0.20000002839E+02 0.  0.
        -12    1    1    2    0    0 -0.31797145850E+02  0.26270232085E+02 -0.13507021943E+02  0.43400728333E+02  0.00000000000E+00 0.  1.
         11    1    3    3    0    0  0.92423608773E+01 -0.34953076748E+01  0.89996384011E+01  0.13365324610E+02  0.51100000000E-03 0. -1.
        -11    1    3    3    0    0  0.80637014380E+01 -0.27110436718E+01 -0.21849529957E+01  0.87833398276E+01  0.51100000000E-03 0.  1.
         12    1    3    3    0    0  0.14491083535E+02 -0.20063880739E+02  0.66923365378E+01  0.25638607229E+02  0.00000000000E+00 0. -1.
</event>
<event>
 7    1  0.4519225E-009  0.4778727E+02  0.7816164E-02  0.1312668E+00
        -11   -1    0    0    0    0  0.00000000000E+00  0.00000000000E+00  0.45593999997E+02  0.45594000000E+02  0.51100000000E-03 0.  1.
         11   -1    0    0    0    0 -0.00000000000E+00 -0.00000000000E+00 -0.45593999997E+02  0.45594000000E+02  0.51100000000E-03 0. -1.
    9900012    2    1    2    0    0 -0.37950125859E+02 -0.17918874887E+02 -0.11060076648E+02  0.47787269299E+02  0.19999992043E+02 0.  0.
        -12    1    1    2    0    0  0.37950125859E+02  0.17918874887E+02  0.11060076648E+02  0.43400730701E+02  0.00000000000E+00 0.  1.
         11    1    3    3    0    0 -0.56915552915E+01 -0.21054918727E+01 -0.36159486722E+01  0.70641335437E+01  0.51100000000E-03 0. -1.
        -11    1    3    3    0    0  0.12518170048E+01 -0.99067104243E+00 -0.35277289031E+01  0.38721242753E+01  0.51100000000E-03 0.  1.
        -12    1    3    3    0    0 -0.33510387572E+02 -0.14822711972E+02 -0.39163990722E+01  0.36851011480E+02  0.00000000000E+00 0.  1.
</event>
<event>
 7    1  0.4519225E-009  0.4778727E+02  0.7816164E-02  0.1312668E+00
        -11   -1    0    0    0    0  0.00000000000E+00  0.00000000000E+00  0.45593999997E+02  0.45594000000E+02  0.51100000000E-03 0. -1.
         11   -1    0    0    0    0 -0.00000000000E+00 -0.00000000000E+00 -0.45593999997E+02  0.45594000000E+02  0.51100000000E-03 0.  1.
    9900012    2    1    2    0    0  0.46766047724E+01 -0.30498512896E+02  0.30522015056E+02  0.47787270465E+02  0.19999997357E+02 0.  0.
        -12    1    1    2    0    0 -0.46766047724E+01  0.30498512896E+02 -0.30522015056E+02  0.43400729535E+02  0.00000000000E+00 0.  1.
         11    1    3    3    0    0  0.25224918005E+00 -0.43788386700E+00 -0.71824891143E+00  0.87821050422E+00  0.51100000000E-03 0. -1.
        -11    1    3    3    0    0  0.10957543392E+01 -0.53141549173E+01 -0.15976096002E+01  0.56562599616E+01  0.51100000000E-03 0.  1.
         12    1    3    3    0    0  0.33286012532E+01 -0.24746474112E+02  0.32837873568E+02  0.41252799999E+02  0.00000000000E+00 0. -1.
</event>
<event>
 7    1  0.4519225E-009  0.4778728E+02  0.7816164E-02  0.1312668E+00
        -11   -1    0    0    0    0  0.00000000000E+00  0.00000000000E+00  0.45593999997E+02  0.45594000000E+02  0.51100000000E-03 0.  1.
         11   -1    0    0    0    0 -0.00000000000E+00 -0.00000000000E+00 -0.45593999997E+02  0.45594000000E+02  0.51100000000E-03 0. -1.
    9900012    2    1    2    0    0 -0.24728969173E+02 -0.36081795297E+01 -0.35483541502E+02  0.47787278884E+02  0.20000035743E+02 0.  0.
        -12    1    1    2    0    0  0.24728969173E+02  0.36081795297E+01  0.35483541502E+02  0.43400721116E+02  0.00000000000E+00 0.  1.
         11    1    3    3    0    0 -0.11518814250E+02  0.26225378966E+01 -0.87669693327E+01  0.14711238502E+02  0.51100000000E-03 0. -1.
        -11    1    3    3    0    0 -0.45078431143E+00 -0.26288329266E+01  0.58047910540E+00  0.27296383102E+01  0.51100000000E-03 0.  1.
         12    1    3    3    0    0 -0.12759370612E+02 -0.36018844997E+01 -0.27297051275E+02  0.30346402071E+02  0.00000000000E+00 0. -1.
</event>
<event>
 7    1  0.4519225E-009  0.4778726E+02  0.7816164E-02  0.1312668E+00
        -11   -1    0    0    0    0  0.00000000000E+00  0.00000000000E+00  0.45593999997E+02  0.45594000000E+02  0.51100000000E-03 0.  1.
         11   -1    0    0    0    0 -0.00000000000E+00 -0.00000000000E+00 -0.45593999997E+02  0.45594000000E+02  0.51100000000E-03 0. -1.
    9900012    2    1    2    0    0 -0.39394944319E+02  0.25982553065E+01 -0.18025303224E+02  0.47787261241E+02  0.19999955300E+02 0.  0.
        -12    1    1    2    0    0  0.39394944319E+02 -0.25982553065E+01  0.18025303224E+02  0.43400738759E+02  0.00000000000E+00 0.  1.
         11    1    3    3    0    0 -0.44100393556E+01  0.41626000751E+01 -0.23525045154E+01  0.65046109999E+01  0.51100000000E-03 0. -1.
        -11    1    3    3    0    0  0.10956704065E+01 -0.17964125900E+01 -0.10383308733E+01  0.23464277310E+01  0.51100000000E-03 0.  1.
         12    1    3    3    0    0 -0.36080575370E+02  0.23206782143E+00 -0.14634467836E+02  0.38936222510E+02  0.00000000000E+00 0. -1.
</event>
<event>
 7    1  0.4519225E-009  0.4778727E+02  0.7816164E-02  0.1312668E+00
        -11   -1    0    0    0    0  0.00000000000E+00  0.00000000000E+00  0.45593999997E+02  0.45594000000E+02  0.51100000000E-03 0.  1.
         11   -1    0    0    0    0 -0.00000000000E+00 -0.00000000000E+00 -0.45593999997E+02  0.45594000000E+02  0.51100000000E-03 0. -1.
    9900012    2    1    2    0    0 -0.12873616403E+02  0.94572982984E+01 -0.40354092728E+02  0.47787270856E+02  0.19999999139E+02 0.  0.
        -12    1    1    2    0    0  0.12873616403E+02 -0.94572982984E+01  0.40354092728E+02  0.43400729144E+02  0.00000000000E+00 0.  1.
         11    1    3    3    0    0 -0.68494270621E+01  0.22921885665E+01 -0.16875234888E+02  0.18355989003E+02  0.51100000000E-03 0. -1.
        -11    1    3    3    0    0 -0.10325364533E+02  0.78541883468E+01 -0.14531450942E+02  0.19479848410E+02  0.51100000000E-03 0.  1.
         12    1    3    3    0    0  0.43011751921E+01 -0.68907861497E+00 -0.89474068973E+01  0.99514334423E+01  0.00000000000E+00 0. -1.
</event>
<event>
 7    1  0.4519225E-009  0.4778727E+02  0.7816164E-02  0.1312668E+00
        -11   -1    0    0    0    0  0.00000000000E+00  0.00000000000E+00  0.45593999997E+02  0.45594000000E+02  0.51100000000E-03 0.  1.
         11   -1    0    0    0    0 -0.00000000000E+00 -0.00000000000E+00 -0.45593999997E+02  0.45594000000E+02  0.51100000000E-03 0. -1.
    9900012    2    1    2    0    0  0.24425964614E+02 -0.17747929794E+01 -0.35830795572E+02  0.47787267877E+02  0.19999985560E+02 0.  0.
        -12    1    1    2    0    0 -0.24425964614E+02  0.17747929794E+01  0.35830795572E+02  0.43400732123E+02  0.00000000000E+00 0.  1.
         11    1    3    3    0    0  0.13838408207E+02  0.15143318167E+01 -0.19689663205E+02  0.24113846229E+02  0.51100000000E-03 0. -1.
        -11    1    3    3    0    0  0.11475836039E+02 -0.24256188061E+01 -0.54902303942E+01  0.12950716947E+02  0.51100000000E-03 0.  1.
        -12    1    3    3    0    0 -0.88827963166E+00 -0.86350598994E+00 -0.10650901972E+02  0.10722704702E+02  0.00000000000E+00 0.  1.
</event>
<event>
 7    1  0.4519225E-009  0.4778723E+02  0.7816164E-02  0.1312668E+00
        -11   -1    0    0    0    0  0.00000000000E+00  0.00000000000E+00  0.45593999997E+02  0.45594000000E+02  0.51100000000E-03 0.  1.
         11   -1    0    0    0    0 -0.00000000000E+00 -0.00000000000E+00 -0.45593999997E+02  0.45594000000E+02  0.51100000000E-03 0. -1.
    9900012    2    1    2    0    0  0.22052293217E+02  0.19584396574E+02 -0.31839832628E+02  0.47787226193E+02  0.19999795502E+02 0.  0.
        -12    1    1    2    0    0 -0.22052293217E+02 -0.19584396574E+02  0.31839832628E+02  0.43400773807E+02  0.00000000000E+00 0.  1.
         11    1    3    3    0    0  0.31244308726E+01  0.46041830867E+01 -0.17072846800E+01  0.58202569885E+01  0.51100000000E-03 0.  1.
        -11    1    3    3    0    0  0.14354537962E+01  0.10700710127E+02 -0.14775430886E+02  0.18299701718E+02  0.51100000000E-03 0. -1.
         12    1    3    3    0    0  0.17492408548E+02  0.42795033608E+01 -0.15357117062E+02  0.23667267487E+02  0.00000000000E+00 0. -1.
</event>
<event>
 7    1  0.4519225E-009  0.4778727E+02  0.7816164E-02  0.1312668E+00
        -11   -1    0    0    0    0  0.00000000000E+00  0.00000000000E+00  0.45593999997E+02  0.45594000000E+02  0.51100000000E-03 0. -1.
         11   -1    0    0    0    0 -0.00000000000E+00 -0.00000000000E+00 -0.45593999997E+02  0.45594000000E+02  0.51100000000E-03 0.  1.
    9900012    2    1    2    0    0  0.68991699086E+01  0.17942442220E+02 -0.38911354693E+02  0.47787270717E+02  0.19999998507E+02 0.  0.
        -12    1    1    2    0    0 -0.68991699086E+01 -0.17942442220E+02  0.38911354693E+02  0.43400729283E+02  0.00000000000E+00 0.  1.
         11    1    3    3    0    0  0.71630726496E+01  0.13721518626E+02 -0.25100532451E+02  0.29489428831E+02  0.51100000000E-03 0. -1.
        -11    1    3    3    0    0  0.20055490056E+01  0.39750494597E+01 -0.15053957486E+02  0.15698563032E+02  0.51100000000E-03 0.  1.
        -12    1    3    3    0    0 -0.22694517466E+01  0.24587413392E+00  0.12431352447E+01  0.25992788532E+01  0.00000000000E+00 0.  1.
</event>
<event>
 7    1  0.4519225E-009  0.4778727E+02  0.7816164E-02  0.1312668E+00
        -11   -1    0    0    0    0  0.00000000000E+00  0.00000000000E+00  0.45593999997E+02  0.45594000000E+02  0.51100000000E-03 0. -1.
         11   -1    0    0    0    0 -0.00000000000E+00 -0.00000000000E+00 -0.45593999997E+02  0.45594000000E+02  0.51100000000E-03 0.  1.
    9900012    2    1    2    0    0  0.36587294562E+02 -0.21112847794E+02  0.99619658705E+01  0.47787271557E+02  0.20000002339E+02 0.  0.
        -12    1    1    2    0    0 -0.36587294562E+02  0.21112847794E+02 -0.99619658705E+01  0.43400728443E+02  0.00000000000E+00 0.  1.
         11    1    3    3    0    0  0.14078861028E+02 -0.68845781672E+01  0.89573758248E+01  0.18051213984E+02  0.51100000000E-03 0. -1.
        -11    1    3    3    0    0  0.12922448388E+02 -0.10153513186E+02  0.68353540963E+01  0.17799032790E+02  0.51100000000E-03 0.  1.
        -12    1    3    3    0    0  0.95859851459E+01 -0.40747564407E+01 -0.58307640506E+01  0.11937024784E+02  0.00000000000E+00 0.  1.
</event>
<event>
 7    1  0.4519225E-009  0.4778727E+02  0.7816164E-02  0.1312668E+00
        -11   -1    0    0    0    0  0.00000000000E+00  0.00000000000E+00  0.45593999997E+02  0.45594000000E+02  0.51100000000E-03 0.  1.
         11   -1    0    0    0    0 -0.00000000000E+00 -0.00000000000E+00 -0.45593999997E+02  0.45594000000E+02  0.51100000000E-03 0. -1.
    9900012    2    1    2    0    0 -0.78093945599E+01 -0.31306058023E+02 -0.29027013269E+02  0.47787269457E+02  0.19999992764E+02 0.  0.
        -12    1    1    2    0    0  0.78093945599E+01  0.31306058023E+02  0.29027013269E+02  0.43400730543E+02  0.00000000000E+00 0.  1.
         11    1    3    3    0    0 -0.40869417590E+01 -0.24786845331E+02 -0.18529746184E+02  0.31216058180E+02  0.51100000000E-03 0. -1.
        -11    1    3    3    0    0 -0.36958151474E+01 -0.89685828221E+01 -0.10245113982E+02  0.14108752184E+02  0.51100000000E-03 0.  1.
        -12    1    3    3    0    0 -0.26637653497E-01  0.24493701300E+01 -0.25215310329E+00  0.24624590932E+01  0.00000000000E+00 0.  1.
</event>
<event>
 7    1  0.4519225E-009  0.4778727E+02  0.7816164E-02  0.1312668E+00
        -11   -1    0    0    0    0  0.00000000000E+00  0.00000000000E+00  0.45593999997E+02  0.45594000000E+02  0.51100000000E-03 0.  1.
         11   -1    0    0    0    0 -0.00000000000E+00 -0.00000000000E+00 -0.45593999997E+02  0.45594000000E+02  0.51100000000E-03 0. -1.
    9900012    2    1    2    0    0 -0.20554906934E+02 -0.28898401933E+02 -0.25020015613E+02  0.47787274031E+02  0.20000013616E+02 0.  0.
        -12    1    1    2    0    0  0.20554906934E+02  0.28898401933E+02  0.25020015613E+02  0.43400725969E+02  0.00000000000E+00 0.  1.
         11    1    3    3    0    0  0.34026953562E+01 -0.49041825109E+01 -0.65044671152E+01  0.88282180818E+01  0.51100000000E-03 0. -1.
        -11    1    3    3    0    0 -0.26026930106E+01 -0.14854969219E+01 -0.31066122852E+01  0.43164513392E+01  0.51100000000E-03 0.  1.
        -12    1    3    3    0    0 -0.21354909279E+02 -0.22508722501E+02 -0.15408936213E+02  0.34642604610E+02  0.00000000000E+00 0.  1.
</event>
<event>
 7    1  0.4519225E-009  0.4778727E+02  0.7816164E-02  0.1312668E+00
        -11   -1    0    0    0    0  0.00000000000E+00  0.00000000000E+00  0.45593999997E+02  0.45594000000E+02  0.51100000000E-03 0.  1.
         11   -1    0    0    0    0 -0.00000000000E+00 -0.00000000000E+00 -0.45593999997E+02  0.45594000000E+02  0.51100000000E-03 0. -1.
    9900012    2    1    2    0    0 -0.21167843369E+02  0.31177658515E+02 -0.21529036729E+02  0.47787269524E+02  0.19999993068E+02 0.  0.
        -12    1    1    2    0    0  0.21167843369E+02 -0.31177658515E+02  0.21529036729E+02  0.43400730476E+02  0.00000000000E+00 0.  1.
         11    1    3    3    0    0  0.16282972999E+00  0.43394108339E+01  0.18481440952E+00  0.43463958096E+01  0.51100000000E-03 0. -1.
        -11    1    3    3    0    0 -0.16891684632E+02  0.18860350930E+02 -0.72495066021E+01  0.26336233466E+02  0.51100000000E-03 0.  1.
         12    1    3    3    0    0 -0.44389884667E+01  0.79778967510E+01 -0.14464344536E+02  0.17104640249E+02  0.00000000000E+00 0. -1.
</event>
<event>
 7    1  0.4519225E-009  0.4778728E+02  0.7816164E-02  0.1312668E+00
        -11   -1    0    0    0    0  0.00000000000E+00  0.00000000000E+00  0.45593999997E+02  0.45594000000E+02  0.51100000000E-03 0. -1.
         11   -1    0    0    0    0 -0.00000000000E+00 -0.00000000000E+00 -0.45593999997E+02  0.45594000000E+02  0.51100000000E-03 0.  1.
    9900012    2    1    2    0    0  0.18506505368E+02  0.10562415574E+02  0.37809618627E+02  0.47787278526E+02  0.20000034112E+02 0.  0.
        -12    1    1    2    0    0 -0.18506505368E+02 -0.10562415574E+02 -0.37809618627E+02  0.43400721474E+02  0.00000000000E+00 0.  1.
         11    1    3    3    0    0  0.52698118131E+01  0.94414970354E+01  0.16758110161E+02  0.19943596447E+02  0.51100000000E-03 0. -1.
        -11    1    3    3    0    0  0.11788960627E+02 -0.18600815938E+01  0.79757596787E+01  0.14354519808E+02  0.51100000000E-03 0.  1.
         12    1    3    3    0    0  0.14477329282E+01  0.29810001326E+01  0.13075748787E+02  0.13489162271E+02  0.00000000000E+00 0. -1.
</event>
<event>
 7    1  0.4519225E-009  0.4778727E+02  0.7816164E-02  0.1312668E+00
        -11   -1    0    0    0    0  0.00000000000E+00  0.00000000000E+00  0.45593999997E+02  0.45594000000E+02  0.51100000000E-03 0. -1.
         11   -1    0    0    0    0 -0.00000000000E+00 -0.00000000000E+00 -0.45593999997E+02  0.45594000000E+02  0.51100000000E-03 0.  1.
    9900012    2    1    2    0    0  0.18534930330E+02 -0.33882985140E+02  0.19799578517E+02  0.47787266898E+02  0.19999981094E+02 0.  0.
        -12    1    1    2    0    0 -0.18534930330E+02  0.33882985140E+02 -0.19799578517E+02  0.43400733102E+02  0.00000000000E+00 0.  1.
         11    1    3    3    0    0  0.11110870710E+01 -0.38210305351E+01 -0.24271484470E+01  0.46610984407E+01  0.51100000000E-03 0. -1.
        -11    1    3    3    0    0 -0.13381227610E+00 -0.47565028171E+01 -0.59094194330E+00  0.47949387291E+01  0.51100000000E-03 0.  1.
         12    1    3    3    0    0  0.17557655535E+02 -0.25305451788E+02  0.22817668908E+02  0.38331229728E+02  0.00000000000E+00 0. -1.
</event>
<event>
 7    1  0.4519225E-009  0.4778727E+02  0.7816164E-02  0.1312668E+00
        -11   -1    0    0    0    0  0.00000000000E+00  0.00000000000E+00  0.45593999997E+02  0.45594000000E+02  0.51100000000E-03 0. -1.
         11   -1    0    0    0    0 -0.00000000000E+00 -0.00000000000E+00 -0.45593999997E+02  0.45594000000E+02  0.51100000000E-03 0.  1.
    9900012    2    1    2    0    0  0.26806353744E+02  0.77887787493E+01  0.33232180397E+02  0.47787268562E+02  0.19999988680E+02 0.  0.
        -12    1    1    2    0    0 -0.26806353744E+02 -0.77887787493E+01 -0.33232180397E+02  0.43400731438E+02  0.00000000000E+00 0.  1.
         11    1    3    3    0    0  0.99718916149E+01  0.58840216500E+01  0.13968136666E+02  0.18143020017E+02  0.51100000000E-03 0. -1.
        -11    1    3    3    0    0 -0.22518439891E+01  0.20985524848E+01  0.47726598708E+01  0.56791730372E+01  0.51100000000E-03 0.  1.
         12    1    3    3    0    0  0.19086306118E+02 -0.19379538544E+00  0.14491383860E+02  0.23965075507E+02  0.00000000000E+00 0. -1.
</event>
<event>
 7    1  0.4519225E-009  0.4778727E+02  0.7816164E-02  0.1312668E+00
        -11   -1    0    0    0    0  0.00000000000E+00  0.00000000000E+00  0.45593999997E+02  0.45594000000E+02  0.51100000000E-03 0. -1.
         11   -1    0    0    0    0 -0.00000000000E+00 -0.00000000000E+00 -0.45593999997E+02  0.45594000000E+02  0.51100000000E-03 0.  1.
    9900012    2    1    2    0    0 -0.27002102432E+00 -0.32730211014E+02 -0.28500589891E+02  0.47787271336E+02  0.20000001331E+02 0.  0.
        -12    1    1    2    0    0  0.27002102432E+00  0.32730211014E+02  0.28500589891E+02  0.43400728664E+02  0.00000000000E+00 0.  1.
         11    1    3    3    0    0  0.48181005746E+01 -0.19909559180E+02 -0.18364697607E+02  0.27511211503E+02  0.51100000000E-03 0. -1.
        -11    1    3    3    0    0  0.21369254337E+01  0.46789150206E+00 -0.23973863722E+00  0.22006470963E+01  0.51100000000E-03 0.  1.
         12    1    3    3    0    0 -0.72250470326E+01 -0.13288543336E+02 -0.98961536469E+01  0.18075412737E+02  0.00000000000E+00 0. -1.
</event>
<event>
 7    1  0.5785914E-009  0.4778729E+02  0.7816164E-02  0.1312668E+00
        -11   -1    0    0    0    0  0.00000000000E+00  0.00000000000E+00  0.45593999997E+02  0.45594000000E+02  0.51100000000E-03 0.  1.
         11   -1    0    0    0    0 -0.00000000000E+00 -0.00000000000E+00 -0.45593999997E+02  0.45594000000E+02  0.51100000000E-03 0. -1.
    9900012    2    1    2    0    0 -0.18249099107E+02 -0.24291223174E+02 -0.30992394213E+02  0.47787289861E+02  0.20000085793E+02 0.  0.
        -12    1    1    2    0    0  0.18249099107E+02  0.24291223174E+02  0.30992394213E+02  0.43400710139E+02  0.00000000000E+00 0.  1.
         11    1    3    3    0    0 -0.74143845301E+01 -0.75875209325E+01 -0.25268913345E+01  0.10905445976E+02  0.51100000000E-03 0. -1.
        -11    1    3    3    0    0  0.11325913218E+01 -0.45508044049E+01 -0.14066351899E+01  0.48960398949E+01  0.51100000000E-03 0.  1.
         12    1    3    3    0    0 -0.11967305899E+02 -0.12152897836E+02 -0.27058867689E+02  0.31985803990E+02  0.00000000000E+00 0. -1.
</event>
<event>
 7    1  0.4519225E-009  0.4778727E+02  0.7816164E-02  0.1312668E+00
        -11   -1    0    0    0    0  0.00000000000E+00  0.00000000000E+00  0.45593999997E+02  0.45594000000E+02  0.51100000000E-03 0. -1.
         11   -1    0    0    0    0 -0.00000000000E+00 -0.00000000000E+00 -0.45593999997E+02  0.45594000000E+02  0.51100000000E-03 0.  1.
    9900012    2    1    2    0    0 -0.39575017743E+02  0.10794524361E+02 -0.14174600963E+02  0.47787273071E+02  0.20000009241E+02 0.  0.
        -12    1    1    2    0    0  0.39575017743E+02 -0.10794524361E+02  0.14174600963E+02  0.43400726929E+02  0.00000000000E+00 0.  1.
         11    1    3    3    0    0 -0.55376181731E+01 -0.43721506157E+01 -0.97315069944E+00  0.71223548481E+01  0.51100000000E-03 0. -1.
        -11    1    3    3    0    0 -0.97212113145E+01  0.91830181250E+01 -0.55693085107E+01  0.14486095708E+02  0.51100000000E-03 0.  1.
        -12    1    3    3    0    0 -0.24316188255E+02  0.59836568514E+01 -0.76321417524E+01  0.26178822515E+02  0.00000000000E+00 0.  1.
</event>
<event>
 7    1  0.4519225E-009  0.4778726E+02  0.7816164E-02  0.1312668E+00
        -11   -1    0    0    0    0  0.00000000000E+00  0.00000000000E+00  0.45593999997E+02  0.45594000000E+02  0.51100000000E-03 0. -1.
         11   -1    0    0    0    0 -0.00000000000E+00 -0.00000000000E+00 -0.45593999997E+02  0.45594000000E+02  0.51100000000E-03 0.  1.
    9900012    2    1    2    0    0  0.26134590573E+02  0.46415887222E+00 -0.34646675670E+02  0.47787258038E+02  0.19999940699E+02 0.  0.
        -12    1    1    2    0    0 -0.26134590573E+02 -0.46415887222E+00  0.34646675670E+02  0.43400741962E+02  0.00000000000E+00 0.  1.
         11    1    3    3    0    0  0.41218418321E+01  0.25702171421E+01 -0.11880113599E+02  0.12834823553E+02  0.51100000000E-03 0. -1.
        -11    1    3    3    0    0 -0.18084499708E+01  0.75854884247E+00 -0.41298015069E+01  0.45717773777E+01  0.51100000000E-03 0.  1.
         12    1    3    3    0    0  0.23821198712E+02 -0.28646071123E+01 -0.18636760564E+02  0.30380657108E+02  0.00000000000E+00 0. -1.
</event>
<event>
 7    1  0.4519225E-009  0.4778727E+02  0.7816164E-02  0.1312668E+00
        -11   -1    0    0    0    0  0.00000000000E+00  0.00000000000E+00  0.45593999997E+02  0.45594000000E+02  0.51100000000E-03 0. -1.
         11   -1    0    0    0    0 -0.00000000000E+00 -0.00000000000E+00 -0.45593999997E+02  0.45594000000E+02  0.51100000000E-03 0.  1.
    9900012    2    1    2    0    0  0.26809937053E+02  0.28503619806E+02  0.18772165451E+02  0.47787271175E+02  0.20000000594E+02 0.  0.
        -12    1    1    2    0    0 -0.26809937053E+02 -0.28503619806E+02 -0.18772165451E+02  0.43400728825E+02  0.00000000000E+00 0.  1.
         11    1    3    3    0    0  0.14961042756E+02  0.93371435459E+01  0.12466638312E+02  0.21597039636E+02  0.51100000000E-03 0. -1.
        -11    1    3    3    0    0  0.20216148957E+01 -0.14416026781E+01 -0.75073332974E-01  0.24841057414E+01  0.51100000000E-03 0.  1.
        -12    1    3    3    0    0  0.98272794009E+01  0.20608078939E+02  0.63806004713E+01  0.23706125798E+02  0.00000000000E+00 0.  1.
</event>
<event>
 7    1  0.4519225E-009  0.4778726E+02  0.7816164E-02  0.1312668E+00
        -11   -1    0    0    0    0  0.00000000000E+00  0.00000000000E+00  0.45593999997E+02  0.45594000000E+02  0.51100000000E-03 0.  1.
         11   -1    0    0    0    0 -0.00000000000E+00 -0.00000000000E+00 -0.45593999997E+02  0.45594000000E+02  0.51100000000E-03 0. -1.
    9900012    2    1    2    0    0  0.38195245487E+02 -0.98850880176E+00 -0.20585675201E+02  0.47787263244E+02  0.19999964434E+02 0.  0.
        -12    1    1    2    0    0 -0.38195245487E+02  0.98850880176E+00  0.20585675201E+02  0.43400736756E+02  0.00000000000E+00 0.  1.
         11    1    3    3    0    0  0.14646282923E+02 -0.24978244337E+01 -0.11577112828E+02  0.18835664895E+02  0.51100000000E-03 0. -1.
        -11    1    3    3    0    0  0.18707819805E+02  0.35214651057E+01 -0.12389739738E+02  0.22713187565E+02  0.51100000000E-03 0.  1.
        -12    1    3    3    0    0  0.48411427597E+01 -0.20121494738E+01  0.33811773650E+01  0.62384107831E+01  0.00000000000E+00 0.  1.
</event>
<event>
 7    1  0.4519225E-009  0.4778727E+02  0.7816164E-02  0.1312668E+00
        -11   -1    0    0    0    0  0.00000000000E+00  0.00000000000E+00  0.45593999997E+02  0.45594000000E+02  0.51100000000E-03 0.  1.
         11   -1    0    0    0    0 -0.00000000000E+00 -0.00000000000E+00 -0.45593999997E+02  0.45594000000E+02  0.51100000000E-03 0. -1.
    9900012    2    1    2    0    0 -0.17826691663E+02 -0.27549365349E+02 -0.28405366002E+02  0.47787270922E+02  0.19999999442E+02 0.  0.
        -12    1    1    2    0    0  0.17826691663E+02  0.27549365349E+02  0.28405366002E+02  0.43400729078E+02  0.00000000000E+00 0.  1.
         11    1    3    3    0    0 -0.20291685906E+01 -0.10602042166E+02 -0.27814178887E+01  0.11147067282E+02  0.51100000000E-03 0.  1.
        -11    1    3    3    0    0 -0.12428179805E+02 -0.17804234788E+02 -0.17792511772E+02  0.28071763484E+02  0.51100000000E-03 0. -1.
        -12    1    3    3    0    0 -0.33693432676E+01  0.85691160475E+00 -0.78314363409E+01  0.85684401564E+01  0.00000000000E+00 0.  1.
</event>
<event>
 7    1  0.4519225E-009  0.4778727E+02  0.7816164E-02  0.1312668E+00
        -11   -1    0    0    0    0  0.00000000000E+00  0.00000000000E+00  0.45593999997E+02  0.45594000000E+02  0.51100000000E-03 0.  1.
         11   -1    0    0    0    0 -0.00000000000E+00 -0.00000000000E+00 -0.45593999997E+02  0.45594000000E+02  0.51100000000E-03 0. -1.
    9900012    2    1    2    0    0  0.15756944348E+02 -0.58279004523E+01 -0.40017211458E+02  0.47787274986E+02  0.20000017972E+02 0.  0.
        -12    1    1    2    0    0 -0.15756944348E+02  0.58279004523E+01  0.40017211458E+02  0.43400725014E+02  0.00000000000E+00 0.  1.
         11    1    3    3    0    0  0.13671500080E+02 -0.62917602343E+01 -0.38987304251E+02  0.41791219823E+02  0.51100000000E-03 0. -1.
        -11    1    3    3    0    0  0.37670032201E+00 -0.12566205173E+01 -0.27339044227E+01  0.30323640795E+01  0.51100000000E-03 0.  1.
        -12    1    3    3    0    0  0.17087439453E+01  0.17204802992E+01  0.17039972154E+01  0.29636910839E+01  0.00000000000E+00 0.  1.
</event>
<event>
 7    1  0.4519225E-009  0.4778727E+02  0.7816164E-02  0.1312668E+00
        -11   -1    0    0    0    0  0.00000000000E+00  0.00000000000E+00  0.45593999997E+02  0.45594000000E+02  0.51100000000E-03 0.  1.
         11   -1    0    0    0    0 -0.00000000000E+00 -0.00000000000E+00 -0.45593999997E+02  0.45594000000E+02  0.51100000000E-03 0. -1.
    9900012    2    1    2    0    0 -0.10297460791E+02  0.81935002757E+01 -0.41357618285E+02  0.47787265724E+02  0.19999975743E+02 0.  0.
        -12    1    1    2    0    0  0.10297460791E+02 -0.81935002757E+01  0.41357618285E+02  0.43400734276E+02  0.00000000000E+00 0.  1.
         11    1    3    3    0    0  0.30702006349E+01  0.64965576341E+01 -0.21989429889E+02  0.23133664217E+02  0.51100000000E-03 0. -1.
        -11    1    3    3    0    0 -0.24988637769E+01  0.23013519931E+01 -0.14623212623E+01  0.36985030629E+01  0.51100000000E-03 0.  1.
        -12    1    3    3    0    0 -0.10868797649E+02 -0.60440935156E+00 -0.17905867134E+02  0.20955098444E+02  0.00000000000E+00 0.  1.
</event>
<event>
 7    1  0.4519225E-009  0.4778727E+02  0.7816164E-02  0.1312668E+00
        -11   -1    0    0    0    0  0.00000000000E+00  0.00000000000E+00  0.45593999997E+02  0.45594000000E+02  0.51100000000E-03 0.  1.
         11   -1    0    0    0    0 -0.00000000000E+00 -0.00000000000E+00 -0.45593999997E+02  0.45594000000E+02  0.51100000000E-03 0. -1.
    9900012    2    1    2    0    0 -0.28152106777E+02  0.30535615298E+02  0.12595960939E+02  0.47787272477E+02  0.20000006531E+02 0.  0.
        -12    1    1    2    0    0  0.28152106777E+02 -0.30535615298E+02 -0.12595960939E+02  0.43400727523E+02  0.00000000000E+00 0.  1.
         11    1    3    3    0    0 -0.16779796769E+01  0.43998535330E+01  0.64412448230E+01  0.79789699861E+01  0.51100000000E-03 0. -1.
        -11    1    3    3    0    0 -0.35572959087E+01  0.45490729143E+01 -0.36529783025E+01  0.68332034436E+01  0.51100000000E-03 0.  1.
         12    1    3    3    0    0 -0.22916831191E+02  0.21586688850E+02  0.98076944186E+01  0.32975099047E+02  0.00000000000E+00 0. -1.
</event>
<event>
 7    1  0.4519225E-009  0.4778727E+02  0.7816164E-02  0.1312668E+00
        -11   -1    0    0    0    0  0.00000000000E+00  0.00000000000E+00  0.45593999997E+02  0.45594000000E+02  0.51100000000E-03 0.  1.
         11   -1    0    0    0    0 -0.00000000000E+00 -0.00000000000E+00 -0.45593999997E+02  0.45594000000E+02  0.51100000000E-03 0. -1.
    9900012    2    1    2    0    0  0.37178134374E+02 -0.16923256194E+02 -0.14663324969E+02  0.47787269881E+02  0.19999994696E+02 0.  0.
        -12    1    1    2    0    0 -0.37178134374E+02  0.16923256194E+02  0.14663324969E+02  0.43400730119E+02  0.00000000000E+00 0.  1.
         11    1    3    3    0    0  0.14197847867E+02 -0.38414536443E+01 -0.26077508810E+00  0.14710664637E+02  0.51100000000E-03 0.  1.
        -11    1    3    3    0    0  0.13938783210E+02 -0.11550392090E+01 -0.10830718349E+02  0.17689778211E+02  0.51100000000E-03 0. -1.
        -12    1    3    3    0    0  0.90415032968E+01 -0.11926763341E+02 -0.35718315319E+01  0.15386827033E+02  0.00000000000E+00 0.  1.
</event>
<event>
 7    1  0.4519225E-009  0.4778727E+02  0.7816164E-02  0.1312668E+00
        -11   -1    0    0    0    0  0.00000000000E+00  0.00000000000E+00  0.45593999997E+02  0.45594000000E+02  0.51100000000E-03 0.  1.
         11   -1    0    0    0    0 -0.00000000000E+00 -0.00000000000E+00 -0.45593999997E+02  0.45594000000E+02  0.51100000000E-03 0. -1.
    9900012    2    1    2    0    0  0.35585598516E+02 -0.18007395917E+02 -0.17117887844E+02  0.47787271737E+02  0.20000003160E+02 0.  0.
        -12    1    1    2    0    0 -0.35585598516E+02  0.18007395917E+02  0.17117887844E+02  0.43400728263E+02  0.00000000000E+00 0.  1.
         11    1    3    3    0    0  0.24339473979E+02 -0.14876715172E+02 -0.12733729673E+02  0.31238990373E+02  0.51100000000E-03 0. -1.
        -11    1    3    3    0    0  0.13265995298E+02 -0.14943152492E+01 -0.34802329355E+01  0.13796073023E+02  0.51100000000E-03 0.  1.
        -12    1    3    3    0    0 -0.20198707603E+01 -0.16363654958E+01 -0.90392523581E+00  0.27522083417E+01  0.00000000000E+00 0.  1.
</event>
<event>
 7    1  0.4519225E-009  0.4778726E+02  0.7816164E-02  0.1312668E+00
        -11   -1    0    0    0    0  0.00000000000E+00  0.00000000000E+00  0.45593999997E+02  0.45594000000E+02  0.51100000000E-03 0.  1.
         11   -1    0    0    0    0 -0.00000000000E+00 -0.00000000000E+00 -0.45593999997E+02  0.45594000000E+02  0.51100000000E-03 0. -1.
    9900012    2    1    2    0    0 -0.40449818175E+02 -0.15643280830E+02  0.16504555266E+01  0.47787262346E+02  0.19999960339E+02 0.  0.
        -12    1    1    2    0    0  0.40449818175E+02  0.15643280830E+02 -0.16504555266E+01  0.43400737654E+02  0.00000000000E+00 0.  1.
         11    1    3    3    0    0 -0.13601615443E+02 -0.50011604772E+01 -0.67031581879E+01  0.15967087359E+02  0.51100000000E-03 0. -1.
        -11    1    3    3    0    0  0.95592065002E+00 -0.86059056476E-01  0.17542945252E+00  0.97568755464E+00  0.51100000000E-03 0.  1.
         12    1    3    3    0    0 -0.27804123382E+02 -0.10556061296E+02  0.81781842620E+01  0.30844487432E+02  0.00000000000E+00 0. -1.
</event>
<event>
 7    1  0.4519225E-009  0.4778727E+02  0.7816164E-02  0.1312668E+00
        -11   -1    0    0    0    0  0.00000000000E+00  0.00000000000E+00  0.45593999997E+02  0.45594000000E+02  0.51100000000E-03 0.  1.
         11   -1    0    0    0    0 -0.00000000000E+00 -0.00000000000E+00 -0.45593999997E+02  0.45594000000E+02  0.51100000000E-03 0. -1.
    9900012    2    1    2    0    0  0.39091562321E+02  0.15189575184E+02 -0.11169151111E+02  0.47787269874E+02  0.19999994663E+02 0.  0.
        -12    1    1    2    0    0 -0.39091562321E+02 -0.15189575184E+02  0.11169151111E+02  0.43400730126E+02  0.00000000000E+00 0.  1.
         11    1    3    3    0    0  0.12801599576E+02  0.99236555623E+01 -0.23193889857E+01  0.16362746009E+02  0.51100000000E-03 0. -1.
        -11    1    3    3    0    0  0.11627747668E+02 -0.25613404984E+01 -0.87969729005E+01  0.14803773622E+02  0.51100000000E-03 0.  1.
         12    1    3    3    0    0  0.14662215077E+02  0.78272601199E+01 -0.52789225189E-01  0.16620750243E+02  0.00000000000E+00 0. -1.
</event>
<event>
 7    1  0.4519225E-009  0.4778727E+02  0.7816164E-02  0.1312668E+00
        -11   -1    0    0    0    0  0.00000000000E+00  0.00000000000E+00  0.45593999997E+02  0.45594000000E+02  0.51100000000E-03 0.  1.
         11   -1    0    0    0    0 -0.00000000000E+00 -0.00000000000E+00 -0.45593999997E+02  0.45594000000E+02  0.51100000000E-03 0. -1.
    9900012    2    1    2    0    0 -0.20981274528E+02 -0.33282132077E+02  0.18322368660E+02  0.47787269709E+02  0.19999993912E+02 0.  0.
        -12    1    1    2    0    0  0.20981274528E+02  0.33282132077E+02 -0.18322368660E+02  0.43400730291E+02  0.00000000000E+00 0.  1.
         11    1    3    3    0    0 -0.17057211415E+02 -0.16831156213E+02  0.72765737240E+01  0.25043658002E+02  0.51100000000E-03 0. -1.
        -11    1    3    3    0    0 -0.44502323121E+01 -0.34528338697E+01  0.72724003267E+01  0.91986105546E+01  0.51100000000E-03 0.  1.
         12    1    3    3    0    0  0.52616919819E+00 -0.12998141995E+02  0.37733946096E+01  0.13545001153E+02  0.00000000000E+00 0. -1.
</event>
<event>
 7    1  0.4519225E-009  0.4778727E+02  0.7816164E-02  0.1312668E+00
        -11   -1    0    0    0    0  0.00000000000E+00  0.00000000000E+00  0.45593999997E+02  0.45594000000E+02  0.51100000000E-03 0.  1.
         11   -1    0    0    0    0 -0.00000000000E+00 -0.00000000000E+00 -0.45593999997E+02  0.45594000000E+02  0.51100000000E-03 0. -1.
    9900012    2    1    2    0    0 -0.26304412336E+02  0.98901921826E+01 -0.33073941813E+02  0.47787266864E+02  0.19999980938E+02 0.  0.
        -12    1    1    2    0    0  0.26304412336E+02 -0.98901921826E+01  0.33073941813E+02  0.43400733136E+02  0.00000000000E+00 0.  1.
         11    1    3    3    0    0 -0.11606562582E+02  0.10058251441E+02 -0.20707929729E+02  0.25781758492E+02  0.51100000000E-03 0. -1.
        -11    1    3    3    0    0 -0.27363847902E+01  0.45552820474E+01 -0.30678850199E+01  0.61359852516E+01  0.51100000000E-03 0.  1.
        -12    1    3    3    0    0 -0.11961464964E+02 -0.47233413054E+01 -0.92981270634E+01  0.15869523120E+02  0.00000000000E+00 0.  1.
</event>
<event>
 7    1  0.4519225E-009  0.4778727E+02  0.7816164E-02  0.1312668E+00
        -11   -1    0    0    0    0  0.00000000000E+00  0.00000000000E+00  0.45593999997E+02  0.45594000000E+02  0.51100000000E-03 0. -1.
         11   -1    0    0    0    0 -0.00000000000E+00 -0.00000000000E+00 -0.45593999997E+02  0.45594000000E+02  0.51100000000E-03 0.  1.
    9900012    2    1    2    0    0 -0.41509445638E+02  0.20271649793E+01  0.12509185458E+02  0.47787271944E+02  0.20000004100E+02 0.  0.
        -12    1    1    2    0    0  0.41509445638E+02 -0.20271649793E+01 -0.12509185458E+02  0.43400728056E+02  0.00000000000E+00 0.  1.
         11    1    3    3    0    0 -0.93103859381E+00  0.37685529252E+01  0.17136418500E+01  0.42432761711E+01  0.51100000000E-03 0.  1.
        -11    1    3    3    0    0 -0.24718906394E+02  0.45228001720E+01  0.61567801516E+01  0.25872494986E+02  0.51100000000E-03 0. -1.
        -12    1    3    3    0    0 -0.15859500650E+02 -0.62641881179E+01  0.46387634562E+01  0.17671500786E+02  0.00000000000E+00 0.  1.
</event>
<event>
 7    1  0.4519225E-009  0.4778728E+02  0.7816164E-02  0.1312668E+00
        -11   -1    0    0    0    0  0.00000000000E+00  0.00000000000E+00  0.45593999997E+02  0.45594000000E+02  0.51100000000E-03 0.  1.
         11   -1    0    0    0    0 -0.00000000000E+00 -0.00000000000E+00 -0.45593999997E+02  0.45594000000E+02  0.51100000000E-03 0. -1.
    9900012    2    1    2    0    0 -0.72819036786E-02  0.17619733446E+02 -0.39663178400E+02  0.47787276728E+02  0.20000025914E+02 0.  0.
        -12    1    1    2    0    0  0.72819036786E-02 -0.17619733446E+02  0.39663178400E+02  0.43400723272E+02  0.00000000000E+00 0.  1.
         11    1    3    3    0    0 -0.51749701647E+01  0.89270633349E+01 -0.18464775079E+02  0.21152321266E+02  0.51100000000E-03 0. -1.
        -11    1    3    3    0    0 -0.10293811692E+01  0.96767556347E+01 -0.14437871435E+02  0.17411242260E+02  0.51100000000E-03 0.  1.
        -12    1    3    3    0    0  0.61970694301E+01 -0.98408552310E+00 -0.67605318860E+01  0.92237132013E+01  0.00000000000E+00 0.  1.
</event>
<event>
 7    1  0.4519225E-009  0.4778728E+02  0.7816164E-02  0.1312668E+00
        -11   -1    0    0    0    0  0.00000000000E+00  0.00000000000E+00  0.45593999997E+02  0.45594000000E+02  0.51100000000E-03 0.  1.
         11   -1    0    0    0    0 -0.00000000000E+00 -0.00000000000E+00 -0.45593999997E+02  0.45594000000E+02  0.51100000000E-03 0. -1.
    9900012    2    1    2    0    0 -0.36982316604E+02  0.59215966329E+01 -0.21928648621E+02  0.47787277905E+02  0.20000031278E+02 0.  0.
        -12    1    1    2    0    0  0.36982316604E+02 -0.59215966329E+01  0.21928648621E+02  0.43400722095E+02  0.00000000000E+00 0.  1.
         11    1    3    3    0    0 -0.11049018698E+02  0.26923665299E+01 -0.61533488250E+01  0.12930326900E+02  0.51100000000E-03 0. -1.
        -11    1    3    3    0    0 -0.11173012823E+01  0.12604029230E+00 -0.88298706105E+01  0.89011720335E+01  0.51100000000E-03 0.  1.
        -12    1    3    3    0    0 -0.24815996623E+02  0.31031898107E+01 -0.69454291854E+01  0.25955778971E+02  0.00000000000E+00 0.  1.
</event>
<event>
 7    1  0.4519225E-009  0.4778727E+02  0.7816164E-02  0.1312668E+00
        -11   -1    0    0    0    0  0.00000000000E+00  0.00000000000E+00  0.45593999997E+02  0.45594000000E+02  0.51100000000E-03 0.  1.
         11   -1    0    0    0    0 -0.00000000000E+00 -0.00000000000E+00 -0.45593999997E+02  0.45594000000E+02  0.51100000000E-03 0. -1.
    9900012    2    1    2    0    0 -0.11474243359E+02 -0.26003003112E+02 -0.32799521462E+02  0.47787273743E+02  0.20000012302E+02 0.  0.
        -12    1    1    2    0    0  0.11474243359E+02  0.26003003112E+02  0.32799521462E+02  0.43400726257E+02  0.00000000000E+00 0.  1.
         11    1    3    3    0    0  0.47363876620E+01 -0.85034825332E+01 -0.10498461426E+02  0.14316433769E+02  0.51100000000E-03 0. -1.
        -11    1    3    3    0    0 -0.33554054418E+01 -0.27997395635E+01 -0.83097325188E+00  0.44483484698E+01  0.51100000000E-03 0.  1.
         12    1    3    3    0    0 -0.12855225579E+02 -0.14699781016E+02 -0.21470086784E+02  0.29022491504E+02  0.00000000000E+00 0. -1.
</event>
<event>
 7    1  0.4519225E-009  0.4778727E+02  0.7816164E-02  0.1312668E+00
        -11   -1    0    0    0    0  0.00000000000E+00  0.00000000000E+00  0.45593999997E+02  0.45594000000E+02  0.51100000000E-03 0.  1.
         11   -1    0    0    0    0 -0.00000000000E+00 -0.00000000000E+00 -0.45593999997E+02  0.45594000000E+02  0.51100000000E-03 0. -1.
    9900012    2    1    2    0    0  0.22874426928E+02 -0.13692080128E+02 -0.34247792414E+02  0.47787265550E+02  0.19999974949E+02 0.  0.
        -12    1    1    2    0    0 -0.22874426928E+02  0.13692080128E+02  0.34247792414E+02  0.43400734450E+02  0.00000000000E+00 0.  1.
         11    1    3    3    0    0  0.91770933952E+01 -0.32798625884E+01 -0.13094057924E+02  0.16322711018E+02  0.51100000000E-03 0. -1.
        -11    1    3    3    0    0 -0.24999030211E+01 -0.98062047028E+00 -0.83356805838E+01  0.87575511804E+01  0.51100000000E-03 0.  1.
        -12    1    3    3    0    0  0.16197236554E+02 -0.94315970696E+01 -0.12818053906E+02  0.22707003352E+02  0.00000000000E+00 0.  1.
</event>
<event>
 7    1  0.4519225E-009  0.4778733E+02  0.7816164E-02  0.1312668E+00
        -11   -1    0    0    0    0  0.00000000000E+00  0.00000000000E+00  0.45593999997E+02  0.45594000000E+02  0.51100000000E-03 0.  1.
         11   -1    0    0    0    0 -0.00000000000E+00 -0.00000000000E+00 -0.45593999997E+02  0.45594000000E+02  0.51100000000E-03 0. -1.
    9900012    2    1    2    0    0  0.16622381354E+01  0.32249660335E+02 -0.28996806239E+02  0.47787327201E+02  0.20000256037E+02 0.  0.
        -12    1    1    2    0    0 -0.16622381354E+01 -0.32249660335E+02  0.28996806239E+02  0.43400672799E+02  0.00000000000E+00 0.  1.
         11    1    3    3    0    0  0.36261960098E+00  0.86155410509E+00 -0.23852038866E+01  0.25618287009E+01  0.51100000000E-03 0.  1.
        -11    1    3    3    0    0 -0.32931340283E+01 -0.56981736997E+00 -0.61558421358E+01  0.70045568186E+01  0.51100000000E-03 0. -1.
         12    1    3    3    0    0  0.45927525627E+01  0.31957923600E+02 -0.20455760217E+02  0.38220941681E+02  0.00000000000E+00 0. -1.
</event>
<event>
 7    1  0.4519225E-009  0.4778726E+02  0.7816164E-02  0.1312668E+00
        -11   -1    0    0    0    0  0.00000000000E+00  0.00000000000E+00  0.45593999997E+02  0.45594000000E+02  0.51100000000E-03 0. -1.
         11   -1    0    0    0    0 -0.00000000000E+00 -0.00000000000E+00 -0.45593999997E+02  0.45594000000E+02  0.51100000000E-03 0.  1.
    9900012    2    1    2    0    0  0.35669175812E+02  0.24665179263E+02  0.17212561392E+01  0.47787263902E+02  0.19999967436E+02 0.  0.
        -12    1    1    2    0    0 -0.35669175812E+02 -0.24665179263E+02 -0.17212561392E+01  0.43400736098E+02  0.00000000000E+00 0.  1.
         11    1    3    3    0    0  0.16038482404E+02  0.79573512475E+01 -0.56162991262E+01  0.18764199232E+02  0.51100000000E-03 0. -1.
        -11    1    3    3    0    0 -0.33332784411E+00  0.36649114556E+01 -0.90863895497E+00  0.37905551626E+01  0.51100000000E-03 0.  1.
         12    1    3    3    0    0  0.19964021252E+02  0.13042916559E+02  0.82461942203E+01  0.25232509508E+02  0.00000000000E+00 0. -1.
</event>
<event>
 7    1  0.4519225E-009  0.4778727E+02  0.7816164E-02  0.1312668E+00
        -11   -1    0    0    0    0  0.00000000000E+00  0.00000000000E+00  0.45593999997E+02  0.45594000000E+02  0.51100000000E-03 0. -1.
         11   -1    0    0    0    0 -0.00000000000E+00 -0.00000000000E+00 -0.45593999997E+02  0.45594000000E+02  0.51100000000E-03 0.  1.
    9900012    2    1    2    0    0  0.12576264728E+02  0.27176970404E+02  0.31414533523E+02  0.47787273378E+02  0.20000010639E+02 0.  0.
        -12    1    1    2    0    0 -0.12576264728E+02 -0.27176970404E+02 -0.31414533523E+02  0.43400726622E+02  0.00000000000E+00 0.  1.
         11    1    3    3    0    0  0.85223897146E+01  0.11766579378E+02  0.14192828214E+02  0.20310585656E+02  0.51100000000E-03 0. -1.
        -11    1    3    3    0    0  0.83218523636E+01  0.40165742403E+01  0.72289724759E+01  0.11732183885E+02  0.51100000000E-03 0.  1.
         12    1    3    3    0    0 -0.42679773500E+01  0.11393816786E+02  0.99927328324E+01  0.15744503837E+02  0.00000000000E+00 0. -1.
</event>
<event>
 7    1  0.4519225E-009  0.4778727E+02  0.7816164E-02  0.1312668E+00
        -11   -1    0    0    0    0  0.00000000000E+00  0.00000000000E+00  0.45593999997E+02  0.45594000000E+02  0.51100000000E-03 0. -1.
         11   -1    0    0    0    0 -0.00000000000E+00 -0.00000000000E+00 -0.45593999997E+02  0.45594000000E+02  0.51100000000E-03 0.  1.
    9900012    2    1    2    0    0  0.37471283130E+02  0.18803672204E+02  0.11222660989E+02  0.47787271119E+02  0.20000000339E+02 0.  0.
        -12    1    1    2    0    0 -0.37471283130E+02 -0.18803672204E+02 -0.11222660989E+02  0.43400728881E+02  0.00000000000E+00 0.  1.
         11    1    3    3    0    0  0.10718056168E+02  0.13648738668E+01  0.82592102201E+01  0.13599785381E+02  0.51100000000E-03 0. -1.
        -11    1    3    3    0    0  0.11531821135E+02  0.10952662075E+01 -0.45947167236E+00  0.11592826283E+02  0.51100000000E-03 0.  1.
        -12    1    3    3    0    0  0.15221405827E+02  0.16343532129E+02  0.34229224417E+01  0.22594659454E+02  0.00000000000E+00 0.  1.
</event>
<event>
 7    1  0.4519225E-009  0.4778724E+02  0.7816164E-02  0.1312668E+00
        -11   -1    0    0    0    0  0.00000000000E+00  0.00000000000E+00  0.45593999997E+02  0.45594000000E+02  0.51100000000E-03 0. -1.
         11   -1    0    0    0    0 -0.00000000000E+00 -0.00000000000E+00 -0.45593999997E+02  0.45594000000E+02  0.51100000000E-03 0.  1.
    9900012    2    1    2    0    0 -0.38423178820E+02 -0.46576912258E+01 -0.19636470132E+02  0.47787242893E+02  0.19999871646E+02 0.  0.
        -12    1    1    2    0    0  0.38423178820E+02  0.46576912258E+01  0.19636470132E+02  0.43400757107E+02  0.00000000000E+00 0.  1.
         11    1    3    3    0    0 -0.15268998726E+02 -0.38648166226E+01 -0.16893907809E+01  0.15840870275E+02  0.51100000000E-03 0. -1.
        -11    1    3    3    0    0 -0.13988691398E+02  0.45090749118E+01 -0.57188273900E+01  0.15770866513E+02  0.51100000000E-03 0.  1.
        -12    1    3    3    0    0 -0.91654886965E+01 -0.53019495150E+01 -0.12228251961E+02  0.16175506105E+02  0.00000000000E+00 0.  1.
</event>
<event>
 7    1  0.4519225E-009  0.4778727E+02  0.7816164E-02  0.1312668E+00
        -11   -1    0    0    0    0  0.00000000000E+00  0.00000000000E+00  0.45593999997E+02  0.45594000000E+02  0.51100000000E-03 0.  1.
         11   -1    0    0    0    0 -0.00000000000E+00 -0.00000000000E+00 -0.45593999997E+02  0.45594000000E+02  0.51100000000E-03 0. -1.
    9900012    2    1    2    0    0  0.13906065708E+02  0.33062836263E+02 -0.24435499363E+02  0.47787269196E+02  0.19999991573E+02 0.  0.
        -12    1    1    2    0    0 -0.13906065708E+02 -0.33062836263E+02  0.24435499363E+02  0.43400730804E+02  0.00000000000E+00 0.  1.
         11    1    3    3    0    0  0.71086971467E+01  0.99834776882E+01 -0.79973971518E+01  0.14634266751E+02  0.51100000000E-03 0. -1.
        -11    1    3    3    0    0 -0.94269528838E-02  0.13797135059E+02 -0.16671341402E+02  0.21640116661E+02  0.51100000000E-03 0.  1.
        -12    1    3    3    0    0  0.68067955139E+01  0.92822235158E+01  0.23323919080E+00  0.11512885784E+02  0.00000000000E+00 0.  1.
</event>
<event>
 7    1  0.4519225E-009  0.4778728E+02  0.7816164E-02  0.1312668E+00
        -11   -1    0    0    0    0  0.00000000000E+00  0.00000000000E+00  0.45593999997E+02  0.45594000000E+02  0.51100000000E-03 0.  1.
         11   -1    0    0    0    0 -0.00000000000E+00 -0.00000000000E+00 -0.45593999997E+02  0.45594000000E+02  0.51100000000E-03 0. -1.
    9900012    2    1    2    0    0 -0.27199114323E+02  0.25858767325E+01 -0.33721568470E+02  0.47787276981E+02  0.20000027069E+02 0.  0.
        -12    1    1    2    0    0  0.27199114323E+02 -0.25858767325E+01  0.33721568470E+02  0.43400723019E+02  0.00000000000E+00 0.  1.
         11    1    3    3    0    0 -0.13210768992E+02 -0.54998767597E+01 -0.12738438695E+02  0.19158311053E+02  0.51100000000E-03 0. -1.
        -11    1    3    3    0    0 -0.89163092474E+00  0.14338929514E+00 -0.93545189770E+01  0.93980099887E+01  0.51100000000E-03 0.  1.
        -12    1    3    3    0    0 -0.13096714407E+02  0.79423641971E+01 -0.11628610798E+02  0.19230955940E+02  0.00000000000E+00 0.  1.
</event>
<event>
 7    1  0.4519225E-009  0.4778727E+02  0.7816164E-02  0.1312668E+00
        -11   -1    0    0    0    0  0.00000000000E+00  0.00000000000E+00  0.45593999997E+02  0.45594000000E+02  0.51100000000E-03 0.  1.
         11   -1    0    0    0    0 -0.00000000000E+00 -0.00000000000E+00 -0.45593999997E+02  0.45594000000E+02  0.51100000000E-03 0. -1.
    9900012    2    1    2    0    0  0.73106194843E+01 -0.11619101992E+02 -0.41172499775E+02  0.47787269291E+02  0.19999992004E+02 0.  0.
        -12    1    1    2    0    0 -0.73106194843E+01  0.11619101992E+02  0.41172499775E+02  0.43400730709E+02  0.00000000000E+00 0.  1.
         11    1    3    3    0    0  0.44984070873E+01 -0.83390459999E+01 -0.13707636730E+02  0.16663572831E+02  0.51100000000E-03 0.  1.
        -11    1    3    3    0    0  0.39624783962E+01 -0.46625616167E+01 -0.34163068779E+01  0.70079860741E+01  0.51100000000E-03 0. -1.
         12    1    3    3    0    0 -0.11502659992E+01  0.13825056243E+01 -0.24048556167E+02  0.24115710385E+02  0.00000000000E+00 0. -1.
</event>
<event>
 7    1  0.4519225E-009  0.4778726E+02  0.7816164E-02  0.1312668E+00
        -11   -1    0    0    0    0  0.00000000000E+00  0.00000000000E+00  0.45593999997E+02  0.45594000000E+02  0.51100000000E-03 0. -1.
         11   -1    0    0    0    0 -0.00000000000E+00 -0.00000000000E+00 -0.45593999997E+02  0.45594000000E+02  0.51100000000E-03 0.  1.
    9900012    2    1    2    0    0 -0.14646667809E+02  0.72836777128E+01  0.40200091924E+02  0.47787260034E+02  0.19999949799E+02 0.  0.
        -12    1    1    2    0    0  0.14646667809E+02 -0.72836777128E+01 -0.40200091924E+02  0.43400739966E+02  0.00000000000E+00 0.  1.
         11    1    3    3    0    0 -0.71901158172E+00  0.60891679727E+01  0.13004344848E+02  0.14377340834E+02  0.51100000000E-03 0. -1.
        -11    1    3    3    0    0  0.16099825540E+01 -0.24296332142E+01  0.18230625555E+01  0.34378363432E+01  0.51100000000E-03 0.  1.
         12    1    3    3    0    0 -0.15537638781E+02  0.36241429543E+01  0.25372684520E+02  0.29972082857E+02  0.00000000000E+00 0. -1.
</event>
<event>
 7    1  0.4519225E-009  0.4778727E+02  0.7816164E-02  0.1312668E+00
        -11   -1    0    0    0    0  0.00000000000E+00  0.00000000000E+00  0.45593999997E+02  0.45594000000E+02  0.51100000000E-03 0. -1.
         11   -1    0    0    0    0 -0.00000000000E+00 -0.00000000000E+00 -0.45593999997E+02  0.45594000000E+02  0.51100000000E-03 0.  1.
    9900012    2    1    2    0    0 -0.42449069807E+02  0.21857710183E+01  0.87705248746E+01  0.47787271561E+02  0.20000002356E+02 0.  0.
        -12    1    1    2    0    0  0.42449069807E+02 -0.21857710183E+01 -0.87705248746E+01  0.43400728439E+02  0.00000000000E+00 0.  1.
         11    1    3    3    0    0 -0.11049593548E+02 -0.13096604935E+01 -0.39933688929E+01  0.11821832496E+02  0.51100000000E-03 0. -1.
        -11    1    3    3    0    0 -0.48998861119E+01 -0.33686709514E+01  0.42110041727E+01  0.72862462415E+01  0.51100000000E-03 0.  1.
         12    1    3    3    0    0 -0.26499590147E+02  0.68641024632E+01  0.85528895947E+01  0.28679192823E+02  0.00000000000E+00 0. -1.
</event>
<event>
 7    1  0.4519225E-009  0.4778727E+02  0.7816164E-02  0.1312668E+00
        -11   -1    0    0    0    0  0.00000000000E+00  0.00000000000E+00  0.45593999997E+02  0.45594000000E+02  0.51100000000E-03 0.  1.
         11   -1    0    0    0    0 -0.00000000000E+00 -0.00000000000E+00 -0.45593999997E+02  0.45594000000E+02  0.51100000000E-03 0. -1.
    9900012    2    1    2    0    0 -0.27544366497E+02 -0.33260504165E+02 -0.43208843960E+01  0.47787270686E+02  0.19999998365E+02 0.  0.
        -12    1    1    2    0    0  0.27544366497E+02  0.33260504165E+02  0.43208843960E+01  0.43400729314E+02  0.00000000000E+00 0.  1.
         11    1    3    3    0    0 -0.96376135823E+01 -0.13599493797E+02 -0.83344989803E+01  0.18635817680E+02  0.51100000000E-03 0. -1.
        -11    1    3    3    0    0 -0.14915793308E+02 -0.19139854689E+02  0.18634205520E+00  0.24266224493E+02  0.51100000000E-03 0.  1.
        -12    1    3    3    0    0 -0.29909596073E+01 -0.52115567930E+00  0.38272725290E+01  0.48852285132E+01  0.00000000000E+00 0.  1.
</event>
<event>
 7    1  0.4519225E-009  0.4778727E+02  0.7816164E-02  0.1312668E+00
        -11   -1    0    0    0    0  0.00000000000E+00  0.00000000000E+00  0.45593999997E+02  0.45594000000E+02  0.51100000000E-03 0.  1.
         11   -1    0    0    0    0 -0.00000000000E+00 -0.00000000000E+00 -0.45593999997E+02  0.45594000000E+02  0.51100000000E-03 0. -1.
    9900012    2    1    2    0    0  0.23172025470E+02  0.43668278283E+01 -0.36436401787E+02  0.47787270457E+02  0.19999997323E+02 0.  0.
        -12    1    1    2    0    0 -0.23172025470E+02 -0.43668278283E+01  0.36436401787E+02  0.43400729543E+02  0.00000000000E+00 0.  1.
         11    1    3    3    0    0  0.10365149139E+02 -0.82566216533E+00 -0.21209364937E+02  0.23621075250E+02  0.51100000000E-03 0. -1.
        -11    1    3    3    0    0  0.32523391107E+01 -0.13895884087E+00 -0.12462961701E+02  0.12881088225E+02  0.51100000000E-03 0.  1.
        -12    1    3    3    0    0  0.95545372196E+01  0.53314488345E+01 -0.27640751495E+01  0.11285106982E+02  0.00000000000E+00 0.  1.
</event>
<event>
 7    1  0.4519225E-009  0.4778727E+02  0.7816164E-02  0.1312668E+00
        -11   -1    0    0    0    0  0.00000000000E+00  0.00000000000E+00  0.45593999997E+02  0.45594000000E+02  0.51100000000E-03 0.  1.
         11   -1    0    0    0    0 -0.00000000000E+00 -0.00000000000E+00 -0.45593999997E+02  0.45594000000E+02  0.51100000000E-03 0. -1.
    9900012    2    1    2    0    0  0.51995592054E+01  0.14247122001E+02 -0.40664571897E+02  0.47787270642E+02  0.19999998165E+02 0.  0.
        -12    1    1    2    0    0 -0.51995592054E+01 -0.14247122001E+02  0.40664571897E+02  0.43400729358E+02  0.00000000000E+00 0.  1.
         11    1    3    3    0    0 -0.39246546214E+00  0.32679557541E+01  0.60847749184E+00  0.33472091463E+01  0.51100000000E-03 0.  1.
        -11    1    3    3    0    0 -0.72892609591E+00  0.40469726467E+01 -0.31506950914E+01  0.51803668477E+01  0.51100000000E-03 0. -1.
         12    1    3    3    0    0  0.63209507634E+01  0.69321936003E+01 -0.38122354297E+02  0.39259694648E+02  0.00000000000E+00 0. -1.
</event>
<event>
 7    1  0.4519225E-009  0.4778727E+02  0.7816164E-02  0.1312668E+00
        -11   -1    0    0    0    0  0.00000000000E+00  0.00000000000E+00  0.45593999997E+02  0.45594000000E+02  0.51100000000E-03 0.  1.
         11   -1    0    0    0    0 -0.00000000000E+00 -0.00000000000E+00 -0.45593999997E+02  0.45594000000E+02  0.51100000000E-03 0. -1.
    9900012    2    1    2    0    0 -0.21557530746E+02  0.36381591288E+02 -0.97609392240E+01  0.47787271307E+02  0.20000001198E+02 0.  0.
        -12    1    1    2    0    0  0.21557530746E+02 -0.36381591288E+02  0.97609392240E+01  0.43400728693E+02  0.00000000000E+00 0.  1.
         11    1    3    3    0    0 -0.11064911220E+02  0.13655728174E+02 -0.47173681992E+01  0.18197932170E+02  0.51100000000E-03 0. -1.
        -11    1    3    3    0    0 -0.12943208847E+02  0.22984316506E+02 -0.33290224517E+01  0.26587362624E+02  0.51100000000E-03 0.  1.
        -12    1    3    3    0    0  0.24505893216E+01 -0.25845339209E+00 -0.17145485730E+01  0.30019765136E+01  0.00000000000E+00 0.  1.
</event>
<event>
 7    1  0.4519225E-009  0.4778727E+02  0.7816164E-02  0.1312668E+00
        -11   -1    0    0    0    0  0.00000000000E+00  0.00000000000E+00  0.45593999997E+02  0.45594000000E+02  0.51100000000E-03 0.  1.
         11   -1    0    0    0    0 -0.00000000000E+00 -0.00000000000E+00 -0.45593999997E+02  0.45594000000E+02  0.51100000000E-03 0. -1.
    9900012    2    1    2    0    0 -0.79958477439E+01 -0.48101504603E+01 -0.42385754008E+02  0.47787271073E+02  0.20000000131E+02 0.  0.
        -12    1    1    2    0    0  0.79958477439E+01  0.48101504603E+01  0.42385754008E+02  0.43400728927E+02  0.00000000000E+00 0.  1.
         11    1    3    3    0    0 -0.35184299602E+01 -0.10301111455E+01 -0.33074376767E+02  0.33276942124E+02  0.51100000000E-03 0. -1.
        -11    1    3    3    0    0  0.29239451114E+01 -0.63660789626E+00 -0.34046890087E+01  0.45328393017E+01  0.51100000000E-03 0.  1.
        -12    1    3    3    0    0 -0.74013628951E+01 -0.31434314185E+01 -0.59066882317E+01  0.99774896469E+01  0.00000000000E+00 0.  1.
</event>
<event>
 7    1  0.4519225E-009  0.4778730E+02  0.7816164E-02  0.1312668E+00
        -11   -1    0    0    0    0  0.00000000000E+00  0.00000000000E+00  0.45593999997E+02  0.45594000000E+02  0.51100000000E-03 0.  1.
         11   -1    0    0    0    0 -0.00000000000E+00 -0.00000000000E+00 -0.45593999997E+02  0.45594000000E+02  0.51100000000E-03 0. -1.
    9900012    2    1    2    0    0 -0.96769616238E+01 -0.12921353924E+02 -0.40286672311E+02  0.47787297939E+02  0.20000122622E+02 0.  0.
        -12    1    1    2    0    0  0.96769616238E+01  0.12921353924E+02  0.40286672311E+02  0.43400702061E+02  0.00000000000E+00 0.  1.
         11    1    3    3    0    0 -0.29166542922E+01 -0.11976503620E+02 -0.18920523040E+02  0.22581623139E+02  0.51100000000E-03 0. -1.
        -11    1    3    3    0    0  0.19852613744E+01 -0.12939428366E+01 -0.29374560310E+00  0.23878520745E+01  0.51100000000E-03 0.  1.
        -12    1    3    3    0    0 -0.87455687060E+01  0.34909253252E+00 -0.21072403668E+02  0.22817822726E+02  0.00000000000E+00 0.  1.
</event>
<event>
 7    1  0.4519225E-009  0.4778727E+02  0.7816164E-02  0.1312668E+00
        -11   -1    0    0    0    0  0.00000000000E+00  0.00000000000E+00  0.45593999997E+02  0.45594000000E+02  0.51100000000E-03 0. -1.
         11   -1    0    0    0    0 -0.00000000000E+00 -0.00000000000E+00 -0.45593999997E+02  0.45594000000E+02  0.51100000000E-03 0.  1.
    9900012    2    1    2    0    0  0.90055227246E+00  0.29959281854E+02  0.31388746898E+02  0.47787274252E+02  0.20000014624E+02 0.  0.
        -12    1    1    2    0    0 -0.90055227246E+00 -0.29959281854E+02 -0.31388746898E+02  0.43400725748E+02  0.00000000000E+00 0.  1.
         11    1    3    3    0    0  0.14446020589E+01  0.16949155828E+02  0.21450859166E+02  0.27376999792E+02  0.51100000000E-03 0. -1.
        -11    1    3    3    0    0  0.66638832199E+00  0.15114224159E+02  0.96994305877E+01  0.17971165775E+02  0.51100000000E-03 0.  1.
        -12    1    3    3    0    0 -0.12104381084E+01 -0.21040981328E+01  0.23845714448E+00  0.24391086849E+01  0.00000000000E+00 0.  1.
</event>
<event>
 7    1  0.4519225E-009  0.4778727E+02  0.7816164E-02  0.1312668E+00
        -11   -1    0    0    0    0  0.00000000000E+00  0.00000000000E+00  0.45593999997E+02  0.45594000000E+02  0.51100000000E-03 0.  1.
         11   -1    0    0    0    0 -0.00000000000E+00 -0.00000000000E+00 -0.45593999997E+02  0.45594000000E+02  0.51100000000E-03 0. -1.
    9900012    2    1    2    0    0 -0.36849271289E+02  0.22926762979E+02  0.34367681541E+00  0.47787269949E+02  0.19999995005E+02 0.  0.
        -12    1    1    2    0    0  0.36849271289E+02 -0.22926762979E+02 -0.34367681541E+00  0.43400730051E+02  0.00000000000E+00 0.  1.
         11    1    3    3    0    0 -0.13121909724E+02  0.34694432843E+01  0.40288766499E+01  0.14158156618E+02  0.51100000000E-03 0. -1.
        -11    1    3    3    0    0 -0.72049533606E+01  0.84385570311E+01  0.47275911841E+01  0.12061124175E+02  0.51100000000E-03 0.  1.
         12    1    3    3    0    0 -0.16522408205E+02  0.11018762664E+02 -0.84127910186E+01  0.21567989156E+02  0.00000000000E+00 0. -1.
</event>
<event>
 7    1  0.4519225E-009  0.4778727E+02  0.7816164E-02  0.1312668E+00
        -11   -1    0    0    0    0  0.00000000000E+00  0.00000000000E+00  0.45593999997E+02  0.45594000000E+02  0.51100000000E-03 0. -1.
         11   -1    0    0    0    0 -0.00000000000E+00 -0.00000000000E+00 -0.45593999997E+02  0.45594000000E+02  0.51100000000E-03 0.  1.
    9900012    2    1    2    0    0 -0.98170673725E+01  0.40581140152E+02  0.11849863639E+02  0.47787274015E+02  0.20000013542E+02 0.  0.
        -12    1    1    2    0    0  0.98170673725E+01 -0.40581140152E+02 -0.11849863639E+02  0.43400725985E+02  0.00000000000E+00 0.  1.
         11    1    3    3    0    0 -0.53584499523E+01  0.33133871068E+02  0.15243956652E+02  0.36863865946E+02  0.51100000000E-03 0. -1.
        -11    1    3    3    0    0  0.78611923918E-01  0.53101658004E+00  0.13043206175E+01  0.14104648089E+01  0.51100000000E-03 0.  1.
        -12    1    3    3    0    0 -0.45372293442E+01  0.69162525035E+01 -0.46984136302E+01  0.95129432593E+01  0.00000000000E+00 0.  1.
</event>
<event>
 7    1  0.4519225E-009  0.4778727E+02  0.7816164E-02  0.1312668E+00
        -11   -1    0    0    0    0  0.00000000000E+00  0.00000000000E+00  0.45593999997E+02  0.45594000000E+02  0.51100000000E-03 0.  1.
         11   -1    0    0    0    0 -0.00000000000E+00 -0.00000000000E+00 -0.45593999997E+02  0.45594000000E+02  0.51100000000E-03 0. -1.
    9900012    2    1    2    0    0  0.17683527175E+02 -0.17097305104E+01 -0.39597890352E+02  0.47787271526E+02  0.20000002194E+02 0.  0.
        -12    1    1    2    0    0 -0.17683527175E+02  0.17097305104E+01  0.39597890352E+02  0.43400728474E+02  0.00000000000E+00 0.  1.
         11    1    3    3    0    0  0.51147730686E+01  0.28923718079E+01 -0.19146016934E+02  0.20027398306E+02  0.51100000000E-03 0. -1.
        -11    1    3    3    0    0  0.98559808160E+01  0.72824981516E+00 -0.19279723709E+02  0.21665143715E+02  0.51100000000E-03 0.  1.
        -12    1    3    3    0    0  0.27127732903E+01 -0.53303521334E+01 -0.11721497090E+01  0.60947295043E+01  0.00000000000E+00 0.  1.
</event>
<event>
 7    1  0.4519225E-009  0.4778727E+02  0.7816164E-02  0.1312668E+00
        -11   -1    0    0    0    0  0.00000000000E+00  0.00000000000E+00  0.45593999997E+02  0.45594000000E+02  0.51100000000E-03 0. -1.
         11   -1    0    0    0    0 -0.00000000000E+00 -0.00000000000E+00 -0.45593999997E+02  0.45594000000E+02  0.51100000000E-03 0.  1.
    9900012    2    1    2    0    0 -0.41688594323E+02 -0.11993433263E+02  0.13572135784E+01  0.47787269974E+02  0.19999995122E+02 0.  0.
        -12    1    1    2    0    0  0.41688594323E+02  0.11993433263E+02 -0.13572135784E+01  0.43400730026E+02  0.00000000000E+00 0.  1.
         11    1    3    3    0    0 -0.32033354860E+02 -0.10456504936E+02 -0.64937690544E+01  0.34316808649E+02  0.51100000000E-03 0. -1.
        -11    1    3    3    0    0 -0.46737889373E+01  0.16869859689E+01  0.29838806330E+01  0.57960131628E+01  0.51100000000E-03 0.  1.
         12    1    3    3    0    0 -0.49814505255E+01 -0.32239142954E+01  0.48671019998E+01  0.76744481624E+01  0.00000000000E+00 0. -1.
</event>
<event>
 7    1  0.4519225E-009  0.4778726E+02  0.7816164E-02  0.1312668E+00
        -11   -1    0    0    0    0  0.00000000000E+00  0.00000000000E+00  0.45593999997E+02  0.45594000000E+02  0.51100000000E-03 0.  1.
         11   -1    0    0    0    0 -0.00000000000E+00 -0.00000000000E+00 -0.45593999997E+02  0.45594000000E+02  0.51100000000E-03 0. -1.
    9900012    2    1    2    0    0 -0.11237894456E+02 -0.88596118079E+01 -0.40973660016E+02  0.47787264888E+02  0.19999971929E+02 0.  0.
        -12    1    1    2    0    0  0.11237894456E+02  0.88596118079E+01  0.40973660016E+02  0.43400735112E+02  0.00000000000E+00 0.  1.
         11    1    3    3    0    0  0.22384810667E+01  0.18818180432E+01 -0.50892147129E+01  0.58695948147E+01  0.51100000000E-03 0. -1.
        -11    1    3    3    0    0 -0.36510977942E+01  0.29869450448E+01 -0.92543083888E+01  0.10387231576E+02  0.51100000000E-03 0.  1.
         12    1    3    3    0    0 -0.98252777286E+01 -0.13728374896E+02 -0.26630136914E+02  0.31530438497E+02  0.00000000000E+00 0. -1.
</event>
<event>
 7    1  0.4519225E-009  0.4778727E+02  0.7816164E-02  0.1312668E+00
        -11   -1    0    0    0    0  0.00000000000E+00  0.00000000000E+00  0.45593999997E+02  0.45594000000E+02  0.51100000000E-03 0. -1.
         11   -1    0    0    0    0 -0.00000000000E+00 -0.00000000000E+00 -0.45593999997E+02  0.45594000000E+02  0.51100000000E-03 0.  1.
    9900012    2    1    2    0    0  0.36217938429E+02 -0.19591636913E+02  0.13713214699E+02  0.47787267767E+02  0.19999985056E+02 0.  0.
        -12    1    1    2    0    0 -0.36217938429E+02  0.19591636913E+02 -0.13713214699E+02  0.43400732233E+02  0.00000000000E+00 0.  1.
         11    1    3    3    0    0  0.20591728228E+02 -0.15223145807E+02  0.92901308095E+01  0.27240961260E+02  0.51100000000E-03 0.  1.
        -11    1    3    3    0    0  0.14017241658E+02 -0.71535795668E+01  0.61493518841E+01  0.16895895749E+02  0.51100000000E-03 0. -1.
        -12    1    3    3    0    0  0.16089685439E+01  0.27850884607E+01 -0.17262679946E+01  0.36504107575E+01  0.00000000000E+00 0.  1.
</event>
<event>
 7    1  0.4519225E-009  0.4778727E+02  0.7816164E-02  0.1312668E+00
        -11   -1    0    0    0    0  0.00000000000E+00  0.00000000000E+00  0.45593999997E+02  0.45594000000E+02  0.51100000000E-03 0.  1.
         11   -1    0    0    0    0 -0.00000000000E+00 -0.00000000000E+00 -0.45593999997E+02  0.45594000000E+02  0.51100000000E-03 0. -1.
    9900012    2    1    2    0    0  0.32853934127E+02  0.20104067879E+02 -0.20001719513E+02  0.47787270555E+02  0.19999997768E+02 0.  0.
        -12    1    1    2    0    0 -0.32853934127E+02 -0.20104067879E+02  0.20001719513E+02  0.43400729445E+02  0.00000000000E+00 0.  1.
         11    1    3    3    0    0  0.72804161423E+01  0.96442363947E+01 -0.13667577270E+02  0.18243311748E+02  0.51100000000E-03 0. -1.
        -11    1    3    3    0    0  0.93442367784E+01  0.82058023575E+01 -0.20028156442E+01  0.12596079710E+02  0.51100000000E-03 0.  1.
        -12    1    3    3    0    0  0.16229281206E+02  0.22540291272E+01 -0.43313265987E+01  0.16947879097E+02  0.00000000000E+00 0.  1.
</event>
<event>
 7    1  0.4519225E-009  0.4778727E+02  0.7816164E-02  0.1312668E+00
        -11   -1    0    0    0    0  0.00000000000E+00  0.00000000000E+00  0.45593999997E+02  0.45594000000E+02  0.51100000000E-03 0.  1.
         11   -1    0    0    0    0 -0.00000000000E+00 -0.00000000000E+00 -0.45593999997E+02  0.45594000000E+02  0.51100000000E-03 0. -1.
    9900012    2    1    2    0    0  0.13270373851E+02  0.28367737143E+02 -0.30046494328E+02  0.47787272424E+02  0.20000006288E+02 0.  0.
        -12    1    1    2    0    0 -0.13270373851E+02 -0.28367737143E+02  0.30046494328E+02  0.43400727576E+02  0.00000000000E+00 0.  1.
         11    1    3    3    0    0  0.13046542281E+02  0.21946774599E+02 -0.24432161715E+02  0.35338416873E+02  0.51100000000E-03 0. -1.
        -11    1    3    3    0    0  0.35516550078E+01  0.65849480884E+01 -0.51545080938E+01  0.90854140561E+01  0.51100000000E-03 0.  1.
        -12    1    3    3    0    0 -0.33278234382E+01 -0.16398554482E+00 -0.45982451967E+00  0.33634414940E+01  0.00000000000E+00 0.  1.
</event>
<event>
 7    1  0.4519225E-009  0.4778727E+02  0.7816164E-02  0.1312668E+00
        -11   -1    0    0    0    0  0.00000000000E+00  0.00000000000E+00  0.45593999997E+02  0.45594000000E+02  0.51100000000E-03 0. -1.
         11   -1    0    0    0    0 -0.00000000000E+00 -0.00000000000E+00 -0.45593999997E+02  0.45594000000E+02  0.51100000000E-03 0.  1.
    9900012    2    1    2    0    0 -0.13804788262E+02  0.18841380167E+02  0.36579414797E+02  0.47787269909E+02  0.19999994823E+02 0.  0.
        -12    1    1    2    0    0  0.13804788262E+02 -0.18841380167E+02 -0.36579414797E+02  0.43400730091E+02  0.00000000000E+00 0.  1.
         11    1    3    3    0    0 -0.10587302056E+02  0.12587871069E+01  0.94387830259E+01  0.14239597434E+02  0.51100000000E-03 0. -1.
        -11    1    3    3    0    0  0.21528009401E+01  0.11861278892E+01  0.30886940345E+01  0.39473386423E+01  0.51100000000E-03 0.  1.
        -12    1    3    3    0    0 -0.53702871454E+01  0.16396465171E+02  0.24051937737E+02  0.29600333833E+02  0.00000000000E+00 0.  1.
</event>
<event>
 7    1  0.4519225E-009  0.4778727E+02  0.7816164E-02  0.1312668E+00
        -11   -1    0    0    0    0  0.00000000000E+00  0.00000000000E+00  0.45593999997E+02  0.45594000000E+02  0.51100000000E-03 0.  1.
         11   -1    0    0    0    0 -0.00000000000E+00 -0.00000000000E+00 -0.45593999997E+02  0.45594000000E+02  0.51100000000E-03 0. -1.
    9900012    2    1    2    0    0  0.25993681241E+02 -0.19805678409E+02 -0.28560230820E+02  0.47787272515E+02  0.20000006707E+02 0.  0.
        -12    1    1    2    0    0 -0.25993681241E+02  0.19805678409E+02  0.28560230820E+02  0.43400727485E+02  0.00000000000E+00 0.  1.
         11    1    3    3    0    0  0.12451432362E+02 -0.11420118278E+02 -0.95344242772E+01  0.19400064843E+02  0.51100000000E-03 0. -1.
        -11    1    3    3    0    0 -0.14860844255E+01 -0.50826515943E+01 -0.26674545603E+01  0.59293429856E+01  0.51100000000E-03 0.  1.
        -12    1    3    3    0    0  0.15028333305E+02 -0.33029085364E+01 -0.16358351982E+02  0.22457864687E+02  0.00000000000E+00 0.  1.
</event>
<event>
 7    1  0.4519225E-009  0.4778727E+02  0.7816164E-02  0.1312668E+00
        -11   -1    0    0    0    0  0.00000000000E+00  0.00000000000E+00  0.45593999997E+02  0.45594000000E+02  0.51100000000E-03 0. -1.
         11   -1    0    0    0    0 -0.00000000000E+00 -0.00000000000E+00 -0.45593999997E+02  0.45594000000E+02  0.51100000000E-03 0.  1.
    9900012    2    1    2    0    0 -0.68582817550E+01  0.81376930729E+01  0.42075708041E+02  0.47787270924E+02  0.19999999453E+02 0.  0.
        -12    1    1    2    0    0  0.68582817550E+01 -0.81376930729E+01 -0.42075708041E+02  0.43400729076E+02  0.00000000000E+00 0.  1.
         11    1    3    3    0    0  0.34656418978E+01  0.35556568830E+00  0.39189390681E+01  0.52435850716E+01  0.51100000000E-03 0. -1.
        -11    1    3    3    0    0  0.31568936302E+01  0.76307014220E+00  0.10436699279E+02  0.10930368042E+02  0.51100000000E-03 0.  1.
         12    1    3    3    0    0 -0.13480817283E+02  0.70190572424E+01  0.27720069694E+02  0.31613317811E+02  0.00000000000E+00 0. -1.
</event>
<event>
 7    1  0.4519225E-009  0.4778727E+02  0.7816164E-02  0.1312668E+00
        -11   -1    0    0    0    0  0.00000000000E+00  0.00000000000E+00  0.45593999997E+02  0.45594000000E+02  0.51100000000E-03 0. -1.
         11   -1    0    0    0    0 -0.00000000000E+00 -0.00000000000E+00 -0.45593999997E+02  0.45594000000E+02  0.51100000000E-03 0.  1.
    9900012    2    1    2    0    0 -0.36806608079E+02  0.20413812412E+02 -0.10591180265E+02  0.47787271494E+02  0.20000002048E+02 0.  0.
        -12    1    1    2    0    0  0.36806608079E+02 -0.20413812412E+02  0.10591180265E+02  0.43400728506E+02  0.00000000000E+00 0.  1.
         11    1    3    3    0    0 -0.29519146304E+02  0.90274382019E+01 -0.65106192310E+01  0.31547786009E+02  0.51100000000E-03 0. -1.
        -11    1    3    3    0    0 -0.59668004030E+01  0.52509787362E+01  0.11989738114E+01  0.80382226393E+01  0.51100000000E-03 0.  1.
         12    1    3    3    0    0 -0.13206613720E+01  0.61353954738E+01 -0.52795348451E+01  0.82012628454E+01  0.00000000000E+00 0. -1.
</event>
<event>
 7    1  0.4519225E-009  0.4778726E+02  0.7816164E-02  0.1312668E+00
        -11   -1    0    0    0    0  0.00000000000E+00  0.00000000000E+00  0.45593999997E+02  0.45594000000E+02  0.51100000000E-03 0.  1.
         11   -1    0    0    0    0 -0.00000000000E+00 -0.00000000000E+00 -0.45593999997E+02  0.45594000000E+02  0.51100000000E-03 0. -1.
    9900012    2    1    2    0    0 -0.83173042429E+01  0.31320333045E+02 -0.28870111666E+02  0.47787260841E+02  0.19999953480E+02 0.  0.
        -12    1    1    2    0    0  0.83173042429E+01 -0.31320333045E+02  0.28870111666E+02  0.43400739159E+02  0.00000000000E+00 0.  1.
         11    1    3    3    0    0 -0.13755450851E+02  0.19838615160E+02 -0.16801585919E+02  0.29412180627E+02  0.51100000000E-03 0. -1.
        -11    1    3    3    0    0  0.11767175435E+01 -0.39075970178E+00 -0.11751280744E+01  0.17082984441E+01  0.51100000000E-03 0.  1.
         12    1    3    3    0    0  0.42614290646E+01  0.11872477587E+02 -0.10893397673E+02  0.16666781770E+02  0.00000000000E+00 0. -1.
</event>
<event>
 7    1  0.4519225E-009  0.4778727E+02  0.7816164E-02  0.1312668E+00
        -11   -1    0    0    0    0  0.00000000000E+00  0.00000000000E+00  0.45593999997E+02  0.45594000000E+02  0.51100000000E-03 0.  1.
         11   -1    0    0    0    0 -0.00000000000E+00 -0.00000000000E+00 -0.45593999997E+02  0.45594000000E+02  0.51100000000E-03 0. -1.
    9900012    2    1    2    0    0 -0.24079772541E+02  0.48948355174E+01 -0.35774687548E+02  0.47787272707E+02  0.20000007581E+02 0.  0.
        -12    1    1    2    0    0  0.24079772541E+02 -0.48948355174E+01  0.35774687548E+02  0.43400727293E+02  0.00000000000E+00 0.  1.
         11    1    3    3    0    0 -0.88804676198E+00 -0.86505499742E+00 -0.87550647327E+01  0.88424038550E+01  0.51100000000E-03 0. -1.
        -11    1    3    3    0    0 -0.68578848613E+01  0.83315836586E+01 -0.15108243855E+02  0.18566230196E+02  0.51100000000E-03 0.  1.
        -12    1    3    3    0    0 -0.16333840918E+02 -0.25716931437E+01 -0.11911378960E+02  0.20378638656E+02  0.00000000000E+00 0.  1.
</event>
<event>
 7    1  0.4519225E-009  0.4778725E+02  0.7816164E-02  0.1312668E+00
        -11   -1    0    0    0    0  0.00000000000E+00  0.00000000000E+00  0.45593999997E+02  0.45594000000E+02  0.51100000000E-03 0.  1.
         11   -1    0    0    0    0 -0.00000000000E+00 -0.00000000000E+00 -0.45593999997E+02  0.45594000000E+02  0.51100000000E-03 0. -1.
    9900012    2    1    2    0    0  0.36163852261E+02  0.23986924736E+02  0.65427209019E+00  0.47787252995E+02  0.19999917704E+02 0.  0.
        -12    1    1    2    0    0 -0.36163852261E+02 -0.23986924736E+02 -0.65427209019E+00  0.43400747005E+02  0.00000000000E+00 0.  1.
         11    1    3    3    0    0  0.17459746372E+02  0.18237900549E+02  0.76578573951E+01  0.26383831033E+02  0.51100000000E-03 0. -1.
        -11    1    3    3    0    0  0.10295138719E+02  0.50965981741E+01 -0.21973264298E+01  0.11695872687E+02  0.51100000000E-03 0.  1.
         12    1    3    3    0    0  0.84089671694E+01  0.65242601266E+00 -0.48062588752E+01  0.97075492754E+01  0.00000000000E+00 0. -1.
</event>
<event>
 7    1  0.4519225E-009  0.4778727E+02  0.7816164E-02  0.1312668E+00
        -11   -1    0    0    0    0  0.00000000000E+00  0.00000000000E+00  0.45593999997E+02  0.45594000000E+02  0.51100000000E-03 0.  1.
         11   -1    0    0    0    0 -0.00000000000E+00 -0.00000000000E+00 -0.45593999997E+02  0.45594000000E+02  0.51100000000E-03 0. -1.
    9900012    2    1    2    0    0  0.31133311484E+02  0.21690054258E+02 -0.21068510917E+02  0.47787266251E+02  0.19999978146E+02 0.  0.
        -12    1    1    2    0    0 -0.31133311484E+02 -0.21690054258E+02  0.21068510917E+02  0.43400733749E+02  0.00000000000E+00 0.  1.
         11    1    3    3    0    0  0.11983815014E+02  0.17191515175E+02 -0.12201377034E+02  0.24249404489E+02  0.51100000000E-03 0. -1.
        -11    1    3    3    0    0  0.36093240461E+01  0.50130764829E+01 -0.16375308954E+01  0.63905918026E+01  0.51100000000E-03 0.  1.
        -12    1    3    3    0    0  0.15540172424E+02 -0.51453739952E+00 -0.72296029881E+01  0.17147269959E+02  0.00000000000E+00 0.  1.
</event>
<event>
 7    1  0.4519225E-009  0.4778727E+02  0.7816164E-02  0.1312668E+00
        -11   -1    0    0    0    0  0.00000000000E+00  0.00000000000E+00  0.45593999997E+02  0.45594000000E+02  0.51100000000E-03 0. -1.
         11   -1    0    0    0    0 -0.00000000000E+00 -0.00000000000E+00 -0.45593999997E+02  0.45594000000E+02  0.51100000000E-03 0.  1.
    9900012    2    1    2    0    0 -0.36489445644E+02 -0.23495874077E+02 -0.29545157345E+00  0.47787273811E+02  0.20000012615E+02 0.  0.
        -12    1    1    2    0    0  0.36489445644E+02  0.23495874077E+02  0.29545157345E+00  0.43400726189E+02  0.00000000000E+00 0.  1.
         11    1    3    3    0    0 -0.94425263125E+00  0.78759063327E+00  0.19270093373E+01  0.22858865423E+01  0.51100000000E-03 0. -1.
        -11    1    3    3    0    0 -0.11765394918E+02 -0.15041672717E+02  0.33480779135E+01  0.19387781246E+02  0.51100000000E-03 0.  1.
         12    1    3    3    0    0 -0.23779798095E+02 -0.92417919936E+01 -0.55705388243E+01  0.26113606023E+02  0.00000000000E+00 0. -1.
</event>
<event>
 7    1  0.4519225E-009  0.4778727E+02  0.7816164E-02  0.1312668E+00
        -11   -1    0    0    0    0  0.00000000000E+00  0.00000000000E+00  0.45593999997E+02  0.45594000000E+02  0.51100000000E-03 0. -1.
         11   -1    0    0    0    0 -0.00000000000E+00 -0.00000000000E+00 -0.45593999997E+02  0.45594000000E+02  0.51100000000E-03 0.  1.
    9900012    2    1    2    0    0 -0.73057339382E+00 -0.28778983867E+02  0.32478602296E+02  0.47787271239E+02  0.20000000888E+02 0.  0.
        -12    1    1    2    0    0  0.73057339382E+00  0.28778983867E+02 -0.32478602296E+02  0.43400728761E+02  0.00000000000E+00 0.  1.
         11    1    3    3    0    0 -0.14400858968E+01 -0.12933441386E+02  0.82763368735E+01  0.15422240621E+02  0.51100000000E-03 0. -1.
        -11    1    3    3    0    0 -0.16102596440E+00 -0.18028699785E+02  0.23983612478E+02  0.30004559871E+02  0.51100000000E-03 0.  1.
        -12    1    3    3    0    0  0.87053846737E+00  0.21831573042E+01  0.21865294418E+00  0.23604707471E+01  0.00000000000E+00 0.  1.
</event>
<event>
 7    1  0.4519225E-009  0.4778727E+02  0.7816164E-02  0.1312668E+00
        -11   -1    0    0    0    0  0.00000000000E+00  0.00000000000E+00  0.45593999997E+02  0.45594000000E+02  0.51100000000E-03 0.  1.
         11   -1    0    0    0    0 -0.00000000000E+00 -0.00000000000E+00 -0.45593999997E+02  0.45594000000E+02  0.51100000000E-03 0. -1.
    9900012    2    1    2    0    0 -0.14309959808E+02  0.61104957363E+01 -0.40515556082E+02  0.47787269678E+02  0.19999993769E+02 0.  0.
        -12    1    1    2    0    0  0.14309959808E+02 -0.61104957363E+01  0.40515556082E+02  0.43400730322E+02  0.00000000000E+00 0.  1.
         11    1    3    3    0    0 -0.55527375230E+01  0.99788670992E+01 -0.21049956521E+02  0.23948097052E+02  0.51100000000E-03 0. -1.
        -11    1    3    3    0    0 -0.29463212016E+01  0.15527589478E+01 -0.13493109431E+02  0.13898052790E+02  0.51100000000E-03 0.  1.
        -12    1    3    3    0    0 -0.58109010833E+01 -0.54211303108E+01 -0.59724901302E+01  0.99411198364E+01  0.00000000000E+00 0.  1.
</event>
<event>
 7    1  0.4519225E-009  0.4778727E+02  0.7816164E-02  0.1312668E+00
        -11   -1    0    0    0    0  0.00000000000E+00  0.00000000000E+00  0.45593999997E+02  0.45594000000E+02  0.51100000000E-03 0. -1.
         11   -1    0    0    0    0 -0.00000000000E+00 -0.00000000000E+00 -0.45593999997E+02  0.45594000000E+02  0.51100000000E-03 0.  1.
    9900012    2    1    2    0    0 -0.15494730120E+02 -0.16628434956E+02  0.36973399664E+02  0.47787265060E+02  0.19999972716E+02 0.  0.
        -12    1    1    2    0    0  0.15494730120E+02  0.16628434956E+02 -0.36973399664E+02  0.43400734940E+02  0.00000000000E+00 0.  1.
         11    1    3    3    0    0 -0.44231544316E+01  0.21783728379E+01  0.12654299250E+02  0.13580901779E+02  0.51100000000E-03 0. -1.
        -11    1    3    3    0    0 -0.30390271034E+01  0.18841585082E-01  0.10475559705E+01  0.32145628806E+01  0.51100000000E-03 0.  1.
        -12    1    3    3    0    0 -0.80325485855E+01 -0.18825649379E+02  0.23271544443E+02  0.30991800401E+02  0.00000000000E+00 0.  1.
</event>
<event>
 7    1  0.4519225E-009  0.4778727E+02  0.7816164E-02  0.1312668E+00
        -11   -1    0    0    0    0  0.00000000000E+00  0.00000000000E+00  0.45593999997E+02  0.45594000000E+02  0.51100000000E-03 0.  1.
         11   -1    0    0    0    0 -0.00000000000E+00 -0.00000000000E+00 -0.45593999997E+02  0.45594000000E+02  0.51100000000E-03 0. -1.
    9900012    2    1    2    0    0  0.23635833082E+02  0.21044700060E+01 -0.36339257685E+02  0.47787273640E+02  0.20000011833E+02 0.  0.
        -12    1    1    2    0    0 -0.23635833082E+02 -0.21044700060E+01  0.36339257685E+02  0.43400726360E+02  0.00000000000E+00 0.  1.
         11    1    3    3    0    0  0.75090116138E+01  0.33831587288E+01 -0.92696557333E+01  0.12399900648E+02  0.51100000000E-03 0. -1.
        -11    1    3    3    0    0  0.14281421488E+02 -0.64327202042E+01 -0.25066673664E+02  0.29558027975E+02  0.51100000000E-03 0.  1.
        -12    1    3    3    0    0  0.18453999808E+01  0.51540314814E+01 -0.20029282878E+01  0.58293450170E+01  0.00000000000E+00 0.  1.
</event>
<event>
 7    1  0.4519225E-009  0.4778727E+02  0.7816164E-02  0.1312668E+00
        -11   -1    0    0    0    0  0.00000000000E+00  0.00000000000E+00  0.45593999997E+02  0.45594000000E+02  0.51100000000E-03 0.  1.
         11   -1    0    0    0    0 -0.00000000000E+00 -0.00000000000E+00 -0.45593999997E+02  0.45594000000E+02  0.51100000000E-03 0. -1.
    9900012    2    1    2    0    0 -0.14310795495E+02  0.40706516818E+02  0.46694451242E+01  0.47787273083E+02  0.20000009295E+02 0.  0.
        -12    1    1    2    0    0  0.14310795495E+02 -0.40706516818E+02 -0.46694451242E+01  0.43400726917E+02  0.00000000000E+00 0.  1.
         11    1    3    3    0    0 -0.28497696727E+00  0.11071414339E+02  0.89714330143E+01  0.14252860693E+02  0.51100000000E-03 0. -1.
        -11    1    3    3    0    0 -0.11725774289E+01  0.29467414594E+01 -0.21553321603E+01  0.38345377867E+01  0.51100000000E-03 0.  1.
         12    1    3    3    0    0 -0.12853241099E+02  0.26688361019E+02 -0.21466557298E+01  0.29699874603E+02  0.00000000000E+00 0. -1.
</event>
<event>
 7    1  0.4519225E-009  0.4778727E+02  0.7816164E-02  0.1312668E+00
        -11   -1    0    0    0    0  0.00000000000E+00  0.00000000000E+00  0.45593999997E+02  0.45594000000E+02  0.51100000000E-03 0. -1.
         11   -1    0    0    0    0 -0.00000000000E+00 -0.00000000000E+00 -0.45593999997E+02  0.45594000000E+02  0.51100000000E-03 0.  1.
    9900012    2    1    2    0    0  0.24696516903E+02  0.10746395887E+02  0.34032636815E+02  0.47787270279E+02  0.19999996509E+02 0.  0.
        -12    1    1    2    0    0 -0.24696516903E+02 -0.10746395887E+02 -0.34032636815E+02  0.43400729721E+02  0.00000000000E+00 0.  1.
         11    1    3    3    0    0  0.12656500316E+02 -0.23346693815E+01  0.17560977913E+02  0.21772129590E+02  0.51100000000E-03 0. -1.
        -11    1    3    3    0    0  0.22202856815E+01  0.63788985661E+00  0.73988252396E+01  0.77510765165E+01  0.51100000000E-03 0.  1.
        -12    1    3    3    0    0  0.98197309060E+01  0.12443175412E+02  0.90728336626E+01  0.18264064172E+02  0.00000000000E+00 0.  1.
</event>
<event>
 7    1  0.4519225E-009  0.4778727E+02  0.7816164E-02  0.1312668E+00
        -11   -1    0    0    0    0  0.00000000000E+00  0.00000000000E+00  0.45593999997E+02  0.45594000000E+02  0.51100000000E-03 0.  1.
         11   -1    0    0    0    0 -0.00000000000E+00 -0.00000000000E+00 -0.45593999997E+02  0.45594000000E+02  0.51100000000E-03 0. -1.
    9900012    2    1    2    0    0  0.40853754808E+02  0.14588460200E+02  0.13306015550E+01  0.47787274736E+02  0.20000016834E+02 0.  0.
        -12    1    1    2    0    0 -0.40853754808E+02 -0.14588460200E+02 -0.13306015550E+01  0.43400725264E+02  0.00000000000E+00 0.  1.
         11    1    3    3    0    0  0.80861562246E+01  0.45502560487E+01 -0.16935137267E+01  0.94317941878E+01  0.51100000000E-03 0. -1.
        -11    1    3    3    0    0  0.15092553006E+02 -0.16642954142E+01 -0.45401574352E+01  0.15848282723E+02  0.51100000000E-03 0.  1.
        -12    1    3    3    0    0  0.17675045577E+02  0.11702499566E+02  0.75642727170E+01  0.22507197826E+02  0.00000000000E+00 0.  1.
</event>
<event>
 7    1  0.4519225E-009  0.4778728E+02  0.7816164E-02  0.1312668E+00
        -11   -1    0    0    0    0  0.00000000000E+00  0.00000000000E+00  0.45593999997E+02  0.45594000000E+02  0.51100000000E-03 0.  1.
         11   -1    0    0    0    0 -0.00000000000E+00 -0.00000000000E+00 -0.45593999997E+02  0.45594000000E+02  0.51100000000E-03 0. -1.
    9900012    2    1    2    0    0 -0.25398398088E+02 -0.23176694071E+02 -0.26483676694E+02  0.47787275297E+02  0.20000019389E+02 0.  0.
        -12    1    1    2    0    0  0.25398398088E+02  0.23176694071E+02  0.26483676694E+02  0.43400724703E+02  0.00000000000E+00 0.  1.
         11    1    3    3    0    0 -0.13602168429E+01  0.49363571044E+00 -0.54348718722E+00  0.15457181690E+01  0.51100000000E-03 0.  1.
        -11    1    3    3    0    0 -0.19771600217E+02 -0.26240428197E+02 -0.19897975173E+02  0.38411009663E+02  0.51100000000E-03 0. -1.
         12    1    3    3    0    0 -0.42665810282E+01  0.25700984156E+01 -0.60422143343E+01  0.78305474648E+01  0.00000000000E+00 0. -1.
</event>
<event>
 7    1  0.4519225E-009  0.4778727E+02  0.7816164E-02  0.1312668E+00
        -11   -1    0    0    0    0  0.00000000000E+00  0.00000000000E+00  0.45593999997E+02  0.45594000000E+02  0.51100000000E-03 0. -1.
         11   -1    0    0    0    0 -0.00000000000E+00 -0.00000000000E+00 -0.45593999997E+02  0.45594000000E+02  0.51100000000E-03 0.  1.
    9900012    2    1    2    0    0  0.16822599284E+02 -0.32730637805E+01  0.39873677403E+02  0.47787274859E+02  0.20000017391E+02 0.  0.
        -12    1    1    2    0    0 -0.16822599284E+02  0.32730637805E+01 -0.39873677403E+02  0.43400725141E+02  0.00000000000E+00 0.  1.
         11    1    3    3    0    0  0.39179179223E+01  0.17550033638E+01 -0.56338986383E+00  0.43298413426E+01  0.51100000000E-03 0. -1.
        -11    1    3    3    0    0  0.77354755482E+00 -0.34345111023E+01  0.66717120480E+01  0.75436055202E+01  0.51100000000E-03 0.  1.
         12    1    3    3    0    0  0.12131133806E+02 -0.15935560419E+01  0.33765355219E+02  0.35913827996E+02  0.00000000000E+00 0. -1.
</event>
<event>
 7    1  0.4519225E-009  0.4778727E+02  0.7816164E-02  0.1312668E+00
        -11   -1    0    0    0    0  0.00000000000E+00  0.00000000000E+00  0.45593999997E+02  0.45594000000E+02  0.51100000000E-03 0.  1.
         11   -1    0    0    0    0 -0.00000000000E+00 -0.00000000000E+00 -0.45593999997E+02  0.45594000000E+02  0.51100000000E-03 0. -1.
    9900012    2    1    2    0    0  0.13586497502E+02  0.27349449809E+02 -0.30838905074E+02  0.47787269760E+02  0.19999994142E+02 0.  0.
        -12    1    1    2    0    0 -0.13586497502E+02 -0.27349449809E+02  0.30838905074E+02  0.43400730240E+02  0.00000000000E+00 0.  1.
         11    1    3    3    0    0  0.13383117164E+02  0.17150181140E+02 -0.20660486064E+02  0.30001537007E+02  0.51100000000E-03 0.  1.
        -11    1    3    3    0    0  0.28679887806E-01  0.11557103218E+02 -0.52919442858E+01  0.12711102702E+02  0.51100000000E-03 0. -1.
        -12    1    3    3    0    0  0.17470044966E+00 -0.13578345485E+01 -0.48864747250E+01  0.50746300501E+01  0.00000000000E+00 0.  1.
</event>
<event>
 7    1  0.4519225E-009  0.4778727E+02  0.7816164E-02  0.1312668E+00
        -11   -1    0    0    0    0  0.00000000000E+00  0.00000000000E+00  0.45593999997E+02  0.45594000000E+02  0.51100000000E-03 0. -1.
         11   -1    0    0    0    0 -0.00000000000E+00 -0.00000000000E+00 -0.45593999997E+02  0.45594000000E+02  0.51100000000E-03 0.  1.
    9900012    2    1    2    0    0  0.69418742109E+01  0.24708638482E+00  0.42841247609E+02  0.47787272288E+02  0.20000005670E+02 0.  0.
        -12    1    1    2    0    0 -0.69418742109E+01 -0.24708638482E+00 -0.42841247609E+02  0.43400727712E+02  0.00000000000E+00 0.  1.
         11    1    3    3    0    0  0.91294560853E+00 -0.87597271050E+00 -0.21891783118E+00  0.12840261491E+01  0.51100000000E-03 0. -1.
        -11    1    3    3    0    0  0.79129260547E+01 -0.61184628391E+01  0.26737806930E+02  0.28547509628E+02  0.51100000000E-03 0.  1.
         12    1    3    3    0    0 -0.18839974523E+01  0.72415219345E+01  0.16322358510E+02  0.17955736511E+02  0.00000000000E+00 0. -1.
</event>
<event>
 7    1  0.4519225E-009  0.4778726E+02  0.7816164E-02  0.1312668E+00
        -11   -1    0    0    0    0  0.00000000000E+00  0.00000000000E+00  0.45593999997E+02  0.45594000000E+02  0.51100000000E-03 0.  1.
         11   -1    0    0    0    0 -0.00000000000E+00 -0.00000000000E+00 -0.45593999997E+02  0.45594000000E+02  0.51100000000E-03 0. -1.
    9900012    2    1    2    0    0 -0.34147662579E+02 -0.55108184140E+01 -0.26214344888E+02  0.47787264325E+02  0.19999969366E+02 0.  0.
        -12    1    1    2    0    0  0.34147662579E+02  0.55108184140E+01  0.26214344888E+02  0.43400735675E+02  0.00000000000E+00 0.  1.
         11    1    3    3    0    0 -0.62082221695E+01  0.61244166829E+00 -0.19651660445E+01  0.65405645893E+01  0.51100000000E-03 0. -1.
        -11    1    3    3    0    0 -0.81715960365E+01 -0.46144687027E+00  0.14725185913E+01  0.83160222619E+01  0.51100000000E-03 0.  1.
         12    1    3    3    0    0 -0.19767844373E+02 -0.56618132121E+01 -0.25721697435E+02  0.32930677474E+02  0.00000000000E+00 0. -1.
</event>
<event>
 7    1  0.4519225E-009  0.4778727E+02  0.7816164E-02  0.1312668E+00
        -11   -1    0    0    0    0  0.00000000000E+00  0.00000000000E+00  0.45593999997E+02  0.45594000000E+02  0.51100000000E-03 0. -1.
         11   -1    0    0    0    0 -0.00000000000E+00 -0.00000000000E+00 -0.45593999997E+02  0.45594000000E+02  0.51100000000E-03 0.  1.
    9900012    2    1    2    0    0 -0.16571037236E+02 -0.86736402645E+00  0.40103265106E+02  0.47787268813E+02  0.19999989825E+02 0.  0.
        -12    1    1    2    0    0  0.16571037236E+02  0.86736402645E+00 -0.40103265106E+02  0.43400731187E+02  0.00000000000E+00 0.  1.
         11    1    3    3    0    0 -0.23833303810E+01 -0.42808811116E+00  0.17125453560E+02  0.17295799577E+02  0.51100000000E-03 0. -1.
        -11    1    3    3    0    0 -0.51924570140E+01  0.14337741396E+01  0.20180237904E+02  0.20886821689E+02  0.51100000000E-03 0.  1.
        -12    1    3    3    0    0 -0.89952498410E+01 -0.18730500549E+01  0.27975736419E+01  0.96046475465E+01  0.00000000000E+00 0.  1.
</event>
<event>
 7    1  0.4519225E-009  0.4778727E+02  0.7816164E-02  0.1312668E+00
        -11   -1    0    0    0    0  0.00000000000E+00  0.00000000000E+00  0.45593999997E+02  0.45594000000E+02  0.51100000000E-03 0.  1.
         11   -1    0    0    0    0 -0.00000000000E+00 -0.00000000000E+00 -0.45593999997E+02  0.45594000000E+02  0.51100000000E-03 0. -1.
    9900012    2    1    2    0    0 -0.47799971672E+01  0.38920367271E+02 -0.18600533328E+02  0.47787271878E+02  0.20000003800E+02 0.  0.
        -12    1    1    2    0    0  0.47799971672E+01 -0.38920367271E+02  0.18600533328E+02  0.43400728122E+02  0.00000000000E+00 0.  1.
         11    1    3    3    0    0 -0.25877663999E+01  0.13664983633E+01 -0.22187022899E+00  0.29348048278E+01  0.51100000000E-03 0. -1.
        -11    1    3    3    0    0  0.61179908160E+01  0.10388230221E+02 -0.25166374619E+01  0.12315786744E+02  0.51100000000E-03 0.  1.
         12    1    3    3    0    0 -0.83102215832E+01  0.27165638686E+02 -0.15862025637E+02  0.32536680306E+02  0.00000000000E+00 0. -1.
</event>
<event>
 7    1  0.4519225E-009  0.4778727E+02  0.7816164E-02  0.1312668E+00
        -11   -1    0    0    0    0  0.00000000000E+00  0.00000000000E+00  0.45593999997E+02  0.45594000000E+02  0.51100000000E-03 0. -1.
         11   -1    0    0    0    0 -0.00000000000E+00 -0.00000000000E+00 -0.45593999997E+02  0.45594000000E+02  0.51100000000E-03 0.  1.
    9900012    2    1    2    0    0 -0.40659603285E+02 -0.15036413904E+02  0.20800026434E+01  0.47787268516E+02  0.19999988471E+02 0.  0.
        -12    1    1    2    0    0  0.40659603285E+02  0.15036413904E+02 -0.20800026434E+01  0.43400731484E+02  0.00000000000E+00 0.  1.
         11    1    3    3    0    0 -0.86393012418E+01  0.14762265890E+01 -0.12165300135E+01  0.88485431809E+01  0.51100000000E-03 0. -1.
        -11    1    3    3    0    0 -0.26444759360E+02 -0.72201476811E+01  0.52943366250E+01  0.27919273463E+02  0.51100000000E-03 0.  1.
        -12    1    3    3    0    0 -0.55755426831E+01 -0.92924928118E+01 -0.19978039681E+01  0.11019451872E+02  0.00000000000E+00 0.  1.
</event>
<event>
 7    1  0.4519225E-009  0.4778729E+02  0.7816164E-02  0.1312668E+00
        -11   -1    0    0    0    0  0.00000000000E+00  0.00000000000E+00  0.45593999997E+02  0.45594000000E+02  0.51100000000E-03 0.  1.
         11   -1    0    0    0    0 -0.00000000000E+00 -0.00000000000E+00 -0.45593999997E+02  0.45594000000E+02  0.51100000000E-03 0. -1.
    9900012    2    1    2    0    0  0.38908990630E+02 -0.15653482327E+02  0.11166061292E+02  0.47787285886E+02  0.20000067669E+02 0.  0.
        -12    1    1    2    0    0 -0.38908990630E+02  0.15653482327E+02 -0.11166061292E+02  0.43400714114E+02  0.00000000000E+00 0.  1.
         11    1    3    3    0    0  0.11182309489E+02 -0.74151775958E+00  0.44099227367E+00  0.11215541384E+02  0.51100000000E-03 0. -1.
        -11    1    3    3    0    0  0.28560045875E+02 -0.12049423749E+02  0.69606692265E+01  0.31769730080E+02  0.51100000000E-03 0.  1.
        -12    1    3    3    0    0 -0.83336473300E+00 -0.28625408191E+01  0.37643997915E+01  0.48020144221E+01  0.00000000000E+00 0.  1.
</event>
<event>
 7    1  0.4519225E-009  0.4778727E+02  0.7816164E-02  0.1312668E+00
        -11   -1    0    0    0    0  0.00000000000E+00  0.00000000000E+00  0.45593999997E+02  0.45594000000E+02  0.51100000000E-03 0.  1.
         11   -1    0    0    0    0 -0.00000000000E+00 -0.00000000000E+00 -0.45593999997E+02  0.45594000000E+02  0.51100000000E-03 0. -1.
    9900012    2    1    2    0    0 -0.27059118920E+02  0.30507616682E+02 -0.14856397788E+02  0.47787272500E+02  0.20000006634E+02 0.  0.
        -12    1    1    2    0    0  0.27059118920E+02 -0.30507616682E+02  0.14856397788E+02  0.43400727500E+02  0.00000000000E+00 0.  1.
         11    1    3    3    0    0 -0.19576052842E+02  0.17212228080E+02 -0.88688943890E+01  0.27534340891E+02  0.51100000000E-03 0. -1.
        -11    1    3    3    0    0 -0.11205928310E+01  0.37391181026E+01  0.35889842844E+01  0.53025975647E+01  0.51100000000E-03 0.  1.
         12    1    3    3    0    0 -0.63624732468E+01  0.95562704992E+01 -0.95764876833E+01  0.14950334044E+02  0.00000000000E+00 0. -1.
</event>
<event>
 7    1  0.4519225E-009  0.4778729E+02  0.7816164E-02  0.1312668E+00
        -11   -1    0    0    0    0  0.00000000000E+00  0.00000000000E+00  0.45593999997E+02  0.45594000000E+02  0.51100000000E-03 0.  1.
         11   -1    0    0    0    0 -0.00000000000E+00 -0.00000000000E+00 -0.45593999997E+02  0.45594000000E+02  0.51100000000E-03 0. -1.
    9900012    2    1    2    0    0 -0.16262857509E+02 -0.57211377452E+01 -0.39829762405E+02  0.47787286587E+02  0.20000070867E+02 0.  0.
        -12    1    1    2    0    0  0.16262857509E+02  0.57211377452E+01  0.39829762405E+02  0.43400713413E+02  0.00000000000E+00 0.  1.
         11    1    3    3    0    0 -0.16062152893E+01 -0.53616412635E+00 -0.19143589951E+02  0.19218335932E+02  0.51100000000E-03 0. -1.
        -11    1    3    3    0    0  0.58479052086E+00 -0.43963759829E+01 -0.49931916233E+01  0.66784777146E+01  0.51100000000E-03 0.  1.
        -12    1    3    3    0    0 -0.15241432740E+02 -0.78859763590E+00 -0.15692980832E+02  0.21890472941E+02  0.00000000000E+00 0.  1.
</event>
<event>
 7    1  0.4788551E-009  0.4778727E+02  0.7816164E-02  0.1312668E+00
        -11   -1    0    0    0    0  0.00000000000E+00  0.00000000000E+00  0.45593999997E+02  0.45594000000E+02  0.51100000000E-03 0. -1.
         11   -1    0    0    0    0 -0.00000000000E+00 -0.00000000000E+00 -0.45593999997E+02  0.45594000000E+02  0.51100000000E-03 0.  1.
    9900012    2    1    2    0    0 -0.43201259880E+02 -0.39418325741E+01  0.13176589178E+01  0.47787272768E+02  0.20000007859E+02 0.  0.
        -12    1    1    2    0    0  0.43201259880E+02  0.39418325741E+01 -0.13176589178E+01  0.43400727232E+02  0.00000000000E+00 0.  1.
         11    1    3    3    0    0 -0.17690347516E+02  0.20798087992E+00 -0.44779960116E+01  0.18249495879E+02  0.51100000000E-03 0. -1.
        -11    1    3    3    0    0  0.66809724918E+00  0.18442043604E+01 -0.33649619834E+00  0.19901441179E+01  0.51100000000E-03 0.  1.
         12    1    3    3    0    0 -0.26179009612E+02 -0.59940178144E+01  0.61321511278E+01  0.27547632771E+02  0.00000000000E+00 0. -1.
</event>
<event>
 7    1  0.4519225E-009  0.4778727E+02  0.7816164E-02  0.1312668E+00
        -11   -1    0    0    0    0  0.00000000000E+00  0.00000000000E+00  0.45593999997E+02  0.45594000000E+02  0.51100000000E-03 0.  1.
         11   -1    0    0    0    0 -0.00000000000E+00 -0.00000000000E+00 -0.45593999997E+02  0.45594000000E+02  0.51100000000E-03 0. -1.
    9900012    2    1    2    0    0  0.33408277833E+02 -0.23002272120E+02 -0.15440396283E+02  0.47787269732E+02  0.19999994015E+02 0.  0.
        -12    1    1    2    0    0 -0.33408277833E+02  0.23002272120E+02  0.15440396283E+02  0.43400730268E+02  0.00000000000E+00 0.  1.
         11    1    3    3    0    0  0.11930075080E+02 -0.69746060853E+01 -0.34696803363E+01  0.14248175439E+02  0.51100000000E-03 0. -1.
        -11    1    3    3    0    0  0.13727029537E+02 -0.12682796484E+02  0.24420753871E+00  0.18690754510E+02  0.51100000000E-03 0.  1.
         12    1    3    3    0    0  0.77511732159E+01 -0.33448695506E+01 -0.12214923486E+02  0.14848339783E+02  0.00000000000E+00 0. -1.
</event>
<event>
 7    1  0.4519225E-009  0.4778727E+02  0.7816164E-02  0.1312668E+00
        -11   -1    0    0    0    0  0.00000000000E+00  0.00000000000E+00  0.45593999997E+02  0.45594000000E+02  0.51100000000E-03 0.  1.
         11   -1    0    0    0    0 -0.00000000000E+00 -0.00000000000E+00 -0.45593999997E+02  0.45594000000E+02  0.51100000000E-03 0. -1.
    9900012    2    1    2    0    0  0.12541169277E+02  0.31281007780E+02 -0.27346685339E+02  0.47787267591E+02  0.19999984257E+02 0.  0.
        -12    1    1    2    0    0 -0.12541169277E+02 -0.31281007780E+02  0.27346685339E+02  0.43400732409E+02  0.00000000000E+00 0.  1.
         11    1    3    3    0    0 -0.23598005507E+01  0.16892372431E+02 -0.83501845699E+01  0.18990694764E+02  0.51100000000E-03 0. -1.
        -11    1    3    3    0    0  0.25752583297E+01  0.70882324086E+00 -0.53922480921E+00  0.27249127523E+01  0.51100000000E-03 0.  1.
         12    1    3    3    0    0  0.12325711498E+02  0.13679812108E+02 -0.18457275959E+02  0.26071660076E+02  0.00000000000E+00 0. -1.
</event>
<event>
 7    1  0.4519225E-009  0.4778727E+02  0.7816164E-02  0.1312668E+00
        -11   -1    0    0    0    0  0.00000000000E+00  0.00000000000E+00  0.45593999997E+02  0.45594000000E+02  0.51100000000E-03 0.  1.
         11   -1    0    0    0    0 -0.00000000000E+00 -0.00000000000E+00 -0.45593999997E+02  0.45594000000E+02  0.51100000000E-03 0. -1.
    9900012    2    1    2    0    0 -0.42864347425E+01  0.31652825499E+02 -0.29382792895E+02  0.47787269555E+02  0.19999993208E+02 0.  0.
        -12    1    1    2    0    0  0.42864347425E+01 -0.31652825499E+02  0.29382792895E+02  0.43400730445E+02  0.00000000000E+00 0.  1.
         11    1    3    3    0    0  0.17090162388E+01  0.15848588263E+02 -0.16416977231E+02  0.22882649062E+02  0.51100000000E-03 0. -1.
        -11    1    3    3    0    0  0.20862735406E+01  0.59722845121E+01  0.53718366962E+00  0.63489594530E+01  0.51100000000E-03 0.  1.
         12    1    3    3    0    0 -0.80817245219E+01  0.98319527240E+01 -0.13502999334E+02  0.18555661040E+02  0.00000000000E+00 0. -1.
</event>
<event>
 7    1  0.5162879E-009  0.4778727E+02  0.7816164E-02  0.1312668E+00
        -11   -1    0    0    0    0  0.00000000000E+00  0.00000000000E+00  0.45593999997E+02  0.45594000000E+02  0.51100000000E-03 0. -1.
         11   -1    0    0    0    0 -0.00000000000E+00 -0.00000000000E+00 -0.45593999997E+02  0.45594000000E+02  0.51100000000E-03 0.  1.
    9900012    2    1    2    0    0 -0.22878812812E+02 -0.18504669341E+02  0.31902356617E+02  0.47787271656E+02  0.20000002787E+02 0.  0.
        -12    1    1    2    0    0  0.22878812812E+02  0.18504669341E+02 -0.31902356617E+02  0.43400728344E+02  0.00000000000E+00 0.  1.
         11    1    3    3    0    0 -0.78282211859E+01  0.48825037047E+00  0.60127310744E+01  0.98829332991E+01  0.51100000000E-03 0. -1.
        -11    1    3    3    0    0 -0.29071405401E+01 -0.63251768672E+01  0.41887560856E+00  0.69738644637E+01  0.51100000000E-03 0.  1.
         12    1    3    3    0    0 -0.12143451086E+02 -0.12667742844E+02  0.25470749934E+02  0.30930473893E+02  0.00000000000E+00 0. -1.
</event>
<event>
 7    1  0.4519225E-009  0.4778727E+02  0.7816164E-02  0.1312668E+00
        -11   -1    0    0    0    0  0.00000000000E+00  0.00000000000E+00  0.45593999997E+02  0.45594000000E+02  0.51100000000E-03 0. -1.
         11   -1    0    0    0    0 -0.00000000000E+00 -0.00000000000E+00 -0.45593999997E+02  0.45594000000E+02  0.51100000000E-03 0.  1.
    9900012    2    1    2    0    0  0.28400611708E+02  0.28846060465E+02  0.15650361576E+02  0.47787265361E+02  0.19999974087E+02 0.  0.
        -12    1    1    2    0    0 -0.28400611708E+02 -0.28846060465E+02 -0.15650361576E+02  0.43400734639E+02  0.00000000000E+00 0.  1.
         11    1    3    3    0    0  0.14651791887E+02  0.13513532294E+02  0.19147037677E+01  0.20023902001E+02  0.51100000000E-03 0. -1.
        -11    1    3    3    0    0  0.11905054490E+02  0.15455605789E+02  0.69174810881E+01  0.20699217801E+02  0.51100000000E-03 0.  1.
         12    1    3    3    0    0  0.18437653313E+01 -0.12307761814E+00  0.68181767197E+01  0.70641455590E+01  0.00000000000E+00 0. -1.
</event>
<event>
 7    1  0.4519225E-009  0.4778727E+02  0.7816164E-02  0.1312668E+00
        -11   -1    0    0    0    0  0.00000000000E+00  0.00000000000E+00  0.45593999997E+02  0.45594000000E+02  0.51100000000E-03 0.  1.
         11   -1    0    0    0    0 -0.00000000000E+00 -0.00000000000E+00 -0.45593999997E+02  0.45594000000E+02  0.51100000000E-03 0. -1.
    9900012    2    1    2    0    0  0.91437912582E+01 -0.36183941557E+02 -0.22152579411E+02  0.47787270516E+02  0.19999997592E+02 0.  0.
        -12    1    1    2    0    0 -0.91437912582E+01  0.36183941557E+02  0.22152579411E+02  0.43400729484E+02  0.00000000000E+00 0.  1.
         11    1    3    3    0    0  0.19685093768E+01 -0.14132129034E+02 -0.87355112478E+01  0.16730249766E+02  0.51100000000E-03 0. -1.
        -11    1    3    3    0    0  0.89311609439E+01 -0.20738877411E+02 -0.60586500466E+01  0.23378920264E+02  0.51100000000E-03 0.  1.
        -12    1    3    3    0    0 -0.17558790626E+01 -0.13129351114E+01 -0.73584181170E+01  0.76781004861E+01  0.00000000000E+00 0.  1.
</event>
<event>
 7    1  0.4519225E-009  0.4778726E+02  0.7816164E-02  0.1312668E+00
        -11   -1    0    0    0    0  0.00000000000E+00  0.00000000000E+00  0.45593999997E+02  0.45594000000E+02  0.51100000000E-03 0.  1.
         11   -1    0    0    0    0 -0.00000000000E+00 -0.00000000000E+00 -0.45593999997E+02  0.45594000000E+02  0.51100000000E-03 0. -1.
    9900012    2    1    2    0    0 -0.53370543714E+01  0.19764368195E+02 -0.38268912863E+02  0.47787261628E+02  0.19999957068E+02 0.  0.
        -12    1    1    2    0    0  0.53370543714E+01 -0.19764368195E+02  0.38268912863E+02  0.43400738372E+02  0.00000000000E+00 0.  1.
         11    1    3    3    0    0 -0.47005042975E+01  0.11340075292E+02 -0.12091518437E+02  0.17230695478E+02  0.51100000000E-03 0. -1.
        -11    1    3    3    0    0 -0.54149573056E+01  0.26411129806E+01 -0.42271307327E+01  0.73597469311E+01  0.51100000000E-03 0.  1.
         12    1    3    3    0    0  0.47784072317E+01  0.57831799222E+01 -0.21950263693E+02  0.23196819219E+02  0.00000000000E+00 0. -1.
</event>
<event>
 7    1  0.4519225E-009  0.4778727E+02  0.7816164E-02  0.1312668E+00
        -11   -1    0    0    0    0  0.00000000000E+00  0.00000000000E+00  0.45593999997E+02  0.45594000000E+02  0.51100000000E-03 0.  1.
         11   -1    0    0    0    0 -0.00000000000E+00 -0.00000000000E+00 -0.45593999997E+02  0.45594000000E+02  0.51100000000E-03 0. -1.
    9900012    2    1    2    0    0 -0.25691038303E+02 -0.42096115427E+01 -0.34725682755E+02  0.47787270499E+02  0.19999997513E+02 0.  0.
        -12    1    1    2    0    0  0.25691038303E+02  0.42096115427E+01  0.34725682755E+02  0.43400729501E+02  0.00000000000E+00 0.  1.
         11    1    3    3    0    0  0.10457625228E-02 -0.89373055431E+00 -0.13687135420E+01  0.16346658431E+01  0.51100000000E-03 0. -1.
        -11    1    3    3    0    0  0.69354558722E+00  0.67156563795E+00 -0.11823339619E+02  0.11862687971E+02  0.51100000000E-03 0.  1.
         12    1    3    3    0    0 -0.26385629653E+02 -0.39874466264E+01 -0.21533629594E+02  0.34289916685E+02  0.00000000000E+00 0. -1.
</event>
<event>
 7    1  0.4519225E-009  0.4778727E+02  0.7816164E-02  0.1312668E+00
        -11   -1    0    0    0    0  0.00000000000E+00  0.00000000000E+00  0.45593999997E+02  0.45594000000E+02  0.51100000000E-03 0.  1.
         11   -1    0    0    0    0 -0.00000000000E+00 -0.00000000000E+00 -0.45593999997E+02  0.45594000000E+02  0.51100000000E-03 0. -1.
    9900012    2    1    2    0    0  0.34342745737E+01  0.21765522711E+02 -0.37391055239E+02  0.47787271520E+02  0.20000002167E+02 0.  0.
        -12    1    1    2    0    0 -0.34342745737E+01 -0.21765522711E+02  0.37391055239E+02  0.43400728480E+02  0.00000000000E+00 0.  1.
         11    1    3    3    0    0 -0.40183492930E+01  0.75044667044E+01 -0.15593830951E+02  0.17766027005E+02  0.51100000000E-03 0. -1.
        -11    1    3    3    0    0  0.38874589289E+01  0.34890539657E+01 -0.16853385672E+02  0.17644331763E+02  0.51100000000E-03 0.  1.
        -12    1    3    3    0    0  0.35651649379E+01  0.10772002041E+02 -0.49438386162E+01  0.12376912751E+02  0.00000000000E+00 0.  1.
</event>
<event>
 7    1  0.4519225E-009  0.4778727E+02  0.7816164E-02  0.1312668E+00
        -11   -1    0    0    0    0  0.00000000000E+00  0.00000000000E+00  0.45593999997E+02  0.45594000000E+02  0.51100000000E-03 0.  1.
         11   -1    0    0    0    0 -0.00000000000E+00 -0.00000000000E+00 -0.45593999997E+02  0.45594000000E+02  0.51100000000E-03 0. -1.
    9900012    2    1    2    0    0 -0.12377744342E+01  0.15184796989E+02 -0.40638816839E+02  0.47787267527E+02  0.19999983962E+02 0.  0.
        -12    1    1    2    0    0  0.12377744342E+01 -0.15184796989E+02  0.40638816839E+02  0.43400732473E+02  0.00000000000E+00 0.  1.
         11    1    3    3    0    0 -0.27863070685E+01  0.58933977303E+01 -0.17563820332E+02  0.18734551737E+02  0.51100000000E-03 0. -1.
        -11    1    3    3    0    0  0.44437673145E-02 -0.41158867060E+01 -0.62543029518E+01  0.74871121801E+01  0.51100000000E-03 0.  1.
        -12    1    3    3    0    0  0.15440888669E+01  0.13407285965E+02 -0.16820693555E+02  0.21565603610E+02  0.00000000000E+00 0.  1.
</event>
<event>
 7    1  0.4519225E-009  0.4778727E+02  0.7816164E-02  0.1312668E+00
        -11   -1    0    0    0    0  0.00000000000E+00  0.00000000000E+00  0.45593999997E+02  0.45594000000E+02  0.51100000000E-03 0.  1.
         11   -1    0    0    0    0 -0.00000000000E+00 -0.00000000000E+00 -0.45593999997E+02  0.45594000000E+02  0.51100000000E-03 0. -1.
    9900012    2    1    2    0    0 -0.15256865219E+02  0.31223850070E+02 -0.25998512210E+02  0.47787269746E+02  0.19999994078E+02 0.  0.
        -12    1    1    2    0    0  0.15256865219E+02 -0.31223850070E+02  0.25998512210E+02  0.43400730254E+02  0.00000000000E+00 0.  1.
         11    1    3    3    0    0 -0.38484465497E+01  0.11203428868E+02 -0.29141961762E+01  0.12199176155E+02  0.51100000000E-03 0. -1.
        -11    1    3    3    0    0 -0.10022943117E+02  0.15533819962E+02 -0.86521259209E+01  0.20411228149E+02  0.51100000000E-03 0.  1.
        -12    1    3    3    0    0 -0.13854755519E+01  0.44866012406E+01 -0.14432190113E+02  0.15176865442E+02  0.00000000000E+00 0.  1.
</event>
<event>
 7    1  0.4519225E-009  0.4778727E+02  0.7816164E-02  0.1312668E+00
        -11   -1    0    0    0    0  0.00000000000E+00  0.00000000000E+00  0.45593999997E+02  0.45594000000E+02  0.51100000000E-03 0.  1.
         11   -1    0    0    0    0 -0.00000000000E+00 -0.00000000000E+00 -0.45593999997E+02  0.45594000000E+02  0.51100000000E-03 0. -1.
    9900012    2    1    2    0    0 -0.23797048954E+02  0.18018981085E+02 -0.31506190985E+02  0.47787270875E+02  0.19999999226E+02 0.  0.
        -12    1    1    2    0    0  0.23797048954E+02 -0.18018981085E+02  0.31506190985E+02  0.43400729125E+02  0.00000000000E+00 0.  1.
         11    1    3    3    0    0  0.78280225594E+00  0.46339978151E+01 -0.43473563779E+01  0.64020483331E+01  0.51100000000E-03 0. -1.
        -11    1    3    3    0    0 -0.46416273428E+01 -0.12483287339E+01 -0.10551727933E+02  0.11594912317E+02  0.51100000000E-03 0.  1.
         12    1    3    3    0    0 -0.19938223867E+02  0.14633312004E+02 -0.16607106674E+02  0.29790310224E+02  0.00000000000E+00 0. -1.
</event>
<event>
 7    1  0.4519225E-009  0.4778727E+02  0.7816164E-02  0.1312668E+00
        -11   -1    0    0    0    0  0.00000000000E+00  0.00000000000E+00  0.45593999997E+02  0.45594000000E+02  0.51100000000E-03 0. -1.
         11   -1    0    0    0    0 -0.00000000000E+00 -0.00000000000E+00 -0.45593999997E+02  0.45594000000E+02  0.51100000000E-03 0.  1.
    9900012    2    1    2    0    0 -0.57238924827E+01 -0.28562931549E+02  0.32171716055E+02  0.47787270539E+02  0.19999997694E+02 0.  0.
        -12    1    1    2    0    0  0.57238924827E+01  0.28562931549E+02 -0.32171716055E+02  0.43400729461E+02  0.00000000000E+00 0.  1.
         11    1    3    3    0    0 -0.18441604986E+01 -0.86894907689E+01  0.15710679356E+02  0.18048091973E+02  0.51100000000E-03 0. -1.
        -11    1    3    3    0    0  0.23506357247E+01  0.95402112175E+00  0.38382642441E+01  0.46008604934E+01  0.51100000000E-03 0.  1.
         12    1    3    3    0    0 -0.62303677089E+01 -0.20827461902E+02  0.12622772455E+02  0.25138318072E+02  0.00000000000E+00 0. -1.
</event>
<event>
 7    1  0.4519225E-009  0.4778727E+02  0.7816164E-02  0.1312668E+00
        -11   -1    0    0    0    0  0.00000000000E+00  0.00000000000E+00  0.45593999997E+02  0.45594000000E+02  0.51100000000E-03 0.  1.
         11   -1    0    0    0    0 -0.00000000000E+00 -0.00000000000E+00 -0.45593999997E+02  0.45594000000E+02  0.51100000000E-03 0. -1.
    9900012    2    1    2    0    0  0.17410407546E+02  0.12815134180E+02 -0.37633405131E+02  0.47787272624E+02  0.20000007203E+02 0.  0.
        -12    1    1    2    0    0 -0.17410407546E+02 -0.12815134180E+02  0.37633405131E+02  0.43400727376E+02  0.00000000000E+00 0.  1.
         11    1    3    3    0    0  0.66220161108E+01 -0.16694622737E+01 -0.48264093503E+01  0.83625611587E+01  0.51100000000E-03 0.  1.
        -11    1    3    3    0    0  0.95671898648E+01  0.29052312243E+01 -0.12392398400E+02  0.15923034533E+02  0.51100000000E-03 0. -1.
        -12    1    3    3    0    0  0.12212015699E+01  0.11579365230E+02 -0.20414597381E+02  0.23501676932E+02  0.00000000000E+00 0.  1.
</event>
<event>
 7    1  0.4519225E-009  0.4778727E+02  0.7816164E-02  0.1312668E+00
        -11   -1    0    0    0    0  0.00000000000E+00  0.00000000000E+00  0.45593999997E+02  0.45594000000E+02  0.51100000000E-03 0.  1.
         11   -1    0    0    0    0 -0.00000000000E+00 -0.00000000000E+00 -0.45593999997E+02  0.45594000000E+02  0.51100000000E-03 0. -1.
    9900012    2    1    2    0    0 -0.58955472319E+01 -0.15914688719E+02 -0.39944817043E+02  0.47787271863E+02  0.20000003732E+02 0.  0.
        -12    1    1    2    0    0  0.58955472319E+01  0.15914688719E+02  0.39944817043E+02  0.43400728137E+02  0.00000000000E+00 0.  1.
         11    1    3    3    0    0  0.20859851261E+01 -0.44127584336E+01 -0.30135034244E+01  0.57362857399E+01  0.51100000000E-03 0.  1.
        -11    1    3    3    0    0  0.16255695457E+00 -0.30082239700E+01 -0.25391476038E+02  0.25569569646E+02  0.51100000000E-03 0. -1.
         12    1    3    3    0    0 -0.81440893126E+01 -0.84937063157E+01 -0.11539837581E+02  0.16481416477E+02  0.00000000000E+00 0. -1.
</event>
<event>
 7    1  0.4519225E-009  0.4778727E+02  0.7816164E-02  0.1312668E+00
        -11   -1    0    0    0    0  0.00000000000E+00  0.00000000000E+00  0.45593999997E+02  0.45594000000E+02  0.51100000000E-03 0.  1.
         11   -1    0    0    0    0 -0.00000000000E+00 -0.00000000000E+00 -0.45593999997E+02  0.45594000000E+02  0.51100000000E-03 0. -1.
    9900012    2    1    2    0    0 -0.33707654306E+02 -0.20824083261E+02 -0.17713692379E+02  0.47787270741E+02  0.19999998619E+02 0.  0.
        -12    1    1    2    0    0  0.33707654306E+02  0.20824083261E+02  0.17713692379E+02  0.43400729259E+02  0.00000000000E+00 0.  1.
         11    1    3    3    0    0 -0.18124208676E+02 -0.88833945475E+01 -0.56918480649E+01  0.20971379865E+02  0.51100000000E-03 0.  1.
        -11    1    3    3    0    0 -0.16793712463E+02 -0.60722334788E+01 -0.78054268761E+01  0.19489112003E+02  0.51100000000E-03 0. -1.
        -12    1    3    3    0    0  0.12102668318E+01 -0.58684552342E+01 -0.42164174378E+01  0.73267788727E+01  0.00000000000E+00 0.  1.
</event>
<event>
 7    1  0.4519225E-009  0.4778730E+02  0.7816164E-02  0.1312668E+00
        -11   -1    0    0    0    0  0.00000000000E+00  0.00000000000E+00  0.45593999997E+02  0.45594000000E+02  0.51100000000E-03 0. -1.
         11   -1    0    0    0    0 -0.00000000000E+00 -0.00000000000E+00 -0.45593999997E+02  0.45594000000E+02  0.51100000000E-03 0.  1.
    9900012    2    1    2    0    0 -0.21169838321E+02  0.36762127237E+02 -0.91653997812E+01  0.47787301772E+02  0.20000140098E+02 0.  0.
        -12    1    1    2    0    0  0.21169838321E+02 -0.36762127237E+02  0.91653997812E+01  0.43400698228E+02  0.00000000000E+00 0.  1.
         11    1    3    3    0    0 -0.12052723178E+02  0.25585031619E+02 -0.45564850817E+01  0.28646527460E+02  0.51100000000E-03 0. -1.
        -11    1    3    3    0    0 -0.35570190655E-01  0.82667420425E+01  0.57427168478E+00  0.82867410641E+01  0.51100000000E-03 0.  1.
         12    1    3    3    0    0 -0.90815449523E+01  0.29103535761E+01 -0.51831863843E+01  0.10854033248E+02  0.00000000000E+00 0. -1.
</event>
<event>
 7    1  0.4519225E-009  0.4778725E+02  0.7816164E-02  0.1312668E+00
        -11   -1    0    0    0    0  0.00000000000E+00  0.00000000000E+00  0.45593999997E+02  0.45594000000E+02  0.51100000000E-03 0.  1.
         11   -1    0    0    0    0 -0.00000000000E+00 -0.00000000000E+00 -0.45593999997E+02  0.45594000000E+02  0.51100000000E-03 0. -1.
    9900012    2    1    2    0    0  0.10900888258E+02  0.40778172194E+02 -0.10096344178E+02  0.47787252794E+02  0.19999916788E+02 0.  0.
        -12    1    1    2    0    0 -0.10900888258E+02 -0.40778172194E+02  0.10096344178E+02  0.43400747206E+02  0.00000000000E+00 0.  1.
         11    1    3    3    0    0  0.33118361447E+01  0.15475171214E+01 -0.13311015063E+01  0.38903597998E+01  0.51100000000E-03 0. -1.
        -11    1    3    3    0    0 -0.44278722339E+01  0.17557852797E+02 -0.20598597702E+01  0.18224359245E+02  0.51100000000E-03 0.  1.
         12    1    3    3    0    0  0.12016924347E+02  0.21672802276E+02 -0.67053829015E+01  0.25672533749E+02  0.00000000000E+00 0. -1.
</event>
<event>
 7    1  0.4519225E-009  0.4778721E+02  0.7816164E-02  0.1312668E+00
        -11   -1    0    0    0    0  0.00000000000E+00  0.00000000000E+00  0.45593999997E+02  0.45594000000E+02  0.51100000000E-03 0.  1.
         11   -1    0    0    0    0 -0.00000000000E+00 -0.00000000000E+00 -0.45593999997E+02  0.45594000000E+02  0.51100000000E-03 0. -1.
    9900012    2    1    2    0    0  0.56510382744E-01  0.43154902466E+02 -0.46129533430E+01  0.47787214997E+02  0.19999744457E+02 0.  0.
        -12    1    1    2    0    0 -0.56510382744E-01 -0.43154902466E+02  0.46129533430E+01  0.43400785003E+02  0.00000000000E+00 0.  1.
         11    1    3    3    0    0 -0.69643680775E+01  0.10436204944E+02  0.38553907027E+01  0.13125579381E+02  0.51100000000E-03 0.  1.
        -11    1    3    3    0    0  0.35673768727E+01  0.20188008387E+02 -0.37945667782E+01  0.20848995124E+02  0.51100000000E-03 0. -1.
        -12    1    3    3    0    0  0.34535015875E+01  0.12530689135E+02 -0.46737772675E+01  0.13812640492E+02  0.00000000000E+00 0.  1.
</event>
<event>
 7    1  0.4519225E-009  0.4778727E+02  0.7816164E-02  0.1312668E+00
        -11   -1    0    0    0    0  0.00000000000E+00  0.00000000000E+00  0.45593999997E+02  0.45594000000E+02  0.51100000000E-03 0.  1.
         11   -1    0    0    0    0 -0.00000000000E+00 -0.00000000000E+00 -0.45593999997E+02  0.45594000000E+02  0.51100000000E-03 0. -1.
    9900012    2    1    2    0    0  0.38478597774E+01  0.12002663693E+02 -0.41530147477E+02  0.47787272932E+02  0.20000008606E+02 0.  0.
        -12    1    1    2    0    0 -0.38478597774E+01 -0.12002663693E+02  0.41530147477E+02  0.43400727068E+02  0.00000000000E+00 0.  1.
         11    1    3    3    0    0 -0.28909093055E+00 -0.36306776319E-01 -0.47246892704E+01  0.47336646175E+01  0.51100000000E-03 0. -1.
        -11    1    3    3    0    0  0.31889676529E+01  0.16073968979E+02 -0.20581490175E+02  0.26308548639E+02  0.51100000000E-03 0.  1.
        -12    1    3    3    0    0  0.94798305510E+00 -0.40349985095E+01 -0.16223968032E+02  0.16745059676E+02  0.00000000000E+00 0.  1.
</event>
<event>
 7    1  0.4519225E-009  0.4778728E+02  0.7816164E-02  0.1312668E+00
        -11   -1    0    0    0    0  0.00000000000E+00  0.00000000000E+00  0.45593999997E+02  0.45594000000E+02  0.51100000000E-03 0.  1.
         11   -1    0    0    0    0 -0.00000000000E+00 -0.00000000000E+00 -0.45593999997E+02  0.45594000000E+02  0.51100000000E-03 0. -1.
    9900012    2    1    2    0    0  0.48825542505E+01 -0.32317323031E+02 -0.28554748463E+02  0.47787281530E+02  0.20000047809E+02 0.  0.
        -12    1    1    2    0    0 -0.48825542505E+01  0.32317323031E+02  0.28554748463E+02  0.43400718470E+02  0.00000000000E+00 0.  1.
         11    1    3    3    0    0  0.17417511501E+01 -0.76595577479E+01 -0.33370779377E+01  0.85345539653E+01  0.51100000000E-03 0. -1.
        -11    1    3    3    0    0  0.59575232804E+01 -0.22102803533E+02 -0.12717799695E+02  0.26187180776E+02  0.51100000000E-03 0.  1.
        -12    1    3    3    0    0 -0.28167201800E+01 -0.25549617503E+01 -0.12499870830E+02  0.13065546789E+02  0.00000000000E+00 0.  1.
</event>
<event>
 7    1  0.4519225E-009  0.4778727E+02  0.7816164E-02  0.1312668E+00
        -11   -1    0    0    0    0  0.00000000000E+00  0.00000000000E+00  0.45593999997E+02  0.45594000000E+02  0.51100000000E-03 0.  1.
         11   -1    0    0    0    0 -0.00000000000E+00 -0.00000000000E+00 -0.45593999997E+02  0.45594000000E+02  0.51100000000E-03 0. -1.
    9900012    2    1    2    0    0  0.31187386530E+02 -0.58171351669E+01 -0.29616397968E+02  0.47787272256E+02  0.20000005525E+02 0.  0.
        -12    1    1    2    0    0 -0.31187386530E+02  0.58171351669E+01  0.29616397968E+02  0.43400727744E+02  0.00000000000E+00 0.  1.
         11    1    3    3    0    0  0.96549170588E+01 -0.19585595660E+01 -0.71563447854E+01  0.12176479374E+02  0.51100000000E-03 0. -1.
        -11    1    3    3    0    0  0.84323487005E+01 -0.48628263931E+01 -0.16859823556E+00  0.97355025943E+01  0.51100000000E-03 0.  1.
         12    1    3    3    0    0  0.13100120770E+02  0.10042507922E+01 -0.22291454947E+02  0.25875290288E+02  0.00000000000E+00 0. -1.
</event>
<event>
 7    1  0.4519225E-009  0.4778727E+02  0.7816164E-02  0.1312668E+00
        -11   -1    0    0    0    0  0.00000000000E+00  0.00000000000E+00  0.45593999997E+02  0.45594000000E+02  0.51100000000E-03 0. -1.
         11   -1    0    0    0    0 -0.00000000000E+00 -0.00000000000E+00 -0.45593999997E+02  0.45594000000E+02  0.51100000000E-03 0.  1.
    9900012    2    1    2    0    0 -0.13835783725E+02  0.40461657245E+02 -0.74194771347E+01  0.47787271213E+02  0.20000000768E+02 0.  0.
        -12    1    1    2    0    0  0.13835783725E+02 -0.40461657245E+02  0.74194771347E+01  0.43400728787E+02  0.00000000000E+00 0.  1.
         11    1    3    3    0    0  0.38844819255E+01  0.78457008099E+01 -0.15352109092E+01  0.88882559496E+01  0.51100000000E-03 0. -1.
        -11    1    3    3    0    0  0.66099757947E+00  0.62063521062E+01 -0.15565208661E+01  0.64326108023E+01  0.51100000000E-03 0.  1.
         12    1    3    3    0    0 -0.18381263230E+02  0.26409604329E+02 -0.43277453594E+01  0.32466404461E+02  0.00000000000E+00 0. -1.
</event>
<event>
 7    1  0.4519225E-009  0.4778727E+02  0.7816164E-02  0.1312668E+00
        -11   -1    0    0    0    0  0.00000000000E+00  0.00000000000E+00  0.45593999997E+02  0.45594000000E+02  0.51100000000E-03 0. -1.
         11   -1    0    0    0    0 -0.00000000000E+00 -0.00000000000E+00 -0.45593999997E+02  0.45594000000E+02  0.51100000000E-03 0.  1.
    9900012    2    1    2    0    0 -0.20061906356E+02  0.25673198831E+01  0.38399895162E+02  0.47787272281E+02  0.20000005640E+02 0.  0.
        -12    1    1    2    0    0  0.20061906356E+02 -0.25673198831E+01 -0.38399895162E+02  0.43400727719E+02  0.00000000000E+00 0.  1.
         11    1    3    3    0    0 -0.57883380951E+01  0.22819425504E+01  0.14525787353E+02  0.15802234595E+02  0.51100000000E-03 0. -1.
        -11    1    3    3    0    0 -0.12110198182E+02  0.71354428513E+01  0.14789850919E+02  0.20403703957E+02  0.51100000000E-03 0.  1.
         12    1    3    3    0    0 -0.21633700786E+01 -0.68500655186E+01  0.90842568904E+01  0.11581333730E+02  0.00000000000E+00 0. -1.
</event>
<event>
 7    1  0.4519225E-009  0.4778721E+02  0.7816164E-02  0.1312668E+00
        -11   -1    0    0    0    0  0.00000000000E+00  0.00000000000E+00  0.45593999997E+02  0.45594000000E+02  0.51100000000E-03 0.  1.
         11   -1    0    0    0    0 -0.00000000000E+00 -0.00000000000E+00 -0.45593999997E+02  0.45594000000E+02  0.51100000000E-03 0. -1.
    9900012    2    1    2    0    0 -0.24043032551E+02  0.24435554956E+02 -0.26617004288E+02  0.47787208792E+02  0.19999716162E+02 0.  0.
        -12    1    1    2    0    0  0.24043032551E+02 -0.24435554956E+02  0.26617004288E+02  0.43400791208E+02  0.00000000000E+00 0.  1.
         11    1    3    3    0    0 -0.79120488429E+01  0.14132326638E+01 -0.99602009936E+00  0.80987529752E+01  0.51100000000E-03 0. -1.
        -11    1    3    3    0    0 -0.52081797414E+01  0.52263095113E+00 -0.34821541625E+01  0.62867859198E+01  0.51100000000E-03 0.  1.
         12    1    3    3    0    0 -0.10922803966E+02  0.22499691341E+02 -0.22138830026E+02  0.33401669896E+02  0.00000000000E+00 0. -1.
</event>
<event>
 7    1  0.4519225E-009  0.4778726E+02  0.7816164E-02  0.1312668E+00
        -11   -1    0    0    0    0  0.00000000000E+00  0.00000000000E+00  0.45593999997E+02  0.45594000000E+02  0.51100000000E-03 0.  1.
         11   -1    0    0    0    0 -0.00000000000E+00 -0.00000000000E+00 -0.45593999997E+02  0.45594000000E+02  0.51100000000E-03 0. -1.
    9900012    2    1    2    0    0  0.18218274932E+02 -0.32723478303E+02 -0.21929262554E+02  0.47787261182E+02  0.19999955035E+02 0.  0.
        -12    1    1    2    0    0 -0.18218274932E+02  0.32723478303E+02  0.21929262554E+02  0.43400738818E+02  0.00000000000E+00 0.  1.
         11    1    3    3    0    0  0.88647389523E+01 -0.63853526813E+01 -0.76198734193E+01  0.13319864742E+02  0.51100000000E-03 0. -1.
        -11    1    3    3    0    0  0.12500868724E+02 -0.16645019465E+02 -0.71401022280E+01  0.22007031874E+02  0.51100000000E-03 0.  1.
         12    1    3    3    0    0 -0.31473327439E+01 -0.96931061567E+01 -0.71692869070E+01  0.12460364566E+02  0.00000000000E+00 0. -1.
</event>
<event>
 7    1  0.4519225E-009  0.4778728E+02  0.7816164E-02  0.1312668E+00
        -11   -1    0    0    0    0  0.00000000000E+00  0.00000000000E+00  0.45593999997E+02  0.45594000000E+02  0.51100000000E-03 0. -1.
         11   -1    0    0    0    0 -0.00000000000E+00 -0.00000000000E+00 -0.45593999997E+02  0.45594000000E+02  0.51100000000E-03 0.  1.
    9900012    2    1    2    0    0 -0.17665541640E+02  0.23847619444E+02 -0.31667687217E+02  0.47787277331E+02  0.20000028661E+02 0.  0.
        -12    1    1    2    0    0  0.17665541640E+02 -0.23847619444E+02  0.31667687217E+02  0.43400722669E+02  0.00000000000E+00 0.  1.
         11    1    3    3    0    0 -0.71422362239E+01  0.21747046173E+02 -0.24330455661E+02  0.33405338323E+02  0.51100000000E-03 0.  1.
        -11    1    3    3    0    0  0.41576636986E+00  0.67138476162E+00  0.42114093982E+00  0.89497437100E+00  0.51100000000E-03 0. -1.
        -12    1    3    3    0    0 -0.10939071786E+02  0.14291885088E+01 -0.77583724956E+01  0.13486964637E+02  0.00000000000E+00 0.  1.
</event>
<event>
 7    1  0.4519225E-009  0.4778726E+02  0.7816164E-02  0.1312668E+00
        -11   -1    0    0    0    0  0.00000000000E+00  0.00000000000E+00  0.45593999997E+02  0.45594000000E+02  0.51100000000E-03 0.  1.
         11   -1    0    0    0    0 -0.00000000000E+00 -0.00000000000E+00 -0.45593999997E+02  0.45594000000E+02  0.51100000000E-03 0. -1.
    9900012    2    1    2    0    0  0.78156111170E+01  0.39500809870E+02 -0.16193396619E+02  0.47787264388E+02  0.19999969653E+02 0.  0.
        -12    1    1    2    0    0 -0.78156111170E+01 -0.39500809870E+02  0.16193396619E+02  0.43400735612E+02  0.00000000000E+00 0.  1.
         11    1    3    3    0    0  0.12025267951E+01  0.81585142514E+01 -0.28916379438E+01  0.87389356184E+01  0.51100000000E-03 0. -1.
        -11    1    3    3    0    0  0.38954178593E+01 -0.20324990445E+00  0.13931843504E+01  0.41420470444E+01  0.51100000000E-03 0.  1.
        -12    1    3    3    0    0  0.27176664626E+01  0.31545545523E+02 -0.14694943026E+02  0.34906281726E+02  0.00000000000E+00 0.  1.
</event>
<event>
 7    1  0.4519225E-009  0.4778727E+02  0.7816164E-02  0.1312668E+00
        -11   -1    0    0    0    0  0.00000000000E+00  0.00000000000E+00  0.45593999997E+02  0.45594000000E+02  0.51100000000E-03 0.  1.
         11   -1    0    0    0    0 -0.00000000000E+00 -0.00000000000E+00 -0.45593999997E+02  0.45594000000E+02  0.51100000000E-03 0. -1.
    9900012    2    1    2    0    0 -0.33718303242E+02 -0.19101629210E+02 -0.19540395875E+02  0.47787270940E+02  0.19999999523E+02 0.  0.
        -12    1    1    2    0    0  0.33718303242E+02  0.19101629210E+02  0.19540395875E+02  0.43400729060E+02  0.00000000000E+00 0.  1.
         11    1    3    3    0    0 -0.17747039763E+02 -0.19585708848E+02 -0.13868752336E+02  0.29847943029E+02  0.51100000000E-03 0. -1.
        -11    1    3    3    0    0 -0.52815530815E+01 -0.25062187325E+01 -0.11744250075E+01  0.59628189346E+01  0.51100000000E-03 0.  1.
         12    1    3    3    0    0 -0.10689710398E+02  0.29902983711E+01 -0.44972185313E+01  0.11976508976E+02  0.00000000000E+00 0. -1.
</event>
<event>
 7    1  0.4519225E-009  0.4778728E+02  0.7816164E-02  0.1312668E+00
        -11   -1    0    0    0    0  0.00000000000E+00  0.00000000000E+00  0.45593999997E+02  0.45594000000E+02  0.51100000000E-03 0. -1.
         11   -1    0    0    0    0 -0.00000000000E+00 -0.00000000000E+00 -0.45593999997E+02  0.45594000000E+02  0.51100000000E-03 0.  1.
    9900012    2    1    2    0    0 -0.37523321052E+02 -0.93890706196E+01  0.19684218515E+02  0.47787277328E+02  0.20000028649E+02 0.  0.
        -12    1    1    2    0    0  0.37523321052E+02  0.93890706196E+01 -0.19684218515E+02  0.43400722672E+02  0.00000000000E+00 0.  1.
         11    1    3    3    0    0 -0.30689141029E+02 -0.38941568577E+01  0.19821998083E+02  0.36740977709E+02  0.51100000000E-03 0. -1.
        -11    1    3    3    0    0  0.32224009246E+00  0.80509299807E+00  0.11338883983E+01  0.14274861028E+01  0.51100000000E-03 0.  1.
        -12    1    3    3    0    0 -0.71564201156E+01 -0.63000067599E+01 -0.12716679658E+01  0.96188135163E+01  0.00000000000E+00 0.  1.
</event>
<event>
 7    1  0.4519225E-009  0.4778728E+02  0.7816164E-02  0.1312668E+00
        -11   -1    0    0    0    0  0.00000000000E+00  0.00000000000E+00  0.45593999997E+02  0.45594000000E+02  0.51100000000E-03 0.  1.
         11   -1    0    0    0    0 -0.00000000000E+00 -0.00000000000E+00 -0.45593999997E+02  0.45594000000E+02  0.51100000000E-03 0. -1.
    9900012    2    1    2    0    0  0.24717174735E+02  0.32151482195E+02 -0.15458535618E+02  0.47787275840E+02  0.20000021863E+02 0.  0.
        -12    1    1    2    0    0 -0.24717174735E+02 -0.32151482195E+02  0.15458535618E+02  0.43400724160E+02  0.00000000000E+00 0.  1.
         11    1    3    3    0    0 -0.69710831629E+00  0.46425541501E+01 -0.14028928791E+01  0.48997324144E+01  0.51100000000E-03 0. -1.
        -11    1    3    3    0    0  0.16796338010E+02  0.15782470519E+02 -0.58183943310E+00  0.23055192118E+02  0.51100000000E-03 0.  1.
         12    1    3    3    0    0  0.86179450413E+01  0.11726457526E+02 -0.13473803306E+02  0.19832351307E+02  0.00000000000E+00 0. -1.
</event>
<event>
 7    1  0.4519225E-009  0.4778727E+02  0.7816164E-02  0.1312668E+00
        -11   -1    0    0    0    0  0.00000000000E+00  0.00000000000E+00  0.45593999997E+02  0.45594000000E+02  0.51100000000E-03 0.  1.
         11   -1    0    0    0    0 -0.00000000000E+00 -0.00000000000E+00 -0.45593999997E+02  0.45594000000E+02  0.51100000000E-03 0. -1.
    9900012    2    1    2    0    0 -0.10164934266E+02  0.11434342611E+02 -0.40614691868E+02  0.47787271030E+02  0.19999999935E+02 0.  0.
        -12    1    1    2    0    0  0.10164934266E+02 -0.11434342611E+02  0.40614691868E+02  0.43400728970E+02  0.00000000000E+00 0.  1.
         11    1    3    3    0    0  0.17175444675E+01  0.43908872505E+01 -0.32831780379E+01  0.57453553532E+01  0.51100000000E-03 0. -1.
        -11    1    3    3    0    0 -0.11528297127E+01 -0.37891549866E+01 -0.58795285106E+01  0.70891161386E+01  0.51100000000E-03 0.  1.
         12    1    3    3    0    0 -0.10729649021E+02  0.10832610347E+02 -0.31451985320E+02  0.34952799538E+02  0.00000000000E+00 0. -1.
</event>
<event>
 7    1  0.4519225E-009  0.4778727E+02  0.7816164E-02  0.1312668E+00
        -11   -1    0    0    0    0  0.00000000000E+00  0.00000000000E+00  0.45593999997E+02  0.45594000000E+02  0.51100000000E-03 0. -1.
         11   -1    0    0    0    0 -0.00000000000E+00 -0.00000000000E+00 -0.45593999997E+02  0.45594000000E+02  0.51100000000E-03 0.  1.
    9900012    2    1    2    0    0 -0.27147881639E+02  0.27883943335E+02  0.19212013866E+02  0.47787271317E+02  0.20000001243E+02 0.  0.
        -12    1    1    2    0    0  0.27147881639E+02 -0.27883943335E+02 -0.19212013866E+02  0.43400728683E+02  0.00000000000E+00 0.  1.
         11    1    3    3    0    0 -0.11102168075E+02  0.17853141013E+02  0.14857337175E+02  0.25743605967E+02  0.51100000000E-03 0. -1.
        -11    1    3    3    0    0 -0.33966089865E+01  0.75848283637E+01 -0.37608317524E+00  0.83191353355E+01  0.51100000000E-03 0.  1.
         12    1    3    3    0    0 -0.12649104577E+02  0.24459739590E+01  0.47307598661E+01  0.13724530015E+02  0.00000000000E+00 0. -1.
</event>
<event>
 7    1  0.4519225E-009  0.4778727E+02  0.7816164E-02  0.1312668E+00
        -11   -1    0    0    0    0  0.00000000000E+00  0.00000000000E+00  0.45593999997E+02  0.45594000000E+02  0.51100000000E-03 0. -1.
         11   -1    0    0    0    0 -0.00000000000E+00 -0.00000000000E+00 -0.45593999997E+02  0.45594000000E+02  0.51100000000E-03 0.  1.
    9900012    2    1    2    0    0  0.27903901145E+02 -0.33023511582E+02 -0.38003917390E+01  0.47787274272E+02  0.20000014717E+02 0.  0.
        -12    1    1    2    0    0 -0.27903901145E+02  0.33023511582E+02  0.38003917390E+01  0.43400725728E+02  0.00000000000E+00 0.  1.
         11    1    3    3    0    0  0.52038710202E+01 -0.19436071406E+01 -0.58721932152E+01  0.80833492891E+01  0.51100000000E-03 0.  1.
        -11    1    3    3    0    0  0.36139996417E+01 -0.10172831372E+02 -0.23593579136E+01  0.11050523135E+02  0.51100000000E-03 0. -1.
        -12    1    3    3    0    0  0.19086030483E+02 -0.20907073069E+02  0.44311593899E+01  0.28653401848E+02  0.00000000000E+00 0.  1.
</event>
<event>
 7    1  0.4519225E-009  0.4778727E+02  0.7816164E-02  0.1312668E+00
        -11   -1    0    0    0    0  0.00000000000E+00  0.00000000000E+00  0.45593999997E+02  0.45594000000E+02  0.51100000000E-03 0.  1.
         11   -1    0    0    0    0 -0.00000000000E+00 -0.00000000000E+00 -0.45593999997E+02  0.45594000000E+02  0.51100000000E-03 0. -1.
    9900012    2    1    2    0    0 -0.40684201043E+02  0.66996848849E+01  0.13547436782E+02  0.47787273791E+02  0.20000012522E+02 0.  0.
        -12    1    1    2    0    0  0.40684201043E+02 -0.66996848849E+01 -0.13547436782E+02  0.43400726209E+02  0.00000000000E+00 0.  1.
         11    1    3    3    0    0 -0.29304852101E+01  0.50302032648E+01  0.25092387283E+01  0.63393191834E+01  0.51100000000E-03 0. -1.
        -11    1    3    3    0    0 -0.30879141185E+01  0.22258902671E+01  0.49545363298E+01  0.62479782001E+01  0.51100000000E-03 0.  1.
         12    1    3    3    0    0 -0.34665801715E+02 -0.55640864706E+00  0.60836617244E+01  0.35199976407E+02  0.00000000000E+00 0. -1.
</event>
<event>
 7    1  0.4519225E-009  0.4778727E+02  0.7816164E-02  0.1312668E+00
        -11   -1    0    0    0    0  0.00000000000E+00  0.00000000000E+00  0.45593999997E+02  0.45594000000E+02  0.51100000000E-03 0.  1.
         11   -1    0    0    0    0 -0.00000000000E+00 -0.00000000000E+00 -0.45593999997E+02  0.45594000000E+02  0.51100000000E-03 0. -1.
    9900012    2    1    2    0    0 -0.35462293204E+02 -0.23726683263E+02 -0.79431548743E+01  0.47787269047E+02  0.19999990892E+02 0.  0.
        -12    1    1    2    0    0  0.35462293204E+02  0.23726683263E+02  0.79431548743E+01  0.43400730953E+02  0.00000000000E+00 0.  1.
         11    1    3    3    0    0 -0.11576394017E+02 -0.45364584365E+01 -0.42718812328E+01  0.13146913064E+02  0.51100000000E-03 0. -1.
        -11    1    3    3    0    0 -0.21722912524E+02 -0.19831447078E+02 -0.73561587921E+01  0.30319701420E+02  0.51100000000E-03 0.  1.
        -12    1    3    3    0    0 -0.21629866624E+01  0.64122225240E+00  0.36848851506E+01  0.43206545629E+01  0.00000000000E+00 0.  1.
</event>
<event>
 7    1  0.4519225E-009  0.4778727E+02  0.7816164E-02  0.1312668E+00
        -11   -1    0    0    0    0  0.00000000000E+00  0.00000000000E+00  0.45593999997E+02  0.45594000000E+02  0.51100000000E-03 0.  1.
         11   -1    0    0    0    0 -0.00000000000E+00 -0.00000000000E+00 -0.45593999997E+02  0.45594000000E+02  0.51100000000E-03 0. -1.
    9900012    2    1    2    0    0 -0.28129622414E+02 -0.39742732241E+01 -0.32810861979E+02  0.47787272257E+02  0.20000005529E+02 0.  0.
        -12    1    1    2    0    0  0.28129622414E+02  0.39742732241E+01  0.32810861979E+02  0.43400727743E+02  0.00000000000E+00 0.  1.
         11    1    3    3    0    0 -0.77186956194E+00  0.41806029984E+01 -0.36790328324E+01  0.56221443324E+01  0.51100000000E-03 0. -1.
        -11    1    3    3    0    0 -0.20438675239E+01  0.22541875579E+01 -0.21071961286E+01  0.37012203105E+01  0.51100000000E-03 0.  1.
         12    1    3    3    0    0 -0.25313885328E+02 -0.10409063780E+02 -0.27024633018E+02  0.38463907614E+02  0.00000000000E+00 0. -1.
</event>
<event>
 7    1  0.4519225E-009  0.4778727E+02  0.7816164E-02  0.1312668E+00
        -11   -1    0    0    0    0  0.00000000000E+00  0.00000000000E+00  0.45593999997E+02  0.45594000000E+02  0.51100000000E-03 0. -1.
         11   -1    0    0    0    0 -0.00000000000E+00 -0.00000000000E+00 -0.45593999997E+02  0.45594000000E+02  0.51100000000E-03 0.  1.
    9900012    2    1    2    0    0 -0.45495705217E+01 -0.35540314590E+02  0.24491038024E+02  0.47787268479E+02  0.19999988301E+02 0.  0.
        -12    1    1    2    0    0  0.45495705217E+01  0.35540314590E+02 -0.24491038024E+02  0.43400731521E+02  0.00000000000E+00 0.  1.
         11    1    3    3    0    0 -0.19774928811E+01 -0.88520492294E+01  0.12922279639E+02  0.15787797978E+02  0.51100000000E-03 0. -1.
        -11    1    3    3    0    0 -0.32364385002E+00  0.14970821422E+01  0.29448590088E+00  0.15597187211E+01  0.51100000000E-03 0.  1.
        -12    1    3    3    0    0 -0.22484337906E+01 -0.28185347503E+02  0.11274272484E+02  0.30439751780E+02  0.00000000000E+00 0.  1.
</event>
<event>
 7    1  0.4519225E-009  0.4778727E+02  0.7816164E-02  0.1312668E+00
        -11   -1    0    0    0    0  0.00000000000E+00  0.00000000000E+00  0.45593999997E+02  0.45594000000E+02  0.51100000000E-03 0. -1.
         11   -1    0    0    0    0 -0.00000000000E+00 -0.00000000000E+00 -0.45593999997E+02  0.45594000000E+02  0.51100000000E-03 0.  1.
    9900012    2    1    2    0    0  0.22634459040E+02  0.40169894171E+00  0.37028956122E+02  0.47787266256E+02  0.19999978166E+02 0.  0.
        -12    1    1    2    0    0 -0.22634459040E+02 -0.40169894171E+00 -0.37028956122E+02  0.43400733744E+02  0.00000000000E+00 0.  1.
         11    1    3    3    0    0  0.47834952335E+01 -0.76776769642E+00  0.11322918978E+02  0.12315834862E+02  0.51100000000E-03 0. -1.
        -11    1    3    3    0    0 -0.22321514949E+01 -0.81270531113E+00 -0.46768842856E+00  0.24210995325E+01  0.51100000000E-03 0.  1.
        -12    1    3    3    0    0  0.20083115301E+02  0.19821719493E+01  0.26173725572E+02  0.33050331862E+02  0.00000000000E+00 0.  1.
</event>
<event>
 7    1  0.4519225E-009  0.4778727E+02  0.7816164E-02  0.1312668E+00
        -11   -1    0    0    0    0  0.00000000000E+00  0.00000000000E+00  0.45593999997E+02  0.45594000000E+02  0.51100000000E-03 0. -1.
         11   -1    0    0    0    0 -0.00000000000E+00 -0.00000000000E+00 -0.45593999997E+02  0.45594000000E+02  0.51100000000E-03 0.  1.
    9900012    2    1    2    0    0 -0.21414737808E+02 -0.28868762580E+02  0.24323382793E+02  0.47787269605E+02  0.19999993438E+02 0.  0.
        -12    1    1    2    0    0  0.21414737808E+02  0.28868762580E+02 -0.24323382793E+02  0.43400730395E+02  0.00000000000E+00 0.  1.
         11    1    3    3    0    0 -0.63267544235E+01 -0.16834071797E+02  0.16755215325E+02  0.24579484040E+02  0.51100000000E-03 0. -1.
        -11    1    3    3    0    0 -0.12017455822E+02 -0.10265108864E+02  0.10185106037E+02  0.18802342665E+02  0.51100000000E-03 0.  1.
        -12    1    3    3    0    0 -0.30705275618E+01 -0.17695819188E+01 -0.26169385691E+01  0.44054429005E+01  0.00000000000E+00 0.  1.
</event>
<event>
 7    1  0.4519225E-009  0.4778727E+02  0.7816164E-02  0.1312668E+00
        -11   -1    0    0    0    0  0.00000000000E+00  0.00000000000E+00  0.45593999997E+02  0.45594000000E+02  0.51100000000E-03 0.  1.
         11   -1    0    0    0    0 -0.00000000000E+00 -0.00000000000E+00 -0.45593999997E+02  0.45594000000E+02  0.51100000000E-03 0. -1.
    9900012    2    1    2    0    0 -0.38713570659E+01 -0.14309996507E+02 -0.40790439808E+02  0.47787269761E+02  0.19999994148E+02 0.  0.
        -12    1    1    2    0    0  0.38713570659E+01  0.14309996507E+02  0.40790439808E+02  0.43400730239E+02  0.00000000000E+00 0.  1.
         11    1    3    3    0    0  0.22297478130E+01 -0.17358518756E+01 -0.42694480836E+01  0.51198773661E+01  0.51100000000E-03 0. -1.
        -11    1    3    3    0    0 -0.56296791491E+01 -0.15302491595E+02 -0.19481865631E+02  0.25404775635E+02  0.51100000000E-03 0.  1.
         12    1    3    3    0    0 -0.47142572980E+00  0.27283469640E+01 -0.17039126093E+02  0.17262616759E+02  0.00000000000E+00 0. -1.
</event>
<event>
 7    1  0.4519225E-009  0.4778728E+02  0.7816164E-02  0.1312668E+00
        -11   -1    0    0    0    0  0.00000000000E+00  0.00000000000E+00  0.45593999997E+02  0.45594000000E+02  0.51100000000E-03 0.  1.
         11   -1    0    0    0    0 -0.00000000000E+00 -0.00000000000E+00 -0.45593999997E+02  0.45594000000E+02  0.51100000000E-03 0. -1.
    9900012    2    1    2    0    0 -0.35447783719E+02 -0.24965588168E+02 -0.19484734453E+01  0.47787279823E+02  0.20000040024E+02 0.  0.
        -12    1    1    2    0    0  0.35447783719E+02  0.24965588168E+02  0.19484734453E+01  0.43400720177E+02  0.00000000000E+00 0.  1.
         11    1    3    3    0    0 -0.40838190035E+01 -0.31343769667E+01  0.42888109644E+01  0.67004325511E+01  0.51100000000E-03 0. -1.
        -11    1    3    3    0    0 -0.10861788475E+02 -0.12031856165E+02  0.31288290815E+01  0.16508591198E+02  0.51100000000E-03 0.  1.
         12    1    3    3    0    0 -0.20502176240E+02 -0.97993550354E+01 -0.93661134912E+01  0.24578256074E+02  0.00000000000E+00 0. -1.
</event>
<event>
 7    1  0.4519225E-009  0.4778729E+02  0.7816164E-02  0.1312668E+00
        -11   -1    0    0    0    0  0.00000000000E+00  0.00000000000E+00  0.45593999997E+02  0.45594000000E+02  0.51100000000E-03 0. -1.
         11   -1    0    0    0    0 -0.00000000000E+00 -0.00000000000E+00 -0.45593999997E+02  0.45594000000E+02  0.51100000000E-03 0.  1.
    9900012    2    1    2    0    0 -0.17071365804E+02  0.31868226235E+02 -0.24012632258E+02  0.47787287082E+02  0.20000073122E+02 0.  0.
        -12    1    1    2    0    0  0.17071365804E+02 -0.31868226235E+02  0.24012632258E+02  0.43400712918E+02  0.00000000000E+00 0.  1.
         11    1    3    3    0    0 -0.47072364738E+01  0.12556141326E+02 -0.13184109306E+02  0.18805198714E+02  0.51100000000E-03 0. -1.
        -11    1    3    3    0    0 -0.22949126070E+01 -0.16045572431E+01 -0.38135495278E+01  0.47312142291E+01  0.51100000000E-03 0.  1.
        -12    1    3    3    0    0 -0.10069216723E+02  0.20916642153E+02 -0.70149734244E+01  0.24250874139E+02  0.00000000000E+00 0.  1.
</event>
<event>
 7    1  0.4519225E-009  0.4778727E+02  0.7816164E-02  0.1312668E+00
        -11   -1    0    0    0    0  0.00000000000E+00  0.00000000000E+00  0.45593999997E+02  0.45594000000E+02  0.51100000000E-03 0.  1.
         11   -1    0    0    0    0 -0.00000000000E+00 -0.00000000000E+00 -0.45593999997E+02  0.45594000000E+02  0.51100000000E-03 0. -1.
    9900012    2    1    2    0    0  0.20745186001E+02  0.10414178077E+02 -0.36671588974E+02  0.47787270915E+02  0.19999999409E+02 0.  0.
        -12    1    1    2    0    0 -0.20745186001E+02 -0.10414178077E+02  0.36671588974E+02  0.43400729085E+02  0.00000000000E+00 0.  1.
         11    1    3    3    0    0 -0.79564448549E+00  0.50657993130E+01 -0.83853307461E+01  0.98289951068E+01  0.51100000000E-03 0. -1.
        -11    1    3    3    0    0  0.34677918287E+01 -0.34651901686E+01 -0.80876547630E+01  0.94574458972E+01  0.51100000000E-03 0.  1.
         12    1    3    3    0    0  0.18073038658E+02  0.88135689321E+01 -0.20198603465E+02  0.28500829911E+02  0.00000000000E+00 0. -1.
</event>
<event>
 7    1  0.4519225E-009  0.4778727E+02  0.7816164E-02  0.1312668E+00
        -11   -1    0    0    0    0  0.00000000000E+00  0.00000000000E+00  0.45593999997E+02  0.45594000000E+02  0.51100000000E-03 0.  1.
         11   -1    0    0    0    0 -0.00000000000E+00 -0.00000000000E+00 -0.45593999997E+02  0.45594000000E+02  0.51100000000E-03 0. -1.
    9900012    2    1    2    0    0  0.20890944150E+02 -0.15053314686E+02 -0.34936934632E+02  0.47787271527E+02  0.20000002200E+02 0.  0.
        -12    1    1    2    0    0 -0.20890944150E+02  0.15053314686E+02  0.34936934632E+02  0.43400728473E+02  0.00000000000E+00 0.  1.
         11    1    3    3    0    0  0.49375468694E+01 -0.23295647439E+00 -0.16060228197E+02  0.16803706966E+02  0.51100000000E-03 0. -1.
        -11    1    3    3    0    0  0.47797353274E+01 -0.32070151862E+01 -0.12294821720E+02  0.13575472647E+02  0.51100000000E-03 0.  1.
        -12    1    3    3    0    0  0.11173661953E+02 -0.11613343025E+02 -0.65818847148E+01  0.17408091913E+02  0.00000000000E+00 0.  1.
</event>
<event>
 7    1  0.4519225E-009  0.4778727E+02  0.7816164E-02  0.1312668E+00
        -11   -1    0    0    0    0  0.00000000000E+00  0.00000000000E+00  0.45593999997E+02  0.45594000000E+02  0.51100000000E-03 0. -1.
         11   -1    0    0    0    0 -0.00000000000E+00 -0.00000000000E+00 -0.45593999997E+02  0.45594000000E+02  0.51100000000E-03 0.  1.
    9900012    2    1    2    0    0  0.31533664545E+02  0.58427043601E+01  0.29242334007E+02  0.47787270835E+02  0.19999999044E+02 0.  0.
        -12    1    1    2    0    0 -0.31533664545E+02 -0.58427043601E+01 -0.29242334007E+02  0.43400729165E+02  0.00000000000E+00 0.  1.
         11    1    3    3    0    0  0.21031831612E+02 -0.11157014319E+00  0.15082616871E+02  0.25881184687E+02  0.51100000000E-03 0. -1.
        -11    1    3    3    0    0  0.15741698984E+01 -0.27537099732E+01  0.65996123215E+01  0.73222819217E+01  0.51100000000E-03 0.  1.
        -12    1    3    3    0    0  0.89276630350E+01  0.87079844765E+01  0.75601048145E+01  0.14583804226E+02  0.00000000000E+00 0.  1.
</event>
<event>
 7    1  0.4519225E-009  0.4778727E+02  0.7816164E-02  0.1312668E+00
        -11   -1    0    0    0    0  0.00000000000E+00  0.00000000000E+00  0.45593999997E+02  0.45594000000E+02  0.51100000000E-03 0.  1.
         11   -1    0    0    0    0 -0.00000000000E+00 -0.00000000000E+00 -0.45593999997E+02  0.45594000000E+02  0.51100000000E-03 0. -1.
    9900012    2    1    2    0    0  0.13711951838E+02 -0.31660042403E+02 -0.26329592791E+02  0.47787269998E+02  0.19999995228E+02 0.  0.
        -12    1    1    2    0    0 -0.13711951838E+02  0.31660042403E+02  0.26329592791E+02  0.43400730002E+02  0.00000000000E+00 0.  1.
         11    1    3    3    0    0 -0.21908738634E+01 -0.46654539805E+00 -0.18964070973E+01  0.29349536680E+01  0.51100000000E-03 0.  1.
        -11    1    3    3    0    0  0.16624154635E+02 -0.31911680010E+02 -0.21901218769E+02  0.42123404685E+02  0.51100000000E-03 0. -1.
         12    1    3    3    0    0 -0.72132893374E+00  0.71818300486E+00 -0.25319669247E+01  0.27289116451E+01  0.00000000000E+00 0. -1.
</event>
<event>
 7    1  0.4519225E-009  0.4778727E+02  0.7816164E-02  0.1312668E+00
        -11   -1    0    0    0    0  0.00000000000E+00  0.00000000000E+00  0.45593999997E+02  0.45594000000E+02  0.51100000000E-03 0.  1.
         11   -1    0    0    0    0 -0.00000000000E+00 -0.00000000000E+00 -0.45593999997E+02  0.45594000000E+02  0.51100000000E-03 0. -1.
    9900012    2    1    2    0    0 -0.21070347939E+02 -0.36450993454E+02 -0.10535122535E+02  0.47787270825E+02  0.19999999001E+02 0.  0.
        -12    1    1    2    0    0  0.21070347939E+02  0.36450993454E+02  0.10535122535E+02  0.43400729175E+02  0.00000000000E+00 0.  1.
         11    1    3    3    0    0 -0.93695124976E+01 -0.48637862558E+01 -0.79859012927E+01  0.13237023869E+02  0.51100000000E-03 0. -1.
        -11    1    3    3    0    0 -0.36730567334E+01 -0.58908943255E+01  0.20512441108E+01  0.72388938647E+01  0.51100000000E-03 0.  1.
         12    1    3    3    0    0 -0.80277787078E+01 -0.25696312873E+02 -0.46004653534E+01  0.27311353092E+02  0.00000000000E+00 0. -1.
</event>
<event>
 7    1  0.4519225E-009  0.4778727E+02  0.7816164E-02  0.1312668E+00
        -11   -1    0    0    0    0  0.00000000000E+00  0.00000000000E+00  0.45593999997E+02  0.45594000000E+02  0.51100000000E-03 0. -1.
         11   -1    0    0    0    0 -0.00000000000E+00 -0.00000000000E+00 -0.45593999997E+02  0.45594000000E+02  0.51100000000E-03 0.  1.
    9900012    2    1    2    0    0  0.43083319085E+02  0.31979759270E+01  0.41502184241E+01  0.47787265601E+02  0.19999975181E+02 0.  0.
        -12    1    1    2    0    0 -0.43083319085E+02 -0.31979759270E+01 -0.41502184241E+01  0.43400734399E+02  0.00000000000E+00 0.  1.
         11    1    3    3    0    0  0.12707871577E+02  0.60359864186E+01 -0.16482664602E+01  0.14164741955E+02  0.51100000000E-03 0. -1.
        -11    1    3    3    0    0  0.16826704654E+01 -0.10530929778E+01 -0.29650894291E+01  0.35682124794E+01  0.51100000000E-03 0.  1.
         12    1    3    3    0    0  0.28692777042E+02 -0.17849175139E+01  0.87635743134E+01  0.30054311166E+02  0.00000000000E+00 0. -1.
</event>
<event>
 7    1  0.4519225E-009  0.4778728E+02  0.7816164E-02  0.1312668E+00
        -11   -1    0    0    0    0  0.00000000000E+00  0.00000000000E+00  0.45593999997E+02  0.45594000000E+02  0.51100000000E-03 0. -1.
         11   -1    0    0    0    0 -0.00000000000E+00 -0.00000000000E+00 -0.45593999997E+02  0.45594000000E+02  0.51100000000E-03 0.  1.
    9900012    2    1    2    0    0 -0.37020059615E+02 -0.21391701455E+02  0.74520254237E+01  0.47787281251E+02  0.20000046535E+02 0.  0.
        -12    1    1    2    0    0  0.37020059615E+02  0.21391701455E+02 -0.74520254237E+01  0.43400718749E+02  0.00000000000E+00 0.  1.
         11    1    3    3    0    0 -0.11495496686E+02 -0.81403600869E+01 -0.10016291157E+01  0.14121443536E+02  0.51100000000E-03 0. -1.
        -11    1    3    3    0    0 -0.19678529755E+02 -0.28717976291E+01  0.16696407060E+01  0.19956940028E+02  0.51100000000E-03 0.  1.
         12    1    3    3    0    0 -0.58460331745E+01 -0.10379543739E+02  0.67840138333E+01  0.13708897687E+02  0.00000000000E+00 0. -1.
</event>
<event>
 7    1  0.4519225E-009  0.4778727E+02  0.7816164E-02  0.1312668E+00
        -11   -1    0    0    0    0  0.00000000000E+00  0.00000000000E+00  0.45593999997E+02  0.45594000000E+02  0.51100000000E-03 0. -1.
         11   -1    0    0    0    0 -0.00000000000E+00 -0.00000000000E+00 -0.45593999997E+02  0.45594000000E+02  0.51100000000E-03 0.  1.
    9900012    2    1    2    0    0 -0.27375673869E+01  0.41677395686E+02  0.11795066890E+02  0.47787272019E+02  0.20000004442E+02 0.  0.
        -12    1    1    2    0    0  0.27375673869E+01 -0.41677395686E+02 -0.11795066890E+02  0.43400727981E+02  0.00000000000E+00 0.  1.
         11    1    3    3    0    0 -0.20973835973E+00  0.21782799624E+02  0.93054542265E+01  0.23688094652E+02  0.51100000000E-03 0. -1.
        -11    1    3    3    0    0 -0.85465466017E-01  0.14401088072E+02  0.75324440838E+01  0.16252272338E+02  0.51100000000E-03 0.  1.
        -12    1    3    3    0    0 -0.24423635612E+01  0.54935079901E+01 -0.50428314198E+01  0.78469050288E+01  0.00000000000E+00 0.  1.
</event>
<event>
 7    1  0.4519225E-009  0.4778727E+02  0.7816164E-02  0.1312668E+00
        -11   -1    0    0    0    0  0.00000000000E+00  0.00000000000E+00  0.45593999997E+02  0.45594000000E+02  0.51100000000E-03 0. -1.
         11   -1    0    0    0    0 -0.00000000000E+00 -0.00000000000E+00 -0.45593999997E+02  0.45594000000E+02  0.51100000000E-03 0.  1.
    9900012    2    1    2    0    0  0.14874719496E+02 -0.40325813573E+02  0.60162003982E+01  0.47787272038E+02  0.20000004528E+02 0.  0.
        -12    1    1    2    0    0 -0.14874719496E+02  0.40325813573E+02 -0.60162003982E+01  0.43400727962E+02  0.00000000000E+00 0.  1.
         11    1    3    3    0    0  0.58754101956E+00 -0.13347834868E+02  0.30931007350E+01  0.13714123105E+02  0.51100000000E-03 0. -1.
        -11    1    3    3    0    0  0.68179194226E+01 -0.78071604672E+01  0.77474718717E+01  0.12940598923E+02  0.51100000000E-03 0.  1.
         12    1    3    3    0    0  0.74692590534E+01 -0.19170818238E+02 -0.48243722085E+01  0.21132550010E+02  0.00000000000E+00 0. -1.
</event>
<event>
 7    1  0.4519225E-009  0.4778727E+02  0.7816164E-02  0.1312668E+00
        -11   -1    0    0    0    0  0.00000000000E+00  0.00000000000E+00  0.45593999997E+02  0.45594000000E+02  0.51100000000E-03 0. -1.
         11   -1    0    0    0    0 -0.00000000000E+00 -0.00000000000E+00 -0.45593999997E+02  0.45594000000E+02  0.51100000000E-03 0.  1.
    9900012    2    1    2    0    0 -0.39008627322E+02  0.62889664405E+01  0.17955476051E+02  0.47787271611E+02  0.20000002585E+02 0.  0.
        -12    1    1    2    0    0  0.39008627322E+02 -0.62889664405E+01 -0.17955476051E+02  0.43400728389E+02  0.00000000000E+00 0.  1.
         11    1    3    3    0    0 -0.18924969570E+02 -0.37604325864E+01  0.43385965658E+01  0.19776722349E+02  0.51100000000E-03 0. -1.
        -11    1    3    3    0    0 -0.30769472582E+01 -0.17421124623E+01  0.35006874830E+01  0.49756781825E+01  0.51100000000E-03 0.  1.
         12    1    3    3    0    0 -0.17006710494E+02  0.11791511489E+02  0.10116192002E+02  0.23034871080E+02  0.00000000000E+00 0. -1.
</event>
<event>
 7    1  0.4519225E-009  0.4778726E+02  0.7816164E-02  0.1312668E+00
        -11   -1    0    0    0    0  0.00000000000E+00  0.00000000000E+00  0.45593999997E+02  0.45594000000E+02  0.51100000000E-03 0. -1.
         11   -1    0    0    0    0 -0.00000000000E+00 -0.00000000000E+00 -0.45593999997E+02  0.45594000000E+02  0.51100000000E-03 0.  1.
    9900012    2    1    2    0    0  0.11084300297E+02 -0.56288883331E+01  0.41582185847E+02  0.47787259491E+02  0.19999947322E+02 0.  0.
        -12    1    1    2    0    0 -0.11084300297E+02  0.56288883331E+01 -0.41582185847E+02  0.43400740509E+02  0.00000000000E+00 0.  1.
         11    1    3    3    0    0 -0.13342805163E+01 -0.17769902415E+01 -0.23509543789E+00  0.22345623599E+01  0.51100000000E-03 0.  1.
        -11    1    3    3    0    0  0.72419093120E+00  0.19202899511E+00 -0.84667627221E+00  0.11305700380E+01  0.51100000000E-03 0. -1.
         12    1    3    3    0    0  0.11694389882E+02 -0.40439270867E+01  0.42663957557E+02  0.44422127093E+02  0.00000000000E+00 0. -1.
</event>
<event>
 7    1  0.4519225E-009  0.4778726E+02  0.7816164E-02  0.1312668E+00
        -11   -1    0    0    0    0  0.00000000000E+00  0.00000000000E+00  0.45593999997E+02  0.45594000000E+02  0.51100000000E-03 0. -1.
         11   -1    0    0    0    0 -0.00000000000E+00 -0.00000000000E+00 -0.45593999997E+02  0.45594000000E+02  0.51100000000E-03 0.  1.
    9900012    2    1    2    0    0  0.14061032683E+02  0.40401046040E+02  0.73257641414E+01  0.47787262892E+02  0.19999962829E+02 0.  0.
        -12    1    1    2    0    0 -0.14061032683E+02 -0.40401046040E+02 -0.73257641414E+01  0.43400737108E+02  0.00000000000E+00 0.  1.
         11    1    3    3    0    0  0.53499277545E+01  0.13867520293E+02 -0.22008491647E+01  0.15025763986E+02  0.51100000000E-03 0. -1.
        -11    1    3    3    0    0 -0.18539091118E+01 -0.48368187919E+00 -0.64323032899E+00  0.20210573154E+01  0.51100000000E-03 0.  1.
        -12    1    3    3    0    0  0.10565014041E+02  0.27017207626E+02  0.10169843635E+02  0.30740441590E+02  0.00000000000E+00 0.  1.
</event>
<event>
 7    1  0.4519225E-009  0.4778727E+02  0.7816164E-02  0.1312668E+00
        -11   -1    0    0    0    0  0.00000000000E+00  0.00000000000E+00  0.45593999997E+02  0.45594000000E+02  0.51100000000E-03 0. -1.
         11   -1    0    0    0    0 -0.00000000000E+00 -0.00000000000E+00 -0.45593999997E+02  0.45594000000E+02  0.51100000000E-03 0.  1.
    9900012    2    1    2    0    0 -0.31591065193E+02  0.25323896877E+02  0.15630993050E+02  0.47787273084E+02  0.20000009301E+02 0.  0.
        -12    1    1    2    0    0  0.31591065193E+02 -0.25323896877E+02 -0.15630993050E+02  0.43400726916E+02  0.00000000000E+00 0.  1.
         11    1    3    3    0    0  0.87939873013E+00 -0.35180598796E+00 -0.18462676253E+00  0.96498543113E+00  0.51100000000E-03 0. -1.
        -11    1    3    3    0    0 -0.54754959653E+01  0.27747302447E+00  0.66920854787E+01  0.86511303112E+01  0.51100000000E-03 0.  1.
        -12    1    3    3    0    0 -0.26994967958E+02  0.25398229841E+02  0.91235343339E+01  0.38171157342E+02  0.00000000000E+00 0.  1.
</event>
<event>
 7    1  0.4519225E-009  0.4778727E+02  0.7816164E-02  0.1312668E+00
        -11   -1    0    0    0    0  0.00000000000E+00  0.00000000000E+00  0.45593999997E+02  0.45594000000E+02  0.51100000000E-03 0.  1.
         11   -1    0    0    0    0 -0.00000000000E+00 -0.00000000000E+00 -0.45593999997E+02  0.45594000000E+02  0.51100000000E-03 0. -1.
    9900012    2    1    2    0    0 -0.29147199897E+01  0.30242195881E+02 -0.30992538711E+02  0.47787268899E+02  0.19999990217E+02 0.  0.
        -12    1    1    2    0    0  0.29147199897E+01 -0.30242195881E+02  0.30992538711E+02  0.43400731101E+02  0.00000000000E+00 0.  1.
         11    1    3    3    0    0  0.68646106476E+00  0.63721737685E+01 -0.56964020582E+01  0.85746617425E+01  0.51100000000E-03 0. -1.
        -11    1    3    3    0    0 -0.75991597335E+01  0.22246670319E+01 -0.58980376706E+01  0.98733591388E+01  0.51100000000E-03 0.  1.
        -12    1    3    3    0    0  0.39979786790E+01  0.21645355081E+02 -0.19398098982E+02  0.29339248018E+02  0.00000000000E+00 0.  1.
</event>
<event>
 7    1  0.4519225E-009  0.4778727E+02  0.7816164E-02  0.1312668E+00
        -11   -1    0    0    0    0  0.00000000000E+00  0.00000000000E+00  0.45593999997E+02  0.45594000000E+02  0.51100000000E-03 0. -1.
         11   -1    0    0    0    0 -0.00000000000E+00 -0.00000000000E+00 -0.45593999997E+02  0.45594000000E+02  0.51100000000E-03 0.  1.
    9900012    2    1    2    0    0  0.16585049965E+02  0.39950793406E+02 -0.35346409738E+01  0.47787268866E+02  0.19999990070E+02 0.  0.
        -12    1    1    2    0    0 -0.16585049965E+02 -0.39950793406E+02  0.35346409738E+01  0.43400731134E+02  0.00000000000E+00 0.  1.
         11    1    3    3    0    0  0.98645272153E+00  0.76468518517E+00 -0.20501994653E+01  0.24002396782E+01  0.51100000000E-03 0.  1.
        -11    1    3    3    0    0  0.10183170745E+02  0.18168156690E+02  0.71611224776E+01  0.22024090432E+02  0.51100000000E-03 0. -1.
         12    1    3    3    0    0  0.54154264980E+01  0.21017951531E+02 -0.86455639862E+01  0.23362938756E+02  0.00000000000E+00 0. -1.
</event>
<event>
 7    1  0.4519225E-009  0.4778727E+02  0.7816164E-02  0.1312668E+00
        -11   -1    0    0    0    0  0.00000000000E+00  0.00000000000E+00  0.45593999997E+02  0.45594000000E+02  0.51100000000E-03 0. -1.
         11   -1    0    0    0    0 -0.00000000000E+00 -0.00000000000E+00 -0.45593999997E+02  0.45594000000E+02  0.51100000000E-03 0.  1.
    9900012    2    1    2    0    0  0.17621788770E+02 -0.39079851543E+02  0.67720759323E+01  0.47787271336E+02  0.20000001331E+02 0.  0.
        -12    1    1    2    0    0 -0.17621788770E+02  0.39079851543E+02 -0.67720759323E+01  0.43400728664E+02  0.00000000000E+00 0.  1.
         11    1    3    3    0    0  0.15241123529E+01  0.96159468131E+00  0.28487319043E+00  0.18244823351E+01  0.51100000000E-03 0.  1.
        -11    1    3    3    0    0  0.16292499864E+02 -0.25410606442E+02  0.80699557875E+01  0.31245298179E+02  0.51100000000E-03 0. -1.
         12    1    3    3    0    0 -0.19482344673E+00 -0.14630839782E+02 -0.15827530457E+01  0.14717490823E+02  0.00000000000E+00 0. -1.
</event>
<event>
 7    1  0.4519225E-009  0.4778727E+02  0.7816164E-02  0.1312668E+00
        -11   -1    0    0    0    0  0.00000000000E+00  0.00000000000E+00  0.45593999997E+02  0.45594000000E+02  0.51100000000E-03 0.  1.
         11   -1    0    0    0    0 -0.00000000000E+00 -0.00000000000E+00 -0.45593999997E+02  0.45594000000E+02  0.51100000000E-03 0. -1.
    9900012    2    1    2    0    0 -0.37655596289E+02  0.21362286587E+02  0.30548757373E+01  0.47787268602E+02  0.19999988865E+02 0.  0.
        -12    1    1    2    0    0  0.37655596289E+02 -0.21362286587E+02 -0.30548757373E+01  0.43400731398E+02  0.00000000000E+00 0.  1.
         11    1    3    3    0    0 -0.48501341855E+01  0.36623801072E+01  0.35753372159E+01  0.70512315332E+01  0.51100000000E-03 0. -1.
        -11    1    3    3    0    0 -0.13182481191E+02  0.48113625315E+01  0.75190480640E+01  0.15920524608E+02  0.51100000000E-03 0.  1.
        -12    1    3    3    0    0 -0.19622980913E+02  0.12888543948E+02 -0.80395095426E+01  0.24815512461E+02  0.00000000000E+00 0.  1.
</event>
<event>
 7    1  0.4519225E-009  0.4778727E+02  0.7816164E-02  0.1312668E+00
        -11   -1    0    0    0    0  0.00000000000E+00  0.00000000000E+00  0.45593999997E+02  0.45594000000E+02  0.51100000000E-03 0.  1.
         11   -1    0    0    0    0 -0.00000000000E+00 -0.00000000000E+00 -0.45593999997E+02  0.45594000000E+02  0.51100000000E-03 0. -1.
    9900012    2    1    2    0    0 -0.52320252625E+01  0.11008927672E+02 -0.41653965232E+02  0.47787269633E+02  0.19999993563E+02 0.  0.
        -12    1    1    2    0    0  0.52320252625E+01 -0.11008927672E+02  0.41653965232E+02  0.43400730367E+02  0.00000000000E+00 0.  1.
         11    1    3    3    0    0 -0.11052454039E+01  0.15727642572E+02 -0.26301616743E+02  0.30665214036E+02  0.51100000000E-03 0. -1.
        -11    1    3    3    0    0 -0.17475253470E+01 -0.61012082309E+00 -0.12284628670E+01  0.22215340496E+01  0.51100000000E-03 0.  1.
         12    1    3    3    0    0 -0.23792545116E+01 -0.41085940768E+01 -0.14123885622E+02  0.14900521547E+02  0.00000000000E+00 0. -1.
</event>
<event>
 7    1  0.4519225E-009  0.4778727E+02  0.7816164E-02  0.1312668E+00
        -11   -1    0    0    0    0  0.00000000000E+00  0.00000000000E+00  0.45593999997E+02  0.45594000000E+02  0.51100000000E-03 0.  1.
         11   -1    0    0    0    0 -0.00000000000E+00 -0.00000000000E+00 -0.45593999997E+02  0.45594000000E+02  0.51100000000E-03 0. -1.
    9900012    2    1    2    0    0  0.20833726596E+02 -0.27087767880E+02 -0.26755036973E+02  0.47787270328E+02  0.19999996735E+02 0.  0.
        -12    1    1    2    0    0 -0.20833726596E+02  0.27087767880E+02  0.26755036973E+02  0.43400729672E+02  0.00000000000E+00 0.  1.
         11    1    3    3    0    0  0.15452198909E+01 -0.19743555186E+01 -0.34870537311E+01  0.42948024646E+01  0.51100000000E-03 0. -1.
        -11    1    3    3    0    0  0.14869773595E+02 -0.26511855083E+02 -0.14731102834E+02  0.33778602957E+02  0.51100000000E-03 0.  1.
        -12    1    3    3    0    0  0.44187331095E+01  0.13984427216E+01 -0.85368804077E+01  0.97138649071E+01  0.00000000000E+00 0.  1.
</event>
<event>
 7    1  0.4519225E-009  0.4778727E+02  0.7816164E-02  0.1312668E+00
        -11   -1    0    0    0    0  0.00000000000E+00  0.00000000000E+00  0.45593999997E+02  0.45594000000E+02  0.51100000000E-03 0.  1.
         11   -1    0    0    0    0 -0.00000000000E+00 -0.00000000000E+00 -0.45593999997E+02  0.45594000000E+02  0.51100000000E-03 0. -1.
    9900012    2    1    2    0    0  0.26113278978E+02  0.20410881586E+01 -0.34605691889E+02  0.47787270847E+02  0.19999999102E+02 0.  0.
        -12    1    1    2    0    0 -0.26113278978E+02 -0.20410881586E+01  0.34605691889E+02  0.43400729153E+02  0.00000000000E+00 0.  1.
         11    1    3    3    0    0  0.16822777219E+02  0.32586912019E+01 -0.27156685674E+02  0.32110909031E+02  0.51100000000E-03 0. -1.
        -11    1    3    3    0    0  0.22658055461E+01  0.30385995955E+01 -0.63423181828E+01  0.73886373891E+01  0.51100000000E-03 0.  1.
        -12    1    3    3    0    0  0.70246962132E+01 -0.42562026387E+01 -0.11066880320E+01  0.82877244277E+01  0.00000000000E+00 0.  1.
</event>
<event>
 7    1  0.4519225E-009  0.4778725E+02  0.7816164E-02  0.1312668E+00
        -11   -1    0    0    0    0  0.00000000000E+00  0.00000000000E+00  0.45593999997E+02  0.45594000000E+02  0.51100000000E-03 0.  1.
         11   -1    0    0    0    0 -0.00000000000E+00 -0.00000000000E+00 -0.45593999997E+02  0.45594000000E+02  0.51100000000E-03 0. -1.
    9900012    2    1    2    0    0 -0.13091558037E+02 -0.19617925192E+02 -0.36433130683E+02  0.47787252403E+02  0.19999915004E+02 0.  0.
        -12    1    1    2    0    0  0.13091558037E+02  0.19617925192E+02  0.36433130683E+02  0.43400747597E+02  0.00000000000E+00 0.  1.
         11    1    3    3    0    0 -0.62046318098E+01 -0.93940586694E+01 -0.79800808475E+01  0.13799546542E+02  0.51100000000E-03 0. -1.
        -11    1    3    3    0    0 -0.26439659224E+01 -0.82629188207E+01 -0.48763743890E+01  0.99521560819E+01  0.51100000000E-03 0.  1.
        -12    1    3    3    0    0 -0.42429603046E+01 -0.19609477016E+01 -0.23576675446E+02  0.24035549778E+02  0.00000000000E+00 0.  1.
</event>
<event>
 7    1  0.4519225E-009  0.4778727E+02  0.7816164E-02  0.1312668E+00
        -11   -1    0    0    0    0  0.00000000000E+00  0.00000000000E+00  0.45593999997E+02  0.45594000000E+02  0.51100000000E-03 0. -1.
         11   -1    0    0    0    0 -0.00000000000E+00 -0.00000000000E+00 -0.45593999997E+02  0.45594000000E+02  0.51100000000E-03 0.  1.
    9900012    2    1    2    0    0 -0.29821520104E+02  0.31155377782E+02  0.48623737391E+01  0.47787270692E+02  0.19999998395E+02 0.  0.
        -12    1    1    2    0    0  0.29821520104E+02 -0.31155377782E+02 -0.48623737391E+01  0.43400729308E+02  0.00000000000E+00 0.  1.
         11    1    3    3    0    0 -0.20221504718E+02  0.21336144700E+02  0.73490294359E+01  0.30300966282E+02  0.51100000000E-03 0. -1.
        -11    1    3    3    0    0 -0.65891846911E+01  0.34423753453E+01  0.35177156933E+01  0.82244529831E+01  0.51100000000E-03 0.  1.
        -12    1    3    3    0    0 -0.30108306952E+01  0.63768577365E+01 -0.60043713902E+01  0.92618514271E+01  0.00000000000E+00 0.  1.
</event>
<event>
 7    1  0.4519225E-009  0.4778727E+02  0.7816164E-02  0.1312668E+00
        -11   -1    0    0    0    0  0.00000000000E+00  0.00000000000E+00  0.45593999997E+02  0.45594000000E+02  0.51100000000E-03 0. -1.
         11   -1    0    0    0    0 -0.00000000000E+00 -0.00000000000E+00 -0.45593999997E+02  0.45594000000E+02  0.51100000000E-03 0.  1.
    9900012    2    1    2    0    0  0.29886360559E+02 -0.22768299649E+02  0.21726322995E+02  0.47787272734E+02  0.20000007702E+02 0.  0.
        -12    1    1    2    0    0 -0.29886360559E+02  0.22768299649E+02 -0.21726322995E+02  0.43400727266E+02  0.00000000000E+00 0.  1.
         11    1    3    3    0    0  0.10926852773E+02 -0.60828937991E+00 -0.47998257012E+00  0.10954291900E+02  0.51100000000E-03 0. -1.
        -11    1    3    3    0    0  0.29591128884E+01 -0.57305023120E+01  0.46449211585E+01  0.79479745007E+01  0.51100000000E-03 0.  1.
         12    1    3    3    0    0  0.16000394897E+02 -0.16429507957E+02  0.17561384406E+02  0.28885006333E+02  0.00000000000E+00 0. -1.
</event>
<event>
 7    1  0.4519225E-009  0.4778726E+02  0.7816164E-02  0.1312668E+00
        -11   -1    0    0    0    0  0.00000000000E+00  0.00000000000E+00  0.45593999997E+02  0.45594000000E+02  0.51100000000E-03 0.  1.
         11   -1    0    0    0    0 -0.00000000000E+00 -0.00000000000E+00 -0.45593999997E+02  0.45594000000E+02  0.51100000000E-03 0. -1.
    9900012    2    1    2    0    0  0.47258222533E+01  0.13369700381E+02 -0.41018796842E+02  0.47787262925E+02  0.19999962980E+02 0.  0.
        -12    1    1    2    0    0 -0.47258222533E+01 -0.13369700381E+02  0.41018796842E+02  0.43400737075E+02  0.00000000000E+00 0.  1.
         11    1    3    3    0    0  0.84695916825E+00  0.10829172319E+02 -0.26612998668E+02  0.28744390954E+02  0.51100000000E-03 0. -1.
        -11    1    3    3    0    0 -0.17043975334E+01  0.35859989312E+01 -0.12397871317E+02  0.13018124778E+02  0.51100000000E-03 0.  1.
         12    1    3    3    0    0  0.55832606185E+01 -0.10454708696E+01 -0.20079268575E+01  0.60247471929E+01  0.00000000000E+00 0. -1.
</event>
<event>
 7    1  0.4519225E-009  0.4778727E+02  0.7816164E-02  0.1312668E+00
        -11   -1    0    0    0    0  0.00000000000E+00  0.00000000000E+00  0.45593999997E+02  0.45594000000E+02  0.51100000000E-03 0.  1.
         11   -1    0    0    0    0 -0.00000000000E+00 -0.00000000000E+00 -0.45593999997E+02  0.45594000000E+02  0.51100000000E-03 0. -1.
    9900012    2    1    2    0    0  0.22558736673E+02  0.49138222063E+01 -0.36750255677E+02  0.47787267964E+02  0.19999985953E+02 0.  0.
        -12    1    1    2    0    0 -0.22558736673E+02 -0.49138222063E+01  0.36750255677E+02  0.43400732036E+02  0.00000000000E+00 0.  1.
         11    1    3    3    0    0  0.80468194381E+01  0.38547034064E+01 -0.65530533477E+01  0.11070345517E+02  0.51100000000E-03 0. -1.
        -11    1    3    3    0    0  0.11077080829E+01  0.62333020625E+01 -0.11607571481E+02  0.13221829970E+02  0.51100000000E-03 0.  1.
        -12    1    3    3    0    0  0.13404209152E+02 -0.51741832626E+01 -0.18589630848E+02  0.23495092477E+02  0.00000000000E+00 0.  1.
</event>
<event>
 7    1  0.4519225E-009  0.4778726E+02  0.7816164E-02  0.1312668E+00
        -11   -1    0    0    0    0  0.00000000000E+00  0.00000000000E+00  0.45593999997E+02  0.45594000000E+02  0.51100000000E-03 0.  1.
         11   -1    0    0    0    0 -0.00000000000E+00 -0.00000000000E+00 -0.45593999997E+02  0.45594000000E+02  0.51100000000E-03 0. -1.
    9900012    2    1    2    0    0  0.92459417449E+01 -0.32001212067E+02 -0.27821914387E+02  0.47787263455E+02  0.19999965397E+02 0.  0.
        -12    1    1    2    0    0 -0.92459417449E+01  0.32001212067E+02  0.27821914387E+02  0.43400736545E+02  0.00000000000E+00 0.  1.
         11    1    3    3    0    0 -0.32156332860E+01 -0.19246102481E+02 -0.13085217406E+02  0.23494162530E+02  0.51100000000E-03 0. -1.
        -11    1    3    3    0    0  0.39127465743E+01 -0.90572764094E+01 -0.61593248514E+01  0.11631041424E+02  0.51100000000E-03 0.  1.
         12    1    3    3    0    0  0.85488284566E+01 -0.36978331759E+01 -0.85773721293E+01  0.12662059502E+02  0.00000000000E+00 0. -1.
</event>
<event>
 7    1  0.4519225E-009  0.4778727E+02  0.7816164E-02  0.1312668E+00
        -11   -1    0    0    0    0  0.00000000000E+00  0.00000000000E+00  0.45593999997E+02  0.45594000000E+02  0.51100000000E-03 0. -1.
         11   -1    0    0    0    0 -0.00000000000E+00 -0.00000000000E+00 -0.45593999997E+02  0.45594000000E+02  0.51100000000E-03 0.  1.
    9900012    2    1    2    0    0  0.26800930105E+02  0.33928904366E+02 -0.37633607653E+01  0.47787270856E+02  0.19999999140E+02 0.  0.
        -12    1    1    2    0    0 -0.26800930105E+02 -0.33928904366E+02  0.37633607653E+01  0.43400729144E+02  0.00000000000E+00 0.  1.
         11    1    3    3    0    0  0.22212829528E+02  0.18623321612E+02 -0.33321522429E+01  0.29177750810E+02  0.51100000000E-03 0. -1.
        -11    1    3    3    0    0  0.62285777000E+01  0.45246797421E+01 -0.85444873550E-01  0.76990394219E+01  0.51100000000E-03 0.  1.
        -12    1    3    3    0    0 -0.16404771226E+01  0.10780903012E+02 -0.34576364886E+00  0.10910480624E+02  0.00000000000E+00 0.  1.
</event>
<event>
 7    1  0.4519225E-009  0.4778727E+02  0.7816164E-02  0.1312668E+00
        -11   -1    0    0    0    0  0.00000000000E+00  0.00000000000E+00  0.45593999997E+02  0.45594000000E+02  0.51100000000E-03 0.  1.
         11   -1    0    0    0    0 -0.00000000000E+00 -0.00000000000E+00 -0.45593999997E+02  0.45594000000E+02  0.51100000000E-03 0. -1.
    9900012    2    1    2    0    0 -0.12474726941E+02  0.41482888905E+02  0.26785282234E+01  0.47787269619E+02  0.19999993502E+02 0.  0.
        -12    1    1    2    0    0  0.12474726941E+02 -0.41482888905E+02 -0.26785282234E+01  0.43400730381E+02  0.00000000000E+00 0.  1.
         11    1    3    3    0    0 -0.47158393294E+01  0.17230811329E+02 -0.34463887403E+01  0.18193888953E+02  0.51100000000E-03 0. -1.
        -11    1    3    3    0    0 -0.79034075882E+01  0.25951177066E+02  0.63828002889E+01  0.27868756385E+02  0.51100000000E-03 0.  1.
        -12    1    3    3    0    0  0.14451997697E+00 -0.16990994905E+01 -0.25788332515E+00  0.17246242813E+01  0.00000000000E+00 0.  1.
</event>
<event>
 7    1  0.4519225E-009  0.4778727E+02  0.7816164E-02  0.1312668E+00
        -11   -1    0    0    0    0  0.00000000000E+00  0.00000000000E+00  0.45593999997E+02  0.45594000000E+02  0.51100000000E-03 0.  1.
         11   -1    0    0    0    0 -0.00000000000E+00 -0.00000000000E+00 -0.45593999997E+02  0.45594000000E+02  0.51100000000E-03 0. -1.
    9900012    2    1    2    0    0 -0.22625201677E+02  0.36351541009E+02  0.70914831076E+01  0.47787269392E+02  0.19999992467E+02 0.  0.
        -12    1    1    2    0    0  0.22625201677E+02 -0.36351541009E+02 -0.70914831076E+01  0.43400730608E+02  0.00000000000E+00 0.  1.
         11    1    3    3    0    0 -0.22269942358E+02  0.26151733419E+02 -0.14947794765E+01  0.34381650039E+02  0.51100000000E-03 0. -1.
        -11    1    3    3    0    0 -0.14746297606E+00  0.20071711979E+01  0.24325138503E+01  0.31571514756E+01  0.51100000000E-03 0.  1.
         12    1    3    3    0    0 -0.20779634298E+00  0.81926363915E+01  0.61537487338E+01  0.10248467878E+02  0.00000000000E+00 0. -1.
</event>
<event>
 7    1  0.4519225E-009  0.4778728E+02  0.7816164E-02  0.1312668E+00
        -11   -1    0    0    0    0  0.00000000000E+00  0.00000000000E+00  0.45593999997E+02  0.45594000000E+02  0.51100000000E-03 0.  1.
         11   -1    0    0    0    0 -0.00000000000E+00 -0.00000000000E+00 -0.45593999997E+02  0.45594000000E+02  0.51100000000E-03 0. -1.
    9900012    2    1    2    0    0 -0.19276331381E+02  0.38884897964E+02 -0.10321138632E+00  0.47787275423E+02  0.20000019965E+02 0.  0.
        -12    1    1    2    0    0  0.19276331381E+02 -0.38884897964E+02  0.10321138632E+00  0.43400724577E+02  0.00000000000E+00 0.  1.
         11    1    3    3    0    0 -0.15422843548E+02  0.13136300445E+02  0.49631774274E+00  0.20265064126E+02  0.51100000000E-03 0. -1.
        -11    1    3    3    0    0 -0.37341751958E+01  0.76942916224E+01  0.30913773434E+01  0.90941080983E+01  0.51100000000E-03 0.  1.
        -12    1    3    3    0    0 -0.11931263797E+00  0.18054305896E+02 -0.36909064724E+01  0.18428103199E+02  0.00000000000E+00 0.  1.
</event>
<event>
 7    1  0.4519225E-009  0.4778727E+02  0.7816164E-02  0.1312668E+00
        -11   -1    0    0    0    0  0.00000000000E+00  0.00000000000E+00  0.45593999997E+02  0.45594000000E+02  0.51100000000E-03 0. -1.
         11   -1    0    0    0    0 -0.00000000000E+00 -0.00000000000E+00 -0.45593999997E+02  0.45594000000E+02  0.51100000000E-03 0.  1.
    9900012    2    1    2    0    0  0.51988428484E+01  0.39494886351E+02  0.17226413495E+02  0.47787270320E+02  0.19999996698E+02 0.  0.
        -12    1    1    2    0    0 -0.51988428484E+01 -0.39494886351E+02 -0.17226413495E+02  0.43400729680E+02  0.00000000000E+00 0.  1.
         11    1    3    3    0    0 -0.46739938137E+01  0.20063827656E+02  0.82678739407E+01  0.22198223761E+02  0.51100000000E-03 0.  1.
        -11    1    3    3    0    0 -0.97109888353E+00  0.73588495071E+01  0.91910768335E+00  0.74793354186E+01  0.51100000000E-03 0. -1.
        -12    1    3    3    0    0  0.10843935546E+02  0.12072209188E+02  0.80394318711E+01  0.18109711141E+02  0.00000000000E+00 0.  1.
</event>
<event>
 7    1  0.4519225E-009  0.4778728E+02  0.7816164E-02  0.1312668E+00
        -11   -1    0    0    0    0  0.00000000000E+00  0.00000000000E+00  0.45593999997E+02  0.45594000000E+02  0.51100000000E-03 0.  1.
         11   -1    0    0    0    0 -0.00000000000E+00 -0.00000000000E+00 -0.45593999997E+02  0.45594000000E+02  0.51100000000E-03 0. -1.
    9900012    2    1    2    0    0 -0.39750916162E+02 -0.16780394871E+02 -0.46803737994E+01  0.47787275506E+02  0.20000020342E+02 0.  0.
        -12    1    1    2    0    0  0.39750916162E+02  0.16780394871E+02  0.46803737994E+01  0.43400724494E+02  0.00000000000E+00 0.  1.
         11    1    3    3    0    0 -0.39685048165E+01 -0.68618499144E+01 -0.33870109783E+01  0.86200845909E+01  0.51100000000E-03 0. -1.
        -11    1    3    3    0    0 -0.22165572922E+01 -0.36789323008E+01 -0.25649155106E+01  0.50026453943E+01  0.51100000000E-03 0.  1.
         12    1    3    3    0    0 -0.33565854053E+02 -0.62396126559E+01  0.12715526896E+01  0.34164545521E+02  0.00000000000E+00 0. -1.
</event>
<event>
 7    1  0.4519225E-009  0.4778727E+02  0.7816164E-02  0.1312668E+00
        -11   -1    0    0    0    0  0.00000000000E+00  0.00000000000E+00  0.45593999997E+02  0.45594000000E+02  0.51100000000E-03 0.  1.
         11   -1    0    0    0    0 -0.00000000000E+00 -0.00000000000E+00 -0.45593999997E+02  0.45594000000E+02  0.51100000000E-03 0. -1.
    9900012    2    1    2    0    0  0.26166397174E+02 -0.73565917820E+01 -0.33835242843E+02  0.47787269108E+02  0.19999991169E+02 0.  0.
        -12    1    1    2    0    0 -0.26166397174E+02  0.73565917820E+01  0.33835242843E+02  0.43400730892E+02  0.00000000000E+00 0.  1.
         11    1    3    3    0    0  0.23194910212E+01 -0.33733136024E+01 -0.94508356076E+01  0.10299396934E+02  0.51100000000E-03 0. -1.
        -11    1    3    3    0    0  0.21606855141E+01  0.44829178035E+01 -0.26457169861E+01  0.56360387291E+01  0.51100000000E-03 0.  1.
        -12    1    3    3    0    0  0.21686220639E+02 -0.84661959830E+01 -0.21738690250E+02  0.31851833445E+02  0.00000000000E+00 0.  1.
</event>
<event>
 7    1  0.4519225E-009  0.4778727E+02  0.7816164E-02  0.1312668E+00
        -11   -1    0    0    0    0  0.00000000000E+00  0.00000000000E+00  0.45593999997E+02  0.45594000000E+02  0.51100000000E-03 0.  1.
         11   -1    0    0    0    0 -0.00000000000E+00 -0.00000000000E+00 -0.45593999997E+02  0.45594000000E+02  0.51100000000E-03 0. -1.
    9900012    2    1    2    0    0  0.11157161117E+02 -0.38869951752E+02 -0.15756526653E+02  0.47787268145E+02  0.19999986781E+02 0.  0.
        -12    1    1    2    0    0 -0.11157161117E+02  0.38869951752E+02  0.15756526653E+02  0.43400731855E+02  0.00000000000E+00 0.  1.
         11    1    3    3    0    0  0.18042058317E+01 -0.15595993993E+02 -0.70167847067E+01  0.17196669887E+02  0.51100000000E-03 0.  1.
        -11    1    3    3    0    0  0.78318776833E+01 -0.18942239541E+02 -0.13045212209E+02  0.24296590475E+02  0.51100000000E-03 0. -1.
        -12    1    3    3    0    0  0.15210776024E+01 -0.43317182172E+01  0.43054702629E+01  0.62940077829E+01  0.00000000000E+00 0.  1.
</event>
<event>
 7    1  0.4519225E-009  0.4778727E+02  0.7816164E-02  0.1312668E+00
        -11   -1    0    0    0    0  0.00000000000E+00  0.00000000000E+00  0.45593999997E+02  0.45594000000E+02  0.51100000000E-03 0.  1.
         11   -1    0    0    0    0 -0.00000000000E+00 -0.00000000000E+00 -0.45593999997E+02  0.45594000000E+02  0.51100000000E-03 0. -1.
    9900012    2    1    2    0    0  0.32393996374E+02 -0.14624825070E+02 -0.24907158760E+02  0.47787273429E+02  0.20000010873E+02 0.  0.
        -12    1    1    2    0    0 -0.32393996374E+02  0.14624825070E+02  0.24907158760E+02  0.43400726571E+02  0.00000000000E+00 0.  1.
         11    1    3    3    0    0  0.68238417730E+01 -0.55156192323E+01 -0.88842168162E+01  0.12486640091E+02  0.51100000000E-03 0. -1.
        -11    1    3    3    0    0  0.70976140143E+00 -0.59571328958E+01 -0.54390723505E+01  0.80978208106E+01  0.51100000000E-03 0.  1.
         12    1    3    3    0    0  0.24860393199E+02 -0.31520729416E+01 -0.10583869593E+02  0.27202812528E+02  0.00000000000E+00 0. -1.
</event>
<event>
 7    1  0.4519225E-009  0.4778726E+02  0.7816164E-02  0.1312668E+00
        -11   -1    0    0    0    0  0.00000000000E+00  0.00000000000E+00  0.45593999997E+02  0.45594000000E+02  0.51100000000E-03 0.  1.
         11   -1    0    0    0    0 -0.00000000000E+00 -0.00000000000E+00 -0.45593999997E+02  0.45594000000E+02  0.51100000000E-03 0. -1.
    9900012    2    1    2    0    0 -0.35664711618E+02 -0.23269404932E+02 -0.83777883185E+01  0.47787260401E+02  0.19999951472E+02 0.  0.
        -12    1    1    2    0    0  0.35664711618E+02  0.23269404932E+02  0.83777883185E+01  0.43400739599E+02  0.00000000000E+00 0.  1.
         11    1    3    3    0    0 -0.21689615334E+02 -0.76550813094E+01 -0.11844281903E+01  0.23031338511E+02  0.51100000000E-03 0. -1.
        -11    1    3    3    0    0 -0.10647923817E+02 -0.37055811646E+01 -0.26389802075E+01  0.11579025442E+02  0.51100000000E-03 0.  1.
        -12    1    3    3    0    0 -0.33271724656E+01 -0.11908742458E+02 -0.45543799207E+01  0.13176896448E+02  0.00000000000E+00 0.  1.
</event>
<event>
 7    1  0.4519225E-009  0.4778728E+02  0.7816164E-02  0.1312668E+00
        -11   -1    0    0    0    0  0.00000000000E+00  0.00000000000E+00  0.45593999997E+02  0.45594000000E+02  0.51100000000E-03 0. -1.
         11   -1    0    0    0    0 -0.00000000000E+00 -0.00000000000E+00 -0.45593999997E+02  0.45594000000E+02  0.51100000000E-03 0.  1.
    9900012    2    1    2    0    0 -0.27733295126E+02  0.20269671280E+02 -0.26525980721E+02  0.47787275518E+02  0.20000020396E+02 0.  0.
        -12    1    1    2    0    0  0.27733295126E+02 -0.20269671280E+02  0.26525980721E+02  0.43400724482E+02  0.00000000000E+00 0.  1.
         11    1    3    3    0    0 -0.75665233435E+00  0.14050708508E+01 -0.49654228569E+01  0.52155700800E+01  0.51100000000E-03 0. -1.
        -11    1    3    3    0    0 -0.15960269717E+02  0.58098097233E+01 -0.28252209780E+01  0.17218187253E+02  0.51100000000E-03 0.  1.
         12    1    3    3    0    0 -0.11016373075E+02  0.13054790706E+02 -0.18735336886E+02  0.25353518185E+02  0.00000000000E+00 0. -1.
</event>
<event>
 7    1  0.4519225E-009  0.4778727E+02  0.7816164E-02  0.1312668E+00
        -11   -1    0    0    0    0  0.00000000000E+00  0.00000000000E+00  0.45593999997E+02  0.45594000000E+02  0.51100000000E-03 0.  1.
         11   -1    0    0    0    0 -0.00000000000E+00 -0.00000000000E+00 -0.45593999997E+02  0.45594000000E+02  0.51100000000E-03 0. -1.
    9900012    2    1    2    0    0  0.41196158783E+02 -0.93281947305E+01 -0.99742187303E+01  0.47787265505E+02  0.19999974744E+02 0.  0.
        -12    1    1    2    0    0 -0.41196158783E+02  0.93281947305E+01  0.99742187303E+01  0.43400734495E+02  0.00000000000E+00 0.  1.
         11    1    3    3    0    0  0.12479641311E+02 -0.61273891115E+01  0.18435913479E+00  0.13903968251E+02  0.51100000000E-03 0.  1.
        -11    1    3    3    0    0  0.12033110205E+02 -0.58598963517E+01 -0.10459978523E+02  0.16986620541E+02  0.51100000000E-03 0. -1.
         12    1    3    3    0    0  0.16683407268E+02  0.26590907327E+01  0.30140065778E+00  0.16896676713E+02  0.00000000000E+00 0. -1.
</event>
<event>
 7    1  0.4519225E-009  0.4778726E+02  0.7816164E-02  0.1312668E+00
        -11   -1    0    0    0    0  0.00000000000E+00  0.00000000000E+00  0.45593999997E+02  0.45594000000E+02  0.51100000000E-03 0.  1.
         11   -1    0    0    0    0 -0.00000000000E+00 -0.00000000000E+00 -0.45593999997E+02  0.45594000000E+02  0.51100000000E-03 0. -1.
    9900012    2    1    2    0    0  0.23244719993E+01  0.34675168893E+02 -0.25997184282E+02  0.47787261545E+02  0.19999956689E+02 0.  0.
        -12    1    1    2    0    0 -0.23244719993E+01 -0.34675168893E+02  0.25997184282E+02  0.43400738455E+02  0.00000000000E+00 0.  1.
         11    1    3    3    0    0 -0.70885235531E-01  0.30232966401E+02 -0.17389280884E+02  0.34877275869E+02  0.51100000000E-03 0. -1.
        -11    1    3    3    0    0  0.91822192494E+00  0.59285339091E+01 -0.25840689470E+01  0.65320791788E+01  0.51100000000E-03 0.  1.
        -12    1    3    3    0    0  0.14771353099E+01 -0.14863314167E+01 -0.60238344507E+01  0.63779064977E+01  0.00000000000E+00 0.  1.
</event>
<event>
 7    1  0.4519225E-009  0.4778726E+02  0.7816164E-02  0.1312668E+00
        -11   -1    0    0    0    0  0.00000000000E+00  0.00000000000E+00  0.45593999997E+02  0.45594000000E+02  0.51100000000E-03 0. -1.
         11   -1    0    0    0    0 -0.00000000000E+00 -0.00000000000E+00 -0.45593999997E+02  0.45594000000E+02  0.51100000000E-03 0.  1.
    9900012    2    1    2    0    0  0.33720791847E+02 -0.44419790320E+01  0.26959246222E+02  0.47787263400E+02  0.19999965148E+02 0.  0.
        -12    1    1    2    0    0 -0.33720791847E+02  0.44419790320E+01 -0.26959246222E+02  0.43400736600E+02  0.00000000000E+00 0.  1.
         11    1    3    3    0    0  0.24995787920E+01 -0.83196247928E+00  0.29374645608E+00  0.26507249849E+01  0.51100000000E-03 0. -1.
        -11    1    3    3    0    0  0.23207131183E+02 -0.45946519096E+01  0.82946341820E+01  0.25069557642E+02  0.51100000000E-03 0.  1.
         12    1    3    3    0    0  0.80140818723E+01  0.98463535682E+00  0.18370865584E+02  0.20066980773E+02  0.00000000000E+00 0. -1.
</event>
<event>
 7    1  0.4519225E-009  0.4778727E+02  0.7816164E-02  0.1312668E+00
        -11   -1    0    0    0    0  0.00000000000E+00  0.00000000000E+00  0.45593999997E+02  0.45594000000E+02  0.51100000000E-03 0.  1.
         11   -1    0    0    0    0 -0.00000000000E+00 -0.00000000000E+00 -0.45593999997E+02  0.45594000000E+02  0.51100000000E-03 0. -1.
    9900012    2    1    2    0    0 -0.17935680989E+01 -0.30973648127E+01 -0.43252892580E+02  0.47787271067E+02  0.20000000105E+02 0.  0.
        -12    1    1    2    0    0  0.17935680989E+01  0.30973648127E+01  0.43252892580E+02  0.43400728933E+02  0.00000000000E+00 0.  1.
         11    1    3    3    0    0  0.34457191045E+01 -0.46771020483E+01 -0.72696263511E+01  0.93056827403E+01  0.51100000000E-03 0. -1.
        -11    1    3    3    0    0  0.75143718649E+00 -0.36135246789E+01 -0.22808588575E+02  0.23105279300E+02  0.51100000000E-03 0.  1.
        -12    1    3    3    0    0 -0.59907243899E+01  0.51932619144E+01 -0.13174677654E+02  0.15376309027E+02  0.00000000000E+00 0.  1.
</event>
<event>
 7    1  0.4519225E-009  0.4778727E+02  0.7816164E-02  0.1312668E+00
        -11   -1    0    0    0    0  0.00000000000E+00  0.00000000000E+00  0.45593999997E+02  0.45594000000E+02  0.51100000000E-03 0.  1.
         11   -1    0    0    0    0 -0.00000000000E+00 -0.00000000000E+00 -0.45593999997E+02  0.45594000000E+02  0.51100000000E-03 0. -1.
    9900012    2    1    2    0    0  0.29857558384E+02  0.29151179352E+02 -0.11931388603E+02  0.47787273229E+02  0.20000009959E+02 0.  0.
        -12    1    1    2    0    0 -0.29857558384E+02 -0.29151179352E+02  0.11931388603E+02  0.43400726771E+02  0.00000000000E+00 0.  1.
         11    1    3    3    0    0  0.53271570672E+01  0.80169948120E+01 -0.11157528203E+00  0.96261756445E+01  0.51100000000E-03 0. -1.
        -11    1    3    3    0    0  0.20100362429E+02  0.67837929043E+01 -0.59155146382E+01  0.22023572136E+02  0.51100000000E-03 0.  1.
        -12    1    3    3    0    0  0.44300388881E+01  0.14350391636E+02 -0.59042986826E+01  0.16137525448E+02  0.00000000000E+00 0.  1.
</event>
<event>
 7    1  0.4519225E-009  0.4778727E+02  0.7816164E-02  0.1312668E+00
        -11   -1    0    0    0    0  0.00000000000E+00  0.00000000000E+00  0.45593999997E+02  0.45594000000E+02  0.51100000000E-03 0.  1.
         11   -1    0    0    0    0 -0.00000000000E+00 -0.00000000000E+00 -0.45593999997E+02  0.45594000000E+02  0.51100000000E-03 0. -1.
    9900012    2    1    2    0    0  0.16854043167E+02  0.59512064573E+01 -0.39549307337E+02  0.47787270280E+02  0.19999996515E+02 0.  0.
        -12    1    1    2    0    0 -0.16854043167E+02 -0.59512064573E+01  0.39549307337E+02  0.43400729720E+02  0.00000000000E+00 0.  1.
         11    1    3    3    0    0  0.15869930043E+02  0.62853680914E+01 -0.31574257615E+02  0.35892816494E+02  0.51100000000E-03 0. -1.
        -11    1    3    3    0    0  0.12831278885E+01  0.37508990695E+01 -0.63541941272E+01  0.74894221589E+01  0.51100000000E-03 0.  1.
        -12    1    3    3    0    0 -0.29901476467E+00 -0.40850607036E+01 -0.16208555945E+01  0.44050316276E+01  0.00000000000E+00 0.  1.
</event>
<event>
 7    1  0.4519225E-009  0.4778728E+02  0.7816164E-02  0.1312668E+00
        -11   -1    0    0    0    0  0.00000000000E+00  0.00000000000E+00  0.45593999997E+02  0.45594000000E+02  0.51100000000E-03 0. -1.
         11   -1    0    0    0    0 -0.00000000000E+00 -0.00000000000E+00 -0.45593999997E+02  0.45594000000E+02  0.51100000000E-03 0.  1.
    9900012    2    1    2    0    0 -0.42650663880E+02  0.80216016962E+01  0.44389994269E+00  0.47787282606E+02  0.20000052714E+02 0.  0.
        -12    1    1    2    0    0  0.42650663880E+02 -0.80216016962E+01 -0.44389994269E+00  0.43400717394E+02  0.00000000000E+00 0.  1.
         11    1    3    3    0    0 -0.26880898589E+02  0.38806483053E+01 -0.24511730743E+01  0.27269953978E+02  0.51100000000E-03 0. -1.
        -11    1    3    3    0    0 -0.34394694898E+01 -0.75737519700E+00 -0.41923497128E+01  0.54753414447E+01  0.51100000000E-03 0.  1.
        -12    1    3    3    0    0 -0.12330295800E+02  0.48983285879E+01  0.70874227298E+01  0.15041987184E+02  0.00000000000E+00 0.  1.
</event>
<event>
 7    1  0.4519225E-009  0.4778727E+02  0.7816164E-02  0.1312668E+00
        -11   -1    0    0    0    0  0.00000000000E+00  0.00000000000E+00  0.45593999997E+02  0.45594000000E+02  0.51100000000E-03 0. -1.
         11   -1    0    0    0    0 -0.00000000000E+00 -0.00000000000E+00 -0.45593999997E+02  0.45594000000E+02  0.51100000000E-03 0.  1.
    9900012    2    1    2    0    0 -0.25284242573E+01  0.42917214583E+02 -0.59450056696E+01  0.47787270407E+02  0.19999997094E+02 0.  0.
        -12    1    1    2    0    0  0.25284242573E+01 -0.42917214583E+02  0.59450056696E+01  0.43400729593E+02  0.00000000000E+00 0.  1.
         11    1    3    3    0    0  0.63564604176E+00  0.48130026884E+01 -0.56327506600E+01  0.74361899537E+01  0.51100000000E-03 0. -1.
        -11    1    3    3    0    0 -0.38159447443E+01  0.35168507539E+01  0.22640708799E+01  0.56617745210E+01  0.51100000000E-03 0.  1.
         12    1    3    3    0    0  0.65187444526E+00  0.34587361141E+02 -0.25763258895E+01  0.34689305932E+02  0.00000000000E+00 0. -1.
</event>
<event>
 7    1  0.4519225E-009  0.4778727E+02  0.7816164E-02  0.1312668E+00
        -11   -1    0    0    0    0  0.00000000000E+00  0.00000000000E+00  0.45593999997E+02  0.45594000000E+02  0.51100000000E-03 0. -1.
         11   -1    0    0    0    0 -0.00000000000E+00 -0.00000000000E+00 -0.45593999997E+02  0.45594000000E+02  0.51100000000E-03 0.  1.
    9900012    2    1    2    0    0  0.82169002899E+01  0.72190108588E+01  0.41999899308E+02  0.47787272932E+02  0.20000008608E+02 0.  0.
        -12    1    1    2    0    0 -0.82169002899E+01 -0.72190108588E+01 -0.41999899308E+02  0.43400727068E+02  0.00000000000E+00 0.  1.
         11    1    3    3    0    0  0.18219887977E+01  0.88396778770E+01  0.18450634059E+02  0.20539850184E+02  0.51100000000E-03 0.  1.
        -11    1    3    3    0    0  0.50767574935E+01  0.31444505393E+01  0.20693339606E+02  0.21537765440E+02  0.51100000000E-03 0. -1.
        -12    1    3    3    0    0  0.13181539987E+01 -0.47651175575E+01  0.28559256426E+01  0.57096573082E+01  0.00000000000E+00 0.  1.
</event>
<event>
 7    1  0.4519225E-009  0.4778728E+02  0.7816164E-02  0.1312668E+00
        -11   -1    0    0    0    0  0.00000000000E+00  0.00000000000E+00  0.45593999997E+02  0.45594000000E+02  0.51100000000E-03 0. -1.
         11   -1    0    0    0    0 -0.00000000000E+00 -0.00000000000E+00 -0.45593999997E+02  0.45594000000E+02  0.51100000000E-03 0.  1.
    9900012    2    1    2    0    0  0.43327682829E+02 -0.18734430303E+01 -0.16807483484E+01  0.47787276468E+02  0.20000024728E+02 0.  0.
        -12    1    1    2    0    0 -0.43327682829E+02  0.18734430303E+01  0.16807483484E+01  0.43400723532E+02  0.00000000000E+00 0.  1.
         11    1    3    3    0    0  0.19733288944E+01  0.22150312603E+01  0.51973730749E-01  0.29670004953E+01  0.51100000000E-03 0. -1.
        -11    1    3    3    0    0  0.10686218317E+02 -0.78016182013E+01 -0.40618669699E+01  0.13840493922E+02  0.51100000000E-03 0.  1.
         12    1    3    3    0    0  0.30668135618E+02  0.37131439107E+01  0.23291448908E+01  0.30979782050E+02  0.00000000000E+00 0. -1.
</event>
<event>
 7    1  0.4519225E-009  0.4778727E+02  0.7816164E-02  0.1312668E+00
        -11   -1    0    0    0    0  0.00000000000E+00  0.00000000000E+00  0.45593999997E+02  0.45594000000E+02  0.51100000000E-03 0. -1.
         11   -1    0    0    0    0 -0.00000000000E+00 -0.00000000000E+00 -0.45593999997E+02  0.45594000000E+02  0.51100000000E-03 0.  1.
    9900012    2    1    2    0    0  0.33974246828E+02 -0.20151515237E+02  0.17980279391E+02  0.47787268890E+02  0.19999990178E+02 0.  0.
        -12    1    1    2    0    0 -0.33974246828E+02  0.20151515237E+02 -0.17980279391E+02  0.43400731110E+02  0.00000000000E+00 0.  1.
         11    1    3    3    0    0  0.10887003402E+02 -0.52496146266E+01  0.10753250462E+02  0.16177691200E+02  0.51100000000E-03 0. -1.
        -11    1    3    3    0    0  0.14411315320E+01 -0.32184720382E+01  0.60264797870E+01  0.69823979575E+01  0.51100000000E-03 0.  1.
        -12    1    3    3    0    0  0.21646111894E+02 -0.11683428572E+02  0.12005491416E+01  0.24627179732E+02  0.00000000000E+00 0.  1.
</event>
<event>
 7    1  0.4519225E-009  0.4778727E+02  0.7816164E-02  0.1312668E+00
        -11   -1    0    0    0    0  0.00000000000E+00  0.00000000000E+00  0.45593999997E+02  0.45594000000E+02  0.51100000000E-03 0. -1.
         11   -1    0    0    0    0 -0.00000000000E+00 -0.00000000000E+00 -0.45593999997E+02  0.45594000000E+02  0.51100000000E-03 0.  1.
    9900012    2    1    2    0    0  0.26166858881E+02 -0.33613887711E+02  0.83081651657E+01  0.47787267757E+02  0.19999985012E+02 0.  0.
        -12    1    1    2    0    0 -0.26166858881E+02  0.33613887711E+02 -0.83081651657E+01  0.43400732243E+02  0.00000000000E+00 0.  1.
         11    1    3    3    0    0  0.46813069352E+01 -0.95682796534E+01  0.52772696097E+01  0.11887648419E+02  0.51100000000E-03 0. -1.
        -11    1    3    3    0    0 -0.29377913121E+00 -0.24512141945E+01  0.45664478251E+01  0.51910695628E+01  0.51100000000E-03 0.  1.
        -12    1    3    3    0    0  0.21779331078E+02 -0.21594393863E+02 -0.15355522691E+01  0.30708549775E+02  0.00000000000E+00 0.  1.
</event>
<event>
 7    1  0.4519225E-009  0.4778727E+02  0.7816164E-02  0.1312668E+00
        -11   -1    0    0    0    0  0.00000000000E+00  0.00000000000E+00  0.45593999997E+02  0.45594000000E+02  0.51100000000E-03 0.  1.
         11   -1    0    0    0    0 -0.00000000000E+00 -0.00000000000E+00 -0.45593999997E+02  0.45594000000E+02  0.51100000000E-03 0. -1.
    9900012    2    1    2    0    0  0.20854049512E+01 -0.20840673215E+00 -0.43350099600E+02  0.47787268641E+02  0.19999989040E+02 0.  0.
        -12    1    1    2    0    0 -0.20854049512E+01  0.20840673215E+00  0.43350099600E+02  0.43400731359E+02  0.00000000000E+00 0.  1.
         11    1    3    3    0    0 -0.39189888845E+01  0.47215756483E+01 -0.98635597712E+01  0.11616435000E+02  0.51100000000E-03 0.  1.
        -11    1    3    3    0    0  0.82684006720E+00 -0.35227968119E+01 -0.18153064667E+01  0.40483453045E+01  0.51100000000E-03 0. -1.
         12    1    3    3    0    0  0.51775537685E+01 -0.14071855685E+01 -0.31671233362E+02  0.32122488337E+02  0.00000000000E+00 0. -1.
</event>
<event>
 7    1  0.4519225E-009  0.4778727E+02  0.7816164E-02  0.1312668E+00
        -11   -1    0    0    0    0  0.00000000000E+00  0.00000000000E+00  0.45593999997E+02  0.45594000000E+02  0.51100000000E-03 0. -1.
         11   -1    0    0    0    0 -0.00000000000E+00 -0.00000000000E+00 -0.45593999997E+02  0.45594000000E+02  0.51100000000E-03 0.  1.
    9900012    2    1    2    0    0 -0.18973229022E+02 -0.21839025702E+02  0.32352696789E+02  0.47787268985E+02  0.19999990611E+02 0.  0.
        -12    1    1    2    0    0  0.18973229022E+02  0.21839025702E+02 -0.32352696789E+02  0.43400731015E+02  0.00000000000E+00 0.  1.
         11    1    3    3    0    0 -0.51298570747E+01 -0.65052381578E+01  0.26243529070E+01  0.86902695895E+01  0.51100000000E-03 0.  1.
        -11    1    3    3    0    0  0.26535881040E+01 -0.48666858676E+00  0.61518443748E+01  0.67174076556E+01  0.51100000000E-03 0. -1.
         12    1    3    3    0    0 -0.16496960051E+02 -0.14847118957E+02  0.23576499507E+02  0.32379591740E+02  0.00000000000E+00 0. -1.
</event>
<event>
 7    1  0.4519225E-009  0.4778723E+02  0.7816164E-02  0.1312668E+00
        -11   -1    0    0    0    0  0.00000000000E+00  0.00000000000E+00  0.45593999997E+02  0.45594000000E+02  0.51100000000E-03 0.  1.
         11   -1    0    0    0    0 -0.00000000000E+00 -0.00000000000E+00 -0.45593999997E+02  0.45594000000E+02  0.51100000000E-03 0. -1.
    9900012    2    1    2    0    0  0.40470468070E+02  0.13511626197E+02 -0.79501120671E+01  0.47787226848E+02  0.19999798490E+02 0.  0.
        -12    1    1    2    0    0 -0.40470468070E+02 -0.13511626197E+02  0.79501120671E+01  0.43400773152E+02  0.00000000000E+00 0.  1.
         11    1    3    3    0    0  0.18518176829E+02  0.79528991512E+01 -0.29691064048E+01  0.20371231458E+02  0.51100000000E-03 0. -1.
        -11    1    3    3    0    0  0.19806710413E+02  0.63584028817E+01  0.11875673386E+01  0.20836155620E+02  0.51100000000E-03 0.  1.
        -12    1    3    3    0    0  0.21455808282E+01 -0.79967583639E+00 -0.61685730010E+01  0.65798397703E+01  0.00000000000E+00 0.  1.
</event>
<event>
 7    1  0.4519225E-009  0.4778727E+02  0.7816164E-02  0.1312668E+00
        -11   -1    0    0    0    0  0.00000000000E+00  0.00000000000E+00  0.45593999997E+02  0.45594000000E+02  0.51100000000E-03 0.  1.
         11   -1    0    0    0    0 -0.00000000000E+00 -0.00000000000E+00 -0.45593999997E+02  0.45594000000E+02  0.51100000000E-03 0. -1.
    9900012    2    1    2    0    0 -0.23255758243E+02 -0.20653197703E+02 -0.30269427736E+02  0.47787272791E+02  0.20000007962E+02 0.  0.
        -12    1    1    2    0    0  0.23255758243E+02  0.20653197703E+02  0.30269427736E+02  0.43400727209E+02  0.00000000000E+00 0.  1.
         11    1    3    3    0    0 -0.58782123649E+01 -0.62961446008E+01 -0.14701001766E+01  0.87381927326E+01  0.51100000000E-03 0. -1.
        -11    1    3    3    0    0  0.10764957372E+01 -0.59313674718E+01 -0.77022501358E+01  0.97808292375E+01  0.51100000000E-03 0.  1.
         12    1    3    3    0    0 -0.18454041615E+02 -0.84256856306E+01 -0.21097077424E+02  0.29268250821E+02  0.00000000000E+00 0. -1.
</event>
<event>
 7    1  0.4519225E-009  0.4778724E+02  0.7816164E-02  0.1312668E+00
        -11   -1    0    0    0    0  0.00000000000E+00  0.00000000000E+00  0.45593999997E+02  0.45594000000E+02  0.51100000000E-03 0.  1.
         11   -1    0    0    0    0 -0.00000000000E+00 -0.00000000000E+00 -0.45593999997E+02  0.45594000000E+02  0.51100000000E-03 0. -1.
    9900012    2    1    2    0    0 -0.13347739616E+02 -0.37772096740E+02 -0.16695282633E+02  0.47787240707E+02  0.19999861681E+02 0.  0.
        -12    1    1    2    0    0  0.13347739616E+02  0.37772096740E+02  0.16695282633E+02  0.43400759293E+02  0.00000000000E+00 0.  1.
         11    1    3    3    0    0 -0.24172736681E+01 -0.13947920177E+01  0.14700396614E+01  0.31543103250E+01  0.51100000000E-03 0.  1.
        -11    1    3    3    0    0 -0.92322589096E+01 -0.77675505125E+01 -0.44452327057E+01  0.12858053492E+02  0.51100000000E-03 0. -1.
        -12    1    3    3    0    0 -0.16982070386E+01 -0.28609754209E+02 -0.13720089589E+02  0.31774876890E+02  0.00000000000E+00 0.  1.
</event>
<event>
 7    1  0.4519225E-009  0.4778728E+02  0.7816164E-02  0.1312668E+00
        -11   -1    0    0    0    0  0.00000000000E+00  0.00000000000E+00  0.45593999997E+02  0.45594000000E+02  0.51100000000E-03 0.  1.
         11   -1    0    0    0    0 -0.00000000000E+00 -0.00000000000E+00 -0.45593999997E+02  0.45594000000E+02  0.51100000000E-03 0. -1.
    9900012    2    1    2    0    0 -0.20061213943E+02 -0.36942322836E+02 -0.10790519168E+02  0.47787276212E+02  0.20000023562E+02 0.  0.
        -12    1    1    2    0    0  0.20061213943E+02  0.36942322836E+02  0.10790519168E+02  0.43400723788E+02  0.00000000000E+00 0.  1.
         11    1    3    3    0    0 -0.60922785007E+01 -0.15026634396E+02  0.15202615481E+01  0.16285785029E+02  0.51100000000E-03 0. -1.
        -11    1    3    3    0    0 -0.20355361310E+01 -0.14880660709E+02 -0.49456693297E+01  0.15812561964E+02  0.51100000000E-03 0.  1.
         12    1    3    3    0    0 -0.11933399312E+02 -0.70350277315E+01 -0.73651113860E+01  0.15688929219E+02  0.00000000000E+00 0. -1.
</event>
<event>
 7    1  0.4519225E-009  0.4778727E+02  0.7816164E-02  0.1312668E+00
        -11   -1    0    0    0    0  0.00000000000E+00  0.00000000000E+00  0.45593999997E+02  0.45594000000E+02  0.51100000000E-03 0.  1.
         11   -1    0    0    0    0 -0.00000000000E+00 -0.00000000000E+00 -0.45593999997E+02  0.45594000000E+02  0.51100000000E-03 0. -1.
    9900012    2    1    2    0    0 -0.35786717409E+02  0.20447003654E+02  0.13596109341E+02  0.47787270853E+02  0.19999999126E+02 0.  0.
        -12    1    1    2    0    0  0.35786717409E+02 -0.20447003654E+02 -0.13596109341E+02  0.43400729147E+02  0.00000000000E+00 0.  1.
         11    1    3    3    0    0 -0.26059560012E+02  0.14258158881E+02  0.94321900424E+01  0.31166680477E+02  0.51100000000E-03 0. -1.
        -11    1    3    3    0    0 -0.84869630094E+01  0.90579193823E-01 -0.98387867047E+00  0.85442824867E+01  0.51100000000E-03 0.  1.
         12    1    3    3    0    0 -0.12401943872E+01  0.60982655795E+01  0.51477979689E+01  0.80763078894E+01  0.00000000000E+00 0. -1.
</event>
<event>
 7    1  0.4519225E-009  0.4778727E+02  0.7816164E-02  0.1312668E+00
        -11   -1    0    0    0    0  0.00000000000E+00  0.00000000000E+00  0.45593999997E+02  0.45594000000E+02  0.51100000000E-03 0. -1.
         11   -1    0    0    0    0 -0.00000000000E+00 -0.00000000000E+00 -0.45593999997E+02  0.45594000000E+02  0.51100000000E-03 0.  1.
    9900012    2    1    2    0    0  0.36729377215E+02 -0.23051541439E+02  0.17895631183E+01  0.47787271326E+02  0.20000001282E+02 0.  0.
        -12    1    1    2    0    0 -0.36729377215E+02  0.23051541439E+02 -0.17895631183E+01  0.43400728674E+02  0.00000000000E+00 0.  1.
         11    1    3    3    0    0  0.11470204179E+02 -0.11210598339E+02 -0.10789748994E+01  0.16075051667E+02  0.51100000000E-03 0. -1.
        -11    1    3    3    0    0  0.46111477145E+01  0.28648334419E+01  0.33112173094E+01  0.63587824484E+01  0.51100000000E-03 0.  1.
         12    1    3    3    0    0  0.20648025322E+02 -0.14705776542E+02 -0.44267929168E+00  0.25353437210E+02  0.00000000000E+00 0. -1.
</event>
<event>
 7    1  0.4519225E-009  0.4778727E+02  0.7816164E-02  0.1312668E+00
        -11   -1    0    0    0    0  0.00000000000E+00  0.00000000000E+00  0.45593999997E+02  0.45594000000E+02  0.51100000000E-03 0.  1.
         11   -1    0    0    0    0 -0.00000000000E+00 -0.00000000000E+00 -0.45593999997E+02  0.45594000000E+02  0.51100000000E-03 0. -1.
    9900012    2    1    2    0    0 -0.22659801801E+02  0.26173867942E+00 -0.37014701393E+02  0.47787271389E+02  0.20000001571E+02 0.  0.
        -12    1    1    2    0    0  0.22659801801E+02 -0.26173867942E+00  0.37014701393E+02  0.43400728611E+02  0.00000000000E+00 0.  1.
         11    1    3    3    0    0 -0.26764885226E+01 -0.46037067811E+01 -0.64765640521E+01  0.83847235566E+01  0.51100000000E-03 0. -1.
        -11    1    3    3    0    0  0.32954766660E+00  0.45640847706E+01 -0.60169896952E+01  0.75593410236E+01  0.51100000000E-03 0.  1.
         12    1    3    3    0    0 -0.20312860945E+02  0.30136068996E+00 -0.24521147645E+02  0.31843206809E+02  0.00000000000E+00 0. -1.
</event>
<event>
 7    1  0.4519225E-009  0.4778728E+02  0.7816164E-02  0.1312668E+00
        -11   -1    0    0    0    0  0.00000000000E+00  0.00000000000E+00  0.45593999997E+02  0.45594000000E+02  0.51100000000E-03 0.  1.
         11   -1    0    0    0    0 -0.00000000000E+00 -0.00000000000E+00 -0.45593999997E+02  0.45594000000E+02  0.51100000000E-03 0. -1.
    9900012    2    1    2    0    0 -0.29168314518E+01  0.26552700324E+02 -0.34206271778E+02  0.47787276168E+02  0.20000023358E+02 0.  0.
        -12    1    1    2    0    0  0.29168314518E+01 -0.26552700324E+02  0.34206271778E+02  0.43400723832E+02  0.00000000000E+00 0.  1.
         11    1    3    3    0    0  0.33281331792E+00  0.38564503701E+01 -0.11158175661E+02  0.11810497810E+02  0.51100000000E-03 0. -1.
        -11    1    3    3    0    0  0.52911048941E+01  0.38021623875E+01 -0.31427430328E+01  0.72338830411E+01  0.51100000000E-03 0.  1.
         12    1    3    3    0    0 -0.85407496638E+01  0.18894087567E+02 -0.19905353084E+02  0.28742895317E+02  0.00000000000E+00 0. -1.
</event>
<event>
 7    1  0.4519225E-009  0.4778727E+02  0.7816164E-02  0.1312668E+00
        -11   -1    0    0    0    0  0.00000000000E+00  0.00000000000E+00  0.45593999997E+02  0.45594000000E+02  0.51100000000E-03 0.  1.
         11   -1    0    0    0    0 -0.00000000000E+00 -0.00000000000E+00 -0.45593999997E+02  0.45594000000E+02  0.51100000000E-03 0. -1.
    9900012    2    1    2    0    0 -0.23381957142E+02 -0.14288534217E+02 -0.33656280718E+02  0.47787270033E+02  0.19999995390E+02 0.  0.
        -12    1    1    2    0    0  0.23381957142E+02  0.14288534217E+02  0.33656280718E+02  0.43400729967E+02  0.00000000000E+00 0.  1.
         11    1    3    3    0    0  0.17761399668E+01 -0.98791485093E+00 -0.10696036602E+02  0.10887416965E+02  0.51100000000E-03 0.  1.
        -11    1    3    3    0    0 -0.80204855280E+01 -0.37511343223E+01 -0.10149862605E+02  0.13469183642E+02  0.51100000000E-03 0. -1.
        -12    1    3    3    0    0 -0.17137611580E+02 -0.95494850442E+01 -0.12810381512E+02  0.23430669426E+02  0.00000000000E+00 0.  1.
</event>
<event>
 7    1  0.4519225E-009  0.4778727E+02  0.7816164E-02  0.1312668E+00
        -11   -1    0    0    0    0  0.00000000000E+00  0.00000000000E+00  0.45593999997E+02  0.45594000000E+02  0.51100000000E-03 0.  1.
         11   -1    0    0    0    0 -0.00000000000E+00 -0.00000000000E+00 -0.45593999997E+02  0.45594000000E+02  0.51100000000E-03 0. -1.
    9900012    2    1    2    0    0  0.21023327659E+02  0.66480129423E+01 -0.37382439929E+02  0.47787271930E+02  0.20000004038E+02 0.  0.
        -12    1    1    2    0    0 -0.21023327659E+02 -0.66480129423E+01  0.37382439929E+02  0.43400728070E+02  0.00000000000E+00 0.  1.
         11    1    3    3    0    0  0.13251638063E+02 -0.12026694400E+01 -0.98383598448E+01  0.16548282383E+02  0.51100000000E-03 0. -1.
        -11    1    3    3    0    0  0.37177975921E+01  0.80675927909E+01 -0.10671329763E+02  0.13884716473E+02  0.51100000000E-03 0.  1.
        -12    1    3    3    0    0  0.40538920039E+01 -0.21691040864E+00 -0.16872750321E+02  0.17354273074E+02  0.00000000000E+00 0.  1.
</event>
<event>
 7    1  0.4519225E-009  0.4778727E+02  0.7816164E-02  0.1312668E+00
        -11   -1    0    0    0    0  0.00000000000E+00  0.00000000000E+00  0.45593999997E+02  0.45594000000E+02  0.51100000000E-03 0.  1.
         11   -1    0    0    0    0 -0.00000000000E+00 -0.00000000000E+00 -0.45593999997E+02  0.45594000000E+02  0.51100000000E-03 0. -1.
    9900012    2    1    2    0    0  0.38116004983E+02  0.42107085513E+01 -0.20323962677E+02  0.47787270038E+02  0.19999995411E+02 0.  0.
        -12    1    1    2    0    0 -0.38116004983E+02 -0.42107085513E+01  0.20323962677E+02  0.43400729962E+02  0.00000000000E+00 0.  1.
         11    1    3    3    0    0  0.13503608795E+02  0.20718557912E+01 -0.12009055298E+02  0.18189487248E+02  0.51100000000E-03 0. -1.
        -11    1    3    3    0    0  0.11606706145E+02 -0.39195395216E+01 -0.90507711567E+01  0.15231378020E+02  0.51100000000E-03 0.  1.
         12    1    3    3    0    0  0.13005690042E+02  0.60583922817E+01  0.73586377824E+00  0.14366404770E+02  0.00000000000E+00 0. -1.
</event>
<event>
 7    1  0.4519225E-009  0.4778727E+02  0.7816164E-02  0.1312668E+00
        -11   -1    0    0    0    0  0.00000000000E+00  0.00000000000E+00  0.45593999997E+02  0.45594000000E+02  0.51100000000E-03 0.  1.
         11   -1    0    0    0    0 -0.00000000000E+00 -0.00000000000E+00 -0.45593999997E+02  0.45594000000E+02  0.51100000000E-03 0. -1.
    9900012    2    1    2    0    0  0.22782939419E+02 -0.33696008801E+02  0.15137367622E+02  0.47787271478E+02  0.20000001977E+02 0.  0.
        -12    1    1    2    0    0 -0.22782939419E+02  0.33696008801E+02 -0.15137367622E+02  0.43400728522E+02  0.00000000000E+00 0.  1.
         11    1    3    3    0    0  0.93481087020E+01 -0.67206758934E+01  0.24957423663E+01  0.11780634575E+02  0.51100000000E-03 0. -1.
        -11    1    3    3    0    0  0.19081827076E+00 -0.28068701479E+01 -0.31661638116E+01  0.42355076652E+01  0.51100000000E-03 0.  1.
        -12    1    3    3    0    0  0.13244012447E+02 -0.24168462760E+02  0.15807789067E+02  0.31771129238E+02  0.00000000000E+00 0.  1.
</event>
<event>
 7    1  0.4519225E-009  0.4778727E+02  0.7816164E-02  0.1312668E+00
        -11   -1    0    0    0    0  0.00000000000E+00  0.00000000000E+00  0.45593999997E+02  0.45594000000E+02  0.51100000000E-03 0.  1.
         11   -1    0    0    0    0 -0.00000000000E+00 -0.00000000000E+00 -0.45593999997E+02  0.45594000000E+02  0.51100000000E-03 0. -1.
    9900012    2    1    2    0    0  0.19572367189E+02  0.20810403191E+02 -0.32672205171E+02  0.47787269257E+02  0.19999991849E+02 0.  0.
        -12    1    1    2    0    0 -0.19572367189E+02 -0.20810403191E+02  0.32672205171E+02  0.43400730743E+02  0.00000000000E+00 0.  1.
         11    1    3    3    0    0  0.11930400314E+02  0.96913950895E+01 -0.22682711018E+02  0.27400054193E+02  0.51100000000E-03 0. -1.
        -11    1    3    3    0    0 -0.35819649542E+00  0.94927400261E+01 -0.64911253516E+01  0.11505438997E+02  0.51100000000E-03 0.  1.
        -12    1    3    3    0    0  0.80001633710E+01  0.16262680752E+01 -0.34983688012E+01  0.88817760659E+01  0.00000000000E+00 0.  1.
</event>
<event>
 7    1  0.4519225E-009  0.4778726E+02  0.7816164E-02  0.1312668E+00
        -11   -1    0    0    0    0  0.00000000000E+00  0.00000000000E+00  0.45593999997E+02  0.45594000000E+02  0.51100000000E-03 0. -1.
         11   -1    0    0    0    0 -0.00000000000E+00 -0.00000000000E+00 -0.45593999997E+02  0.45594000000E+02  0.51100000000E-03 0.  1.
    9900012    2    1    2    0    0 -0.26443378441E+02  0.32915043989E+02 -0.10048455211E+02  0.47787264565E+02  0.19999970457E+02 0.  0.
        -12    1    1    2    0    0  0.26443378441E+02 -0.32915043989E+02  0.10048455211E+02  0.43400735435E+02  0.00000000000E+00 0.  1.
         11    1    3    3    0    0 -0.77941316291E+01  0.15208979658E+02 -0.10301546357E+02  0.19954533512E+02  0.51100000000E-03 0. -1.
        -11    1    3    3    0    0 -0.11645954062E+02  0.45407621221E+01 -0.22825617176E+01  0.12706567393E+02  0.51100000000E-03 0.  1.
         12    1    3    3    0    0 -0.70032927501E+01  0.13165302209E+02  0.25356528637E+01  0.15126163660E+02  0.00000000000E+00 0. -1.
</event>
<event>
 7    1  0.4519225E-009  0.4778727E+02  0.7816164E-02  0.1312668E+00
        -11   -1    0    0    0    0  0.00000000000E+00  0.00000000000E+00  0.45593999997E+02  0.45594000000E+02  0.51100000000E-03 0. -1.
         11   -1    0    0    0    0 -0.00000000000E+00 -0.00000000000E+00 -0.45593999997E+02  0.45594000000E+02  0.51100000000E-03 0.  1.
    9900012    2    1    2    0    0 -0.33724253898E+02 -0.17805830867E+02  0.20718359010E+02  0.47787270583E+02  0.19999997898E+02 0.  0.
        -12    1    1    2    0    0  0.33724253898E+02  0.17805830867E+02 -0.20718359010E+02  0.43400729417E+02  0.00000000000E+00 0.  1.
         11    1    3    3    0    0 -0.93205816671E+01 -0.42821316449E+01  0.58783539275E+01  0.11822222261E+02  0.51100000000E-03 0. -1.
        -11    1    3    3    0    0  0.21400190491E+01 -0.82652638330E+00 -0.10515973703E+01  0.25236253057E+01  0.51100000000E-03 0.  1.
        -12    1    3    3    0    0 -0.26543691280E+02 -0.12697172839E+02  0.15891602453E+02  0.33441423016E+02  0.00000000000E+00 0.  1.
</event>
<event>
 7    1  0.4519225E-009  0.4778727E+02  0.7816164E-02  0.1312668E+00
        -11   -1    0    0    0    0  0.00000000000E+00  0.00000000000E+00  0.45593999997E+02  0.45594000000E+02  0.51100000000E-03 0. -1.
         11   -1    0    0    0    0 -0.00000000000E+00 -0.00000000000E+00 -0.45593999997E+02  0.45594000000E+02  0.51100000000E-03 0.  1.
    9900012    2    1    2    0    0  0.37121861808E+02  0.13620958782E+02  0.17890232904E+02  0.47787267568E+02  0.19999984150E+02 0.  0.
        -12    1    1    2    0    0 -0.37121861808E+02 -0.13620958782E+02 -0.17890232904E+02  0.43400732432E+02  0.00000000000E+00 0.  1.
         11    1    3    3    0    0  0.38380959411E+01  0.48436253756E+01  0.37062701935E+01  0.72061172791E+01  0.51100000000E-03 0. -1.
        -11    1    3    3    0    0  0.13381685353E+02  0.47404081947E+01  0.14470756398E+02  0.20271747921E+02  0.51100000000E-03 0.  1.
        -12    1    3    3    0    0  0.19902080514E+02  0.40369252120E+01 -0.28679368748E+00  0.20309402368E+02  0.00000000000E+00 0.  1.
</event>
<event>
 7    1  0.4519225E-009  0.4778727E+02  0.7816164E-02  0.1312668E+00
        -11   -1    0    0    0    0  0.00000000000E+00  0.00000000000E+00  0.45593999997E+02  0.45594000000E+02  0.51100000000E-03 0. -1.
         11   -1    0    0    0    0 -0.00000000000E+00 -0.00000000000E+00 -0.45593999997E+02  0.45594000000E+02  0.51100000000E-03 0.  1.
    9900012    2    1    2    0    0  0.29926730181E+02 -0.15728476887E+02  0.27214499989E+02  0.47787272193E+02  0.20000005238E+02 0.  0.
        -12    1    1    2    0    0 -0.29926730181E+02  0.15728476887E+02 -0.27214499989E+02  0.43400727807E+02  0.00000000000E+00 0.  1.
         11    1    3    3    0    0  0.18976573176E+02 -0.12636523461E+02  0.24839610103E+02  0.33716439388E+02  0.51100000000E-03 0. -1.
        -11    1    3    3    0    0  0.94837346384E+01 -0.31215474018E+01  0.49220459806E+01  0.11131568522E+02  0.51100000000E-03 0.  1.
        -12    1    3    3    0    0  0.14664223664E+01  0.29593975621E-01 -0.25471560939E+01  0.29392642833E+01  0.00000000000E+00 0.  1.
</event>
<event>
 7    1  0.4519225E-009  0.4778727E+02  0.7816164E-02  0.1312668E+00
        -11   -1    0    0    0    0  0.00000000000E+00  0.00000000000E+00  0.45593999997E+02  0.45594000000E+02  0.51100000000E-03 0.  1.
         11   -1    0    0    0    0 -0.00000000000E+00 -0.00000000000E+00 -0.45593999997E+02  0.45594000000E+02  0.51100000000E-03 0. -1.
    9900012    2    1    2    0    0  0.37224713753E+02 -0.28619308000E+00 -0.22312830845E+02  0.47787266817E+02  0.19999980728E+02 0.  0.
        -12    1    1    2    0    0 -0.37224713753E+02  0.28619308000E+00  0.22312830845E+02  0.43400733183E+02  0.00000000000E+00 0.  1.
         11    1    3    3    0    0  0.30814251155E+01  0.27274268930E+01 -0.35205162647E+01  0.54155399758E+01  0.51100000000E-03 0. -1.
        -11    1    3    3    0    0  0.24789819656E+02 -0.44730102537E-01 -0.47509600062E+01  0.25241013858E+02  0.51100000000E-03 0.  1.
        -12    1    3    3    0    0  0.93534689819E+01 -0.29688898704E+01 -0.14041354574E+02  0.17130712983E+02  0.00000000000E+00 0.  1.
</event>
<event>
 7    1  0.4519225E-009  0.4778729E+02  0.7816164E-02  0.1312668E+00
        -11   -1    0    0    0    0  0.00000000000E+00  0.00000000000E+00  0.45593999997E+02  0.45594000000E+02  0.51100000000E-03 0.  1.
         11   -1    0    0    0    0 -0.00000000000E+00 -0.00000000000E+00 -0.45593999997E+02  0.45594000000E+02  0.51100000000E-03 0. -1.
    9900012    2    1    2    0    0 -0.29814896894E+02 -0.18651101523E+02 -0.25432855792E+02  0.47787287810E+02  0.20000076441E+02 0.  0.
        -12    1    1    2    0    0  0.29814896894E+02  0.18651101523E+02  0.25432855792E+02  0.43400712190E+02  0.00000000000E+00 0.  1.
         11    1    3    3    0    0 -0.16220822266E+02 -0.68883334280E+01 -0.18689877298E+02  0.25688046365E+02  0.51100000000E-03 0. -1.
        -11    1    3    3    0    0 -0.15331277788E+02 -0.10436000940E+02 -0.71483904472E+01  0.19876057972E+02  0.51100000000E-03 0.  1.
        -12    1    3    3    0    0  0.17372031600E+01 -0.13267671555E+01  0.40541195288E+00  0.22231834732E+01  0.00000000000E+00 0.  1.
</event>
<event>
 7    1  0.4519225E-009  0.4778728E+02  0.7816164E-02  0.1312668E+00
        -11   -1    0    0    0    0  0.00000000000E+00  0.00000000000E+00  0.45593999997E+02  0.45594000000E+02  0.51100000000E-03 0.  1.
         11   -1    0    0    0    0 -0.00000000000E+00 -0.00000000000E+00 -0.45593999997E+02  0.45594000000E+02  0.51100000000E-03 0. -1.
    9900012    2    1    2    0    0  0.16247193428E+02  0.82632323744E+01 -0.39387436054E+02  0.47787280853E+02  0.20000044722E+02 0.  0.
        -12    1    1    2    0    0 -0.16247193428E+02 -0.82632323744E+01  0.39387436054E+02  0.43400719147E+02  0.00000000000E+00 0.  1.
         11    1    3    3    0    0  0.76272751415E+00  0.26290279414E+01  0.42231089646E+00  0.27698173102E+01  0.51100000000E-03 0. -1.
        -11    1    3    3    0    0 -0.22895517645E+01  0.15478646929E+01 -0.46565095848E+01  0.54148881950E+01  0.51100000000E-03 0.  1.
         12    1    3    3    0    0  0.17774017679E+02  0.40863397402E+01 -0.35153237366E+02  0.39602575348E+02  0.00000000000E+00 0. -1.
</event>
<event>
 7    1  0.5087066E-009  0.4778727E+02  0.7816164E-02  0.1312668E+00
        -11   -1    0    0    0    0  0.00000000000E+00  0.00000000000E+00  0.45593999997E+02  0.45594000000E+02  0.51100000000E-03 0. -1.
         11   -1    0    0    0    0 -0.00000000000E+00 -0.00000000000E+00 -0.45593999997E+02  0.45594000000E+02  0.51100000000E-03 0.  1.
    9900012    2    1    2    0    0 -0.31651085662E+02 -0.22929619807E+02  0.18869671333E+02  0.47787272076E+02  0.20000004705E+02 0.  0.
        -12    1    1    2    0    0  0.31651085662E+02  0.22929619807E+02 -0.18869671333E+02  0.43400727924E+02  0.00000000000E+00 0.  1.
         11    1    3    3    0    0 -0.84606922646E+01 -0.38370930395E+01 -0.70100360121E-01  0.92903988564E+01  0.51100000000E-03 0. -1.
        -11    1    3    3    0    0 -0.11792235110E+01 -0.51386005643E+01 -0.13802282210E+01  0.54498453236E+01  0.51100000000E-03 0.  1.
         12    1    3    3    0    0 -0.22011169886E+02 -0.13953926204E+02  0.20319999915E+02  0.33047027896E+02  0.00000000000E+00 0. -1.
</event>
<event>
 7    1  0.4519225E-009  0.4778725E+02  0.7816164E-02  0.1312668E+00
        -11   -1    0    0    0    0  0.00000000000E+00  0.00000000000E+00  0.45593999997E+02  0.45594000000E+02  0.51100000000E-03 0.  1.
         11   -1    0    0    0    0 -0.00000000000E+00 -0.00000000000E+00 -0.45593999997E+02  0.45594000000E+02  0.51100000000E-03 0. -1.
    9900012    2    1    2    0    0  0.41953755906E+02 -0.11105830009E+02  0.40970305250E+00  0.47787251718E+02  0.19999911883E+02 0.  0.
        -12    1    1    2    0    0 -0.41953755906E+02  0.11105830009E+02 -0.40970305250E+00  0.43400748282E+02  0.00000000000E+00 0.  1.
         11    1    3    3    0    0  0.43447265795E+01  0.25164507145E+01  0.67233438845E+00  0.50656891969E+01  0.51100000000E-03 0. -1.
        -11    1    3    3    0    0  0.92518373727E+01 -0.31611552970E+00 -0.57828192830E+01  0.10915009066E+02  0.51100000000E-03 0.  1.
         12    1    3    3    0    0  0.28357191954E+02 -0.13306165194E+02  0.55201879470E+01  0.31806553455E+02  0.00000000000E+00 0. -1.
</event>
<event>
 7    1  0.4519225E-009  0.4778727E+02  0.7816164E-02  0.1312668E+00
        -11   -1    0    0    0    0  0.00000000000E+00  0.00000000000E+00  0.45593999997E+02  0.45594000000E+02  0.51100000000E-03 0.  1.
         11   -1    0    0    0    0 -0.00000000000E+00 -0.00000000000E+00 -0.45593999997E+02  0.45594000000E+02  0.51100000000E-03 0. -1.
    9900012    2    1    2    0    0 -0.70435478872E+01 -0.46674338073E+01 -0.42570256271E+02  0.47787271617E+02  0.20000002613E+02 0.  0.
        -12    1    1    2    0    0  0.70435478872E+01  0.46674338073E+01  0.42570256271E+02  0.43400728383E+02  0.00000000000E+00 0.  1.
         11    1    3    3    0    0 -0.43605309285E+01 -0.76629668854E+01 -0.27557463531E+02  0.28933528785E+02  0.51100000000E-03 0. -1.
        -11    1    3    3    0    0 -0.11872918603E+01 -0.34319586854E+01 -0.17313130347E+01  0.40231141502E+01  0.51100000000E-03 0.  1.
         12    1    3    3    0    0 -0.14957250983E+01  0.64274917635E+01 -0.13281479705E+02  0.14830628682E+02  0.00000000000E+00 0. -1.
</event>
<event>
 7    1  0.4519225E-009  0.4778728E+02  0.7816164E-02  0.1312668E+00
        -11   -1    0    0    0    0  0.00000000000E+00  0.00000000000E+00  0.45593999997E+02  0.45594000000E+02  0.51100000000E-03 0.  1.
         11   -1    0    0    0    0 -0.00000000000E+00 -0.00000000000E+00 -0.45593999997E+02  0.45594000000E+02  0.51100000000E-03 0. -1.
    9900012    2    1    2    0    0 -0.38839858093E+02  0.18668456639E+02  0.51552960866E+01  0.47787275033E+02  0.20000018185E+02 0.  0.
        -12    1    1    2    0    0  0.38839858093E+02 -0.18668456639E+02 -0.51552960866E+01  0.43400724967E+02  0.00000000000E+00 0.  1.
         11    1    3    3    0    0 -0.83291751829E+01  0.33874695681E+01 -0.34550825944E+01  0.96326375047E+01  0.51100000000E-03 0. -1.
        -11    1    3    3    0    0 -0.19498742581E+02  0.57267410210E+01 -0.15547913152E+01  0.20381705062E+02  0.51100000000E-03 0.  1.
        -12    1    3    3    0    0 -0.11011940329E+02  0.95542460498E+01  0.10165169996E+02  0.17772932466E+02  0.00000000000E+00 0.  1.
</event>
<event>
 7    1  0.4519225E-009  0.4778727E+02  0.7816164E-02  0.1312668E+00
        -11   -1    0    0    0    0  0.00000000000E+00  0.00000000000E+00  0.45593999997E+02  0.45594000000E+02  0.51100000000E-03 0.  1.
         11   -1    0    0    0    0 -0.00000000000E+00 -0.00000000000E+00 -0.45593999997E+02  0.45594000000E+02  0.51100000000E-03 0. -1.
    9900012    2    1    2    0    0  0.13241062154E+02  0.46298175443E+01 -0.41071430650E+02  0.47787270132E+02  0.19999995838E+02 0.  0.
        -12    1    1    2    0    0 -0.13241062154E+02 -0.46298175443E+01  0.41071430650E+02  0.43400729868E+02  0.00000000000E+00 0.  1.
         11    1    3    3    0    0 -0.19708625971E+01 -0.93917465438E+00  0.90369641774E-02  0.21832155954E+01  0.51100000000E-03 0. -1.
        -11    1    3    3    0    0 -0.11285246211E+01 -0.80252614320E-01 -0.97859851021E+01  0.98511681024E+01  0.51100000000E-03 0.  1.
         12    1    3    3    0    0  0.16340449372E+02  0.56492448130E+01 -0.31294482512E+02  0.35752886434E+02  0.00000000000E+00 0. -1.
</event>
<event>
 7    1  0.4519225E-009  0.4778726E+02  0.7816164E-02  0.1312668E+00
        -11   -1    0    0    0    0  0.00000000000E+00  0.00000000000E+00  0.45593999997E+02  0.45594000000E+02  0.51100000000E-03 0.  1.
         11   -1    0    0    0    0 -0.00000000000E+00 -0.00000000000E+00 -0.45593999997E+02  0.45594000000E+02  0.51100000000E-03 0. -1.
    9900012    2    1    2    0    0 -0.11809743773E+02 -0.41754393281E+02 -0.85146328615E+00  0.47787258117E+02  0.19999941060E+02 0.  0.
        -12    1    1    2    0    0  0.11809743773E+02  0.41754393281E+02  0.85146328615E+00  0.43400741883E+02  0.00000000000E+00 0.  1.
         11    1    3    3    0    0 -0.20901921136E+01 -0.62827968842E+01 -0.99105263247E+00  0.66951195166E+01  0.51100000000E-03 0. -1.
        -11    1    3    3    0    0 -0.68677123712E+00  0.19160176040E+01  0.16184685566E+01  0.26004266805E+01  0.51100000000E-03 0.  1.
        -12    1    3    3    0    0 -0.90327804221E+01 -0.37387614001E+02 -0.14788792103E+01  0.38491711920E+02  0.00000000000E+00 0.  1.
</event>
<event>
 7    1  0.4519225E-009  0.4778726E+02  0.7816164E-02  0.1312668E+00
        -11   -1    0    0    0    0  0.00000000000E+00  0.00000000000E+00  0.45593999997E+02  0.45594000000E+02  0.51100000000E-03 0.  1.
         11   -1    0    0    0    0 -0.00000000000E+00 -0.00000000000E+00 -0.45593999997E+02  0.45594000000E+02  0.51100000000E-03 0. -1.
    9900012    2    1    2    0    0 -0.17197819017E+02 -0.12437091743E+02 -0.37857332543E+02  0.47787264324E+02  0.19999969359E+02 0.  0.
        -12    1    1    2    0    0  0.17197819017E+02  0.12437091743E+02  0.37857332543E+02  0.43400735676E+02  0.00000000000E+00 0.  1.
         11    1    3    3    0    0 -0.32370436983E+01 -0.47161744752E+01 -0.16656412005E+02  0.17611269537E+02  0.51100000000E-03 0. -1.
        -11    1    3    3    0    0 -0.11639172898E+02 -0.12469468735E+01 -0.20029535342E+02  0.23199299743E+02  0.51100000000E-03 0.  1.
        -12    1    3    3    0    0 -0.23216024204E+01 -0.64739703938E+01 -0.11713851958E+01  0.69766950439E+01  0.00000000000E+00 0.  1.
</event>
<event>
 7    1  0.4519225E-009  0.4778726E+02  0.7816164E-02  0.1312668E+00
        -11   -1    0    0    0    0  0.00000000000E+00  0.00000000000E+00  0.45593999997E+02  0.45594000000E+02  0.51100000000E-03 0.  1.
         11   -1    0    0    0    0 -0.00000000000E+00 -0.00000000000E+00 -0.45593999997E+02  0.45594000000E+02  0.51100000000E-03 0. -1.
    9900012    2    1    2    0    0  0.37628104575E+02  0.13476148713E+02 -0.16915771925E+02  0.47787260630E+02  0.19999952514E+02 0.  0.
        -12    1    1    2    0    0 -0.37628104575E+02 -0.13476148713E+02  0.16915771925E+02  0.43400739370E+02  0.00000000000E+00 0.  1.
         11    1    3    3    0    0  0.14264219011E+02  0.90003153180E+01 -0.14567222008E+02  0.22286264315E+02  0.51100000000E-03 0. -1.
        -11    1    3    3    0    0  0.64702787115E+01  0.86536120584E+00 -0.47315284646E+01  0.80623023072E+01  0.51100000000E-03 0.  1.
        -12    1    3    3    0    0  0.16893606853E+02  0.36104721892E+01  0.23829785473E+01  0.17438694007E+02  0.00000000000E+00 0.  1.
</event>
<event>
 7    1  0.4519225E-009  0.4778727E+02  0.7816164E-02  0.1312668E+00
        -11   -1    0    0    0    0  0.00000000000E+00  0.00000000000E+00  0.45593999997E+02  0.45594000000E+02  0.51100000000E-03 0.  1.
         11   -1    0    0    0    0 -0.00000000000E+00 -0.00000000000E+00 -0.45593999997E+02  0.45594000000E+02  0.51100000000E-03 0. -1.
    9900012    2    1    2    0    0  0.86426323974E+01  0.30122440601E+02 -0.30026104738E+02  0.47787268574E+02  0.19999988738E+02 0.  0.
        -12    1    1    2    0    0 -0.86426323974E+01 -0.30122440601E+02  0.30026104738E+02  0.43400731426E+02  0.00000000000E+00 0.  1.
         11    1    3    3    0    0 -0.40528623631E+01  0.15474451069E+02 -0.17584789901E+02  0.23772024848E+02  0.51100000000E-03 0. -1.
        -11    1    3    3    0    0  0.72997071910E+01  0.57195301820E+01 -0.92684200551E+01  0.13111154074E+02  0.51100000000E-03 0.  1.
        -12    1    3    3    0    0  0.53957875695E+01  0.89284593496E+01 -0.31728947825E+01  0.10904089653E+02  0.00000000000E+00 0.  1.
</event>
<event>
 7    1  0.4519225E-009  0.4778727E+02  0.7816164E-02  0.1312668E+00
        -11   -1    0    0    0    0  0.00000000000E+00  0.00000000000E+00  0.45593999997E+02  0.45594000000E+02  0.51100000000E-03 0.  1.
         11   -1    0    0    0    0 -0.00000000000E+00 -0.00000000000E+00 -0.45593999997E+02  0.45594000000E+02  0.51100000000E-03 0. -1.
    9900012    2    1    2    0    0 -0.30501845408E+01  0.33679933705E+02 -0.27202611262E+02  0.47787267062E+02  0.19999981841E+02 0.  0.
        -12    1    1    2    0    0  0.30501845408E+01 -0.33679933705E+02  0.27202611262E+02  0.43400732938E+02  0.00000000000E+00 0.  1.
         11    1    3    3    0    0 -0.75926791166E+00  0.14822940491E+01 -0.47524350359E+01  0.50358040512E+01  0.51100000000E-03 0. -1.
        -11    1    3    3    0    0 -0.21722188164E+00  0.92936982669E+01  0.16473645228E+01  0.94410710702E+01  0.51100000000E-03 0.  1.
         12    1    3    3    0    0 -0.20736947475E+01  0.22903941389E+02 -0.24097540749E+02  0.33310391940E+02  0.00000000000E+00 0. -1.
</event>
<event>
 7    1  0.4519225E-009  0.4778727E+02  0.7816164E-02  0.1312668E+00
        -11   -1    0    0    0    0  0.00000000000E+00  0.00000000000E+00  0.45593999997E+02  0.45594000000E+02  0.51100000000E-03 0.  1.
         11   -1    0    0    0    0 -0.00000000000E+00 -0.00000000000E+00 -0.45593999997E+02  0.45594000000E+02  0.51100000000E-03 0. -1.
    9900012    2    1    2    0    0 -0.11101316590E+02 -0.18512052472E+02 -0.37652200228E+02  0.47787268453E+02  0.19999988187E+02 0.  0.
        -12    1    1    2    0    0  0.11101316590E+02  0.18512052472E+02  0.37652200228E+02  0.43400731547E+02  0.00000000000E+00 0.  1.
         11    1    3    3    0    0  0.16284981452E+01 -0.42563481366E+01 -0.23471042057E+02  0.23909377264E+02  0.51100000000E-03 0. -1.
        -11    1    3    3    0    0 -0.26621140945E+01 -0.41009461844E+01 -0.41172516722E+01  0.63918989864E+01  0.51100000000E-03 0.  1.
         12    1    3    3    0    0 -0.10067700640E+02 -0.10154758151E+02 -0.10063906499E+02  0.17485992203E+02  0.00000000000E+00 0. -1.
</event>
<event>
 7    1  0.4519225E-009  0.4778728E+02  0.7816164E-02  0.1312668E+00
        -11   -1    0    0    0    0  0.00000000000E+00  0.00000000000E+00  0.45593999997E+02  0.45594000000E+02  0.51100000000E-03 0.  1.
         11   -1    0    0    0    0 -0.00000000000E+00 -0.00000000000E+00 -0.45593999997E+02  0.45594000000E+02  0.51100000000E-03 0. -1.
    9900012    2    1    2    0    0 -0.17978352183E+02  0.60111498836E+01 -0.39041872967E+02  0.47787275180E+02  0.20000018856E+02 0.  0.
        -12    1    1    2    0    0  0.17978352183E+02 -0.60111498836E+01  0.39041872967E+02  0.43400724820E+02  0.00000000000E+00 0.  1.
         11    1    3    3    0    0 -0.39502664115E+01  0.51957773530E+01 -0.14703127771E+02  0.16086723518E+02  0.51100000000E-03 0. -1.
        -11    1    3    3    0    0 -0.60863847156E+01 -0.92453763974E-01 -0.22750656115E+02  0.23550901905E+02  0.51100000000E-03 0.  1.
        -12    1    3    3    0    0 -0.79417010556E+01  0.90782629450E+00 -0.15880890806E+01  0.81496497573E+01  0.00000000000E+00 0.  1.
</event>
<event>
 7    1  0.4519225E-009  0.4778726E+02  0.7816164E-02  0.1312668E+00
        -11   -1    0    0    0    0  0.00000000000E+00  0.00000000000E+00  0.45593999997E+02  0.45594000000E+02  0.51100000000E-03 0. -1.
         11   -1    0    0    0    0 -0.00000000000E+00 -0.00000000000E+00 -0.45593999997E+02  0.45594000000E+02  0.51100000000E-03 0.  1.
    9900012    2    1    2    0    0  0.35222275361E+02  0.23332468452E+02  0.99303104457E+01  0.47787264624E+02  0.19999970726E+02 0.  0.
        -12    1    1    2    0    0 -0.35222275361E+02 -0.23332468452E+02 -0.99303104457E+01  0.43400735376E+02  0.00000000000E+00 0.  1.
         11    1    3    3    0    0  0.19869973033E+02  0.16994489097E+02  0.93005026018E+01  0.27751177217E+02  0.51100000000E-03 0. -1.
        -11    1    3    3    0    0  0.41063189610E+01 -0.85073791650E-01  0.49051970592E+01  0.63976598386E+01  0.51100000000E-03 0.  1.
         12    1    3    3    0    0  0.11245983366E+02  0.64230531467E+01 -0.42753892153E+01  0.13638427569E+02  0.00000000000E+00 0. -1.
</event>
<event>
 7    1  0.4519225E-009  0.4778726E+02  0.7816164E-02  0.1312668E+00
        -11   -1    0    0    0    0  0.00000000000E+00  0.00000000000E+00  0.45593999997E+02  0.45594000000E+02  0.51100000000E-03 0.  1.
         11   -1    0    0    0    0 -0.00000000000E+00 -0.00000000000E+00 -0.45593999997E+02  0.45594000000E+02  0.51100000000E-03 0. -1.
    9900012    2    1    2    0    0  0.30392851533E+02  0.30039176323E+02  0.75859293157E+01  0.47787264268E+02  0.19999969105E+02 0.  0.
        -12    1    1    2    0    0 -0.30392851533E+02 -0.30039176323E+02 -0.75859293157E+01  0.43400735732E+02  0.00000000000E+00 0.  1.
         11    1    3    3    0    0  0.60006805864E+00  0.69603533033E+01  0.39968062009E+00  0.69975956328E+01  0.51100000000E-03 0. -1.
        -11    1    3    3    0    0  0.30398105458E+01  0.87533487100E+01  0.45651668256E+01  0.10329681031E+02  0.51100000000E-03 0.  1.
         12    1    3    3    0    0  0.26752972929E+02  0.14325474309E+02  0.26210818701E+01  0.30459987605E+02  0.00000000000E+00 0. -1.
</event>
<event>
 7    1  0.4519225E-009  0.4778727E+02  0.7816164E-02  0.1312668E+00
        -11   -1    0    0    0    0  0.00000000000E+00  0.00000000000E+00  0.45593999997E+02  0.45594000000E+02  0.51100000000E-03 0.  1.
         11   -1    0    0    0    0 -0.00000000000E+00 -0.00000000000E+00 -0.45593999997E+02  0.45594000000E+02  0.51100000000E-03 0. -1.
    9900012    2    1    2    0    0  0.36368047997E+02  0.23497986791E+02 -0.29719997790E+01  0.47787273266E+02  0.20000010128E+02 0.  0.
        -12    1    1    2    0    0 -0.36368047997E+02 -0.23497986791E+02  0.29719997790E+01  0.43400726734E+02  0.00000000000E+00 0.  1.
         11    1    3    3    0    0  0.13414236898E+02  0.11111145646E+02  0.56578930431E+01  0.18314231162E+02  0.51100000000E-03 0. -1.
        -11    1    3    3    0    0  0.16890440660E+02  0.13596464414E+02 -0.48252808667E+01  0.22213378085E+02  0.51100000000E-03 0.  1.
        -12    1    3    3    0    0  0.60633704392E+01 -0.12096232677E+01 -0.38046119554E+01  0.72596640187E+01  0.00000000000E+00 0.  1.
</event>
<event>
 7    1  0.4519225E-009  0.4778727E+02  0.7816164E-02  0.1312668E+00
        -11   -1    0    0    0    0  0.00000000000E+00  0.00000000000E+00  0.45593999997E+02  0.45594000000E+02  0.51100000000E-03 0.  1.
         11   -1    0    0    0    0 -0.00000000000E+00 -0.00000000000E+00 -0.45593999997E+02  0.45594000000E+02  0.51100000000E-03 0. -1.
    9900012    2    1    2    0    0 -0.40921027086E+02 -0.11061882546E+02 -0.93127702500E+01  0.47787269673E+02  0.19999993747E+02 0.  0.
        -12    1    1    2    0    0  0.40921027086E+02  0.11061882546E+02  0.93127702500E+01  0.43400730327E+02  0.00000000000E+00 0.  1.
         11    1    3    3    0    0 -0.12016736131E+02  0.59544591066E+00 -0.52063050473E+01  0.13109619200E+02  0.51100000000E-03 0. -1.
        -11    1    3    3    0    0 -0.63549048391E+00 -0.42861272141E+01 -0.33102830897E+01  0.54527707678E+01  0.51100000000E-03 0.  1.
         12    1    3    3    0    0 -0.28268800471E+02 -0.73712012421E+01 -0.79618211303E+00  0.29224879705E+02  0.00000000000E+00 0. -1.
</event>
<event>
 7    1  0.4519225E-009  0.4778727E+02  0.7816164E-02  0.1312668E+00
        -11   -1    0    0    0    0  0.00000000000E+00  0.00000000000E+00  0.45593999997E+02  0.45594000000E+02  0.51100000000E-03 0.  1.
         11   -1    0    0    0    0 -0.00000000000E+00 -0.00000000000E+00 -0.45593999997E+02  0.45594000000E+02  0.51100000000E-03 0. -1.
    9900012    2    1    2    0    0  0.19651188382E+02 -0.21068192074E+02 -0.32458980965E+02  0.47787269968E+02  0.19999995090E+02 0.  0.
        -12    1    1    2    0    0 -0.19651188382E+02  0.21068192074E+02  0.32458980965E+02  0.43400730032E+02  0.00000000000E+00 0.  1.
         11    1    3    3    0    0  0.10297416278E+02 -0.16899807188E+02 -0.17990191255E+02  0.26744854583E+02  0.51100000000E-03 0. -1.
        -11    1    3    3    0    0  0.66203340651E+01 -0.51060284734E+01 -0.15788514619E+02  0.17865540687E+02  0.51100000000E-03 0.  1.
        -12    1    3    3    0    0  0.27334380388E+01  0.93764358767E+00  0.13197249093E+01  0.31768746978E+01  0.00000000000E+00 0.  1.
</event>
<event>
 7    1  0.4519225E-009  0.4778727E+02  0.7816164E-02  0.1312668E+00
        -11   -1    0    0    0    0  0.00000000000E+00  0.00000000000E+00  0.45593999997E+02  0.45594000000E+02  0.51100000000E-03 0.  1.
         11   -1    0    0    0    0 -0.00000000000E+00 -0.00000000000E+00 -0.45593999997E+02  0.45594000000E+02  0.51100000000E-03 0. -1.
    9900012    2    1    2    0    0 -0.42007142817E+02 -0.12443689608E+01 -0.10838579918E+02  0.47787270555E+02  0.19999997768E+02 0.  0.
        -12    1    1    2    0    0  0.42007142817E+02  0.12443689608E+01  0.10838579918E+02  0.43400729445E+02  0.00000000000E+00 0.  1.
         11    1    3    3    0    0 -0.50233168528E+01  0.49948962166E+01 -0.44663426770E+01  0.83744204329E+01  0.51100000000E-03 0.  1.
        -11    1    3    3    0    0 -0.11135275102E+02 -0.27212926147E+00 -0.64758219470E+01  0.12884280192E+02  0.51100000000E-03 0. -1.
        -12    1    3    3    0    0 -0.25848550862E+02 -0.59671359159E+01  0.10358470653E+00  0.26528569930E+02  0.00000000000E+00 0.  1.
</event>
<event>
 7    1  0.4519225E-009  0.4778727E+02  0.7816164E-02  0.1312668E+00
        -11   -1    0    0    0    0  0.00000000000E+00  0.00000000000E+00  0.45593999997E+02  0.45594000000E+02  0.51100000000E-03 0.  1.
         11   -1    0    0    0    0 -0.00000000000E+00 -0.00000000000E+00 -0.45593999997E+02  0.45594000000E+02  0.51100000000E-03 0. -1.
    9900012    2    1    2    0    0  0.19029341465E+02 -0.36294492193E+02 -0.14290469956E+02  0.47787268074E+02  0.19999986459E+02 0.  0.
        -12    1    1    2    0    0 -0.19029341465E+02  0.36294492193E+02  0.14290469956E+02  0.43400731926E+02  0.00000000000E+00 0.  1.
         11    1    3    3    0    0 -0.95035902614E+00 -0.18658031270E+01 -0.24609824153E+01  0.32312286048E+01  0.51100000000E-03 0. -1.
        -11    1    3    3    0    0  0.94081942081E+01 -0.52500051247E+01  0.13123344227E+01  0.10853519888E+02  0.51100000000E-03 0.  1.
         12    1    3    3    0    0  0.10571506283E+02 -0.29178683941E+02 -0.13141821963E+02  0.33702519581E+02  0.00000000000E+00 0. -1.
</event>
<event>
 7    1  0.4519225E-009  0.4778727E+02  0.7816164E-02  0.1312668E+00
        -11   -1    0    0    0    0  0.00000000000E+00  0.00000000000E+00  0.45593999997E+02  0.45594000000E+02  0.51100000000E-03 0.  1.
         11   -1    0    0    0    0 -0.00000000000E+00 -0.00000000000E+00 -0.45593999997E+02  0.45594000000E+02  0.51100000000E-03 0. -1.
    9900012    2    1    2    0    0 -0.38150686577E+02 -0.20369916506E+02  0.36352098482E+01  0.47787272640E+02  0.20000007274E+02 0.  0.
        -12    1    1    2    0    0  0.38150686577E+02  0.20369916506E+02 -0.36352098482E+01  0.43400727360E+02  0.00000000000E+00 0.  1.
         11    1    3    3    0    0 -0.28821661641E+02 -0.17208929192E+02 -0.29334236125E+01  0.33696296503E+02  0.51100000000E-03 0. -1.
        -11    1    3    3    0    0 -0.95818934775E+01 -0.48157121148E+01  0.51486891622E+01  0.11895913842E+02  0.51100000000E-03 0.  1.
         12    1    3    3    0    0  0.25286854180E+00  0.16547248006E+01  0.14199442985E+01  0.21950622944E+01  0.00000000000E+00 0. -1.
</event>
<event>
 7    1  0.4519225E-009  0.4778727E+02  0.7816164E-02  0.1312668E+00
        -11   -1    0    0    0    0  0.00000000000E+00  0.00000000000E+00  0.45593999997E+02  0.45594000000E+02  0.51100000000E-03 0. -1.
         11   -1    0    0    0    0 -0.00000000000E+00 -0.00000000000E+00 -0.45593999997E+02  0.45594000000E+02  0.51100000000E-03 0.  1.
    9900012    2    1    2    0    0 -0.83402669030E+00 -0.40346004787E+02  0.15972716467E+02  0.47787269890E+02  0.19999994735E+02 0.  0.
        -12    1    1    2    0    0  0.83402669030E+00  0.40346004787E+02 -0.15972716467E+02  0.43400730110E+02  0.00000000000E+00 0.  1.
         11    1    3    3    0    0  0.36653673400E+01 -0.12119330428E+02 -0.59444308668E+00  0.12675427039E+02  0.51100000000E-03 0. -1.
        -11    1    3    3    0    0  0.28361728990E+01 -0.16125708834E+02  0.11790351284E+02  0.20176589052E+02  0.51100000000E-03 0.  1.
         12    1    3    3    0    0 -0.73355669293E+01 -0.12100965524E+02  0.47768082695E+01  0.14935253799E+02  0.00000000000E+00 0. -1.
</event>
<event>
 7    1  0.4519225E-009  0.4778727E+02  0.7816164E-02  0.1312668E+00
        -11   -1    0    0    0    0  0.00000000000E+00  0.00000000000E+00  0.45593999997E+02  0.45594000000E+02  0.51100000000E-03 0.  1.
         11   -1    0    0    0    0 -0.00000000000E+00 -0.00000000000E+00 -0.45593999997E+02  0.45594000000E+02  0.51100000000E-03 0. -1.
    9900012    2    1    2    0    0 -0.33404289654E+02  0.27292879212E+02 -0.47828486439E+01  0.47787268853E+02  0.19999990007E+02 0.  0.
        -12    1    1    2    0    0  0.33404289654E+02 -0.27292879212E+02  0.47828486439E+01  0.43400731147E+02  0.00000000000E+00 0.  1.
         11    1    3    3    0    0 -0.41217378452E+01  0.60104369112E+01 -0.69233195458E+01  0.10052185261E+02  0.51100000000E-03 0.  1.
        -11    1    3    3    0    0 -0.41798716679E+01  0.40881511855E+01 -0.34648833008E+01  0.67963022170E+01  0.51100000000E-03 0. -1.
        -12    1    3    3    0    0 -0.25102680141E+02  0.17194291115E+02  0.56053542027E+01  0.30938781375E+02  0.00000000000E+00 0.  1.
</event>
<event>
 7    1  0.4519225E-009  0.4778727E+02  0.7816164E-02  0.1312668E+00
        -11   -1    0    0    0    0  0.00000000000E+00  0.00000000000E+00  0.45593999997E+02  0.45594000000E+02  0.51100000000E-03 0. -1.
         11   -1    0    0    0    0 -0.00000000000E+00 -0.00000000000E+00 -0.45593999997E+02  0.45594000000E+02  0.51100000000E-03 0.  1.
    9900012    2    1    2    0    0  0.12986714302E+02  0.40294577334E+00  0.41410221896E+02  0.47787267390E+02  0.19999983336E+02 0.  0.
        -12    1    1    2    0    0 -0.12986714302E+02 -0.40294577334E+00 -0.41410221896E+02  0.43400732610E+02  0.00000000000E+00 0.  1.
         11    1    3    3    0    0  0.33558520797E+01  0.37533402879E+01  0.19686498157E+02  0.20320125896E+02  0.51100000000E-03 0. -1.
        -11    1    3    3    0    0 -0.17932414496E+01 -0.15620530598E+01  0.12363766818E+02  0.12590411226E+02  0.51100000000E-03 0.  1.
         12    1    3    3    0    0  0.11424103672E+02 -0.17883414548E+01  0.93599569211E+01  0.14876730267E+02  0.00000000000E+00 0. -1.
</event>
<event>
 7    1  0.4519225E-009  0.4778724E+02  0.7816164E-02  0.1312668E+00
        -11   -1    0    0    0    0  0.00000000000E+00  0.00000000000E+00  0.45593999997E+02  0.45594000000E+02  0.51100000000E-03 0. -1.
         11   -1    0    0    0    0 -0.00000000000E+00 -0.00000000000E+00 -0.45593999997E+02  0.45594000000E+02  0.51100000000E-03 0.  1.
    9900012    2    1    2    0    0  0.34264309377E+02  0.78757791597E+00  0.26626360670E+02  0.47787236659E+02  0.19999843222E+02 0.  0.
        -12    1    1    2    0    0 -0.34264309377E+02 -0.78757791597E+00 -0.26626360670E+02  0.43400763341E+02  0.00000000000E+00 0.  1.
         11    1    3    3    0    0  0.27428249105E+02 -0.34351341111E+01  0.12752265888E+02  0.30442228579E+02  0.51100000000E-03 0. -1.
        -11    1    3    3    0    0  0.16767319730E+01 -0.18127455916E+01  0.32541467945E+01  0.40849661333E+01  0.51100000000E-03 0.  1.
         12    1    3    3    0    0  0.51593282990E+01  0.60354576187E+01  0.10619947988E+02  0.13260041947E+02  0.00000000000E+00 0. -1.
</event>
<event>
 7    1  0.4519225E-009  0.4778728E+02  0.7816164E-02  0.1312668E+00
        -11   -1    0    0    0    0  0.00000000000E+00  0.00000000000E+00  0.45593999997E+02  0.45594000000E+02  0.51100000000E-03 0.  1.
         11   -1    0    0    0    0 -0.00000000000E+00 -0.00000000000E+00 -0.45593999997E+02  0.45594000000E+02  0.51100000000E-03 0. -1.
    9900012    2    1    2    0    0  0.67105725243E+01  0.31465507546E+02 -0.29129245278E+02  0.47787275591E+02  0.20000020732E+02 0.  0.
        -12    1    1    2    0    0 -0.67105725243E+01 -0.31465507546E+02  0.29129245278E+02  0.43400724409E+02  0.00000000000E+00 0.  1.
         11    1    3    3    0    0  0.10394253213E+01  0.10312632686E+02 -0.11844597745E+02  0.15739291404E+02  0.51100000000E-03 0. -1.
        -11    1    3    3    0    0 -0.28463112257E+01 -0.10883264395E+01 -0.30002255825E+01  0.42763647926E+01  0.51100000000E-03 0.  1.
         12    1    3    3    0    0  0.85174584286E+01  0.22241201299E+02 -0.14284421951E+02  0.27771619394E+02  0.00000000000E+00 0. -1.
</event>
<event>
 7    1  0.4519225E-009  0.4778727E+02  0.7816164E-02  0.1312668E+00
        -11   -1    0    0    0    0  0.00000000000E+00  0.00000000000E+00  0.45593999997E+02  0.45594000000E+02  0.51100000000E-03 0.  1.
         11   -1    0    0    0    0 -0.00000000000E+00 -0.00000000000E+00 -0.45593999997E+02  0.45594000000E+02  0.51100000000E-03 0. -1.
    9900012    2    1    2    0    0  0.27207809010E+02 -0.87007697487E+01 -0.32674990920E+02  0.47787270778E+02  0.19999998787E+02 0.  0.
        -12    1    1    2    0    0 -0.27207809010E+02  0.87007697487E+01  0.32674990920E+02  0.43400729222E+02  0.00000000000E+00 0.  1.
         11    1    3    3    0    0  0.11924420919E+01 -0.61429417185E+01 -0.38783214626E+01  0.73619989628E+01  0.51100000000E-03 0. -1.
        -11    1    3    3    0    0  0.75455291878E+00  0.14824291939E+01  0.29098482335E+00  0.16886736957E+01  0.51100000000E-03 0.  1.
         12    1    3    3    0    0  0.25260813999E+02 -0.40402572241E+01 -0.29087654281E+02  0.38736598120E+02  0.00000000000E+00 0. -1.
</event>
<event>
 7    1  0.4519225E-009  0.4778727E+02  0.7816164E-02  0.1312668E+00
        -11   -1    0    0    0    0  0.00000000000E+00  0.00000000000E+00  0.45593999997E+02  0.45594000000E+02  0.51100000000E-03 0. -1.
         11   -1    0    0    0    0 -0.00000000000E+00 -0.00000000000E+00 -0.45593999997E+02  0.45594000000E+02  0.51100000000E-03 0.  1.
    9900012    2    1    2    0    0 -0.12496682725E+02  0.32597265940E+02  0.25785159492E+02  0.47787271021E+02  0.19999999892E+02 0.  0.
        -12    1    1    2    0    0  0.12496682725E+02 -0.32597265940E+02 -0.25785159492E+02  0.43400728979E+02  0.00000000000E+00 0.  1.
         11    1    3    3    0    0 -0.11638004584E+02  0.33772469024E+02  0.20156057738E+02  0.41015722332E+02  0.51100000000E-03 0. -1.
        -11    1    3    3    0    0  0.29171953103E+00 -0.79346621886E-01 -0.41987844274E+00  0.51739186212E+00  0.51100000000E-03 0.  1.
         12    1    3    3    0    0 -0.11503976726E+01 -0.10958564616E+01  0.60489801967E+01  0.62541568264E+01  0.00000000000E+00 0. -1.
</event>
<event>
 7    1  0.4519225E-009  0.4778723E+02  0.7816164E-02  0.1312668E+00
        -11   -1    0    0    0    0  0.00000000000E+00  0.00000000000E+00  0.45593999997E+02  0.45594000000E+02  0.51100000000E-03 0. -1.
         11   -1    0    0    0    0 -0.00000000000E+00 -0.00000000000E+00 -0.45593999997E+02  0.45594000000E+02  0.51100000000E-03 0.  1.
    9900012    2    1    2    0    0 -0.41044222939E+01 -0.25438998045E+02  0.34923312402E+02  0.47787232115E+02  0.19999822505E+02 0.  0.
        -12    1    1    2    0    0  0.41044222939E+01  0.25438998045E+02 -0.34923312402E+02  0.43400767885E+02  0.00000000000E+00 0.  1.
         11    1    3    3    0    0  0.17199618598E+01 -0.56997305812E+00  0.87121132305E+00  0.20105092680E+01  0.51100000000E-03 0. -1.
        -11    1    3    3    0    0 -0.91906348072E+01 -0.17940042820E+02  0.14700757589E+02  0.24948450422E+02  0.51100000000E-03 0.  1.
         12    1    3    3    0    0  0.33662506535E+01 -0.69289821668E+01  0.19351343490E+02  0.20828272425E+02  0.00000000000E+00 0. -1.
</event>
<event>
 7    1  0.4519225E-009  0.4778727E+02  0.7816164E-02  0.1312668E+00
        -11   -1    0    0    0    0  0.00000000000E+00  0.00000000000E+00  0.45593999997E+02  0.45594000000E+02  0.51100000000E-03 0.  1.
         11   -1    0    0    0    0 -0.00000000000E+00 -0.00000000000E+00 -0.45593999997E+02  0.45594000000E+02  0.51100000000E-03 0. -1.
    9900012    2    1    2    0    0  0.68208875013E+00  0.32732107162E+02 -0.28491532303E+02  0.47787268471E+02  0.19999988265E+02 0.  0.
        -12    1    1    2    0    0 -0.68208875013E+00 -0.32732107162E+02  0.28491532303E+02  0.43400731529E+02  0.00000000000E+00 0.  1.
         11    1    3    3    0    0 -0.61129206501E+01  0.22444795636E+02 -0.17552037638E+02  0.29141219526E+02  0.51100000000E-03 0. -1.
        -11    1    3    3    0    0  0.21051714649E+01  0.17411436662E+01 -0.80159402811E+01  0.84686850818E+01  0.51100000000E-03 0.  1.
        -12    1    3    3    0    0  0.46898379353E+01  0.85461678601E+01 -0.29235543840E+01  0.10177363862E+02  0.00000000000E+00 0.  1.
</event>
<event>
 7    1  0.4519225E-009  0.4778727E+02  0.7816164E-02  0.1312668E+00
        -11   -1    0    0    0    0  0.00000000000E+00  0.00000000000E+00  0.45593999997E+02  0.45594000000E+02  0.51100000000E-03 0.  1.
         11   -1    0    0    0    0 -0.00000000000E+00 -0.00000000000E+00 -0.45593999997E+02  0.45594000000E+02  0.51100000000E-03 0. -1.
    9900012    2    1    2    0    0 -0.11967914725E+02  0.32873368382E+02 -0.25685283140E+02  0.47787273029E+02  0.20000009049E+02 0.  0.
        -12    1    1    2    0    0  0.11967914725E+02 -0.32873368382E+02  0.25685283140E+02  0.43400726971E+02  0.00000000000E+00 0.  1.
         11    1    3    3    0    0 -0.57383691572E+01  0.84881868461E+01 -0.89938306717E+01  0.13633311664E+02  0.51100000000E-03 0. -1.
        -11    1    3    3    0    0 -0.43362916626E+00 -0.18980555529E+01  0.74519138165E+00  0.20846965228E+01  0.51100000000E-03 0.  1.
         12    1    3    3    0    0 -0.57959164017E+01  0.26283237089E+02 -0.17436643850E+02  0.32069264842E+02  0.00000000000E+00 0. -1.
</event>
<event>
 7    1  0.4519225E-009  0.4778727E+02  0.7816164E-02  0.1312668E+00
        -11   -1    0    0    0    0  0.00000000000E+00  0.00000000000E+00  0.45593999997E+02  0.45594000000E+02  0.51100000000E-03 0.  1.
         11   -1    0    0    0    0 -0.00000000000E+00 -0.00000000000E+00 -0.45593999997E+02  0.45594000000E+02  0.51100000000E-03 0. -1.
    9900012    2    1    2    0    0  0.28524311018E+02  0.32359552715E+02 -0.47797708624E+01  0.47787272121E+02  0.20000004908E+02 0.  0.
        -12    1    1    2    0    0 -0.28524311018E+02 -0.32359552715E+02  0.47797708624E+01  0.43400727879E+02  0.00000000000E+00 0.  1.
         11    1    3    3    0    0  0.16199479481E+02  0.17110582351E+02  0.50742183448E+01  0.24102756189E+02  0.51100000000E-03 0. -1.
        -11    1    3    3    0    0  0.81911336780E+00 -0.46279324599E+00  0.10138745921E+01  0.13831363807E+01  0.51100000000E-03 0.  1.
        -12    1    3    3    0    0  0.11505718169E+02  0.15711763610E+02 -0.10867863799E+02  0.22301379551E+02  0.00000000000E+00 0.  1.
</event>
<event>
 7    1  0.4519225E-009  0.4778732E+02  0.7816164E-02  0.1312668E+00
        -11   -1    0    0    0    0  0.00000000000E+00  0.00000000000E+00  0.45593999997E+02  0.45594000000E+02  0.51100000000E-03 0. -1.
         11   -1    0    0    0    0 -0.00000000000E+00 -0.00000000000E+00 -0.45593999997E+02  0.45594000000E+02  0.51100000000E-03 0.  1.
    9900012    2    1    2    0    0  0.83940737213E+01  0.33574455591E+02 -0.26189967595E+02  0.47787320921E+02  0.20000227406E+02 0.  0.
        -12    1    1    2    0    0 -0.83940737213E+01 -0.33574455591E+02  0.26189967595E+02  0.43400679079E+02  0.00000000000E+00 0.  1.
         11    1    3    3    0    0 -0.95711271047E+00  0.14044682120E+02 -0.12628524596E+02  0.18911604753E+02  0.51100000000E-03 0. -1.
        -11    1    3    3    0    0 -0.34634100585E+01  0.53523222406E+01 -0.36935381469E+01  0.73678210419E+01  0.51100000000E-03 0.  1.
        -12    1    3    3    0    0  0.12814596490E+02  0.14177451230E+02 -0.98679048521E+01  0.21507895126E+02  0.00000000000E+00 0.  1.
</event>
<event>
 7    1  0.4519225E-009  0.4778728E+02  0.7816164E-02  0.1312668E+00
        -11   -1    0    0    0    0  0.00000000000E+00  0.00000000000E+00  0.45593999997E+02  0.45594000000E+02  0.51100000000E-03 0.  1.
         11   -1    0    0    0    0 -0.00000000000E+00 -0.00000000000E+00 -0.45593999997E+02  0.45594000000E+02  0.51100000000E-03 0. -1.
    9900012    2    1    2    0    0  0.25892265278E+02 -0.26447133484E+02 -0.22666325736E+02  0.47787278887E+02  0.20000035758E+02 0.  0.
        -12    1    1    2    0    0 -0.25892265278E+02  0.26447133484E+02  0.22666325736E+02  0.43400721113E+02  0.00000000000E+00 0.  1.
         11    1    3    3    0    0  0.50397287730E+01 -0.36687639678E+01 -0.45746774640E+01  0.77321645946E+01  0.51100000000E-03 0. -1.
        -11    1    3    3    0    0  0.10599799566E+02  0.78720559000E-01 -0.41321148216E+01  0.11377008434E+02  0.51100000000E-03 0.  1.
        -12    1    3    3    0    0  0.10252736939E+02 -0.22857090075E+02 -0.13959533451E+02  0.28678105858E+02  0.00000000000E+00 0.  1.
</event>
<event>
 7    1  0.4519225E-009  0.4778727E+02  0.7816164E-02  0.1312668E+00
        -11   -1    0    0    0    0  0.00000000000E+00  0.00000000000E+00  0.45593999997E+02  0.45594000000E+02  0.51100000000E-03 0.  1.
         11   -1    0    0    0    0 -0.00000000000E+00 -0.00000000000E+00 -0.45593999997E+02  0.45594000000E+02  0.51100000000E-03 0. -1.
    9900012    2    1    2    0    0  0.43190948745E+02 -0.41630237034E+01  0.91363069305E+00  0.47787267968E+02  0.19999985975E+02 0.  0.
        -12    1    1    2    0    0 -0.43190948745E+02  0.41630237034E+01 -0.91363069305E+00  0.43400732032E+02  0.00000000000E+00 0.  1.
         11    1    3    3    0    0  0.11835381233E+02  0.30853766092E+01 -0.31828301163E+01  0.12638283331E+02  0.51100000000E-03 0. -1.
        -11    1    3    3    0    0  0.27681702558E+02 -0.32950272468E+01 -0.76176209217E+00  0.27887526653E+02  0.51100000000E-03 0.  1.
        -12    1    3    3    0    0  0.36738649537E+01 -0.39533730657E+01  0.48582229015E+01  0.72614579841E+01  0.00000000000E+00 0.  1.
</event>
<event>
 7    1  0.4519225E-009  0.4778727E+02  0.7816164E-02  0.1312668E+00
        -11   -1    0    0    0    0  0.00000000000E+00  0.00000000000E+00  0.45593999997E+02  0.45594000000E+02  0.51100000000E-03 0.  1.
         11   -1    0    0    0    0 -0.00000000000E+00 -0.00000000000E+00 -0.45593999997E+02  0.45594000000E+02  0.51100000000E-03 0. -1.
    9900012    2    1    2    0    0 -0.41043140318E+02 -0.11506164582E+02 -0.81665189764E+01  0.47787271634E+02  0.20000002687E+02 0.  0.
        -12    1    1    2    0    0  0.41043140318E+02  0.11506164582E+02  0.81665189764E+01  0.43400728366E+02  0.00000000000E+00 0.  1.
         11    1    3    3    0    0 -0.10455895542E+02  0.30861774792E+01 -0.28949254562E+01  0.11279664741E+02  0.51100000000E-03 0. -1.
        -11    1    3    3    0    0 -0.50170130370E+01  0.21342413558E+01  0.24894225822E+00  0.54577814621E+01  0.51100000000E-03 0.  1.
         12    1    3    3    0    0 -0.25570231739E+02 -0.16726583417E+02 -0.55205357784E+01  0.31049825430E+02  0.00000000000E+00 0. -1.
</event>
<event>
 7    1  0.4519225E-009  0.4778727E+02  0.7816164E-02  0.1312668E+00
        -11   -1    0    0    0    0  0.00000000000E+00  0.00000000000E+00  0.45593999997E+02  0.45594000000E+02  0.51100000000E-03 0.  1.
         11   -1    0    0    0    0 -0.00000000000E+00 -0.00000000000E+00 -0.45593999997E+02  0.45594000000E+02  0.51100000000E-03 0. -1.
    9900012    2    1    2    0    0 -0.17946412419E+02 -0.77051083711E+01 -0.38757977932E+02  0.47787271122E+02  0.20000000355E+02 0.  0.
        -12    1    1    2    0    0  0.17946412419E+02  0.77051083711E+01  0.38757977932E+02  0.43400728878E+02  0.00000000000E+00 0.  1.
         11    1    3    3    0    0 -0.35977605839E+01 -0.92841124909E+01 -0.11295663257E+02  0.15057577316E+02  0.51100000000E-03 0. -1.
        -11    1    3    3    0    0 -0.67733715941E+01  0.55960533208E+00 -0.36371960868E+01  0.77084963848E+01  0.51100000000E-03 0.  1.
         12    1    3    3    0    0 -0.75752802406E+01  0.10193987878E+01 -0.23825118589E+02  0.25021197421E+02  0.00000000000E+00 0. -1.
</event>
<event>
 7    1  0.4519225E-009  0.4778726E+02  0.7816164E-02  0.1312668E+00
        -11   -1    0    0    0    0  0.00000000000E+00  0.00000000000E+00  0.45593999997E+02  0.45594000000E+02  0.51100000000E-03 0.  1.
         11   -1    0    0    0    0 -0.00000000000E+00 -0.00000000000E+00 -0.45593999997E+02  0.45594000000E+02  0.51100000000E-03 0. -1.
    9900012    2    1    2    0    0  0.30577554057E+02  0.19367222110E+02  0.23948862009E+02  0.47787261575E+02  0.19999956823E+02 0.  0.
        -12    1    1    2    0    0 -0.30577554057E+02 -0.19367222110E+02 -0.23948862009E+02  0.43400738425E+02  0.00000000000E+00 0.  1.
         11    1    3    3    0    0  0.14975333709E+01 -0.19564359502E-01  0.89332208031E+01  0.90578928642E+01  0.51100000000E-03 0. -1.
        -11    1    3    3    0    0  0.42669042635E+01  0.58731816797E+01  0.15180924606E+01  0.74165585022E+01  0.51100000000E-03 0.  1.
         12    1    3    3    0    0  0.24813116422E+02  0.13513604790E+02  0.13497548745E+02  0.31312810208E+02  0.00000000000E+00 0. -1.
</event>
<event>
 7    1  0.4519225E-009  0.4778726E+02  0.7816164E-02  0.1312668E+00
        -11   -1    0    0    0    0  0.00000000000E+00  0.00000000000E+00  0.45593999997E+02  0.45594000000E+02  0.51100000000E-03 0.  1.
         11   -1    0    0    0    0 -0.00000000000E+00 -0.00000000000E+00 -0.45593999997E+02  0.45594000000E+02  0.51100000000E-03 0. -1.
    9900012    2    1    2    0    0 -0.30059281320E+01  0.40880434872E+02 -0.14261078241E+02  0.47787263695E+02  0.19999966489E+02 0.  0.
        -12    1    1    2    0    0  0.30059281320E+01 -0.40880434872E+02  0.14261078241E+02  0.43400736305E+02  0.00000000000E+00 0.  1.
         11    1    3    3    0    0 -0.20084090509E+01  0.27286601163E+02 -0.57603958125E+01  0.27960230151E+02  0.51100000000E-03 0.  1.
        -11    1    3    3    0    0  0.18665807037E+01  0.14636410758E+02 -0.61834166051E+01  0.15998227544E+02  0.51100000000E-03 0. -1.
        -12    1    3    3    0    0 -0.28640997848E+01 -0.10425770486E+01 -0.23172658239E+01  0.38288059990E+01  0.00000000000E+00 0.  1.
</event>
<event>
 7    1  0.4519225E-009  0.4778727E+02  0.7816164E-02  0.1312668E+00
        -11   -1    0    0    0    0  0.00000000000E+00  0.00000000000E+00  0.45593999997E+02  0.45594000000E+02  0.51100000000E-03 0.  1.
         11   -1    0    0    0    0 -0.00000000000E+00 -0.00000000000E+00 -0.45593999997E+02  0.45594000000E+02  0.51100000000E-03 0. -1.
    9900012    2    1    2    0    0  0.17406104982E+02  0.17092333543E+01 -0.39720639803E+02  0.47787271945E+02  0.20000004107E+02 0.  0.
        -12    1    1    2    0    0 -0.17406104982E+02 -0.17092333543E+01  0.39720639803E+02  0.43400728055E+02  0.00000000000E+00 0.  1.
         11    1    3    3    0    0 -0.10681366671E+00  0.23567315083E+01 -0.13919727362E+02  0.14118229444E+02  0.51100000000E-03 0. -1.
        -11    1    3    3    0    0  0.99390068992E+00  0.14200786237E+01 -0.11770318588E+02  0.11897262786E+02  0.51100000000E-03 0.  1.
        -12    1    3    3    0    0  0.16519017959E+02 -0.20675767777E+01 -0.14030593853E+02  0.21771779715E+02  0.00000000000E+00 0.  1.
</event>
<event>
 7    1  0.4519225E-009  0.4778727E+02  0.7816164E-02  0.1312668E+00
        -11   -1    0    0    0    0  0.00000000000E+00  0.00000000000E+00  0.45593999997E+02  0.45594000000E+02  0.51100000000E-03 0.  1.
         11   -1    0    0    0    0 -0.00000000000E+00 -0.00000000000E+00 -0.45593999997E+02  0.45594000000E+02  0.51100000000E-03 0. -1.
    9900012    2    1    2    0    0  0.16696131449E+01 -0.63971216742E+01 -0.42894203815E+02  0.47787268501E+02  0.19999988403E+02 0.  0.
        -12    1    1    2    0    0 -0.16696131449E+01  0.63971216742E+01  0.42894203815E+02  0.43400731499E+02  0.00000000000E+00 0.  1.
         11    1    3    3    0    0 -0.22395869965E+01  0.24042541458E+01 -0.19859974155E+02  0.20129946886E+02  0.51100000000E-03 0. -1.
        -11    1    3    3    0    0  0.18113695234E-01  0.21243414294E+01 -0.31320044025E+00  0.21473819855E+01  0.51100000000E-03 0.  1.
         12    1    3    3    0    0  0.38910864461E+01 -0.10925717249E+02 -0.22721029219E+02  0.25509939630E+02  0.00000000000E+00 0. -1.
</event>
<event>
 7    1  0.4519225E-009  0.4778728E+02  0.7816164E-02  0.1312668E+00
        -11   -1    0    0    0    0  0.00000000000E+00  0.00000000000E+00  0.45593999997E+02  0.45594000000E+02  0.51100000000E-03 0.  1.
         11   -1    0    0    0    0 -0.00000000000E+00 -0.00000000000E+00 -0.45593999997E+02  0.45594000000E+02  0.51100000000E-03 0. -1.
    9900012    2    1    2    0    0  0.35073653821E+02  0.23897381860E+02  0.90761528384E+01  0.47787278779E+02  0.20000035266E+02 0.  0.
        -12    1    1    2    0    0 -0.35073653821E+02 -0.23897381860E+02 -0.90761528384E+01  0.43400721221E+02  0.00000000000E+00 0.  1.
         11    1    3    3    0    0  0.75578339470E+01  0.10578581231E+02  0.16343435648E+01  0.13103370329E+02  0.51100000000E-03 0. -1.
        -11    1    3    3    0    0  0.97294358582E+01  0.12493501373E+02  0.14679297023E+01  0.15902965653E+02  0.51100000000E-03 0.  1.
         12    1    3    3    0    0  0.17786384016E+02  0.82529925573E+00  0.59738795713E+01  0.18780942798E+02  0.00000000000E+00 0. -1.
</event>
<event>
 7    1  0.4519225E-009  0.4778726E+02  0.7816164E-02  0.1312668E+00
        -11   -1    0    0    0    0  0.00000000000E+00  0.00000000000E+00  0.45593999997E+02  0.45594000000E+02  0.51100000000E-03 0.  1.
         11   -1    0    0    0    0 -0.00000000000E+00 -0.00000000000E+00 -0.45593999997E+02  0.45594000000E+02  0.51100000000E-03 0. -1.
    9900012    2    1    2    0    0 -0.13944110918E+02 -0.39387613334E+02 -0.11738904547E+02  0.47787260451E+02  0.19999951702E+02 0.  0.
        -12    1    1    2    0    0  0.13944110918E+02  0.39387613334E+02  0.11738904547E+02  0.43400739549E+02  0.00000000000E+00 0.  1.
         11    1    3    3    0    0 -0.53938177280E+01 -0.18742396716E+02 -0.46949778277E+01  0.20060247292E+02  0.51100000000E-03 0. -1.
        -11    1    3    3    0    0 -0.97129276001E+01 -0.21274185012E+02 -0.92547200012E+01  0.25151177965E+02  0.51100000000E-03 0.  1.
        -12    1    3    3    0    0  0.11626344098E+01  0.62896839422E+00  0.22107932823E+01  0.25758351944E+01  0.00000000000E+00 0.  1.
</event>
<event>
 7    1  0.4519225E-009  0.4778727E+02  0.7816164E-02  0.1312668E+00
        -11   -1    0    0    0    0  0.00000000000E+00  0.00000000000E+00  0.45593999997E+02  0.45594000000E+02  0.51100000000E-03 0. -1.
         11   -1    0    0    0    0 -0.00000000000E+00 -0.00000000000E+00 -0.45593999997E+02  0.45594000000E+02  0.51100000000E-03 0.  1.
    9900012    2    1    2    0    0 -0.23531761710E+01 -0.22364833437E+02  0.37120074234E+02  0.47787272772E+02  0.20000007878E+02 0.  0.
        -12    1    1    2    0    0  0.23531761710E+01  0.22364833437E+02 -0.37120074234E+02  0.43400727228E+02  0.00000000000E+00 0.  1.
         11    1    3    3    0    0 -0.43383522385E+01 -0.17372471107E+01  0.31036561607E+01  0.56099919335E+01  0.51100000000E-03 0. -1.
        -11    1    3    3    0    0  0.44979685219E+01 -0.10062433021E+02  0.69925751406E+01  0.13052983815E+02  0.51100000000E-03 0.  1.
         12    1    3    3    0    0 -0.25127924543E+01 -0.10565153306E+02  0.27023842932E+02  0.29124297024E+02  0.00000000000E+00 0. -1.
</event>
<event>
 7    1  0.4519225E-009  0.4778727E+02  0.7816164E-02  0.1312668E+00
        -11   -1    0    0    0    0  0.00000000000E+00  0.00000000000E+00  0.45593999997E+02  0.45594000000E+02  0.51100000000E-03 0.  1.
         11   -1    0    0    0    0 -0.00000000000E+00 -0.00000000000E+00 -0.45593999997E+02  0.45594000000E+02  0.51100000000E-03 0. -1.
    9900012    2    1    2    0    0 -0.24617813733E+02  0.10731731629E+00 -0.35743182249E+02  0.47787270199E+02  0.19999996145E+02 0.  0.
        -12    1    1    2    0    0  0.24617813733E+02 -0.10731731629E+00  0.35743182249E+02  0.43400729801E+02  0.00000000000E+00 0.  1.
         11    1    3    3    0    0 -0.74961708599E+01  0.28050075010E+01 -0.25384725445E+02  0.26616628840E+02  0.51100000000E-03 0. -1.
        -11    1    3    3    0    0 -0.78178394368E+01  0.16500854860E+01 -0.61032536222E+01  0.10054407024E+02  0.51100000000E-03 0.  1.
         12    1    3    3    0    0 -0.93038034358E+01 -0.43477756708E+01 -0.42552031818E+01  0.11116234334E+02  0.00000000000E+00 0. -1.
</event>
<event>
 7    1  0.4519225E-009  0.4778727E+02  0.7816164E-02  0.1312668E+00
        -11   -1    0    0    0    0  0.00000000000E+00  0.00000000000E+00  0.45593999997E+02  0.45594000000E+02  0.51100000000E-03 0.  1.
         11   -1    0    0    0    0 -0.00000000000E+00 -0.00000000000E+00 -0.45593999997E+02  0.45594000000E+02  0.51100000000E-03 0. -1.
    9900012    2    1    2    0    0 -0.17686564854E+02 -0.92474135022E+01 -0.38539513546E+02  0.47787270315E+02  0.19999996673E+02 0.  0.
        -12    1    1    2    0    0  0.17686564854E+02  0.92474135022E+01  0.38539513546E+02  0.43400729685E+02  0.00000000000E+00 0.  1.
         11    1    3    3    0    0 -0.80206840191E+01 -0.44281683662E+01 -0.92396638293E+01  0.13011972762E+02  0.51100000000E-03 0. -1.
        -11    1    3    3    0    0 -0.11195860568E+02 -0.69264152651E+01 -0.13854730162E+02  0.19112196902E+02  0.51100000000E-03 0.  1.
        -12    1    3    3    0    0  0.15299797330E+01  0.21071701291E+01 -0.15445119555E+02  0.15663100651E+02  0.00000000000E+00 0.  1.
</event>
<event>
 7    1  0.4519225E-009  0.4778728E+02  0.7816164E-02  0.1312668E+00
        -11   -1    0    0    0    0  0.00000000000E+00  0.00000000000E+00  0.45593999997E+02  0.45594000000E+02  0.51100000000E-03 0. -1.
         11   -1    0    0    0    0 -0.00000000000E+00 -0.00000000000E+00 -0.45593999997E+02  0.45594000000E+02  0.51100000000E-03 0.  1.
    9900012    2    1    2    0    0  0.24976976311E+02  0.28780442561E+02  0.20771607892E+02  0.47787275190E+02  0.20000018901E+02 0.  0.
        -12    1    1    2    0    0 -0.24976976311E+02 -0.28780442561E+02 -0.20771607892E+02  0.43400724810E+02  0.00000000000E+00 0.  1.
         11    1    3    3    0    0  0.44015259686E+01  0.12073630762E+02  0.45105950627E+01  0.13619524908E+02  0.51100000000E-03 0. -1.
        -11    1    3    3    0    0 -0.20873668237E+01  0.18350908852E+01  0.26313768702E+01  0.38273755117E+01  0.51100000000E-03 0.  1.
         12    1    3    3    0    0  0.22662817166E+02  0.14871720913E+02  0.13629635960E+02  0.30340374770E+02  0.00000000000E+00 0. -1.
</event>
<event>
 7    1  0.4519225E-009  0.4778728E+02  0.7816164E-02  0.1312668E+00
        -11   -1    0    0    0    0  0.00000000000E+00  0.00000000000E+00  0.45593999997E+02  0.45594000000E+02  0.51100000000E-03 0.  1.
         11   -1    0    0    0    0 -0.00000000000E+00 -0.00000000000E+00 -0.45593999997E+02  0.45594000000E+02  0.51100000000E-03 0. -1.
    9900012    2    1    2    0    0 -0.24840582452E+01  0.13073854423E+01 -0.43309846039E+02  0.47787279200E+02  0.20000037184E+02 0.  0.
        -12    1    1    2    0    0  0.24840582452E+01 -0.13073854423E+01  0.43309846039E+02  0.43400720800E+02  0.00000000000E+00 0.  1.
         11    1    3    3    0    0  0.48124446377E+01  0.45878523668E+01 -0.88339416642E+01  0.11056515650E+02  0.51100000000E-03 0. -1.
        -11    1    3    3    0    0  0.15330191789E+01 -0.34691949014E+01 -0.11857321070E+02  0.12449157573E+02  0.51100000000E-03 0.  1.
        -12    1    3    3    0    0 -0.88295220618E+01  0.18872797689E+00 -0.22618583305E+02  0.24281605976E+02  0.00000000000E+00 0.  1.
</event>
<event>
 7    1  0.4519225E-009  0.4778726E+02  0.7816164E-02  0.1312668E+00
        -11   -1    0    0    0    0  0.00000000000E+00  0.00000000000E+00  0.45593999997E+02  0.45594000000E+02  0.51100000000E-03 0.  1.
         11   -1    0    0    0    0 -0.00000000000E+00 -0.00000000000E+00 -0.45593999997E+02  0.45594000000E+02  0.51100000000E-03 0. -1.
    9900012    2    1    2    0    0 -0.22854399172E+02  0.11762201982E+02 -0.34970714655E+02  0.47787264517E+02  0.19999970240E+02 0.  0.
        -12    1    1    2    0    0  0.22854399172E+02 -0.11762201982E+02  0.34970714655E+02  0.43400735483E+02  0.00000000000E+00 0.  1.
         11    1    3    3    0    0 -0.19106375288E+02  0.63742295097E+01 -0.26639448210E+02  0.33396774989E+02  0.51100000000E-03 0.  1.
        -11    1    3    3    0    0 -0.31214302195E+01 -0.56288220967E+00 -0.77555993555E+01  0.83791100137E+01  0.51100000000E-03 0. -1.
        -12    1    3    3    0    0 -0.62659366442E+00  0.59508546824E+01 -0.57566708934E+00  0.60113795147E+01  0.00000000000E+00 0.  1.
</event>
<event>
 7    1  0.4519225E-009  0.4778727E+02  0.7816164E-02  0.1312668E+00
        -11   -1    0    0    0    0  0.00000000000E+00  0.00000000000E+00  0.45593999997E+02  0.45594000000E+02  0.51100000000E-03 0. -1.
         11   -1    0    0    0    0 -0.00000000000E+00 -0.00000000000E+00 -0.45593999997E+02  0.45594000000E+02  0.51100000000E-03 0.  1.
    9900012    2    1    2    0    0  0.36469393538E+02  0.10668790895E+01  0.23504641751E+02  0.47787273280E+02  0.20000010191E+02 0.  0.
        -12    1    1    2    0    0 -0.36469393538E+02 -0.10668790895E+01 -0.23504641751E+02  0.43400726720E+02  0.00000000000E+00 0.  1.
         11    1    3    3    0    0  0.93781864520E+01  0.42504549574E+01  0.28038396340E+00  0.10300260380E+02  0.51100000000E-03 0. -1.
        -11    1    3    3    0    0  0.49120741168E+01 -0.21347982486E+01 -0.58911395678E-03  0.53559160094E+01  0.51100000000E-03 0.  1.
         12    1    3    3    0    0  0.22179132969E+02 -0.10487776193E+01  0.23224846902E+02  0.32131096890E+02  0.00000000000E+00 0. -1.
</event>
<event>
 7    1  0.4519225E-009  0.4778727E+02  0.7816164E-02  0.1312668E+00
        -11   -1    0    0    0    0  0.00000000000E+00  0.00000000000E+00  0.45593999997E+02  0.45594000000E+02  0.51100000000E-03 0.  1.
         11   -1    0    0    0    0 -0.00000000000E+00 -0.00000000000E+00 -0.45593999997E+02  0.45594000000E+02  0.51100000000E-03 0. -1.
    9900012    2    1    2    0    0  0.13952270737E+01 -0.42868448711E+02 -0.66311991114E+01  0.47787270108E+02  0.19999995732E+02 0.  0.
        -12    1    1    2    0    0 -0.13952270737E+01  0.42868448711E+02  0.66311991114E+01  0.43400729892E+02  0.00000000000E+00 0.  1.
         11    1    3    3    0    0  0.64881512536E+01 -0.29222318559E+02  0.50389513544E+00  0.29938168268E+02  0.51100000000E-03 0. -1.
        -11    1    3    3    0    0 -0.15160392005E+00  0.23961812962E+00  0.98260782017E+00  0.10227018070E+01  0.51100000000E-03 0.  1.
         12    1    3    3    0    0 -0.49413202599E+01 -0.13885748281E+02 -0.81177020670E+01  0.16826400034E+02  0.00000000000E+00 0. -1.
</event>
<event>
 7    1  0.4519225E-009  0.4778727E+02  0.7816164E-02  0.1312668E+00
        -11   -1    0    0    0    0  0.00000000000E+00  0.00000000000E+00  0.45593999997E+02  0.45594000000E+02  0.51100000000E-03 0. -1.
         11   -1    0    0    0    0 -0.00000000000E+00 -0.00000000000E+00 -0.45593999997E+02  0.45594000000E+02  0.51100000000E-03 0.  1.
    9900012    2    1    2    0    0 -0.21562605978E+01 -0.43101898084E+02 -0.46043546403E+01  0.47787272358E+02  0.20000005990E+02 0.  0.
        -12    1    1    2    0    0  0.21562605978E+01  0.43101898084E+02  0.46043546403E+01  0.43400727642E+02  0.00000000000E+00 0.  1.
         11    1    3    3    0    0  0.28515719367E+01 -0.46478276775E+01 -0.14914315117E+01  0.56531524697E+01  0.51100000000E-03 0. -1.
        -11    1    3    3    0    0  0.64890573676E+00 -0.38803201388E+01 -0.57882100287E+01  0.69986669183E+01  0.51100000000E-03 0.  1.
         12    1    3    3    0    0 -0.56567382712E+01 -0.34573750267E+02  0.26752869001E+01  0.35135452970E+02  0.00000000000E+00 0. -1.
</event>
<event>
 7    1  0.4519225E-009  0.4778727E+02  0.7816164E-02  0.1312668E+00
        -11   -1    0    0    0    0  0.00000000000E+00  0.00000000000E+00  0.45593999997E+02  0.45594000000E+02  0.51100000000E-03 0.  1.
         11   -1    0    0    0    0 -0.00000000000E+00 -0.00000000000E+00 -0.45593999997E+02  0.45594000000E+02  0.51100000000E-03 0. -1.
    9900012    2    1    2    0    0  0.13314990604E+01 -0.92930602666E+01 -0.42373212674E+02  0.47787274071E+02  0.20000013798E+02 0.  0.
        -12    1    1    2    0    0 -0.13314990604E+01  0.92930602666E+01  0.42373212674E+02  0.43400725929E+02  0.00000000000E+00 0.  1.
         11    1    3    3    0    0 -0.52328272425E+01 -0.18329109698E+01 -0.12522973347E+02  0.13695506755E+02  0.51100000000E-03 0. -1.
        -11    1    3    3    0    0 -0.17404045228E+01 -0.68195669496E+01 -0.77240827303E+01  0.10449734713E+02  0.51100000000E-03 0.  1.
         12    1    3    3    0    0  0.83047308256E+01 -0.64058234715E+00 -0.22126156597E+02  0.23642032602E+02  0.00000000000E+00 0. -1.
</event>
<event>
 7    1  0.4519225E-009  0.4778727E+02  0.7816164E-02  0.1312668E+00
        -11   -1    0    0    0    0  0.00000000000E+00  0.00000000000E+00  0.45593999997E+02  0.45594000000E+02  0.51100000000E-03 0.  1.
         11   -1    0    0    0    0 -0.00000000000E+00 -0.00000000000E+00 -0.45593999997E+02  0.45594000000E+02  0.51100000000E-03 0. -1.
    9900012    2    1    2    0    0  0.33484309755E+02 -0.12963460428E+02 -0.24379763984E+02  0.47787271919E+02  0.20000003986E+02 0.  0.
        -12    1    1    2    0    0 -0.33484309755E+02  0.12963460428E+02  0.24379763984E+02  0.43400728081E+02  0.00000000000E+00 0.  1.
         11    1    3    3    0    0  0.10357783686E+02  0.39902780058E+01 -0.93210380893E+01  0.14494404189E+02  0.51100000000E-03 0. -1.
        -11    1    3    3    0    0  0.76351669197E+00 -0.11184134601E+01 -0.31237625091E+01  0.34046584089E+01  0.51100000000E-03 0.  1.
        -12    1    3    3    0    0  0.22363009377E+02 -0.15835324974E+02 -0.11934963386E+02  0.29888209321E+02  0.00000000000E+00 0.  1.
</event>
<event>
 7    1  0.4519225E-009  0.4778727E+02  0.7816164E-02  0.1312668E+00
        -11   -1    0    0    0    0  0.00000000000E+00  0.00000000000E+00  0.45593999997E+02  0.45594000000E+02  0.51100000000E-03 0.  1.
         11   -1    0    0    0    0 -0.00000000000E+00 -0.00000000000E+00 -0.45593999997E+02  0.45594000000E+02  0.51100000000E-03 0. -1.
    9900012    2    1    2    0    0 -0.43158228917E+02 -0.45341086305E+01  0.65755052955E+00  0.47787271469E+02  0.20000001938E+02 0.  0.
        -12    1    1    2    0    0  0.43158228917E+02  0.45341086305E+01 -0.65755052955E+00  0.43400728531E+02  0.00000000000E+00 0.  1.
         11    1    3    3    0    0  0.54881292198E+00  0.12923364416E+01 -0.13653451941E+01  0.19584424582E+01  0.51100000000E-03 0. -1.
        -11    1    3    3    0    0 -0.12493722549E+02  0.36746691750E+01 -0.10030475912E+01  0.13061485421E+02  0.51100000000E-03 0.  1.
         12    1    3    3    0    0 -0.31213319289E+02 -0.95011142471E+01  0.30259433149E+01  0.32767343590E+02  0.00000000000E+00 0. -1.
</event>
<event>
 7    1  0.4519225E-009  0.4778727E+02  0.7816164E-02  0.1312668E+00
        -11   -1    0    0    0    0  0.00000000000E+00  0.00000000000E+00  0.45593999997E+02  0.45594000000E+02  0.51100000000E-03 0.  1.
         11   -1    0    0    0    0 -0.00000000000E+00 -0.00000000000E+00 -0.45593999997E+02  0.45594000000E+02  0.51100000000E-03 0. -1.
    9900012    2    1    2    0    0  0.28744076524E+02 -0.85769479080E+01 -0.31366179263E+02  0.47787272216E+02  0.20000005340E+02 0.  0.
        -12    1    1    2    0    0 -0.28744076524E+02  0.85769479080E+01  0.31366179263E+02  0.43400727784E+02  0.00000000000E+00 0.  1.
         11    1    3    3    0    0  0.51179796372E+01 -0.34704430317E+00 -0.36868605228E+01  0.63172063518E+01  0.51100000000E-03 0. -1.
        -11    1    3    3    0    0  0.41688174223E+01 -0.41576223239E+01  0.15806158593E+01  0.60961634529E+01  0.51100000000E-03 0.  1.
         12    1    3    3    0    0  0.19457279464E+02 -0.40722812809E+01 -0.29259934600E+02  0.35373902411E+02  0.00000000000E+00 0. -1.
</event>
<event>
 7    1  0.4519225E-009  0.4778727E+02  0.7816164E-02  0.1312668E+00
        -11   -1    0    0    0    0  0.00000000000E+00  0.00000000000E+00  0.45593999997E+02  0.45594000000E+02  0.51100000000E-03 0. -1.
         11   -1    0    0    0    0 -0.00000000000E+00 -0.00000000000E+00 -0.45593999997E+02  0.45594000000E+02  0.51100000000E-03 0.  1.
    9900012    2    1    2    0    0  0.37690954034E+02  0.13719410112E+02 -0.16576894042E+02  0.47787266758E+02  0.19999980457E+02 0.  0.
        -12    1    1    2    0    0 -0.37690954034E+02 -0.13719410112E+02  0.16576894042E+02  0.43400733242E+02  0.00000000000E+00 0.  1.
         11    1    3    3    0    0  0.23862024984E+02  0.85048329925E+01 -0.96856978301E+01  0.27120862142E+02  0.51100000000E-03 0. -1.
        -11    1    3    3    0    0  0.80542611704E+01 -0.44567197966E+00 -0.92209570108E+01  0.12251358903E+02  0.51100000000E-03 0.  1.
         12    1    3    3    0    0  0.57746678794E+01  0.56602490993E+01  0.23297607985E+01  0.84150457135E+01  0.00000000000E+00 0. -1.
</event>
<event>
 7    1  0.4519225E-009  0.4778727E+02  0.7816164E-02  0.1312668E+00
        -11   -1    0    0    0    0  0.00000000000E+00  0.00000000000E+00  0.45593999997E+02  0.45594000000E+02  0.51100000000E-03 0. -1.
         11   -1    0    0    0    0 -0.00000000000E+00 -0.00000000000E+00 -0.45593999997E+02  0.45594000000E+02  0.51100000000E-03 0.  1.
    9900012    2    1    2    0    0  0.41267189127E+02 -0.73325648257E+01 -0.11263909667E+02  0.47787273435E+02  0.20000010901E+02 0.  0.
        -12    1    1    2    0    0 -0.41267189127E+02  0.73325648257E+01  0.11263909667E+02  0.43400726565E+02  0.00000000000E+00 0.  1.
         11    1    3    3    0    0  0.33879743851E+02 -0.64032117037E+01 -0.29747467071E+01  0.34607618840E+02  0.51100000000E-03 0. -1.
        -11    1    3    3    0    0  0.53412531082E+01  0.22178162236E+01 -0.25471702168E+01  0.63194754483E+01  0.51100000000E-03 0.  1.
         12    1    3    3    0    0  0.20461921680E+01 -0.31471693455E+01 -0.57419927427E+01  0.68601791474E+01  0.00000000000E+00 0. -1.
</event>
<event>
 7    1  0.4519225E-009  0.4778727E+02  0.7816164E-02  0.1312668E+00
        -11   -1    0    0    0    0  0.00000000000E+00  0.00000000000E+00  0.45593999997E+02  0.45594000000E+02  0.51100000000E-03 0.  1.
         11   -1    0    0    0    0 -0.00000000000E+00 -0.00000000000E+00 -0.45593999997E+02  0.45594000000E+02  0.51100000000E-03 0. -1.
    9900012    2    1    2    0    0 -0.34265671318E+02 -0.26433782344E+02 -0.32775478479E+01  0.47787269594E+02  0.19999993386E+02 0.  0.
        -12    1    1    2    0    0  0.34265671318E+02  0.26433782344E+02  0.32775478479E+01  0.43400730406E+02  0.00000000000E+00 0.  1.
         11    1    3    3    0    0 -0.10223766591E+02 -0.12053969111E+02  0.40297625774E+01  0.16311424258E+02  0.51100000000E-03 0. -1.
        -11    1    3    3    0    0 -0.19895496132E+00 -0.41526404988E+01  0.92149359160E+00  0.42583044618E+01  0.51100000000E-03 0.  1.
         12    1    3    3    0    0 -0.23842949766E+02 -0.10227172734E+02 -0.82288040169E+01  0.27217540874E+02  0.00000000000E+00 0. -1.
</event>
<event>
 7    1  0.4519225E-009  0.4778727E+02  0.7816164E-02  0.1312668E+00
        -11   -1    0    0    0    0  0.00000000000E+00  0.00000000000E+00  0.45593999997E+02  0.45594000000E+02  0.51100000000E-03 0. -1.
         11   -1    0    0    0    0 -0.00000000000E+00 -0.00000000000E+00 -0.45593999997E+02  0.45594000000E+02  0.51100000000E-03 0.  1.
    9900012    2    1    2    0    0 -0.10183509054E+02  0.38501905701E+02  0.17248849194E+02  0.47787269617E+02  0.19999993493E+02 0.  0.
        -12    1    1    2    0    0  0.10183509054E+02 -0.38501905701E+02 -0.17248849194E+02  0.43400730383E+02  0.00000000000E+00 0.  1.
         11    1    3    3    0    0 -0.30560284820E+00  0.77288327753E+01  0.17756279484E+00  0.77369101052E+01  0.51100000000E-03 0. -1.
        -11    1    3    3    0    0  0.25015280420E+01  0.14140264426E+02  0.21833749826E+01  0.14524869954E+02  0.51100000000E-03 0.  1.
         12    1    3    3    0    0 -0.12379434247E+02  0.16632808499E+02  0.14887911416E+02  0.25525489558E+02  0.00000000000E+00 0. -1.
</event>
<event>
 7    1  0.4519225E-009  0.4778726E+02  0.7816164E-02  0.1312668E+00
        -11   -1    0    0    0    0  0.00000000000E+00  0.00000000000E+00  0.45593999997E+02  0.45594000000E+02  0.51100000000E-03 0. -1.
         11   -1    0    0    0    0 -0.00000000000E+00 -0.00000000000E+00 -0.45593999997E+02  0.45594000000E+02  0.51100000000E-03 0.  1.
    9900012    2    1    2    0    0  0.22056732983E+02 -0.14378647231E+01  0.37350461674E+02  0.47787263692E+02  0.19999966478E+02 0.  0.
        -12    1    1    2    0    0 -0.22056732983E+02  0.14378647231E+01 -0.37350461674E+02  0.43400736308E+02  0.00000000000E+00 0.  1.
         11    1    3    3    0    0  0.10275620469E+02 -0.46646679822E+01  0.20496660384E+02  0.23397875771E+02  0.51100000000E-03 0.  1.
        -11    1    3    3    0    0  0.75334119914E+01 -0.37861841733E+01  0.12577789537E+02  0.15142267885E+02  0.51100000000E-03 0. -1.
        -12    1    3    3    0    0  0.42477005223E+01  0.70129874324E+01  0.42760117526E+01  0.92471200361E+01  0.00000000000E+00 0.  1.
</event>
<event>
 7    1  0.4519225E-009  0.4778728E+02  0.7816164E-02  0.1312668E+00
        -11   -1    0    0    0    0  0.00000000000E+00  0.00000000000E+00  0.45593999997E+02  0.45594000000E+02  0.51100000000E-03 0.  1.
         11   -1    0    0    0    0 -0.00000000000E+00 -0.00000000000E+00 -0.45593999997E+02  0.45594000000E+02  0.51100000000E-03 0. -1.
    9900012    2    1    2    0    0 -0.19086709936E+02  0.27731449383E+02 -0.27391362823E+02  0.47787279517E+02  0.20000038631E+02 0.  0.
        -12    1    1    2    0    0  0.19086709936E+02 -0.27731449383E+02  0.27391362823E+02  0.43400720483E+02  0.00000000000E+00 0.  1.
         11    1    3    3    0    0  0.25578698918E-01  0.64909464990E+01 -0.27214149994E+01  0.70384046901E+01  0.51100000000E-03 0. -1.
        -11    1    3    3    0    0 -0.94766859907E+01  0.12922725547E+02 -0.40707623027E+01  0.16534071456E+02  0.51100000000E-03 0.  1.
         12    1    3    3    0    0 -0.96356026443E+01  0.83177773372E+01 -0.20599185521E+02  0.24214803371E+02  0.00000000000E+00 0. -1.
</event>
<event>
 7    1  0.4519225E-009  0.4778728E+02  0.7816164E-02  0.1312668E+00
        -11   -1    0    0    0    0  0.00000000000E+00  0.00000000000E+00  0.45593999997E+02  0.45594000000E+02  0.51100000000E-03 0.  1.
         11   -1    0    0    0    0 -0.00000000000E+00 -0.00000000000E+00 -0.45593999997E+02  0.45594000000E+02  0.51100000000E-03 0. -1.
    9900012    2    1    2    0    0  0.37768883215E+02 -0.20954730483E+02 -0.42465839396E+01  0.47787277147E+02  0.20000027826E+02 0.  0.
        -12    1    1    2    0    0 -0.37768883215E+02  0.20954730483E+02  0.42465839396E+01  0.43400722853E+02  0.00000000000E+00 0.  1.
         11    1    3    3    0    0  0.57761652393E+01 -0.52118345891E+01  0.13934916417E+01  0.79037411314E+01  0.51100000000E-03 0. -1.
        -11    1    3    3    0    0  0.13360209065E+02 -0.11536359390E+02 -0.10004643762E+02  0.20289792293E+02  0.51100000000E-03 0.  1.
        -12    1    3    3    0    0  0.18632508911E+02 -0.42065365045E+01  0.43645681803E+01  0.19593743723E+02  0.00000000000E+00 0.  1.
</event>
<event>
 7    1  0.4519225E-009  0.4778728E+02  0.7816164E-02  0.1312668E+00
        -11   -1    0    0    0    0  0.00000000000E+00  0.00000000000E+00  0.45593999997E+02  0.45594000000E+02  0.51100000000E-03 0. -1.
         11   -1    0    0    0    0 -0.00000000000E+00 -0.00000000000E+00 -0.45593999997E+02  0.45594000000E+02  0.51100000000E-03 0.  1.
    9900012    2    1    2    0    0  0.23920103300E+02  0.17029613854E+02  0.31960027760E+02  0.47787280371E+02  0.20000042524E+02 0.  0.
        -12    1    1    2    0    0 -0.23920103300E+02 -0.17029613854E+02 -0.31960027760E+02  0.43400719629E+02  0.00000000000E+00 0.  1.
         11    1    3    3    0    0  0.88646383255E+01  0.12274237476E+02  0.12177460409E+02  0.19430112211E+02  0.51100000000E-03 0. -1.
        -11    1    3    3    0    0 -0.11547151304E+01  0.38495858566E+01  0.48496593558E+01  0.62985612982E+01  0.51100000000E-03 0.  1.
         12    1    3    3    0    0  0.16210180105E+02  0.90579052142E+00  0.14932907995E+02  0.22058606862E+02  0.00000000000E+00 0. -1.
</event>
<event>
 7    1  0.4519225E-009  0.4778727E+02  0.7816164E-02  0.1312668E+00
        -11   -1    0    0    0    0  0.00000000000E+00  0.00000000000E+00  0.45593999997E+02  0.45594000000E+02  0.51100000000E-03 0.  1.
         11   -1    0    0    0    0 -0.00000000000E+00 -0.00000000000E+00 -0.45593999997E+02  0.45594000000E+02  0.51100000000E-03 0. -1.
    9900012    2    1    2    0    0 -0.40474234443E+02  0.86604998759E+01  0.13055853970E+02  0.47787271495E+02  0.20000002054E+02 0.  0.
        -12    1    1    2    0    0  0.40474234443E+02 -0.86604998759E+01 -0.13055853970E+02  0.43400728505E+02  0.00000000000E+00 0.  1.
         11    1    3    3    0    0 -0.34761214716E+01 -0.79386576190E+00 -0.27392910779E+01  0.44963717822E+01  0.51100000000E-03 0. -1.
        -11    1    3    3    0    0 -0.34572141325E+01  0.55398597918E+01  0.22466828138E+01  0.69057917720E+01  0.51100000000E-03 0.  1.
         12    1    3    3    0    0 -0.33540898839E+02  0.39145058460E+01  0.13548462234E+02  0.36385107941E+02  0.00000000000E+00 0. -1.
</event>
<event>
 7    1  0.4519225E-009  0.4778727E+02  0.7816164E-02  0.1312668E+00
        -11   -1    0    0    0    0  0.00000000000E+00  0.00000000000E+00  0.45593999997E+02  0.45594000000E+02  0.51100000000E-03 0.  1.
         11   -1    0    0    0    0 -0.00000000000E+00 -0.00000000000E+00 -0.45593999997E+02  0.45594000000E+02  0.51100000000E-03 0. -1.
    9900012    2    1    2    0    0 -0.99142307166E+01  0.44931138191E+01 -0.42013607700E+02  0.47787271037E+02  0.19999999967E+02 0.  0.
        -12    1    1    2    0    0  0.99142307166E+01 -0.44931138191E+01  0.42013607700E+02  0.43400728963E+02  0.00000000000E+00 0.  1.
         11    1    3    3    0    0 -0.27956510751E+01  0.38400403869E+01 -0.18047541808E+02  0.18662136552E+02  0.51100000000E-03 0. -1.
        -11    1    3    3    0    0 -0.22098703551E+01  0.65535834467E+01 -0.18362846984E+02  0.19622108261E+02  0.51100000000E-03 0.  1.
         12    1    3    3    0    0 -0.49087092863E+01 -0.59005100144E+01 -0.56032189084E+01  0.95030262245E+01  0.00000000000E+00 0. -1.
</event>
<event>
 7    1  0.4519225E-009  0.4778728E+02  0.7816164E-02  0.1312668E+00
        -11   -1    0    0    0    0  0.00000000000E+00  0.00000000000E+00  0.45593999997E+02  0.45594000000E+02  0.51100000000E-03 0.  1.
         11   -1    0    0    0    0 -0.00000000000E+00 -0.00000000000E+00 -0.45593999997E+02  0.45594000000E+02  0.51100000000E-03 0. -1.
    9900012    2    1    2    0    0 -0.35491304701E+02 -0.17649825229E+02 -0.17676913567E+02  0.47787282111E+02  0.20000050456E+02 0.  0.
        -12    1    1    2    0    0  0.35491304701E+02  0.17649825229E+02  0.17676913567E+02  0.43400717889E+02  0.00000000000E+00 0.  1.
         11    1    3    3    0    0 -0.85557498547E+01 -0.48245352957E+01 -0.46847785516E+01  0.10882285915E+02  0.51100000000E-03 0. -1.
        -11    1    3    3    0    0 -0.13300013219E+02 -0.31934249497E+01 -0.14752903046E+02  0.20118063105E+02  0.51100000000E-03 0.  1.
         12    1    3    3    0    0 -0.13635541627E+02 -0.96318649838E+01  0.17607680308E+01  0.16786933091E+02  0.00000000000E+00 0. -1.
</event>
<event>
 7    1  0.4519225E-009  0.4778728E+02  0.7816164E-02  0.1312668E+00
        -11   -1    0    0    0    0  0.00000000000E+00  0.00000000000E+00  0.45593999997E+02  0.45594000000E+02  0.51100000000E-03 0.  1.
         11   -1    0    0    0    0 -0.00000000000E+00 -0.00000000000E+00 -0.45593999997E+02  0.45594000000E+02  0.51100000000E-03 0. -1.
    9900012    2    1    2    0    0  0.27580160983E+02 -0.22448298137E+02 -0.24880341992E+02  0.47787276656E+02  0.20000025587E+02 0.  0.
        -12    1    1    2    0    0 -0.27580160983E+02  0.22448298137E+02  0.24880341992E+02  0.43400723344E+02  0.00000000000E+00 0.  1.
         11    1    3    3    0    0  0.49381808199E+01 -0.63580784114E-01 -0.75004624723E+01  0.89803457554E+01  0.51100000000E-03 0.  1.
        -11    1    3    3    0    0  0.40323248903E+01  0.94076336890E-01  0.12043658276E+01  0.42093932681E+01  0.51100000000E-03 0. -1.
        -12    1    3    3    0    0  0.18609655273E+02 -0.22478793690E+02 -0.18584245348E+02  0.34597537633E+02  0.00000000000E+00 0.  1.
</event>
<event>
 7    1  0.4519225E-009  0.4778729E+02  0.7816164E-02  0.1312668E+00
        -11   -1    0    0    0    0  0.00000000000E+00  0.00000000000E+00  0.45593999997E+02  0.45594000000E+02  0.51100000000E-03 0.  1.
         11   -1    0    0    0    0 -0.00000000000E+00 -0.00000000000E+00 -0.45593999997E+02  0.45594000000E+02  0.51100000000E-03 0. -1.
    9900012    2    1    2    0    0 -0.17739506603E+02  0.50440008216E+01 -0.39287272214E+02  0.47787288061E+02  0.20000077585E+02 0.  0.
        -12    1    1    2    0    0  0.17739506603E+02 -0.50440008216E+01  0.39287272214E+02  0.43400711939E+02  0.00000000000E+00 0.  1.
         11    1    3    3    0    0 -0.11087158753E+02  0.81623287767E-01 -0.19065042283E+02  0.22054650056E+02  0.51100000000E-03 0. -1.
        -11    1    3    3    0    0 -0.78474109541E+01  0.47533288730E+01 -0.49741819011E+01  0.10436401674E+02  0.51100000000E-03 0.  1.
        -12    1    3    3    0    0  0.11950631045E+01  0.20904866085E+00 -0.15248048029E+02  0.15296236330E+02  0.00000000000E+00 0.  1.
</event>
<event>
 7    1  0.4519225E-009  0.4778727E+02  0.7816164E-02  0.1312668E+00
        -11   -1    0    0    0    0  0.00000000000E+00  0.00000000000E+00  0.45593999997E+02  0.45594000000E+02  0.51100000000E-03 0. -1.
         11   -1    0    0    0    0 -0.00000000000E+00 -0.00000000000E+00 -0.45593999997E+02  0.45594000000E+02  0.51100000000E-03 0.  1.
    9900012    2    1    2    0    0  0.38675620642E+02  0.12939327830E+02  0.14845651119E+02  0.47787271966E+02  0.20000004202E+02 0.  0.
        -12    1    1    2    0    0 -0.38675620642E+02 -0.12939327830E+02 -0.14845651119E+02  0.43400728034E+02  0.00000000000E+00 0.  1.
         11    1    3    3    0    0  0.10445330128E+02  0.52079415053E+01  0.37142803461E+01  0.12248406221E+02  0.51100000000E-03 0. -1.
        -11    1    3    3    0    0 -0.11177800510E+01 -0.14825831226E+01 -0.13983482720E+01  0.23244059691E+01  0.51100000000E-03 0.  1.
        -12    1    3    3    0    0  0.29348070565E+02  0.92139694472E+01  0.12529719045E+02  0.33214459776E+02  0.00000000000E+00 0.  1.
</event>
<event>
 7    1  0.4519225E-009  0.4778727E+02  0.7816164E-02  0.1312668E+00
        -11   -1    0    0    0    0  0.00000000000E+00  0.00000000000E+00  0.45593999997E+02  0.45594000000E+02  0.51100000000E-03 0. -1.
         11   -1    0    0    0    0 -0.00000000000E+00 -0.00000000000E+00 -0.45593999997E+02  0.45594000000E+02  0.51100000000E-03 0.  1.
    9900012    2    1    2    0    0  0.21580187240E+02 -0.23502669793E+02  0.29420115410E+02  0.47787272363E+02  0.20000006011E+02 0.  0.
        -12    1    1    2    0    0 -0.21580187240E+02  0.23502669793E+02 -0.29420115410E+02  0.43400727637E+02  0.00000000000E+00 0.  1.
         11    1    3    3    0    0  0.93340153669E+01 -0.84837398271E+01  0.10420691445E+02  0.16361188672E+02  0.51100000000E-03 0. -1.
        -11    1    3    3    0    0  0.56700970836E+01 -0.10073808141E+02  0.20037475875E+02  0.23132921370E+02  0.51100000000E-03 0.  1.
         12    1    3    3    0    0  0.65760747895E+01 -0.49451218256E+01 -0.10380519103E+01  0.82931623206E+01  0.00000000000E+00 0. -1.
</event>
<event>
 7    1  0.4519225E-009  0.4778727E+02  0.7816164E-02  0.1312668E+00
        -11   -1    0    0    0    0  0.00000000000E+00  0.00000000000E+00  0.45593999997E+02  0.45594000000E+02  0.51100000000E-03 0.  1.
         11   -1    0    0    0    0 -0.00000000000E+00 -0.00000000000E+00 -0.45593999997E+02  0.45594000000E+02  0.51100000000E-03 0. -1.
    9900012    2    1    2    0    0  0.38651760032E+02  0.17172011252E+02 -0.97358404714E+01  0.47787272890E+02  0.20000008416E+02 0.  0.
        -12    1    1    2    0    0 -0.38651760032E+02 -0.17172011252E+02  0.97358404714E+01  0.43400727110E+02  0.00000000000E+00 0.  1.
         11    1    3    3    0    0  0.25113690874E+02  0.11981720506E+02 -0.24428765792E+01  0.27932539123E+02  0.51100000000E-03 0. -1.
        -11    1    3    3    0    0  0.58735269911E+01  0.62727505283E+01  0.83109382152E+00  0.86334486566E+01  0.51100000000E-03 0.  1.
        -12    1    3    3    0    0  0.76645421666E+01 -0.10824597830E+01 -0.81240577137E+01  0.11221285111E+02  0.00000000000E+00 0.  1.
</event>
<event>
 7    1  0.4519225E-009  0.4778727E+02  0.7816164E-02  0.1312668E+00
        -11   -1    0    0    0    0  0.00000000000E+00  0.00000000000E+00  0.45593999997E+02  0.45594000000E+02  0.51100000000E-03 0.  1.
         11   -1    0    0    0    0 -0.00000000000E+00 -0.00000000000E+00 -0.45593999997E+02  0.45594000000E+02  0.51100000000E-03 0. -1.
    9900012    2    1    2    0    0  0.11183510962E+02  0.13784107600E+02 -0.39604935929E+02  0.47787268558E+02  0.19999988661E+02 0.  0.
        -12    1    1    2    0    0 -0.11183510962E+02 -0.13784107600E+02  0.39604935929E+02  0.43400731442E+02  0.00000000000E+00 0.  1.
         11    1    3    3    0    0  0.12221981061E+02  0.14989526090E+02 -0.34242156441E+02  0.39326682945E+02  0.51100000000E-03 0. -1.
        -11    1    3    3    0    0 -0.75610277869E+00  0.85785159891E+00 -0.61341427476E+01  0.62398163664E+01  0.51100000000E-03 0.  1.
        -12    1    3    3    0    0 -0.28236732000E+00 -0.20632700897E+01  0.77136325918E+00  0.22207692460E+01  0.00000000000E+00 0.  1.
</event>
<event>
 7    1  0.4519225E-009  0.4778728E+02  0.7816164E-02  0.1312668E+00
        -11   -1    0    0    0    0  0.00000000000E+00  0.00000000000E+00  0.45593999997E+02  0.45594000000E+02  0.51100000000E-03 0. -1.
         11   -1    0    0    0    0 -0.00000000000E+00 -0.00000000000E+00 -0.45593999997E+02  0.45594000000E+02  0.51100000000E-03 0.  1.
    9900012    2    1    2    0    0  0.13462583942E+02  0.38874142053E+02  0.13826881166E+02  0.47787277316E+02  0.20000028593E+02 0.  0.
        -12    1    1    2    0    0 -0.13462583942E+02 -0.38874142053E+02 -0.13826881166E+02  0.43400722684E+02  0.00000000000E+00 0.  1.
         11    1    3    3    0    0  0.61746339568E+01  0.24699262251E+01 -0.26215441614E+01  0.71483658349E+01  0.51100000000E-03 0.  1.
        -11    1    3    3    0    0  0.10913418194E+01  0.31233952183E+01  0.14849598675E+01  0.36265315007E+01  0.51100000000E-03 0. -1.
        -12    1    3    3    0    0  0.61966081658E+01  0.33280820610E+02  0.14963465460E+02  0.37012379980E+02  0.00000000000E+00 0.  1.
</event>
<event>
 7    1  0.4519225E-009  0.4778727E+02  0.7816164E-02  0.1312668E+00
        -11   -1    0    0    0    0  0.00000000000E+00  0.00000000000E+00  0.45593999997E+02  0.45594000000E+02  0.51100000000E-03 0.  1.
         11   -1    0    0    0    0 -0.00000000000E+00 -0.00000000000E+00 -0.45593999997E+02  0.45594000000E+02  0.51100000000E-03 0. -1.
    9900012    2    1    2    0    0 -0.37594051741E+02  0.19330866753E+02  0.98299698414E+01  0.47787269098E+02  0.19999991126E+02 0.  0.
        -12    1    1    2    0    0  0.37594051741E+02 -0.19330866753E+02 -0.98299698414E+01  0.43400730902E+02  0.00000000000E+00 0.  1.
         11    1    3    3    0    0 -0.16217675834E+02  0.87156491045E+01  0.19040445447E+01  0.18509482290E+02  0.51100000000E-03 0.  1.
        -11    1    3    3    0    0 -0.20310279778E+02  0.10815627462E+02  0.18268017040E+01  0.23082947533E+02  0.51100000000E-03 0. -1.
        -12    1    3    3    0    0 -0.10660961291E+01 -0.20040981371E+00  0.60991235927E+01  0.61948392755E+01  0.00000000000E+00 0.  1.
</event>
<event>
 7    1  0.4519225E-009  0.4778727E+02  0.7816164E-02  0.1312668E+00
        -11   -1    0    0    0    0  0.00000000000E+00  0.00000000000E+00  0.45593999997E+02  0.45594000000E+02  0.51100000000E-03 0. -1.
         11   -1    0    0    0    0 -0.00000000000E+00 -0.00000000000E+00 -0.45593999997E+02  0.45594000000E+02  0.51100000000E-03 0.  1.
    9900012    2    1    2    0    0 -0.35306038874E+02  0.18969147537E+02  0.16651673755E+02  0.47787272148E+02  0.20000005029E+02 0.  0.
        -12    1    1    2    0    0  0.35306038874E+02 -0.18969147537E+02 -0.16651673755E+02  0.43400727852E+02  0.00000000000E+00 0.  1.
         11    1    3    3    0    0 -0.81238662259E+01  0.40162844042E+01  0.47928418731E+01  0.10251784057E+02  0.51100000000E-03 0. -1.
        -11    1    3    3    0    0 -0.57185120419E+01  0.35344928174E+01 -0.46270840596E+01  0.81611228765E+01  0.51100000000E-03 0.  1.
        -12    1    3    3    0    0 -0.21463660607E+02  0.11418370316E+02  0.16485915941E+02  0.29374365214E+02  0.00000000000E+00 0.  1.
</event>
<event>
 7    1  0.4519225E-009  0.4778727E+02  0.7816164E-02  0.1312668E+00
        -11   -1    0    0    0    0  0.00000000000E+00  0.00000000000E+00  0.45593999997E+02  0.45594000000E+02  0.51100000000E-03 0. -1.
         11   -1    0    0    0    0 -0.00000000000E+00 -0.00000000000E+00 -0.45593999997E+02  0.45594000000E+02  0.51100000000E-03 0.  1.
    9900012    2    1    2    0    0 -0.27218084743E+02 -0.33043036720E+02  0.71384056412E+01  0.47787271345E+02  0.20000001368E+02 0.  0.
        -12    1    1    2    0    0  0.27218084743E+02  0.33043036720E+02 -0.71384056412E+01  0.43400728655E+02  0.00000000000E+00 0.  1.
         11    1    3    3    0    0 -0.94509430541E+01 -0.18959856680E+02  0.48550319454E+01  0.21734024602E+02  0.51100000000E-03 0.  1.
        -11    1    3    3    0    0 -0.46528376550E+01 -0.34630228306E+01  0.64468810823E+01  0.86720067643E+01  0.51100000000E-03 0. -1.
        -12    1    3    3    0    0 -0.13114304034E+02 -0.10620157209E+02 -0.41635073865E+01  0.17381239978E+02  0.00000000000E+00 0.  1.
</event>
<event>
 7    1  0.4519225E-009  0.4778727E+02  0.7816164E-02  0.1312668E+00
        -11   -1    0    0    0    0  0.00000000000E+00  0.00000000000E+00  0.45593999997E+02  0.45594000000E+02  0.51100000000E-03 0.  1.
         11   -1    0    0    0    0 -0.00000000000E+00 -0.00000000000E+00 -0.45593999997E+02  0.45594000000E+02  0.51100000000E-03 0. -1.
    9900012    2    1    2    0    0  0.78028405644E+01  0.19363859006E+02 -0.38049700977E+02  0.47787273037E+02  0.20000009083E+02 0.  0.
        -12    1    1    2    0    0 -0.78028405644E+01 -0.19363859006E+02  0.38049700977E+02  0.43400726963E+02  0.00000000000E+00 0.  1.
         11    1    3    3    0    0 -0.34993852467E+01  0.77291578738E+01 -0.25649009190E+02  0.27015870358E+02  0.51100000000E-03 0. -1.
        -11    1    3    3    0    0  0.25664631351E+01  0.28490966419E+01 -0.10678002944E+01  0.39804877124E+01  0.51100000000E-03 0.  1.
         12    1    3    3    0    0  0.87357626760E+01  0.87856044904E+01 -0.11332891493E+02  0.16790914966E+02  0.00000000000E+00 0. -1.
</event>
<event>
 7    1  0.4519225E-009  0.4778727E+02  0.7816164E-02  0.1312668E+00
        -11   -1    0    0    0    0  0.00000000000E+00  0.00000000000E+00  0.45593999997E+02  0.45594000000E+02  0.51100000000E-03 0.  1.
         11   -1    0    0    0    0 -0.00000000000E+00 -0.00000000000E+00 -0.45593999997E+02  0.45594000000E+02  0.51100000000E-03 0. -1.
    9900012    2    1    2    0    0  0.53039856390E+01  0.39293626780E+02 -0.17649420444E+02  0.47787269462E+02  0.19999992786E+02 0.  0.
        -12    1    1    2    0    0 -0.53039856390E+01 -0.39293626780E+02  0.17649420444E+02  0.43400730538E+02  0.00000000000E+00 0.  1.
         11    1    3    3    0    0 -0.63758258308E+01  0.16199918165E+02 -0.30588490159E+01  0.17676115555E+02  0.51100000000E-03 0. -1.
        -11    1    3    3    0    0  0.23259826099E+01  0.19598225328E+01 -0.29362120299E+01  0.42275809641E+01  0.51100000000E-03 0.  1.
         12    1    3    3    0    0  0.93538288599E+01  0.21133886083E+02 -0.11654359399E+02  0.25883572943E+02  0.00000000000E+00 0. -1.
</event>
<event>
 7    1  0.4519225E-009  0.4778727E+02  0.7816164E-02  0.1312668E+00
        -11   -1    0    0    0    0  0.00000000000E+00  0.00000000000E+00  0.45593999997E+02  0.45594000000E+02  0.51100000000E-03 0. -1.
         11   -1    0    0    0    0 -0.00000000000E+00 -0.00000000000E+00 -0.45593999997E+02  0.45594000000E+02  0.51100000000E-03 0.  1.
    9900012    2    1    2    0    0  0.96937234299E+01 -0.23064148897E+02  0.35464072138E+02  0.47787266701E+02  0.19999980198E+02 0.  0.
        -12    1    1    2    0    0 -0.96937234299E+01  0.23064148897E+02 -0.35464072138E+02  0.43400733299E+02  0.00000000000E+00 0.  1.
         11    1    3    3    0    0  0.18122878470E+01 -0.41868078959E+01 -0.17960778294E+01  0.49030239065E+01  0.51100000000E-03 0.  1.
        -11    1    3    3    0    0  0.69894909647E+01 -0.14746154761E+02  0.24456360728E+02  0.29400946320E+02  0.51100000000E-03 0. -1.
        -12    1    3    3    0    0  0.89194461814E+00 -0.41311862406E+01  0.12803789239E+02  0.13483296475E+02  0.00000000000E+00 0.  1.
</event>
<event>
 7    1  0.4519225E-009  0.4778726E+02  0.7816164E-02  0.1312668E+00
        -11   -1    0    0    0    0  0.00000000000E+00  0.00000000000E+00  0.45593999997E+02  0.45594000000E+02  0.51100000000E-03 0.  1.
         11   -1    0    0    0    0 -0.00000000000E+00 -0.00000000000E+00 -0.45593999997E+02  0.45594000000E+02  0.51100000000E-03 0. -1.
    9900012    2    1    2    0    0 -0.10416976131E+02 -0.55398268218E+01 -0.41766269401E+02  0.47787258847E+02  0.19999944388E+02 0.  0.
        -12    1    1    2    0    0  0.10416976131E+02  0.55398268218E+01  0.41766269401E+02  0.43400741153E+02  0.00000000000E+00 0.  1.
         11    1    3    3    0    0  0.43407796071E+00 -0.70028680045E+01 -0.13199108231E+02  0.14948078215E+02  0.51100000000E-03 0. -1.
        -11    1    3    3    0    0 -0.12530066069E+01  0.52833553210E-01  0.10738365310E+01  0.16510427304E+01  0.51100000000E-03 0.  1.
         12    1    3    3    0    0 -0.95980474852E+01  0.14102076295E+01 -0.29640997701E+02  0.31188137902E+02  0.00000000000E+00 0. -1.
</event>
<event>
 7    1  0.4817581E-009  0.4778728E+02  0.7816164E-02  0.1312668E+00
        -11   -1    0    0    0    0  0.00000000000E+00  0.00000000000E+00  0.45593999997E+02  0.45594000000E+02  0.51100000000E-03 0. -1.
         11   -1    0    0    0    0 -0.00000000000E+00 -0.00000000000E+00 -0.45593999997E+02  0.45594000000E+02  0.51100000000E-03 0.  1.
    9900012    2    1    2    0    0 -0.22425671508E+02 -0.17204101164E+02  0.32935255479E+02  0.47787275433E+02  0.20000020010E+02 0.  0.
        -12    1    1    2    0    0  0.22425671508E+02  0.17204101164E+02 -0.32935255479E+02  0.43400724567E+02  0.00000000000E+00 0.  1.
         11    1    3    3    0    0 -0.39406222499E+01 -0.57487267547E+01  0.26711791639E+01  0.74640177789E+01  0.51100000000E-03 0. -1.
        -11    1    3    3    0    0 -0.81126480970E+01  0.12610087886E+01  0.34915953456E+01  0.89216837329E+01  0.51100000000E-03 0.  1.
         12    1    3    3    0    0 -0.10372401161E+02 -0.12716383198E+02  0.26772480970E+02  0.31401573922E+02  0.00000000000E+00 0. -1.
</event>
<event>
 7    1  0.4519225E-009  0.4778727E+02  0.7816164E-02  0.1312668E+00
        -11   -1    0    0    0    0  0.00000000000E+00  0.00000000000E+00  0.45593999997E+02  0.45594000000E+02  0.51100000000E-03 0.  1.
         11   -1    0    0    0    0 -0.00000000000E+00 -0.00000000000E+00 -0.45593999997E+02  0.45594000000E+02  0.51100000000E-03 0. -1.
    9900012    2    1    2    0    0  0.19540536220E+02 -0.27563289284E+01 -0.38654798756E+02  0.47787269917E+02  0.19999994859E+02 0.  0.
        -12    1    1    2    0    0 -0.19540536220E+02  0.27563289284E+01  0.38654798756E+02  0.43400730083E+02  0.00000000000E+00 0.  1.
         11    1    3    3    0    0  0.14674363423E+01  0.38119596105E+01 -0.19512829272E+02  0.19935769661E+02  0.51100000000E-03 0. -1.
        -11    1    3    3    0    0  0.77925708967E+00 -0.87716576107E+00  0.30492645683E+00  0.12122878327E+01  0.51100000000E-03 0.  1.
         12    1    3    3    0    0  0.17293842788E+02 -0.56911227778E+01 -0.19446895940E+02  0.26639212423E+02  0.00000000000E+00 0. -1.
</event>
<event>
 7    1  0.4519225E-009  0.4778727E+02  0.7816164E-02  0.1312668E+00
        -11   -1    0    0    0    0  0.00000000000E+00  0.00000000000E+00  0.45593999997E+02  0.45594000000E+02  0.51100000000E-03 0. -1.
         11   -1    0    0    0    0 -0.00000000000E+00 -0.00000000000E+00 -0.45593999997E+02  0.45594000000E+02  0.51100000000E-03 0.  1.
    9900012    2    1    2    0    0 -0.40460449855E+02  0.21678919431E+01 -0.15552350642E+02  0.47787269954E+02  0.19999995030E+02 0.  0.
        -12    1    1    2    0    0  0.40460449855E+02 -0.21678919431E+01  0.15552350642E+02  0.43400730046E+02  0.00000000000E+00 0.  1.
         11    1    3    3    0    0 -0.17750867591E+02  0.31858305577E+01 -0.30678296185E+01  0.18293561584E+02  0.51100000000E-03 0. -1.
        -11    1    3    3    0    0 -0.27633058868E+01  0.84820356129E+00  0.30057434893E+01  0.41701082588E+01  0.51100000000E-03 0.  1.
         12    1    3    3    0    0 -0.19946276377E+02 -0.18661421759E+01 -0.15490264513E+02  0.25323600112E+02  0.00000000000E+00 0. -1.
</event>
<event>
 7    1  0.4519225E-009  0.4778727E+02  0.7816164E-02  0.1312668E+00
        -11   -1    0    0    0    0  0.00000000000E+00  0.00000000000E+00  0.45593999997E+02  0.45594000000E+02  0.51100000000E-03 0.  1.
         11   -1    0    0    0    0 -0.00000000000E+00 -0.00000000000E+00 -0.45593999997E+02  0.45594000000E+02  0.51100000000E-03 0. -1.
    9900012    2    1    2    0    0  0.29683178985E+01 -0.14591182551E+02 -0.40766533112E+02  0.47787265659E+02  0.19999975445E+02 0.  0.
        -12    1    1    2    0    0 -0.29683178985E+01  0.14591182551E+02  0.40766533112E+02  0.43400734341E+02  0.00000000000E+00 0.  1.
         11    1    3    3    0    0  0.21644830506E+01 -0.69243852375E+01 -0.70655546811E+01  0.10126902834E+02  0.51100000000E-03 0. -1.
        -11    1    3    3    0    0 -0.24961194485E+01 -0.65952960476E+01 -0.47504336712E+01  0.85026562075E+01  0.51100000000E-03 0.  1.
        -12    1    3    3    0    0  0.32999542964E+01 -0.10715012663E+01 -0.28950544759E+02  0.29157706617E+02  0.00000000000E+00 0.  1.
</event>
<event>
 7    1  0.4519225E-009  0.4778727E+02  0.7816164E-02  0.1312668E+00
        -11   -1    0    0    0    0  0.00000000000E+00  0.00000000000E+00  0.45593999997E+02  0.45594000000E+02  0.51100000000E-03 0. -1.
         11   -1    0    0    0    0 -0.00000000000E+00 -0.00000000000E+00 -0.45593999997E+02  0.45594000000E+02  0.51100000000E-03 0.  1.
    9900012    2    1    2    0    0 -0.20973272915E+02  0.29946780745E+02  0.23386652578E+02  0.47787269908E+02  0.19999994817E+02 0.  0.
        -12    1    1    2    0    0  0.20973272915E+02 -0.29946780745E+02 -0.23386652578E+02  0.43400730092E+02  0.00000000000E+00 0.  1.
         11    1    3    3    0    0 -0.90745860817E+01  0.69960068753E+01  0.10775189321E+02  0.15728856600E+02  0.51100000000E-03 0. -1.
        -11    1    3    3    0    0 -0.31031834690E+01 -0.10866705081E+00 -0.16889799097E+01  0.35347149201E+01  0.51100000000E-03 0.  1.
         12    1    3    3    0    0 -0.87955033645E+01  0.23059440920E+02  0.14300443166E+02  0.28523698388E+02  0.00000000000E+00 0. -1.
</event>
<event>
 7    1  0.4519225E-009  0.4778727E+02  0.7816164E-02  0.1312668E+00
        -11   -1    0    0    0    0  0.00000000000E+00  0.00000000000E+00  0.45593999997E+02  0.45594000000E+02  0.51100000000E-03 0.  1.
         11   -1    0    0    0    0 -0.00000000000E+00 -0.00000000000E+00 -0.45593999997E+02  0.45594000000E+02  0.51100000000E-03 0. -1.
    9900012    2    1    2    0    0  0.10258775803E+02  0.12803336039E+02 -0.40180288352E+02  0.47787268822E+02  0.19999989868E+02 0.  0.
        -12    1    1    2    0    0 -0.10258775803E+02 -0.12803336039E+02  0.40180288352E+02  0.43400731178E+02  0.00000000000E+00 0.  1.
         11    1    3    3    0    0  0.61045424575E+01  0.11096983503E+02 -0.32064112444E+02  0.34474857339E+02  0.51100000000E-03 0. -1.
        -11    1    3    3    0    0 -0.24492823897E+01  0.28124107592E+01 -0.39200967023E+01  0.54107113137E+01  0.51100000000E-03 0.  1.
         12    1    3    3    0    0  0.66035157352E+01 -0.11060582236E+01 -0.41960792059E+01  0.79017001690E+01  0.00000000000E+00 0. -1.
</event>
<event>
 7    1  0.4519225E-009  0.4778727E+02  0.7816164E-02  0.1312668E+00
        -11   -1    0    0    0    0  0.00000000000E+00  0.00000000000E+00  0.45593999997E+02  0.45594000000E+02  0.51100000000E-03 0. -1.
         11   -1    0    0    0    0 -0.00000000000E+00 -0.00000000000E+00 -0.45593999997E+02  0.45594000000E+02  0.51100000000E-03 0.  1.
    9900012    2    1    2    0    0  0.24846355421E+02 -0.28021149846E+02  0.21933919851E+02  0.47787273549E+02  0.20000011421E+02 0.  0.
        -12    1    1    2    0    0 -0.24846355421E+02  0.28021149846E+02 -0.21933919851E+02  0.43400726451E+02  0.00000000000E+00 0.  1.
         11    1    3    3    0    0  0.10746721819E+02 -0.96748317757E+01  0.16808685246E+02  0.22172647557E+02  0.51100000000E-03 0. -1.
        -11    1    3    3    0    0  0.20259929914E+01  0.59242465202E+00 -0.99813233578E+00  0.23349267634E+01  0.51100000000E-03 0.  1.
         12    1    3    3    0    0  0.12073640610E+02 -0.18938742722E+02  0.61233669413E+01  0.23279699229E+02  0.00000000000E+00 0. -1.
</event>
<event>
 7    1  0.4519225E-009  0.4778727E+02  0.7816164E-02  0.1312668E+00
        -11   -1    0    0    0    0  0.00000000000E+00  0.00000000000E+00  0.45593999997E+02  0.45594000000E+02  0.51100000000E-03 0.  1.
         11   -1    0    0    0    0 -0.00000000000E+00 -0.00000000000E+00 -0.45593999997E+02  0.45594000000E+02  0.51100000000E-03 0. -1.
    9900012    2    1    2    0    0  0.32331166891E+01  0.28855815603E+02 -0.32256970482E+02  0.47787270947E+02  0.19999999558E+02 0.  0.
        -12    1    1    2    0    0 -0.32331166891E+01 -0.28855815603E+02  0.32256970482E+02  0.43400729053E+02  0.00000000000E+00 0.  1.
         11    1    3    3    0    0  0.14765224558E+01  0.20750843720E+02 -0.15542122396E+02  0.25967964927E+02  0.51100000000E-03 0. -1.
        -11    1    3    3    0    0 -0.33702657249E+01  0.72202392707E+01 -0.13580412268E+02  0.15745416597E+02  0.51100000000E-03 0.  1.
        -12    1    3    3    0    0  0.51268599581E+01  0.88473261203E+00 -0.31344358187E+01  0.60738894233E+01  0.00000000000E+00 0.  1.
</event>
<event>
 7    1  0.4519225E-009  0.4778728E+02  0.7816164E-02  0.1312668E+00
        -11   -1    0    0    0    0  0.00000000000E+00  0.00000000000E+00  0.45593999997E+02  0.45594000000E+02  0.51100000000E-03 0. -1.
         11   -1    0    0    0    0 -0.00000000000E+00 -0.00000000000E+00 -0.45593999997E+02  0.45594000000E+02  0.51100000000E-03 0.  1.
    9900012    2    1    2    0    0 -0.50603656845E+01  0.30304084933E+02  0.30654163901E+02  0.47787278474E+02  0.20000033873E+02 0.  0.
        -12    1    1    2    0    0  0.50603656845E+01 -0.30304084933E+02 -0.30654163901E+02  0.43400721526E+02  0.00000000000E+00 0.  1.
         11    1    3    3    0    0 -0.83996353342E+01  0.24543458371E+02  0.16246278344E+02  0.30608442999E+02  0.51100000000E-03 0. -1.
        -11    1    3    3    0    0 -0.82614937497E+00  0.99533259425E+00 -0.15234607171E+00  0.13024666405E+01  0.51100000000E-03 0.  1.
        -12    1    3    3    0    0  0.41654190246E+01  0.47652939684E+01  0.14560231629E+02  0.15876368834E+02  0.00000000000E+00 0.  1.
</event>
<event>
 7    1  0.4519225E-009  0.4778727E+02  0.7816164E-02  0.1312668E+00
        -11   -1    0    0    0    0  0.00000000000E+00  0.00000000000E+00  0.45593999997E+02  0.45594000000E+02  0.51100000000E-03 0.  1.
         11   -1    0    0    0    0 -0.00000000000E+00 -0.00000000000E+00 -0.45593999997E+02  0.45594000000E+02  0.51100000000E-03 0. -1.
    9900012    2    1    2    0    0  0.22173062082E+02 -0.36896009910E+02 -0.55374633656E+01  0.47787265791E+02  0.19999976047E+02 0.  0.
        -12    1    1    2    0    0 -0.22173062082E+02  0.36896009910E+02  0.55374633656E+01  0.43400734209E+02  0.00000000000E+00 0.  1.
         11    1    3    3    0    0  0.11838062275E+02 -0.24708732818E+02 -0.39571514392E+01  0.27682489839E+02  0.51100000000E-03 0. -1.
        -11    1    3    3    0    0 -0.13339624856E+01 -0.72300096451E+01 -0.91885896719E+00  0.74092373051E+01  0.51100000000E-03 0.  1.
         12    1    3    3    0    0  0.11668962293E+02 -0.49572674468E+01 -0.66145295922E+00  0.12695538647E+02  0.00000000000E+00 0. -1.
</event>
<event>
 7    1  0.4519225E-009  0.4778727E+02  0.7816164E-02  0.1312668E+00
        -11   -1    0    0    0    0  0.00000000000E+00  0.00000000000E+00  0.45593999997E+02  0.45594000000E+02  0.51100000000E-03 0.  1.
         11   -1    0    0    0    0 -0.00000000000E+00 -0.00000000000E+00 -0.45593999997E+02  0.45594000000E+02  0.51100000000E-03 0. -1.
    9900012    2    1    2    0    0 -0.29216835869E+02 -0.24430231433E+02 -0.20812583509E+02  0.47787270301E+02  0.19999996609E+02 0.  0.
        -12    1    1    2    0    0  0.29216835869E+02  0.24430231433E+02  0.20812583509E+02  0.43400729699E+02  0.00000000000E+00 0.  1.
         11    1    3    3    0    0 -0.13825039792E+01 -0.98640804273E+01 -0.60300945667E+01  0.11643600846E+02  0.51100000000E-03 0. -1.
        -11    1    3    3    0    0 -0.12180288829E+01 -0.24744744616E+01 -0.42571658485E+01  0.50724825819E+01  0.51100000000E-03 0.  1.
        -12    1    3    3    0    0 -0.26616303007E+02 -0.12091676544E+02 -0.10525323094E+02  0.31071186872E+02  0.00000000000E+00 0.  1.
</event>
<event>
 7    1  0.4519225E-009  0.4778727E+02  0.7816164E-02  0.1312668E+00
        -11   -1    0    0    0    0  0.00000000000E+00  0.00000000000E+00  0.45593999997E+02  0.45594000000E+02  0.51100000000E-03 0.  1.
         11   -1    0    0    0    0 -0.00000000000E+00 -0.00000000000E+00 -0.45593999997E+02  0.45594000000E+02  0.51100000000E-03 0. -1.
    9900012    2    1    2    0    0  0.11399357638E+02 -0.41006743934E+02 -0.84926405878E+01  0.47787270205E+02  0.19999996171E+02 0.  0.
        -12    1    1    2    0    0 -0.11399357638E+02  0.41006743934E+02  0.84926405878E+01  0.43400729795E+02  0.00000000000E+00 0.  1.
         11    1    3    3    0    0 -0.16138380917E+00 -0.80249970126E+01  0.89342274796E+00  0.80761888446E+01  0.51100000000E-03 0. -1.
        -11    1    3    3    0    0 -0.24217051486E+01 -0.13714804291E+02  0.49535403169E+00  0.13935777282E+02  0.51100000000E-03 0.  1.
         12    1    3    3    0    0  0.13982446596E+02 -0.19266942630E+02 -0.98814173674E+01  0.25775304078E+02  0.00000000000E+00 0. -1.
</event>
<event>
 7    1  0.4519225E-009  0.4778728E+02  0.7816164E-02  0.1312668E+00
        -11   -1    0    0    0    0  0.00000000000E+00  0.00000000000E+00  0.45593999997E+02  0.45594000000E+02  0.51100000000E-03 0. -1.
         11   -1    0    0    0    0 -0.00000000000E+00 -0.00000000000E+00 -0.45593999997E+02  0.45594000000E+02  0.51100000000E-03 0.  1.
    9900012    2    1    2    0    0  0.90200101536E+00  0.43325655905E+02 -0.23868089740E+01  0.47787275093E+02  0.20000018458E+02 0.  0.
        -12    1    1    2    0    0 -0.90200101536E+00 -0.43325655905E+02  0.23868089740E+01  0.43400724907E+02  0.00000000000E+00 0.  1.
         11    1    3    3    0    0  0.58291573250E+01  0.15308746273E+02  0.53153253012E+01  0.17221773163E+02  0.51100000000E-03 0.  1.
        -11    1    3    3    0    0 -0.33510444759E+00  0.75019613093E+01  0.14311805016E+01  0.76446057037E+01  0.51100000000E-03 0. -1.
        -12    1    3    3    0    0 -0.45920518621E+01  0.20514948322E+02 -0.91333147767E+01  0.22920896226E+02  0.00000000000E+00 0.  1.
</event>
<event>
 7    1  0.4519225E-009  0.4778727E+02  0.7816164E-02  0.1312668E+00
        -11   -1    0    0    0    0  0.00000000000E+00  0.00000000000E+00  0.45593999997E+02  0.45594000000E+02  0.51100000000E-03 0.  1.
         11   -1    0    0    0    0 -0.00000000000E+00 -0.00000000000E+00 -0.45593999997E+02  0.45594000000E+02  0.51100000000E-03 0. -1.
    9900012    2    1    2    0    0  0.13086845401E+01  0.36651950694E+02 -0.23206575814E+02  0.47787270675E+02  0.19999998318E+02 0.  0.
        -12    1    1    2    0    0 -0.13086845401E+01 -0.36651950694E+02  0.23206575814E+02  0.43400729325E+02  0.00000000000E+00 0.  1.
         11    1    3    3    0    0 -0.17962421993E+01 -0.10317426639E+01 -0.76646423811E+00  0.22087205918E+01  0.51100000000E-03 0. -1.
        -11    1    3    3    0    0  0.28730323476E+01  0.20871675104E+01 -0.44510126106E+01  0.56940404466E+01  0.51100000000E-03 0.  1.
         12    1    3    3    0    0  0.23189439180E+00  0.35596525848E+02 -0.17989098965E+02  0.39884509637E+02  0.00000000000E+00 0. -1.
</event>
<event>
 7    1  0.4519225E-009  0.4778726E+02  0.7816164E-02  0.1312668E+00
        -11   -1    0    0    0    0  0.00000000000E+00  0.00000000000E+00  0.45593999997E+02  0.45594000000E+02  0.51100000000E-03 0.  1.
         11   -1    0    0    0    0 -0.00000000000E+00 -0.00000000000E+00 -0.45593999997E+02  0.45594000000E+02  0.51100000000E-03 0. -1.
    9900012    2    1    2    0    0  0.16979060403E+02 -0.28173913169E+02 -0.28311950043E+02  0.47787258179E+02  0.19999941340E+02 0.  0.
        -12    1    1    2    0    0 -0.16979060403E+02  0.28173913169E+02  0.28311950043E+02  0.43400741821E+02  0.00000000000E+00 0.  1.
         11    1    3    3    0    0  0.66482221238E+01 -0.23496170140E+02 -0.21999118349E+02  0.32866853775E+02  0.51100000000E-03 0. -1.
        -11    1    3    3    0    0  0.52480521586E+01 -0.22739330345E+01 -0.72350477336E+01  0.92227294698E+01  0.51100000000E-03 0.  1.
         12    1    3    3    0    0  0.50827861203E+01 -0.24038099943E+01  0.92221603941E+00  0.56976749343E+01  0.00000000000E+00 0. -1.
</event>
<event>
 7    1  0.4519225E-009  0.4778727E+02  0.7816164E-02  0.1312668E+00
        -11   -1    0    0    0    0  0.00000000000E+00  0.00000000000E+00  0.45593999997E+02  0.45594000000E+02  0.51100000000E-03 0. -1.
         11   -1    0    0    0    0 -0.00000000000E+00 -0.00000000000E+00 -0.45593999997E+02  0.45594000000E+02  0.51100000000E-03 0.  1.
    9900012    2    1    2    0    0  0.29779548780E+02 -0.30872285136E+02  0.66108760467E+01  0.47787271928E+02  0.20000004029E+02 0.  0.
        -12    1    1    2    0    0 -0.29779548780E+02  0.30872285136E+02 -0.66108760467E+01  0.43400728072E+02  0.00000000000E+00 0.  1.
         11    1    3    3    0    0  0.14543163249E+02 -0.56345047301E+01  0.55000711503E+01  0.16537896594E+02  0.51100000000E-03 0. -1.
        -11    1    3    3    0    0  0.35390232291E+01 -0.67442450833E+01  0.48787013109E+01  0.90449573743E+01  0.51100000000E-03 0.  1.
         12    1    3    3    0    0  0.11697362303E+02 -0.18493535322E+02 -0.37678964144E+01  0.22204417960E+02  0.00000000000E+00 0. -1.
</event>
<event>
 7    1  0.4519225E-009  0.4778725E+02  0.7816164E-02  0.1312668E+00
        -11   -1    0    0    0    0  0.00000000000E+00  0.00000000000E+00  0.45593999997E+02  0.45594000000E+02  0.51100000000E-03 0. -1.
         11   -1    0    0    0    0 -0.00000000000E+00 -0.00000000000E+00 -0.45593999997E+02  0.45594000000E+02  0.51100000000E-03 0.  1.
    9900012    2    1    2    0    0 -0.39023099709E+02  0.10384494927E+02  0.15905492790E+02  0.47787254077E+02  0.19999922639E+02 0.  0.
        -12    1    1    2    0    0  0.39023099709E+02 -0.10384494927E+02 -0.15905492790E+02  0.43400745923E+02  0.00000000000E+00 0.  1.
         11    1    3    3    0    0 -0.17289630669E+02  0.61311390360E+01  0.11604703560E+02  0.21706942197E+02  0.51100000000E-03 0. -1.
        -11    1    3    3    0    0  0.85354640451E-01 -0.39094870552E+00  0.37444172385E+01  0.37657385759E+01  0.51100000000E-03 0.  1.
         12    1    3    3    0    0 -0.21818823680E+02  0.46443045962E+01  0.55637199137E+00  0.22314573304E+02  0.00000000000E+00 0. -1.
</event>
<event>
 7    1  0.4519225E-009  0.4778727E+02  0.7816164E-02  0.1312668E+00
        -11   -1    0    0    0    0  0.00000000000E+00  0.00000000000E+00  0.45593999997E+02  0.45594000000E+02  0.51100000000E-03 0.  1.
         11   -1    0    0    0    0 -0.00000000000E+00 -0.00000000000E+00 -0.45593999997E+02  0.45594000000E+02  0.51100000000E-03 0. -1.
    9900012    2    1    2    0    0  0.52051827083E+01  0.40658341283E+02  0.14262849893E+02  0.47787268094E+02  0.19999986549E+02 0.  0.
        -12    1    1    2    0    0 -0.52051827083E+01 -0.40658341283E+02 -0.14262849893E+02  0.43400731906E+02  0.00000000000E+00 0.  1.
         11    1    3    3    0    0  0.42043275084E+01  0.29719066387E+02  0.56242689607E+01  0.30537381655E+02  0.51100000000E-03 0. -1.
        -11    1    3    3    0    0 -0.34881035162E+01  0.71845624875E+01  0.16867401131E+01  0.81627138102E+01  0.51100000000E-03 0.  1.
         12    1    3    3    0    0  0.44889587161E+01  0.37547124080E+01  0.69518408193E+01  0.90871726295E+01  0.00000000000E+00 0. -1.
</event>
<event>
 7    1  0.4519225E-009  0.4778727E+02  0.7816164E-02  0.1312668E+00
        -11   -1    0    0    0    0  0.00000000000E+00  0.00000000000E+00  0.45593999997E+02  0.45594000000E+02  0.51100000000E-03 0.  1.
         11   -1    0    0    0    0 -0.00000000000E+00 -0.00000000000E+00 -0.45593999997E+02  0.45594000000E+02  0.51100000000E-03 0. -1.
    9900012    2    1    2    0    0  0.24129883941E+02  0.13633712109E+02 -0.33399005525E+02  0.47787274488E+02  0.20000015701E+02 0.  0.
        -12    1    1    2    0    0 -0.24129883941E+02 -0.13633712109E+02  0.33399005525E+02  0.43400725512E+02  0.00000000000E+00 0.  1.
         11    1    3    3    0    0  0.19957222122E+01  0.37488582220E+01 -0.63789183818E+01  0.76633833977E+01  0.51100000000E-03 0. -1.
        -11    1    3    3    0    0  0.15853616340E+02  0.15171309186E+01 -0.24728727261E+02  0.29413411728E+02  0.51100000000E-03 0.  1.
        -12    1    3    3    0    0  0.62805453897E+01  0.83677229684E+01 -0.22913598826E+01  0.10710479363E+02  0.00000000000E+00 0.  1.
</event>
<event>
 7    1  0.4519225E-009  0.4778727E+02  0.7816164E-02  0.1312668E+00
        -11   -1    0    0    0    0  0.00000000000E+00  0.00000000000E+00  0.45593999997E+02  0.45594000000E+02  0.51100000000E-03 0. -1.
         11   -1    0    0    0    0 -0.00000000000E+00 -0.00000000000E+00 -0.45593999997E+02  0.45594000000E+02  0.51100000000E-03 0.  1.
    9900012    2    1    2    0    0 -0.25180834403E+02 -0.17595105946E+01 -0.35305142993E+02  0.47787269355E+02  0.19999992297E+02 0.  0.
        -12    1    1    2    0    0  0.25180834403E+02  0.17595105946E+01  0.35305142993E+02  0.43400730645E+02  0.00000000000E+00 0.  1.
         11    1    3    3    0    0 -0.85723750389E+01 -0.38748851645E+01 -0.16837288036E+01  0.95569499209E+01  0.51100000000E-03 0. -1.
        -11    1    3    3    0    0 -0.52963737806E+01 -0.26493642355E+01 -0.10747418866E+02  0.12271011312E+02  0.51100000000E-03 0.  1.
         12    1    3    3    0    0 -0.11312085584E+02  0.47647388054E+01 -0.22873995323E+02  0.25959308122E+02  0.00000000000E+00 0. -1.
</event>
<event>
 7    1  0.4519225E-009  0.4778727E+02  0.7816164E-02  0.1312668E+00
        -11   -1    0    0    0    0  0.00000000000E+00  0.00000000000E+00  0.45593999997E+02  0.45594000000E+02  0.51100000000E-03 0.  1.
         11   -1    0    0    0    0 -0.00000000000E+00 -0.00000000000E+00 -0.45593999997E+02  0.45594000000E+02  0.51100000000E-03 0. -1.
    9900012    2    1    2    0    0  0.41395367686E+02  0.10469165800E+02 -0.77745410602E+01  0.47787269740E+02  0.19999994053E+02 0.  0.
        -12    1    1    2    0    0 -0.41395367686E+02 -0.10469165800E+02  0.77745410602E+01  0.43400730260E+02  0.00000000000E+00 0.  1.
         11    1    3    3    0    0  0.19877185618E+02  0.65004233739E+01 -0.13027089326E+02  0.24638649896E+02  0.51100000000E-03 0. -1.
        -11    1    3    3    0    0  0.90194170195E+01  0.43660460053E+01  0.28112812227E+01  0.10407475365E+02  0.51100000000E-03 0.  1.
         12    1    3    3    0    0  0.12498765049E+02 -0.39730357928E+00  0.24412670428E+01  0.12741144480E+02  0.00000000000E+00 0. -1.
</event>
<event>
 7    1  0.4519225E-009  0.4778727E+02  0.7816164E-02  0.1312668E+00
        -11   -1    0    0    0    0  0.00000000000E+00  0.00000000000E+00  0.45593999997E+02  0.45594000000E+02  0.51100000000E-03 0. -1.
         11   -1    0    0    0    0 -0.00000000000E+00 -0.00000000000E+00 -0.45593999997E+02  0.45594000000E+02  0.51100000000E-03 0.  1.
    9900012    2    1    2    0    0 -0.99786067587E+01 -0.42215268069E+02  0.13863162422E+01  0.47787270471E+02  0.19999997384E+02 0.  0.
        -12    1    1    2    0    0  0.99786067587E+01  0.42215268069E+02 -0.13863162422E+01  0.43400729529E+02  0.00000000000E+00 0.  1.
         11    1    3    3    0    0 -0.11551616033E+01 -0.11941421741E+02  0.38262911343E+01  0.12592555564E+02  0.51100000000E-03 0. -1.
        -11    1    3    3    0    0 -0.78887881097E+01 -0.66565823452E+01  0.33648568403E+01  0.10856579948E+02  0.51100000000E-03 0.  1.
         12    1    3    3    0    0 -0.93465704567E+00 -0.23617263982E+02 -0.58048317324E+01  0.24338134958E+02  0.00000000000E+00 0. -1.
</event>
<event>
 7    1  0.4519225E-009  0.4778728E+02  0.7816164E-02  0.1312668E+00
        -11   -1    0    0    0    0  0.00000000000E+00  0.00000000000E+00  0.45593999997E+02  0.45594000000E+02  0.51100000000E-03 0.  1.
         11   -1    0    0    0    0 -0.00000000000E+00 -0.00000000000E+00 -0.45593999997E+02  0.45594000000E+02  0.51100000000E-03 0. -1.
    9900012    2    1    2    0    0 -0.17011292290E+02 -0.20595038792E+02 -0.34206476786E+02  0.47787277168E+02  0.20000027919E+02 0.  0.
        -12    1    1    2    0    0  0.17011292290E+02  0.20595038792E+02  0.34206476786E+02  0.43400722832E+02  0.00000000000E+00 0.  1.
         11    1    3    3    0    0 -0.52658895322E+01 -0.10819717574E+02 -0.13448537836E+02  0.18046025909E+02  0.51100000000E-03 0. -1.
        -11    1    3    3    0    0 -0.64529924418E+01 -0.80498742619E+01 -0.24475414012E+01  0.10603397864E+02  0.51100000000E-03 0.  1.
        -12    1    3    3    0    0 -0.52924103156E+01 -0.17254469569E+01 -0.18310397549E+02  0.19137853395E+02  0.00000000000E+00 0.  1.
</event>
<event>
 7    1  0.4519225E-009  0.4778726E+02  0.7816164E-02  0.1312668E+00
        -11   -1    0    0    0    0  0.00000000000E+00  0.00000000000E+00  0.45593999997E+02  0.45594000000E+02  0.51100000000E-03 0. -1.
         11   -1    0    0    0    0 -0.00000000000E+00 -0.00000000000E+00 -0.45593999997E+02  0.45594000000E+02  0.51100000000E-03 0.  1.
    9900012    2    1    2    0    0 -0.30362626461E+02  0.87188384118E+01  0.29760991401E+02  0.47787264545E+02  0.19999970365E+02 0.  0.
        -12    1    1    2    0    0  0.30362626461E+02 -0.87188384118E+01 -0.29760991401E+02  0.43400735455E+02  0.00000000000E+00 0.  1.
         11    1    3    3    0    0 -0.24028056568E+02  0.82527526139E+01  0.15135360837E+02  0.29572530769E+02  0.51100000000E-03 0. -1.
        -11    1    3    3    0    0 -0.84114009824E+01  0.13246351564E+01  0.12476056390E+02  0.15104910065E+02  0.51100000000E-03 0.  1.
        -12    1    3    3    0    0  0.20768310898E+01 -0.85854935854E+00  0.21495741747E+01  0.31098237103E+01  0.00000000000E+00 0.  1.
</event>
<event>
 7    1  0.4519225E-009  0.4778721E+02  0.7816164E-02  0.1312668E+00
        -11   -1    0    0    0    0  0.00000000000E+00  0.00000000000E+00  0.45593999997E+02  0.45594000000E+02  0.51100000000E-03 0. -1.
         11   -1    0    0    0    0 -0.00000000000E+00 -0.00000000000E+00 -0.45593999997E+02  0.45594000000E+02  0.51100000000E-03 0.  1.
    9900012    2    1    2    0    0  0.41129496162E+02 -0.10368821438E+02  0.91913207028E+01  0.47787213270E+02  0.19999736582E+02 0.  0.
        -12    1    1    2    0    0 -0.41129496162E+02  0.10368821438E+02 -0.91913207028E+01  0.43400786730E+02  0.00000000000E+00 0.  1.
         11    1    3    3    0    0  0.14946334465E+02  0.20017416542E+01  0.75704238465E+01  0.16873387362E+02  0.51100000000E-03 0. -1.
        -11    1    3    3    0    0  0.17955752121E+02 -0.26757754898E+01  0.78177446865E+00  0.18170855244E+02  0.51100000000E-03 0.  1.
        -12    1    3    3    0    0  0.82274095750E+01 -0.96947876019E+01  0.83912238764E+00  0.12742970664E+02  0.00000000000E+00 0.  1.
</event>
<event>
 7    1  0.4519225E-009  0.4778727E+02  0.7816164E-02  0.1312668E+00
        -11   -1    0    0    0    0  0.00000000000E+00  0.00000000000E+00  0.45593999997E+02  0.45594000000E+02  0.51100000000E-03 0.  1.
         11   -1    0    0    0    0 -0.00000000000E+00 -0.00000000000E+00 -0.45593999997E+02  0.45594000000E+02  0.51100000000E-03 0. -1.
    9900012    2    1    2    0    0  0.26086815951E+01  0.20534922772E+02 -0.38146237458E+02  0.47787266077E+02  0.19999977349E+02 0.  0.
        -12    1    1    2    0    0 -0.26086815951E+01 -0.20534922772E+02  0.38146237458E+02  0.43400733923E+02  0.00000000000E+00 0.  1.
         11    1    3    3    0    0 -0.66530496391E+01  0.14661639842E+02 -0.20543730727E+02  0.26101180525E+02  0.51100000000E-03 0. -1.
        -11    1    3    3    0    0  0.25919839615E+01  0.51606739600E+01 -0.63276896741E+01  0.85668310040E+01  0.51100000000E-03 0.  1.
        -12    1    3    3    0    0  0.66697472727E+01  0.71260897038E+00 -0.11274817057E+02  0.13119254548E+02  0.00000000000E+00 0.  1.
</event>
<event>
 7    1  0.4519225E-009  0.4778727E+02  0.7816164E-02  0.1312668E+00
        -11   -1    0    0    0    0  0.00000000000E+00  0.00000000000E+00  0.45593999997E+02  0.45594000000E+02  0.51100000000E-03 0.  1.
         11   -1    0    0    0    0 -0.00000000000E+00 -0.00000000000E+00 -0.45593999997E+02  0.45594000000E+02  0.51100000000E-03 0. -1.
    9900012    2    1    2    0    0 -0.15252386727E+02 -0.18531274626E+02 -0.36160476668E+02  0.47787268289E+02  0.19999987439E+02 0.  0.
        -12    1    1    2    0    0  0.15252386727E+02  0.18531274626E+02  0.36160476668E+02  0.43400731711E+02  0.00000000000E+00 0.  1.
         11    1    3    3    0    0 -0.86232452928E+01 -0.51110195002E+01 -0.21989567549E+02  0.24166587698E+02  0.51100000000E-03 0. -1.
        -11    1    3    3    0    0 -0.79432496926E+01 -0.32452512403E+01 -0.73752306387E+01  0.11314632054E+02  0.51100000000E-03 0.  1.
         12    1    3    3    0    0  0.13141082587E+01 -0.10175003886E+02 -0.67956784809E+01  0.12306048537E+02  0.00000000000E+00 0. -1.
</event>
<event>
 7    1  0.4519225E-009  0.4778728E+02  0.7816164E-02  0.1312668E+00
        -11   -1    0    0    0    0  0.00000000000E+00  0.00000000000E+00  0.45593999997E+02  0.45594000000E+02  0.51100000000E-03 0. -1.
         11   -1    0    0    0    0 -0.00000000000E+00 -0.00000000000E+00 -0.45593999997E+02  0.45594000000E+02  0.51100000000E-03 0.  1.
    9900012    2    1    2    0    0  0.63368264887E+00 -0.18118052512E+02  0.39432946429E+02  0.47787278294E+02  0.20000033053E+02 0.  0.
        -12    1    1    2    0    0 -0.63368264887E+00  0.18118052512E+02 -0.39432946429E+02  0.43400721706E+02  0.00000000000E+00 0.  1.
         11    1    3    3    0    0 -0.15609171441E+01 -0.59141004031E+01  0.10772489052E+02  0.12387879825E+02  0.51100000000E-03 0. -1.
        -11    1    3    3    0    0  0.37300618476E+01 -0.57759236521E+01  0.98508275354E+00  0.69458652243E+01  0.51100000000E-03 0.  1.
        -12    1    3    3    0    0 -0.15354620547E+01 -0.64280284570E+01  0.27675374623E+02  0.28453533245E+02  0.00000000000E+00 0.  1.
</event>
<event>
 7    1  0.4519225E-009  0.4778728E+02  0.7816164E-02  0.1312668E+00
        -11   -1    0    0    0    0  0.00000000000E+00  0.00000000000E+00  0.45593999997E+02  0.45594000000E+02  0.51100000000E-03 0.  1.
         11   -1    0    0    0    0 -0.00000000000E+00 -0.00000000000E+00 -0.45593999997E+02  0.45594000000E+02  0.51100000000E-03 0. -1.
    9900012    2    1    2    0    0 -0.31667783144E+02  0.11786308012E+01 -0.29654430515E+02  0.47787275248E+02  0.20000019164E+02 0.  0.
        -12    1    1    2    0    0  0.31667783144E+02 -0.11786308012E+01  0.29654430515E+02  0.43400724752E+02  0.00000000000E+00 0.  1.
         11    1    3    3    0    0 -0.38965227940E+01 -0.11228900980E+01  0.67518520703E+00  0.41109180704E+01  0.51100000000E-03 0. -1.
        -11    1    3    3    0    0 -0.13701716131E+02 -0.18246528913E+01 -0.55733634565E+01  0.14903984822E+02  0.51100000000E-03 0.  1.
        -12    1    3    3    0    0 -0.14069544220E+02  0.41261737905E+01 -0.24756252266E+02  0.28772372355E+02  0.00000000000E+00 0.  1.
</event>
<event>
 7    1  0.4519225E-009  0.4778727E+02  0.7816164E-02  0.1312668E+00
        -11   -1    0    0    0    0  0.00000000000E+00  0.00000000000E+00  0.45593999997E+02  0.45594000000E+02  0.51100000000E-03 0. -1.
         11   -1    0    0    0    0 -0.00000000000E+00 -0.00000000000E+00 -0.45593999997E+02  0.45594000000E+02  0.51100000000E-03 0.  1.
    9900012    2    1    2    0    0 -0.34879280477E+02  0.25402734739E+02 -0.46647556096E+01  0.47787273235E+02  0.20000009988E+02 0.  0.
        -12    1    1    2    0    0  0.34879280477E+02 -0.25402734739E+02  0.46647556096E+01  0.43400726765E+02  0.00000000000E+00 0.  1.
         11    1    3    3    0    0 -0.51273886257E+01  0.34059581193E+01 -0.35564629456E+01  0.71090852980E+01  0.51100000000E-03 0. -1.
        -11    1    3    3    0    0 -0.10727034191E+02  0.13762197668E+02 -0.74885921672E+01  0.18988058355E+02  0.51100000000E-03 0.  1.
         12    1    3    3    0    0 -0.19024857661E+02  0.82345789513E+01  0.63802995032E+01  0.21690129582E+02  0.00000000000E+00 0. -1.
</event>
<event>
 7    1  0.4519225E-009  0.4778726E+02  0.7816164E-02  0.1312668E+00
        -11   -1    0    0    0    0  0.00000000000E+00  0.00000000000E+00  0.45593999997E+02  0.45594000000E+02  0.51100000000E-03 0.  1.
         11   -1    0    0    0    0 -0.00000000000E+00 -0.00000000000E+00 -0.45593999997E+02  0.45594000000E+02  0.51100000000E-03 0. -1.
    9900012    2    1    2    0    0 -0.25913916901E+02 -0.28548803740E+02 -0.19926328473E+02  0.47787264401E+02  0.19999969711E+02 0.  0.
        -12    1    1    2    0    0  0.25913916901E+02  0.28548803740E+02  0.19926328473E+02  0.43400735599E+02  0.00000000000E+00 0.  1.
         11    1    3    3    0    0 -0.55558309714E+01 -0.72590945582E+01 -0.26512406202E+01  0.95179193459E+01  0.51100000000E-03 0. -1.
        -11    1    3    3    0    0  0.18820716128E+01 -0.29807483220E+01  0.15561409353E+01  0.38533918807E+01  0.51100000000E-03 0.  1.
         12    1    3    3    0    0 -0.22240157542E+02 -0.18308960859E+02 -0.18831228788E+02  0.34415953175E+02  0.00000000000E+00 0. -1.
</event>
<event>
 7    1  0.4519225E-009  0.4778727E+02  0.7816164E-02  0.1312668E+00
        -11   -1    0    0    0    0  0.00000000000E+00  0.00000000000E+00  0.45593999997E+02  0.45594000000E+02  0.51100000000E-03 0.  1.
         11   -1    0    0    0    0 -0.00000000000E+00 -0.00000000000E+00 -0.45593999997E+02  0.45594000000E+02  0.51100000000E-03 0. -1.
    9900012    2    1    2    0    0  0.40281590756E+02 -0.22632225277E+01 -0.15996706052E+02  0.47787270346E+02  0.19999996813E+02 0.  0.
        -12    1    1    2    0    0 -0.40281590756E+02  0.22632225277E+01  0.15996706052E+02  0.43400729654E+02  0.00000000000E+00 0.  1.
         11    1    3    3    0    0  0.21549577553E+02 -0.51559701026E+01 -0.35355906010E+01  0.22438108690E+02  0.51100000000E-03 0. -1.
        -11    1    3    3    0    0  0.44792305603E+00 -0.28491886796E+01 -0.12239588144E+01  0.31331432519E+01  0.51100000000E-03 0.  1.
         12    1    3    3    0    0  0.18284090146E+02  0.57419362546E+01 -0.11237156637E+02  0.22216018404E+02  0.00000000000E+00 0. -1.
</event>
<event>
 7    1  0.4519225E-009  0.4778727E+02  0.7816164E-02  0.1312668E+00
        -11   -1    0    0    0    0  0.00000000000E+00  0.00000000000E+00  0.45593999997E+02  0.45594000000E+02  0.51100000000E-03 0.  1.
         11   -1    0    0    0    0 -0.00000000000E+00 -0.00000000000E+00 -0.45593999997E+02  0.45594000000E+02  0.51100000000E-03 0. -1.
    9900012    2    1    2    0    0  0.30269766081E+02 -0.27807748980E+02 -0.13931756925E+02  0.47787268521E+02  0.19999988494E+02 0.  0.
        -12    1    1    2    0    0 -0.30269766081E+02  0.27807748980E+02  0.13931756925E+02  0.43400731479E+02  0.00000000000E+00 0.  1.
         11    1    3    3    0    0  0.78925401130E+01 -0.96862565377E+01  0.17069925038E+01  0.12610693035E+02  0.51100000000E-03 0. -1.
        -11    1    3    3    0    0  0.73083060157E+00 -0.71452479248E+01 -0.44693959913E+01  0.84595615763E+01  0.51100000000E-03 0.  1.
        -12    1    3    3    0    0  0.21646395366E+02 -0.10976244517E+02 -0.11169353437E+02  0.26717013910E+02  0.00000000000E+00 0.  1.
</event>
<event>
 7    1  0.4519225E-009  0.4778727E+02  0.7816164E-02  0.1312668E+00
        -11   -1    0    0    0    0  0.00000000000E+00  0.00000000000E+00  0.45593999997E+02  0.45594000000E+02  0.51100000000E-03 0.  1.
         11   -1    0    0    0    0 -0.00000000000E+00 -0.00000000000E+00 -0.45593999997E+02  0.45594000000E+02  0.51100000000E-03 0. -1.
    9900012    2    1    2    0    0  0.13238986097E+02  0.21178103854E+02 -0.35494228026E+02  0.47787273522E+02  0.20000011294E+02 0.  0.
        -12    1    1    2    0    0 -0.13238986097E+02 -0.21178103854E+02  0.35494228026E+02  0.43400726478E+02  0.00000000000E+00 0.  1.
         11    1    3    3    0    0  0.35222300640E+01  0.74533735245E+01 -0.16810070259E+02  0.18722642546E+02  0.51100000000E-03 0. -1.
        -11    1    3    3    0    0  0.10608625723E+02  0.80806019769E+01 -0.19145198112E+02  0.23331902602E+02  0.51100000000E-03 0.  1.
        -12    1    3    3    0    0 -0.89186968990E+00  0.56441283526E+01  0.46104034550E+00  0.57327283735E+01  0.00000000000E+00 0.  1.
</event>
<event>
 7    1  0.4519225E-009  0.4778727E+02  0.7816164E-02  0.1312668E+00
        -11   -1    0    0    0    0  0.00000000000E+00  0.00000000000E+00  0.45593999997E+02  0.45594000000E+02  0.51100000000E-03 0.  1.
         11   -1    0    0    0    0 -0.00000000000E+00 -0.00000000000E+00 -0.45593999997E+02  0.45594000000E+02  0.51100000000E-03 0. -1.
    9900012    2    1    2    0    0 -0.27571338163E+02  0.32988275392E+02 -0.59345233954E+01  0.47787267640E+02  0.19999984479E+02 0.  0.
        -12    1    1    2    0    0  0.27571338163E+02 -0.32988275392E+02  0.59345233954E+01  0.43400732360E+02  0.00000000000E+00 0.  1.
         11    1    3    3    0    0 -0.72193778050E+01  0.12308320749E+02 -0.54504307862E+01  0.15274860770E+02  0.51100000000E-03 0. -1.
        -11    1    3    3    0    0  0.14903636924E+01 -0.42931359970E+00  0.13847466371E+01  0.20791867672E+01  0.51100000000E-03 0.  1.
        -12    1    3    3    0    0 -0.21842324050E+02  0.21109268243E+02 -0.18688392463E+01  0.30433220103E+02  0.00000000000E+00 0.  1.
</event>
<event>
 7    1  0.4519225E-009  0.4778727E+02  0.7816164E-02  0.1312668E+00
        -11   -1    0    0    0    0  0.00000000000E+00  0.00000000000E+00  0.45593999997E+02  0.45594000000E+02  0.51100000000E-03 0. -1.
         11   -1    0    0    0    0 -0.00000000000E+00 -0.00000000000E+00 -0.45593999997E+02  0.45594000000E+02  0.51100000000E-03 0.  1.
    9900012    2    1    2    0    0  0.32727203989E+01 -0.11127395347E+02  0.41822166869E+02  0.47787271117E+02  0.20000000329E+02 0.  0.
        -12    1    1    2    0    0 -0.32727203989E+01  0.11127395347E+02 -0.41822166869E+02  0.43400728883E+02  0.00000000000E+00 0.  1.
         11    1    3    3    0    0  0.41660424553E+01  0.34257150505E+01  0.90294343802E+01  0.10517705017E+02  0.51100000000E-03 0. -1.
        -11    1    3    3    0    0  0.52724241893E+00  0.85110547944E+00 -0.10978430937E-01  0.10012421748E+01  0.51100000000E-03 0.  1.
         12    1    3    3    0    0 -0.14205644753E+01 -0.15404215877E+02  0.32803710919E+02  0.36268323924E+02  0.00000000000E+00 0. -1.
</event>
<event>
 7    1  0.4519225E-009  0.4778727E+02  0.7816164E-02  0.1312668E+00
        -11   -1    0    0    0    0  0.00000000000E+00  0.00000000000E+00  0.45593999997E+02  0.45594000000E+02  0.51100000000E-03 0.  1.
         11   -1    0    0    0    0 -0.00000000000E+00 -0.00000000000E+00 -0.45593999997E+02  0.45594000000E+02  0.51100000000E-03 0. -1.
    9900012    2    1    2    0    0 -0.34938541216E+02 -0.20703367267E+02 -0.15306612790E+02  0.47787268744E+02  0.19999989509E+02 0.  0.
        -12    1    1    2    0    0  0.34938541216E+02  0.20703367267E+02  0.15306612790E+02  0.43400731256E+02  0.00000000000E+00 0.  1.
         11    1    3    3    0    0 -0.14623958881E+02 -0.51266130514E+01 -0.94538203121E+01  0.18152604592E+02  0.51100000000E-03 0. -1.
        -11    1    3    3    0    0 -0.10927013694E+02 -0.17386255475E+01 -0.66227694077E+01  0.12895096818E+02  0.51100000000E-03 0.  1.
        -12    1    3    3    0    0 -0.93875686419E+01 -0.13838128668E+02  0.76997693015E+00  0.16739567333E+02  0.00000000000E+00 0.  1.
</event>
<event>
 7    1  0.4519225E-009  0.4778727E+02  0.7816164E-02  0.1312668E+00
        -11   -1    0    0    0    0  0.00000000000E+00  0.00000000000E+00  0.45593999997E+02  0.45594000000E+02  0.51100000000E-03 0.  1.
         11   -1    0    0    0    0 -0.00000000000E+00 -0.00000000000E+00 -0.45593999997E+02  0.45594000000E+02  0.51100000000E-03 0. -1.
    9900012    2    1    2    0    0 -0.48544191947E+01 -0.28602905617E+02 -0.32278965676E+02  0.47787271659E+02  0.20000002801E+02 0.  0.
        -12    1    1    2    0    0  0.48544191947E+01  0.28602905617E+02  0.32278965676E+02  0.43400728341E+02  0.00000000000E+00 0.  1.
         11    1    3    3    0    0 -0.20438024343E+01 -0.23327359060E+02 -0.17952898487E+02  0.29506768265E+02  0.51100000000E-03 0. -1.
        -11    1    3    3    0    0 -0.19986095899E+01 -0.67386065422E+01 -0.45741387885E+01  0.83860601203E+01  0.51100000000E-03 0.  1.
        -12    1    3    3    0    0 -0.81200717053E+00  0.14630599854E+01 -0.97519284001E+01  0.98944432732E+01  0.00000000000E+00 0.  1.
</event>
<event>
 7    1  0.4519225E-009  0.4778727E+02  0.7816164E-02  0.1312668E+00
        -11   -1    0    0    0    0  0.00000000000E+00  0.00000000000E+00  0.45593999997E+02  0.45594000000E+02  0.51100000000E-03 0. -1.
         11   -1    0    0    0    0 -0.00000000000E+00 -0.00000000000E+00 -0.45593999997E+02  0.45594000000E+02  0.51100000000E-03 0.  1.
    9900012    2    1    2    0    0 -0.63931043145E+01  0.23756581839E+02  0.35754384539E+02  0.47787274462E+02  0.20000015581E+02 0.  0.
        -12    1    1    2    0    0  0.63931043145E+01 -0.23756581839E+02 -0.35754384539E+02  0.43400725538E+02  0.00000000000E+00 0.  1.
         11    1    3    3    0    0  0.23932315552E+00  0.20593004506E+01  0.12195321569E+02  0.12370281418E+02  0.51100000000E-03 0. -1.
        -11    1    3    3    0    0  0.73804725986E+00  0.14065917861E+02  0.19505479318E+02  0.24059478023E+02  0.51100000000E-03 0.  1.
        -12    1    3    3    0    0 -0.73704747299E+01  0.76313635277E+01  0.40535836519E+01  0.11357515021E+02  0.00000000000E+00 0.  1.
</event>
<event>
 7    1  0.4519225E-009  0.4778727E+02  0.7816164E-02  0.1312668E+00
        -11   -1    0    0    0    0  0.00000000000E+00  0.00000000000E+00  0.45593999997E+02  0.45594000000E+02  0.51100000000E-03 0. -1.
         11   -1    0    0    0    0 -0.00000000000E+00 -0.00000000000E+00 -0.45593999997E+02  0.45594000000E+02  0.51100000000E-03 0.  1.
    9900012    2    1    2    0    0 -0.31726132526E+02 -0.14830157356E+02  0.25634786264E+02  0.47787270524E+02  0.19999997626E+02 0.  0.
        -12    1    1    2    0    0  0.31726132526E+02  0.14830157356E+02 -0.25634786264E+02  0.43400729476E+02  0.00000000000E+00 0.  1.
         11    1    3    3    0    0 -0.46534151199E+00 -0.12352167666E+01 -0.56283149579E+00  0.14349504302E+01  0.51100000000E-03 0. -1.
        -11    1    3    3    0    0 -0.37964377968E+01 -0.37660529956E+01  0.13533570621E+02  0.14551756908E+02  0.51100000000E-03 0.  1.
         12    1    3    3    0    0 -0.27464353217E+02 -0.98288875940E+01  0.12664047140E+02  0.31800563185E+02  0.00000000000E+00 0. -1.
</event>
<event>
 7    1  0.4519225E-009  0.4778727E+02  0.7816164E-02  0.1312668E+00
        -11   -1    0    0    0    0  0.00000000000E+00  0.00000000000E+00  0.45593999997E+02  0.45594000000E+02  0.51100000000E-03 0.  1.
         11   -1    0    0    0    0 -0.00000000000E+00 -0.00000000000E+00 -0.45593999997E+02  0.45594000000E+02  0.51100000000E-03 0. -1.
    9900012    2    1    2    0    0 -0.16201816492E+02  0.30909549151E+02 -0.25801625329E+02  0.47787274707E+02  0.20000016698E+02 0.  0.
        -12    1    1    2    0    0  0.16201816492E+02 -0.30909549151E+02  0.25801625329E+02  0.43400725293E+02  0.00000000000E+00 0.  1.
         11    1    3    3    0    0 -0.11780630244E+01  0.12483709044E+02 -0.10944961203E+02  0.16644007931E+02  0.51100000000E-03 0. -1.
        -11    1    3    3    0    0  0.17904265990E+01  0.64252681064E+01 -0.28823869571E+01  0.72662130768E+01  0.51100000000E-03 0.  1.
        -12    1    3    3    0    0 -0.16814180067E+02  0.12000572001E+02 -0.11974277169E+02  0.23877053699E+02  0.00000000000E+00 0.  1.
</event>
<event>
 7    1  0.4519225E-009  0.4778728E+02  0.7816164E-02  0.1312668E+00
        -11   -1    0    0    0    0  0.00000000000E+00  0.00000000000E+00  0.45593999997E+02  0.45594000000E+02  0.51100000000E-03 0. -1.
         11   -1    0    0    0    0 -0.00000000000E+00 -0.00000000000E+00 -0.45593999997E+02  0.45594000000E+02  0.51100000000E-03 0.  1.
    9900012    2    1    2    0    0 -0.29888860710E+01  0.37536369899E+02  0.21580323934E+02  0.47787275510E+02  0.20000020361E+02 0.  0.
        -12    1    1    2    0    0  0.29888860710E+01 -0.37536369899E+02 -0.21580323934E+02  0.43400724490E+02  0.00000000000E+00 0.  1.
         11    1    3    3    0    0  0.41577064125E+01  0.79795853316E+01  0.61236064599E+01  0.10883880788E+02  0.51100000000E-03 0. -1.
        -11    1    3    3    0    0 -0.34217889742E+00 -0.13081070866E+01 -0.56858370549E+00  0.14668054537E+01  0.51100000000E-03 0.  1.
         12    1    3    3    0    0 -0.68044135861E+01  0.30864891654E+02  0.16025301179E+02  0.35436589268E+02  0.00000000000E+00 0. -1.
</event>
<event>
 7    1  0.4519225E-009  0.4778727E+02  0.7816164E-02  0.1312668E+00
        -11   -1    0    0    0    0  0.00000000000E+00  0.00000000000E+00  0.45593999997E+02  0.45594000000E+02  0.51100000000E-03 0.  1.
         11   -1    0    0    0    0 -0.00000000000E+00 -0.00000000000E+00 -0.45593999997E+02  0.45594000000E+02  0.51100000000E-03 0. -1.
    9900012    2    1    2    0    0  0.69630486229E+01 -0.14476542525E+02 -0.40318343884E+02  0.47787272090E+02  0.20000004766E+02 0.  0.
        -12    1    1    2    0    0 -0.69630486229E+01  0.14476542525E+02  0.40318343884E+02  0.43400727910E+02  0.00000000000E+00 0.  1.
         11    1    3    3    0    0 -0.20955596172E+01 -0.24726100581E+01 -0.21417204126E+01  0.38848599969E+01  0.51100000000E-03 0. -1.
        -11    1    3    3    0    0  0.10753387008E+02 -0.24524042881E+01 -0.13797100648E+02  0.17663793633E+02  0.51100000000E-03 0.  1.
         12    1    3    3    0    0 -0.16947787680E+01 -0.95515281793E+01 -0.24379522823E+02  0.26238618460E+02  0.00000000000E+00 0. -1.
</event>
<event>
 7    1  0.4519225E-009  0.4778727E+02  0.7816164E-02  0.1312668E+00
        -11   -1    0    0    0    0  0.00000000000E+00  0.00000000000E+00  0.45593999997E+02  0.45594000000E+02  0.51100000000E-03 0. -1.
         11   -1    0    0    0    0 -0.00000000000E+00 -0.00000000000E+00 -0.45593999997E+02  0.45594000000E+02  0.51100000000E-03 0.  1.
    9900012    2    1    2    0    0 -0.17138259602E+02  0.15707288779E+02  0.36649481465E+02  0.47787270114E+02  0.19999995756E+02 0.  0.
        -12    1    1    2    0    0  0.17138259602E+02 -0.15707288779E+02 -0.36649481465E+02  0.43400729886E+02  0.00000000000E+00 0.  1.
         11    1    3    3    0    0 -0.13030687243E+02  0.12579282363E+02  0.27835848887E+02  0.33209511263E+02  0.51100000000E-03 0. -1.
        -11    1    3    3    0    0 -0.74400502092E+01  0.28612856458E+01  0.76212094122E+01  0.11028333321E+02  0.51100000000E-03 0.  1.
        -12    1    3    3    0    0  0.33324778496E+01  0.26672076991E+00  0.11924231660E+01  0.35494255301E+01  0.00000000000E+00 0.  1.
</event>
<event>
 7    1  0.4519225E-009  0.4778728E+02  0.7816164E-02  0.1312668E+00
        -11   -1    0    0    0    0  0.00000000000E+00  0.00000000000E+00  0.45593999997E+02  0.45594000000E+02  0.51100000000E-03 0.  1.
         11   -1    0    0    0    0 -0.00000000000E+00 -0.00000000000E+00 -0.45593999997E+02  0.45594000000E+02  0.51100000000E-03 0. -1.
    9900012    2    1    2    0    0  0.56788147717E+01 -0.34632250020E+02 -0.25533922593E+02  0.47787275564E+02  0.20000020605E+02 0.  0.
        -12    1    1    2    0    0 -0.56788147717E+01  0.34632250020E+02  0.25533922593E+02  0.43400724436E+02  0.00000000000E+00 0.  1.
         11    1    3    3    0    0 -0.34288201043E+00 -0.25094917357E+02 -0.20144737427E+02  0.32182027461E+02  0.51100000000E-03 0. -1.
        -11    1    3    3    0    0  0.14226536724E+01 -0.43491701758E+01 -0.71160104893E+01  0.84603091098E+01  0.51100000000E-03 0.  1.
        -12    1    3    3    0    0  0.45990431097E+01 -0.51881624870E+01  0.17268253235E+01  0.71449389930E+01  0.00000000000E+00 0.  1.
</event>
<event>
 7    1  0.4519225E-009  0.4778727E+02  0.7816164E-02  0.1312668E+00
        -11   -1    0    0    0    0  0.00000000000E+00  0.00000000000E+00  0.45593999997E+02  0.45594000000E+02  0.51100000000E-03 0.  1.
         11   -1    0    0    0    0 -0.00000000000E+00 -0.00000000000E+00 -0.45593999997E+02  0.45594000000E+02  0.51100000000E-03 0. -1.
    9900012    2    1    2    0    0  0.37182964931E+01  0.23739202325E+02 -0.36142055661E+02  0.47787266790E+02  0.19999980600E+02 0.  0.
        -12    1    1    2    0    0 -0.37182964931E+01 -0.23739202325E+02  0.36142055661E+02  0.43400733210E+02  0.00000000000E+00 0.  1.
         11    1    3    3    0    0  0.50157321492E+01  0.75009091092E+01 -0.20533340109E+02  0.22428536795E+02  0.51100000000E-03 0. -1.
        -11    1    3    3    0    0  0.21671818988E+01  0.13393465993E+02 -0.15856599559E+02  0.20868956814E+02  0.51100000000E-03 0.  1.
        -12    1    3    3    0    0 -0.34646175549E+01  0.28448272228E+01  0.24788400750E+00  0.44897731803E+01  0.00000000000E+00 0.  1.
</event>
<event>
 7    1  0.4519225E-009  0.4778727E+02  0.7816164E-02  0.1312668E+00
        -11   -1    0    0    0    0  0.00000000000E+00  0.00000000000E+00  0.45593999997E+02  0.45594000000E+02  0.51100000000E-03 0.  1.
         11   -1    0    0    0    0 -0.00000000000E+00 -0.00000000000E+00 -0.45593999997E+02  0.45594000000E+02  0.51100000000E-03 0. -1.
    9900012    2    1    2    0    0  0.14080249402E+02  0.37109348402E+02 -0.17557502526E+02  0.47787273543E+02  0.20000011394E+02 0.  0.
        -12    1    1    2    0    0 -0.14080249402E+02 -0.37109348402E+02  0.17557502526E+02  0.43400726457E+02  0.00000000000E+00 0.  1.
         11    1    3    3    0    0  0.78154359911E+00  0.73923448739E+00 -0.51072371446E+01  0.52193054650E+01  0.51100000000E-03 0.  1.
        -11    1    3    3    0    0  0.91377062841E+01  0.88542547522E+01 -0.22061794062E+01  0.12913664514E+02  0.51100000000E-03 0. -1.
         12    1    3    3    0    0  0.41609995186E+01  0.27515859162E+02 -0.10244085975E+02  0.29654303564E+02  0.00000000000E+00 0. -1.
</event>
<event>
 7    1  0.4519225E-009  0.4778726E+02  0.7816164E-02  0.1312668E+00
        -11   -1    0    0    0    0  0.00000000000E+00  0.00000000000E+00  0.45593999997E+02  0.45594000000E+02  0.51100000000E-03 0. -1.
         11   -1    0    0    0    0 -0.00000000000E+00 -0.00000000000E+00 -0.45593999997E+02  0.45594000000E+02  0.51100000000E-03 0.  1.
    9900012    2    1    2    0    0 -0.78684450370E+01 -0.42530757455E+02 -0.35842147592E+01  0.47787258619E+02  0.19999943348E+02 0.  0.
        -12    1    1    2    0    0  0.78684450370E+01  0.42530757455E+02  0.35842147592E+01  0.43400741381E+02  0.00000000000E+00 0.  1.
         11    1    3    3    0    0 -0.46539891317E+01 -0.35589578241E+02  0.13274439358E+01  0.35917124076E+02  0.51100000000E-03 0. -1.
        -11    1    3    3    0    0  0.10201570059E-01 -0.74802908864E+01 -0.39663389237E+01  0.84667998994E+01  0.51100000000E-03 0.  1.
        -12    1    3    3    0    0 -0.32246574754E+01  0.53911167271E+00 -0.94531977120E+00  0.34033346440E+01  0.00000000000E+00 0.  1.
</event>
<event>
 7    1  0.4519225E-009  0.4778726E+02  0.7816164E-02  0.1312668E+00
        -11   -1    0    0    0    0  0.00000000000E+00  0.00000000000E+00  0.45593999997E+02  0.45594000000E+02  0.51100000000E-03 0.  1.
         11   -1    0    0    0    0 -0.00000000000E+00 -0.00000000000E+00 -0.45593999997E+02  0.45594000000E+02  0.51100000000E-03 0. -1.
    9900012    2    1    2    0    0  0.28097181306E+02 -0.30681836924E+02  0.12361130119E+02  0.47787259773E+02  0.19999948611E+02 0.  0.
        -12    1    1    2    0    0 -0.28097181306E+02  0.30681836924E+02 -0.12361130119E+02  0.43400740227E+02  0.00000000000E+00 0.  1.
         11    1    3    3    0    0  0.23834073389E+02 -0.16346015337E+02  0.49559709546E+01  0.29322634944E+02  0.51100000000E-03 0. -1.
        -11    1    3    3    0    0  0.52270664011E+01 -0.62294117959E+01  0.61711252089E+01  0.10208358393E+02  0.51100000000E-03 0.  1.
        -12    1    3    3    0    0 -0.96395848358E+00 -0.81064097908E+01  0.12340339557E+01  0.82562664358E+01  0.00000000000E+00 0.  1.
</event>
<event>
 7    1  0.4519225E-009  0.4778727E+02  0.7816164E-02  0.1312668E+00
        -11   -1    0    0    0    0  0.00000000000E+00  0.00000000000E+00  0.45593999997E+02  0.45594000000E+02  0.51100000000E-03 0. -1.
         11   -1    0    0    0    0 -0.00000000000E+00 -0.00000000000E+00 -0.45593999997E+02  0.45594000000E+02  0.51100000000E-03 0.  1.
    9900012    2    1    2    0    0 -0.16395810988E+02  0.37326188613E+02  0.14884767035E+02  0.47787271158E+02  0.20000000517E+02 0.  0.
        -12    1    1    2    0    0  0.16395810988E+02 -0.37326188613E+02 -0.14884767035E+02  0.43400728842E+02  0.00000000000E+00 0.  1.
         11    1    3    3    0    0 -0.84475754236E+01  0.57642032161E+01  0.74644105691E+01  0.12661160873E+02  0.51100000000E-03 0. -1.
        -11    1    3    3    0    0  0.73734117492E-01 -0.28583549948E+00 -0.11470723460E+01  0.11844466561E+01  0.51100000000E-03 0.  1.
         12    1    3    3    0    0 -0.80219696821E+01  0.31847820896E+02  0.85674288124E+01  0.33941663629E+02  0.00000000000E+00 0. -1.
</event>
<event>
 7    1  0.4519225E-009  0.4778728E+02  0.7816164E-02  0.1312668E+00
        -11   -1    0    0    0    0  0.00000000000E+00  0.00000000000E+00  0.45593999997E+02  0.45594000000E+02  0.51100000000E-03 0.  1.
         11   -1    0    0    0    0 -0.00000000000E+00 -0.00000000000E+00 -0.45593999997E+02  0.45594000000E+02  0.51100000000E-03 0. -1.
    9900012    2    1    2    0    0  0.16341830237E+02  0.11542736966E+02 -0.38514051211E+02  0.47787281885E+02  0.20000049428E+02 0.  0.
        -12    1    1    2    0    0 -0.16341830237E+02 -0.11542736966E+02  0.38514051211E+02  0.43400718115E+02  0.00000000000E+00 0.  1.
         11    1    3    3    0    0  0.13512646351E+02  0.49552119817E+01 -0.14557030390E+02  0.20470780914E+02  0.51100000000E-03 0.  1.
        -11    1    3    3    0    0  0.58486141260E+01  0.42958469745E+01 -0.21753459373E+02  0.22931933703E+02  0.51100000000E-03 0. -1.
        -12    1    3    3    0    0 -0.30194302395E+01  0.22916780097E+01 -0.22035614481E+01  0.43845672679E+01  0.00000000000E+00 0.  1.
</event>
<event>
 7    1  0.4519225E-009  0.4778727E+02  0.7816164E-02  0.1312668E+00
        -11   -1    0    0    0    0  0.00000000000E+00  0.00000000000E+00  0.45593999997E+02  0.45594000000E+02  0.51100000000E-03 0. -1.
         11   -1    0    0    0    0 -0.00000000000E+00 -0.00000000000E+00 -0.45593999997E+02  0.45594000000E+02  0.51100000000E-03 0.  1.
    9900012    2    1    2    0    0 -0.26013467695E+02  0.26462353038E+02  0.22509256972E+02  0.47787270982E+02  0.19999999717E+02 0.  0.
        -12    1    1    2    0    0  0.26013467695E+02 -0.26462353038E+02 -0.22509256972E+02  0.43400729018E+02  0.00000000000E+00 0.  1.
         11    1    3    3    0    0 -0.82765419480E+01  0.13619729692E+02  0.80631273701E+01  0.17860912820E+02  0.51100000000E-03 0. -1.
        -11    1    3    3    0    0 -0.12402924567E+02  0.13898039061E+02  0.54393255443E+01  0.19405522157E+02  0.51100000000E-03 0.  1.
        -12    1    3    3    0    0 -0.53340011807E+01 -0.10554157156E+01  0.90068040572E+01  0.10520836005E+02  0.00000000000E+00 0.  1.
</event>
<event>
 7    1  0.4519225E-009  0.4778728E+02  0.7816164E-02  0.1312668E+00
        -11   -1    0    0    0    0  0.00000000000E+00  0.00000000000E+00  0.45593999997E+02  0.45594000000E+02  0.51100000000E-03 0.  1.
         11   -1    0    0    0    0 -0.00000000000E+00 -0.00000000000E+00 -0.45593999997E+02  0.45594000000E+02  0.51100000000E-03 0. -1.
    9900012    2    1    2    0    0  0.36269090621E+02  0.71237384269E+01 -0.22747050331E+02  0.47787275554E+02  0.20000020561E+02 0.  0.
        -12    1    1    2    0    0 -0.36269090621E+02 -0.71237384269E+01  0.22747050331E+02  0.43400724446E+02  0.00000000000E+00 0.  1.
         11    1    3    3    0    0  0.40381572460E+01 -0.21759041343E+01 -0.31534726270E+01  0.55664766788E+01  0.51100000000E-03 0.  1.
        -11    1    3    3    0    0  0.64038047918E+01  0.59301716874E+01 -0.12465129316E+02  0.15216934684E+02  0.51100000000E-03 0. -1.
         12    1    3    3    0    0  0.25827128584E+02  0.33694708738E+01 -0.71284483880E+01  0.27003864191E+02  0.00000000000E+00 0. -1.
</event>
<event>
 7    1  0.4519225E-009  0.4778727E+02  0.7816164E-02  0.1312668E+00
        -11   -1    0    0    0    0  0.00000000000E+00  0.00000000000E+00  0.45593999997E+02  0.45594000000E+02  0.51100000000E-03 0.  1.
         11   -1    0    0    0    0 -0.00000000000E+00 -0.00000000000E+00 -0.45593999997E+02  0.45594000000E+02  0.51100000000E-03 0. -1.
    9900012    2    1    2    0    0 -0.37036014379E+02  0.22527651025E+02 -0.21123513485E+01  0.47787269016E+02  0.19999990750E+02 0.  0.
        -12    1    1    2    0    0  0.37036014379E+02 -0.22527651025E+02  0.21123513485E+01  0.43400730984E+02  0.00000000000E+00 0.  1.
         11    1    3    3    0    0 -0.66102935699E+00  0.60709311143E+01 -0.18649149903E+01  0.63852229865E+01  0.51100000000E-03 0. -1.
        -11    1    3    3    0    0 -0.48147872960E+01 -0.76760051674E+00  0.22319842697E+01  0.53621955671E+01  0.51100000000E-03 0.  1.
         12    1    3    3    0    0 -0.31560197726E+02  0.17224320427E+02 -0.24794206279E+01  0.36039850462E+02  0.00000000000E+00 0. -1.
</event>
<event>
 7    1  0.4519225E-009  0.4778728E+02  0.7816164E-02  0.1312668E+00
        -11   -1    0    0    0    0  0.00000000000E+00  0.00000000000E+00  0.45593999997E+02  0.45594000000E+02  0.51100000000E-03 0. -1.
         11   -1    0    0    0    0 -0.00000000000E+00 -0.00000000000E+00 -0.45593999997E+02  0.45594000000E+02  0.51100000000E-03 0.  1.
    9900012    2    1    2    0    0 -0.42111576754E+02  0.98335236404E-01  0.10498939129E+02  0.47787282387E+02  0.20000051715E+02 0.  0.
        -12    1    1    2    0    0  0.42111576754E+02 -0.98335236404E-01 -0.10498939129E+02  0.43400717613E+02  0.00000000000E+00 0.  1.
         11    1    3    3    0    0 -0.18092181838E+02 -0.13073888976E+01  0.29601627130E+01  0.18379305562E+02  0.51100000000E-03 0. -1.
        -11    1    3    3    0    0 -0.94697579174E+01 -0.45913979512E+01  0.86625940602E+01  0.13630766166E+02  0.51100000000E-03 0.  1.
         12    1    3    3    0    0 -0.14549636998E+02  0.59971220852E+01 -0.11238176441E+01  0.15777210659E+02  0.00000000000E+00 0. -1.
</event>
<event>
 7    1  0.4519225E-009  0.4778727E+02  0.7816164E-02  0.1312668E+00
        -11   -1    0    0    0    0  0.00000000000E+00  0.00000000000E+00  0.45593999997E+02  0.45594000000E+02  0.51100000000E-03 0.  1.
         11   -1    0    0    0    0 -0.00000000000E+00 -0.00000000000E+00 -0.45593999997E+02  0.45594000000E+02  0.51100000000E-03 0. -1.
    9900012    2    1    2    0    0  0.32385543005E+02 -0.23083996449E+02 -0.17376109520E+02  0.47787268787E+02  0.19999989707E+02 0.  0.
        -12    1    1    2    0    0 -0.32385543005E+02  0.23083996449E+02  0.17376109520E+02  0.43400731213E+02  0.00000000000E+00 0.  1.
         11    1    3    3    0    0  0.24910906187E+02 -0.12589724562E+02 -0.12804554369E+02  0.30708484568E+02  0.51100000000E-03 0. -1.
        -11    1    3    3    0    0  0.95594142290E+01 -0.97796642896E+01 -0.22178312679E+01  0.13854349852E+02  0.51100000000E-03 0.  1.
        -12    1    3    3    0    0 -0.20847774111E+01 -0.71460759772E+00 -0.23537238831E+01  0.32244343676E+01  0.00000000000E+00 0.  1.
</event>
<event>
 7    1  0.4519225E-009  0.4778726E+02  0.7816164E-02  0.1312668E+00
        -11   -1    0    0    0    0  0.00000000000E+00  0.00000000000E+00  0.45593999997E+02  0.45594000000E+02  0.51100000000E-03 0.  1.
         11   -1    0    0    0    0 -0.00000000000E+00 -0.00000000000E+00 -0.45593999997E+02  0.45594000000E+02  0.51100000000E-03 0. -1.
    9900012    2    1    2    0    0  0.10699608963E+02  0.14806026689E+02 -0.39369072169E+02  0.47787263811E+02  0.19999967021E+02 0.  0.
        -12    1    1    2    0    0 -0.10699608963E+02 -0.14806026689E+02  0.39369072169E+02  0.43400736189E+02  0.00000000000E+00 0.  1.
         11    1    3    3    0    0  0.31565129500E+01 -0.59235969469E+00 -0.80064705280E+01  0.86265888153E+01  0.51100000000E-03 0. -1.
        -11    1    3    3    0    0  0.44252065444E+01 -0.22669273093E+01 -0.10693393599E+02  0.11792797773E+02  0.51100000000E-03 0.  1.
        -12    1    3    3    0    0  0.31178894684E+01  0.17665313693E+02 -0.20669208042E+02  0.27367877223E+02  0.00000000000E+00 0.  1.
</event>
<event>
 7    1  0.4519225E-009  0.4778727E+02  0.7816164E-02  0.1312668E+00
        -11   -1    0    0    0    0  0.00000000000E+00  0.00000000000E+00  0.45593999997E+02  0.45594000000E+02  0.51100000000E-03 0.  1.
         11   -1    0    0    0    0 -0.00000000000E+00 -0.00000000000E+00 -0.45593999997E+02  0.45594000000E+02  0.51100000000E-03 0. -1.
    9900012    2    1    2    0    0  0.19423871658E+02  0.55970948825E+01 -0.38405841913E+02  0.47787274726E+02  0.20000016784E+02 0.  0.
        -12    1    1    2    0    0 -0.19423871658E+02 -0.55970948825E+01  0.38405841913E+02  0.43400725274E+02  0.00000000000E+00 0.  1.
         11    1    3    3    0    0  0.54215476958E+01  0.14567841967E+00 -0.18551139849E+01  0.57320022486E+01  0.51100000000E-03 0. -1.
        -11    1    3    3    0    0 -0.27032383347E+01 -0.85638941363E+00 -0.36615078431E+01  0.46311489145E+01  0.51100000000E-03 0.  1.
        -12    1    3    3    0    0  0.16705562297E+02  0.63078058765E+01 -0.32889220085E+02  0.37424123562E+02  0.00000000000E+00 0.  1.
</event>
<event>
 7    1  0.4519225E-009  0.4778727E+02  0.7816164E-02  0.1312668E+00
        -11   -1    0    0    0    0  0.00000000000E+00  0.00000000000E+00  0.45593999997E+02  0.45594000000E+02  0.51100000000E-03 0.  1.
         11   -1    0    0    0    0 -0.00000000000E+00 -0.00000000000E+00 -0.45593999997E+02  0.45594000000E+02  0.51100000000E-03 0. -1.
    9900012    2    1    2    0    0 -0.37053621980E+02 -0.23405808496E+01 -0.22476087919E+02  0.47787265574E+02  0.19999975060E+02 0.  0.
        -12    1    1    2    0    0  0.37053621980E+02  0.23405808496E+01  0.22476087919E+02  0.43400734426E+02  0.00000000000E+00 0.  1.
         11    1    3    3    0    0 -0.22406834383E+01  0.25642742413E+01 -0.63579042457E+01  0.72124275604E+01  0.51100000000E-03 0. -1.
        -11    1    3    3    0    0 -0.10361877652E+02  0.12276966566E+01 -0.10387424596E+02  0.14723258388E+02  0.51100000000E-03 0.  1.
        -12    1    3    3    0    0 -0.24451060890E+02 -0.61325517475E+01 -0.57307590770E+01  0.25851579626E+02  0.00000000000E+00 0.  1.
</event>
<event>
 7    1  0.4519225E-009  0.4778727E+02  0.7816164E-02  0.1312668E+00
        -11   -1    0    0    0    0  0.00000000000E+00  0.00000000000E+00  0.45593999997E+02  0.45594000000E+02  0.51100000000E-03 0. -1.
         11   -1    0    0    0    0 -0.00000000000E+00 -0.00000000000E+00 -0.45593999997E+02  0.45594000000E+02  0.51100000000E-03 0.  1.
    9900012    2    1    2    0    0  0.33715301619E+02 -0.11982573275E+02  0.24562562616E+02  0.47787272958E+02  0.20000008725E+02 0.  0.
        -12    1    1    2    0    0 -0.33715301619E+02  0.11982573275E+02 -0.24562562616E+02  0.43400727042E+02  0.00000000000E+00 0.  1.
         11    1    3    3    0    0  0.13249855549E+02 -0.94872385622E+01  0.16163187226E+02  0.22952450614E+02  0.51100000000E-03 0. -1.
        -11    1    3    3    0    0  0.51709645125E+00 -0.33274285647E+01  0.72193862837E+00  0.34438880989E+01  0.51100000000E-03 0.  1.
        -12    1    3    3    0    0  0.19948349618E+02  0.83209385191E+00  0.76774367612E+01  0.21390934245E+02  0.00000000000E+00 0.  1.
</event>
<event>
 7    1  0.4519225E-009  0.4778726E+02  0.7816164E-02  0.1312668E+00
        -11   -1    0    0    0    0  0.00000000000E+00  0.00000000000E+00  0.45593999997E+02  0.45594000000E+02  0.51100000000E-03 0.  1.
         11   -1    0    0    0    0 -0.00000000000E+00 -0.00000000000E+00 -0.45593999997E+02  0.45594000000E+02  0.51100000000E-03 0. -1.
    9900012    2    1    2    0    0 -0.17631687898E+02 -0.37318236732E+02 -0.13420010391E+02  0.47787263949E+02  0.19999967647E+02 0.  0.
        -12    1    1    2    0    0  0.17631687898E+02  0.37318236732E+02  0.13420010391E+02  0.43400736051E+02  0.00000000000E+00 0.  1.
         11    1    3    3    0    0 -0.56448731568E+01 -0.64098305724E+01  0.29362753504E+01  0.90317348344E+01  0.51100000000E-03 0. -1.
        -11    1    3    3    0    0 -0.90506113052E+01 -0.12286491852E+02 -0.27491701194E+01  0.15505785489E+02  0.51100000000E-03 0.  1.
        -12    1    3    3    0    0 -0.29362034364E+01 -0.18621914308E+02 -0.13607115622E+02  0.23249743625E+02  0.00000000000E+00 0.  1.
</event>
<event>
 7    1  0.4519225E-009  0.4778730E+02  0.7816164E-02  0.1312668E+00
        -11   -1    0    0    0    0  0.00000000000E+00  0.00000000000E+00  0.45593999997E+02  0.45594000000E+02  0.51100000000E-03 0.  1.
         11   -1    0    0    0    0 -0.00000000000E+00 -0.00000000000E+00 -0.45593999997E+02  0.45594000000E+02  0.51100000000E-03 0. -1.
    9900012    2    1    2    0    0  0.25173822138E+02  0.31632508306E+02  0.15788734789E+02  0.47787296676E+02  0.20000116864E+02 0.  0.
        -12    1    1    2    0    0 -0.25173822138E+02 -0.31632508306E+02 -0.15788734789E+02  0.43400703324E+02  0.00000000000E+00 0.  1.
         11    1    3    3    0    0  0.11653566631E+02  0.11237174589E+02  0.39454185364E+01  0.16662713935E+02  0.51100000000E-03 0. -1.
        -11    1    3    3    0    0  0.16806616460E+02  0.17369394563E+02  0.88107251778E+01  0.25725223084E+02  0.51100000000E-03 0.  1.
        -12    1    3    3    0    0 -0.32863609534E+01  0.30259391544E+01  0.30325910745E+01  0.53993596572E+01  0.00000000000E+00 0.  1.
</event>
<event>
 7    1  0.4519225E-009  0.4778725E+02  0.7816164E-02  0.1312668E+00
        -11   -1    0    0    0    0  0.00000000000E+00  0.00000000000E+00  0.45593999997E+02  0.45594000000E+02  0.51100000000E-03 0. -1.
         11   -1    0    0    0    0 -0.00000000000E+00 -0.00000000000E+00 -0.45593999997E+02  0.45594000000E+02  0.51100000000E-03 0.  1.
    9900012    2    1    2    0    0  0.21537481380E+02 -0.32784327500E+02 -0.18572817243E+02  0.47787253761E+02  0.19999921196E+02 0.  0.
        -12    1    1    2    0    0 -0.21537481380E+02  0.32784327500E+02  0.18572817243E+02  0.43400746239E+02  0.00000000000E+00 0.  1.
         11    1    3    3    0    0  0.13815401445E+02 -0.14707609992E+02 -0.58251768341E+01  0.21002661597E+02  0.51100000000E-03 0. -1.
        -11    1    3    3    0    0 -0.22007317489E+01 -0.14632956684E+01 -0.55338865060E+01  0.61325650886E+01  0.51100000000E-03 0.  1.
        -12    1    3    3    0    0  0.99228116841E+01 -0.16613421840E+02 -0.72137539025E+01  0.20652027075E+02  0.00000000000E+00 0.  1.
</event>
<event>
 7    1  0.4519225E-009  0.4778727E+02  0.7816164E-02  0.1312668E+00
        -11   -1    0    0    0    0  0.00000000000E+00  0.00000000000E+00  0.45593999997E+02  0.45594000000E+02  0.51100000000E-03 0. -1.
         11   -1    0    0    0    0 -0.00000000000E+00 -0.00000000000E+00 -0.45593999997E+02  0.45594000000E+02  0.51100000000E-03 0.  1.
    9900012    2    1    2    0    0  0.74915196952E+01  0.41281461396E+02  0.11105913558E+02  0.47787271454E+02  0.20000001868E+02 0.  0.
        -12    1    1    2    0    0 -0.74915196952E+01 -0.41281461396E+02 -0.11105913558E+02  0.43400728546E+02  0.00000000000E+00 0.  1.
         11    1    3    3    0    0 -0.33732564367E+01  0.58303200454E+01  0.10643880398E+01  0.68194144162E+01  0.51100000000E-03 0. -1.
        -11    1    3    3    0    0  0.34630126436E+01  0.55122501431E+00  0.29749490651E+01  0.45985462689E+01  0.51100000000E-03 0.  1.
         12    1    3    3    0    0  0.74017634883E+01  0.34899916337E+02  0.70665764532E+01  0.36369310769E+02  0.00000000000E+00 0. -1.
</event>
<event>
 7    1  0.4519225E-009  0.4778729E+02  0.7816164E-02  0.1312668E+00
        -11   -1    0    0    0    0  0.00000000000E+00  0.00000000000E+00  0.45593999997E+02  0.45594000000E+02  0.51100000000E-03 0. -1.
         11   -1    0    0    0    0 -0.00000000000E+00 -0.00000000000E+00 -0.45593999997E+02  0.45594000000E+02  0.51100000000E-03 0.  1.
    9900012    2    1    2    0    0 -0.38182883153E+02 -0.20326394082E+02 -0.35393554974E+01  0.47787286877E+02  0.20000072185E+02 0.  0.
        -12    1    1    2    0    0  0.38182883153E+02  0.20326394082E+02  0.35393554974E+01  0.43400713123E+02  0.00000000000E+00 0.  1.
         11    1    3    3    0    0 -0.15888775394E+02 -0.27071551158E+01 -0.46968972692E+01  0.16788171924E+02  0.51100000000E-03 0. -1.
        -11    1    3    3    0    0 -0.83938988209E+01 -0.12924245518E+02 -0.31055144892E+01  0.15720619585E+02  0.51100000000E-03 0.  1.
         12    1    3    3    0    0 -0.13900208939E+02 -0.46949934488E+01  0.42630562610E+01  0.15278495368E+02  0.00000000000E+00 0. -1.
</event>
<event>
 7    1  0.6425205E-009  0.4778727E+02  0.7816164E-02  0.1312668E+00
        -11   -1    0    0    0    0  0.00000000000E+00  0.00000000000E+00  0.45593999997E+02  0.45594000000E+02  0.51100000000E-03 0.  1.
         11   -1    0    0    0    0 -0.00000000000E+00 -0.00000000000E+00 -0.45593999997E+02  0.45594000000E+02  0.51100000000E-03 0. -1.
    9900012    2    1    2    0    0  0.43076332624E+02 -0.47866587651E+01  0.22673596210E+01  0.47787268968E+02  0.19999990531E+02 0.  0.
        -12    1    1    2    0    0 -0.43076332624E+02  0.47866587651E+01 -0.22673596210E+01  0.43400731032E+02  0.00000000000E+00 0.  1.
         11    1    3    3    0    0  0.18510737968E+02  0.20780319156E+01  0.46861849917E+01  0.19207445608E+02  0.51100000000E-03 0. -1.
        -11    1    3    3    0    0 -0.10168167630E+01 -0.66346550325E+00  0.15394372608E+01  0.19606045355E+01  0.51100000000E-03 0.  1.
         12    1    3    3    0    0  0.25582411420E+02 -0.62012251774E+01 -0.39582626315E+01  0.26619218824E+02  0.00000000000E+00 0. -1.
</event>
<event>
 7    1  0.4519225E-009  0.4778726E+02  0.7816164E-02  0.1312668E+00
        -11   -1    0    0    0    0  0.00000000000E+00  0.00000000000E+00  0.45593999997E+02  0.45594000000E+02  0.51100000000E-03 0. -1.
         11   -1    0    0    0    0 -0.00000000000E+00 -0.00000000000E+00 -0.45593999997E+02  0.45594000000E+02  0.51100000000E-03 0.  1.
    9900012    2    1    2    0    0  0.19739656176E+02  0.38030435046E+02 -0.69033693779E+01  0.47787256637E+02  0.19999934310E+02 0.  0.
        -12    1    1    2    0    0 -0.19739656176E+02 -0.38030435046E+02  0.69033693779E+01  0.43400743363E+02  0.00000000000E+00 0.  1.
         11    1    3    3    0    0  0.40752282608E+00  0.35401898036E+01  0.13672555050E+01  0.38168582076E+01  0.51100000000E-03 0. -1.
        -11    1    3    3    0    0  0.75754252708E+01  0.10964845612E+02 -0.11331494042E+02  0.17493360592E+02  0.51100000000E-03 0.  1.
         12    1    3    3    0    0  0.11756708079E+02  0.23525399630E+02  0.30608691593E+01  0.26477037837E+02  0.00000000000E+00 0. -1.
</event>
<event>
 7    1  0.4519225E-009  0.4778727E+02  0.7816164E-02  0.1312668E+00
        -11   -1    0    0    0    0  0.00000000000E+00  0.00000000000E+00  0.45593999997E+02  0.45594000000E+02  0.51100000000E-03 0.  1.
         11   -1    0    0    0    0 -0.00000000000E+00 -0.00000000000E+00 -0.45593999997E+02  0.45594000000E+02  0.51100000000E-03 0. -1.
    9900012    2    1    2    0    0 -0.36088015711E+02 -0.57908285861E+01 -0.23403948638E+02  0.47787269758E+02  0.19999994135E+02 0.  0.
        -12    1    1    2    0    0  0.36088015711E+02  0.57908285861E+01  0.23403948638E+02  0.43400730242E+02  0.00000000000E+00 0.  1.
         11    1    3    3    0    0 -0.31636668219E+00  0.59236729041E+00 -0.88659917114E+00  0.11122253529E+01  0.51100000000E-03 0.  1.
        -11    1    3    3    0    0 -0.30510329885E+02 -0.59625440803E+00 -0.23863507567E+02  0.38738904769E+02  0.51100000000E-03 0. -1.
         12    1    3    3    0    0 -0.52613191438E+01 -0.57869414685E+01  0.13461581004E+01  0.79361396361E+01  0.00000000000E+00 0. -1.
</event>
<event>
 7    1  0.4519225E-009  0.4778727E+02  0.7816164E-02  0.1312668E+00
        -11   -1    0    0    0    0  0.00000000000E+00  0.00000000000E+00  0.45593999997E+02  0.45594000000E+02  0.51100000000E-03 0.  1.
         11   -1    0    0    0    0 -0.00000000000E+00 -0.00000000000E+00 -0.45593999997E+02  0.45594000000E+02  0.51100000000E-03 0. -1.
    9900012    2    1    2    0    0  0.34730533742E+02  0.21465607826E+02 -0.14718730133E+02  0.47787270628E+02  0.19999998099E+02 0.  0.
        -12    1    1    2    0    0 -0.34730533742E+02 -0.21465607826E+02  0.14718730133E+02  0.43400729372E+02  0.00000000000E+00 0.  1.
         11    1    3    3    0    0  0.14285069840E+02  0.14301141255E+02 -0.44585141859E+01  0.20699377057E+02  0.51100000000E-03 0. -1.
        -11    1    3    3    0    0  0.79934724292E+01  0.71370249323E+01  0.35995745111E+00  0.10722047192E+02  0.51100000000E-03 0.  1.
        -12    1    3    3    0    0  0.12451991473E+02  0.27441638068E-01 -0.10620173398E+02  0.16365846379E+02  0.00000000000E+00 0.  1.
</event>
<event>
 7    1  0.4519225E-009  0.4778727E+02  0.7816164E-02  0.1312668E+00
        -11   -1    0    0    0    0  0.00000000000E+00  0.00000000000E+00  0.45593999997E+02  0.45594000000E+02  0.51100000000E-03 0. -1.
         11   -1    0    0    0    0 -0.00000000000E+00 -0.00000000000E+00 -0.45593999997E+02  0.45594000000E+02  0.51100000000E-03 0.  1.
    9900012    2    1    2    0    0 -0.42774397258E+02 -0.34031355148E+01 -0.65109988681E+01  0.47787268458E+02  0.19999988209E+02 0.  0.
        -12    1    1    2    0    0  0.42774397258E+02  0.34031355148E+01  0.65109988681E+01  0.43400731542E+02  0.00000000000E+00 0.  1.
         11    1    3    3    0    0 -0.26278939863E+02 -0.26169819309E+01 -0.43032599857E+01  0.26757229332E+02  0.51100000000E-03 0. -1.
        -11    1    3    3    0    0 -0.12376642482E+02 -0.29074342965E+01 -0.68753016420E+01  0.14453519510E+02  0.51100000000E-03 0.  1.
         12    1    3    3    0    0 -0.41188149130E+01  0.21212807126E+01  0.46675627596E+01  0.65765196164E+01  0.00000000000E+00 0. -1.
</event>
<event>
 7    1  0.4519225E-009  0.4778727E+02  0.7816164E-02  0.1312668E+00
        -11   -1    0    0    0    0  0.00000000000E+00  0.00000000000E+00  0.45593999997E+02  0.45594000000E+02  0.51100000000E-03 0.  1.
         11   -1    0    0    0    0 -0.00000000000E+00 -0.00000000000E+00 -0.45593999997E+02  0.45594000000E+02  0.51100000000E-03 0. -1.
    9900012    2    1    2    0    0 -0.41286494894E+02 -0.70730344454E+01  0.11358743112E+02  0.47787268186E+02  0.19999986967E+02 0.  0.
        -12    1    1    2    0    0  0.41286494894E+02  0.70730344454E+01 -0.11358743112E+02  0.43400731814E+02  0.00000000000E+00 0.  1.
         11    1    3    3    0    0 -0.26937375473E+02  0.62019887060E+00  0.78971661585E+01  0.28077964271E+02  0.51100000000E-03 0.  1.
        -11    1    3    3    0    0 -0.11158432786E+02 -0.82416100126E+01  0.64546688542E+01  0.15300245361E+02  0.51100000000E-03 0. -1.
        -12    1    3    3    0    0 -0.31906866348E+01  0.54837669656E+00 -0.29930919004E+01  0.44090585534E+01  0.00000000000E+00 0.  1.
</event>
<event>
 7    1  0.4519225E-009  0.4778729E+02  0.7816164E-02  0.1312668E+00
        -11   -1    0    0    0    0  0.00000000000E+00  0.00000000000E+00  0.45593999997E+02  0.45594000000E+02  0.51100000000E-03 0.  1.
         11   -1    0    0    0    0 -0.00000000000E+00 -0.00000000000E+00 -0.45593999997E+02  0.45594000000E+02  0.51100000000E-03 0. -1.
    9900012    2    1    2    0    0 -0.11548387543E+01  0.26291566053E+02 -0.34511474522E+02  0.47787286045E+02  0.20000068394E+02 0.  0.
        -12    1    1    2    0    0  0.11548387543E+01 -0.26291566053E+02  0.34511474522E+02  0.43400713955E+02  0.00000000000E+00 0.  1.
         11    1    3    3    0    0 -0.25455973973E+01  0.17516710754E+02 -0.13057861964E+02  0.21995976475E+02  0.51100000000E-03 0. -1.
        -11    1    3    3    0    0  0.28668753393E+00  0.55413319673E+01 -0.17859856342E+01  0.58290903802E+01  0.51100000000E-03 0.  1.
        -12    1    3    3    0    0  0.11040711090E+01  0.32335233317E+01 -0.19667626925E+02  0.19962219190E+02  0.00000000000E+00 0.  1.
</event>
<event>
 7    1  0.4519225E-009  0.4778727E+02  0.7816164E-02  0.1312668E+00
        -11   -1    0    0    0    0  0.00000000000E+00  0.00000000000E+00  0.45593999997E+02  0.45594000000E+02  0.51100000000E-03 0. -1.
         11   -1    0    0    0    0 -0.00000000000E+00 -0.00000000000E+00 -0.45593999997E+02  0.45594000000E+02  0.51100000000E-03 0.  1.
    9900012    2    1    2    0    0 -0.36762695476E+02  0.10671019583E+02  0.20451324782E+02  0.47787272783E+02  0.20000007926E+02 0.  0.
        -12    1    1    2    0    0  0.36762695476E+02 -0.10671019583E+02 -0.20451324782E+02  0.43400727217E+02  0.00000000000E+00 0.  1.
         11    1    3    3    0    0 -0.27252503310E+02  0.10546160412E+02  0.11549724882E+02  0.31421594186E+02  0.51100000000E-03 0.  1.
        -11    1    3    3    0    0 -0.80309084023E+01  0.41254069257E+01  0.40196291274E+01  0.98829090176E+01  0.51100000000E-03 0. -1.
        -12    1    3    3    0    0 -0.14792837642E+01 -0.40005477544E+01  0.48819707725E+01  0.64827695790E+01  0.00000000000E+00 0.  1.
</event>
<event>
 7    1  0.4519225E-009  0.4778727E+02  0.7816164E-02  0.1312668E+00
        -11   -1    0    0    0    0  0.00000000000E+00  0.00000000000E+00  0.45593999997E+02  0.45594000000E+02  0.51100000000E-03 0.  1.
         11   -1    0    0    0    0 -0.00000000000E+00 -0.00000000000E+00 -0.45593999997E+02  0.45594000000E+02  0.51100000000E-03 0. -1.
    9900012    2    1    2    0    0  0.33553376741E+02 -0.13429125856E+02 -0.24030256800E+02  0.47787265515E+02  0.19999974788E+02 0.  0.
        -12    1    1    2    0    0 -0.33553376741E+02  0.13429125856E+02  0.24030256800E+02  0.43400734485E+02  0.00000000000E+00 0.  1.
         11    1    3    3    0    0  0.16670893263E+02 -0.87200176914E+01 -0.81252092904E+01  0.20493326157E+02  0.51100000000E-03 0.  1.
        -11    1    3    3    0    0  0.17036828691E+02 -0.79840009698E+01 -0.12636726862E+02  0.22664612712E+02  0.51100000000E-03 0. -1.
        -12    1    3    3    0    0 -0.15434521375E+00  0.32748928049E+01 -0.32683206480E+01  0.46293266451E+01  0.00000000000E+00 0.  1.
</event>
<event>
 7    1  0.4519225E-009  0.4778727E+02  0.7816164E-02  0.1312668E+00
        -11   -1    0    0    0    0  0.00000000000E+00  0.00000000000E+00  0.45593999997E+02  0.45594000000E+02  0.51100000000E-03 0.  1.
         11   -1    0    0    0    0 -0.00000000000E+00 -0.00000000000E+00 -0.45593999997E+02  0.45594000000E+02  0.51100000000E-03 0. -1.
    9900012    2    1    2    0    0 -0.51347908378E+00 -0.43273183007E+02  0.32849947405E+01  0.47787271679E+02  0.20000002893E+02 0.  0.
        -12    1    1    2    0    0  0.51347908378E+00  0.43273183007E+02 -0.32849947405E+01  0.43400728321E+02  0.00000000000E+00 0.  1.
         11    1    3    3    0    0  0.55234517113E+01 -0.11670204509E+02 -0.56641543449E-01  0.12911444559E+02  0.51100000000E-03 0. -1.
        -11    1    3    3    0    0  0.21180676272E+01 -0.35380577810E+00 -0.84937106657E+00  0.23092900363E+01  0.51100000000E-03 0.  1.
         12    1    3    3    0    0 -0.81549984223E+01 -0.31249172721E+02  0.41910073505E+01  0.32566537083E+02  0.00000000000E+00 0. -1.
</event>
<event>
 7    1  0.4519225E-009  0.4778727E+02  0.7816164E-02  0.1312668E+00
        -11   -1    0    0    0    0  0.00000000000E+00  0.00000000000E+00  0.45593999997E+02  0.45594000000E+02  0.51100000000E-03 0.  1.
         11   -1    0    0    0    0 -0.00000000000E+00 -0.00000000000E+00 -0.45593999997E+02  0.45594000000E+02  0.51100000000E-03 0. -1.
    9900012    2    1    2    0    0 -0.42866989700E+02  0.24585030149E+01 -0.63245925678E+01  0.47787268276E+02  0.19999987378E+02 0.  0.
        -12    1    1    2    0    0  0.42866989700E+02 -0.24585030149E+01  0.63245925678E+01  0.43400731724E+02  0.00000000000E+00 0.  1.
         11    1    3    3    0    0 -0.17749193978E+02 -0.28540313860E+01 -0.59672974133E+01  0.18941700576E+02  0.51100000000E-03 0. -1.
        -11    1    3    3    0    0 -0.18490425361E+02  0.63881552514E+01 -0.55758100741E+01  0.20341927534E+02  0.51100000000E-03 0.  1.
         12    1    3    3    0    0 -0.66273703610E+01 -0.10756208504E+01  0.52185149196E+01  0.85036401666E+01  0.00000000000E+00 0. -1.
</event>
<event>
 7    1  0.4519225E-009  0.4778727E+02  0.7816164E-02  0.1312668E+00
        -11   -1    0    0    0    0  0.00000000000E+00  0.00000000000E+00  0.45593999997E+02  0.45594000000E+02  0.51100000000E-03 0. -1.
         11   -1    0    0    0    0 -0.00000000000E+00 -0.00000000000E+00 -0.45593999997E+02  0.45594000000E+02  0.51100000000E-03 0.  1.
    9900012    2    1    2    0    0 -0.10225662929E+02 -0.42176488423E+02 -0.45029526376E+00  0.47787272773E+02  0.20000007882E+02 0.  0.
        -12    1    1    2    0    0  0.10225662929E+02  0.42176488423E+02  0.45029526376E+00  0.43400727227E+02  0.00000000000E+00 0.  1.
         11    1    3    3    0    0  0.18576748622E+01 -0.15688467788E+01 -0.17109443172E+01  0.29731409026E+01  0.51100000000E-03 0. -1.
        -11    1    3    3    0    0  0.15721766751E+01 -0.15792090205E+02  0.39730703409E+01  0.16359924839E+02  0.51100000000E-03 0.  1.
         12    1    3    3    0    0 -0.13655514467E+02 -0.24815551439E+02 -0.27124212874E+01  0.28454207031E+02  0.00000000000E+00 0. -1.
</event>
<event>
 7    1  0.4519225E-009  0.4778727E+02  0.7816164E-02  0.1312668E+00
        -11   -1    0    0    0    0  0.00000000000E+00  0.00000000000E+00  0.45593999997E+02  0.45594000000E+02  0.51100000000E-03 0. -1.
         11   -1    0    0    0    0 -0.00000000000E+00 -0.00000000000E+00 -0.45593999997E+02  0.45594000000E+02  0.51100000000E-03 0.  1.
    9900012    2    1    2    0    0 -0.29507388613E+02  0.17897721202E+00  0.31826172172E+02  0.47787271311E+02  0.20000001217E+02 0.  0.
        -12    1    1    2    0    0  0.29507388613E+02 -0.17897721202E+00 -0.31826172172E+02  0.43400728689E+02  0.00000000000E+00 0.  1.
         11    1    3    3    0    0  0.11617974506E+01 -0.88835833374E+00  0.60520875324E+01  0.62262924446E+01  0.51100000000E-03 0. -1.
        -11    1    3    3    0    0 -0.13632035755E+02  0.39905361722E+01  0.17071118380E+02  0.22207653202E+02  0.51100000000E-03 0.  1.
        -12    1    3    3    0    0 -0.17037150309E+02 -0.29232006265E+01  0.87029662593E+01  0.19353325664E+02  0.00000000000E+00 0.  1.
</event>
<event>
 7    1  0.4519225E-009  0.4778727E+02  0.7816164E-02  0.1312668E+00
        -11   -1    0    0    0    0  0.00000000000E+00  0.00000000000E+00  0.45593999997E+02  0.45594000000E+02  0.51100000000E-03 0.  1.
         11   -1    0    0    0    0 -0.00000000000E+00 -0.00000000000E+00 -0.45593999997E+02  0.45594000000E+02  0.51100000000E-03 0. -1.
    9900012    2    1    2    0    0  0.31471203275E+02 -0.24267321093E+02 -0.17443732898E+02  0.47787270444E+02  0.19999997261E+02 0.  0.
        -12    1    1    2    0    0 -0.31471203275E+02  0.24267321093E+02  0.17443732898E+02  0.43400729556E+02  0.00000000000E+00 0.  1.
         11    1    3    3    0    0  0.27165009950E+02 -0.22030090607E+02 -0.18658410467E+02  0.39640874601E+02  0.51100000000E-03 0. -1.
        -11    1    3    3    0    0 -0.10349316562E+01 -0.17364650881E+01 -0.11027367961E+01  0.23026991201E+01  0.51100000000E-03 0.  1.
         12    1    3    3    0    0  0.53411249809E+01 -0.50076539847E+00  0.23174143650E+01  0.58436967225E+01  0.00000000000E+00 0. -1.
</event>
<event>
 7    1  0.4519225E-009  0.4778727E+02  0.7816164E-02  0.1312668E+00
        -11   -1    0    0    0    0  0.00000000000E+00  0.00000000000E+00  0.45593999997E+02  0.45594000000E+02  0.51100000000E-03 0.  1.
         11   -1    0    0    0    0 -0.00000000000E+00 -0.00000000000E+00 -0.45593999997E+02  0.45594000000E+02  0.51100000000E-03 0. -1.
    9900012    2    1    2    0    0 -0.29219238515E+02 -0.24690623920E+02 -0.20499567853E+02  0.47787273150E+02  0.20000009599E+02 0.  0.
        -12    1    1    2    0    0  0.29219238515E+02  0.24690623920E+02  0.20499567853E+02  0.43400726850E+02  0.00000000000E+00 0.  1.
         11    1    3    3    0    0  0.47562324608E+00 -0.37792382639E+01  0.28540415855E+00  0.38197271005E+01  0.51100000000E-03 0. -1.
        -11    1    3    3    0    0  0.97501917656E+00 -0.27044457674E+01 -0.28383575589E+01  0.40399211870E+01  0.51100000000E-03 0.  1.
         12    1    3    3    0    0 -0.30669880937E+02 -0.18206939889E+02 -0.17946614453E+02  0.39927624862E+02  0.00000000000E+00 0. -1.
</event>
<event>
 7    1  0.4519225E-009  0.4778727E+02  0.7816164E-02  0.1312668E+00
        -11   -1    0    0    0    0  0.00000000000E+00  0.00000000000E+00  0.45593999997E+02  0.45594000000E+02  0.51100000000E-03 0. -1.
         11   -1    0    0    0    0 -0.00000000000E+00 -0.00000000000E+00 -0.45593999997E+02  0.45594000000E+02  0.51100000000E-03 0.  1.
    9900012    2    1    2    0    0 -0.23576152236E+02  0.33274769219E+02 -0.14851874978E+02  0.47787269462E+02  0.19999992787E+02 0.  0.
        -12    1    1    2    0    0  0.23576152236E+02 -0.33274769219E+02  0.14851874978E+02  0.43400730538E+02  0.00000000000E+00 0.  1.
         11    1    3    3    0    0 -0.14640572125E+02  0.16675116852E+02 -0.47055605930E+01  0.22683654356E+02  0.51100000000E-03 0. -1.
        -11    1    3    3    0    0 -0.91123770091E+01  0.84810090526E+01 -0.11408667810E+02  0.16885515413E+02  0.51100000000E-03 0.  1.
         12    1    3    3    0    0  0.17679689819E+00  0.81186433147E+01  0.12623534245E+01  0.82180996941E+01  0.00000000000E+00 0. -1.
</event>
<event>
 7    1  0.4633043E-009  0.4778728E+02  0.7816164E-02  0.1312668E+00
        -11   -1    0    0    0    0  0.00000000000E+00  0.00000000000E+00  0.45593999997E+02  0.45594000000E+02  0.51100000000E-03 0.  1.
         11   -1    0    0    0    0 -0.00000000000E+00 -0.00000000000E+00 -0.45593999997E+02  0.45594000000E+02  0.51100000000E-03 0. -1.
    9900012    2    1    2    0    0  0.41988393428E+02  0.44985385221E+01 -0.10018014311E+02  0.47787278321E+02  0.20000033177E+02 0.  0.
        -12    1    1    2    0    0 -0.41988393428E+02 -0.44985385221E+01  0.10018014311E+02  0.43400721679E+02  0.00000000000E+00 0.  1.
         11    1    3    3    0    0  0.37575664614E+01  0.24338556627E+01 -0.45449797225E+01  0.63796394912E+01  0.51100000000E-03 0.  1.
        -11    1    3    3    0    0  0.20162229107E+01  0.28126877621E+01  0.25607550825E+01  0.43050939742E+01  0.51100000000E-03 0. -1.
         12    1    3    3    0    0  0.36214604056E+02 -0.74800490280E+00 -0.80337896712E+01  0.37102544856E+02  0.00000000000E+00 0. -1.
</event>
<event>
 7    1  0.4519225E-009  0.4778726E+02  0.7816164E-02  0.1312668E+00
        -11   -1    0    0    0    0  0.00000000000E+00  0.00000000000E+00  0.45593999997E+02  0.45594000000E+02  0.51100000000E-03 0.  1.
         11   -1    0    0    0    0 -0.00000000000E+00 -0.00000000000E+00 -0.45593999997E+02  0.45594000000E+02  0.51100000000E-03 0. -1.
    9900012    2    1    2    0    0  0.16916362387E+02 -0.26407230846E+02 -0.30001991511E+02  0.47787255168E+02  0.19999927613E+02 0.  0.
        -12    1    1    2    0    0 -0.16916362387E+02  0.26407230846E+02  0.30001991511E+02  0.43400744832E+02  0.00000000000E+00 0.  1.
         11    1    3    3    0    0  0.11459679865E+02 -0.12653111265E+02 -0.27694222439E+02  0.32532990088E+02  0.51100000000E-03 0. -1.
        -11    1    3    3    0    0 -0.19379757099E+00 -0.12552089475E+00  0.17960465258E+00  0.29252535940E+00  0.51100000000E-03 0.  1.
         12    1    3    3    0    0  0.56504800923E+01 -0.13628598686E+02 -0.24873737246E+01  0.14961739720E+02  0.00000000000E+00 0. -1.
</event>
<event>
 7    1  0.4519225E-009  0.4778729E+02  0.7816164E-02  0.1312668E+00
        -11   -1    0    0    0    0  0.00000000000E+00  0.00000000000E+00  0.45593999997E+02  0.45594000000E+02  0.51100000000E-03 0.  1.
         11   -1    0    0    0    0 -0.00000000000E+00 -0.00000000000E+00 -0.45593999997E+02  0.45594000000E+02  0.51100000000E-03 0. -1.
    9900012    2    1    2    0    0 -0.38862962902E+02 -0.20796837762E+01 -0.19208504119E+02  0.47787290321E+02  0.20000087891E+02 0.  0.
        -12    1    1    2    0    0  0.38862962902E+02  0.20796837762E+01  0.19208504119E+02  0.43400709679E+02  0.00000000000E+00 0.  1.
         11    1    3    3    0    0 -0.88293993079E+01  0.16429324844E+00 -0.10342225415E+02  0.13599518786E+02  0.51100000000E-03 0. -1.
        -11    1    3    3    0    0 -0.35237653096E+01  0.34562520681E+01  0.14990137381E+01  0.51584535244E+01  0.51100000000E-03 0.  1.
         12    1    3    3    0    0 -0.26509798284E+02 -0.57002290927E+01 -0.10365292442E+02  0.29029318011E+02  0.00000000000E+00 0. -1.
</event>
<event>
 7    1  0.4519225E-009  0.4778727E+02  0.7816164E-02  0.1312668E+00
        -11   -1    0    0    0    0  0.00000000000E+00  0.00000000000E+00  0.45593999997E+02  0.45594000000E+02  0.51100000000E-03 0.  1.
         11   -1    0    0    0    0 -0.00000000000E+00 -0.00000000000E+00 -0.45593999997E+02  0.45594000000E+02  0.51100000000E-03 0. -1.
    9900012    2    1    2    0    0  0.40845158465E+02  0.31956561286E+01 -0.14320761452E+02  0.47787269629E+02  0.19999993548E+02 0.  0.
        -12    1    1    2    0    0 -0.40845158465E+02 -0.31956561286E+01  0.14320761452E+02  0.43400730371E+02  0.00000000000E+00 0.  1.
         11    1    3    3    0    0  0.42888679978E+01  0.21459111802E+01 -0.37865045943E+01  0.61103961246E+01  0.51100000000E-03 0. -1.
        -11    1    3    3    0    0 -0.14461227408E+00  0.19231589746E+01  0.21010651160E+01  0.28520042135E+01  0.51100000000E-03 0.  1.
         12    1    3    3    0    0  0.36700902741E+02 -0.87341402613E+00 -0.12635321974E+02  0.38824869291E+02  0.00000000000E+00 0. -1.
</event>
<event>
 7    1  0.4519225E-009  0.4778727E+02  0.7816164E-02  0.1312668E+00
        -11   -1    0    0    0    0  0.00000000000E+00  0.00000000000E+00  0.45593999997E+02  0.45594000000E+02  0.51100000000E-03 0.  1.
         11   -1    0    0    0    0 -0.00000000000E+00 -0.00000000000E+00 -0.45593999997E+02  0.45594000000E+02  0.51100000000E-03 0. -1.
    9900012    2    1    2    0    0 -0.10923766612E+02  0.39487371656E+02 -0.14319290757E+02  0.47787270915E+02  0.19999999412E+02 0.  0.
        -12    1    1    2    0    0  0.10923766612E+02 -0.39487371656E+02  0.14319290757E+02  0.43400729085E+02  0.00000000000E+00 0.  1.
         11    1    3    3    0    0 -0.10331837822E+02  0.18869885034E+02 -0.44912646391E+00  0.21517926220E+02  0.51100000000E-03 0. -1.
        -11    1    3    3    0    0 -0.23694948486E+01  0.93623930013E+00 -0.15929907920E+01  0.30047744989E+01  0.51100000000E-03 0.  1.
        -12    1    3    3    0    0  0.17775660585E+01  0.19681247322E+02 -0.12277173502E+02  0.23264570196E+02  0.00000000000E+00 0.  1.
</event>
<event>
 7    1  0.4519225E-009  0.4778727E+02  0.7816164E-02  0.1312668E+00
        -11   -1    0    0    0    0  0.00000000000E+00  0.00000000000E+00  0.45593999997E+02  0.45594000000E+02  0.51100000000E-03 0. -1.
         11   -1    0    0    0    0 -0.00000000000E+00 -0.00000000000E+00 -0.45593999997E+02  0.45594000000E+02  0.51100000000E-03 0.  1.
    9900012    2    1    2    0    0 -0.31519942890E+02 -0.28474767237E+02  0.89052708487E+01  0.47787273993E+02  0.20000013445E+02 0.  0.
        -12    1    1    2    0    0  0.31519942890E+02  0.28474767237E+02 -0.89052708487E+01  0.43400726007E+02  0.00000000000E+00 0.  1.
         11    1    3    3    0    0 -0.10966024378E+02 -0.33568786131E+01 -0.43097600956E+01  0.12251381842E+02  0.51100000000E-03 0. -1.
        -11    1    3    3    0    0 -0.26558590732E+01 -0.97217840794E+00  0.37780098156E+00  0.28533229954E+01  0.51100000000E-03 0.  1.
        -12    1    3    3    0    0 -0.17898059439E+02 -0.24145710216E+02  0.12837229963E+02  0.32682569156E+02  0.00000000000E+00 0.  1.
</event>
<event>
 7    1  0.4519225E-009  0.4778727E+02  0.7816164E-02  0.1312668E+00
        -11   -1    0    0    0    0  0.00000000000E+00  0.00000000000E+00  0.45593999997E+02  0.45594000000E+02  0.51100000000E-03 0. -1.
         11   -1    0    0    0    0 -0.00000000000E+00 -0.00000000000E+00 -0.45593999997E+02  0.45594000000E+02  0.51100000000E-03 0.  1.
    9900012    2    1    2    0    0 -0.15974304371E+02 -0.40296202047E+02 -0.21589301478E+01  0.47787270986E+02  0.19999999735E+02 0.  0.
        -12    1    1    2    0    0  0.15974304371E+02  0.40296202047E+02  0.21589301478E+01  0.43400729014E+02  0.00000000000E+00 0.  1.
         11    1    3    3    0    0 -0.11515284953E+02 -0.32176388861E+02 -0.78250821559E+01  0.35059288337E+02  0.51100000000E-03 0. -1.
        -11    1    3    3    0    0 -0.33258000262E+01 -0.84242466018E+01  0.25663982157E+01  0.94135687539E+01  0.51100000000E-03 0.  1.
        -12    1    3    3    0    0 -0.11332193920E+01  0.30443341629E+00  0.30997537924E+01  0.33144138952E+01  0.00000000000E+00 0.  1.
</event>
<event>
 7    1  0.4519225E-009  0.4778727E+02  0.7816164E-02  0.1312668E+00
        -11   -1    0    0    0    0  0.00000000000E+00  0.00000000000E+00  0.45593999997E+02  0.45594000000E+02  0.51100000000E-03 0.  1.
         11   -1    0    0    0    0 -0.00000000000E+00 -0.00000000000E+00 -0.45593999997E+02  0.45594000000E+02  0.51100000000E-03 0. -1.
    9900012    2    1    2    0    0 -0.36924337272E+02  0.21186916935E+02 -0.84457715146E+01  0.47787272026E+02  0.20000004474E+02 0.  0.
        -12    1    1    2    0    0  0.36924337272E+02 -0.21186916935E+02  0.84457715146E+01  0.43400727974E+02  0.00000000000E+00 0.  1.
         11    1    3    3    0    0 -0.10272112205E+02  0.10365502579E+02 -0.60706538855E+01  0.15805466514E+02  0.51100000000E-03 0. -1.
        -11    1    3    3    0    0 -0.21113042904E+02  0.13159996288E+02  0.13388453946E+01  0.24914626030E+02  0.51100000000E-03 0.  1.
         12    1    3    3    0    0 -0.55391821636E+01 -0.23385819315E+01 -0.37139630237E+01  0.70671794822E+01  0.00000000000E+00 0. -1.
</event>
<event>
 7    1  0.4519225E-009  0.4778727E+02  0.7816164E-02  0.1312668E+00
        -11   -1    0    0    0    0  0.00000000000E+00  0.00000000000E+00  0.45593999997E+02  0.45594000000E+02  0.51100000000E-03 0.  1.
         11   -1    0    0    0    0 -0.00000000000E+00 -0.00000000000E+00 -0.45593999997E+02  0.45594000000E+02  0.51100000000E-03 0. -1.
    9900012    2    1    2    0    0  0.41318219812E+02 -0.89945835051E+01 -0.97737091051E+01  0.47787271775E+02  0.20000003329E+02 0.  0.
        -12    1    1    2    0    0 -0.41318219812E+02  0.89945835051E+01  0.97737091051E+01  0.43400728225E+02  0.00000000000E+00 0.  1.
         11    1    3    3    0    0  0.26112493844E+02 -0.24421379361E+01 -0.48596864982E+01  0.26672887463E+02  0.51100000000E-03 0. -1.
        -11    1    3    3    0    0  0.13978523417E+02 -0.23556628965E+00 -0.44105994135E+01  0.14659740647E+02  0.51100000000E-03 0.  1.
        -12    1    3    3    0    0  0.12272025504E+01 -0.63168792793E+01 -0.50342319333E+00  0.64546436649E+01  0.00000000000E+00 0.  1.
</event>
<event>
 7    1  0.4519225E-009  0.4778727E+02  0.7816164E-02  0.1312668E+00
        -11   -1    0    0    0    0  0.00000000000E+00  0.00000000000E+00  0.45593999997E+02  0.45594000000E+02  0.51100000000E-03 0.  1.
         11   -1    0    0    0    0 -0.00000000000E+00 -0.00000000000E+00 -0.45593999997E+02  0.45594000000E+02  0.51100000000E-03 0. -1.
    9900012    2    1    2    0    0  0.32753183406E+02  0.22392523519E+02 -0.17590549038E+02  0.47787267883E+02  0.19999985587E+02 0.  0.
        -12    1    1    2    0    0 -0.32753183406E+02 -0.22392523519E+02  0.17590549038E+02  0.43400732117E+02  0.00000000000E+00 0.  1.
         11    1    3    3    0    0 -0.11105511338E+01  0.28220276737E+00  0.39592258574E+00  0.12123189258E+01  0.51100000000E-03 0.  1.
        -11    1    3    3    0    0  0.19633936522E+02  0.11528636091E+02 -0.22729036480E+01  0.22881586586E+02  0.51100000000E-03 0. -1.
         12    1    3    3    0    0  0.14229798018E+02  0.10581684661E+02 -0.15713567976E+02  0.23693362371E+02  0.00000000000E+00 0. -1.
</event>
<event>
 7    1  0.4519225E-009  0.4778727E+02  0.7816164E-02  0.1312668E+00
        -11   -1    0    0    0    0  0.00000000000E+00  0.00000000000E+00  0.45593999997E+02  0.45594000000E+02  0.51100000000E-03 0.  1.
         11   -1    0    0    0    0 -0.00000000000E+00 -0.00000000000E+00 -0.45593999997E+02  0.45594000000E+02  0.51100000000E-03 0. -1.
    9900012    2    1    2    0    0  0.11097349405E+02 -0.37834925234E+02  0.18138093065E+02  0.47787272457E+02  0.20000006439E+02 0.  0.
        -12    1    1    2    0    0 -0.11097349405E+02  0.37834925234E+02 -0.18138093065E+02  0.43400727543E+02  0.00000000000E+00 0.  1.
         11    1    3    3    0    0  0.10627904031E+02 -0.12179222828E+02  0.78450690688E+01  0.17967496257E+02  0.51100000000E-03 0. -1.
        -11    1    3    3    0    0  0.19360390567E+00 -0.99278414253E+00  0.43274981369E+01  0.44441358229E+01  0.51100000000E-03 0.  1.
         12    1    3    3    0    0  0.27584146886E+00 -0.24662918263E+02  0.59655258595E+01  0.25375640377E+02  0.00000000000E+00 0. -1.
</event>
<event>
 7    1  0.4519225E-009  0.4778727E+02  0.7816164E-02  0.1312668E+00
        -11   -1    0    0    0    0  0.00000000000E+00  0.00000000000E+00  0.45593999997E+02  0.45594000000E+02  0.51100000000E-03 0.  1.
         11   -1    0    0    0    0 -0.00000000000E+00 -0.00000000000E+00 -0.45593999997E+02  0.45594000000E+02  0.51100000000E-03 0. -1.
    9900012    2    1    2    0    0  0.32609468600E+02  0.12242717241E+02 -0.25891346233E+02  0.47787269850E+02  0.19999994553E+02 0.  0.
        -12    1    1    2    0    0 -0.32609468600E+02 -0.12242717241E+02  0.25891346233E+02  0.43400730150E+02  0.00000000000E+00 0.  1.
         11    1    3    3    0    0  0.64653330760E+01 -0.21422219376E+01 -0.10271791745E+02  0.12324745536E+02  0.51100000000E-03 0. -1.
        -11    1    3    3    0    0 -0.83795280906E+00  0.46845131053E+00  0.50701887391E+00  0.10856702723E+01  0.51100000000E-03 0.  1.
         12    1    3    3    0    0  0.26982088333E+02  0.13916487868E+02 -0.16126573362E+02  0.34376854041E+02  0.00000000000E+00 0. -1.
</event>
<event>
 7    1  0.4519225E-009  0.4778728E+02  0.7816164E-02  0.1312668E+00
        -11   -1    0    0    0    0  0.00000000000E+00  0.00000000000E+00  0.45593999997E+02  0.45594000000E+02  0.51100000000E-03 0. -1.
         11   -1    0    0    0    0 -0.00000000000E+00 -0.00000000000E+00 -0.45593999997E+02  0.45594000000E+02  0.51100000000E-03 0.  1.
    9900012    2    1    2    0    0  0.27452380453E+02  0.32986957157E+02 -0.64691818615E+01  0.47787275940E+02  0.20000022321E+02 0.  0.
        -12    1    1    2    0    0 -0.27452380453E+02 -0.32986957157E+02  0.64691818615E+01  0.43400724060E+02  0.00000000000E+00 0.  1.
         11    1    3    3    0    0  0.19421388259E+01  0.57090479789E+01  0.11022269388E+01  0.61302558291E+01  0.51100000000E-03 0. -1.
        -11    1    3    3    0    0  0.21507420378E+02  0.11461102340E+02 -0.21536723048E+01  0.24465573830E+02  0.51100000000E-03 0.  1.
         12    1    3    3    0    0  0.40028212484E+01  0.15816806838E+02 -0.54177364955E+01  0.17191446281E+02  0.00000000000E+00 0. -1.
</event>
<event>
 7    1  0.4519225E-009  0.4778727E+02  0.7816164E-02  0.1312668E+00
        -11   -1    0    0    0    0  0.00000000000E+00  0.00000000000E+00  0.45593999997E+02  0.45594000000E+02  0.51100000000E-03 0.  1.
         11   -1    0    0    0    0 -0.00000000000E+00 -0.00000000000E+00 -0.45593999997E+02  0.45594000000E+02  0.51100000000E-03 0. -1.
    9900012    2    1    2    0    0 -0.55668241455E+01  0.13825792116E+02 -0.40761269355E+02  0.47787272608E+02  0.20000007131E+02 0.  0.
        -12    1    1    2    0    0  0.55668241455E+01 -0.13825792116E+02  0.40761269355E+02  0.43400727392E+02  0.00000000000E+00 0.  1.
         11    1    3    3    0    0 -0.43135814311E+01 -0.51182946049E+00 -0.78269890894E+01  0.89515759856E+01  0.51100000000E-03 0. -1.
        -11    1    3    3    0    0 -0.30744836196E+01 -0.12320446031E+01 -0.13326760159E+02  0.13732185552E+02  0.51100000000E-03 0.  1.
         12    1    3    3    0    0  0.18212409052E+01  0.15569666179E+02 -0.19607520107E+02  0.25103511071E+02  0.00000000000E+00 0. -1.
</event>
<event>
 7    1  0.4519225E-009  0.4778727E+02  0.7816164E-02  0.1312668E+00
        -11   -1    0    0    0    0  0.00000000000E+00  0.00000000000E+00  0.45593999997E+02  0.45594000000E+02  0.51100000000E-03 0.  1.
         11   -1    0    0    0    0 -0.00000000000E+00 -0.00000000000E+00 -0.45593999997E+02  0.45594000000E+02  0.51100000000E-03 0. -1.
    9900012    2    1    2    0    0 -0.11933344528E+02 -0.33255186811E+02  0.25205377750E+02  0.47787271561E+02  0.20000002357E+02 0.  0.
        -12    1    1    2    0    0  0.11933344528E+02  0.33255186811E+02 -0.25205377750E+02  0.43400728439E+02  0.00000000000E+00 0.  1.
         11    1    3    3    0    0 -0.10862395266E+02 -0.14578464690E+02  0.85908106217E+01  0.20107841530E+02  0.51100000000E-03 0. -1.
        -11    1    3    3    0    0 -0.10755417542E+01 -0.19905515882E+02  0.12844815306E+02  0.23714460422E+02  0.51100000000E-03 0.  1.
        -12    1    3    3    0    0  0.45924922135E-02  0.12287937605E+01  0.37697518224E+01  0.39649696089E+01  0.00000000000E+00 0.  1.
</event>
<event>
 7    1  0.4519225E-009  0.4778728E+02  0.7816164E-02  0.1312668E+00
        -11   -1    0    0    0    0  0.00000000000E+00  0.00000000000E+00  0.45593999997E+02  0.45594000000E+02  0.51100000000E-03 0. -1.
         11   -1    0    0    0    0 -0.00000000000E+00 -0.00000000000E+00 -0.45593999997E+02  0.45594000000E+02  0.51100000000E-03 0.  1.
    9900012    2    1    2    0    0 -0.15602681968E+02 -0.10723455559E+02  0.39053638371E+02  0.47787275885E+02  0.20000022069E+02 0.  0.
        -12    1    1    2    0    0  0.15602681968E+02  0.10723455559E+02 -0.39053638371E+02  0.43400724115E+02  0.00000000000E+00 0.  1.
         11    1    3    3    0    0  0.56991459617E+00  0.12031514828E+01 -0.33415046530E+00  0.13726007913E+01  0.51100000000E-03 0. -1.
        -11    1    3    3    0    0 -0.16420059746E+01  0.31891293887E+01  0.58339554590E+01  0.68484864340E+01  0.51100000000E-03 0.  1.
         12    1    3    3    0    0 -0.14530590590E+02 -0.15115736430E+02  0.33553833377E+02  0.39566188659E+02  0.00000000000E+00 0. -1.
</event>
<event>
 7    1  0.4519225E-009  0.4778726E+02  0.7816164E-02  0.1312668E+00
        -11   -1    0    0    0    0  0.00000000000E+00  0.00000000000E+00  0.45593999997E+02  0.45594000000E+02  0.51100000000E-03 0.  1.
         11   -1    0    0    0    0 -0.00000000000E+00 -0.00000000000E+00 -0.45593999997E+02  0.45594000000E+02  0.51100000000E-03 0. -1.
    9900012    2    1    2    0    0 -0.32528072042E+02  0.16316203133E+02 -0.23650157999E+02  0.47787263499E+02  0.19999965598E+02 0.  0.
        -12    1    1    2    0    0  0.32528072042E+02 -0.16316203133E+02  0.23650157999E+02  0.43400736501E+02  0.00000000000E+00 0.  1.
         11    1    3    3    0    0 -0.15706469233E+02  0.46611461885E+01 -0.16892579395E+02  0.23532503021E+02  0.51100000000E-03 0. -1.
        -11    1    3    3    0    0 -0.11220499698E+01  0.38149691979E+01 -0.53279616022E+01  0.66483201797E+01  0.51100000000E-03 0.  1.
        -12    1    3    3    0    0 -0.15699552839E+02  0.78400877470E+01 -0.14296170018E+01  0.17606440299E+02  0.00000000000E+00 0.  1.
</event>
<event>
 7    1  0.4519225E-009  0.4778728E+02  0.7816164E-02  0.1312668E+00
        -11   -1    0    0    0    0  0.00000000000E+00  0.00000000000E+00  0.45593999997E+02  0.45594000000E+02  0.51100000000E-03 0.  1.
         11   -1    0    0    0    0 -0.00000000000E+00 -0.00000000000E+00 -0.45593999997E+02  0.45594000000E+02  0.51100000000E-03 0. -1.
    9900012    2    1    2    0    0 -0.40210739346E+02  0.60482166194E+01  0.15170312533E+02  0.47787275751E+02  0.20000021459E+02 0.  0.
        -12    1    1    2    0    0  0.40210739346E+02 -0.60482166194E+01 -0.15170312533E+02  0.43400724249E+02  0.00000000000E+00 0.  1.
         11    1    3    3    0    0 -0.28103392582E+02  0.57208805064E+01  0.83900365334E+01  0.29881798167E+02  0.51100000000E-03 0. -1.
        -11    1    3    3    0    0 -0.76855699798E+01  0.57329951340E+01  0.39342300700E+01  0.10364042919E+02  0.51100000000E-03 0.  1.
        -12    1    3    3    0    0 -0.44217767838E+01 -0.54056590209E+01  0.28460459292E+01  0.75414346651E+01  0.00000000000E+00 0.  1.
</event>
<event>
 7    1  0.4519225E-009  0.4778729E+02  0.7816164E-02  0.1312668E+00
        -11   -1    0    0    0    0  0.00000000000E+00  0.00000000000E+00  0.45593999997E+02  0.45594000000E+02  0.51100000000E-03 0.  1.
         11   -1    0    0    0    0 -0.00000000000E+00 -0.00000000000E+00 -0.45593999997E+02  0.45594000000E+02  0.51100000000E-03 0. -1.
    9900012    2    1    2    0    0  0.26695165545E+02 -0.19295142801E+02 -0.28261052679E+02  0.47787291507E+02  0.20000093295E+02 0.  0.
        -12    1    1    2    0    0 -0.26695165545E+02  0.19295142801E+02  0.28261052679E+02  0.43400708493E+02  0.00000000000E+00 0.  1.
         11    1    3    3    0    0  0.15516925002E+02 -0.96903853829E+01 -0.11481308251E+02  0.21598587217E+02  0.51100000000E-03 0. -1.
        -11    1    3    3    0    0  0.58355372358E+01 -0.90990475165E+01 -0.27300625263E+01  0.11148964176E+02  0.51100000000E-03 0.  1.
        -12    1    3    3    0    0  0.53427033079E+01 -0.50570990207E+00 -0.14049681902E+02  0.15039740113E+02  0.00000000000E+00 0.  1.
</event>
<event>
 7    1  0.4519225E-009  0.4778727E+02  0.7816164E-02  0.1312668E+00
        -11   -1    0    0    0    0  0.00000000000E+00  0.00000000000E+00  0.45593999997E+02  0.45594000000E+02  0.51100000000E-03 0.  1.
         11   -1    0    0    0    0 -0.00000000000E+00 -0.00000000000E+00 -0.45593999997E+02  0.45594000000E+02  0.51100000000E-03 0. -1.
    9900012    2    1    2    0    0  0.20578264400E+02 -0.53484539964E+01 -0.37835860209E+02  0.47787271393E+02  0.20000001591E+02 0.  0.
        -12    1    1    2    0    0 -0.20578264400E+02  0.53484539964E+01  0.37835860209E+02  0.43400728607E+02  0.00000000000E+00 0.  1.
         11    1    3    3    0    0 -0.48799409255E+00 -0.30751469934E+01 -0.16102804604E+02  0.16401066540E+02  0.51100000000E-03 0. -1.
        -11    1    3    3    0    0  0.53424219917E+01 -0.22831564072E+01 -0.10706955924E+02  0.12181673996E+02  0.51100000000E-03 0.  1.
        -12    1    3    3    0    0  0.15723836501E+02  0.98494042229E-02 -0.11026099680E+02  0.19204530858E+02  0.00000000000E+00 0.  1.
</event>
<event>
 7    1  0.4519225E-009  0.4778727E+02  0.7816164E-02  0.1312668E+00
        -11   -1    0    0    0    0  0.00000000000E+00  0.00000000000E+00  0.45593999997E+02  0.45594000000E+02  0.51100000000E-03 0. -1.
         11   -1    0    0    0    0 -0.00000000000E+00 -0.00000000000E+00 -0.45593999997E+02  0.45594000000E+02  0.51100000000E-03 0.  1.
    9900012    2    1    2    0    0  0.14211715449E+02 -0.40435075388E+02 -0.68304362391E+01  0.47787273775E+02  0.20000012449E+02 0.  0.
        -12    1    1    2    0    0 -0.14211715449E+02  0.40435075388E+02  0.68304362391E+01  0.43400726225E+02  0.00000000000E+00 0.  1.
         11    1    3    3    0    0  0.13000145713E+01 -0.46288993004E+01  0.22587678428E+01  0.53121350743E+01  0.51100000000E-03 0.  1.
        -11    1    3    3    0    0  0.71185576568E+01 -0.34242143422E+02 -0.10069667505E+02  0.36395005883E+02  0.51100000000E-03 0. -1.
         12    1    3    3    0    0  0.57931432212E+01 -0.15640326656E+01  0.98046342316E+00  0.60801328180E+01  0.00000000000E+00 0. -1.
</event>
<event>
 7    1  0.4519225E-009  0.4778726E+02  0.7816164E-02  0.1312668E+00
        -11   -1    0    0    0    0  0.00000000000E+00  0.00000000000E+00  0.45593999997E+02  0.45594000000E+02  0.51100000000E-03 0.  1.
         11   -1    0    0    0    0 -0.00000000000E+00 -0.00000000000E+00 -0.45593999997E+02  0.45594000000E+02  0.51100000000E-03 0. -1.
    9900012    2    1    2    0    0 -0.22552745109E+02  0.36936059263E+02 -0.32750169568E+01  0.47787256667E+02  0.19999934447E+02 0.  0.
        -12    1    1    2    0    0  0.22552745109E+02 -0.36936059263E+02  0.32750169568E+01  0.43400743333E+02  0.00000000000E+00 0.  1.
         11    1    3    3    0    0 -0.96531769367E+01  0.64675434862E+01  0.23814781521E-01  0.11619531450E+02  0.51100000000E-03 0. -1.
        -11    1    3    3    0    0 -0.14910526718E+02  0.21865128946E+02  0.68896813497E+00  0.26474182673E+02  0.51100000000E-03 0.  1.
        -12    1    3    3    0    0  0.20109585458E+01  0.86033868302E+01 -0.39877998733E+01  0.96935425440E+01  0.00000000000E+00 0.  1.
</event>
<event>
 7    1  0.4519225E-009  0.4778727E+02  0.7816164E-02  0.1312668E+00
        -11   -1    0    0    0    0  0.00000000000E+00  0.00000000000E+00  0.45593999997E+02  0.45594000000E+02  0.51100000000E-03 0.  1.
         11   -1    0    0    0    0 -0.00000000000E+00 -0.00000000000E+00 -0.45593999997E+02  0.45594000000E+02  0.51100000000E-03 0. -1.
    9900012    2    1    2    0    0  0.32452402467E+02 -0.91089561944E+01 -0.27340300149E+02  0.47787268197E+02  0.19999987016E+02 0.  0.
        -12    1    1    2    0    0 -0.32452402467E+02  0.91089561944E+01  0.27340300149E+02  0.43400731803E+02  0.00000000000E+00 0.  1.
         11    1    3    3    0    0  0.16023666034E+02 -0.54968174988E+01 -0.22479065745E+02  0.28147491413E+02  0.51100000000E-03 0. -1.
        -11    1    3    3    0    0  0.15572066546E+01 -0.22535925706E+01 -0.37787038834E+01  0.46671378101E+01  0.51100000000E-03 0.  1.
        -12    1    3    3    0    0  0.14871529778E+02 -0.13585461251E+01 -0.10825305202E+01  0.14972638974E+02  0.00000000000E+00 0.  1.
</event>
<event>
 7    1  0.4519225E-009  0.4778728E+02  0.7816164E-02  0.1312668E+00
        -11   -1    0    0    0    0  0.00000000000E+00  0.00000000000E+00  0.45593999997E+02  0.45594000000E+02  0.51100000000E-03 0.  1.
         11   -1    0    0    0    0 -0.00000000000E+00 -0.00000000000E+00 -0.45593999997E+02  0.45594000000E+02  0.51100000000E-03 0. -1.
    9900012    2    1    2    0    0 -0.41088981442E+02 -0.30845624595E-01 -0.13975596707E+02  0.47787278224E+02  0.20000032736E+02 0.  0.
        -12    1    1    2    0    0  0.41088981442E+02  0.30845624595E-01  0.13975596707E+02  0.43400721776E+02  0.00000000000E+00 0.  1.
         11    1    3    3    0    0 -0.17415858185E+02 -0.54962189484E+01 -0.42756096353E+01  0.18756368973E+02  0.51100000000E-03 0. -1.
        -11    1    3    3    0    0 -0.14834610578E+02  0.65556600026E+00  0.28952913062E+00  0.14851911162E+02  0.51100000000E-03 0.  1.
        -12    1    3    3    0    0 -0.88385126781E+01  0.48098073235E+01 -0.99895162019E+01  0.14178998089E+02  0.00000000000E+00 0.  1.
</event>
<event>
 7    1  0.4519225E-009  0.4778727E+02  0.7816164E-02  0.1312668E+00
        -11   -1    0    0    0    0  0.00000000000E+00  0.00000000000E+00  0.45593999997E+02  0.45594000000E+02  0.51100000000E-03 0.  1.
         11   -1    0    0    0    0 -0.00000000000E+00 -0.00000000000E+00 -0.45593999997E+02  0.45594000000E+02  0.51100000000E-03 0. -1.
    9900012    2    1    2    0    0 -0.38975419257E+02  0.10648457647E+02 -0.15847716196E+02  0.47787273449E+02  0.20000010963E+02 0.  0.
        -12    1    1    2    0    0  0.38975419257E+02 -0.10648457647E+02  0.15847716196E+02  0.43400726551E+02  0.00000000000E+00 0.  1.
         11    1    3    3    0    0 -0.14856056000E+02  0.20928632984E+01 -0.77187104715E+01  0.16871898775E+02  0.51100000000E-03 0. -1.
        -11    1    3    3    0    0 -0.15728478759E+02 -0.25233312720E+01 -0.43077889609E+01  0.16501796592E+02  0.51100000000E-03 0.  1.
         12    1    3    3    0    0 -0.83908844981E+01  0.11078925621E+02 -0.38212167633E+01  0.14413578082E+02  0.00000000000E+00 0. -1.
</event>
<event>
 7    1  0.4519225E-009  0.4778727E+02  0.7816164E-02  0.1312668E+00
        -11   -1    0    0    0    0  0.00000000000E+00  0.00000000000E+00  0.45593999997E+02  0.45594000000E+02  0.51100000000E-03 0.  1.
         11   -1    0    0    0    0 -0.00000000000E+00 -0.00000000000E+00 -0.45593999997E+02  0.45594000000E+02  0.51100000000E-03 0. -1.
    9900012    2    1    2    0    0 -0.23361739221E+01 -0.41715818561E+02 -0.11745469135E+02  0.47787271066E+02  0.20000000100E+02 0.  0.
        -12    1    1    2    0    0  0.23361739221E+01  0.41715818561E+02  0.11745469135E+02  0.43400728934E+02  0.00000000000E+00 0.  1.
         11    1    3    3    0    0 -0.18390158618E+01 -0.13277911533E+02 -0.69746189746E+01  0.15110599728E+02  0.51100000000E-03 0. -1.
        -11    1    3    3    0    0 -0.19314259901E+01 -0.11616521427E+02 -0.95157544735E+01  0.15140130775E+02  0.51100000000E-03 0.  1.
         12    1    3    3    0    0  0.14342679297E+01 -0.16821385601E+02  0.47449043131E+01  0.17536540564E+02  0.00000000000E+00 0. -1.
</event>
<event>
 7    1  0.4519225E-009  0.4778731E+02  0.7816164E-02  0.1312668E+00
        -11   -1    0    0    0    0  0.00000000000E+00  0.00000000000E+00  0.45593999997E+02  0.45594000000E+02  0.51100000000E-03 0.  1.
         11   -1    0    0    0    0 -0.00000000000E+00 -0.00000000000E+00 -0.45593999997E+02  0.45594000000E+02  0.51100000000E-03 0. -1.
    9900012    2    1    2    0    0 -0.24930072205E+02 -0.32137210507E+02 -0.15143018720E+02  0.47787310889E+02  0.20000181668E+02 0.  0.
        -12    1    1    2    0    0  0.24930072205E+02  0.32137210507E+02  0.15143018720E+02  0.43400689111E+02  0.00000000000E+00 0.  1.
         11    1    3    3    0    0 -0.11905186108E+02 -0.18171156605E+02 -0.52120838051E+01  0.22340326911E+02  0.51100000000E-03 0.  1.
        -11    1    3    3    0    0 -0.10688167229E+02 -0.15717033016E+02 -0.11415285304E+02  0.22171395634E+02  0.51100000000E-03 0. -1.
         12    1    3    3    0    0 -0.23367188675E+01  0.17509791137E+01  0.14843503889E+01  0.32755883440E+01  0.00000000000E+00 0. -1.
</event>
<event>
 7    1  0.4519225E-009  0.4778727E+02  0.7816164E-02  0.1312668E+00
        -11   -1    0    0    0    0  0.00000000000E+00  0.00000000000E+00  0.45593999997E+02  0.45594000000E+02  0.51100000000E-03 0. -1.
         11   -1    0    0    0    0 -0.00000000000E+00 -0.00000000000E+00 -0.45593999997E+02  0.45594000000E+02  0.51100000000E-03 0.  1.
    9900012    2    1    2    0    0 -0.11410311885E+02  0.40007231150E+02  0.12363233097E+02  0.47787270810E+02  0.19999998931E+02 0.  0.
        -12    1    1    2    0    0  0.11410311885E+02 -0.40007231150E+02 -0.12363233097E+02  0.43400729190E+02  0.00000000000E+00 0.  1.
         11    1    3    3    0    0  0.12077932871E+01  0.80156392872E+01  0.47056850689E+01  0.93729776504E+01  0.51100000000E-03 0.  1.
        -11    1    3    3    0    0  0.18395029909E+00  0.15268202039E+02  0.82290371826E+01  0.17345572473E+02  0.51100000000E-03 0. -1.
        -12    1    3    3    0    0 -0.12802055471E+02  0.16723389824E+02 -0.57148915408E+00  0.21068720686E+02  0.00000000000E+00 0.  1.
</event>
<event>
 7    1  0.4519225E-009  0.4778727E+02  0.7816164E-02  0.1312668E+00
        -11   -1    0    0    0    0  0.00000000000E+00  0.00000000000E+00  0.45593999997E+02  0.45594000000E+02  0.51100000000E-03 0.  1.
         11   -1    0    0    0    0 -0.00000000000E+00 -0.00000000000E+00 -0.45593999997E+02  0.45594000000E+02  0.51100000000E-03 0. -1.
    9900012    2    1    2    0    0 -0.23267076218E+02  0.26433977642E+02 -0.25367526094E+02  0.47787269709E+02  0.19999993909E+02 0.  0.
        -12    1    1    2    0    0  0.23267076218E+02 -0.26433977642E+02  0.25367526094E+02  0.43400730291E+02  0.00000000000E+00 0.  1.
         11    1    3    3    0    0 -0.11739410389E+02  0.15303638229E+02 -0.83209454183E+01  0.21006028474E+02  0.51100000000E-03 0. -1.
        -11    1    3    3    0    0 -0.82359681972E+01  0.40202879049E+01 -0.13846310263E+01  0.92688235674E+01  0.51100000000E-03 0.  1.
        -12    1    3    3    0    0 -0.32916976318E+01  0.71100515085E+01 -0.15661949649E+02  0.17512417668E+02  0.00000000000E+00 0.  1.
</event>
<event>
 7    1  0.4519225E-009  0.4778727E+02  0.7816164E-02  0.1312668E+00
        -11   -1    0    0    0    0  0.00000000000E+00  0.00000000000E+00  0.45593999997E+02  0.45594000000E+02  0.51100000000E-03 0.  1.
         11   -1    0    0    0    0 -0.00000000000E+00 -0.00000000000E+00 -0.45593999997E+02  0.45594000000E+02  0.51100000000E-03 0. -1.
    9900012    2    1    2    0    0  0.66031173601E+01  0.15839611193E+01 -0.42866222064E+02  0.47787273212E+02  0.20000009883E+02 0.  0.
        -12    1    1    2    0    0 -0.66031173601E+01 -0.15839611193E+01  0.42866222064E+02  0.43400726788E+02  0.00000000000E+00 0.  1.
         11    1    3    3    0    0  0.33523252774E+01  0.26377556495E+01 -0.73470118183E+01  0.84955531045E+01  0.51100000000E-03 0. -1.
        -11    1    3    3    0    0 -0.21809836332E+01  0.59587865595E+01 -0.71090486588E+01  0.95290293296E+01  0.51100000000E-03 0.  1.
         12    1    3    3    0    0  0.54317757159E+01 -0.70125810897E+01 -0.28410161587E+02  0.29762690778E+02  0.00000000000E+00 0. -1.
</event>
<event>
 7    1  0.4519225E-009  0.4778727E+02  0.7816164E-02  0.1312668E+00
        -11   -1    0    0    0    0  0.00000000000E+00  0.00000000000E+00  0.45593999997E+02  0.45594000000E+02  0.51100000000E-03 0.  1.
         11   -1    0    0    0    0 -0.00000000000E+00 -0.00000000000E+00 -0.45593999997E+02  0.45594000000E+02  0.51100000000E-03 0. -1.
    9900012    2    1    2    0    0 -0.98684183874E+01  0.38398663982E+02 -0.17657295957E+02  0.47787272154E+02  0.20000005057E+02 0.  0.
        -12    1    1    2    0    0  0.98684183874E+01 -0.38398663982E+02  0.17657295957E+02  0.43400727846E+02  0.00000000000E+00 0.  1.
         11    1    3    3    0    0 -0.27972289241E+01  0.18537978936E+02 -0.12536004746E+02  0.22552883806E+02  0.51100000000E-03 0. -1.
        -11    1    3    3    0    0  0.27992438769E+00 -0.38656566184E+00 -0.36095610431E+01  0.36409781459E+01  0.51100000000E-03 0.  1.
        -12    1    3    3    0    0 -0.73511138510E+01  0.20247250707E+02 -0.15117301685E+01  0.21593410202E+02  0.00000000000E+00 0.  1.
</event>
<event>
 7    1  0.4519225E-009  0.4778727E+02  0.7816164E-02  0.1312668E+00
        -11   -1    0    0    0    0  0.00000000000E+00  0.00000000000E+00  0.45593999997E+02  0.45594000000E+02  0.51100000000E-03 0. -1.
         11   -1    0    0    0    0 -0.00000000000E+00 -0.00000000000E+00 -0.45593999997E+02  0.45594000000E+02  0.51100000000E-03 0.  1.
    9900012    2    1    2    0    0 -0.38071501144E+02  0.19616104226E+02  0.70279783210E+01  0.47787271623E+02  0.20000002638E+02 0.  0.
        -12    1    1    2    0    0  0.38071501144E+02 -0.19616104226E+02 -0.70279783210E+01  0.43400728377E+02  0.00000000000E+00 0.  1.
         11    1    3    3    0    0 -0.22813084592E+02  0.11582475410E+02  0.23618184748E+01  0.25693749278E+02  0.51100000000E-03 0. -1.
        -11    1    3    3    0    0 -0.75573666665E+01  0.80318216570E+01 -0.27885030099E+01  0.11375398866E+02  0.51100000000E-03 0.  1.
         12    1    3    3    0    0 -0.77010498855E+01  0.18071595691E-02  0.74546628561E+01  0.10718123479E+02  0.00000000000E+00 0. -1.
</event>
<event>
 7    1  0.4519225E-009  0.4778727E+02  0.7816164E-02  0.1312668E+00
        -11   -1    0    0    0    0  0.00000000000E+00  0.00000000000E+00  0.45593999997E+02  0.45594000000E+02  0.51100000000E-03 0. -1.
         11   -1    0    0    0    0 -0.00000000000E+00 -0.00000000000E+00 -0.45593999997E+02  0.45594000000E+02  0.51100000000E-03 0.  1.
    9900012    2    1    2    0    0  0.42379887330E+02 -0.38365827331E+01  0.85351803047E+01  0.47787268209E+02  0.19999987073E+02 0.  0.
        -12    1    1    2    0    0 -0.42379887330E+02  0.38365827331E+01 -0.85351803047E+01  0.43400731791E+02  0.00000000000E+00 0.  1.
         11    1    3    3    0    0  0.45031447188E+00 -0.32787614811E+00 -0.29458662752E+01  0.29980684223E+01  0.51100000000E-03 0.  1.
        -11    1    3    3    0    0  0.13886772425E+02 -0.86511429616E+00 -0.10648241882E+01  0.13954380027E+02  0.51100000000E-03 0. -1.
        -12    1    3    3    0    0  0.28042800433E+02 -0.26435922889E+01  0.12545870768E+02  0.30834819760E+02  0.00000000000E+00 0.  1.
</event>
<event>
 7    1  0.4519225E-009  0.4778727E+02  0.7816164E-02  0.1312668E+00
        -11   -1    0    0    0    0  0.00000000000E+00  0.00000000000E+00  0.45593999997E+02  0.45594000000E+02  0.51100000000E-03 0.  1.
         11   -1    0    0    0    0 -0.00000000000E+00 -0.00000000000E+00 -0.45593999997E+02  0.45594000000E+02  0.51100000000E-03 0. -1.
    9900012    2    1    2    0    0 -0.10463036283E+02  0.32901720862E+02 -0.26298757796E+02  0.47787273905E+02  0.20000013042E+02 0.  0.
        -12    1    1    2    0    0  0.10463036283E+02 -0.32901720862E+02  0.26298757796E+02  0.43400726095E+02  0.00000000000E+00 0.  1.
         11    1    3    3    0    0 -0.18773831094E+00  0.20334439752E+02 -0.20740084207E+02  0.29046097481E+02  0.51100000000E-03 0. -1.
        -11    1    3    3    0    0 -0.62785435271E+00 -0.10398208433E+01 -0.46524113063E+00  0.13007221245E+01  0.51100000000E-03 0.  1.
         12    1    3    3    0    0 -0.96474436192E+01  0.13607101954E+02 -0.50934324582E+01  0.17440454299E+02  0.00000000000E+00 0. -1.
</event>
<event>
 7    1  0.4519225E-009  0.4778727E+02  0.7816164E-02  0.1312668E+00
        -11   -1    0    0    0    0  0.00000000000E+00  0.00000000000E+00  0.45593999997E+02  0.45594000000E+02  0.51100000000E-03 0.  1.
         11   -1    0    0    0    0 -0.00000000000E+00 -0.00000000000E+00 -0.45593999997E+02  0.45594000000E+02  0.51100000000E-03 0. -1.
    9900012    2    1    2    0    0  0.12364745005E+02  0.30945819667E+02 -0.27804545006E+02  0.47787269628E+02  0.19999993541E+02 0.  0.
        -12    1    1    2    0    0 -0.12364745005E+02 -0.30945819667E+02  0.27804545006E+02  0.43400730372E+02  0.00000000000E+00 0.  1.
         11    1    3    3    0    0  0.83325168948E+01  0.15391414438E+02 -0.97391244009E+01  0.20029403899E+02  0.51100000000E-03 0. -1.
        -11    1    3    3    0    0 -0.52208890273E+00  0.60454538242E+01  0.82554111892E+00  0.61238555799E+01  0.51100000000E-03 0.  1.
        -12    1    3    3    0    0  0.45543170132E+01  0.95089514044E+01 -0.18890961724E+02  0.21634010149E+02  0.00000000000E+00 0.  1.
</event>
<event>
 7    1  0.4519225E-009  0.4778728E+02  0.7816164E-02  0.1312668E+00
        -11   -1    0    0    0    0  0.00000000000E+00  0.00000000000E+00  0.45593999997E+02  0.45594000000E+02  0.51100000000E-03 0.  1.
         11   -1    0    0    0    0 -0.00000000000E+00 -0.00000000000E+00 -0.45593999997E+02  0.45594000000E+02  0.51100000000E-03 0. -1.
    9900012    2    1    2    0    0  0.40296075118E+02 -0.15230794063E+02  0.52794027940E+01  0.47787275909E+02  0.20000022181E+02 0.  0.
        -12    1    1    2    0    0 -0.40296075118E+02  0.15230794063E+02 -0.52794027940E+01  0.43400724091E+02  0.00000000000E+00 0.  1.
         11    1    3    3    0    0  0.16800721490E+02 -0.11818730729E+02 -0.13863096549E+01  0.20588066771E+02  0.51100000000E-03 0. -1.
        -11    1    3    3    0    0 -0.10591540243E+01 -0.56903487428E+00 -0.71927217678E+00  0.14010569798E+01  0.51100000000E-03 0.  1.
        -12    1    3    3    0    0  0.24554507653E+02 -0.28430284594E+01  0.73849846256E+01  0.25798152159E+02  0.00000000000E+00 0.  1.
</event>
<event>
 7    1  0.4519225E-009  0.4778727E+02  0.7816164E-02  0.1312668E+00
        -11   -1    0    0    0    0  0.00000000000E+00  0.00000000000E+00  0.45593999997E+02  0.45594000000E+02  0.51100000000E-03 0.  1.
         11   -1    0    0    0    0 -0.00000000000E+00 -0.00000000000E+00 -0.45593999997E+02  0.45594000000E+02  0.51100000000E-03 0. -1.
    9900012    2    1    2    0    0  0.11873432616E+02  0.13389210461E+02 -0.39539522887E+02  0.47787271562E+02  0.20000002360E+02 0.  0.
        -12    1    1    2    0    0 -0.11873432616E+02 -0.13389210461E+02  0.39539522887E+02  0.43400728438E+02  0.00000000000E+00 0.  1.
         11    1    3    3    0    0  0.11634942923E+02  0.95218480968E+01 -0.13232328882E+02  0.20028280403E+02  0.51100000000E-03 0. -1.
        -11    1    3    3    0    0  0.40297051805E+01  0.12009423719E+01 -0.13442606843E+02  0.14084902038E+02  0.51100000000E-03 0.  1.
         12    1    3    3    0    0 -0.37912154879E+01  0.26664199921E+01 -0.12864587162E+02  0.13674089122E+02  0.00000000000E+00 0. -1.
</event>
<event>
 7    1  0.4519225E-009  0.4778727E+02  0.7816164E-02  0.1312668E+00
        -11   -1    0    0    0    0  0.00000000000E+00  0.00000000000E+00  0.45593999997E+02  0.45594000000E+02  0.51100000000E-03 0.  1.
         11   -1    0    0    0    0 -0.00000000000E+00 -0.00000000000E+00 -0.45593999997E+02  0.45594000000E+02  0.51100000000E-03 0. -1.
    9900012    2    1    2    0    0 -0.28464359325E+02  0.29320418452E+02 -0.14619036969E+02  0.47787274984E+02  0.20000017964E+02 0.  0.
        -12    1    1    2    0    0  0.28464359325E+02 -0.29320418452E+02  0.14619036969E+02  0.43400725016E+02  0.00000000000E+00 0.  1.
         11    1    3    3    0    0 -0.21423201611E+02  0.12142811001E+02 -0.69317543121E+01  0.25582232983E+02  0.51100000000E-03 0. -1.
        -11    1    3    3    0    0 -0.48733464210E+00  0.17155556768E+00  0.16487052236E+01  0.17277602674E+01  0.51100000000E-03 0.  1.
         12    1    3    3    0    0 -0.65538230713E+01  0.17006051883E+02 -0.93359878804E+01  0.20477281734E+02  0.00000000000E+00 0. -1.
</event>
<event>
 7    1  0.4519225E-009  0.4778727E+02  0.7816164E-02  0.1312668E+00
        -11   -1    0    0    0    0  0.00000000000E+00  0.00000000000E+00  0.45593999997E+02  0.45594000000E+02  0.51100000000E-03 0.  1.
         11   -1    0    0    0    0 -0.00000000000E+00 -0.00000000000E+00 -0.45593999997E+02  0.45594000000E+02  0.51100000000E-03 0. -1.
    9900012    2    1    2    0    0 -0.30128330951E+02 -0.13876416436E+02 -0.27988425226E+02  0.47787271831E+02  0.20000003585E+02 0.  0.
        -12    1    1    2    0    0  0.30128330951E+02  0.13876416436E+02  0.27988425226E+02  0.43400728169E+02  0.00000000000E+00 0.  1.
         11    1    3    3    0    0 -0.13534362222E+02 -0.49207160264E+01 -0.55753645794E+01  0.15442703696E+02  0.51100000000E-03 0. -1.
        -11    1    3    3    0    0 -0.42369745149E+01 -0.36770569992E+01  0.65506366975E+00  0.56481687199E+01  0.51100000000E-03 0.  1.
         12    1    3    3    0    0 -0.12356994214E+02 -0.52786434107E+01 -0.23068124316E+02  0.26696399415E+02  0.00000000000E+00 0. -1.
</event>
<event>
 7    1  0.4519225E-009  0.4778728E+02  0.7816164E-02  0.1312668E+00
        -11   -1    0    0    0    0  0.00000000000E+00  0.00000000000E+00  0.45593999997E+02  0.45594000000E+02  0.51100000000E-03 0.  1.
         11   -1    0    0    0    0 -0.00000000000E+00 -0.00000000000E+00 -0.45593999997E+02  0.45594000000E+02  0.51100000000E-03 0. -1.
    9900012    2    1    2    0    0 -0.16748542140E+02 -0.38557211736E+02 -0.10791231565E+02  0.47787275128E+02  0.20000018620E+02 0.  0.
        -12    1    1    2    0    0  0.16748542140E+02  0.38557211736E+02  0.10791231565E+02  0.43400724872E+02  0.00000000000E+00 0.  1.
         11    1    3    3    0    0  0.69731374350E+00 -0.67126397333E+01 -0.59276437061E+00  0.67747434273E+01  0.51100000000E-03 0. -1.
        -11    1    3    3    0    0  0.16176677050E+01 -0.23799214521E+01  0.23781059570E+01  0.37331304727E+01  0.51100000000E-03 0.  1.
        -12    1    3    3    0    0 -0.19063523589E+02 -0.29464650551E+02 -0.12576573152E+02  0.37279401228E+02  0.00000000000E+00 0.  1.
</event>
<event>
 7    1  0.4519225E-009  0.4778727E+02  0.7816164E-02  0.1312668E+00
        -11   -1    0    0    0    0  0.00000000000E+00  0.00000000000E+00  0.45593999997E+02  0.45594000000E+02  0.51100000000E-03 0.  1.
         11   -1    0    0    0    0 -0.00000000000E+00 -0.00000000000E+00 -0.45593999997E+02  0.45594000000E+02  0.51100000000E-03 0. -1.
    9900012    2    1    2    0    0 -0.38523428952E+02 -0.90874429917E+00 -0.19968546711E+02  0.47787271294E+02  0.20000001139E+02 0.  0.
        -12    1    1    2    0    0  0.38523428952E+02  0.90874429917E+00  0.19968546711E+02  0.43400728706E+02  0.00000000000E+00 0.  1.
         11    1    3    3    0    0 -0.12661048807E+02  0.33563092212E+01 -0.58946294629E+01  0.14363621592E+02  0.51100000000E-03 0. -1.
        -11    1    3    3    0    0 -0.24513575389E+02  0.12390558663E+01 -0.10320306796E+02  0.26626290962E+02  0.51100000000E-03 0.  1.
        -12    1    3    3    0    0 -0.13488047567E+01 -0.55041093866E+01 -0.37536104524E+01  0.67973587400E+01  0.00000000000E+00 0.  1.
</event>
<event>
 7    1  0.4519225E-009  0.4778727E+02  0.7816164E-02  0.1312668E+00
        -11   -1    0    0    0    0  0.00000000000E+00  0.00000000000E+00  0.45593999997E+02  0.45594000000E+02  0.51100000000E-03 0.  1.
         11   -1    0    0    0    0 -0.00000000000E+00 -0.00000000000E+00 -0.45593999997E+02  0.45594000000E+02  0.51100000000E-03 0. -1.
    9900012    2    1    2    0    0 -0.10737863119E+02 -0.41207469925E+02 -0.83824778156E+01  0.47787271708E+02  0.20000003025E+02 0.  0.
        -12    1    1    2    0    0  0.10737863119E+02  0.41207469925E+02  0.83824778156E+01  0.43400728292E+02  0.00000000000E+00 0.  1.
         11    1    3    3    0    0 -0.71048284100E+01 -0.30325171760E+02 -0.90784228638E+01  0.32442447364E+02  0.51100000000E-03 0. -1.
        -11    1    3    3    0    0 -0.67730639438E+01 -0.89335101698E+01 -0.10455346360E+01  0.11259446793E+02  0.51100000000E-03 0.  1.
        -12    1    3    3    0    0  0.31400292352E+01 -0.19487879953E+01  0.17414796842E+01  0.40853775517E+01  0.00000000000E+00 0.  1.
</event>
<event>
 7    1  0.4519225E-009  0.4778727E+02  0.7816164E-02  0.1312668E+00
        -11   -1    0    0    0    0  0.00000000000E+00  0.00000000000E+00  0.45593999997E+02  0.45594000000E+02  0.51100000000E-03 0.  1.
         11   -1    0    0    0    0 -0.00000000000E+00 -0.00000000000E+00 -0.45593999997E+02  0.45594000000E+02  0.51100000000E-03 0. -1.
    9900012    2    1    2    0    0 -0.36447853966E+02 -0.27348068234E+01 -0.23402954925E+02  0.47787268137E+02  0.19999986742E+02 0.  0.
        -12    1    1    2    0    0  0.36447853966E+02  0.27348068234E+01  0.23402954925E+02  0.43400731863E+02  0.00000000000E+00 0.  1.
         11    1    3    3    0    0 -0.17109497208E+01 -0.33152805552E+01 -0.35379930210E+01  0.51415784526E+01  0.51100000000E-03 0. -1.
        -11    1    3    3    0    0  0.12418396789E+01 -0.26103468632E-01  0.45268324508E+00  0.13220323599E+01  0.51100000000E-03 0.  1.
         12    1    3    3    0    0 -0.35978743924E+02  0.60657720039E+00 -0.20317645149E+02  0.41323657324E+02  0.00000000000E+00 0. -1.
</event>
<event>
 7    1  0.4519225E-009  0.4778727E+02  0.7816164E-02  0.1312668E+00
        -11   -1    0    0    0    0  0.00000000000E+00  0.00000000000E+00  0.45593999997E+02  0.45594000000E+02  0.51100000000E-03 0. -1.
         11   -1    0    0    0    0 -0.00000000000E+00 -0.00000000000E+00 -0.45593999997E+02  0.45594000000E+02  0.51100000000E-03 0.  1.
    9900012    2    1    2    0    0 -0.24488713373E+02  0.35423275170E+02  0.53961015925E+01  0.47787269375E+02  0.19999992387E+02 0.  0.
        -12    1    1    2    0    0  0.24488713373E+02 -0.35423275170E+02 -0.53961015925E+01  0.43400730625E+02  0.00000000000E+00 0.  1.
         11    1    3    3    0    0 -0.10413323122E+01  0.15205393249E+02 -0.64226748959E+00  0.15254535871E+02  0.51100000000E-03 0. -1.
        -11    1    3    3    0    0  0.24619106872E+00  0.19998353661E+01  0.89840880388E+00  0.22061482665E+01  0.51100000000E-03 0.  1.
        -12    1    3    3    0    0 -0.23693572129E+02  0.18218046555E+02  0.51399602782E+01  0.30326585238E+02  0.00000000000E+00 0.  1.
</event>
<event>
 7    1  0.4519225E-009  0.4778727E+02  0.7816164E-02  0.1312668E+00
        -11   -1    0    0    0    0  0.00000000000E+00  0.00000000000E+00  0.45593999997E+02  0.45594000000E+02  0.51100000000E-03 0. -1.
         11   -1    0    0    0    0 -0.00000000000E+00 -0.00000000000E+00 -0.45593999997E+02  0.45594000000E+02  0.51100000000E-03 0.  1.
    9900012    2    1    2    0    0  0.19404871806E+02 -0.38606213273E+02  0.40785556759E+01  0.47787269943E+02  0.19999994979E+02 0.  0.
        -12    1    1    2    0    0 -0.19404871806E+02  0.38606213273E+02 -0.40785556759E+01  0.43400730057E+02  0.00000000000E+00 0.  1.
         11    1    3    3    0    0  0.11977180309E+02 -0.22913183446E+02  0.63345799412E+00  0.25862484279E+02  0.51100000000E-03 0. -1.
        -11    1    3    3    0    0  0.99488237156E+01 -0.63210986026E+01  0.32119486165E+01  0.12216873374E+02  0.51100000000E-03 0.  1.
        -12    1    3    3    0    0 -0.25211322194E+01 -0.93719312242E+01  0.23314906535E+00  0.97079122898E+01  0.00000000000E+00 0.  1.
</event>
<event>
 7    1  0.4519225E-009  0.4778727E+02  0.7816164E-02  0.1312668E+00
        -11   -1    0    0    0    0  0.00000000000E+00  0.00000000000E+00  0.45593999997E+02  0.45594000000E+02  0.51100000000E-03 0.  1.
         11   -1    0    0    0    0 -0.00000000000E+00 -0.00000000000E+00 -0.45593999997E+02  0.45594000000E+02  0.51100000000E-03 0. -1.
    9900012    2    1    2    0    0 -0.43799199254E+00 -0.25345938832E+02 -0.35228042758E+02  0.47787269029E+02  0.19999990812E+02 0.  0.
        -12    1    1    2    0    0  0.43799199254E+00  0.25345938832E+02  0.35228042758E+02  0.43400730971E+02  0.00000000000E+00 0.  1.
         11    1    3    3    0    0  0.37869790918E+01 -0.47140448725E+01 -0.31486000109E+01  0.68174124117E+01  0.51100000000E-03 0. -1.
        -11    1    3    3    0    0 -0.49681188282E+01 -0.17623512852E+01 -0.24001533950E+01  0.57921346086E+01  0.51100000000E-03 0.  1.
         12    1    3    3    0    0  0.74314774387E+00 -0.18869542674E+02 -0.29679289352E+02  0.35177722009E+02  0.00000000000E+00 0. -1.
</event>
<event>
 7    1  0.4519225E-009  0.4778730E+02  0.7816164E-02  0.1312668E+00
        -11   -1    0    0    0    0  0.00000000000E+00  0.00000000000E+00  0.45593999997E+02  0.45594000000E+02  0.51100000000E-03 0.  1.
         11   -1    0    0    0    0 -0.00000000000E+00 -0.00000000000E+00 -0.45593999997E+02  0.45594000000E+02  0.51100000000E-03 0. -1.
    9900012    2    1    2    0    0  0.32586897255E+02 -0.27799830148E+02 -0.69917439683E+01  0.47787298247E+02  0.20000124026E+02 0.  0.
        -12    1    1    2    0    0 -0.32586897255E+02  0.27799830148E+02  0.69917439683E+01  0.43400701753E+02  0.00000000000E+00 0.  1.
         11    1    3    3    0    0  0.15156977676E+02 -0.46826283620E+01 -0.15366899736E+01  0.15938080091E+02  0.51100000000E-03 0. -1.
        -11    1    3    3    0    0  0.59304555959E+01 -0.88146431794E+01  0.38156944018E+01  0.11288390584E+02  0.51100000000E-03 0.  1.
        -12    1    3    3    0    0  0.11499463983E+02 -0.14302558606E+02 -0.92707483964E+01  0.20560827571E+02  0.00000000000E+00 0.  1.
</event>
<event>
 7    1  0.4519225E-009  0.4778727E+02  0.7816164E-02  0.1312668E+00
        -11   -1    0    0    0    0  0.00000000000E+00  0.00000000000E+00  0.45593999997E+02  0.45594000000E+02  0.51100000000E-03 0.  1.
         11   -1    0    0    0    0 -0.00000000000E+00 -0.00000000000E+00 -0.45593999997E+02  0.45594000000E+02  0.51100000000E-03 0. -1.
    9900012    2    1    2    0    0  0.21720447986E+02 -0.71532389519E+01 -0.36887350272E+02  0.47787270763E+02  0.19999998717E+02 0.  0.
        -12    1    1    2    0    0 -0.21720447986E+02  0.71532389519E+01  0.36887350272E+02  0.43400729237E+02  0.00000000000E+00 0.  1.
         11    1    3    3    0    0  0.59107689859E+01 -0.24133675210E+01 -0.10753290030E+02  0.12505789840E+02  0.51100000000E-03 0. -1.
        -11    1    3    3    0    0  0.43492840099E+01 -0.93196127011E+01 -0.67492710747E+01  0.12301386613E+02  0.51100000000E-03 0.  1.
        -12    1    3    3    0    0  0.11460394990E+02  0.45797412701E+01 -0.19384789167E+02  0.22980094310E+02  0.00000000000E+00 0.  1.
</event>
<event>
 7    1  0.4519225E-009  0.4778731E+02  0.7816164E-02  0.1312668E+00
        -11   -1    0    0    0    0  0.00000000000E+00  0.00000000000E+00  0.45593999997E+02  0.45594000000E+02  0.51100000000E-03 0.  1.
         11   -1    0    0    0    0 -0.00000000000E+00 -0.00000000000E+00 -0.45593999997E+02  0.45594000000E+02  0.51100000000E-03 0. -1.
    9900012    2    1    2    0    0 -0.35334940604E+02 -0.18512015564E+02  0.17098744388E+02  0.47787310980E+02  0.20000182083E+02 0.  0.
        -12    1    1    2    0    0  0.35334940604E+02  0.18512015564E+02 -0.17098744388E+02  0.43400689020E+02  0.00000000000E+00 0.  1.
         11    1    3    3    0    0 -0.11568474296E+02 -0.72114938101E+01  0.45728054542E+01  0.14378657465E+02  0.51100000000E-03 0. -1.
        -11    1    3    3    0    0 -0.88406035354E+01 -0.65743522266E+01  0.13848887840E+02  0.17696611900E+02  0.51100000000E-03 0.  1.
         12    1    3    3    0    0 -0.14925862773E+02 -0.47261695272E+01 -0.13229489065E+01  0.15712041616E+02  0.00000000000E+00 0. -1.
</event>
<event>
 7    1  0.4519225E-009  0.4778727E+02  0.7816164E-02  0.1312668E+00
        -11   -1    0    0    0    0  0.00000000000E+00  0.00000000000E+00  0.45593999997E+02  0.45594000000E+02  0.51100000000E-03 0. -1.
         11   -1    0    0    0    0 -0.00000000000E+00 -0.00000000000E+00 -0.45593999997E+02  0.45594000000E+02  0.51100000000E-03 0.  1.
    9900012    2    1    2    0    0 -0.32773748257E+02 -0.28072340005E+02  0.46312358912E+01  0.47787271964E+02  0.20000004191E+02 0.  0.
        -12    1    1    2    0    0  0.32773748257E+02  0.28072340005E+02 -0.46312358912E+01  0.43400728036E+02  0.00000000000E+00 0.  1.
         11    1    3    3    0    0 -0.13468349443E+01 -0.58943957813E+01  0.33618929473E+00  0.60556493869E+01  0.51100000000E-03 0. -1.
        -11    1    3    3    0    0 -0.10420107532E+02 -0.51047165485E+00 -0.26500136157E+01  0.10763911683E+02  0.51100000000E-03 0.  1.
         12    1    3    3    0    0 -0.21006805781E+02 -0.21667472569E+02  0.69450602121E+01  0.30967710894E+02  0.00000000000E+00 0. -1.
</event>
<event>
 7    1  0.4519225E-009  0.4778725E+02  0.7816164E-02  0.1312668E+00
        -11   -1    0    0    0    0  0.00000000000E+00  0.00000000000E+00  0.45593999997E+02  0.45594000000E+02  0.51100000000E-03 0.  1.
         11   -1    0    0    0    0 -0.00000000000E+00 -0.00000000000E+00 -0.45593999997E+02  0.45594000000E+02  0.51100000000E-03 0. -1.
    9900012    2    1    2    0    0 -0.14712649004E+02 -0.27243359851E+02 -0.30413198062E+02  0.47787247552E+02  0.19999892889E+02 0.  0.
        -12    1    1    2    0    0  0.14712649004E+02  0.27243359851E+02  0.30413198062E+02  0.43400752448E+02  0.00000000000E+00 0.  1.
         11    1    3    3    0    0 -0.74782196594E+01 -0.60705032617E+01 -0.58696396999E+01  0.11279514599E+02  0.51100000000E-03 0. -1.
        -11    1    3    3    0    0 -0.81147210299E+01 -0.23320043358E+02 -0.22091766345E+02  0.33131846615E+02  0.51100000000E-03 0.  1.
        -12    1    3    3    0    0  0.88029168518E+00  0.21471867691E+01 -0.24517920170E+01  0.33758863380E+01  0.00000000000E+00 0.  1.
</event>
<event>
 7    1  0.4519225E-009  0.4778728E+02  0.7816164E-02  0.1312668E+00
        -11   -1    0    0    0    0  0.00000000000E+00  0.00000000000E+00  0.45593999997E+02  0.45594000000E+02  0.51100000000E-03 0. -1.
         11   -1    0    0    0    0 -0.00000000000E+00 -0.00000000000E+00 -0.45593999997E+02  0.45594000000E+02  0.51100000000E-03 0.  1.
    9900012    2    1    2    0    0 -0.41853885115E+02 -0.20424004600E+01  0.11300609202E+02  0.47787275729E+02  0.20000021359E+02 0.  0.
        -12    1    1    2    0    0  0.41853885115E+02  0.20424004600E+01 -0.11300609202E+02  0.43400724271E+02  0.00000000000E+00 0.  1.
         11    1    3    3    0    0  0.66600386014E+00 -0.70088292528E+00 -0.12969500798E+01  0.16176766634E+01  0.51100000000E-03 0. -1.
        -11    1    3    3    0    0 -0.34751536258E+01  0.54684990658E+00  0.53653688623E+01  0.64158336039E+01  0.51100000000E-03 0.  1.
         12    1    3    3    0    0 -0.39044735350E+02 -0.18883674413E+01  0.72321904199E+01  0.39753765462E+02  0.00000000000E+00 0. -1.
</event>
<event>
 7    1  0.4519225E-009  0.4778727E+02  0.7816164E-02  0.1312668E+00
        -11   -1    0    0    0    0  0.00000000000E+00  0.00000000000E+00  0.45593999997E+02  0.45594000000E+02  0.51100000000E-03 0. -1.
         11   -1    0    0    0    0 -0.00000000000E+00 -0.00000000000E+00 -0.45593999997E+02  0.45594000000E+02  0.51100000000E-03 0.  1.
    9900012    2    1    2    0    0  0.10647186862E+02 -0.29906047252E+02  0.29595418946E+02  0.47787273360E+02  0.20000010558E+02 0.  0.
        -12    1    1    2    0    0 -0.10647186862E+02  0.29906047252E+02 -0.29595418946E+02  0.43400726640E+02  0.00000000000E+00 0.  1.
         11    1    3    3    0    0 -0.16188914899E+00 -0.19894621988E+02  0.10522417352E+02  0.22506520373E+02  0.51100000000E-03 0. -1.
        -11    1    3    3    0    0  0.53890436832E+00 -0.47373175531E+01  0.78184589767E+01  0.91575595301E+01  0.51100000000E-03 0.  1.
        -12    1    3    3    0    0  0.10270171643E+02 -0.52741077109E+01  0.11254542617E+02  0.16123193457E+02  0.00000000000E+00 0.  1.
</event>
<event>
 7    1  0.4519225E-009  0.4778727E+02  0.7816164E-02  0.1312668E+00
        -11   -1    0    0    0    0  0.00000000000E+00  0.00000000000E+00  0.45593999997E+02  0.45594000000E+02  0.51100000000E-03 0.  1.
         11   -1    0    0    0    0 -0.00000000000E+00 -0.00000000000E+00 -0.45593999997E+02  0.45594000000E+02  0.51100000000E-03 0. -1.
    9900012    2    1    2    0    0 -0.25889201139E+02  0.31213406485E+02 -0.15462729796E+02  0.47787268523E+02  0.19999988503E+02 0.  0.
        -12    1    1    2    0    0  0.25889201139E+02 -0.31213406485E+02  0.15462729796E+02  0.43400731477E+02  0.00000000000E+00 0.  1.
         11    1    3    3    0    0 -0.24473201169E+01  0.12973951966E+01 -0.37776503713E+01  0.46843625649E+01  0.51100000000E-03 0. -1.
        -11    1    3    3    0    0  0.20045922875E+01  0.31513351363E+01 -0.38231907796E+01  0.53447255663E+01  0.51100000000E-03 0.  1.
         12    1    3    3    0    0 -0.25446473310E+02  0.26764676152E+02 -0.78618886452E+01  0.37758180392E+02  0.00000000000E+00 0. -1.
</event>
<event>
 7    1  0.4519225E-009  0.4778727E+02  0.7816164E-02  0.1312668E+00
        -11   -1    0    0    0    0  0.00000000000E+00  0.00000000000E+00  0.45593999997E+02  0.45594000000E+02  0.51100000000E-03 0. -1.
         11   -1    0    0    0    0 -0.00000000000E+00 -0.00000000000E+00 -0.45593999997E+02  0.45594000000E+02  0.51100000000E-03 0.  1.
    9900012    2    1    2    0    0  0.26283718628E+02  0.31729330563E+02  0.13639603836E+02  0.47787273328E+02  0.20000010410E+02 0.  0.
        -12    1    1    2    0    0 -0.26283718628E+02 -0.31729330563E+02 -0.13639603836E+02  0.43400726672E+02  0.00000000000E+00 0.  1.
         11    1    3    3    0    0  0.23058966923E+02  0.32728831127E+02  0.85317360325E+01  0.40935105502E+02  0.51100000000E-03 0. -1.
        -11    1    3    3    0    0  0.27471700224E+01  0.26132150880E+00  0.18390587843E+01  0.33162282093E+01  0.51100000000E-03 0.  1.
         12    1    3    3    0    0  0.47758168294E+00 -0.12608220729E+01  0.32688090195E+01  0.35359396162E+01  0.00000000000E+00 0. -1.
</event>
<event>
 7    1 -0.1545228E-008  0.4778727E+02  0.7816164E-02  0.1312668E+00
        -11   -1    0    0    0    0  0.00000000000E+00  0.00000000000E+00  0.45593999997E+02  0.45594000000E+02  0.51100000000E-03 0.  1.
         11   -1    0    0    0    0 -0.00000000000E+00 -0.00000000000E+00 -0.45593999997E+02  0.45594000000E+02  0.51100000000E-03 0. -1.
    9900012    2    1    2    0    0 -0.33027419321E+02 -0.25730113181E+02 -0.11435651814E+02  0.47787270930E+02  0.19999999481E+02 0.  0.
        -12    1    1    2    0    0  0.33027419321E+02  0.25730113181E+02  0.11435651814E+02  0.43400729070E+02  0.00000000000E+00 0.  1.
         11    1    3    3    0    0 -0.21590444699E+02 -0.18920694199E+02 -0.16972887245E+02  0.33349945622E+02  0.51100000000E-03 0. -1.
        -11    1    3    3    0    0 -0.29237556661E+01 -0.20693475363E+01  0.12767228019E+01  0.38027053259E+01  0.51100000000E-03 0.  1.
         12    1    3    3    0    0 -0.85132189561E+01 -0.47400714455E+01  0.42605126297E+01  0.10634619982E+02  0.00000000000E+00 0. -1.
</event>
<event>
 7    1  0.4519225E-009  0.4778725E+02  0.7816164E-02  0.1312668E+00
        -11   -1    0    0    0    0  0.00000000000E+00  0.00000000000E+00  0.45593999997E+02  0.45594000000E+02  0.51100000000E-03 0. -1.
         11   -1    0    0    0    0 -0.00000000000E+00 -0.00000000000E+00 -0.45593999997E+02  0.45594000000E+02  0.51100000000E-03 0.  1.
    9900012    2    1    2    0    0  0.16653778941E+02 -0.39429897479E+02  0.71805035955E+01  0.47787253462E+02  0.19999919833E+02 0.  0.
        -12    1    1    2    0    0 -0.16653778941E+02  0.39429897479E+02 -0.71805035955E+01  0.43400746538E+02  0.00000000000E+00 0.  1.
         11    1    3    3    0    0  0.62804116883E+01 -0.52515271740E+01  0.32206074765E+00  0.81930355803E+01  0.51100000000E-03 0. -1.
        -11    1    3    3    0    0  0.28478607792E+01 -0.23700014896E+02 -0.19857533759E+01  0.23952958770E+02  0.51100000000E-03 0.  1.
        -12    1    3    3    0    0  0.75255064738E+01 -0.10478355408E+02  0.88441962237E+01  0.15641259111E+02  0.00000000000E+00 0.  1.
</event>
<event>
 7    1  0.4519225E-009  0.4778727E+02  0.7816164E-02  0.1312668E+00
        -11   -1    0    0    0    0  0.00000000000E+00  0.00000000000E+00  0.45593999997E+02  0.45594000000E+02  0.51100000000E-03 0.  1.
         11   -1    0    0    0    0 -0.00000000000E+00 -0.00000000000E+00 -0.45593999997E+02  0.45594000000E+02  0.51100000000E-03 0. -1.
    9900012    2    1    2    0    0 -0.12499053579E+02  0.40406179667E+02 -0.97333478215E+01  0.47787265497E+02  0.19999974705E+02 0.  0.
        -12    1    1    2    0    0  0.12499053579E+02 -0.40406179667E+02  0.97333478215E+01  0.43400734503E+02  0.00000000000E+00 0.  1.
         11    1    3    3    0    0 -0.36200653637E+01  0.18837513470E+02 -0.64460670496E+01  0.20236318035E+02  0.51100000000E-03 0. -1.
        -11    1    3    3    0    0  0.27778175181E+01  0.89549153893E+01  0.19870991864E+01  0.95841193248E+01  0.51100000000E-03 0.  1.
        -12    1    3    3    0    0 -0.11656805734E+02  0.12613750808E+02 -0.52743799584E+01  0.17966828137E+02  0.00000000000E+00 0.  1.
</event>
<event>
 7    1  0.4519225E-009  0.4778727E+02  0.7816164E-02  0.1312668E+00
        -11   -1    0    0    0    0  0.00000000000E+00  0.00000000000E+00  0.45593999997E+02  0.45594000000E+02  0.51100000000E-03 0.  1.
         11   -1    0    0    0    0 -0.00000000000E+00 -0.00000000000E+00 -0.45593999997E+02  0.45594000000E+02  0.51100000000E-03 0. -1.
    9900012    2    1    2    0    0  0.32550321215E+02  0.19570059359E+02  0.21002681837E+02  0.47787270987E+02  0.19999999738E+02 0.  0.
        -12    1    1    2    0    0 -0.32550321215E+02 -0.19570059359E+02 -0.21002681837E+02  0.43400729013E+02  0.00000000000E+00 0.  1.
         11    1    3    3    0    0  0.82038842216E+01  0.11749943538E+02  0.80108588353E+01  0.16417635305E+02  0.51100000000E-03 0.  1.
        -11    1    3    3    0    0  0.20748303862E+02  0.11211859921E+02  0.10242880326E+02  0.25712147201E+02  0.51100000000E-03 0. -1.
         12    1    3    3    0    0  0.35981331316E+01 -0.33917441006E+01  0.27489426755E+01  0.56574884807E+01  0.00000000000E+00 0. -1.
</event>
<event>
 7    1  0.4519225E-009  0.4778725E+02  0.7816164E-02  0.1312668E+00
        -11   -1    0    0    0    0  0.00000000000E+00  0.00000000000E+00  0.45593999997E+02  0.45594000000E+02  0.51100000000E-03 0.  1.
         11   -1    0    0    0    0 -0.00000000000E+00 -0.00000000000E+00 -0.45593999997E+02  0.45594000000E+02  0.51100000000E-03 0. -1.
    9900012    2    1    2    0    0  0.28595018502E+02  0.35105577986E+01 -0.32459599607E+02  0.47787254548E+02  0.19999924784E+02 0.  0.
        -12    1    1    2    0    0 -0.28595018502E+02 -0.35105577986E+01  0.32459599607E+02  0.43400745452E+02  0.00000000000E+00 0.  1.
         11    1    3    3    0    0  0.10309832502E+02  0.39370160576E+01 -0.16588535187E+02  0.19924162256E+02  0.51100000000E-03 0. -1.
        -11    1    3    3    0    0  0.19830854617E+02  0.16353631568E+01 -0.12076096816E+02  0.23275938693E+02  0.51100000000E-03 0.  1.
        -12    1    3    3    0    0 -0.15456686172E+01 -0.20618214159E+01 -0.37949676038E+01  0.45871535988E+01  0.00000000000E+00 0.  1.
</event>
<event>
 7    1  0.4519225E-009  0.4778727E+02  0.7816164E-02  0.1312668E+00
        -11   -1    0    0    0    0  0.00000000000E+00  0.00000000000E+00  0.45593999997E+02  0.45594000000E+02  0.51100000000E-03 0. -1.
         11   -1    0    0    0    0 -0.00000000000E+00 -0.00000000000E+00 -0.45593999997E+02  0.45594000000E+02  0.51100000000E-03 0.  1.
    9900012    2    1    2    0    0  0.16831914354E+02 -0.31743826131E+01  0.39877731886E+02  0.47787267907E+02  0.19999985697E+02 0.  0.
        -12    1    1    2    0    0 -0.16831914354E+02  0.31743826131E+01 -0.39877731886E+02  0.43400732093E+02  0.00000000000E+00 0.  1.
         11    1    3    3    0    0  0.28771324379E+01 -0.58355680545E+01  0.42689413262E+01  0.77817482542E+01  0.51100000000E-03 0. -1.
        -11    1    3    3    0    0  0.28888806238E+01  0.13973881903E+01  0.59610333770E+00  0.32639951690E+01  0.51100000000E-03 0.  1.
         12    1    3    3    0    0  0.11065901293E+02  0.12637972511E+01  0.35012687222E+02  0.36741524484E+02  0.00000000000E+00 0. -1.
</event>
<event>
 7    1  0.4519225E-009  0.4778727E+02  0.7816164E-02  0.1312668E+00
        -11   -1    0    0    0    0  0.00000000000E+00  0.00000000000E+00  0.45593999997E+02  0.45594000000E+02  0.51100000000E-03 0.  1.
         11   -1    0    0    0    0 -0.00000000000E+00 -0.00000000000E+00 -0.45593999997E+02  0.45594000000E+02  0.51100000000E-03 0. -1.
    9900012    2    1    2    0    0 -0.41741521386E+01 -0.42791979862E+02 -0.59199701361E+01  0.47787272667E+02  0.20000007399E+02 0.  0.
        -12    1    1    2    0    0  0.41741521386E+01  0.42791979862E+02  0.59199701361E+01  0.43400727333E+02  0.00000000000E+00 0.  1.
         11    1    3    3    0    0 -0.56988833808E+00 -0.41393533072E+01 -0.35091170594E+01  0.54564568465E+01  0.51100000000E-03 0. -1.
        -11    1    3    3    0    0  0.14755382186E+01 -0.35913059887E+02  0.32255128564E+00  0.35944806622E+02  0.51100000000E-03 0.  1.
        -12    1    3    3    0    0 -0.50798020191E+01 -0.27395666681E+01 -0.27334043623E+01  0.63860091990E+01  0.00000000000E+00 0.  1.
</event>
<event>
 7    1  0.4519225E-009  0.4778727E+02  0.7816164E-02  0.1312668E+00
        -11   -1    0    0    0    0  0.00000000000E+00  0.00000000000E+00  0.45593999997E+02  0.45594000000E+02  0.51100000000E-03 0.  1.
         11   -1    0    0    0    0 -0.00000000000E+00 -0.00000000000E+00 -0.45593999997E+02  0.45594000000E+02  0.51100000000E-03 0. -1.
    9900012    2    1    2    0    0  0.42911741797E+01 -0.31031999576E+02 -0.30037043276E+02  0.47787272560E+02  0.20000006911E+02 0.  0.
        -12    1    1    2    0    0 -0.42911741797E+01  0.31031999576E+02  0.30037043276E+02  0.43400727440E+02  0.00000000000E+00 0.  1.
         11    1    3    3    0    0  0.67415263502E+01 -0.20508643746E+02 -0.14716630778E+02  0.26127224643E+02  0.51100000000E-03 0. -1.
        -11    1    3    3    0    0  0.22706866147E+01 -0.10307055798E+02 -0.11210226914E+02  0.15396772540E+02  0.51100000000E-03 0.  1.
        -12    1    3    3    0    0 -0.47210387853E+01 -0.21630003248E+00 -0.41101855840E+01  0.62632753773E+01  0.00000000000E+00 0.  1.
</event>
<event>
 7    1  0.4519225E-009  0.4778727E+02  0.7816164E-02  0.1312668E+00
        -11   -1    0    0    0    0  0.00000000000E+00  0.00000000000E+00  0.45593999997E+02  0.45594000000E+02  0.51100000000E-03 0. -1.
         11   -1    0    0    0    0 -0.00000000000E+00 -0.00000000000E+00 -0.45593999997E+02  0.45594000000E+02  0.51100000000E-03 0.  1.
    9900012    2    1    2    0    0 -0.40902113078E+02 -0.11003242689E+02  0.94640798701E+01  0.47787274065E+02  0.20000013772E+02 0.  0.
        -12    1    1    2    0    0  0.40902113078E+02  0.11003242689E+02 -0.94640798701E+01  0.43400725935E+02  0.00000000000E+00 0.  1.
         11    1    3    3    0    0 -0.11935751272E+02 -0.21524946757E+01 -0.57300316915E+01  0.13413748738E+02  0.51100000000E-03 0. -1.
        -11    1    3    3    0    0 -0.12987185930E+02 -0.29246523793E+01  0.36998477769E+01  0.13816999086E+02  0.51100000000E-03 0.  1.
        -12    1    3    3    0    0 -0.15979175876E+02 -0.59260956338E+01  0.11494263785E+02  0.20556526241E+02  0.00000000000E+00 0.  1.
</event>
<event>
 7    1  0.4519225E-009  0.4778729E+02  0.7816164E-02  0.1312668E+00
        -11   -1    0    0    0    0  0.00000000000E+00  0.00000000000E+00  0.45593999997E+02  0.45594000000E+02  0.51100000000E-03 0.  1.
         11   -1    0    0    0    0 -0.00000000000E+00 -0.00000000000E+00 -0.45593999997E+02  0.45594000000E+02  0.51100000000E-03 0. -1.
    9900012    2    1    2    0    0 -0.36134002260E+02  0.23683597675E+02  0.41283105306E+01  0.47787287264E+02  0.20000073952E+02 0.  0.
        -12    1    1    2    0    0  0.36134002260E+02 -0.23683597675E+02 -0.41283105306E+01  0.43400712736E+02  0.00000000000E+00 0.  1.
         11    1    3    3    0    0 -0.19468026953E+02  0.12744055979E+02  0.42138278825E+01  0.23646804899E+02  0.51100000000E-03 0. -1.
        -11    1    3    3    0    0 -0.13581465072E+02  0.28869062386E+01  0.42066531973E+01  0.14508147798E+02  0.51100000000E-03 0.  1.
        -12    1    3    3    0    0 -0.30845102344E+01  0.80526354574E+01 -0.42921705492E+01  0.96323345675E+01  0.00000000000E+00 0.  1.
</event>
<event>
 7    1  0.4519225E-009  0.4778727E+02  0.7816164E-02  0.1312668E+00
        -11   -1    0    0    0    0  0.00000000000E+00  0.00000000000E+00  0.45593999997E+02  0.45594000000E+02  0.51100000000E-03 0. -1.
         11   -1    0    0    0    0 -0.00000000000E+00 -0.00000000000E+00 -0.45593999997E+02  0.45594000000E+02  0.51100000000E-03 0.  1.
    9900012    2    1    2    0    0 -0.22010162090E+02  0.43448401059E+01  0.37152364457E+02  0.47787273560E+02  0.20000011471E+02 0.  0.
        -12    1    1    2    0    0  0.22010162090E+02 -0.43448401059E+01 -0.37152364457E+02  0.43400726440E+02  0.00000000000E+00 0.  1.
         11    1    3    3    0    0 -0.20142450168E+01 -0.10331736728E+01  0.12350573378E+02  0.12556324854E+02  0.51100000000E-03 0.  1.
        -11    1    3    3    0    0 -0.91380925425E+01 -0.27766421314E+01  0.17187492202E+02  0.19662765963E+02  0.51100000000E-03 0. -1.
        -12    1    3    3    0    0 -0.10857824530E+02  0.81546559101E+01  0.76142988765E+01  0.15568182743E+02  0.00000000000E+00 0.  1.
</event>
<event>
 7    1  0.4519225E-009  0.4778727E+02  0.7816164E-02  0.1312668E+00
        -11   -1    0    0    0    0  0.00000000000E+00  0.00000000000E+00  0.45593999997E+02  0.45594000000E+02  0.51100000000E-03 0.  1.
         11   -1    0    0    0    0 -0.00000000000E+00 -0.00000000000E+00 -0.45593999997E+02  0.45594000000E+02  0.51100000000E-03 0. -1.
    9900012    2    1    2    0    0  0.31632754302E+01 -0.36273670116E+02 -0.23618589546E+02  0.47787271582E+02  0.20000002449E+02 0.  0.
        -12    1    1    2    0    0 -0.31632754302E+01  0.36273670116E+02  0.23618589546E+02  0.43400728418E+02  0.00000000000E+00 0.  1.
         11    1    3    3    0    0  0.48044913642E+01 -0.88985994498E+01 -0.55699014275E+01  0.11545215962E+02  0.51100000000E-03 0. -1.
        -11    1    3    3    0    0  0.49418174227E+01 -0.22275041648E+02 -0.15304421730E+02  0.27474067129E+02  0.51100000000E-03 0.  1.
        -12    1    3    3    0    0 -0.65830333566E+01 -0.51000290180E+01 -0.27442663881E+01  0.87679884904E+01  0.00000000000E+00 0.  1.
</event>
<event>
 7    1  0.4519225E-009  0.4778727E+02  0.7816164E-02  0.1312668E+00
        -11   -1    0    0    0    0  0.00000000000E+00  0.00000000000E+00  0.45593999997E+02  0.45594000000E+02  0.51100000000E-03 0.  1.
         11   -1    0    0    0    0 -0.00000000000E+00 -0.00000000000E+00 -0.45593999997E+02  0.45594000000E+02  0.51100000000E-03 0. -1.
    9900012    2    1    2    0    0  0.35471977021E+02  0.24931254171E+02 -0.19480612263E+01  0.47787268084E+02  0.19999986501E+02 0.  0.
        -12    1    1    2    0    0 -0.35471977021E+02 -0.24931254171E+02  0.19480612263E+01  0.43400731916E+02  0.00000000000E+00 0.  1.
         11    1    3    3    0    0  0.67777913612E+01  0.90381371339E+01 -0.67201262432E+01  0.13144826951E+02  0.51100000000E-03 0. -1.
        -11    1    3    3    0    0  0.24430465670E+01  0.50784070171E+01  0.24845948848E+01  0.61588884031E+01  0.51100000000E-03 0.  1.
         12    1    3    3    0    0  0.26251139093E+02  0.10814710020E+02  0.22874701321E+01  0.28483552730E+02  0.00000000000E+00 0. -1.
</event>
<event>
 7    1  0.4519225E-009  0.4778728E+02  0.7816164E-02  0.1312668E+00
        -11   -1    0    0    0    0  0.00000000000E+00  0.00000000000E+00  0.45593999997E+02  0.45594000000E+02  0.51100000000E-03 0. -1.
         11   -1    0    0    0    0 -0.00000000000E+00 -0.00000000000E+00 -0.45593999997E+02  0.45594000000E+02  0.51100000000E-03 0.  1.
    9900012    2    1    2    0    0  0.27457610643E+02  0.28571837109E+02  0.17701747532E+02  0.47787284295E+02  0.20000060416E+02 0.  0.
        -12    1    1    2    0    0 -0.27457610643E+02 -0.28571837109E+02 -0.17701747532E+02  0.43400715705E+02  0.00000000000E+00 0.  1.
         11    1    3    3    0    0  0.93995968498E+01  0.88537291793E+01  0.13683470448E+02  0.18814311177E+02  0.51100000000E-03 0. -1.
        -11    1    3    3    0    0  0.28564956163E+01 -0.91409603011E+00 -0.17630304320E+00  0.30043671185E+01  0.51100000000E-03 0.  1.
        -12    1    3    3    0    0  0.15201518176E+02  0.20632203960E+02  0.41945801276E+01  0.25968605999E+02  0.00000000000E+00 0.  1.
</event>
<event>
 7    1  0.4519225E-009  0.4778725E+02  0.7816164E-02  0.1312668E+00
        -11   -1    0    0    0    0  0.00000000000E+00  0.00000000000E+00  0.45593999997E+02  0.45594000000E+02  0.51100000000E-03 0.  1.
         11   -1    0    0    0    0 -0.00000000000E+00 -0.00000000000E+00 -0.45593999997E+02  0.45594000000E+02  0.51100000000E-03 0. -1.
    9900012    2    1    2    0    0  0.14205543450E+02 -0.59477402017E+01 -0.40576495532E+02  0.47787250376E+02  0.19999905764E+02 0.  0.
        -12    1    1    2    0    0 -0.14205543450E+02  0.59477402017E+01  0.40576495532E+02  0.43400749624E+02  0.00000000000E+00 0.  1.
         11    1    3    3    0    0  0.45025005490E+01  0.30913089172E+01 -0.14001177874E+02  0.15028695357E+02  0.51100000000E-03 0.  1.
        -11    1    3    3    0    0  0.11394192310E+02 -0.20955647106E+01 -0.12972035108E+02  0.17392317412E+02  0.51100000000E-03 0. -1.
         12    1    3    3    0    0 -0.16911494085E+01 -0.69434844083E+01 -0.13603282551E+02  0.15366237607E+02  0.00000000000E+00 0. -1.
</event>
<event>
 7    1  0.4519225E-009  0.4778727E+02  0.7816164E-02  0.1312668E+00
        -11   -1    0    0    0    0  0.00000000000E+00  0.00000000000E+00  0.45593999997E+02  0.45594000000E+02  0.51100000000E-03 0. -1.
         11   -1    0    0    0    0 -0.00000000000E+00 -0.00000000000E+00 -0.45593999997E+02  0.45594000000E+02  0.51100000000E-03 0.  1.
    9900012    2    1    2    0    0 -0.23469182119E+02 -0.19153478423E+02  0.31079981349E+02  0.47787268604E+02  0.19999988873E+02 0.  0.
        -12    1    1    2    0    0  0.23469182119E+02  0.19153478423E+02 -0.31079981349E+02  0.43400731396E+02  0.00000000000E+00 0.  1.
         11    1    3    3    0    0 -0.72595469788E+01 -0.11014359218E+01 -0.79481289583E+00  0.73855203762E+01  0.51100000000E-03 0.  1.
        -11    1    3    3    0    0 -0.69075365870E+01 -0.72171514776E+01  0.90607039779E+01  0.13486945317E+02  0.51100000000E-03 0. -1.
        -12    1    3    3    0    0 -0.93020985531E+01 -0.10834891024E+02  0.22814090267E+02  0.26914802911E+02  0.00000000000E+00 0.  1.
</event>
<event>
 7    1  0.5174233E-009  0.4778727E+02  0.7816164E-02  0.1312668E+00
        -11   -1    0    0    0    0  0.00000000000E+00  0.00000000000E+00  0.45593999997E+02  0.45594000000E+02  0.51100000000E-03 0. -1.
         11   -1    0    0    0    0 -0.00000000000E+00 -0.00000000000E+00 -0.45593999997E+02  0.45594000000E+02  0.51100000000E-03 0.  1.
    9900012    2    1    2    0    0 -0.20735739958E+02  0.31418714106E+02  0.21599000905E+02  0.47787270193E+02  0.19999996118E+02 0.  0.
        -12    1    1    2    0    0  0.20735739958E+02 -0.31418714106E+02 -0.21599000905E+02  0.43400729807E+02  0.00000000000E+00 0.  1.
         11    1    3    3    0    0 -0.86885808749E+01  0.11220032304E+02  0.17498518190E+02  0.22529507354E+02  0.51100000000E-03 0. -1.
        -11    1    3    3    0    0 -0.23511206934E+01  0.15969108787E+00 -0.75185009228E+00  0.24735700073E+01  0.51100000000E-03 0.  1.
         12    1    3    3    0    0 -0.96960383895E+01  0.20038990715E+02  0.48523328079E+01  0.22784192832E+02  0.00000000000E+00 0. -1.
</event>
<event>
 7    1  0.4519225E-009  0.4778727E+02  0.7816164E-02  0.1312668E+00
        -11   -1    0    0    0    0  0.00000000000E+00  0.00000000000E+00  0.45593999997E+02  0.45594000000E+02  0.51100000000E-03 0.  1.
         11   -1    0    0    0    0 -0.00000000000E+00 -0.00000000000E+00 -0.45593999997E+02  0.45594000000E+02  0.51100000000E-03 0. -1.
    9900012    2    1    2    0    0  0.31268103692E+02  0.30078874141E+02 -0.10910093019E+01  0.47787270981E+02  0.19999999711E+02 0.  0.
        -12    1    1    2    0    0 -0.31268103692E+02 -0.30078874141E+02  0.10910093019E+01  0.43400729019E+02  0.00000000000E+00 0.  1.
         11    1    3    3    0    0  0.10871762682E+02  0.19176267815E+02  0.11157427812E+01  0.22071913223E+02  0.51100000000E-03 0. -1.
        -11    1    3    3    0    0  0.12656532718E+02  0.11933566089E+02  0.63292990160E+00  0.17406849817E+02  0.51100000000E-03 0.  1.
        -12    1    3    3    0    0  0.77398082922E+01 -0.10309597625E+01 -0.28396819846E+01  0.83085079410E+01  0.00000000000E+00 0.  1.
</event>
<event>
 7    1  0.4519225E-009  0.4778725E+02  0.7816164E-02  0.1312668E+00
        -11   -1    0    0    0    0  0.00000000000E+00  0.00000000000E+00  0.45593999997E+02  0.45594000000E+02  0.51100000000E-03 0.  1.
         11   -1    0    0    0    0 -0.00000000000E+00 -0.00000000000E+00 -0.45593999997E+02  0.45594000000E+02  0.51100000000E-03 0. -1.
    9900012    2    1    2    0    0  0.16289692437E+02 -0.25488658731E+02 -0.31122327767E+02  0.47787250130E+02  0.19999904644E+02 0.  0.
        -12    1    1    2    0    0 -0.16289692437E+02  0.25488658731E+02  0.31122327767E+02  0.43400749870E+02  0.00000000000E+00 0.  1.
         11    1    3    3    0    0  0.11169373291E+02 -0.10449370676E+02 -0.18862297274E+02  0.24284367522E+02  0.51100000000E-03 0. -1.
        -11    1    3    3    0    0  0.15293947577E+01 -0.53228370023E+01 -0.11914032509E+02  0.13138333721E+02  0.51100000000E-03 0.  1.
        -12    1    3    3    0    0  0.35909243890E+01 -0.97164510529E+01 -0.34599798386E+00  0.10364548887E+02  0.00000000000E+00 0.  1.
</event>
<event>
 7    1  0.4519225E-009  0.4778727E+02  0.7816164E-02  0.1312668E+00
        -11   -1    0    0    0    0  0.00000000000E+00  0.00000000000E+00  0.45593999997E+02  0.45594000000E+02  0.51100000000E-03 0.  1.
         11   -1    0    0    0    0 -0.00000000000E+00 -0.00000000000E+00 -0.45593999997E+02  0.45594000000E+02  0.51100000000E-03 0. -1.
    9900012    2    1    2    0    0  0.16586529013E+01  0.72777618115E+01 -0.42754023388E+02  0.47787268873E+02  0.19999990102E+02 0.  0.
        -12    1    1    2    0    0 -0.16586529013E+01 -0.72777618115E+01  0.42754023388E+02  0.43400731127E+02  0.00000000000E+00 0.  1.
         11    1    3    3    0    0 -0.74410008062E+00 -0.69276092935E+00 -0.12445442610E+01  0.16070137877E+01  0.51100000000E-03 0.  1.
        -11    1    3    3    0    0  0.20084013487E+00 -0.37619269000E+01 -0.27577479884E+02  0.27833609679E+02  0.51100000000E-03 0. -1.
         12    1    3    3    0    0  0.22019128470E+01  0.11732449641E+02 -0.13931999244E+02  0.18346645407E+02  0.00000000000E+00 0. -1.
</event>
<event>
 7    1  0.4519225E-009  0.4778727E+02  0.7816164E-02  0.1312668E+00
        -11   -1    0    0    0    0  0.00000000000E+00  0.00000000000E+00  0.45593999997E+02  0.45594000000E+02  0.51100000000E-03 0. -1.
         11   -1    0    0    0    0 -0.00000000000E+00 -0.00000000000E+00 -0.45593999997E+02  0.45594000000E+02  0.51100000000E-03 0.  1.
    9900012    2    1    2    0    0 -0.24734566102E+02 -0.67058368306E+01  0.35026514455E+02  0.47787265874E+02  0.19999976426E+02 0.  0.
        -12    1    1    2    0    0  0.24734566102E+02  0.67058368306E+01 -0.35026514455E+02  0.43400734126E+02  0.00000000000E+00 0.  1.
         11    1    3    3    0    0 -0.84768751628E+01 -0.53967937587E+01  0.15941601754E+02  0.18844560545E+02  0.51100000000E-03 0. -1.
        -11    1    3    3    0    0 -0.17567680088E+02  0.15193387307E+01  0.18857531691E+02  0.25817402573E+02  0.51100000000E-03 0.  1.
        -12    1    3    3    0    0  0.13099891496E+01 -0.28283818026E+01  0.22738100994E+00  0.31253027561E+01  0.00000000000E+00 0.  1.
</event>
<event>
 7    1  0.4519225E-009  0.4778727E+02  0.7816164E-02  0.1312668E+00
        -11   -1    0    0    0    0  0.00000000000E+00  0.00000000000E+00  0.45593999997E+02  0.45594000000E+02  0.51100000000E-03 0. -1.
         11   -1    0    0    0    0 -0.00000000000E+00 -0.00000000000E+00 -0.45593999997E+02  0.45594000000E+02  0.51100000000E-03 0.  1.
    9900012    2    1    2    0    0  0.37395016236E+02 -0.11441121084E+02  0.18823844509E+02  0.47787267136E+02  0.19999982181E+02 0.  0.
        -12    1    1    2    0    0 -0.37395016236E+02  0.11441121084E+02 -0.18823844509E+02  0.43400732864E+02  0.00000000000E+00 0.  1.
         11    1    3    3    0    0  0.15312869143E+02 -0.65530073264E+01  0.13023281238E+02  0.21143124672E+02  0.51100000000E-03 0. -1.
        -11    1    3    3    0    0  0.11670895593E+02  0.31522867948E+01  0.59823482746E+01  0.13488335966E+02  0.51100000000E-03 0.  1.
        -12    1    3    3    0    0  0.10411251500E+02 -0.80404005527E+01 -0.18178500363E+00  0.13155806499E+02  0.00000000000E+00 0.  1.
</event>
<event>
 7    1  0.4519225E-009  0.4778727E+02  0.7816164E-02  0.1312668E+00
        -11   -1    0    0    0    0  0.00000000000E+00  0.00000000000E+00  0.45593999997E+02  0.45594000000E+02  0.51100000000E-03 0.  1.
         11   -1    0    0    0    0 -0.00000000000E+00 -0.00000000000E+00 -0.45593999997E+02  0.45594000000E+02  0.51100000000E-03 0. -1.
    9900012    2    1    2    0    0 -0.37080014281E+02  0.39424439767E+01 -0.22207050547E+02  0.47787269389E+02  0.19999992452E+02 0.  0.
        -12    1    1    2    0    0  0.37080014281E+02 -0.39424439767E+01  0.22207050547E+02  0.43400730611E+02  0.00000000000E+00 0.  1.
         11    1    3    3    0    0 -0.16023174337E+02  0.32477145620E+01 -0.16129092392E+02  0.22966005036E+02  0.51100000000E-03 0. -1.
        -11    1    3    3    0    0  0.14188414465E+01  0.51807647990E+00 -0.89263767650E+00  0.17545132008E+01  0.51100000000E-03 0.  1.
         12    1    3    3    0    0 -0.22475681390E+02  0.17665293484E+00 -0.51853204794E+01  0.23066751152E+02  0.00000000000E+00 0. -1.
</event>
<event>
 7    1  0.4519225E-009  0.4778729E+02  0.7816164E-02  0.1312668E+00
        -11   -1    0    0    0    0  0.00000000000E+00  0.00000000000E+00  0.45593999997E+02  0.45594000000E+02  0.51100000000E-03 0.  1.
         11   -1    0    0    0    0 -0.00000000000E+00 -0.00000000000E+00 -0.45593999997E+02  0.45594000000E+02  0.51100000000E-03 0. -1.
    9900012    2    1    2    0    0  0.12846302418E+02 -0.38852208152E+02 -0.14460285013E+02  0.47787292555E+02  0.20000098074E+02 0.  0.
        -12    1    1    2    0    0 -0.12846302418E+02  0.38852208152E+02  0.14460285013E+02  0.43400707445E+02  0.00000000000E+00 0.  1.
         11    1    3    3    0    0 -0.83704831695E+00 -0.41166371691E+01 -0.33416913381E+01  0.53678909011E+01  0.51100000000E-03 0. -1.
        -11    1    3    3    0    0  0.97029263797E+01 -0.19684432402E+02  0.20323190928E+01  0.22039827143E+02  0.51100000000E-03 0.  1.
        -12    1    3    3    0    0  0.39804243557E+01 -0.15051138580E+02 -0.13150912768E+02  0.20379574511E+02  0.00000000000E+00 0.  1.
</event>
<event>
 7    1  0.4519225E-009  0.4778727E+02  0.7816164E-02  0.1312668E+00
        -11   -1    0    0    0    0  0.00000000000E+00  0.00000000000E+00  0.45593999997E+02  0.45594000000E+02  0.51100000000E-03 0. -1.
         11   -1    0    0    0    0 -0.00000000000E+00 -0.00000000000E+00 -0.45593999997E+02  0.45594000000E+02  0.51100000000E-03 0.  1.
    9900012    2    1    2    0    0  0.28052517482E+02 -0.12751857829E+02  0.30562556619E+02  0.47787268643E+02  0.19999989052E+02 0.  0.
        -12    1    1    2    0    0 -0.28052517482E+02  0.12751857829E+02 -0.30562556619E+02  0.43400731357E+02  0.00000000000E+00 0.  1.
         11    1    3    3    0    0  0.18674260519E+02 -0.16408572044E+01  0.24122996115E+02  0.30550603269E+02  0.51100000000E-03 0. -1.
        -11    1    3    3    0    0  0.19380684655E+01 -0.16033406982E+00  0.29707906358E+01  0.35506919964E+01  0.51100000000E-03 0.  1.
        -12    1    3    3    0    0  0.74401884979E+01 -0.10950666555E+02  0.34687698683E+01  0.13685973377E+02  0.00000000000E+00 0.  1.
</event>
<event>
 7    1  0.4519225E-009  0.4778727E+02  0.7816164E-02  0.1312668E+00
        -11   -1    0    0    0    0  0.00000000000E+00  0.00000000000E+00  0.45593999997E+02  0.45594000000E+02  0.51100000000E-03 0.  1.
         11   -1    0    0    0    0 -0.00000000000E+00 -0.00000000000E+00 -0.45593999997E+02  0.45594000000E+02  0.51100000000E-03 0. -1.
    9900012    2    1    2    0    0  0.52622178376E+01 -0.20202104327E+02 -0.38050061957E+02  0.47787272233E+02  0.20000005418E+02 0.  0.
        -12    1    1    2    0    0 -0.52622178376E+01  0.20202104327E+02  0.38050061957E+02  0.43400727767E+02  0.00000000000E+00 0.  1.
         11    1    3    3    0    0  0.46853125897E+01 -0.40292731826E+01 -0.62566051278E+01  0.87938788046E+01  0.51100000000E-03 0. -1.
        -11    1    3    3    0    0  0.73231495643E+01 -0.47535360927E+01 -0.84791919683E+01  0.12170510327E+02  0.51100000000E-03 0.  1.
        -12    1    3    3    0    0 -0.67462443163E+01 -0.11419295052E+02 -0.23314264861E+02  0.26822883101E+02  0.00000000000E+00 0.  1.
</event>
<event>
 7    1  0.4519225E-009  0.4778726E+02  0.7816164E-02  0.1312668E+00
        -11   -1    0    0    0    0  0.00000000000E+00  0.00000000000E+00  0.45593999997E+02  0.45594000000E+02  0.51100000000E-03 0. -1.
         11   -1    0    0    0    0 -0.00000000000E+00 -0.00000000000E+00 -0.45593999997E+02  0.45594000000E+02  0.51100000000E-03 0.  1.
    9900012    2    1    2    0    0  0.25250454677E+02  0.33062378223E+02  0.12365986056E+02  0.47787263528E+02  0.19999965731E+02 0.  0.
        -12    1    1    2    0    0 -0.25250454677E+02 -0.33062378223E+02 -0.12365986056E+02  0.43400736472E+02  0.00000000000E+00 0.  1.
         11    1    3    3    0    0  0.17635347106E+02  0.20146447593E+02  0.43171756974E+01  0.27120524044E+02  0.51100000000E-03 0. -1.
        -11    1    3    3    0    0 -0.65517036429E+00  0.23038928184E+00 -0.22489775846E+01  0.23537688639E+01  0.51100000000E-03 0.  1.
         12    1    3    3    0    0  0.82702779359E+01  0.12685541348E+02  0.10297787943E+02  0.18312970620E+02  0.00000000000E+00 0. -1.
</event>
<event>
 7    1  0.4519225E-009  0.4778727E+02  0.7816164E-02  0.1312668E+00
        -11   -1    0    0    0    0  0.00000000000E+00  0.00000000000E+00  0.45593999997E+02  0.45594000000E+02  0.51100000000E-03 0.  1.
         11   -1    0    0    0    0 -0.00000000000E+00 -0.00000000000E+00 -0.45593999997E+02  0.45594000000E+02  0.51100000000E-03 0. -1.
    9900012    2    1    2    0    0 -0.79480710934E+01 -0.40682713334E+01 -0.42472353142E+02  0.47787269048E+02  0.19999990899E+02 0.  0.
        -12    1    1    2    0    0  0.79480710934E+01  0.40682713334E+01  0.42472353142E+02  0.43400730952E+02  0.00000000000E+00 0.  1.
         11    1    3    3    0    0 -0.34631185609E+01  0.92358457940E+00 -0.10315198046E+02  0.10920142381E+02  0.51100000000E-03 0. -1.
        -11    1    3    3    0    0 -0.40225540004E+01  0.58694306795E+01 -0.11480201747E+02  0.13506523964E+02  0.51100000000E-03 0.  1.
         12    1    3    3    0    0 -0.46239853215E+00 -0.10861286592E+02 -0.20676953349E+02  0.23360602703E+02  0.00000000000E+00 0. -1.
</event>
<event>
 7    1  0.4519225E-009  0.4778728E+02  0.7816164E-02  0.1312668E+00
        -11   -1    0    0    0    0  0.00000000000E+00  0.00000000000E+00  0.45593999997E+02  0.45594000000E+02  0.51100000000E-03 0.  1.
         11   -1    0    0    0    0 -0.00000000000E+00 -0.00000000000E+00 -0.45593999997E+02  0.45594000000E+02  0.51100000000E-03 0. -1.
    9900012    2    1    2    0    0  0.33131001438E+02 -0.19395252839E+02 -0.20243110824E+02  0.47787278522E+02  0.20000034095E+02 0.  0.
        -12    1    1    2    0    0 -0.33131001438E+02  0.19395252839E+02  0.20243110824E+02  0.43400721478E+02  0.00000000000E+00 0.  1.
         11    1    3    3    0    0  0.32489451509E+02 -0.13304580276E+02 -0.20035766688E+02  0.40422868067E+02  0.51100000000E-03 0.  1.
        -11    1    3    3    0    0  0.22961114056E+01 -0.37978694346E+01 -0.70449168456E+00  0.44935785988E+01  0.51100000000E-03 0. -1.
        -12    1    3    3    0    0 -0.16545614769E+01 -0.22928031280E+01  0.49714754906E+00  0.28708318569E+01  0.00000000000E+00 0.  1.
</event>
<event>
 7    1  0.4519225E-009  0.4778728E+02  0.7816164E-02  0.1312668E+00
        -11   -1    0    0    0    0  0.00000000000E+00  0.00000000000E+00  0.45593999997E+02  0.45594000000E+02  0.51100000000E-03 0.  1.
         11   -1    0    0    0    0 -0.00000000000E+00 -0.00000000000E+00 -0.45593999997E+02  0.45594000000E+02  0.51100000000E-03 0. -1.
    9900012    2    1    2    0    0 -0.36253505431E+02  0.17243575703E+02 -0.16491359186E+02  0.47787280111E+02  0.20000041337E+02 0.  0.
        -12    1    1    2    0    0  0.36253505431E+02 -0.17243575703E+02  0.16491359186E+02  0.43400719889E+02  0.00000000000E+00 0.  1.
         11    1    3    3    0    0 -0.48297666631E+00 -0.60531160356E+00  0.22348474375E+01  0.23652086435E+01  0.51100000000E-03 0. -1.
        -11    1    3    3    0    0 -0.55219473123E+01 -0.11454482108E+01 -0.20197865452E+01  0.59902831045E+01  0.51100000000E-03 0.  1.
         12    1    3    3    0    0 -0.30248581453E+02  0.18994335517E+02 -0.16706420078E+02  0.39431788363E+02  0.00000000000E+00 0. -1.
</event>
<event>
 7    1  0.4519225E-009  0.4778727E+02  0.7816164E-02  0.1312668E+00
        -11   -1    0    0    0    0  0.00000000000E+00  0.00000000000E+00  0.45593999997E+02  0.45594000000E+02  0.51100000000E-03 0.  1.
         11   -1    0    0    0    0 -0.00000000000E+00 -0.00000000000E+00 -0.45593999997E+02  0.45594000000E+02  0.51100000000E-03 0. -1.
    9900012    2    1    2    0    0  0.23594897127E+02 -0.18650587968E+02 -0.31289929929E+02  0.47787270548E+02  0.19999997737E+02 0.  0.
        -12    1    1    2    0    0 -0.23594897127E+02  0.18650587968E+02  0.31289929929E+02  0.43400729452E+02  0.00000000000E+00 0.  1.
         11    1    3    3    0    0  0.52129968413E+01 -0.85311231118E+00 -0.21637581710E+01  0.57083260564E+01  0.51100000000E-03 0. -1.
        -11    1    3    3    0    0 -0.23214203438E+01 -0.62407929592E+01 -0.64821413219E+01  0.92927200297E+01  0.51100000000E-03 0.  1.
         12    1    3    3    0    0  0.20703320630E+02 -0.11556682698E+02 -0.22644030436E+02  0.32786224462E+02  0.00000000000E+00 0. -1.
</event>
<event>
 7    1  0.4519225E-009  0.4778727E+02  0.7816164E-02  0.1312668E+00
        -11   -1    0    0    0    0  0.00000000000E+00  0.00000000000E+00  0.45593999997E+02  0.45594000000E+02  0.51100000000E-03 0.  1.
         11   -1    0    0    0    0 -0.00000000000E+00 -0.00000000000E+00 -0.45593999997E+02  0.45594000000E+02  0.51100000000E-03 0. -1.
    9900012    2    1    2    0    0 -0.17281452685E+02 -0.39811344926E+02 -0.17665289969E+00  0.47787274223E+02  0.20000014492E+02 0.  0.
        -12    1    1    2    0    0  0.17281452685E+02  0.39811344926E+02  0.17665289969E+00  0.43400725777E+02  0.00000000000E+00 0.  1.
         11    1    3    3    0    0 -0.51033810211E+01 -0.46363523037E+00 -0.34240394593E+00  0.51358247825E+01  0.51100000000E-03 0. -1.
        -11    1    3    3    0    0 -0.39894419963E+01 -0.38618214222E+01 -0.25942704764E+01  0.61285848044E+01  0.51100000000E-03 0.  1.
         12    1    3    3    0    0 -0.81886296675E+01 -0.35485888274E+02  0.27600215227E+01  0.36522864636E+02  0.00000000000E+00 0. -1.
</event>
<event>
 7    1  0.4519225E-009  0.4778727E+02  0.7816164E-02  0.1312668E+00
        -11   -1    0    0    0    0  0.00000000000E+00  0.00000000000E+00  0.45593999997E+02  0.45594000000E+02  0.51100000000E-03 0.  1.
         11   -1    0    0    0    0 -0.00000000000E+00 -0.00000000000E+00 -0.45593999997E+02  0.45594000000E+02  0.51100000000E-03 0. -1.
    9900012    2    1    2    0    0 -0.16741060694E+02  0.11105024497E+02 -0.38471270843E+02  0.47787270024E+02  0.19999995345E+02 0.  0.
        -12    1    1    2    0    0  0.16741060694E+02 -0.11105024497E+02  0.38471270843E+02  0.43400729976E+02  0.00000000000E+00 0.  1.
         11    1    3    3    0    0  0.10666113278E+01 -0.10872412887E+01 -0.11234413559E+01  0.18925839706E+01  0.51100000000E-03 0. -1.
        -11    1    3    3    0    0 -0.79278936951E+01  0.69660262769E+01 -0.50149368243E+01  0.11684460285E+02  0.51100000000E-03 0.  1.
         12    1    3    3    0    0 -0.98797783263E+01  0.52262395090E+01 -0.32332892663E+02  0.34210225768E+02  0.00000000000E+00 0. -1.
</event>
<event>
 7    1  0.4519225E-009  0.4778727E+02  0.7816164E-02  0.1312668E+00
        -11   -1    0    0    0    0  0.00000000000E+00  0.00000000000E+00  0.45593999997E+02  0.45594000000E+02  0.51100000000E-03 0.  1.
         11   -1    0    0    0    0 -0.00000000000E+00 -0.00000000000E+00 -0.45593999997E+02  0.45594000000E+02  0.51100000000E-03 0. -1.
    9900012    2    1    2    0    0  0.41573391015E+02  0.16576416767E+01 -0.12350259924E+02  0.47787268018E+02  0.19999986200E+02 0.  0.
        -12    1    1    2    0    0 -0.41573391015E+02 -0.16576416767E+01  0.12350259924E+02  0.43400731982E+02  0.00000000000E+00 0.  1.
         11    1    3    3    0    0  0.17261246436E+02  0.91710766776E+01 -0.85972164801E+01  0.21353487009E+02  0.51100000000E-03 0. -1.
        -11    1    3    3    0    0  0.92376347939E+01 -0.40480828685E+00  0.40858232313E+00  0.92555230057E+01  0.51100000000E-03 0.  1.
        -12    1    3    3    0    0  0.15074509785E+02 -0.71086267140E+01 -0.41616257669E+01  0.17178258003E+02  0.00000000000E+00 0.  1.
</event>
<event>
 7    1  0.4519225E-009  0.4778727E+02  0.7816164E-02  0.1312668E+00
        -11   -1    0    0    0    0  0.00000000000E+00  0.00000000000E+00  0.45593999997E+02  0.45594000000E+02  0.51100000000E-03 0. -1.
         11   -1    0    0    0    0 -0.00000000000E+00 -0.00000000000E+00 -0.45593999997E+02  0.45594000000E+02  0.51100000000E-03 0.  1.
    9900012    2    1    2    0    0 -0.17477206043E+02 -0.23944936252E+02  0.31698745264E+02  0.47787272419E+02  0.20000006268E+02 0.  0.
        -12    1    1    2    0    0  0.17477206043E+02  0.23944936252E+02 -0.31698745264E+02  0.43400727581E+02  0.00000000000E+00 0.  1.
         11    1    3    3    0    0  0.17249121128E+01 -0.16248346333E+01  0.20077775070E+01  0.31058944221E+01  0.51100000000E-03 0. -1.
        -11    1    3    3    0    0 -0.13044129051E+02 -0.22271173978E+02  0.28424903817E+02  0.38394396080E+02  0.51100000000E-03 0.  1.
        -12    1    3    3    0    0 -0.61579891046E+01 -0.48927641278E-01  0.12660639399E+01  0.62869819171E+01  0.00000000000E+00 0.  1.
</event>
<event>
 7    1  0.4519225E-009  0.4778728E+02  0.7816164E-02  0.1312668E+00
        -11   -1    0    0    0    0  0.00000000000E+00  0.00000000000E+00  0.45593999997E+02  0.45594000000E+02  0.51100000000E-03 0. -1.
         11   -1    0    0    0    0 -0.00000000000E+00 -0.00000000000E+00 -0.45593999997E+02  0.45594000000E+02  0.51100000000E-03 0.  1.
    9900012    2    1    2    0    0  0.55715519043E+01  0.49846124228E+01  0.42752006732E+02  0.47787278448E+02  0.20000033756E+02 0.  0.
        -12    1    1    2    0    0 -0.55715519043E+01 -0.49846124228E+01 -0.42752006732E+02  0.43400721552E+02  0.00000000000E+00 0.  1.
         11    1    3    3    0    0  0.40679648020E+01 -0.30213153617E+01  0.17222418816E+02  0.17952392439E+02  0.51100000000E-03 0. -1.
        -11    1    3    3    0    0 -0.50053447210E+01  0.36599835282E+00  0.11844095939E+02  0.12863515827E+02  0.51100000000E-03 0.  1.
        -12    1    3    3    0    0  0.65089318233E+01  0.76399294317E+01  0.13685491977E+02  0.16971370182E+02  0.00000000000E+00 0.  1.
</event>
<event>
 7    1  0.4519225E-009  0.4778727E+02  0.7816164E-02  0.1312668E+00
        -11   -1    0    0    0    0  0.00000000000E+00  0.00000000000E+00  0.45593999997E+02  0.45594000000E+02  0.51100000000E-03 0.  1.
         11   -1    0    0    0    0 -0.00000000000E+00 -0.00000000000E+00 -0.45593999997E+02  0.45594000000E+02  0.51100000000E-03 0. -1.
    9900012    2    1    2    0    0  0.69863637684E+00 -0.27730962741E+02 -0.33378568146E+02  0.47787271909E+02  0.20000003943E+02 0.  0.
        -12    1    1    2    0    0 -0.69863637684E+00  0.27730962741E+02  0.33378568146E+02  0.43400728091E+02  0.00000000000E+00 0.  1.
         11    1    3    3    0    0 -0.13988473973E+01 -0.23902583024E+01 -0.56848790698E+01  0.63236033314E+01  0.51100000000E-03 0. -1.
        -11    1    3    3    0    0  0.45113732493E+01 -0.27904493579E+01  0.44503653196E+00  0.53232653503E+01  0.51100000000E-03 0.  1.
        -12    1    3    3    0    0 -0.24138894752E+01 -0.22550255081E+02 -0.28138725608E+02  0.36140403228E+02  0.00000000000E+00 0.  1.
</event>
<event>
 7    1  0.4519225E-009  0.4778727E+02  0.7816164E-02  0.1312668E+00
        -11   -1    0    0    0    0  0.00000000000E+00  0.00000000000E+00  0.45593999997E+02  0.45594000000E+02  0.51100000000E-03 0. -1.
         11   -1    0    0    0    0 -0.00000000000E+00 -0.00000000000E+00 -0.45593999997E+02  0.45594000000E+02  0.51100000000E-03 0.  1.
    9900012    2    1    2    0    0  0.27242633042E+02  0.32339747968E+02  0.97776771095E+01  0.47787270474E+02  0.19999997400E+02 0.  0.
        -12    1    1    2    0    0 -0.27242633042E+02 -0.32339747968E+02 -0.97776771095E+01  0.43400729526E+02  0.00000000000E+00 0.  1.
         11    1    3    3    0    0  0.37785638421E+01  0.72905648702E+01  0.39648809594E+01  0.91186710719E+01  0.51100000000E-03 0.  1.
        -11    1    3    3    0    0  0.13736867689E+02  0.77872919446E+01 -0.43797922792E+01  0.16386763878E+02  0.51100000000E-03 0. -1.
         12    1    3    3    0    0  0.97272015112E+01  0.17261891154E+02  0.10192588429E+02  0.22281835524E+02  0.00000000000E+00 0. -1.
</event>
<event>
 7    1  0.4519225E-009  0.4778731E+02  0.7816164E-02  0.1312668E+00
        -11   -1    0    0    0    0  0.00000000000E+00  0.00000000000E+00  0.45593999997E+02  0.45594000000E+02  0.51100000000E-03 0.  1.
         11   -1    0    0    0    0 -0.00000000000E+00 -0.00000000000E+00 -0.45593999997E+02  0.45594000000E+02  0.51100000000E-03 0. -1.
    9900012    2    1    2    0    0  0.41242433333E+02  0.32974389178E+01 -0.13107587621E+02  0.47787305721E+02  0.20000158104E+02 0.  0.
        -12    1    1    2    0    0 -0.41242433333E+02 -0.32974389178E+01  0.13107587621E+02  0.43400694279E+02  0.00000000000E+00 0.  1.
         11    1    3    3    0    0 -0.75147580181E+00  0.74409152055E+00 -0.37706324931E+00  0.11227488707E+01  0.51100000000E-03 0. -1.
        -11    1    3    3    0    0  0.15447187406E+01  0.41322562539E+01 -0.10925292090E+01  0.45448122150E+01  0.51100000000E-03 0.  1.
         12    1    3    3    0    0  0.40449190394E+02 -0.15789088567E+01 -0.11637995163E+02  0.42119744635E+02  0.00000000000E+00 0. -1.
</event>
<event>
 7    1  0.4519225E-009  0.4778727E+02  0.7816164E-02  0.1312668E+00
        -11   -1    0    0    0    0  0.00000000000E+00  0.00000000000E+00  0.45593999997E+02  0.45594000000E+02  0.51100000000E-03 0.  1.
         11   -1    0    0    0    0 -0.00000000000E+00 -0.00000000000E+00 -0.45593999997E+02  0.45594000000E+02  0.51100000000E-03 0. -1.
    9900012    2    1    2    0    0 -0.27579666290E+02  0.28042332785E+02 -0.18347014631E+02  0.47787269977E+02  0.19999995134E+02 0.  0.
        -12    1    1    2    0    0  0.27579666290E+02 -0.28042332785E+02  0.18347014631E+02  0.43400730023E+02  0.00000000000E+00 0.  1.
         11    1    3    3    0    0 -0.53296549060E+01  0.15202372840E+02 -0.65941061971E+01  0.17406883644E+02  0.51100000000E-03 0. -1.
        -11    1    3    3    0    0 -0.14100539069E+02  0.12644219281E+02 -0.44944895756E+01  0.19465403157E+02  0.51100000000E-03 0.  1.
        -12    1    3    3    0    0 -0.81494723151E+01  0.19574066326E+00 -0.72584188583E+01  0.10914983177E+02  0.00000000000E+00 0.  1.
</event>
<event>
 7    1  0.4519225E-009  0.4778727E+02  0.7816164E-02  0.1312668E+00
        -11   -1    0    0    0    0  0.00000000000E+00  0.00000000000E+00  0.45593999997E+02  0.45594000000E+02  0.51100000000E-03 0.  1.
         11   -1    0    0    0    0 -0.00000000000E+00 -0.00000000000E+00 -0.45593999997E+02  0.45594000000E+02  0.51100000000E-03 0. -1.
    9900012    2    1    2    0    0 -0.25860091671E+02 -0.28747317280E+02 -0.19709661699E+02  0.47787270095E+02  0.19999995670E+02 0.  0.
        -12    1    1    2    0    0  0.25860091671E+02  0.28747317280E+02  0.19709661699E+02  0.43400729905E+02  0.00000000000E+00 0.  1.
         11    1    3    3    0    0 -0.70947434228E+00  0.25926730343E+00 -0.18902462922E+01  0.20355846048E+01  0.51100000000E-03 0. -1.
        -11    1    3    3    0    0 -0.35241748459E+01  0.18692521721E+01  0.14865568928E+00  0.39919933370E+01  0.51100000000E-03 0.  1.
         12    1    3    3    0    0 -0.21626442483E+02 -0.30875836755E+02 -0.17968071096E+02  0.41759692153E+02  0.00000000000E+00 0. -1.
</event>
<event>
 7    1  0.4519225E-009  0.4778727E+02  0.7816164E-02  0.1312668E+00
        -11   -1    0    0    0    0  0.00000000000E+00  0.00000000000E+00  0.45593999997E+02  0.45594000000E+02  0.51100000000E-03 0.  1.
         11   -1    0    0    0    0 -0.00000000000E+00 -0.00000000000E+00 -0.45593999997E+02  0.45594000000E+02  0.51100000000E-03 0. -1.
    9900012    2    1    2    0    0 -0.27524100766E+02  0.98969263734E+01 -0.32063965162E+02  0.47787272627E+02  0.20000007214E+02 0.  0.
        -12    1    1    2    0    0  0.27524100766E+02 -0.98969263734E+01  0.32063965162E+02  0.43400727373E+02  0.00000000000E+00 0.  1.
         11    1    3    3    0    0 -0.10859591049E+02  0.41912616115E+01 -0.21249520743E+02  0.24228898525E+02  0.51100000000E-03 0. -1.
        -11    1    3    3    0    0 -0.94020692854E+01  0.46255849108E+00 -0.11153102004E+02  0.14594675460E+02  0.51100000000E-03 0.  1.
        -12    1    3    3    0    0 -0.72624404315E+01  0.52431062708E+01  0.33865758478E+00  0.89636986421E+01  0.00000000000E+00 0.  1.
</event>
<event>
 7    1  0.4519225E-009  0.4778727E+02  0.7816164E-02  0.1312668E+00
        -11   -1    0    0    0    0  0.00000000000E+00  0.00000000000E+00  0.45593999997E+02  0.45594000000E+02  0.51100000000E-03 0.  1.
         11   -1    0    0    0    0 -0.00000000000E+00 -0.00000000000E+00 -0.45593999997E+02  0.45594000000E+02  0.51100000000E-03 0. -1.
    9900012    2    1    2    0    0  0.41874472241E+02  0.25594129789E+01 -0.11117600909E+02  0.47787273391E+02  0.20000010697E+02 0.  0.
        -12    1    1    2    0    0 -0.41874472241E+02 -0.25594129789E+01  0.11117600909E+02  0.43400726609E+02  0.00000000000E+00 0.  1.
         11    1    3    3    0    0  0.25029845804E+02  0.21856701365E+01 -0.13918763680E+02  0.28722853577E+02  0.51100000000E-03 0. -1.
        -11    1    3    3    0    0  0.81200867301E+01  0.37480249250E+01 -0.93390177935E+00  0.89919782105E+01  0.51100000000E-03 0.  1.
        -12    1    3    3    0    0  0.87245397063E+01 -0.33742820826E+01  0.37350645504E+01  0.10072441604E+02  0.00000000000E+00 0.  1.
</event>
<event>
 7    1  0.4519225E-009  0.4778725E+02  0.7816164E-02  0.1312668E+00
        -11   -1    0    0    0    0  0.00000000000E+00  0.00000000000E+00  0.45593999997E+02  0.45594000000E+02  0.51100000000E-03 0. -1.
         11   -1    0    0    0    0 -0.00000000000E+00 -0.00000000000E+00 -0.45593999997E+02  0.45594000000E+02  0.51100000000E-03 0.  1.
    9900012    2    1    2    0    0 -0.38527407370E+02  0.70842420113E+01  0.18683610832E+02  0.47787252112E+02  0.19999913679E+02 0.  0.
        -12    1    1    2    0    0  0.38527407370E+02 -0.70842420113E+01 -0.18683610832E+02  0.43400747888E+02  0.00000000000E+00 0.  1.
         11    1    3    3    0    0 -0.22011917774E+02  0.24709752411E+01  0.37531905619E+01  0.22465900435E+02  0.51100000000E-03 0. -1.
        -11    1    3    3    0    0 -0.18466455483E+01 -0.25465199708E+01 -0.78977144260E-01  0.31466015625E+01  0.51100000000E-03 0.  1.
         12    1    3    3    0    0 -0.14668844048E+02  0.71597867410E+01  0.15009397415E+02  0.22174750114E+02  0.00000000000E+00 0. -1.
</event>
