<event>
 7    1  0.5408841E-013  0.5052887E+02  0.7816164E-02  0.1300439E+00
        -11   -1    0    0    0    0  0.00000000000E+00  0.00000000000E+00  0.45593999997E+02  0.45594000000E+02  0.51100000000E-03 0.  1.
         11   -1    0    0    0    0 -0.00000000000E+00 -0.00000000000E+00 -0.45593999997E+02  0.45594000000E+02  0.51100000000E-03 0. -1.
    9900012    2    1    2    0    0 -0.26394661197E+02 -0.21924145043E+02  0.21813270828E+02  0.50528867449E+02  0.30000023098E+02 0.  0.
         12    1    1    2    0    0  0.26394661197E+02  0.21924145043E+02 -0.21813270828E+02  0.40659132551E+02  0.00000000000E+00 0. -1.
         11    1    3    3    0    0 -0.10102342759E+02 -0.87484571397E+00  0.13956432104E+02  0.17251222611E+02  0.51100000000E-03 0. -1.
        -11    1    3    3    0    0 -0.34339763812E+01 -0.16019243259E+02  0.10162706039E+02  0.19279236050E+02  0.51100000000E-03 0.  1.
         12    1    3    3    0    0 -0.12858342057E+02 -0.50300560701E+01 -0.23058673149E+01  0.13998408788E+02  0.00000000000E+00 0. -1.
</event>
<event>
 7    1  0.5408841E-013  0.5052887E+02  0.7816164E-02  0.1300439E+00
        -11   -1    0    0    0    0  0.00000000000E+00  0.00000000000E+00  0.45593999997E+02  0.45594000000E+02  0.51100000000E-03 0.  1.
         11   -1    0    0    0    0 -0.00000000000E+00 -0.00000000000E+00 -0.45593999997E+02  0.45594000000E+02  0.51100000000E-03 0. -1.
    9900012    2    1    2    0    0 -0.22282740538E+02 -0.24278922614E+02  0.23815506270E+02  0.50528868823E+02  0.30000027274E+02 0.  0.
         12    1    1    2    0    0  0.22282740538E+02  0.24278922614E+02 -0.23815506270E+02  0.40659131177E+02  0.00000000000E+00 0. -1.
         11    1    3    3    0    0  0.11654540158E+01 -0.63108836628E+01  0.50926011668E+00  0.64377699397E+01  0.51100000000E-03 0. -1.
        -11    1    3    3    0    0 -0.13151913119E+02 -0.20533227031E+02  0.83930320535E+01  0.25788160429E+02  0.51100000000E-03 0.  1.
        -12    1    3    3    0    0 -0.10296281435E+02  0.25651880800E+01  0.14913214100E+02  0.18302938454E+02  0.00000000000E+00 0.  1.
</event>
<event>
 7    1  0.5408841E-013  0.5052886E+02  0.7816164E-02  0.1300439E+00
        -11   -1    0    0    0    0  0.00000000000E+00  0.00000000000E+00  0.45593999997E+02  0.45594000000E+02  0.51100000000E-03 0.  1.
         11   -1    0    0    0    0 -0.00000000000E+00 -0.00000000000E+00 -0.45593999997E+02  0.45594000000E+02  0.51100000000E-03 0. -1.
    9900012    2    1    2    0    0  0.24512962473E+02 -0.20967480466E+02  0.24751664232E+02  0.50528862668E+02  0.30000008567E+02 0.  0.
         12    1    1    2    0    0 -0.24512962473E+02  0.20967480466E+02 -0.24751664232E+02  0.40659137332E+02  0.00000000000E+00 0. -1.
         11    1    3    3    0    0  0.30801556675E+01 -0.74257412541E+01  0.16545097028E+01  0.82077033771E+01  0.51100000000E-03 0. -1.
        -11    1    3    3    0    0  0.16996478945E+02 -0.20745306232E+02  0.15655144673E+02  0.31053688705E+02  0.51100000000E-03 0.  1.
        -12    1    3    3    0    0  0.44363278602E+01  0.72035670206E+01  0.74420098561E+01  0.11267470586E+02  0.00000000000E+00 0.  1.
</event>
<event>
 7    1  0.5408841E-013  0.5052886E+02  0.7816164E-02  0.1300439E+00
        -11   -1    0    0    0    0  0.00000000000E+00  0.00000000000E+00  0.45593999997E+02  0.45594000000E+02  0.51100000000E-03 0.  1.
         11   -1    0    0    0    0 -0.00000000000E+00 -0.00000000000E+00 -0.45593999997E+02  0.45594000000E+02  0.51100000000E-03 0. -1.
    9900012    2    1    2    0    0  0.32283870839E+02 -0.76645784501E+01  0.23498327434E+02  0.50528862388E+02  0.30000007714E+02 0.  0.
         12    1    1    2    0    0 -0.32283870839E+02  0.76645784501E+01 -0.23498327434E+02  0.40659137612E+02  0.00000000000E+00 0. -1.
         11    1    3    3    0    0  0.47594135137E+01  0.38505692856E+00  0.15870465179E+02  0.16573229953E+02  0.51100000000E-03 0. -1.
        -11    1    3    3    0    0 -0.39670377507E+00 -0.19480291559E+01  0.48490867051E+01  0.52407855911E+01  0.51100000000E-03 0.  1.
        -12    1    3    3    0    0  0.27921161100E+02 -0.61016062228E+01  0.27787755500E+01  0.28714846843E+02  0.00000000000E+00 0.  1.
</event>
<event>
 7    1  0.5408841E-013  0.5052886E+02  0.7816164E-02  0.1300439E+00
        -11   -1    0    0    0    0  0.00000000000E+00  0.00000000000E+00  0.45593999997E+02  0.45594000000E+02  0.51100000000E-03 0.  1.
         11   -1    0    0    0    0 -0.00000000000E+00 -0.00000000000E+00 -0.45593999997E+02  0.45594000000E+02  0.51100000000E-03 0. -1.
    9900012    2    1    2    0    0 -0.24277581187E+02  0.24258888369E+02  0.21800710102E+02  0.50528861124E+02  0.30000003871E+02 0.  0.
         12    1    1    2    0    0  0.24277581187E+02 -0.24258888369E+02 -0.21800710102E+02  0.40659138876E+02  0.00000000000E+00 0. -1.
         11    1    3    3    0    0 -0.42451489438E+01  0.23712584122E+01 -0.17335932441E+01  0.51623155473E+01  0.51100000000E-03 0. -1.
        -11    1    3    3    0    0 -0.48235041797E+01  0.16769756218E+02  0.70785278763E+00  0.17464019354E+02  0.51100000000E-03 0.  1.
        -12    1    3    3    0    0 -0.15208928064E+02  0.51178737389E+01  0.22826450559E+02  0.27902526222E+02  0.00000000000E+00 0.  1.
</event>
<event>
 7    1  0.5408841E-013  0.5052885E+02  0.7816164E-02  0.1300439E+00
        -11   -1    0    0    0    0  0.00000000000E+00  0.00000000000E+00  0.45593999997E+02  0.45594000000E+02  0.51100000000E-03 0. -1.
         11   -1    0    0    0    0 -0.00000000000E+00 -0.00000000000E+00 -0.45593999997E+02  0.45594000000E+02  0.51100000000E-03 0.  1.
    9900012    2    1    2    0    0 -0.60222817987E+01 -0.34287101558E+02 -0.21006974308E+02  0.50528853663E+02  0.29999981194E+02 0.  0.
         12    1    1    2    0    0  0.60222817987E+01  0.34287101558E+02  0.21006974308E+02  0.40659146337E+02  0.00000000000E+00 0. -1.
         11    1    3    3    0    0 -0.36395810270E+01  0.31982623260E+01 -0.25228001716E+01  0.54625958046E+01  0.51100000000E-03 0. -1.
        -11    1    3    3    0    0  0.56378261389E+01 -0.48502293756E+01 -0.24446453148E+01  0.78285438968E+01  0.51100000000E-03 0.  1.
        -12    1    3    3    0    0 -0.80205269107E+01 -0.32635134508E+02 -0.16039528821E+02  0.37237713962E+02  0.00000000000E+00 0.  1.
</event>
<event>
 7    1  0.5408841E-013  0.5052886E+02  0.7816164E-02  0.1300439E+00
        -11   -1    0    0    0    0  0.00000000000E+00  0.00000000000E+00  0.45593999997E+02  0.45594000000E+02  0.51100000000E-03 0. -1.
         11   -1    0    0    0    0 -0.00000000000E+00 -0.00000000000E+00 -0.45593999997E+02  0.45594000000E+02  0.51100000000E-03 0.  1.
    9900012    2    1    2    0    0  0.17536867484E+01  0.29105765289E+02 -0.28336283589E+02  0.50528856405E+02  0.29999989527E+02 0.  0.
         12    1    1    2    0    0 -0.17536867484E+01 -0.29105765289E+02  0.28336283589E+02  0.40659143595E+02  0.00000000000E+00 0. -1.
         11    1    3    3    0    0 -0.10175939364E+01  0.21236694927E+02 -0.20807122634E+02  0.29748429562E+02  0.51100000000E-03 0. -1.
        -11    1    3    3    0    0 -0.47505061421E+01  0.92383811639E+01 -0.80132237587E+01  0.13119708473E+02  0.51100000000E-03 0.  1.
         12    1    3    3    0    0  0.75217868268E+01 -0.13693108015E+01  0.48406280441E+00  0.76607183696E+01  0.00000000000E+00 0. -1.
</event>
<event>
 7    1  0.5408841E-013  0.5052888E+02  0.7816164E-02  0.1300439E+00
        -11   -1    0    0    0    0  0.00000000000E+00  0.00000000000E+00  0.45593999997E+02  0.45594000000E+02  0.51100000000E-03 0.  1.
         11   -1    0    0    0    0 -0.00000000000E+00 -0.00000000000E+00 -0.45593999997E+02  0.45594000000E+02  0.51100000000E-03 0. -1.
    9900012    2    1    2    0    0  0.27472246297E+02 -0.23076783560E+02  0.19128569275E+02  0.50528875334E+02  0.30000047067E+02 0.  0.
         12    1    1    2    0    0 -0.27472246297E+02  0.23076783560E+02 -0.19128569275E+02  0.40659124666E+02  0.00000000000E+00 0. -1.
         11    1    3    3    0    0  0.21260778677E+01  0.34773146797E+01  0.65287395782E+01  0.76965164342E+01  0.51100000000E-03 0. -1.
        -11    1    3    3    0    0  0.40753239454E+01 -0.16636722655E+02  0.26133502759E+01  0.17326811763E+02  0.51100000000E-03 0.  1.
         12    1    3    3    0    0  0.21270844484E+02 -0.99173755848E+01  0.99864794205E+01  0.25505547137E+02  0.00000000000E+00 0. -1.
</event>
<event>
 7    1  0.5408841E-013  0.5052886E+02  0.7816164E-02  0.1300439E+00
        -11   -1    0    0    0    0  0.00000000000E+00  0.00000000000E+00  0.45593999997E+02  0.45594000000E+02  0.51100000000E-03 0.  1.
         11   -1    0    0    0    0 -0.00000000000E+00 -0.00000000000E+00 -0.45593999997E+02  0.45594000000E+02  0.51100000000E-03 0. -1.
    9900012    2    1    2    0    0 -0.12630324629E+02  0.54827505547E+01  0.38256762779E+02  0.50528861394E+02  0.30000004692E+02 0.  0.
         12    1    1    2    0    0  0.12630324629E+02 -0.54827505547E+01 -0.38256762779E+02  0.40659138606E+02  0.00000000000E+00 0. -1.
         11    1    3    3    0    0  0.25055181293E+01  0.28581321038E+01 -0.26222477865E+01  0.46176535095E+01  0.51100000000E-03 0. -1.
        -11    1    3    3    0    0 -0.17309683499E+01 -0.48436539000E+00 -0.83803278130E+00  0.19832197213E+01  0.51100000000E-03 0.  1.
        -12    1    3    3    0    0 -0.13404874408E+02  0.31089838409E+01  0.41717043347E+02  0.43927988163E+02  0.00000000000E+00 0.  1.
</event>
<event>
 7    1  0.5408841E-013  0.5052884E+02  0.7816164E-02  0.1300439E+00
        -11   -1    0    0    0    0  0.00000000000E+00  0.00000000000E+00  0.45593999997E+02  0.45594000000E+02  0.51100000000E-03 0.  1.
         11   -1    0    0    0    0 -0.00000000000E+00 -0.00000000000E+00 -0.45593999997E+02  0.45594000000E+02  0.51100000000E-03 0. -1.
    9900012    2    1    2    0    0  0.20286887999E+02  0.23856254064E+02  0.25932385623E+02  0.50528839817E+02  0.29999939109E+02 0.  0.
         12    1    1    2    0    0 -0.20286887999E+02 -0.23856254064E+02 -0.25932385623E+02  0.40659160183E+02  0.00000000000E+00 0. -1.
         11    1    3    3    0    0  0.77649691088E+01  0.59908851388E+01 -0.46901637536E+01  0.10871204455E+02  0.51100000000E-03 0. -1.
        -11    1    3    3    0    0  0.49830191265E+01  0.11006761961E+02  0.70803089275E+01  0.14003930279E+02  0.51100000000E-03 0.  1.
        -12    1    3    3    0    0  0.75388997641E+01  0.68586069638E+01  0.23542240449E+02  0.25653705083E+02  0.00000000000E+00 0.  1.
</event>
<event>
 7    1  0.5408841E-013  0.5052886E+02  0.7816164E-02  0.1300439E+00
        -11   -1    0    0    0    0  0.00000000000E+00  0.00000000000E+00  0.45593999997E+02  0.45594000000E+02  0.51100000000E-03 0.  1.
         11   -1    0    0    0    0 -0.00000000000E+00 -0.00000000000E+00 -0.45593999997E+02  0.45594000000E+02  0.51100000000E-03 0. -1.
    9900012    2    1    2    0    0 -0.57938470145E+01  0.28149581749E+02  0.28761056025E+02  0.50528856385E+02  0.29999989468E+02 0.  0.
         12    1    1    2    0    0  0.57938470145E+01 -0.28149581749E+02 -0.28761056025E+02  0.40659143615E+02  0.00000000000E+00 0. -1.
         11    1    3    3    0    0  0.30290778638E+01  0.33700960511E+01 -0.12379020332E+01  0.46973675397E+01  0.51100000000E-03 0. -1.
        -11    1    3    3    0    0 -0.54381879786E+01 -0.15511582987E+01  0.13342533939E+02  0.14491486906E+02  0.51100000000E-03 0.  1.
         12    1    3    3    0    0 -0.33847368996E+01  0.26330643997E+02  0.16656424118E+02  0.31340001939E+02  0.00000000000E+00 0. -1.
</event>
<event>
 7    1  0.5408841E-013  0.5052886E+02  0.7816164E-02  0.1300439E+00
        -11   -1    0    0    0    0  0.00000000000E+00  0.00000000000E+00  0.45593999997E+02  0.45594000000E+02  0.51100000000E-03 0. -1.
         11   -1    0    0    0    0 -0.00000000000E+00 -0.00000000000E+00 -0.45593999997E+02  0.45594000000E+02  0.51100000000E-03 0.  1.
    9900012    2    1    2    0    0 -0.35520735977E+02 -0.81119960795E+01 -0.18045463265E+02  0.50528857003E+02  0.29999991347E+02 0.  0.
         12    1    1    2    0    0  0.35520735977E+02  0.81119960795E+01  0.18045463265E+02  0.40659142997E+02  0.00000000000E+00 0. -1.
         11    1    3    3    0    0 -0.35289233061E+01 -0.13732851361E+01  0.43403064004E+01  0.57599888607E+01  0.51100000000E-03 0. -1.
        -11    1    3    3    0    0 -0.11075559768E+02 -0.67679531932E+00  0.28297157080E+01  0.11451347839E+02  0.51100000000E-03 0.  1.
        -12    1    3    3    0    0 -0.20916252903E+02 -0.60619156240E+01 -0.25215485374E+02  0.33317520304E+02  0.00000000000E+00 0.  1.
</event>
<event>
 7    1  0.5408841E-013  0.5052886E+02  0.7816164E-02  0.1300439E+00
        -11   -1    0    0    0    0  0.00000000000E+00  0.00000000000E+00  0.45593999997E+02  0.45594000000E+02  0.51100000000E-03 0.  1.
         11   -1    0    0    0    0 -0.00000000000E+00 -0.00000000000E+00 -0.45593999997E+02  0.45594000000E+02  0.51100000000E-03 0. -1.
    9900012    2    1    2    0    0 -0.46601957321E+01  0.20286594361E+02  0.34927100505E+02  0.50528859764E+02  0.29999999738E+02 0.  0.
         12    1    1    2    0    0  0.46601957321E+01 -0.20286594361E+02 -0.34927100505E+02  0.40659140236E+02  0.00000000000E+00 0. -1.
         11    1    3    3    0    0  0.42508710245E+01  0.81277921650E+01 -0.12901802134E+00  0.91731976897E+01  0.51100000000E-03 0. -1.
        -11    1    3    3    0    0  0.40716433110E+01  0.20711445209E-01  0.51273456907E+01  0.65473950781E+01  0.51100000000E-03 0.  1.
        -12    1    3    3    0    0 -0.12982710068E+02  0.12138090751E+02  0.29928772836E+02  0.34808266996E+02  0.00000000000E+00 0.  1.
</event>
<event>
 7    1  0.5408841E-013  0.5052891E+02  0.7816164E-02  0.1300439E+00
        -11   -1    0    0    0    0  0.00000000000E+00  0.00000000000E+00  0.45593999997E+02  0.45594000000E+02  0.51100000000E-03 0. -1.
         11   -1    0    0    0    0 -0.00000000000E+00 -0.00000000000E+00 -0.45593999997E+02  0.45594000000E+02  0.51100000000E-03 0.  1.
    9900012    2    1    2    0    0 -0.21877004365E+02 -0.31975860480E+02  0.12332980099E+02  0.50528912805E+02  0.30000160962E+02 0.  0.
         12    1    1    2    0    0  0.21877004365E+02  0.31975860480E+02 -0.12332980099E+02  0.40659087195E+02  0.00000000000E+00 0. -1.
         11    1    3    3    0    0  0.78926108069E+00 -0.74541370358E+01  0.12752366949E+01  0.76035071442E+01  0.51100000000E-03 0. -1.
        -11    1    3    3    0    0 -0.96178029077E+01 -0.26541413090E+02  0.84360303918E+01  0.29463797288E+02  0.51100000000E-03 0.  1.
        -12    1    3    3    0    0 -0.13048462538E+02  0.20196896461E+01  0.26217130125E+01  0.13461608373E+02  0.00000000000E+00 0.  1.
</event>
<event>
 7    1  0.5408841E-013  0.5052886E+02  0.7816164E-02  0.1300439E+00
        -11   -1    0    0    0    0  0.00000000000E+00  0.00000000000E+00  0.45593999997E+02  0.45594000000E+02  0.51100000000E-03 0.  1.
         11   -1    0    0    0    0 -0.00000000000E+00 -0.00000000000E+00 -0.45593999997E+02  0.45594000000E+02  0.51100000000E-03 0. -1.
    9900012    2    1    2    0    0  0.23134951542E+02 -0.91637681695E+01  0.32155331105E+02  0.50528856522E+02  0.29999989884E+02 0.  0.
         12    1    1    2    0    0 -0.23134951542E+02  0.91637681695E+01 -0.32155331105E+02  0.40659143478E+02  0.00000000000E+00 0. -1.
         11    1    3    3    0    0  0.77473591051E+01  0.51613837778E+01  0.43405908400E+01  0.10271425641E+02  0.51100000000E-03 0. -1.
        -11    1    3    3    0    0  0.38312849489E+01  0.50433641591E+01  0.82440835586E+01  0.10396113715E+02  0.51100000000E-03 0.  1.
         12    1    3    3    0    0  0.11556307488E+02 -0.19368516106E+02  0.19570656706E+02  0.29861317165E+02  0.00000000000E+00 0. -1.
</event>
<event>
 7    1  0.5408841E-013  0.5052886E+02  0.7816164E-02  0.1300439E+00
        -11   -1    0    0    0    0  0.00000000000E+00  0.00000000000E+00  0.45593999997E+02  0.45594000000E+02  0.51100000000E-03 0. -1.
         11   -1    0    0    0    0 -0.00000000000E+00 -0.00000000000E+00 -0.45593999997E+02  0.45594000000E+02  0.51100000000E-03 0.  1.
    9900012    2    1    2    0    0  0.23099763354E+02 -0.19214331830E+02 -0.27392990518E+02  0.50528861492E+02  0.30000004991E+02 0.  0.
         12    1    1    2    0    0 -0.23099763354E+02  0.19214331830E+02  0.27392990518E+02  0.40659138508E+02  0.00000000000E+00 0. -1.
         11    1    3    3    0    0  0.63211094183E+01 -0.92024312611E+01 -0.84142914612E+01  0.13980038142E+02  0.51100000000E-03 0. -1.
        -11    1    3    3    0    0 -0.28586592619E+01 -0.11051465804E+02 -0.52418308936E+01  0.12561195030E+02  0.51100000000E-03 0.  1.
        -12    1    3    3    0    0  0.19637313198E+02  0.10395652354E+01 -0.13736868163E+02  0.23987628320E+02  0.00000000000E+00 0.  1.
</event>
<event>
 7    1  0.5408841E-013  0.5052885E+02  0.7816164E-02  0.1300439E+00
        -11   -1    0    0    0    0  0.00000000000E+00  0.00000000000E+00  0.45593999997E+02  0.45594000000E+02  0.51100000000E-03 0. -1.
         11   -1    0    0    0    0 -0.00000000000E+00 -0.00000000000E+00 -0.45593999997E+02  0.45594000000E+02  0.51100000000E-03 0.  1.
    9900012    2    1    2    0    0 -0.30220818697E+02 -0.24415811100E+01 -0.27090730396E+02  0.50528845134E+02  0.29999955270E+02 0.  0.
         12    1    1    2    0    0  0.30220818697E+02  0.24415811100E+01  0.27090730396E+02  0.40659154866E+02  0.00000000000E+00 0. -1.
         11    1    3    3    0    0 -0.12934504139E+02  0.10110155704E+02 -0.14182697393E+02  0.21694827754E+02  0.51100000000E-03 0. -1.
        -11    1    3    3    0    0 -0.34486159111E+01  0.19526097065E+01  0.14023697311E+01  0.42038408025E+01  0.51100000000E-03 0.  1.
        -12    1    3    3    0    0 -0.13837698647E+02 -0.14504346521E+02 -0.14310402734E+02  0.24630176578E+02  0.00000000000E+00 0.  1.
</event>
<event>
 7    1  0.5408841E-013  0.5052885E+02  0.7816164E-02  0.1300439E+00
        -11   -1    0    0    0    0  0.00000000000E+00  0.00000000000E+00  0.45593999997E+02  0.45594000000E+02  0.51100000000E-03 0.  1.
         11   -1    0    0    0    0 -0.00000000000E+00 -0.00000000000E+00 -0.45593999997E+02  0.45594000000E+02  0.51100000000E-03 0. -1.
    9900012    2    1    2    0    0  0.23368825626E+02  0.23405136881E+02  0.23648763714E+02  0.50528850122E+02  0.29999970432E+02 0.  0.
         12    1    1    2    0    0 -0.23368825626E+02 -0.23405136881E+02 -0.23648763714E+02  0.40659149878E+02  0.00000000000E+00 0. -1.
         11    1    3    3    0    0  0.32181545855E+01  0.13607355623E+02  0.19363198948E+01  0.14116160278E+02  0.51100000000E-03 0. -1.
        -11    1    3    3    0    0  0.17516837053E+02  0.91588855850E+01  0.62745819092E+01  0.20738735350E+02  0.51100000000E-03 0.  1.
         12    1    3    3    0    0  0.26338339878E+01  0.63889567270E+00  0.15437861910E+02  0.15673954495E+02  0.00000000000E+00 0. -1.
</event>
<event>
 7    1  0.5408841E-013  0.5052885E+02  0.7816164E-02  0.1300439E+00
        -11   -1    0    0    0    0  0.00000000000E+00  0.00000000000E+00  0.45593999997E+02  0.45594000000E+02  0.51100000000E-03 0.  1.
         11   -1    0    0    0    0 -0.00000000000E+00 -0.00000000000E+00 -0.45593999997E+02  0.45594000000E+02  0.51100000000E-03 0. -1.
    9900012    2    1    2    0    0  0.66099906418E+01 -0.39817468770E+01  0.39920168561E+02  0.50528854135E+02  0.29999982630E+02 0.  0.
         12    1    1    2    0    0 -0.66099906418E+01  0.39817468770E+01 -0.39920168561E+02  0.40659145865E+02  0.00000000000E+00 0. -1.
         11    1    3    3    0    0 -0.90616925406E+01  0.21657141806E+01  0.15713232522E+02  0.18267738398E+02  0.51100000000E-03 0. -1.
        -11    1    3    3    0    0  0.79350306881E+00 -0.58013525343E+01  0.37120670922E+01  0.69328767987E+01  0.51100000000E-03 0.  1.
         12    1    3    3    0    0  0.14878180114E+02 -0.34610852330E+00  0.20494868947E+02  0.25328238939E+02  0.00000000000E+00 0. -1.
</event>
<event>
 7    1  0.5408841E-013  0.5052887E+02  0.7816164E-02  0.1300439E+00
        -11   -1    0    0    0    0  0.00000000000E+00  0.00000000000E+00  0.45593999997E+02  0.45594000000E+02  0.51100000000E-03 0. -1.
         11   -1    0    0    0    0 -0.00000000000E+00 -0.00000000000E+00 -0.45593999997E+02  0.45594000000E+02  0.51100000000E-03 0.  1.
    9900012    2    1    2    0    0  0.16919366114E+02  0.19574479564E+02 -0.31364622951E+02  0.50528870978E+02  0.30000033826E+02 0.  0.
         12    1    1    2    0    0 -0.16919366114E+02 -0.19574479564E+02  0.31364622951E+02  0.40659129022E+02  0.00000000000E+00 0. -1.
         11    1    3    3    0    0  0.65181523240E+01  0.13565146102E+02 -0.84537470760E+01  0.17261672525E+02  0.51100000000E-03 0. -1.
        -11    1    3    3    0    0  0.59480789459E+01  0.97954289123E+01 -0.24637572154E+02  0.27172413081E+02  0.51100000000E-03 0.  1.
        -12    1    3    3    0    0  0.44531348445E+01 -0.37860954495E+01  0.17266962793E+01  0.60947853725E+01  0.00000000000E+00 0.  1.
</event>
<event>
 7    1  0.5408841E-013  0.5052885E+02  0.7816164E-02  0.1300439E+00
        -11   -1    0    0    0    0  0.00000000000E+00  0.00000000000E+00  0.45593999997E+02  0.45594000000E+02  0.51100000000E-03 0. -1.
         11   -1    0    0    0    0 -0.00000000000E+00 -0.00000000000E+00 -0.45593999997E+02  0.45594000000E+02  0.51100000000E-03 0.  1.
    9900012    2    1    2    0    0  0.14542679152E+02 -0.37908459517E+02  0.21508270729E+01  0.50528845103E+02  0.29999955175E+02 0.  0.
         12    1    1    2    0    0 -0.14542679152E+02  0.37908459517E+02 -0.21508270729E+01  0.40659154897E+02  0.00000000000E+00 0. -1.
         11    1    3    3    0    0  0.84627170274E+01 -0.30683676828E+02 -0.60121382654E+00  0.31834997432E+02  0.51100000000E-03 0.  1.
        -11    1    3    3    0    0  0.10921608803E+02 -0.16172197336E+01  0.10361747698E+01  0.11089210834E+02  0.51100000000E-03 0. -1.
         12    1    3    3    0    0 -0.48416466780E+01 -0.56075629553E+01  0.17158661296E+01  0.76046368373E+01  0.00000000000E+00 0. -1.
</event>
<event>
 7    1  0.5408841E-013  0.5052886E+02  0.7816164E-02  0.1300439E+00
        -11   -1    0    0    0    0  0.00000000000E+00  0.00000000000E+00  0.45593999997E+02  0.45594000000E+02  0.51100000000E-03 0. -1.
         11   -1    0    0    0    0 -0.00000000000E+00 -0.00000000000E+00 -0.45593999997E+02  0.45594000000E+02  0.51100000000E-03 0.  1.
    9900012    2    1    2    0    0 -0.27312111018E+02  0.27592864879E+02 -0.12076745300E+02  0.50528863542E+02  0.30000011221E+02 0.  0.
         12    1    1    2    0    0  0.27312111018E+02 -0.27592864879E+02  0.12076745300E+02  0.40659136458E+02  0.00000000000E+00 0. -1.
         11    1    3    3    0    0  0.20783734127E+01  0.73005274160E+01 -0.14380161735E+01  0.77256214877E+01  0.51100000000E-03 0. -1.
        -11    1    3    3    0    0 -0.16470349210E+02 -0.10563192268E+01 -0.40297854698E+01  0.16989037188E+02  0.51100000000E-03 0.  1.
         12    1    3    3    0    0 -0.12920135221E+02  0.21348656690E+02 -0.66089436568E+01  0.25814204866E+02  0.00000000000E+00 0. -1.
</event>
<event>
 7    1  0.5408841E-013  0.5052890E+02  0.7816164E-02  0.1300439E+00
        -11   -1    0    0    0    0  0.00000000000E+00  0.00000000000E+00  0.45593999997E+02  0.45594000000E+02  0.51100000000E-03 0.  1.
         11   -1    0    0    0    0 -0.00000000000E+00 -0.00000000000E+00 -0.45593999997E+02  0.45594000000E+02  0.51100000000E-03 0. -1.
    9900012    2    1    2    0    0 -0.86626224384E+01  0.27938761402E+02  0.28240880357E+02  0.50528895982E+02  0.30000109828E+02 0.  0.
         12    1    1    2    0    0  0.86626224384E+01 -0.27938761402E+02 -0.28240880357E+02  0.40659104018E+02  0.00000000000E+00 0. -1.
         11    1    3    3    0    0 -0.11952565439E+02  0.24797060542E+02  0.17657794218E+02  0.32704062882E+02  0.51100000000E-03 0. -1.
        -11    1    3    3    0    0 -0.13918894288E+01  0.76895044398E+01  0.58972206620E+01  0.97899461954E+01  0.51100000000E-03 0.  1.
         12    1    3    3    0    0  0.46818324295E+01 -0.45478035800E+01  0.46858654773E+01  0.80348869047E+01  0.00000000000E+00 0. -1.
</event>
<event>
 7    1  0.5408841E-013  0.5052893E+02  0.7816164E-02  0.1300439E+00
        -11   -1    0    0    0    0  0.00000000000E+00  0.00000000000E+00  0.45593999997E+02  0.45594000000E+02  0.51100000000E-03 0. -1.
         11   -1    0    0    0    0 -0.00000000000E+00 -0.00000000000E+00 -0.45593999997E+02  0.45594000000E+02  0.51100000000E-03 0.  1.
    9900012    2    1    2    0    0 -0.19467728438E+02  0.32808157793E+02 -0.14063861735E+02  0.50528931206E+02  0.30000216893E+02 0.  0.
         12    1    1    2    0    0  0.19467728438E+02 -0.32808157793E+02  0.14063861735E+02  0.40659068794E+02  0.00000000000E+00 0. -1.
         11    1    3    3    0    0 -0.10429343854E+02  0.75000806535E+01  0.48692324919E+01  0.13737971043E+02  0.51100000000E-03 0. -1.
        -11    1    3    3    0    0 -0.43589621626E+01 -0.15642503487E+00  0.53903161444E+00  0.43949488358E+01  0.51100000000E-03 0.  1.
        -12    1    3    3    0    0 -0.46794224210E+01  0.25464502174E+02 -0.19472125841E+02  0.32396011328E+02  0.00000000000E+00 0.  1.
</event>
<event>
 7    1  0.5408841E-013  0.5052880E+02  0.7816164E-02  0.1300439E+00
        -11   -1    0    0    0    0  0.00000000000E+00  0.00000000000E+00  0.45593999997E+02  0.45594000000E+02  0.51100000000E-03 0. -1.
         11   -1    0    0    0    0 -0.00000000000E+00 -0.00000000000E+00 -0.45593999997E+02  0.45594000000E+02  0.51100000000E-03 0.  1.
    9900012    2    1    2    0    0  0.63833017086E+01  0.37549107990E+02  0.14229849857E+02  0.50528798354E+02  0.29999813075E+02 0.  0.
         12    1    1    2    0    0 -0.63833017086E+01 -0.37549107990E+02 -0.14229849857E+02  0.40659201646E+02  0.00000000000E+00 0. -1.
         11    1    3    3    0    0  0.91387932552E+00  0.33499323900E+02  0.20718704304E+02  0.39399296764E+02  0.51100000000E-03 0. -1.
        -11    1    3    3    0    0  0.18010001590E+01  0.41973716668E+01 -0.12556685937E+01  0.47369013458E+01  0.51100000000E-03 0.  1.
         12    1    3    3    0    0  0.36684222241E+01 -0.14758757635E+00 -0.52331858534E+01  0.63926002443E+01  0.00000000000E+00 0. -1.
</event>
<event>
 7    1  0.5408841E-013  0.5052885E+02  0.7816164E-02  0.1300439E+00
        -11   -1    0    0    0    0  0.00000000000E+00  0.00000000000E+00  0.45593999997E+02  0.45594000000E+02  0.51100000000E-03 0. -1.
         11   -1    0    0    0    0 -0.00000000000E+00 -0.00000000000E+00 -0.45593999997E+02  0.45594000000E+02  0.51100000000E-03 0.  1.
    9900012    2    1    2    0    0 -0.96692612144E+01  0.47992796575E+01 -0.39199989558E+02  0.50528845077E+02  0.29999955096E+02 0.  0.
         12    1    1    2    0    0  0.96692612144E+01 -0.47992796575E+01  0.39199989558E+02  0.40659154923E+02  0.00000000000E+00 0. -1.
         11    1    3    3    0    0 -0.17068711693E+01  0.27531673041E+00 -0.81919159863E+01  0.83723769790E+01  0.51100000000E-03 0.  1.
        -11    1    3    3    0    0  0.61720492188E+01 -0.76187249825E+01 -0.12573126896E+02  0.15944362079E+02  0.51100000000E-03 0. -1.
         12    1    3    3    0    0 -0.14134439264E+02  0.12142687910E+02 -0.18434946676E+02  0.26212106019E+02  0.00000000000E+00 0. -1.
</event>
<event>
 7    1  0.5408841E-013  0.5052886E+02  0.7816164E-02  0.1300439E+00
        -11   -1    0    0    0    0  0.00000000000E+00  0.00000000000E+00  0.45593999997E+02  0.45594000000E+02  0.51100000000E-03 0.  1.
         11   -1    0    0    0    0 -0.00000000000E+00 -0.00000000000E+00 -0.45593999997E+02  0.45594000000E+02  0.51100000000E-03 0. -1.
    9900012    2    1    2    0    0 -0.21961510098E+02  0.15459463494E+02  0.30526433296E+02  0.50528855063E+02  0.29999985448E+02 0.  0.
         12    1    1    2    0    0  0.21961510098E+02 -0.15459463494E+02 -0.30526433296E+02  0.40659144937E+02  0.00000000000E+00 0. -1.
         11    1    3    3    0    0  0.56192856711E+00  0.45297782235E+01  0.14775388566E+02  0.15464370728E+02  0.51100000000E-03 0. -1.
        -11    1    3    3    0    0 -0.30991123076E+00 -0.39464797981E+01  0.46760499883E+01  0.61266786697E+01  0.51100000000E-03 0.  1.
        -12    1    3    3    0    0 -0.22213527434E+02  0.14876165068E+02  0.11074994742E+02  0.28937805665E+02  0.00000000000E+00 0.  1.
</event>
<event>
 7    1  0.5408841E-013  0.5052882E+02  0.7816164E-02  0.1300439E+00
        -11   -1    0    0    0    0  0.00000000000E+00  0.00000000000E+00  0.45593999997E+02  0.45594000000E+02  0.51100000000E-03 0. -1.
         11   -1    0    0    0    0 -0.00000000000E+00 -0.00000000000E+00 -0.45593999997E+02  0.45594000000E+02  0.51100000000E-03 0.  1.
    9900012    2    1    2    0    0 -0.38809113071E+02  0.11252202862E+02  0.45176932326E+01  0.50528820486E+02  0.29999880348E+02 0.  0.
         12    1    1    2    0    0  0.38809113071E+02 -0.11252202862E+02 -0.45176932326E+01  0.40659179514E+02  0.00000000000E+00 0. -1.
         11    1    3    3    0    0 -0.87874088772E+01 -0.37927625311E+01 -0.38926511069E+01  0.10332295742E+02  0.51100000000E-03 0. -1.
        -11    1    3    3    0    0 -0.16382929775E+02 -0.14685001058E+01 -0.16551519732E+01  0.16531678949E+02  0.51100000000E-03 0.  1.
         12    1    3    3    0    0 -0.13638774419E+02  0.16513465499E+02  0.10065496313E+02  0.23664845794E+02  0.00000000000E+00 0. -1.
</event>
<event>
 7    1  0.5408841E-013  0.5052886E+02  0.7816164E-02  0.1300439E+00
        -11   -1    0    0    0    0  0.00000000000E+00  0.00000000000E+00  0.45593999997E+02  0.45594000000E+02  0.51100000000E-03 0.  1.
         11   -1    0    0    0    0 -0.00000000000E+00 -0.00000000000E+00 -0.45593999997E+02  0.45594000000E+02  0.51100000000E-03 0. -1.
    9900012    2    1    2    0    0  0.23781478028E+02 -0.70799439373E+01  0.32209951363E+02  0.50528864863E+02  0.30000015236E+02 0.  0.
         12    1    1    2    0    0 -0.23781478028E+02  0.70799439373E+01 -0.32209951363E+02  0.40659135137E+02  0.00000000000E+00 0. -1.
         11    1    3    3    0    0  0.19425238115E+00 -0.58702022120E+01  0.69745519795E+01  0.91181897092E+01  0.51100000000E-03 0.  1.
        -11    1    3    3    0    0 -0.40724943218E+01 -0.29775608311E+01  0.49165601604E+01  0.70444050548E+01  0.51100000000E-03 0. -1.
        -12    1    3    3    0    0  0.27659719968E+02  0.17678191058E+01  0.20318839223E+02  0.34366270099E+02  0.00000000000E+00 0.  1.
</event>
<event>
 7    1  0.5408841E-013  0.5052887E+02  0.7816164E-02  0.1300439E+00
        -11   -1    0    0    0    0  0.00000000000E+00  0.00000000000E+00  0.45593999997E+02  0.45594000000E+02  0.51100000000E-03 0. -1.
         11   -1    0    0    0    0 -0.00000000000E+00 -0.00000000000E+00 -0.45593999997E+02  0.45594000000E+02  0.51100000000E-03 0.  1.
    9900012    2    1    2    0    0  0.28813931953E+01  0.38675903174E+02 -0.12208060459E+02  0.50528872449E+02  0.30000038295E+02 0.  0.
         12    1    1    2    0    0 -0.28813931953E+01 -0.38675903174E+02  0.12208060459E+02  0.40659127551E+02  0.00000000000E+00 0. -1.
         11    1    3    3    0    0  0.41327593610E+01  0.24398062915E+01 -0.11256271597E+01  0.49294412908E+01  0.51100000000E-03 0. -1.
        -11    1    3    3    0    0  0.84397480703E+01  0.21631455431E+01 -0.10097208380E+01  0.87708655538E+01  0.51100000000E-03 0.  1.
        -12    1    3    3    0    0 -0.96911142360E+01  0.34072951340E+02 -0.10072712461E+02  0.36828565604E+02  0.00000000000E+00 0.  1.
</event>
<event>
 7    1  0.5408841E-013  0.5052885E+02  0.7816164E-02  0.1300439E+00
        -11   -1    0    0    0    0  0.00000000000E+00  0.00000000000E+00  0.45593999997E+02  0.45594000000E+02  0.51100000000E-03 0. -1.
         11   -1    0    0    0    0 -0.00000000000E+00 -0.00000000000E+00 -0.45593999997E+02  0.45594000000E+02  0.51100000000E-03 0.  1.
    9900012    2    1    2    0    0 -0.29802554000E+02 -0.19978577181E+02 -0.19126700731E+02  0.50528850329E+02  0.29999971060E+02 0.  0.
         12    1    1    2    0    0  0.29802554000E+02  0.19978577181E+02  0.19126700731E+02  0.40659149671E+02  0.00000000000E+00 0. -1.
         11    1    3    3    0    0 -0.37732479024E+01 -0.60586920365E+01  0.17677513551E+01  0.73532369771E+01  0.51100000000E-03 0. -1.
        -11    1    3    3    0    0  0.86296439488E-01 -0.10964755604E+02 -0.29608102290E+01  0.11357803925E+02  0.51100000000E-03 0.  1.
        -12    1    3    3    0    0 -0.26115602537E+02 -0.29551295414E+01 -0.17933641858E+02  0.31817809427E+02  0.00000000000E+00 0.  1.
</event>
<event>
 7    1  0.5408841E-013  0.5052885E+02  0.7816164E-02  0.1300439E+00
        -11   -1    0    0    0    0  0.00000000000E+00  0.00000000000E+00  0.45593999997E+02  0.45594000000E+02  0.51100000000E-03 0.  1.
         11   -1    0    0    0    0 -0.00000000000E+00 -0.00000000000E+00 -0.45593999997E+02  0.45594000000E+02  0.51100000000E-03 0. -1.
    9900012    2    1    2    0    0  0.10349625054E+02  0.95310737792E+01  0.38147219397E+02  0.50528850306E+02  0.29999970989E+02 0.  0.
         12    1    1    2    0    0 -0.10349625054E+02 -0.95310737792E+01 -0.38147219397E+02  0.40659149694E+02  0.00000000000E+00 0. -1.
         11    1    3    3    0    0 -0.37169414773E+01 -0.18234268822E+01  0.18085947483E+02  0.18553760702E+02  0.51100000000E-03 0. -1.
        -11    1    3    3    0    0 -0.37244377678E+01  0.42971448340E+01  0.56535783403E+01  0.80187180223E+01  0.51100000000E-03 0.  1.
        -12    1    3    3    0    0  0.17791004299E+02  0.70573558273E+01  0.14407693573E+02  0.23956371582E+02  0.00000000000E+00 0.  1.
</event>
<event>
 7    1  0.5408841E-013  0.5052886E+02  0.7816164E-02  0.1300439E+00
        -11   -1    0    0    0    0  0.00000000000E+00  0.00000000000E+00  0.45593999997E+02  0.45594000000E+02  0.51100000000E-03 0. -1.
         11   -1    0    0    0    0 -0.00000000000E+00 -0.00000000000E+00 -0.45593999997E+02  0.45594000000E+02  0.51100000000E-03 0.  1.
    9900012    2    1    2    0    0  0.40323899095E+02 -0.14546366551E+01 -0.50032873603E+01  0.50528859694E+02  0.29999999527E+02 0.  0.
         12    1    1    2    0    0 -0.40323899095E+02  0.14546366551E+01  0.50032873603E+01  0.40659140306E+02  0.00000000000E+00 0. -1.
         11    1    3    3    0    0  0.61572728262E+01  0.49017950689E-03  0.83415565321E+01  0.10367910809E+02  0.51100000000E-03 0. -1.
        -11    1    3    3    0    0  0.11138495468E+02 -0.74611463040E+01 -0.85009131431E+01  0.15874517630E+02  0.51100000000E-03 0.  1.
         12    1    3    3    0    0  0.23028130800E+02  0.60060194693E+01 -0.48439307492E+01  0.24286431256E+02  0.00000000000E+00 0. -1.
</event>
<event>
 7    1  0.5408841E-013  0.5052886E+02  0.7816164E-02  0.1300439E+00
        -11   -1    0    0    0    0  0.00000000000E+00  0.00000000000E+00  0.45593999997E+02  0.45594000000E+02  0.51100000000E-03 0.  1.
         11   -1    0    0    0    0 -0.00000000000E+00 -0.00000000000E+00 -0.45593999997E+02  0.45594000000E+02  0.51100000000E-03 0. -1.
    9900012    2    1    2    0    0  0.34989146408E+00 -0.39206185640E+02  0.10766546966E+02  0.50528856502E+02  0.29999989823E+02 0.  0.
         12    1    1    2    0    0 -0.34989146408E+00  0.39206185640E+02 -0.10766546966E+02  0.40659143498E+02  0.00000000000E+00 0. -1.
         11    1    3    3    0    0  0.42383121960E+01 -0.33781286720E+00  0.23969113641E+01  0.48808392877E+01  0.51100000000E-03 0. -1.
        -11    1    3    3    0    0 -0.10671963744E+02 -0.14671795290E+02 -0.24140789157E+01  0.18302463344E+02  0.51100000000E-03 0.  1.
         12    1    3    3    0    0  0.67835430122E+01 -0.24196577483E+02  0.10783714517E+02  0.27345553870E+02  0.00000000000E+00 0. -1.
</event>
<event>
 7    1  0.5408841E-013  0.5052886E+02  0.7816164E-02  0.1300439E+00
        -11   -1    0    0    0    0  0.00000000000E+00  0.00000000000E+00  0.45593999997E+02  0.45594000000E+02  0.51100000000E-03 0.  1.
         11   -1    0    0    0    0 -0.00000000000E+00 -0.00000000000E+00 -0.45593999997E+02  0.45594000000E+02  0.51100000000E-03 0. -1.
    9900012    2    1    2    0    0 -0.18188808913E+02  0.35533794577E+02 -0.77254461547E+01  0.50528857793E+02  0.29999993748E+02 0.  0.
         12    1    1    2    0    0  0.18188808913E+02 -0.35533794577E+02  0.77254461547E+01  0.40659142207E+02  0.00000000000E+00 0. -1.
         11    1    3    3    0    0 -0.22487430551E+01  0.30336710033E+01 -0.70944323597E+01  0.80368511154E+01  0.51100000000E-03 0. -1.
        -11    1    3    3    0    0 -0.29555778814E+00 -0.33498892044E+01  0.19311933058E+00  0.33684428784E+01  0.51100000000E-03 0.  1.
        -12    1    3    3    0    0 -0.15644508070E+02  0.35850012778E+02 -0.82413312566E+00  0.39123563799E+02  0.00000000000E+00 0.  1.
</event>
<event>
 7    1  0.5408841E-013  0.5052871E+02  0.7816164E-02  0.1300439E+00
        -11   -1    0    0    0    0  0.00000000000E+00  0.00000000000E+00  0.45593999997E+02  0.45594000000E+02  0.51100000000E-03 0.  1.
         11   -1    0    0    0    0 -0.00000000000E+00 -0.00000000000E+00 -0.45593999997E+02  0.45594000000E+02  0.51100000000E-03 0. -1.
    9900012    2    1    2    0    0  0.19560633785E+02 -0.26269042597E+02  0.24093496561E+02  0.50528713612E+02  0.29999555491E+02 0.  0.
         12    1    1    2    0    0 -0.19560633785E+02  0.26269042597E+02 -0.24093496561E+02  0.40659286388E+02  0.00000000000E+00 0. -1.
         11    1    3    3    0    0  0.43803633143E+01 -0.17088994197E+01  0.54734679807E+01  0.72157308700E+01  0.51100000000E-03 0. -1.
        -11    1    3    3    0    0  0.33310833222E+01 -0.37549062850E+01  0.18708272341E+02  0.19369948155E+02  0.51100000000E-03 0.  1.
         12    1    3    3    0    0  0.11849187149E+02 -0.20805236893E+02 -0.88243760197E-01  0.23943034586E+02  0.00000000000E+00 0. -1.
</event>
<event>
 7    1  0.5408841E-013  0.5052886E+02  0.7816164E-02  0.1300439E+00
        -11   -1    0    0    0    0  0.00000000000E+00  0.00000000000E+00  0.45593999997E+02  0.45594000000E+02  0.51100000000E-03 0. -1.
         11   -1    0    0    0    0 -0.00000000000E+00 -0.00000000000E+00 -0.45593999997E+02  0.45594000000E+02  0.51100000000E-03 0.  1.
    9900012    2    1    2    0    0  0.88207612044E+01  0.37476744101E+02 -0.13071102078E+02  0.50528857287E+02  0.29999992210E+02 0.  0.
         12    1    1    2    0    0 -0.88207612044E+01 -0.37476744101E+02  0.13071102078E+02  0.40659142713E+02  0.00000000000E+00 0. -1.
         11    1    3    3    0    0  0.13480586423E+02  0.16128478558E+02  0.66241748633E+00  0.21030759095E+02  0.51100000000E-03 0. -1.
        -11    1    3    3    0    0  0.51578197949E+01  0.82293945895E+01 -0.47536479188E+01  0.10813103585E+02  0.51100000000E-03 0.  1.
        -12    1    3    3    0    0 -0.98176450137E+01  0.13118870953E+02 -0.89798716453E+01  0.18684994607E+02  0.00000000000E+00 0.  1.
</event>
<event>
 7    1  0.5408841E-013  0.5052886E+02  0.7816164E-02  0.1300439E+00
        -11   -1    0    0    0    0  0.00000000000E+00  0.00000000000E+00  0.45593999997E+02  0.45594000000E+02  0.51100000000E-03 0.  1.
         11   -1    0    0    0    0 -0.00000000000E+00 -0.00000000000E+00 -0.45593999997E+02  0.45594000000E+02  0.51100000000E-03 0. -1.
    9900012    2    1    2    0    0  0.56970209233E+01 -0.11273877605E+02  0.38647239393E+02  0.50528862327E+02  0.30000007528E+02 0.  0.
         12    1    1    2    0    0 -0.56970209233E+01  0.11273877605E+02 -0.38647239393E+02  0.40659137673E+02  0.00000000000E+00 0. -1.
         11    1    3    3    0    0  0.10103685990E+01 -0.86478230060E+00  0.77391487561E+01  0.78525866353E+01  0.51100000000E-03 0. -1.
        -11    1    3    3    0    0  0.12045303785E+02  0.25914872194E+01  0.22186283159E+02  0.25377870477E+02  0.51100000000E-03 0.  1.
         12    1    3    3    0    0 -0.73586514606E+01 -0.13000582524E+02  0.87218074778E+01  0.17298405214E+02  0.00000000000E+00 0. -1.
</event>
<event>
 7    1  0.5408841E-013  0.5052883E+02  0.7816164E-02  0.1300439E+00
        -11   -1    0    0    0    0  0.00000000000E+00  0.00000000000E+00  0.45593999997E+02  0.45594000000E+02  0.51100000000E-03 0.  1.
         11   -1    0    0    0    0 -0.00000000000E+00 -0.00000000000E+00 -0.45593999997E+02  0.45594000000E+02  0.51100000000E-03 0. -1.
    9900012    2    1    2    0    0 -0.63700163362E+01 -0.12315467527E+02  0.38221991474E+02  0.50528825381E+02  0.29999895227E+02 0.  0.
         12    1    1    2    0    0  0.63700163362E+01  0.12315467527E+02 -0.38221991474E+02  0.40659174619E+02  0.00000000000E+00 0. -1.
         11    1    3    3    0    0 -0.84215052993E+01 -0.56120575561E+01  0.13607647091E+02  0.16958331319E+02  0.51100000000E-03 0.  1.
        -11    1    3    3    0    0 -0.98331001970E+01 -0.21458118976E+01  0.11793959262E+02  0.15504574922E+02  0.51100000000E-03 0. -1.
         12    1    3    3    0    0  0.11884589160E+02 -0.45575980732E+01  0.12820385121E+02  0.18065919139E+02  0.00000000000E+00 0. -1.
</event>
<event>
 7    1  0.5408841E-013  0.5052887E+02  0.7816164E-02  0.1300439E+00
        -11   -1    0    0    0    0  0.00000000000E+00  0.00000000000E+00  0.45593999997E+02  0.45594000000E+02  0.51100000000E-03 0.  1.
         11   -1    0    0    0    0 -0.00000000000E+00 -0.00000000000E+00 -0.45593999997E+02  0.45594000000E+02  0.51100000000E-03 0. -1.
    9900012    2    1    2    0    0 -0.27111444513E+01  0.39487470714E+02  0.93034455279E+01  0.50528871304E+02  0.30000034817E+02 0.  0.
         12    1    1    2    0    0  0.27111444513E+01 -0.39487470714E+02 -0.93034455279E+01  0.40659128696E+02  0.00000000000E+00 0. -1.
         11    1    3    3    0    0  0.30131005831E+01  0.79323874974E+00 -0.42049689176E+01  0.52335233541E+01  0.51100000000E-03 0. -1.
        -11    1    3    3    0    0 -0.71537571256E+01  0.62414262275E+01  0.78566216460E+01  0.12323073736E+02  0.51100000000E-03 0.  1.
        -12    1    3    3    0    0  0.14295120912E+01  0.32452805736E+02  0.56517927996E+01  0.32972274214E+02  0.00000000000E+00 0.  1.
</event>
<event>
 7    1  0.5408841E-013  0.5052886E+02  0.7816164E-02  0.1300439E+00
        -11   -1    0    0    0    0  0.00000000000E+00  0.00000000000E+00  0.45593999997E+02  0.45594000000E+02  0.51100000000E-03 0. -1.
         11   -1    0    0    0    0 -0.00000000000E+00 -0.00000000000E+00 -0.45593999997E+02  0.45594000000E+02  0.51100000000E-03 0.  1.
    9900012    2    1    2    0    0 -0.20308611316E+02  0.98702045306E+01 -0.33812792940E+02  0.50528860837E+02  0.30000002999E+02 0.  0.
         12    1    1    2    0    0  0.20308611316E+02 -0.98702045306E+01  0.33812792940E+02  0.40659139163E+02  0.00000000000E+00 0. -1.
         11    1    3    3    0    0 -0.10215758870E+02 -0.59559981371E+01 -0.18411775924E+02  0.21882164793E+02  0.51100000000E-03 0. -1.
        -11    1    3    3    0    0 -0.63728848044E+01 -0.12111607182E+01 -0.24889776429E+01  0.69480631102E+01  0.51100000000E-03 0.  1.
         12    1    3    3    0    0 -0.37199676418E+01  0.17037363386E+02 -0.12912039374E+02  0.21698632934E+02  0.00000000000E+00 0. -1.
</event>
<event>
 7    1  0.5408841E-013  0.5052886E+02  0.7816164E-02  0.1300439E+00
        -11   -1    0    0    0    0  0.00000000000E+00  0.00000000000E+00  0.45593999997E+02  0.45594000000E+02  0.51100000000E-03 0. -1.
         11   -1    0    0    0    0 -0.00000000000E+00 -0.00000000000E+00 -0.45593999997E+02  0.45594000000E+02  0.51100000000E-03 0.  1.
    9900012    2    1    2    0    0 -0.17333457120E+02  0.26525209498E+02 -0.25478030307E+02  0.50528861999E+02  0.30000006532E+02 0.  0.
         12    1    1    2    0    0  0.17333457120E+02 -0.26525209498E+02  0.25478030307E+02  0.40659138001E+02  0.00000000000E+00 0. -1.
         11    1    3    3    0    0 -0.11635108971E+02  0.19870891951E+02 -0.27985132407E+02  0.36240802195E+02  0.51100000000E-03 0. -1.
        -11    1    3    3    0    0 -0.34271219694E+01  0.44621784299E+01 -0.41026009865E+01  0.69632992503E+01  0.51100000000E-03 0.  1.
         12    1    3    3    0    0 -0.22712261803E+01  0.21921391172E+01  0.66097030865E+01  0.73247605533E+01  0.00000000000E+00 0. -1.
</event>
<event>
 7    1  0.5408841E-013  0.5052887E+02  0.7816164E-02  0.1300439E+00
        -11   -1    0    0    0    0  0.00000000000E+00  0.00000000000E+00  0.45593999997E+02  0.45594000000E+02  0.51100000000E-03 0.  1.
         11   -1    0    0    0    0 -0.00000000000E+00 -0.00000000000E+00 -0.45593999997E+02  0.45594000000E+02  0.51100000000E-03 0. -1.
    9900012    2    1    2    0    0  0.34279470151E+02 -0.93384804730E+01  0.19770579507E+02  0.50528866888E+02  0.30000021392E+02 0.  0.
         12    1    1    2    0    0 -0.34279470151E+02  0.93384804730E+01 -0.19770579507E+02  0.40659133112E+02  0.00000000000E+00 0. -1.
         11    1    3    3    0    0  0.15759594519E+02 -0.30684809089E+01  0.82818036218E+01  0.18065676461E+02  0.51100000000E-03 0. -1.
        -11    1    3    3    0    0  0.14138772206E+02 -0.12404031095E+02  0.15085689257E+02  0.24111053223E+02  0.51100000000E-03 0.  1.
         12    1    3    3    0    0  0.43811034257E+01  0.61340315311E+01 -0.35969133726E+01  0.83521372032E+01  0.00000000000E+00 0. -1.
</event>
<event>
 7    1  0.5408841E-013  0.5052885E+02  0.7816164E-02  0.1300439E+00
        -11   -1    0    0    0    0  0.00000000000E+00  0.00000000000E+00  0.45593999997E+02  0.45594000000E+02  0.51100000000E-03 0. -1.
         11   -1    0    0    0    0 -0.00000000000E+00 -0.00000000000E+00 -0.45593999997E+02  0.45594000000E+02  0.51100000000E-03 0.  1.
    9900012    2    1    2    0    0  0.67426754065E+01 -0.20132567158E+02 -0.34675391200E+02  0.50528847440E+02  0.29999962278E+02 0.  0.
         12    1    1    2    0    0 -0.67426754065E+01  0.20132567158E+02  0.34675391200E+02  0.40659152560E+02  0.00000000000E+00 0. -1.
         11    1    3    3    0    0 -0.83199806222E+01 -0.16864791374E+01 -0.96913889401E+01  0.12883683840E+02  0.51100000000E-03 0. -1.
        -11    1    3    3    0    0 -0.28208817813E+01 -0.66588713123E+00 -0.19722827173E+01  0.35058064798E+01  0.51100000000E-03 0.  1.
         12    1    3    3    0    0  0.17883537810E+02 -0.17780200890E+02 -0.23011719543E+02  0.34139357120E+02  0.00000000000E+00 0. -1.
</event>
<event>
 7    1  0.5408841E-013  0.5052877E+02  0.7816164E-02  0.1300439E+00
        -11   -1    0    0    0    0  0.00000000000E+00  0.00000000000E+00  0.45593999997E+02  0.45594000000E+02  0.51100000000E-03 0. -1.
         11   -1    0    0    0    0 -0.00000000000E+00 -0.00000000000E+00 -0.45593999997E+02  0.45594000000E+02  0.51100000000E-03 0.  1.
    9900012    2    1    2    0    0 -0.33480125878E+02 -0.22545435895E+02 -0.48946122413E+01  0.50528773034E+02  0.29999736113E+02 0.  0.
         12    1    1    2    0    0  0.33480125878E+02  0.22545435895E+02  0.48946122413E+01  0.40659226966E+02  0.00000000000E+00 0. -1.
         11    1    3    3    0    0 -0.19620935449E+02 -0.81515143871E+00  0.23698128162E+01  0.19780333485E+02  0.51100000000E-03 0. -1.
        -11    1    3    3    0    0 -0.50187580492E+01 -0.18024089920E+01  0.35565899369E+01  0.64098317272E+01  0.51100000000E-03 0.  1.
        -12    1    3    3    0    0 -0.88404323797E+01 -0.19927875464E+02 -0.10821014994E+02  0.24338607821E+02  0.00000000000E+00 0.  1.
</event>
<event>
 7    1  0.5408841E-013  0.5052888E+02  0.7816164E-02  0.1300439E+00
        -11   -1    0    0    0    0  0.00000000000E+00  0.00000000000E+00  0.45593999997E+02  0.45594000000E+02  0.51100000000E-03 0. -1.
         11   -1    0    0    0    0 -0.00000000000E+00 -0.00000000000E+00 -0.45593999997E+02  0.45594000000E+02  0.51100000000E-03 0.  1.
    9900012    2    1    2    0    0 -0.18482625053E+02  0.18723895312E+02 -0.30999558513E+02  0.50528876639E+02  0.30000051032E+02 0.  0.
         12    1    1    2    0    0  0.18482625053E+02 -0.18723895312E+02  0.30999558513E+02  0.40659123361E+02  0.00000000000E+00 0. -1.
         11    1    3    3    0    0 -0.92657304347E+01  0.11168426883E+02 -0.21623509646E+02  0.26041576166E+02  0.51100000000E-03 0. -1.
        -11    1    3    3    0    0 -0.36689872121E+01  0.27448039575E+01 -0.14712741235E+02  0.15409742724E+02  0.51100000000E-03 0.  1.
         12    1    3    3    0    0 -0.55479074062E+01  0.48106644714E+01  0.53366923684E+01  0.90775577486E+01  0.00000000000E+00 0. -1.
</event>
<event>
 7    1  0.5408841E-013  0.5052886E+02  0.7816164E-02  0.1300439E+00
        -11   -1    0    0    0    0  0.00000000000E+00  0.00000000000E+00  0.45593999997E+02  0.45594000000E+02  0.51100000000E-03 0. -1.
         11   -1    0    0    0    0 -0.00000000000E+00 -0.00000000000E+00 -0.45593999997E+02  0.45594000000E+02  0.51100000000E-03 0.  1.
    9900012    2    1    2    0    0  0.35643283459E+02  0.18958645622E+02 -0.48261441673E+01  0.50528861211E+02  0.30000004137E+02 0.  0.
         12    1    1    2    0    0 -0.35643283459E+02 -0.18958645622E+02  0.48261441673E+01  0.40659138789E+02  0.00000000000E+00 0. -1.
         11    1    3    3    0    0  0.13750665713E+01  0.48297888789E+01 -0.39281224083E+01  0.63755638657E+01  0.51100000000E-03 0.  1.
        -11    1    3    3    0    0  0.14819972252E+02  0.54703369738E+01 -0.12283819038E+02  0.20011206225E+02  0.51100000000E-03 0. -1.
         12    1    3    3    0    0  0.19448244635E+02  0.86585197691E+01  0.11385797279E+02  0.24142091120E+02  0.00000000000E+00 0. -1.
</event>
<event>
 7    1  0.5408841E-013  0.5052886E+02  0.7816164E-02  0.1300439E+00
        -11   -1    0    0    0    0  0.00000000000E+00  0.00000000000E+00  0.45593999997E+02  0.45594000000E+02  0.51100000000E-03 0.  1.
         11   -1    0    0    0    0 -0.00000000000E+00 -0.00000000000E+00 -0.45593999997E+02  0.45594000000E+02  0.51100000000E-03 0. -1.
    9900012    2    1    2    0    0 -0.46546966573E+01 -0.40356253372E+02 -0.16947522369E+01  0.50528861146E+02  0.30000003939E+02 0.  0.
         12    1    1    2    0    0  0.46546966573E+01  0.40356253372E+02  0.16947522369E+01  0.40659138854E+02  0.00000000000E+00 0. -1.
         11    1    3    3    0    0  0.43837696700E+01 -0.26378675236E+02 -0.85972206625E+01  0.28088505605E+02  0.51100000000E-03 0. -1.
        -11    1    3    3    0    0  0.22963242620E+01 -0.40064715765E+01 -0.18677902920E+01  0.49813211546E+01  0.51100000000E-03 0.  1.
        -12    1    3    3    0    0 -0.11334790589E+02 -0.99711065599E+01  0.87702587176E+01  0.17459034386E+02  0.00000000000E+00 0.  1.
</event>
<event>
 7    1  0.5408841E-013  0.5052885E+02  0.7816164E-02  0.1300439E+00
        -11   -1    0    0    0    0  0.00000000000E+00  0.00000000000E+00  0.45593999997E+02  0.45594000000E+02  0.51100000000E-03 0.  1.
         11   -1    0    0    0    0 -0.00000000000E+00 -0.00000000000E+00 -0.45593999997E+02  0.45594000000E+02  0.51100000000E-03 0. -1.
    9900012    2    1    2    0    0  0.34160107351E+02  0.21839167672E+02 -0.30502478326E+01  0.50528853542E+02  0.29999980827E+02 0.  0.
         12    1    1    2    0    0 -0.34160107351E+02 -0.21839167672E+02  0.30502478326E+01  0.40659146458E+02  0.00000000000E+00 0. -1.
         11    1    3    3    0    0  0.21700712974E+02  0.73372510146E+01 -0.76350493253E+01  0.24146431921E+02  0.51100000000E-03 0. -1.
        -11    1    3    3    0    0  0.91409683223E+01  0.61204830482E+01 -0.59584692705E+01  0.12510834142E+02  0.51100000000E-03 0.  1.
        -12    1    3    3    0    0  0.33184260543E+01  0.83814336094E+01  0.10543270763E+02  0.13871587480E+02  0.00000000000E+00 0.  1.
</event>
<event>
 7    1  0.6178747E-013  0.5052894E+02  0.7816164E-02  0.1300439E+00
        -11   -1    0    0    0    0  0.00000000000E+00  0.00000000000E+00  0.45593999997E+02  0.45594000000E+02  0.51100000000E-03 0. -1.
         11   -1    0    0    0    0 -0.00000000000E+00 -0.00000000000E+00 -0.45593999997E+02  0.45594000000E+02  0.51100000000E-03 0.  1.
    9900012    2    1    2    0    0  0.29605100022E+02 -0.19652882745E+02 -0.19760097649E+02  0.50528939428E+02  0.30000241885E+02 0.  0.
         12    1    1    2    0    0 -0.29605100022E+02  0.19652882745E+02  0.19760097649E+02  0.40659060572E+02  0.00000000000E+00 0. -1.
         11    1    3    3    0    0 -0.23480935298E+00 -0.16925096391E+01  0.48451371875E+01  0.51376141289E+01  0.51100000000E-03 0. -1.
        -11    1    3    3    0    0  0.14847824507E+02 -0.44626672716E+01 -0.29251080681E+01  0.15777501362E+02  0.51100000000E-03 0.  1.
         12    1    3    3    0    0  0.14992084868E+02 -0.13497705834E+02 -0.21680126768E+02  0.29613823937E+02  0.00000000000E+00 0. -1.
</event>
<event>
 7    1  0.5408841E-013  0.5052887E+02  0.7816164E-02  0.1300439E+00
        -11   -1    0    0    0    0  0.00000000000E+00  0.00000000000E+00  0.45593999997E+02  0.45594000000E+02  0.51100000000E-03 0.  1.
         11   -1    0    0    0    0 -0.00000000000E+00 -0.00000000000E+00 -0.45593999997E+02  0.45594000000E+02  0.51100000000E-03 0. -1.
    9900012    2    1    2    0    0  0.13314630289E+02  0.32593842962E+01  0.38278743575E+02  0.50528866028E+02  0.30000018777E+02 0.  0.
         12    1    1    2    0    0 -0.13314630289E+02 -0.32593842962E+01 -0.38278743575E+02  0.40659133972E+02  0.00000000000E+00 0. -1.
         11    1    3    3    0    0  0.81086369125E+01  0.52440558867E+00  0.13897008741E+02  0.16098193874E+02  0.51100000000E-03 0. -1.
        -11    1    3    3    0    0  0.96770696070E+01 -0.32974919627E+01  0.24886894168E+02  0.26904955510E+02  0.51100000000E-03 0.  1.
         12    1    3    3    0    0 -0.44710762302E+01  0.60324706702E+01 -0.50515933394E+00  0.75257166433E+01  0.00000000000E+00 0. -1.
</event>
<event>
 7    1  0.5408841E-013  0.5052885E+02  0.7816164E-02  0.1300439E+00
        -11   -1    0    0    0    0  0.00000000000E+00  0.00000000000E+00  0.45593999997E+02  0.45594000000E+02  0.51100000000E-03 0.  1.
         11   -1    0    0    0    0 -0.00000000000E+00 -0.00000000000E+00 -0.45593999997E+02  0.45594000000E+02  0.51100000000E-03 0. -1.
    9900012    2    1    2    0    0 -0.75372113935E+01 -0.29428426995E+02  0.27024522240E+02  0.50528847607E+02  0.29999962787E+02 0.  0.
         12    1    1    2    0    0  0.75372113935E+01  0.29428426995E+02 -0.27024522240E+02  0.40659152393E+02  0.00000000000E+00 0. -1.
         11    1    3    3    0    0  0.38259658624E+01 -0.87271778621E+01  0.88384398697E+01  0.12996909933E+02  0.51100000000E-03 0.  1.
        -11    1    3    3    0    0  0.59169288108E+01 -0.80214866519E+01  0.92137861103E+00  0.10010156515E+02  0.51100000000E-03 0. -1.
        -12    1    3    3    0    0 -0.17280106067E+02 -0.12679762481E+02  0.17264703759E+02  0.27521781159E+02  0.00000000000E+00 0.  1.
</event>
<event>
 7    1  0.5408841E-013  0.5052886E+02  0.7816164E-02  0.1300439E+00
        -11   -1    0    0    0    0  0.00000000000E+00  0.00000000000E+00  0.45593999997E+02  0.45594000000E+02  0.51100000000E-03 0.  1.
         11   -1    0    0    0    0 -0.00000000000E+00 -0.00000000000E+00 -0.45593999997E+02  0.45594000000E+02  0.51100000000E-03 0. -1.
    9900012    2    1    2    0    0  0.47383375556E+01  0.27962248528E+02 -0.29134623477E+02  0.50528862396E+02  0.30000007740E+02 0.  0.
         12    1    1    2    0    0 -0.47383375556E+01 -0.27962248528E+02  0.29134623477E+02  0.40659137604E+02  0.00000000000E+00 0. -1.
         11    1    3    3    0    0  0.17585983433E+01  0.19844404995E+02 -0.17156385440E+02  0.26291341529E+02  0.51100000000E-03 0. -1.
        -11    1    3    3    0    0  0.45162279574E+01  0.12585728513E+02 -0.24386851969E+01  0.13592058818E+02  0.51100000000E-03 0.  1.
         12    1    3    3    0    0 -0.15364887451E+01 -0.44678849802E+01 -0.95395528404E+01  0.10645462050E+02  0.00000000000E+00 0. -1.
</event>
<event>
 7    1  0.5408841E-013  0.5052889E+02  0.7816164E-02  0.1300439E+00
        -11   -1    0    0    0    0  0.00000000000E+00  0.00000000000E+00  0.45593999997E+02  0.45594000000E+02  0.51100000000E-03 0.  1.
         11   -1    0    0    0    0 -0.00000000000E+00 -0.00000000000E+00 -0.45593999997E+02  0.45594000000E+02  0.51100000000E-03 0. -1.
    9900012    2    1    2    0    0  0.35632649547E+02 -0.13340603421E+02  0.14335476671E+02  0.50528889031E+02  0.30000088700E+02 0.  0.
         12    1    1    2    0    0 -0.35632649547E+02  0.13340603421E+02 -0.14335476671E+02  0.40659110969E+02  0.00000000000E+00 0. -1.
         11    1    3    3    0    0 -0.27829145035E+00 -0.34670203750E+01  0.22239195140E+01  0.41283767607E+01  0.51100000000E-03 0. -1.
        -11    1    3    3    0    0  0.12267961302E+02 -0.16145875699E+02  0.43650840290E+01  0.20742375357E+02  0.51100000000E-03 0.  1.
        -12    1    3    3    0    0  0.23642979695E+02  0.62722926531E+01  0.77464731275E+01  0.25658136914E+02  0.00000000000E+00 0.  1.
</event>
<event>
 7    1  0.5408841E-013  0.5052886E+02  0.7816164E-02  0.1300439E+00
        -11   -1    0    0    0    0  0.00000000000E+00  0.00000000000E+00  0.45593999997E+02  0.45594000000E+02  0.51100000000E-03 0. -1.
         11   -1    0    0    0    0 -0.00000000000E+00 -0.00000000000E+00 -0.45593999997E+02  0.45594000000E+02  0.51100000000E-03 0.  1.
    9900012    2    1    2    0    0  0.36621303609E+02  0.14965363635E+02 -0.93853011070E+01  0.50528857564E+02  0.29999993053E+02 0.  0.
         12    1    1    2    0    0 -0.36621303609E+02 -0.14965363635E+02  0.93853011070E+01  0.40659142436E+02  0.00000000000E+00 0. -1.
         11    1    3    3    0    0  0.43106617749E+01 -0.13673404409E+01 -0.75189714221E+01  0.87741869325E+01  0.51100000000E-03 0.  1.
        -11    1    3    3    0    0 -0.18061337588E+01 -0.17653477620E+01 -0.18569966380E+01  0.31348059988E+01  0.51100000000E-03 0. -1.
        -12    1    3    3    0    0  0.34116775593E+02  0.18098051838E+02 -0.93330469715E-02  0.38619864633E+02  0.00000000000E+00 0.  1.
</event>
<event>
 7    1  0.5408841E-013  0.5052886E+02  0.7816164E-02  0.1300439E+00
        -11   -1    0    0    0    0  0.00000000000E+00  0.00000000000E+00  0.45593999997E+02  0.45594000000E+02  0.51100000000E-03 0.  1.
         11   -1    0    0    0    0 -0.00000000000E+00 -0.00000000000E+00 -0.45593999997E+02  0.45594000000E+02  0.51100000000E-03 0. -1.
    9900012    2    1    2    0    0 -0.37061608968E+02 -0.12082376058E+02  0.11559352177E+02  0.50528864578E+02  0.30000014373E+02 0.  0.
         12    1    1    2    0    0  0.37061608968E+02  0.12082376058E+02 -0.11559352177E+02  0.40659135422E+02  0.00000000000E+00 0. -1.
         11    1    3    3    0    0 -0.13182429077E+02 -0.12317493365E+02  0.12446443840E+02  0.21918281038E+02  0.51100000000E-03 0. -1.
        -11    1    3    3    0    0 -0.40190973397E+01  0.60047499493E+01  0.25162132200E+01  0.76512413770E+01  0.51100000000E-03 0.  1.
        -12    1    3    3    0    0 -0.19860082551E+02 -0.57696326427E+01 -0.34033048832E+01  0.20959342163E+02  0.00000000000E+00 0.  1.
</event>
<event>
 7    1  0.5408841E-013  0.5052885E+02  0.7816164E-02  0.1300439E+00
        -11   -1    0    0    0    0  0.00000000000E+00  0.00000000000E+00  0.45593999997E+02  0.45594000000E+02  0.51100000000E-03 0.  1.
         11   -1    0    0    0    0 -0.00000000000E+00 -0.00000000000E+00 -0.45593999997E+02  0.45594000000E+02  0.51100000000E-03 0. -1.
    9900012    2    1    2    0    0  0.32315135486E+02  0.22713083123E+02  0.96444089799E+01  0.50528846651E+02  0.29999959882E+02 0.  0.
         12    1    1    2    0    0 -0.32315135486E+02 -0.22713083123E+02 -0.96444089799E+01  0.40659153349E+02  0.00000000000E+00 0. -1.
         11    1    3    3    0    0 -0.19187627933E+01  0.20360018931E+01  0.35759069730E+01  0.45402715014E+01  0.51100000000E-03 0. -1.
        -11    1    3    3    0    0  0.20699487958E+02  0.15246140361E+00  0.54058422483E+01  0.21394279069E+02  0.51100000000E-03 0.  1.
         12    1    3    3    0    0  0.13534410321E+02  0.20524619826E+02  0.66265975864E+00  0.24594296081E+02  0.00000000000E+00 0. -1.
</event>
<event>
 7    1  0.5408841E-013  0.5052888E+02  0.7816164E-02  0.1300439E+00
        -11   -1    0    0    0    0  0.00000000000E+00  0.00000000000E+00  0.45593999997E+02  0.45594000000E+02  0.51100000000E-03 0. -1.
         11   -1    0    0    0    0 -0.00000000000E+00 -0.00000000000E+00 -0.45593999997E+02  0.45594000000E+02  0.51100000000E-03 0.  1.
    9900012    2    1    2    0    0  0.36774025830E+02 -0.29697087301E+01 -0.17088468705E+02  0.50528881608E+02  0.30000066136E+02 0.  0.
         12    1    1    2    0    0 -0.36774025830E+02  0.29697087301E+01  0.17088468705E+02  0.40659118392E+02  0.00000000000E+00 0. -1.
         11    1    3    3    0    0  0.26303799738E+02  0.42747478718E+01 -0.28653477746E+01  0.26802491827E+02  0.51100000000E-03 0. -1.
        -11    1    3    3    0    0  0.32170267506E+01  0.41295327796E+01 -0.58455726530E+01  0.78468479018E+01  0.51100000000E-03 0.  1.
        -12    1    3    3    0    0  0.72531993420E+01 -0.11373989382E+02 -0.83775482776E+01  0.15879541879E+02  0.00000000000E+00 0.  1.
</event>
<event>
 7    1  0.5408841E-013  0.5052887E+02  0.7816164E-02  0.1300439E+00
        -11   -1    0    0    0    0  0.00000000000E+00  0.00000000000E+00  0.45593999997E+02  0.45594000000E+02  0.51100000000E-03 0. -1.
         11   -1    0    0    0    0 -0.00000000000E+00 -0.00000000000E+00 -0.45593999997E+02  0.45594000000E+02  0.51100000000E-03 0.  1.
    9900012    2    1    2    0    0 -0.19880580749E+02  0.47740461507E+01 -0.35144498608E+02  0.50528870767E+02  0.30000033184E+02 0.  0.
         12    1    1    2    0    0  0.19880580749E+02 -0.47740461507E+01  0.35144498608E+02  0.40659129233E+02  0.00000000000E+00 0. -1.
         11    1    3    3    0    0  0.35049585272E+01  0.34423335575E+01 -0.24646226395E+01  0.54962495954E+01  0.51100000000E-03 0. -1.
        -11    1    3    3    0    0 -0.19283424420E+02  0.97122225277E+01 -0.24095345351E+02  0.32353722995E+02  0.51100000000E-03 0.  1.
         12    1    3    3    0    0 -0.41021148563E+01 -0.83805099346E+01 -0.85845306177E+01  0.12678898177E+02  0.00000000000E+00 0. -1.
</event>
<event>
 7    1  0.5408841E-013  0.5052886E+02  0.7816164E-02  0.1300439E+00
        -11   -1    0    0    0    0  0.00000000000E+00  0.00000000000E+00  0.45593999997E+02  0.45594000000E+02  0.51100000000E-03 0. -1.
         11   -1    0    0    0    0 -0.00000000000E+00 -0.00000000000E+00 -0.45593999997E+02  0.45594000000E+02  0.51100000000E-03 0.  1.
    9900012    2    1    2    0    0  0.12331762419E+02  0.94392853216E+01 -0.37576498211E+02  0.50528859704E+02  0.29999999557E+02 0.  0.
         12    1    1    2    0    0 -0.12331762419E+02 -0.94392853216E+01  0.37576498211E+02  0.40659140296E+02  0.00000000000E+00 0. -1.
         11    1    3    3    0    0 -0.28071065785E+01 -0.10872910363E+01 -0.79556026927E+00  0.31136739623E+01  0.51100000000E-03 0. -1.
        -11    1    3    3    0    0  0.10977738248E+02  0.81973361662E+01 -0.39581062148E+02  0.41885170863E+02  0.51100000000E-03 0.  1.
         12    1    3    3    0    0  0.41611307501E+01  0.23292401917E+01  0.28001242056E+01  0.55300148785E+01  0.00000000000E+00 0. -1.
</event>
<event>
 7    1  0.5408841E-013  0.5052885E+02  0.7816164E-02  0.1300439E+00
        -11   -1    0    0    0    0  0.00000000000E+00  0.00000000000E+00  0.45593999997E+02  0.45594000000E+02  0.51100000000E-03 0.  1.
         11   -1    0    0    0    0 -0.00000000000E+00 -0.00000000000E+00 -0.45593999997E+02  0.45594000000E+02  0.51100000000E-03 0. -1.
    9900012    2    1    2    0    0 -0.21460280743E+02  0.20939357259E+02  0.27462082705E+02  0.50528851971E+02  0.29999976051E+02 0.  0.
         12    1    1    2    0    0  0.21460280743E+02 -0.20939357259E+02 -0.27462082705E+02  0.40659148029E+02  0.00000000000E+00 0. -1.
         11    1    3    3    0    0  0.26955601392E+01 -0.97101900865E+00  0.78372620448E+00  0.29703786634E+01  0.51100000000E-03 0. -1.
        -11    1    3    3    0    0  0.30101270197E+01  0.40452924020E+01  0.95725947030E+01  0.10819418880E+02  0.51100000000E-03 0.  1.
         12    1    3    3    0    0 -0.27165967902E+02  0.17865083865E+02  0.17105761797E+02  0.36739054427E+02  0.00000000000E+00 0. -1.
</event>
<event>
 7    1  0.5408841E-013  0.5052884E+02  0.7816164E-02  0.1300439E+00
        -11   -1    0    0    0    0  0.00000000000E+00  0.00000000000E+00  0.45593999997E+02  0.45594000000E+02  0.51100000000E-03 0.  1.
         11   -1    0    0    0    0 -0.00000000000E+00 -0.00000000000E+00 -0.45593999997E+02  0.45594000000E+02  0.51100000000E-03 0. -1.
    9900012    2    1    2    0    0 -0.22144146802E+02 -0.24146431727E+02 -0.24078073491E+02  0.50528843273E+02  0.29999949614E+02 0.  0.
         12    1    1    2    0    0  0.22144146802E+02  0.24146431727E+02  0.24078073491E+02  0.40659156727E+02  0.00000000000E+00 0. -1.
         11    1    3    3    0    0  0.16909257232E+01 -0.13481010937E+02 -0.13781047638E+02  0.19352368329E+02  0.51100000000E-03 0. -1.
        -11    1    3    3    0    0 -0.13254945957E+02 -0.11593931345E+02 -0.10594886866E+02  0.20551507593E+02  0.51100000000E-03 0.  1.
        -12    1    3    3    0    0 -0.10580126568E+02  0.92851055604E+00  0.29786101302E+00  0.10624967351E+02  0.00000000000E+00 0.  1.
</event>
<event>
 7    1  0.5408841E-013  0.5052900E+02  0.7816164E-02  0.1300438E+00
        -11   -1    0    0    0    0  0.00000000000E+00  0.00000000000E+00  0.45593999997E+02  0.45594000000E+02  0.51100000000E-03 0.  1.
         11   -1    0    0    0    0 -0.00000000000E+00 -0.00000000000E+00 -0.45593999997E+02  0.45594000000E+02  0.51100000000E-03 0. -1.
    9900012    2    1    2    0    0  0.13926948881E+02 -0.33499005508E+01  0.38052232918E+02  0.50529001378E+02  0.30000430187E+02 0.  0.
         12    1    1    2    0    0 -0.13926948881E+02  0.33499005508E+01 -0.38052232918E+02  0.40658998622E+02  0.00000000000E+00 0. -1.
         11    1    3    3    0    0  0.14458357489E+02 -0.30315263905E+01  0.69538513749E+01  0.16327593293E+02  0.51100000000E-03 0. -1.
        -11    1    3    3    0    0  0.63868112411E+01  0.21497764323E+01  0.17371617455E+02  0.18632927570E+02  0.51100000000E-03 0.  1.
        -12    1    3    3    0    0 -0.69182198494E+01 -0.24681505926E+01  0.13726764088E+02  0.15568480515E+02  0.00000000000E+00 0.  1.
</event>
<event>
 7    1  0.5408841E-013  0.5052886E+02  0.7816164E-02  0.1300439E+00
        -11   -1    0    0    0    0  0.00000000000E+00  0.00000000000E+00  0.45593999997E+02  0.45594000000E+02  0.51100000000E-03 0.  1.
         11   -1    0    0    0    0 -0.00000000000E+00 -0.00000000000E+00 -0.45593999997E+02  0.45594000000E+02  0.51100000000E-03 0. -1.
    9900012    2    1    2    0    0  0.20925885073E+02  0.14316915112E+02  0.31785200685E+02  0.50528859490E+02  0.29999998907E+02 0.  0.
         12    1    1    2    0    0 -0.20925885073E+02 -0.14316915112E+02 -0.31785200685E+02  0.40659140510E+02  0.00000000000E+00 0. -1.
         11    1    3    3    0    0  0.11799575701E+02  0.36852452908E+01  0.92141782784E+01  0.15417914943E+02  0.51100000000E-03 0. -1.
        -11    1    3    3    0    0  0.13468901777E+02 -0.36651947630E+00  0.17883601144E+02  0.22391267086E+02  0.51100000000E-03 0.  1.
         12    1    3    3    0    0 -0.43425924050E+01  0.10998189298E+02  0.46874212628E+01  0.12719677461E+02  0.00000000000E+00 0. -1.
</event>
<event>
 7    1  0.5408841E-013  0.5052886E+02  0.7816164E-02  0.1300439E+00
        -11   -1    0    0    0    0  0.00000000000E+00  0.00000000000E+00  0.45593999997E+02  0.45594000000E+02  0.51100000000E-03 0.  1.
         11   -1    0    0    0    0 -0.00000000000E+00 -0.00000000000E+00 -0.45593999997E+02  0.45594000000E+02  0.51100000000E-03 0. -1.
    9900012    2    1    2    0    0 -0.94102226260E+01  0.27462201490E+02  0.28468239830E+02  0.50528862287E+02  0.30000007406E+02 0.  0.
         12    1    1    2    0    0  0.94102226260E+01 -0.27462201490E+02 -0.28468239830E+02  0.40659137713E+02  0.00000000000E+00 0. -1.
         11    1    3    3    0    0  0.45692010756E+01  0.14538309736E+01  0.37608587723E+01  0.60938724909E+01  0.51100000000E-03 0. -1.
        -11    1    3    3    0    0  0.36972558974E+01  0.15185077840E+02  0.68010028372E+01  0.17044351851E+02  0.51100000000E-03 0.  1.
         12    1    3    3    0    0 -0.17676679599E+02  0.10823292677E+02  0.17906378221E+02  0.27390637944E+02  0.00000000000E+00 0. -1.
</event>
<event>
 7    1  0.5408841E-013  0.5052886E+02  0.7816164E-02  0.1300439E+00
        -11   -1    0    0    0    0  0.00000000000E+00  0.00000000000E+00  0.45593999997E+02  0.45594000000E+02  0.51100000000E-03 0.  1.
         11   -1    0    0    0    0 -0.00000000000E+00 -0.00000000000E+00 -0.45593999997E+02  0.45594000000E+02  0.51100000000E-03 0. -1.
    9900012    2    1    2    0    0  0.29533364721E+02 -0.25634687316E+01  0.27827589114E+02  0.50528859336E+02  0.29999998436E+02 0.  0.
         12    1    1    2    0    0 -0.29533364721E+02  0.25634687316E+01 -0.27827589114E+02  0.40659140664E+02  0.00000000000E+00 0. -1.
         11    1    3    3    0    0  0.49393204337E+01 -0.97414361486E+01  0.14176030670E+02  0.17895594720E+02  0.51100000000E-03 0.  1.
        -11    1    3    3    0    0  0.13464099794E+01  0.39043919694E+01 -0.18236697285E+01  0.45147389762E+01  0.51100000000E-03 0. -1.
        -12    1    3    3    0    0  0.23247634308E+02  0.32735754477E+01  0.15475228173E+02  0.28118525639E+02  0.00000000000E+00 0.  1.
</event>
<event>
 7    1  0.5408841E-013  0.5052886E+02  0.7816164E-02  0.1300439E+00
        -11   -1    0    0    0    0  0.00000000000E+00  0.00000000000E+00  0.45593999997E+02  0.45594000000E+02  0.51100000000E-03 0. -1.
         11   -1    0    0    0    0 -0.00000000000E+00 -0.00000000000E+00 -0.45593999997E+02  0.45594000000E+02  0.51100000000E-03 0.  1.
    9900012    2    1    2    0    0  0.62171235807E+01 -0.40050516537E+02  0.32356277900E+01  0.50528858497E+02  0.29999995889E+02 0.  0.
         12    1    1    2    0    0 -0.62171235807E+01  0.40050516537E+02 -0.32356277900E+01  0.40659141503E+02  0.00000000000E+00 0. -1.
         11    1    3    3    0    0  0.71330124494E+01 -0.14188337398E+02  0.29806136356E+01  0.16157748687E+02  0.51100000000E-03 0.  1.
        -11    1    3    3    0    0  0.96029184555E+01 -0.12421481681E+02 -0.50589866446E+01  0.16495532612E+02  0.51100000000E-03 0. -1.
        -12    1    3    3    0    0 -0.10518807324E+02 -0.13440697458E+02  0.53140007991E+01  0.17875577199E+02  0.00000000000E+00 0.  1.
</event>
<event>
 7    1  0.5408841E-013  0.5052886E+02  0.7816164E-02  0.1300439E+00
        -11   -1    0    0    0    0  0.00000000000E+00  0.00000000000E+00  0.45593999997E+02  0.45594000000E+02  0.51100000000E-03 0. -1.
         11   -1    0    0    0    0 -0.00000000000E+00 -0.00000000000E+00 -0.45593999997E+02  0.45594000000E+02  0.51100000000E-03 0.  1.
    9900012    2    1    2    0    0  0.11082741081E+01 -0.21781073926E+02 -0.34315043220E+02  0.50528860264E+02  0.30000001258E+02 0.  0.
         12    1    1    2    0    0 -0.11082741081E+01  0.21781073926E+02  0.34315043220E+02  0.40659139736E+02  0.00000000000E+00 0. -1.
         11    1    3    3    0    0 -0.59706966995E+01 -0.23066669293E+02 -0.24678808561E+02  0.34303994572E+02  0.51100000000E-03 0. -1.
        -11    1    3    3    0    0 -0.15708174512E+00  0.47532743533E+01 -0.52361497041E+01  0.70735815354E+01  0.51100000000E-03 0.  1.
        -12    1    3    3    0    0  0.72360525527E+01 -0.34676789867E+01 -0.44000849551E+01  0.91512841565E+01  0.00000000000E+00 0.  1.
</event>
<event>
 7    1  0.5408841E-013  0.5052886E+02  0.7816164E-02  0.1300439E+00
        -11   -1    0    0    0    0  0.00000000000E+00  0.00000000000E+00  0.45593999997E+02  0.45594000000E+02  0.51100000000E-03 0.  1.
         11   -1    0    0    0    0 -0.00000000000E+00 -0.00000000000E+00 -0.45593999997E+02  0.45594000000E+02  0.51100000000E-03 0. -1.
    9900012    2    1    2    0    0 -0.48999886623E+01  0.33071559353E+02  0.23139312243E+02  0.50528859601E+02  0.29999999242E+02 0.  0.
         12    1    1    2    0    0  0.48999886623E+01 -0.33071559353E+02 -0.23139312243E+02  0.40659140399E+02  0.00000000000E+00 0. -1.
         11    1    3    3    0    0 -0.56130092264E-01  0.47670484429E+01  0.71617559005E+00  0.48208722428E+01  0.51100000000E-03 0. -1.
        -11    1    3    3    0    0 -0.89130879827E+01  0.29509333309E+02  0.97315128840E+01  0.32325628114E+02  0.51100000000E-03 0.  1.
        -12    1    3    3    0    0  0.40692294127E+01 -0.12048223986E+01  0.12691623769E+02  0.13382359244E+02  0.00000000000E+00 0.  1.
</event>
<event>
 7    1  0.5408841E-013  0.5052886E+02  0.7816164E-02  0.1300439E+00
        -11   -1    0    0    0    0  0.00000000000E+00  0.00000000000E+00  0.45593999997E+02  0.45594000000E+02  0.51100000000E-03 0.  1.
         11   -1    0    0    0    0 -0.00000000000E+00 -0.00000000000E+00 -0.45593999997E+02  0.45594000000E+02  0.51100000000E-03 0. -1.
    9900012    2    1    2    0    0  0.26692892617E+02 -0.14904313308E+01  0.30633863833E+02  0.50528861850E+02  0.30000006078E+02 0.  0.
         12    1    1    2    0    0 -0.26692892617E+02  0.14904313308E+01 -0.30633863833E+02  0.40659138150E+02  0.00000000000E+00 0. -1.
         11    1    3    3    0    0  0.60981837723E+01 -0.31121697182E+01  0.37665278031E+01  0.78141012041E+01  0.51100000000E-03 0. -1.
        -11    1    3    3    0    0  0.15963902679E+02 -0.27887166108E+01  0.11858013411E+01  0.16248977019E+02  0.51100000000E-03 0.  1.
         12    1    3    3    0    0  0.46308061659E+01  0.44104549982E+01  0.25681534688E+02  0.26465783627E+02  0.00000000000E+00 0. -1.
</event>
<event>
 7    1  0.5408841E-013  0.5052887E+02  0.7816164E-02  0.1300439E+00
        -11   -1    0    0    0    0  0.00000000000E+00  0.00000000000E+00  0.45593999997E+02  0.45594000000E+02  0.51100000000E-03 0.  1.
         11   -1    0    0    0    0 -0.00000000000E+00 -0.00000000000E+00 -0.45593999997E+02  0.45594000000E+02  0.51100000000E-03 0. -1.
    9900012    2    1    2    0    0 -0.36769418883E+02  0.16324365830E+02  0.58897726583E+01  0.50528874250E+02  0.30000043771E+02 0.  0.
         12    1    1    2    0    0  0.36769418883E+02 -0.16324365830E+02 -0.58897726583E+01  0.40659125750E+02  0.00000000000E+00 0. -1.
         11    1    3    3    0    0 -0.30498015854E+01  0.76126718240E+01  0.46191257511E+01  0.94122465425E+01  0.51100000000E-03 0. -1.
        -11    1    3    3    0    0 -0.21180349895E+02  0.82934115387E+01 -0.94333455764E+01  0.24624701128E+02  0.51100000000E-03 0.  1.
         12    1    3    3    0    0 -0.12539267403E+02  0.41828246696E+00  0.10703992484E+02  0.16491926580E+02  0.00000000000E+00 0. -1.
</event>
<event>
 7    1  0.5408841E-013  0.5052887E+02  0.7816164E-02  0.1300439E+00
        -11   -1    0    0    0    0  0.00000000000E+00  0.00000000000E+00  0.45593999997E+02  0.45594000000E+02  0.51100000000E-03 0.  1.
         11   -1    0    0    0    0 -0.00000000000E+00 -0.00000000000E+00 -0.45593999997E+02  0.45594000000E+02  0.51100000000E-03 0. -1.
    9900012    2    1    2    0    0  0.17151176796E+02  0.29767175333E+02  0.21746670130E+02  0.50528865054E+02  0.30000015820E+02 0.  0.
         12    1    1    2    0    0 -0.17151176796E+02 -0.29767175333E+02 -0.21746670130E+02  0.40659134946E+02  0.00000000000E+00 0. -1.
         11    1    3    3    0    0  0.65811051517E+01 -0.10325243589E+01  0.19238878407E+00  0.66643878395E+01  0.51100000000E-03 0. -1.
        -11    1    3    3    0    0  0.67609897118E+01  0.92183174627E+01  0.18486753187E+02  0.21735878229E+02  0.51100000000E-03 0.  1.
         12    1    3    3    0    0  0.38090819329E+01  0.21581382229E+02  0.30675281586E+01  0.22128598986E+02  0.00000000000E+00 0. -1.
</event>
<event>
 7    1  0.5408841E-013  0.5052884E+02  0.7816164E-02  0.1300439E+00
        -11   -1    0    0    0    0  0.00000000000E+00  0.00000000000E+00  0.45593999997E+02  0.45594000000E+02  0.51100000000E-03 0.  1.
         11   -1    0    0    0    0 -0.00000000000E+00 -0.00000000000E+00 -0.45593999997E+02  0.45594000000E+02  0.51100000000E-03 0. -1.
    9900012    2    1    2    0    0  0.19305547465E+02 -0.92904346267E+01  0.34556494240E+02  0.50528835810E+02  0.29999926929E+02 0.  0.
         12    1    1    2    0    0 -0.19305547465E+02  0.92904346267E+01 -0.34556494240E+02  0.40659164190E+02  0.00000000000E+00 0. -1.
         11    1    3    3    0    0  0.17412966164E+02 -0.28631929981E+01  0.18903033922E+02  0.25859890884E+02  0.51100000000E-03 0. -1.
        -11    1    3    3    0    0  0.76482532549E+01 -0.87699694700E+01  0.14065566117E+02  0.18255089505E+02  0.51100000000E-03 0.  1.
        -12    1    3    3    0    0 -0.57556719544E+01  0.23427278414E+01  0.15878941998E+01  0.64138554220E+01  0.00000000000E+00 0.  1.
</event>
<event>
 7    1  0.5408841E-013  0.5052886E+02  0.7816164E-02  0.1300439E+00
        -11   -1    0    0    0    0  0.00000000000E+00  0.00000000000E+00  0.45593999997E+02  0.45594000000E+02  0.51100000000E-03 0.  1.
         11   -1    0    0    0    0 -0.00000000000E+00 -0.00000000000E+00 -0.45593999997E+02  0.45594000000E+02  0.51100000000E-03 0. -1.
    9900012    2    1    2    0    0  0.56936459511E+01 -0.10337555216E+02  0.38908654341E+02  0.50528855460E+02  0.29999986657E+02 0.  0.
         12    1    1    2    0    0 -0.56936459511E+01  0.10337555216E+02 -0.38908654341E+02  0.40659144540E+02  0.00000000000E+00 0. -1.
         11    1    3    3    0    0 -0.41787615550E+01 -0.87963253594E+01  0.11046486938E+02  0.14726243985E+02  0.51100000000E-03 0. -1.
        -11    1    3    3    0    0  0.13072129741E+01 -0.77613118494E+01  0.22699536052E+02  0.24025313830E+02  0.51100000000E-03 0.  1.
         12    1    3    3    0    0  0.85651945320E+01  0.62200819927E+01  0.51626313509E+01  0.11777297646E+02  0.00000000000E+00 0. -1.
</event>
<event>
 7    1  0.5408841E-013  0.5052886E+02  0.7816164E-02  0.1300439E+00
        -11   -1    0    0    0    0  0.00000000000E+00  0.00000000000E+00  0.45593999997E+02  0.45594000000E+02  0.51100000000E-03 0. -1.
         11   -1    0    0    0    0 -0.00000000000E+00 -0.00000000000E+00 -0.45593999997E+02  0.45594000000E+02  0.51100000000E-03 0.  1.
    9900012    2    1    2    0    0  0.18323872137E+02  0.23204133406E+02 -0.27910026075E+02  0.50528860157E+02  0.30000000934E+02 0.  0.
         12    1    1    2    0    0 -0.18323872137E+02 -0.23204133406E+02  0.27910026075E+02  0.40659139843E+02  0.00000000000E+00 0. -1.
         11    1    3    3    0    0  0.46094311661E+01 -0.49629132153E+01 -0.49626005992E+01  0.83967117508E+01  0.51100000000E-03 0. -1.
        -11    1    3    3    0    0  0.40808134420E+01  0.13609270598E+02 -0.12192730610E+01  0.14260151178E+02  0.51100000000E-03 0.  1.
        -12    1    3    3    0    0  0.96336275292E+01  0.14557776023E+02 -0.21728152415E+02  0.27871997228E+02  0.00000000000E+00 0.  1.
</event>
<event>
 7    1  0.5408841E-013  0.5052886E+02  0.7816164E-02  0.1300439E+00
        -11   -1    0    0    0    0  0.00000000000E+00  0.00000000000E+00  0.45593999997E+02  0.45594000000E+02  0.51100000000E-03 0.  1.
         11   -1    0    0    0    0 -0.00000000000E+00 -0.00000000000E+00 -0.45593999997E+02  0.45594000000E+02  0.51100000000E-03 0. -1.
    9900012    2    1    2    0    0 -0.19858288401E+02  0.46186687371E+01  0.35177859279E+02  0.50528862004E+02  0.30000006549E+02 0.  0.
         12    1    1    2    0    0  0.19858288401E+02 -0.46186687371E+01 -0.35177859279E+02  0.40659137996E+02  0.00000000000E+00 0. -1.
         11    1    3    3    0    0  0.98624181300E+00  0.19332992272E+01 -0.90379411621E+00  0.23509918930E+01  0.51100000000E-03 0. -1.
        -11    1    3    3    0    0 -0.40917004006E+00  0.90583422907E+01  0.47622088154E+01  0.10242051466E+02  0.51100000000E-03 0.  1.
         12    1    3    3    0    0 -0.20435360173E+02 -0.63729727808E+01  0.31319444580E+02  0.37935818645E+02  0.00000000000E+00 0. -1.
</event>
<event>
 7    1  0.5408841E-013  0.5052886E+02  0.7816164E-02  0.1300439E+00
        -11   -1    0    0    0    0  0.00000000000E+00  0.00000000000E+00  0.45593999997E+02  0.45594000000E+02  0.51100000000E-03 0. -1.
         11   -1    0    0    0    0 -0.00000000000E+00 -0.00000000000E+00 -0.45593999997E+02  0.45594000000E+02  0.51100000000E-03 0.  1.
    9900012    2    1    2    0    0 -0.24208250269E+02  0.24210580116E+02 -0.21931113029E+02  0.50528864627E+02  0.30000014519E+02 0.  0.
         12    1    1    2    0    0  0.24208250269E+02 -0.24210580116E+02  0.21931113029E+02  0.40659135373E+02  0.00000000000E+00 0. -1.
         11    1    3    3    0    0 -0.25150352415E+01 -0.49979257064E+00  0.38530138143E+00  0.25930006354E+01  0.51100000000E-03 0. -1.
        -11    1    3    3    0    0 -0.12062495411E+02  0.40675089831E+01 -0.21688446932E+02  0.25148303232E+02  0.51100000000E-03 0.  1.
         12    1    3    3    0    0 -0.96307196171E+01  0.20642863703E+02 -0.62796747799E+00  0.22787560759E+02  0.00000000000E+00 0. -1.
</event>
<event>
 7    1  0.5408841E-013  0.5052886E+02  0.7816164E-02  0.1300439E+00
        -11   -1    0    0    0    0  0.00000000000E+00  0.00000000000E+00  0.45593999997E+02  0.45594000000E+02  0.51100000000E-03 0. -1.
         11   -1    0    0    0    0 -0.00000000000E+00 -0.00000000000E+00 -0.45593999997E+02  0.45594000000E+02  0.51100000000E-03 0.  1.
    9900012    2    1    2    0    0 -0.34308378389E+02  0.14288973207E+02 -0.16490169928E+02  0.50528864652E+02  0.30000014596E+02 0.  0.
         12    1    1    2    0    0  0.34308378389E+02 -0.14288973207E+02  0.16490169928E+02  0.40659135348E+02  0.00000000000E+00 0. -1.
         11    1    3    3    0    0 -0.25581402712E+02  0.88815173243E+01 -0.13183529149E+02  0.30118017129E+02  0.51100000000E-03 0. -1.
        -11    1    3    3    0    0 -0.12656540278E+02  0.29672365675E+01 -0.67468053445E+01  0.14646224335E+02  0.51100000000E-03 0.  1.
         12    1    3    3    0    0  0.39295646017E+01  0.24402193149E+01  0.34401645648E+01  0.57646231877E+01  0.00000000000E+00 0. -1.
</event>
<event>
 7    1  0.5408841E-013  0.5052885E+02  0.7816164E-02  0.1300439E+00
        -11   -1    0    0    0    0  0.00000000000E+00  0.00000000000E+00  0.45593999997E+02  0.45594000000E+02  0.51100000000E-03 0. -1.
         11   -1    0    0    0    0 -0.00000000000E+00 -0.00000000000E+00 -0.45593999997E+02  0.45594000000E+02  0.51100000000E-03 0.  1.
    9900012    2    1    2    0    0  0.39175381525E+02 -0.45849021827E+01 -0.98709056825E+01  0.50528848206E+02  0.29999964607E+02 0.  0.
         12    1    1    2    0    0 -0.39175381525E+02  0.45849021827E+01  0.98709056825E+01  0.40659151794E+02  0.00000000000E+00 0. -1.
         11    1    3    3    0    0  0.51026206789E+01 -0.29103892599E+01  0.30362340389E+00  0.58821161898E+01  0.51100000000E-03 0. -1.
        -11    1    3    3    0    0  0.38686733608E+02 -0.12507010944E+01 -0.79847558790E+01  0.39521942477E+02  0.51100000000E-03 0.  1.
         12    1    3    3    0    0 -0.46139727623E+01 -0.42381182843E+00 -0.21897732074E+01  0.51247895388E+01  0.00000000000E+00 0. -1.
</event>
<event>
 7    1  0.5408841E-013  0.5052885E+02  0.7816164E-02  0.1300439E+00
        -11   -1    0    0    0    0  0.00000000000E+00  0.00000000000E+00  0.45593999997E+02  0.45594000000E+02  0.51100000000E-03 0.  1.
         11   -1    0    0    0    0 -0.00000000000E+00 -0.00000000000E+00 -0.45593999997E+02  0.45594000000E+02  0.51100000000E-03 0. -1.
    9900012    2    1    2    0    0  0.49993191881E+01 -0.39495759176E+02  0.82618521045E+01  0.50528851147E+02  0.29999973547E+02 0.  0.
         12    1    1    2    0    0 -0.49993191881E+01  0.39495759176E+02 -0.82618521045E+01  0.40659148853E+02  0.00000000000E+00 0. -1.
         11    1    3    3    0    0 -0.29961534546E+00 -0.83664628866E+01  0.60891274704E+01  0.10352050241E+02  0.51100000000E-03 0. -1.
        -11    1    3    3    0    0  0.12062495589E+02 -0.15309548302E+02  0.92485591663E+01  0.21573639377E+02  0.51100000000E-03 0.  1.
        -12    1    3    3    0    0 -0.67635610558E+01 -0.15819747987E+02 -0.70758345322E+01  0.18603161529E+02  0.00000000000E+00 0.  1.
</event>
<event>
 7    1  0.5408841E-013  0.5052886E+02  0.7816164E-02  0.1300439E+00
        -11   -1    0    0    0    0  0.00000000000E+00  0.00000000000E+00  0.45593999997E+02  0.45594000000E+02  0.51100000000E-03 0. -1.
         11   -1    0    0    0    0 -0.00000000000E+00 -0.00000000000E+00 -0.45593999997E+02  0.45594000000E+02  0.51100000000E-03 0.  1.
    9900012    2    1    2    0    0 -0.28028837293E+02 -0.28190628672E+02  0.85345476754E+01  0.50528858728E+02  0.29999996590E+02 0.  0.
         12    1    1    2    0    0  0.28028837293E+02  0.28190628672E+02 -0.85345476754E+01  0.40659141272E+02  0.00000000000E+00 0. -1.
         11    1    3    3    0    0  0.19516629539E+01 -0.10940158265E+02  0.47324351266E+00  0.11122949736E+02  0.51100000000E-03 0. -1.
        -11    1    3    3    0    0 -0.24601589311E+02 -0.20290351316E+02  0.43141633106E+01  0.32179940312E+02  0.51100000000E-03 0.  1.
        -12    1    3    3    0    0 -0.53789109368E+01  0.30398809090E+01  0.37471408522E+01  0.72259686806E+01  0.00000000000E+00 0.  1.
</event>
<event>
 7    1  0.5408841E-013  0.5052886E+02  0.7816164E-02  0.1300439E+00
        -11   -1    0    0    0    0  0.00000000000E+00  0.00000000000E+00  0.45593999997E+02  0.45594000000E+02  0.51100000000E-03 0.  1.
         11   -1    0    0    0    0 -0.00000000000E+00 -0.00000000000E+00 -0.45593999997E+02  0.45594000000E+02  0.51100000000E-03 0. -1.
    9900012    2    1    2    0    0  0.81235079499E+01  0.32138975929E+02  0.23542744787E+02  0.50528856043E+02  0.29999988428E+02 0.  0.
         12    1    1    2    0    0 -0.81235079499E+01 -0.32138975929E+02 -0.23542744787E+02  0.40659143957E+02  0.00000000000E+00 0. -1.
         11    1    3    3    0    0 -0.58658412815E+01  0.23100919927E+01 -0.28679170748E+01  0.69260066101E+01  0.51100000000E-03 0. -1.
        -11    1    3    3    0    0 -0.10575744224E+01  0.20800724631E+01  0.48326066202E+01  0.53664934657E+01  0.51100000000E-03 0.  1.
        -12    1    3    3    0    0  0.15046923654E+02  0.27748811473E+02  0.21578055242E+02  0.38236355967E+02  0.00000000000E+00 0.  1.
</event>
<event>
 7    1  0.5408841E-013  0.5052886E+02  0.7816164E-02  0.1300439E+00
        -11   -1    0    0    0    0  0.00000000000E+00  0.00000000000E+00  0.45593999997E+02  0.45594000000E+02  0.51100000000E-03 0. -1.
         11   -1    0    0    0    0 -0.00000000000E+00 -0.00000000000E+00 -0.45593999997E+02  0.45594000000E+02  0.51100000000E-03 0.  1.
    9900012    2    1    2    0    0  0.32803962236E+02 -0.23402472746E+02 -0.54212349921E+01  0.50528862554E+02  0.30000008218E+02 0.  0.
         12    1    1    2    0    0 -0.32803962236E+02  0.23402472746E+02  0.54212349921E+01  0.40659137446E+02  0.00000000000E+00 0. -1.
         11    1    3    3    0    0  0.24278012472E+02 -0.58094538550E+01 -0.17515920241E+00  0.24964020603E+02  0.51100000000E-03 0. -1.
        -11    1    3    3    0    0  0.98421302256E+01 -0.29243160327E+01 -0.15852055908E+01  0.10389034058E+02  0.51100000000E-03 0.  1.
         12    1    3    3    0    0 -0.13161804612E+01 -0.14668702859E+02 -0.36608701989E+01  0.15175807892E+02  0.00000000000E+00 0. -1.
</event>
<event>
 7    1  0.5408841E-013  0.5052885E+02  0.7816164E-02  0.1300439E+00
        -11   -1    0    0    0    0  0.00000000000E+00  0.00000000000E+00  0.45593999997E+02  0.45594000000E+02  0.51100000000E-03 0.  1.
         11   -1    0    0    0    0 -0.00000000000E+00 -0.00000000000E+00 -0.45593999997E+02  0.45594000000E+02  0.51100000000E-03 0. -1.
    9900012    2    1    2    0    0 -0.25987829008E+01  0.38426771629E+02  0.13030582627E+02  0.50528849320E+02  0.29999967993E+02 0.  0.
         12    1    1    2    0    0  0.25987829008E+01 -0.38426771629E+02 -0.13030582627E+02  0.40659150680E+02  0.00000000000E+00 0. -1.
         11    1    3    3    0    0 -0.41054923807E+01  0.17076622263E+02 -0.64161420455E+01  0.18698475195E+02  0.51100000000E-03 0. -1.
        -11    1    3    3    0    0  0.58738055701E+01  0.35528348949E+01  0.49204617710E+01  0.84460151531E+01  0.51100000000E-03 0.  1.
         12    1    3    3    0    0 -0.43670960902E+01  0.17797314472E+02  0.14526262901E+02  0.23384358972E+02  0.00000000000E+00 0. -1.
</event>
<event>
 7    1  0.5408841E-013  0.5052886E+02  0.7816164E-02  0.1300439E+00
        -11   -1    0    0    0    0  0.00000000000E+00  0.00000000000E+00  0.45593999997E+02  0.45594000000E+02  0.51100000000E-03 0.  1.
         11   -1    0    0    0    0 -0.00000000000E+00 -0.00000000000E+00 -0.45593999997E+02  0.45594000000E+02  0.51100000000E-03 0. -1.
    9900012    2    1    2    0    0 -0.24927728117E+02 -0.30648742589E+02 -0.96139880116E+01  0.50528858139E+02  0.29999994801E+02 0.  0.
         12    1    1    2    0    0  0.24927728117E+02  0.30648742589E+02  0.96139880116E+01  0.40659141861E+02  0.00000000000E+00 0. -1.
         11    1    3    3    0    0 -0.20888868729E+02 -0.13302864001E+02  0.30899580756E+01  0.24957140633E+02  0.51100000000E-03 0. -1.
        -11    1    3    3    0    0 -0.24237378964E+01  0.30511882040E+00  0.14923696030E+01  0.28626509005E+01  0.51100000000E-03 0.  1.
        -12    1    3    3    0    0 -0.16151214914E+01 -0.17650997408E+02 -0.14196315690E+02  0.22709066606E+02  0.00000000000E+00 0.  1.
</event>
<event>
 7    1  0.5408841E-013  0.5052876E+02  0.7816164E-02  0.1300439E+00
        -11   -1    0    0    0    0  0.00000000000E+00  0.00000000000E+00  0.45593999997E+02  0.45594000000E+02  0.51100000000E-03 0.  1.
         11   -1    0    0    0    0 -0.00000000000E+00 -0.00000000000E+00 -0.45593999997E+02  0.45594000000E+02  0.51100000000E-03 0. -1.
    9900012    2    1    2    0    0  0.77056046812E+00 -0.82603165396E+01  0.39803862009E+02  0.50528757218E+02  0.29999688039E+02 0.  0.
         12    1    1    2    0    0 -0.77056046812E+00  0.82603165396E+01 -0.39803862009E+02  0.40659242782E+02  0.00000000000E+00 0. -1.
         11    1    3    3    0    0 -0.15961798494E+01 -0.33767447863E+01 -0.22726976504E+01  0.43721105126E+01  0.51100000000E-03 0. -1.
        -11    1    3    3    0    0 -0.43137915265E+01 -0.97179470306E+01  0.25959273847E+02  0.28052293859E+02  0.51100000000E-03 0.  1.
        -12    1    3    3    0    0  0.66805318441E+01  0.48343752773E+01  0.16117285812E+02  0.18104352846E+02  0.00000000000E+00 0.  1.
</event>
<event>
 7    1  0.5408841E-013  0.5052887E+02  0.7816164E-02  0.1300439E+00
        -11   -1    0    0    0    0  0.00000000000E+00  0.00000000000E+00  0.45593999997E+02  0.45594000000E+02  0.51100000000E-03 0.  1.
         11   -1    0    0    0    0 -0.00000000000E+00 -0.00000000000E+00 -0.45593999997E+02  0.45594000000E+02  0.51100000000E-03 0. -1.
    9900012    2    1    2    0    0 -0.30245773402E+02  0.22301488067E+02  0.15524233623E+02  0.50528868082E+02  0.30000025022E+02 0.  0.
         12    1    1    2    0    0  0.30245773402E+02 -0.22301488067E+02 -0.15524233623E+02  0.40659131918E+02  0.00000000000E+00 0. -1.
         11    1    3    3    0    0 -0.14922315757E+00 -0.23222651467E+01 -0.22273201336E+01  0.32212013599E+01  0.51100000000E-03 0. -1.
        -11    1    3    3    0    0 -0.11316580915E+02  0.77547074411E+00 -0.13799054169E+01  0.11426744843E+02  0.51100000000E-03 0.  1.
        -12    1    3    3    0    0 -0.18779969330E+02  0.23848282470E+02  0.19131459173E+02  0.35880921879E+02  0.00000000000E+00 0.  1.
</event>
<event>
 7    1  0.5408841E-013  0.5052884E+02  0.7816164E-02  0.1300439E+00
        -11   -1    0    0    0    0  0.00000000000E+00  0.00000000000E+00  0.45593999997E+02  0.45594000000E+02  0.51100000000E-03 0. -1.
         11   -1    0    0    0    0 -0.00000000000E+00 -0.00000000000E+00 -0.45593999997E+02  0.45594000000E+02  0.51100000000E-03 0.  1.
    9900012    2    1    2    0    0  0.35544128514E+02  0.10909114445E+02 -0.16455184077E+02  0.50528844417E+02  0.29999953089E+02 0.  0.
         12    1    1    2    0    0 -0.35544128514E+02 -0.10909114445E+02  0.16455184077E+02  0.40659155583E+02  0.00000000000E+00 0. -1.
         11    1    3    3    0    0  0.28527246968E+00  0.14567985455E+01 -0.83830068362E+01  0.85134274097E+01  0.51100000000E-03 0. -1.
        -11    1    3    3    0    0  0.22412375386E+02  0.12364615696E+02 -0.11999616887E+02  0.28269932745E+02  0.51100000000E-03 0.  1.
         12    1    3    3    0    0  0.12846480658E+02 -0.29122997969E+01  0.39274396462E+01  0.13745484262E+02  0.00000000000E+00 0. -1.
</event>
<event>
 7    1  0.5408841E-013  0.5052885E+02  0.7816164E-02  0.1300439E+00
        -11   -1    0    0    0    0  0.00000000000E+00  0.00000000000E+00  0.45593999997E+02  0.45594000000E+02  0.51100000000E-03 0.  1.
         11   -1    0    0    0    0 -0.00000000000E+00 -0.00000000000E+00 -0.45593999997E+02  0.45594000000E+02  0.51100000000E-03 0. -1.
    9900012    2    1    2    0    0 -0.28823883231E+02  0.11003955455E+02  0.26481371764E+02  0.50528851821E+02  0.29999975594E+02 0.  0.
         12    1    1    2    0    0  0.28823883231E+02 -0.11003955455E+02 -0.26481371764E+02  0.40659148179E+02  0.00000000000E+00 0. -1.
         11    1    3    3    0    0  0.98504826672E-03  0.98866677341E+01  0.14542671012E+02  0.17585092558E+02  0.51100000000E-03 0. -1.
        -11    1    3    3    0    0 -0.22402924496E+01  0.31161913686E+01  0.28545523191E+00  0.38485119015E+01  0.51100000000E-03 0.  1.
        -12    1    3    3    0    0 -0.26584575830E+02 -0.19989036474E+01  0.11653245520E+02  0.29095247361E+02  0.00000000000E+00 0.  1.
</event>
<event>
 7    1  0.5408841E-013  0.5052885E+02  0.7816164E-02  0.1300439E+00
        -11   -1    0    0    0    0  0.00000000000E+00  0.00000000000E+00  0.45593999997E+02  0.45594000000E+02  0.51100000000E-03 0.  1.
         11   -1    0    0    0    0 -0.00000000000E+00 -0.00000000000E+00 -0.45593999997E+02  0.45594000000E+02  0.51100000000E-03 0. -1.
    9900012    2    1    2    0    0 -0.12690240381E+02  0.28973730673E+02  0.25546964875E+02  0.50528847471E+02  0.29999962373E+02 0.  0.
         12    1    1    2    0    0  0.12690240381E+02 -0.28973730673E+02 -0.25546964875E+02  0.40659152529E+02  0.00000000000E+00 0. -1.
         11    1    3    3    0    0 -0.14336946333E+01  0.50716910851E+01 -0.54925205777E+00  0.52989818690E+01  0.51100000000E-03 0. -1.
        -11    1    3    3    0    0 -0.11948518944E+01 -0.46022202201E+01 -0.73527401090E+00  0.48113127248E+01  0.51100000000E-03 0.  1.
        -12    1    3    3    0    0 -0.10061693853E+02  0.28504259808E+02  0.26831490944E+02  0.40418552877E+02  0.00000000000E+00 0.  1.
</event>
<event>
 7    1  0.5408841E-013  0.5052886E+02  0.7816164E-02  0.1300439E+00
        -11   -1    0    0    0    0  0.00000000000E+00  0.00000000000E+00  0.45593999997E+02  0.45594000000E+02  0.51100000000E-03 0.  1.
         11   -1    0    0    0    0 -0.00000000000E+00 -0.00000000000E+00 -0.45593999997E+02  0.45594000000E+02  0.51100000000E-03 0. -1.
    9900012    2    1    2    0    0 -0.19191538930E+02  0.32629305549E+02  0.14838434354E+02  0.50528857348E+02  0.29999992394E+02 0.  0.
         12    1    1    2    0    0  0.19191538930E+02 -0.32629305549E+02 -0.14838434354E+02  0.40659142652E+02  0.00000000000E+00 0. -1.
         11    1    3    3    0    0 -0.56264542537E+01 -0.18009850162E+01  0.36037015292E+01  0.69200577649E+01  0.51100000000E-03 0. -1.
        -11    1    3    3    0    0 -0.14058500089E+02  0.17870173134E+02  0.14158656691E+02  0.26785295819E+02  0.51100000000E-03 0.  1.
         12    1    3    3    0    0  0.49341541193E+00  0.16560117431E+02 -0.29239238657E+01  0.16823503763E+02  0.00000000000E+00 0. -1.
</event>
<event>
 7    1  0.5408841E-013  0.5052886E+02  0.7816164E-02  0.1300439E+00
        -11   -1    0    0    0    0  0.00000000000E+00  0.00000000000E+00  0.45593999997E+02  0.45594000000E+02  0.51100000000E-03 0. -1.
         11   -1    0    0    0    0 -0.00000000000E+00 -0.00000000000E+00 -0.45593999997E+02  0.45594000000E+02  0.51100000000E-03 0.  1.
    9900012    2    1    2    0    0  0.39682990580E+02  0.21824071365E+00 -0.88531557302E+01  0.50528859124E+02  0.29999997794E+02 0.  0.
         12    1    1    2    0    0 -0.39682990580E+02 -0.21824071365E+00  0.88531557302E+01  0.40659140876E+02  0.00000000000E+00 0. -1.
         11    1    3    3    0    0  0.32017542691E+00  0.15373073100E+01  0.50484939264E+01  0.52870707632E+01  0.51100000000E-03 0. -1.
        -11    1    3    3    0    0  0.82375565968E+01 -0.76238209180E+01 -0.47871813945E+01  0.12202339531E+02  0.51100000000E-03 0.  1.
         12    1    3    3    0    0  0.31125258556E+02  0.63047543216E+01 -0.91144682621E+01  0.33039448830E+02  0.00000000000E+00 0. -1.
</event>
<event>
 7    1  0.5408841E-013  0.5052891E+02  0.7816164E-02  0.1300439E+00
        -11   -1    0    0    0    0  0.00000000000E+00  0.00000000000E+00  0.45593999997E+02  0.45594000000E+02  0.51100000000E-03 0.  1.
         11   -1    0    0    0    0 -0.00000000000E+00 -0.00000000000E+00 -0.45593999997E+02  0.45594000000E+02  0.51100000000E-03 0. -1.
    9900012    2    1    2    0    0 -0.51740181834E+01  0.40328319497E+02 -0.13394957316E+00  0.50528908026E+02  0.30000146436E+02 0.  0.
         12    1    1    2    0    0  0.51740181834E+01 -0.40328319497E+02  0.13394957316E+00  0.40659091974E+02  0.00000000000E+00 0. -1.
         11    1    3    3    0    0 -0.11968893920E+01  0.13207314486E+02  0.24694795173E+01  0.13489404341E+02  0.51100000000E-03 0. -1.
        -11    1    3    3    0    0 -0.31952195239E+01  0.29866634347E+02  0.35597395779E+01  0.30247264688E+02  0.51100000000E-03 0.  1.
         12    1    3    3    0    0 -0.78190926740E+00 -0.27456293350E+01 -0.61631686684E+01  0.67922389963E+01  0.00000000000E+00 0. -1.
</event>
<event>
 7    1  0.5408841E-013  0.5052886E+02  0.7816164E-02  0.1300439E+00
        -11   -1    0    0    0    0  0.00000000000E+00  0.00000000000E+00  0.45593999997E+02  0.45594000000E+02  0.51100000000E-03 0. -1.
         11   -1    0    0    0    0 -0.00000000000E+00 -0.00000000000E+00 -0.45593999997E+02  0.45594000000E+02  0.51100000000E-03 0.  1.
    9900012    2    1    2    0    0  0.11687054941E+02 -0.19168403155E+02 -0.33899126643E+02  0.50528859332E+02  0.29999998426E+02 0.  0.
         12    1    1    2    0    0 -0.11687054941E+02  0.19168403155E+02  0.33899126643E+02  0.40659140668E+02  0.00000000000E+00 0. -1.
         11    1    3    3    0    0  0.10978333213E+02 -0.15911711867E+02 -0.36787997077E+02  0.41557948745E+02  0.51100000000E-03 0.  1.
        -11    1    3    3    0    0 -0.75369623262E+00  0.98630204113E+00 -0.19877244467E+01  0.23434799902E+01  0.51100000000E-03 0. -1.
         12    1    3    3    0    0  0.14624179601E+01 -0.42429933295E+01  0.48765948812E+01  0.66274305971E+01  0.00000000000E+00 0. -1.
</event>
<event>
 7    1  0.5408841E-013  0.5052886E+02  0.7816164E-02  0.1300439E+00
        -11   -1    0    0    0    0  0.00000000000E+00  0.00000000000E+00  0.45593999997E+02  0.45594000000E+02  0.51100000000E-03 0. -1.
         11   -1    0    0    0    0 -0.00000000000E+00 -0.00000000000E+00 -0.45593999997E+02  0.45594000000E+02  0.51100000000E-03 0.  1.
    9900012    2    1    2    0    0  0.14828165013E+02 -0.31862873682E+02 -0.20446225462E+02  0.50528864095E+02  0.30000012902E+02 0.  0.
         12    1    1    2    0    0 -0.14828165013E+02  0.31862873682E+02  0.20446225462E+02  0.40659135905E+02  0.00000000000E+00 0. -1.
         11    1    3    3    0    0  0.13588903475E+01  0.32334926120E+01  0.15573156416E+01  0.38376151079E+01  0.51100000000E-03 0. -1.
        -11    1    3    3    0    0 -0.30896583041E+01 -0.96877668295E+00 -0.20236750881E+01  0.38183475248E+01  0.51100000000E-03 0.  1.
        -12    1    3    3    0    0  0.16558932970E+02 -0.34127589611E+02 -0.19979866015E+02  0.42872901462E+02  0.00000000000E+00 0.  1.
</event>
<event>
 7    1  0.5408841E-013  0.5052887E+02  0.7816164E-02  0.1300439E+00
        -11   -1    0    0    0    0  0.00000000000E+00  0.00000000000E+00  0.45593999997E+02  0.45594000000E+02  0.51100000000E-03 0. -1.
         11   -1    0    0    0    0 -0.00000000000E+00 -0.00000000000E+00 -0.45593999997E+02  0.45594000000E+02  0.51100000000E-03 0.  1.
    9900012    2    1    2    0    0  0.44858312615E+01  0.12182814974E+02 -0.38530783865E+02  0.50528868577E+02  0.30000026528E+02 0.  0.
         12    1    1    2    0    0 -0.44858312615E+01 -0.12182814974E+02  0.38530783865E+02  0.40659131423E+02  0.00000000000E+00 0. -1.
         11    1    3    3    0    0 -0.98713640614E+01  0.80826299545E+00 -0.12884130702E+02  0.16251090477E+02  0.51100000000E-03 0. -1.
        -11    1    3    3    0    0 -0.16193206880E+01  0.32696001083E+01 -0.95460063133E+00  0.37714383178E+01  0.51100000000E-03 0.  1.
        -12    1    3    3    0    0  0.15976516011E+02  0.81049518700E+01 -0.24692052532E+02  0.30506339782E+02  0.00000000000E+00 0.  1.
</event>
<event>
 7    1  0.5408841E-013  0.5052887E+02  0.7816164E-02  0.1300439E+00
        -11   -1    0    0    0    0  0.00000000000E+00  0.00000000000E+00  0.45593999997E+02  0.45594000000E+02  0.51100000000E-03 0.  1.
         11   -1    0    0    0    0 -0.00000000000E+00 -0.00000000000E+00 -0.45593999997E+02  0.45594000000E+02  0.51100000000E-03 0. -1.
    9900012    2    1    2    0    0 -0.24627514155E+02  0.28570062944E+02  0.15178995556E+02  0.50528869953E+02  0.30000030709E+02 0.  0.
         12    1    1    2    0    0  0.24627514155E+02 -0.28570062944E+02 -0.15178995556E+02  0.40659130047E+02  0.00000000000E+00 0. -1.
         11    1    3    3    0    0  0.13298285590E+01  0.13821094719E+02  0.41130905411E+01  0.14481319598E+02  0.51100000000E-03 0. -1.
        -11    1    3    3    0    0  0.15928570370E+01  0.27296910262E+01 -0.14634472589E+01  0.34828271246E+01  0.51100000000E-03 0.  1.
        -12    1    3    3    0    0 -0.27550199751E+02  0.12019277199E+02  0.12529352274E+02  0.32564723231E+02  0.00000000000E+00 0.  1.
</event>
<event>
 7    1  0.5408841E-013  0.5052886E+02  0.7816164E-02  0.1300439E+00
        -11   -1    0    0    0    0  0.00000000000E+00  0.00000000000E+00  0.45593999997E+02  0.45594000000E+02  0.51100000000E-03 0.  1.
         11   -1    0    0    0    0 -0.00000000000E+00 -0.00000000000E+00 -0.45593999997E+02  0.45594000000E+02  0.51100000000E-03 0. -1.
    9900012    2    1    2    0    0  0.36525531092E+02 -0.17023324137E+02 -0.54090179827E+01  0.50528862506E+02  0.30000008073E+02 0.  0.
         12    1    1    2    0    0 -0.36525531092E+02  0.17023324137E+02  0.54090179827E+01  0.40659137494E+02  0.00000000000E+00 0. -1.
         11    1    3    3    0    0  0.12622162388E+02  0.49862239106E+01 -0.56128391222E+01  0.14686230814E+02  0.51100000000E-03 0. -1.
        -11    1    3    3    0    0  0.50675155244E+01  0.81442166878E+00  0.32791700802E+01  0.60906447049E+01  0.51100000000E-03 0.  1.
         12    1    3    3    0    0  0.18835853179E+02 -0.22823969716E+02 -0.30753489407E+01  0.29751986987E+02  0.00000000000E+00 0. -1.
</event>
<event>
 7    1  0.5408841E-013  0.5052886E+02  0.7816164E-02  0.1300439E+00
        -11   -1    0    0    0    0  0.00000000000E+00  0.00000000000E+00  0.45593999997E+02  0.45594000000E+02  0.51100000000E-03 0.  1.
         11   -1    0    0    0    0 -0.00000000000E+00 -0.00000000000E+00 -0.45593999997E+02  0.45594000000E+02  0.51100000000E-03 0. -1.
    9900012    2    1    2    0    0 -0.95636434804E+01 -0.39298887620E+02  0.41592739165E+01  0.50528863213E+02  0.30000010221E+02 0.  0.
         12    1    1    2    0    0  0.95636434804E+01  0.39298887620E+02 -0.41592739165E+01  0.40659136787E+02  0.00000000000E+00 0. -1.
         11    1    3    3    0    0 -0.51203488177E+01 -0.10935295388E+01  0.27106663878E+01  0.58958876680E+01  0.51100000000E-03 0. -1.
        -11    1    3    3    0    0 -0.67149540421E+01 -0.77314940473E+00  0.22481415634E+01  0.71233776075E+01  0.51100000000E-03 0.  1.
        -12    1    3    3    0    0  0.22716593794E+01 -0.37432208676E+02 -0.79953403467E+00  0.37509597937E+02  0.00000000000E+00 0.  1.
</event>
<event>
 7    1  0.5408841E-013  0.5052884E+02  0.7816164E-02  0.1300439E+00
        -11   -1    0    0    0    0  0.00000000000E+00  0.00000000000E+00  0.45593999997E+02  0.45594000000E+02  0.51100000000E-03 0. -1.
         11   -1    0    0    0    0 -0.00000000000E+00 -0.00000000000E+00 -0.45593999997E+02  0.45594000000E+02  0.51100000000E-03 0.  1.
    9900012    2    1    2    0    0 -0.37038620818E+02  0.13222557276E+02 -0.10318504970E+02  0.50528843617E+02  0.29999950657E+02 0.  0.
         12    1    1    2    0    0  0.37038620818E+02 -0.13222557276E+02  0.10318504970E+02  0.40659156383E+02  0.00000000000E+00 0. -1.
         11    1    3    3    0    0 -0.17263179096E+02 -0.49453038224E+01 -0.56760251726E+01  0.18833232447E+02  0.51100000000E-03 0. -1.
        -11    1    3    3    0    0 -0.14990995092E+02  0.33017780256E+01 -0.47821841622E+01  0.16077964970E+02  0.51100000000E-03 0.  1.
         12    1    3    3    0    0 -0.47844466307E+01  0.14866083073E+02  0.13970436533E+00  0.15617646199E+02  0.00000000000E+00 0. -1.
</event>
<event>
 7    1  0.5408841E-013  0.5052886E+02  0.7816164E-02  0.1300439E+00
        -11   -1    0    0    0    0  0.00000000000E+00  0.00000000000E+00  0.45593999997E+02  0.45594000000E+02  0.51100000000E-03 0.  1.
         11   -1    0    0    0    0 -0.00000000000E+00 -0.00000000000E+00 -0.45593999997E+02  0.45594000000E+02  0.51100000000E-03 0. -1.
    9900012    2    1    2    0    0  0.33204639811E+02 -0.22583866632E+02  0.63707672831E+01  0.50528858189E+02  0.29999994952E+02 0.  0.
         12    1    1    2    0    0 -0.33204639811E+02  0.22583866632E+02 -0.63707672831E+01  0.40659141811E+02  0.00000000000E+00 0. -1.
         11    1    3    3    0    0 -0.32372753781E+01 -0.31384553480E+00  0.11691320313E+01  0.34562003502E+01  0.51100000000E-03 0. -1.
        -11    1    3    3    0    0 -0.53859648902E+00 -0.28262003840E+01  0.44332167010E+01  0.52849697604E+01  0.51100000000E-03 0.  1.
         12    1    3    3    0    0  0.36980511678E+02 -0.19443820714E+02  0.76841855083E+00  0.41787688079E+02  0.00000000000E+00 0. -1.
</event>
<event>
 7    1  0.5408841E-013  0.5052886E+02  0.7816164E-02  0.1300439E+00
        -11   -1    0    0    0    0  0.00000000000E+00  0.00000000000E+00  0.45593999997E+02  0.45594000000E+02  0.51100000000E-03 0. -1.
         11   -1    0    0    0    0 -0.00000000000E+00 -0.00000000000E+00 -0.45593999997E+02  0.45594000000E+02  0.51100000000E-03 0.  1.
    9900012    2    1    2    0    0 -0.46113176913E+00 -0.40501822351E+02  0.35433626011E+01  0.50528859886E+02  0.30000000110E+02 0.  0.
         12    1    1    2    0    0  0.46113176913E+00  0.40501822351E+02 -0.35433626011E+01  0.40659140114E+02  0.00000000000E+00 0. -1.
         11    1    3    3    0    0 -0.74347379688E+00 -0.43619685547E+01 -0.41847797287E+01  0.60903123563E+01  0.51100000000E-03 0. -1.
        -11    1    3    3    0    0 -0.17589467752E+01 -0.20964706397E+02 -0.79812781352E+01  0.22501413489E+02  0.51100000000E-03 0.  1.
        -12    1    3    3    0    0  0.20412888029E+01 -0.15175147399E+02  0.15709420465E+02  0.21937134040E+02  0.00000000000E+00 0.  1.
</event>
<event>
 7    1  0.5408841E-013  0.5052884E+02  0.7816164E-02  0.1300439E+00
        -11   -1    0    0    0    0  0.00000000000E+00  0.00000000000E+00  0.45593999997E+02  0.45594000000E+02  0.51100000000E-03 0.  1.
         11   -1    0    0    0    0 -0.00000000000E+00 -0.00000000000E+00 -0.45593999997E+02  0.45594000000E+02  0.51100000000E-03 0. -1.
    9900012    2    1    2    0    0  0.20594029658E+02  0.15468020637E+02  0.31460984269E+02  0.50528840501E+02  0.29999941186E+02 0.  0.
         12    1    1    2    0    0 -0.20594029658E+02 -0.15468020637E+02 -0.31460984269E+02  0.40659159499E+02  0.00000000000E+00 0. -1.
         11    1    3    3    0    0 -0.16027050835E+01 -0.18601810137E+01 -0.13349687316E+01  0.27948307219E+01  0.51100000000E-03 0. -1.
        -11    1    3    3    0    0 -0.25811292271E+01 -0.96624192129E+00  0.71226632726E+01  0.76372890408E+01  0.51100000000E-03 0.  1.
         12    1    3    3    0    0  0.24777863969E+02  0.18294443572E+02  0.25673289728E+02  0.40096720738E+02  0.00000000000E+00 0. -1.
</event>
<event>
 7    1  0.5408841E-013  0.5052886E+02  0.7816164E-02  0.1300439E+00
        -11   -1    0    0    0    0  0.00000000000E+00  0.00000000000E+00  0.45593999997E+02  0.45594000000E+02  0.51100000000E-03 0.  1.
         11   -1    0    0    0    0 -0.00000000000E+00 -0.00000000000E+00 -0.45593999997E+02  0.45594000000E+02  0.51100000000E-03 0. -1.
    9900012    2    1    2    0    0  0.18419612128E+02 -0.44624117666E+01  0.35971800936E+02  0.50528859671E+02  0.29999999455E+02 0.  0.
         12    1    1    2    0    0 -0.18419612128E+02  0.44624117666E+01 -0.35971800936E+02  0.40659140329E+02  0.00000000000E+00 0. -1.
         11    1    3    3    0    0  0.23242135151E+01 -0.63904096907E+00 -0.38859371098E+01  0.45728382112E+01  0.51100000000E-03 0. -1.
        -11    1    3    3    0    0 -0.39641340321E+00  0.42999137050E+01  0.55372844477E+01  0.70219598954E+01  0.51100000000E-03 0.  1.
        -12    1    3    3    0    0  0.16491812016E+02 -0.81232845026E+01  0.34320453598E+02  0.38934061564E+02  0.00000000000E+00 0.  1.
</event>
<event>
 7    1  0.5408841E-013  0.5052887E+02  0.7816164E-02  0.1300439E+00
        -11   -1    0    0    0    0  0.00000000000E+00  0.00000000000E+00  0.45593999997E+02  0.45594000000E+02  0.51100000000E-03 0.  1.
         11   -1    0    0    0    0 -0.00000000000E+00 -0.00000000000E+00 -0.45593999997E+02  0.45594000000E+02  0.51100000000E-03 0. -1.
    9900012    2    1    2    0    0 -0.21946464435E+02 -0.79051265518E+01  0.33302054790E+02  0.50528865968E+02  0.30000018595E+02 0.  0.
         12    1    1    2    0    0  0.21946464435E+02  0.79051265518E+01 -0.33302054790E+02  0.40659134032E+02  0.00000000000E+00 0. -1.
         11    1    3    3    0    0 -0.40863652731E+01 -0.12058842288E+01  0.94831939215E+01  0.10396321712E+02  0.51100000000E-03 0. -1.
        -11    1    3    3    0    0 -0.16586772965E+02 -0.81477833250E+01  0.29121460711E+02  0.34490098357E+02  0.51100000000E-03 0.  1.
         12    1    3    3    0    0 -0.12733261970E+01  0.14485410019E+01 -0.53025998418E+01  0.56424458988E+01  0.00000000000E+00 0. -1.
</event>
<event>
 7    1  0.5408841E-013  0.5052886E+02  0.7816164E-02  0.1300439E+00
        -11   -1    0    0    0    0  0.00000000000E+00  0.00000000000E+00  0.45593999997E+02  0.45594000000E+02  0.51100000000E-03 0.  1.
         11   -1    0    0    0    0 -0.00000000000E+00 -0.00000000000E+00 -0.45593999997E+02  0.45594000000E+02  0.51100000000E-03 0. -1.
    9900012    2    1    2    0    0  0.50803788573E+01 -0.20888223372E+00  0.40339949869E+02  0.50528862816E+02  0.30000009014E+02 0.  0.
         12    1    1    2    0    0 -0.50803788573E+01  0.20888223372E+00 -0.40339949869E+02  0.40659137184E+02  0.00000000000E+00 0. -1.
         11    1    3    3    0    0 -0.95708862173E+00  0.10467738630E+02  0.26333726184E+02  0.28354095042E+02  0.51100000000E-03 0. -1.
        -11    1    3    3    0    0  0.31076651619E+01  0.21278586915E+01  0.15513880903E+01  0.40733488234E+01  0.51100000000E-03 0.  1.
        -12    1    3    3    0    0  0.29298023172E+01 -0.12804479555E+02  0.12454835595E+02  0.18101418950E+02  0.00000000000E+00 0.  1.
</event>
<event>
 7    1  0.5408841E-013  0.5052886E+02  0.7816164E-02  0.1300439E+00
        -11   -1    0    0    0    0  0.00000000000E+00  0.00000000000E+00  0.45593999997E+02  0.45594000000E+02  0.51100000000E-03 0.  1.
         11   -1    0    0    0    0 -0.00000000000E+00 -0.00000000000E+00 -0.45593999997E+02  0.45594000000E+02  0.51100000000E-03 0. -1.
    9900012    2    1    2    0    0 -0.23378074759E+02  0.21595715004E+01  0.33195896624E+02  0.50528859808E+02  0.29999999872E+02 0.  0.
         12    1    1    2    0    0  0.23378074759E+02 -0.21595715004E+01 -0.33195896624E+02  0.40659140192E+02  0.00000000000E+00 0. -1.
         11    1    3    3    0    0  0.34765430636E+01 -0.16215153247E+01  0.41089344142E+01  0.56212993073E+01  0.51100000000E-03 0. -1.
        -11    1    3    3    0    0 -0.14194638166E+02  0.11818255203E+02  0.20634662045E+02  0.27693829396E+02  0.51100000000E-03 0.  1.
         12    1    3    3    0    0 -0.12659979657E+02 -0.80371683775E+01  0.84523001656E+01  0.17213731104E+02  0.00000000000E+00 0. -1.
</event>
<event>
 7    1  0.5408841E-013  0.5052886E+02  0.7816164E-02  0.1300439E+00
        -11   -1    0    0    0    0  0.00000000000E+00  0.00000000000E+00  0.45593999997E+02  0.45594000000E+02  0.51100000000E-03 0. -1.
         11   -1    0    0    0    0 -0.00000000000E+00 -0.00000000000E+00 -0.45593999997E+02  0.45594000000E+02  0.51100000000E-03 0.  1.
    9900012    2    1    2    0    0 -0.35062843610E+02  0.18870014650E+02  0.82271021700E+01  0.50528860006E+02  0.30000000474E+02 0.  0.
         12    1    1    2    0    0  0.35062843610E+02 -0.18870014650E+02 -0.82271021700E+01  0.40659139994E+02  0.00000000000E+00 0. -1.
         11    1    3    3    0    0 -0.20347040146E+02  0.40327268211E+01 -0.58706755828E+01  0.21557591711E+02  0.51100000000E-03 0. -1.
        -11    1    3    3    0    0 -0.11989493533E+02  0.25570728219E+01  0.41786929391E+01  0.12951758627E+02  0.51100000000E-03 0.  1.
         12    1    3    3    0    0 -0.27263099312E+01  0.12280215007E+02  0.99190848136E+01  0.16019509668E+02  0.00000000000E+00 0. -1.
</event>
<event>
 7    1  0.5408841E-013  0.5052885E+02  0.7816164E-02  0.1300439E+00
        -11   -1    0    0    0    0  0.00000000000E+00  0.00000000000E+00  0.45593999997E+02  0.45594000000E+02  0.51100000000E-03 0.  1.
         11   -1    0    0    0    0 -0.00000000000E+00 -0.00000000000E+00 -0.45593999997E+02  0.45594000000E+02  0.51100000000E-03 0. -1.
    9900012    2    1    2    0    0  0.19371089482E+01  0.37364524629E+02  0.15915593859E+02  0.50528853186E+02  0.29999979743E+02 0.  0.
         12    1    1    2    0    0 -0.19371089482E+01 -0.37364524629E+02 -0.15915593859E+02  0.40659146814E+02  0.00000000000E+00 0. -1.
         11    1    3    3    0    0  0.26282631140E+01  0.62111005691E+01  0.27305631995E+01  0.72760918716E+01  0.51100000000E-03 0. -1.
        -11    1    3    3    0    0  0.39400153853E+01  0.33821373993E+02  0.64514977426E+01  0.34655892477E+02  0.51100000000E-03 0.  1.
         12    1    3    3    0    0 -0.46311695512E+01 -0.26679499334E+01  0.67335329168E+01  0.85968688370E+01  0.00000000000E+00 0. -1.
</event>
<event>
 7    1  0.5408841E-013  0.5052886E+02  0.7816164E-02  0.1300439E+00
        -11   -1    0    0    0    0  0.00000000000E+00  0.00000000000E+00  0.45593999997E+02  0.45594000000E+02  0.51100000000E-03 0.  1.
         11   -1    0    0    0    0 -0.00000000000E+00 -0.00000000000E+00 -0.45593999997E+02  0.45594000000E+02  0.51100000000E-03 0. -1.
    9900012    2    1    2    0    0  0.25668768734E+02 -0.31459485753E+02  0.21401993701E+01  0.50528863444E+02  0.30000010923E+02 0.  0.
         12    1    1    2    0    0 -0.25668768734E+02  0.31459485753E+02 -0.21401993701E+01  0.40659136556E+02  0.00000000000E+00 0. -1.
         11    1    3    3    0    0 -0.17147517307E+01 -0.16371348161E+01 -0.75910665599E-01  0.23719921151E+01  0.51100000000E-03 0. -1.
        -11    1    3    3    0    0 -0.32137451930E+01 -0.12273018381E+02 -0.10669463190E+01  0.12731595071E+02  0.51100000000E-03 0.  1.
        -12    1    3    3    0    0  0.30597265658E+02 -0.17549332556E+02  0.32830563547E+01  0.35425276257E+02  0.00000000000E+00 0.  1.
</event>
<event>
 7    1  0.5408841E-013  0.5052886E+02  0.7816164E-02  0.1300439E+00
        -11   -1    0    0    0    0  0.00000000000E+00  0.00000000000E+00  0.45593999997E+02  0.45594000000E+02  0.51100000000E-03 0.  1.
         11   -1    0    0    0    0 -0.00000000000E+00 -0.00000000000E+00 -0.45593999997E+02  0.45594000000E+02  0.51100000000E-03 0. -1.
    9900012    2    1    2    0    0  0.57626818605E+01  0.24847294639E+02  0.31663367685E+02  0.50528863189E+02  0.30000010148E+02 0.  0.
         12    1    1    2    0    0 -0.57626818605E+01 -0.24847294639E+02 -0.31663367685E+02  0.40659136811E+02  0.00000000000E+00 0. -1.
         11    1    3    3    0    0 -0.25987837105E+00 -0.50365621925E+01  0.47705629648E+01  0.69421010327E+01  0.51100000000E-03 0. -1.
        -11    1    3    3    0    0  0.43348983448E+01  0.20550371959E+01  0.97278759477E+01  0.10846478334E+02  0.51100000000E-03 0.  1.
         12    1    3    3    0    0  0.16876618867E+01  0.27828819636E+02  0.17164928772E+02  0.32740283822E+02  0.00000000000E+00 0. -1.
</event>
<event>
 7    1  0.5408841E-013  0.5052890E+02  0.7816164E-02  0.1300439E+00
        -11   -1    0    0    0    0  0.00000000000E+00  0.00000000000E+00  0.45593999997E+02  0.45594000000E+02  0.51100000000E-03 0.  1.
         11   -1    0    0    0    0 -0.00000000000E+00 -0.00000000000E+00 -0.45593999997E+02  0.45594000000E+02  0.51100000000E-03 0. -1.
    9900012    2    1    2    0    0  0.38388738535E+02  0.13147865894E+02  0.25691993232E+01  0.50528900046E+02  0.30000122181E+02 0.  0.
         12    1    1    2    0    0 -0.38388738535E+02 -0.13147865894E+02 -0.25691993232E+01  0.40659099954E+02  0.00000000000E+00 0. -1.
         11    1    3    3    0    0  0.94192464654E+01 -0.60933926752E+00  0.12967556857E+02  0.16039047023E+02  0.51100000000E-03 0. -1.
        -11    1    3    3    0    0  0.77887574895E+01  0.74368449976E+01 -0.38520056608E+01  0.11437191728E+02  0.51100000000E-03 0.  1.
        -12    1    3    3    0    0  0.21180734580E+02  0.63203601641E+01 -0.65463518728E+01  0.23052661295E+02  0.00000000000E+00 0.  1.
</event>
<event>
 7    1  0.5408841E-013  0.5052887E+02  0.7816164E-02  0.1300439E+00
        -11   -1    0    0    0    0  0.00000000000E+00  0.00000000000E+00  0.45593999997E+02  0.45594000000E+02  0.51100000000E-03 0.  1.
         11   -1    0    0    0    0 -0.00000000000E+00 -0.00000000000E+00 -0.45593999997E+02  0.45594000000E+02  0.51100000000E-03 0. -1.
    9900012    2    1    2    0    0  0.22387621896E+02  0.81059121936E+01  0.32958363168E+02  0.50528866593E+02  0.30000020497E+02 0.  0.
         12    1    1    2    0    0 -0.22387621896E+02 -0.81059121936E+01 -0.32958363168E+02  0.40659133407E+02  0.00000000000E+00 0. -1.
         11    1    3    3    0    0  0.89623927864E+01  0.82558272296E+01  0.55717298258E+01  0.13398781333E+02  0.51100000000E-03 0. -1.
        -11    1    3    3    0    0  0.21393546976E+01  0.94494203384E+01  0.14800792970E+02  0.17689880046E+02  0.51100000000E-03 0.  1.
         12    1    3    3    0    0  0.11285874412E+02 -0.95993353743E+01  0.12585840372E+02  0.19440205214E+02  0.00000000000E+00 0. -1.
</event>
<event>
 7    1  0.5408841E-013  0.5052886E+02  0.7816164E-02  0.1300439E+00
        -11   -1    0    0    0    0  0.00000000000E+00  0.00000000000E+00  0.45593999997E+02  0.45594000000E+02  0.51100000000E-03 0. -1.
         11   -1    0    0    0    0 -0.00000000000E+00 -0.00000000000E+00 -0.45593999997E+02  0.45594000000E+02  0.51100000000E-03 0.  1.
    9900012    2    1    2    0    0 -0.20141228828E+02 -0.35307117860E+02  0.95060490782E+00  0.50528864250E+02  0.30000013374E+02 0.  0.
         12    1    1    2    0    0  0.20141228828E+02  0.35307117860E+02 -0.95060490782E+00  0.40659135750E+02  0.00000000000E+00 0. -1.
         11    1    3    3    0    0 -0.49503268966E+01 -0.21263004182E+02  0.33578705750E+01  0.22088376542E+02  0.51100000000E-03 0. -1.
        -11    1    3    3    0    0 -0.43905262820E+01 -0.16605579619E+02 -0.54097093533E+00  0.17184721276E+02  0.51100000000E-03 0.  1.
         12    1    3    3    0    0 -0.10800375649E+02  0.25614659416E+01 -0.18662947319E+01  0.11255766431E+02  0.00000000000E+00 0. -1.
</event>
<event>
 7    1  0.5408841E-013  0.5052886E+02  0.7816164E-02  0.1300439E+00
        -11   -1    0    0    0    0  0.00000000000E+00  0.00000000000E+00  0.45593999997E+02  0.45594000000E+02  0.51100000000E-03 0. -1.
         11   -1    0    0    0    0 -0.00000000000E+00 -0.00000000000E+00 -0.45593999997E+02  0.45594000000E+02  0.51100000000E-03 0.  1.
    9900012    2    1    2    0    0 -0.37112158767E+02 -0.15198911623E+02 -0.66967707850E+01  0.50528856110E+02  0.29999988633E+02 0.  0.
         12    1    1    2    0    0  0.37112158767E+02  0.15198911623E+02  0.66967707850E+01  0.40659143890E+02  0.00000000000E+00 0. -1.
         11    1    3    3    0    0 -0.19133127547E+01 -0.24132212308E+01  0.38338412253E+01  0.49175950635E+01  0.51100000000E-03 0. -1.
        -11    1    3    3    0    0 -0.76281548521E+01  0.65469659573E+01 -0.58043647537E+01  0.11607849075E+02  0.51100000000E-03 0.  1.
        -12    1    3    3    0    0 -0.27570691160E+02 -0.19332656350E+02 -0.47262472566E+01  0.34003411972E+02  0.00000000000E+00 0.  1.
</event>
<event>
 7    1  0.5408841E-013  0.5052886E+02  0.7816164E-02  0.1300439E+00
        -11   -1    0    0    0    0  0.00000000000E+00  0.00000000000E+00  0.45593999997E+02  0.45594000000E+02  0.51100000000E-03 0.  1.
         11   -1    0    0    0    0 -0.00000000000E+00 -0.00000000000E+00 -0.45593999997E+02  0.45594000000E+02  0.51100000000E-03 0. -1.
    9900012    2    1    2    0    0 -0.65799593175E+01 -0.24456768287E+02  0.31807802650E+02  0.50528859711E+02  0.29999999578E+02 0.  0.
         12    1    1    2    0    0  0.65799593175E+01  0.24456768287E+02 -0.31807802650E+02  0.40659140289E+02  0.00000000000E+00 0. -1.
         11    1    3    3    0    0 -0.50389499871E+01 -0.23886515771E+01  0.17033805048E+02  0.17923369885E+02  0.51100000000E-03 0. -1.
        -11    1    3    3    0    0  0.11492259957E+00 -0.32835835316E+01  0.13289655980E+02  0.13689780289E+02  0.51100000000E-03 0.  1.
         12    1    3    3    0    0 -0.16559319300E+01 -0.18784533178E+02  0.14843416207E+01  0.18915709538E+02  0.00000000000E+00 0. -1.
</event>
<event>
 7    1  0.5408841E-013  0.5052886E+02  0.7816164E-02  0.1300439E+00
        -11   -1    0    0    0    0  0.00000000000E+00  0.00000000000E+00  0.45593999997E+02  0.45594000000E+02  0.51100000000E-03 0.  1.
         11   -1    0    0    0    0 -0.00000000000E+00 -0.00000000000E+00 -0.45593999997E+02  0.45594000000E+02  0.51100000000E-03 0. -1.
    9900012    2    1    2    0    0 -0.25143578850E+02  0.29890852501E+02  0.11291721196E+02  0.50528860951E+02  0.30000003346E+02 0.  0.
         12    1    1    2    0    0  0.25143578850E+02 -0.29890852501E+02 -0.11291721196E+02  0.40659139049E+02  0.00000000000E+00 0. -1.
         11    1    3    3    0    0 -0.78537038451E+01  0.11798158627E+02 -0.84303458460E+01  0.16490844200E+02  0.51100000000E-03 0. -1.
        -11    1    3    3    0    0  0.10987355388E+01 -0.81212313757E+00  0.10795981507E+01  0.17413489607E+01  0.51100000000E-03 0.  1.
        -12    1    3    3    0    0 -0.18388610543E+02  0.18904817012E+02  0.18642468892E+02  0.32296667790E+02  0.00000000000E+00 0.  1.
</event>
<event>
 7    1  0.5408841E-013  0.5052887E+02  0.7816164E-02  0.1300439E+00
        -11   -1    0    0    0    0  0.00000000000E+00  0.00000000000E+00  0.45593999997E+02  0.45594000000E+02  0.51100000000E-03 0.  1.
         11   -1    0    0    0    0 -0.00000000000E+00 -0.00000000000E+00 -0.45593999997E+02  0.45594000000E+02  0.51100000000E-03 0. -1.
    9900012    2    1    2    0    0 -0.89299342851E+01 -0.37781293525E+02  0.12082846516E+02  0.50528867610E+02  0.30000023588E+02 0.  0.
         12    1    1    2    0    0  0.89299342851E+01  0.37781293525E+02 -0.12082846516E+02  0.40659132390E+02  0.00000000000E+00 0. -1.
         11    1    3    3    0    0 -0.43098929630E+01 -0.24224100788E+01  0.17903345554E+01  0.52581884736E+01  0.51100000000E-03 0. -1.
        -11    1    3    3    0    0 -0.15106476905E+02 -0.20346282330E+02  0.28397952991E+01  0.25499829151E+02  0.51100000000E-03 0.  1.
        -12    1    3    3    0    0  0.10486435583E+02 -0.15012601116E+02  0.74527166616E+01  0.19770849985E+02  0.00000000000E+00 0.  1.
</event>
<event>
 7    1  0.5408841E-013  0.5052886E+02  0.7816164E-02  0.1300439E+00
        -11   -1    0    0    0    0  0.00000000000E+00  0.00000000000E+00  0.45593999997E+02  0.45594000000E+02  0.51100000000E-03 0.  1.
         11   -1    0    0    0    0 -0.00000000000E+00 -0.00000000000E+00 -0.45593999997E+02  0.45594000000E+02  0.51100000000E-03 0. -1.
    9900012    2    1    2    0    0 -0.13076732839E+02 -0.23211951262E+02  0.30714328733E+02  0.50528860650E+02  0.30000002432E+02 0.  0.
         12    1    1    2    0    0  0.13076732839E+02  0.23211951262E+02 -0.30714328733E+02  0.40659139350E+02  0.00000000000E+00 0. -1.
         11    1    3    3    0    0  0.58243094595E+01 -0.28960376053E+01  0.37455520595E+01  0.75059159988E+01  0.51100000000E-03 0.  1.
        -11    1    3    3    0    0  0.13323289774E+01  0.25227154400E+01  0.12389477981E+01  0.31103352878E+01  0.51100000000E-03 0. -1.
        -12    1    3    3    0    0 -0.20233371276E+02 -0.22838629097E+02  0.25729828876E+02  0.39912609363E+02  0.00000000000E+00 0.  1.
</event>
<event>
 7    1  0.5408841E-013  0.5052887E+02  0.7816164E-02  0.1300439E+00
        -11   -1    0    0    0    0  0.00000000000E+00  0.00000000000E+00  0.45593999997E+02  0.45594000000E+02  0.51100000000E-03 0.  1.
         11   -1    0    0    0    0 -0.00000000000E+00 -0.00000000000E+00 -0.45593999997E+02  0.45594000000E+02  0.51100000000E-03 0. -1.
    9900012    2    1    2    0    0  0.26109480324E+01 -0.40549904419E+02 -0.14329501054E+01  0.50528866413E+02  0.30000019949E+02 0.  0.
         12    1    1    2    0    0 -0.26109480324E+01  0.40549904419E+02  0.14329501054E+01  0.40659133587E+02  0.00000000000E+00 0. -1.
         11    1    3    3    0    0 -0.99305886766E+01 -0.19959593986E+02  0.12051558861E+01  0.22326092012E+02  0.51100000000E-03 0. -1.
        -11    1    3    3    0    0  0.24172170758E+00 -0.14026026433E+02 -0.80911091738E-01  0.14028342516E+02  0.51100000000E-03 0.  1.
         12    1    3    3    0    0  0.12299815001E+02 -0.65642840000E+01 -0.25571948997E+01  0.14174431885E+02  0.00000000000E+00 0. -1.
</event>
<event>
 7    1  0.5408841E-013  0.5052886E+02  0.7816164E-02  0.1300439E+00
        -11   -1    0    0    0    0  0.00000000000E+00  0.00000000000E+00  0.45593999997E+02  0.45594000000E+02  0.51100000000E-03 0.  1.
         11   -1    0    0    0    0 -0.00000000000E+00 -0.00000000000E+00 -0.45593999997E+02  0.45594000000E+02  0.51100000000E-03 0. -1.
    9900012    2    1    2    0    0  0.37885942390E+02 -0.12628447111E+02  0.76382877241E+01  0.50528859003E+02  0.29999997427E+02 0.  0.
         12    1    1    2    0    0 -0.37885942390E+02  0.12628447111E+02 -0.76382877241E+01  0.40659140997E+02  0.00000000000E+00 0. -1.
         11    1    3    3    0    0  0.13205549210E+02 -0.61689193024E+01  0.58375794786E+01  0.15700937224E+02  0.51100000000E-03 0. -1.
        -11    1    3    3    0    0  0.72049999388E+01 -0.12428455737E+02 -0.49069208105E+01  0.15180790764E+02  0.51100000000E-03 0.  1.
         12    1    3    3    0    0  0.17475393242E+02  0.59689279282E+01  0.67076290560E+01  0.19647131015E+02  0.00000000000E+00 0. -1.
</event>
<event>
 7    1  0.5408841E-013  0.5052885E+02  0.7816164E-02  0.1300439E+00
        -11   -1    0    0    0    0  0.00000000000E+00  0.00000000000E+00  0.45593999997E+02  0.45594000000E+02  0.51100000000E-03 0. -1.
         11   -1    0    0    0    0 -0.00000000000E+00 -0.00000000000E+00 -0.45593999997E+02  0.45594000000E+02  0.51100000000E-03 0.  1.
    9900012    2    1    2    0    0  0.27412429053E+02 -0.13753039372E+02  0.26694174094E+02  0.50528852332E+02  0.29999977148E+02 0.  0.
         12    1    1    2    0    0 -0.27412429053E+02  0.13753039372E+02 -0.26694174094E+02  0.40659147668E+02  0.00000000000E+00 0. -1.
         11    1    3    3    0    0  0.57777278234E+01 -0.19044788811E+01  0.85136868450E+01  0.10463844540E+02  0.51100000000E-03 0. -1.
        -11    1    3    3    0    0  0.27137210998E+02 -0.62661395568E+01  0.14629669727E+02  0.31459815039E+02  0.51100000000E-03 0.  1.
        -12    1    3    3    0    0 -0.55025097685E+01 -0.55824209336E+01  0.35508175220E+01  0.86051927524E+01  0.00000000000E+00 0.  1.
</event>
<event>
 7    1  0.5408841E-013  0.5052886E+02  0.7816164E-02  0.1300439E+00
        -11   -1    0    0    0    0  0.00000000000E+00  0.00000000000E+00  0.45593999997E+02  0.45594000000E+02  0.51100000000E-03 0.  1.
         11   -1    0    0    0    0 -0.00000000000E+00 -0.00000000000E+00 -0.45593999997E+02  0.45594000000E+02  0.51100000000E-03 0. -1.
    9900012    2    1    2    0    0  0.14507004534E+02 -0.98897858550E+00  0.37970174368E+02  0.50528863256E+02  0.30000010354E+02 0.  0.
         12    1    1    2    0    0 -0.14507004534E+02  0.98897858550E+00 -0.37970174368E+02  0.40659136744E+02  0.00000000000E+00 0. -1.
         11    1    3    3    0    0  0.24122354835E+01 -0.65512625072E+01  0.33487972623E+01  0.77428911804E+01  0.51100000000E-03 0. -1.
        -11    1    3    3    0    0  0.11257245169E+02 -0.61509170796E+01  0.13521578742E+02  0.18638466720E+02  0.51100000000E-03 0.  1.
        -12    1    3    3    0    0  0.83752388108E+00  0.11713201001E+02  0.21099798364E+02  0.24147505356E+02  0.00000000000E+00 0.  1.
</event>
<event>
 7    1  0.5408841E-013  0.5052886E+02  0.7816164E-02  0.1300439E+00
        -11   -1    0    0    0    0  0.00000000000E+00  0.00000000000E+00  0.45593999997E+02  0.45594000000E+02  0.51100000000E-03 0.  1.
         11   -1    0    0    0    0 -0.00000000000E+00 -0.00000000000E+00 -0.45593999997E+02  0.45594000000E+02  0.51100000000E-03 0. -1.
    9900012    2    1    2    0    0 -0.34185135613E+02  0.21747276553E+02  0.34056022332E+01  0.50528860057E+02  0.30000000628E+02 0.  0.
         12    1    1    2    0    0  0.34185135613E+02 -0.21747276553E+02 -0.34056022332E+01  0.40659139943E+02  0.00000000000E+00 0. -1.
         11    1    3    3    0    0 -0.14252084218E+01  0.20334855152E+01  0.29840113111E+01  0.38820878599E+01  0.51100000000E-03 0. -1.
        -11    1    3    3    0    0 -0.34196823704E+02  0.22345452634E+02  0.50196281359E+01  0.41157486217E+02  0.51100000000E-03 0.  1.
         12    1    3    3    0    0  0.14368965125E+01 -0.26316615960E+01 -0.45980372138E+01  0.54892859793E+01  0.00000000000E+00 0. -1.
</event>
<event>
 7    1  0.5408841E-013  0.5052887E+02  0.7816164E-02  0.1300439E+00
        -11   -1    0    0    0    0  0.00000000000E+00  0.00000000000E+00  0.45593999997E+02  0.45594000000E+02  0.51100000000E-03 0.  1.
         11   -1    0    0    0    0 -0.00000000000E+00 -0.00000000000E+00 -0.45593999997E+02  0.45594000000E+02  0.51100000000E-03 0. -1.
    9900012    2    1    2    0    0  0.13734970387E+01  0.26972131037E+02  0.30393792984E+02  0.50528868200E+02  0.30000025380E+02 0.  0.
         12    1    1    2    0    0 -0.13734970387E+01 -0.26972131037E+02 -0.30393792984E+02  0.40659131800E+02  0.00000000000E+00 0. -1.
         11    1    3    3    0    0  0.79095215825E+01 -0.86312593127E+00  0.56559905787E+01  0.97619540935E+01  0.51100000000E-03 0. -1.
        -11    1    3    3    0    0 -0.19515227159E+01  0.10355906302E+02  0.19139752743E+02  0.21849104594E+02  0.51100000000E-03 0.  1.
         12    1    3    3    0    0 -0.45845018279E+01  0.17479350666E+02  0.55980496624E+01  0.18917809512E+02  0.00000000000E+00 0. -1.
</event>
<event>
 7    1  0.5408841E-013  0.5052886E+02  0.7816164E-02  0.1300439E+00
        -11   -1    0    0    0    0  0.00000000000E+00  0.00000000000E+00  0.45593999997E+02  0.45594000000E+02  0.51100000000E-03 0.  1.
         11   -1    0    0    0    0 -0.00000000000E+00 -0.00000000000E+00 -0.45593999997E+02  0.45594000000E+02  0.51100000000E-03 0. -1.
    9900012    2    1    2    0    0 -0.22345060707E+02 -0.33556892920E+02  0.52724343883E+01  0.50528863698E+02  0.30000011696E+02 0.  0.
         12    1    1    2    0    0  0.22345060707E+02  0.33556892920E+02 -0.52724343883E+01  0.40659136302E+02  0.00000000000E+00 0. -1.
         11    1    3    3    0    0 -0.11417783003E+02 -0.32365614146E+02  0.22769424822E+01  0.34395976728E+02  0.51100000000E-03 0.  1.
        -11    1    3    3    0    0 -0.92289466858E+01 -0.23273974842E+01 -0.28541713184E+01  0.99366256926E+01  0.51100000000E-03 0. -1.
        -12    1    3    3    0    0 -0.16983310182E+01  0.11361187105E+01  0.58496632245E+01  0.61962612769E+01  0.00000000000E+00 0.  1.
</event>
<event>
 7    1  0.5408841E-013  0.5052887E+02  0.7816164E-02  0.1300439E+00
        -11   -1    0    0    0    0  0.00000000000E+00  0.00000000000E+00  0.45593999997E+02  0.45594000000E+02  0.51100000000E-03 0.  1.
         11   -1    0    0    0    0 -0.00000000000E+00 -0.00000000000E+00 -0.45593999997E+02  0.45594000000E+02  0.51100000000E-03 0. -1.
    9900012    2    1    2    0    0 -0.25537847643E+02 -0.29939457759E+02  0.10228021961E+02  0.50528865401E+02  0.30000016872E+02 0.  0.
         12    1    1    2    0    0  0.25537847643E+02  0.29939457759E+02 -0.10228021961E+02  0.40659134599E+02  0.00000000000E+00 0. -1.
         11    1    3    3    0    0 -0.25972920424E+02 -0.15919471947E+02  0.12311949447E+02  0.32857362673E+02  0.51100000000E-03 0.  1.
        -11    1    3    3    0    0  0.31552443412E+00  0.16890369196E+01  0.40691581975E+00  0.17657808838E+01  0.51100000000E-03 0. -1.
        -12    1    3    3    0    0  0.11954834683E+00 -0.15709022732E+02 -0.24908433056E+01  0.15905721844E+02  0.00000000000E+00 0.  1.
</event>
<event>
 7    1  0.5408841E-013  0.5052886E+02  0.7816164E-02  0.1300439E+00
        -11   -1    0    0    0    0  0.00000000000E+00  0.00000000000E+00  0.45593999997E+02  0.45594000000E+02  0.51100000000E-03 0. -1.
         11   -1    0    0    0    0 -0.00000000000E+00 -0.00000000000E+00 -0.45593999997E+02  0.45594000000E+02  0.51100000000E-03 0.  1.
    9900012    2    1    2    0    0  0.21617866655E+02  0.32955052221E+02  0.99899040277E+01  0.50528858247E+02  0.29999995127E+02 0.  0.
         12    1    1    2    0    0 -0.21617866655E+02 -0.32955052221E+02 -0.99899040277E+01  0.40659141753E+02  0.00000000000E+00 0. -1.
         11    1    3    3    0    0  0.15636996545E+02  0.62947822016E+01  0.62494307706E+01  0.17977634136E+02  0.51100000000E-03 0. -1.
        -11    1    3    3    0    0 -0.44280187856E+01  0.38282318465E+01 -0.29880567295E+01  0.65720006631E+01  0.51100000000E-03 0.  1.
        -12    1    3    3    0    0  0.10408888896E+02  0.22832038173E+02  0.67285299866E+01  0.25979223448E+02  0.00000000000E+00 0.  1.
</event>
<event>
 7    1  0.5408841E-013  0.5052887E+02  0.7816164E-02  0.1300439E+00
        -11   -1    0    0    0    0  0.00000000000E+00  0.00000000000E+00  0.45593999997E+02  0.45594000000E+02  0.51100000000E-03 0.  1.
         11   -1    0    0    0    0 -0.00000000000E+00 -0.00000000000E+00 -0.45593999997E+02  0.45594000000E+02  0.51100000000E-03 0. -1.
    9900012    2    1    2    0    0 -0.20818706437E+02  0.32692426682E+02  0.12286231932E+02  0.50528870703E+02  0.30000032989E+02 0.  0.
         12    1    1    2    0    0  0.20818706437E+02 -0.32692426682E+02 -0.12286231932E+02  0.40659129297E+02  0.00000000000E+00 0. -1.
         11    1    3    3    0    0 -0.10167815201E+02  0.13519532031E+02  0.80731658596E+01  0.18744018234E+02  0.51100000000E-03 0.  1.
        -11    1    3    3    0    0  0.34536560551E+01 -0.33499201639E+00 -0.49347896991E+01  0.60325872919E+01  0.51100000000E-03 0. -1.
         12    1    3    3    0    0 -0.14104547291E+02  0.19507886667E+02  0.91478557718E+01  0.25752265177E+02  0.00000000000E+00 0. -1.
</event>
<event>
 7    1  0.5408841E-013  0.5052887E+02  0.7816164E-02  0.1300439E+00
        -11   -1    0    0    0    0  0.00000000000E+00  0.00000000000E+00  0.45593999997E+02  0.45594000000E+02  0.51100000000E-03 0. -1.
         11   -1    0    0    0    0 -0.00000000000E+00 -0.00000000000E+00 -0.45593999997E+02  0.45594000000E+02  0.51100000000E-03 0.  1.
    9900012    2    1    2    0    0 -0.35706985463E+02  0.13266617800E+02 -0.14218740992E+02  0.50528873668E+02  0.30000042001E+02 0.  0.
         12    1    1    2    0    0  0.35706985463E+02 -0.13266617800E+02  0.14218740992E+02  0.40659126332E+02  0.00000000000E+00 0. -1.
         11    1    3    3    0    0 -0.39059060297E+01  0.53559194270E+01  0.59117135226E+01  0.88820229597E+01  0.51100000000E-03 0. -1.
        -11    1    3    3    0    0  0.43053686314E+00  0.28080407721E+00  0.18332633471E+01  0.19039610503E+01  0.51100000000E-03 0.  1.
        -12    1    3    3    0    0 -0.32231616296E+02  0.76298942959E+01 -0.21963717862E+02  0.39742889658E+02  0.00000000000E+00 0.  1.
</event>
<event>
 7    1  0.5408841E-013  0.5052886E+02  0.7816164E-02  0.1300439E+00
        -11   -1    0    0    0    0  0.00000000000E+00  0.00000000000E+00  0.45593999997E+02  0.45594000000E+02  0.51100000000E-03 0.  1.
         11   -1    0    0    0    0 -0.00000000000E+00 -0.00000000000E+00 -0.45593999997E+02  0.45594000000E+02  0.51100000000E-03 0. -1.
    9900012    2    1    2    0    0  0.34933533975E+02  0.20790403910E+02 -0.75676647712E+00  0.50528863435E+02  0.30000010896E+02 0.  0.
         12    1    1    2    0    0 -0.34933533975E+02 -0.20790403910E+02  0.75676647712E+00  0.40659136565E+02  0.00000000000E+00 0. -1.
         11    1    3    3    0    0  0.83788602114E-01  0.46838007982E+01 -0.24236788932E+01  0.52743938121E+01  0.51100000000E-03 0. -1.
        -11    1    3    3    0    0  0.53685702480E+01  0.14714838075E+02 -0.39453331104E+00  0.15668556502E+02  0.51100000000E-03 0.  1.
        -12    1    3    3    0    0  0.29481175125E+02  0.13917650370E+01  0.20614457271E+01  0.29585913120E+02  0.00000000000E+00 0.  1.
</event>
<event>
 7    1  0.5408841E-013  0.5052886E+02  0.7816164E-02  0.1300439E+00
        -11   -1    0    0    0    0  0.00000000000E+00  0.00000000000E+00  0.45593999997E+02  0.45594000000E+02  0.51100000000E-03 0.  1.
         11   -1    0    0    0    0 -0.00000000000E+00 -0.00000000000E+00 -0.45593999997E+02  0.45594000000E+02  0.51100000000E-03 0. -1.
    9900012    2    1    2    0    0  0.10843528858E+02  0.69628975990E+01  0.38562958766E+02  0.50528857734E+02  0.29999993568E+02 0.  0.
         12    1    1    2    0    0 -0.10843528858E+02 -0.69628975990E+01 -0.38562958766E+02  0.40659142266E+02  0.00000000000E+00 0. -1.
         11    1    3    3    0    0  0.73556778580E+01  0.35569052432E+00 -0.23615157074E+01  0.77336452722E+01  0.51100000000E-03 0. -1.
        -11    1    3    3    0    0  0.32259934845E+01 -0.13485655242E+01  0.21825765258E+02  0.22104065062E+02  0.51100000000E-03 0.  1.
        -12    1    3    3    0    0  0.26185751525E+00  0.79557725989E+01  0.19098709215E+02  0.20691147399E+02  0.00000000000E+00 0.  1.
</event>
<event>
 7    1  0.5408841E-013  0.5052886E+02  0.7816164E-02  0.1300439E+00
        -11   -1    0    0    0    0  0.00000000000E+00  0.00000000000E+00  0.45593999997E+02  0.45594000000E+02  0.51100000000E-03 0.  1.
         11   -1    0    0    0    0 -0.00000000000E+00 -0.00000000000E+00 -0.45593999997E+02  0.45594000000E+02  0.51100000000E-03 0. -1.
    9900012    2    1    2    0    0 -0.21400718105E+00 -0.40209242651E+02  0.60279954458E+01  0.50528859297E+02  0.29999998319E+02 0.  0.
         12    1    1    2    0    0  0.21400718105E+00  0.40209242651E+02 -0.60279954458E+01  0.40659140703E+02  0.00000000000E+00 0. -1.
         11    1    3    3    0    0  0.43003201112E+01 -0.11125035650E+02  0.34187948266E+01  0.12407551314E+02  0.51100000000E-03 0.  1.
        -11    1    3    3    0    0 -0.69835013317E+01  0.15970959627E+01  0.15098725177E+01  0.73211830769E+01  0.51100000000E-03 0. -1.
         12    1    3    3    0    0  0.24691740395E+01 -0.30681302963E+02  0.10993281014E+01  0.30800124906E+02  0.00000000000E+00 0. -1.
</event>
<event>
 7    1  0.5408841E-013  0.5052886E+02  0.7816164E-02  0.1300439E+00
        -11   -1    0    0    0    0  0.00000000000E+00  0.00000000000E+00  0.45593999997E+02  0.45594000000E+02  0.51100000000E-03 0.  1.
         11   -1    0    0    0    0 -0.00000000000E+00 -0.00000000000E+00 -0.45593999997E+02  0.45594000000E+02  0.51100000000E-03 0. -1.
    9900012    2    1    2    0    0  0.52051462219E+01 -0.27283563798E+02  0.29693080495E+02  0.50528862897E+02  0.30000009261E+02 0.  0.
         12    1    1    2    0    0 -0.52051462219E+01  0.27283563798E+02 -0.29693080495E+02  0.40659137103E+02  0.00000000000E+00 0. -1.
         11    1    3    3    0    0  0.19659718558E+01 -0.10705906327E+01  0.12230134794E+01  0.25508766871E+01  0.51100000000E-03 0. -1.
        -11    1    3    3    0    0  0.10702207015E+02 -0.50688351463E+01  0.21416124513E+02  0.24472039436E+02  0.51100000000E-03 0.  1.
         12    1    3    3    0    0 -0.74630326494E+01 -0.21144138019E+02  0.70539425020E+01  0.23505946773E+02  0.00000000000E+00 0. -1.
</event>
<event>
 7    1  0.5408841E-013  0.5052886E+02  0.7816164E-02  0.1300439E+00
        -11   -1    0    0    0    0  0.00000000000E+00  0.00000000000E+00  0.45593999997E+02  0.45594000000E+02  0.51100000000E-03 0.  1.
         11   -1    0    0    0    0 -0.00000000000E+00 -0.00000000000E+00 -0.45593999997E+02  0.45594000000E+02  0.51100000000E-03 0. -1.
    9900012    2    1    2    0    0 -0.54020727910E+01  0.19261181764E+02  0.35397603988E+02  0.50528857345E+02  0.29999992386E+02 0.  0.
         12    1    1    2    0    0  0.54020727910E+01 -0.19261181764E+02 -0.35397603988E+02  0.40659142655E+02  0.00000000000E+00 0. -1.
         11    1    3    3    0    0  0.35254697110E+01  0.52535448696E+01  0.15483237649E+02  0.16726007256E+02  0.51100000000E-03 0. -1.
        -11    1    3    3    0    0 -0.60246469739E+01  0.91265582987E+01  0.24286978682E+02  0.26635460787E+02  0.51100000000E-03 0.  1.
         12    1    3    3    0    0 -0.29028955281E+01  0.48810785953E+01 -0.43726123437E+01  0.71673893021E+01  0.00000000000E+00 0. -1.
</event>
<event>
 7    1  0.5408841E-013  0.5052886E+02  0.7816164E-02  0.1300439E+00
        -11   -1    0    0    0    0  0.00000000000E+00  0.00000000000E+00  0.45593999997E+02  0.45594000000E+02  0.51100000000E-03 0. -1.
         11   -1    0    0    0    0 -0.00000000000E+00 -0.00000000000E+00 -0.45593999997E+02  0.45594000000E+02  0.51100000000E-03 0.  1.
    9900012    2    1    2    0    0 -0.84098539718E+01 -0.39166415672E+02 -0.69593148191E+01  0.50528858061E+02  0.29999994563E+02 0.  0.
         12    1    1    2    0    0  0.84098539718E+01  0.39166415672E+02  0.69593148191E+01  0.40659141939E+02  0.00000000000E+00 0. -1.
         11    1    3    3    0    0  0.62305990342E+01 -0.11957747817E+02 -0.13265388771E+00  0.13484275824E+02  0.51100000000E-03 0. -1.
        -11    1    3    3    0    0 -0.14984654006E+02 -0.18324004318E+02  0.29216170262E+01  0.23850468260E+02  0.51100000000E-03 0.  1.
         12    1    3    3    0    0  0.34420100025E+00 -0.88846635376E+01 -0.97482779576E+01  0.13194113977E+02  0.00000000000E+00 0. -1.
</event>
<event>
 7    1  0.5408841E-013  0.5052886E+02  0.7816164E-02  0.1300439E+00
        -11   -1    0    0    0    0  0.00000000000E+00  0.00000000000E+00  0.45593999997E+02  0.45594000000E+02  0.51100000000E-03 0. -1.
         11   -1    0    0    0    0 -0.00000000000E+00 -0.00000000000E+00 -0.45593999997E+02  0.45594000000E+02  0.51100000000E-03 0.  1.
    9900012    2    1    2    0    0  0.26263047198E+02  0.34228219763E+01 -0.30849675240E+02  0.50528858090E+02  0.29999994651E+02 0.  0.
         12    1    1    2    0    0 -0.26263047198E+02 -0.34228219763E+01  0.30849675240E+02  0.40659141910E+02  0.00000000000E+00 0. -1.
         11    1    3    3    0    0  0.20203707779E+02 -0.85693666385E+00 -0.89421465282E+01  0.22110769622E+02  0.51100000000E-03 0. -1.
        -11    1    3    3    0    0  0.10901515636E+02  0.17604719100E+01 -0.84786199788E+01  0.13922259210E+02  0.51100000000E-03 0.  1.
         12    1    3    3    0    0 -0.48421762166E+01  0.25192867301E+01 -0.13428908733E+02  0.14495829259E+02  0.00000000000E+00 0. -1.
</event>
<event>
 7    1  0.5408841E-013  0.5052886E+02  0.7816164E-02  0.1300439E+00
        -11   -1    0    0    0    0  0.00000000000E+00  0.00000000000E+00  0.45593999997E+02  0.45594000000E+02  0.51100000000E-03 0.  1.
         11   -1    0    0    0    0 -0.00000000000E+00 -0.00000000000E+00 -0.45593999997E+02  0.45594000000E+02  0.51100000000E-03 0. -1.
    9900012    2    1    2    0    0  0.34087756062E+01 -0.22999123033E+02  0.33355458566E+02  0.50528855548E+02  0.29999986924E+02 0.  0.
         12    1    1    2    0    0 -0.34087756062E+01  0.22999123033E+02 -0.33355458566E+02  0.40659144452E+02  0.00000000000E+00 0. -1.
         11    1    3    3    0    0 -0.59241410510E+01 -0.15015375346E+01  0.10824332821E+02  0.12430456284E+02  0.51100000000E-03 0. -1.
        -11    1    3    3    0    0 -0.15178488556E+01  0.23927010955E+01 -0.84501426941E+00  0.29568451189E+01  0.51100000000E-03 0.  1.
        -12    1    3    3    0    0  0.10850765513E+02 -0.23890286594E+02  0.23376140014E+02  0.35141554145E+02  0.00000000000E+00 0.  1.
</event>
<event>
 7    1  0.5408841E-013  0.5052884E+02  0.7816164E-02  0.1300439E+00
        -11   -1    0    0    0    0  0.00000000000E+00  0.00000000000E+00  0.45593999997E+02  0.45594000000E+02  0.51100000000E-03 0. -1.
         11   -1    0    0    0    0 -0.00000000000E+00 -0.00000000000E+00 -0.45593999997E+02  0.45594000000E+02  0.51100000000E-03 0.  1.
    9900012    2    1    2    0    0  0.19607524861E+01  0.46461066064E+01 -0.40345216761E+02  0.50528839010E+02  0.29999936655E+02 0.  0.
         12    1    1    2    0    0 -0.19607524861E+01 -0.46461066064E+01  0.40345216761E+02  0.40659160990E+02  0.00000000000E+00 0. -1.
         11    1    3    3    0    0  0.26582005927E+01  0.48260159705E+01  0.30222375786E+01  0.62841372345E+01  0.51100000000E-03 0. -1.
        -11    1    3    3    0    0  0.53574667386E+00  0.19849741902E+01 -0.22349111679E+01  0.30367705254E+01  0.51100000000E-03 0.  1.
        -12    1    3    3    0    0 -0.12331947805E+01 -0.21648835544E+01 -0.41132543172E+02  0.41207931250E+02  0.00000000000E+00 0.  1.
</event>
<event>
 7    1  0.5408841E-013  0.5052886E+02  0.7816164E-02  0.1300439E+00
        -11   -1    0    0    0    0  0.00000000000E+00  0.00000000000E+00  0.45593999997E+02  0.45594000000E+02  0.51100000000E-03 0. -1.
         11   -1    0    0    0    0 -0.00000000000E+00 -0.00000000000E+00 -0.45593999997E+02  0.45594000000E+02  0.51100000000E-03 0.  1.
    9900012    2    1    2    0    0  0.74674332643E+01 -0.39905354748E+02  0.22283606302E+01  0.50528862180E+02  0.30000007083E+02 0.  0.
         12    1    1    2    0    0 -0.74674332643E+01  0.39905354748E+02 -0.22283606302E+01  0.40659137820E+02  0.00000000000E+00 0. -1.
         11    1    3    3    0    0 -0.60858377152E+00 -0.13760300507E+02 -0.87830951299E+01  0.16335819679E+02  0.51100000000E-03 0.  1.
        -11    1    3    3    0    0 -0.32391990568E+01 -0.15094170366E+02  0.99090475288E+00  0.15469592175E+02  0.51100000000E-03 0. -1.
         12    1    3    3    0    0  0.11315216093E+02 -0.11050883875E+02  0.10020551007E+02  0.18723450327E+02  0.00000000000E+00 0. -1.
</event>
<event>
 7    1  0.5408841E-013  0.5052887E+02  0.7816164E-02  0.1300439E+00
        -11   -1    0    0    0    0  0.00000000000E+00  0.00000000000E+00  0.45593999997E+02  0.45594000000E+02  0.51100000000E-03 0. -1.
         11   -1    0    0    0    0 -0.00000000000E+00 -0.00000000000E+00 -0.45593999997E+02  0.45594000000E+02  0.51100000000E-03 0.  1.
    9900012    2    1    2    0    0 -0.10682091594E+02 -0.30120618579E+02 -0.25135746591E+02  0.50528874320E+02  0.30000043982E+02 0.  0.
         12    1    1    2    0    0  0.10682091594E+02  0.30120618579E+02  0.25135746591E+02  0.40659125680E+02  0.00000000000E+00 0. -1.
         11    1    3    3    0    0 -0.31717860514E-01 -0.51452675377E+00 -0.72711798003E+00  0.89131622953E+00  0.51100000000E-03 0.  1.
        -11    1    3    3    0    0 -0.39057475222E+00 -0.20991513858E+02  0.88647059373E+00  0.21013853360E+02  0.51100000000E-03 0. -1.
         12    1    3    3    0    0 -0.10259798981E+02 -0.86145779678E+01 -0.25295099205E+02  0.28623704730E+02  0.00000000000E+00 0. -1.
</event>
<event>
 7    1  0.5408841E-013  0.5052885E+02  0.7816164E-02  0.1300439E+00
        -11   -1    0    0    0    0  0.00000000000E+00  0.00000000000E+00  0.45593999997E+02  0.45594000000E+02  0.51100000000E-03 0.  1.
         11   -1    0    0    0    0 -0.00000000000E+00 -0.00000000000E+00 -0.45593999997E+02  0.45594000000E+02  0.51100000000E-03 0. -1.
    9900012    2    1    2    0    0 -0.37447202935E+02 -0.14839556753E+02 -0.55372224703E+01  0.50528852383E+02  0.29999977304E+02 0.  0.
         12    1    1    2    0    0  0.37447202935E+02  0.14839556753E+02  0.55372224703E+01  0.40659147617E+02  0.00000000000E+00 0. -1.
         11    1    3    3    0    0 -0.15094187282E+02 -0.13137713438E+02  0.97087267155E+00  0.20034385393E+02  0.51100000000E-03 0. -1.
        -11    1    3    3    0    0 -0.18007174289E+02 -0.61596411637E+01  0.28611636188E+01  0.19245408872E+02  0.51100000000E-03 0.  1.
         12    1    3    3    0    0 -0.43458413633E+01  0.44577978488E+01 -0.93692587606E+01  0.11249058118E+02  0.00000000000E+00 0. -1.
</event>
<event>
 7    1  0.5408841E-013  0.5052886E+02  0.7816164E-02  0.1300439E+00
        -11   -1    0    0    0    0  0.00000000000E+00  0.00000000000E+00  0.45593999997E+02  0.45594000000E+02  0.51100000000E-03 0. -1.
         11   -1    0    0    0    0 -0.00000000000E+00 -0.00000000000E+00 -0.45593999997E+02  0.45594000000E+02  0.51100000000E-03 0.  1.
    9900012    2    1    2    0    0 -0.32433442029E+02  0.22928808100E+02 -0.86894988174E+01  0.50528858439E+02  0.29999995712E+02 0.  0.
         12    1    1    2    0    0  0.32433442029E+02 -0.22928808100E+02  0.86894988174E+01  0.40659141561E+02  0.00000000000E+00 0. -1.
         11    1    3    3    0    0 -0.83634365250E+01  0.12348495994E+02 -0.14360339115E+01  0.14983144446E+02  0.51100000000E-03 0. -1.
        -11    1    3    3    0    0 -0.10777816340E+02  0.16892070780E+02 -0.50794992179E+01  0.20671349565E+02  0.51100000000E-03 0.  1.
         12    1    3    3    0    0 -0.13292189164E+02 -0.63117586736E+01 -0.21739656880E+01  0.14874364428E+02  0.00000000000E+00 0. -1.
</event>
<event>
 7    1  0.5408841E-013  0.5052886E+02  0.7816164E-02  0.1300439E+00
        -11   -1    0    0    0    0  0.00000000000E+00  0.00000000000E+00  0.45593999997E+02  0.45594000000E+02  0.51100000000E-03 0. -1.
         11   -1    0    0    0    0 -0.00000000000E+00 -0.00000000000E+00 -0.45593999997E+02  0.45594000000E+02  0.51100000000E-03 0.  1.
    9900012    2    1    2    0    0 -0.23223635190E+02  0.30809634269E+02  0.12829462005E+02  0.50528857233E+02  0.29999992044E+02 0.  0.
         12    1    1    2    0    0  0.23223635190E+02 -0.30809634269E+02 -0.12829462005E+02  0.40659142767E+02  0.00000000000E+00 0. -1.
         11    1    3    3    0    0  0.34175687273E+01  0.26406010828E+01  0.77032785492E+00  0.43870212388E+01  0.51100000000E-03 0. -1.
        -11    1    3    3    0    0 -0.25491668545E+02  0.19162942344E+02  0.16641331734E+02  0.35971898013E+02  0.51100000000E-03 0.  1.
         12    1    3    3    0    0 -0.11495353727E+01  0.90060908423E+01 -0.45821975847E+01  0.10169937981E+02  0.00000000000E+00 0. -1.
</event>
<event>
 7    1  0.5408841E-013  0.5052885E+02  0.7816164E-02  0.1300439E+00
        -11   -1    0    0    0    0  0.00000000000E+00  0.00000000000E+00  0.45593999997E+02  0.45594000000E+02  0.51100000000E-03 0.  1.
         11   -1    0    0    0    0 -0.00000000000E+00 -0.00000000000E+00 -0.45593999997E+02  0.45594000000E+02  0.51100000000E-03 0. -1.
    9900012    2    1    2    0    0 -0.12372283099E+02  0.68139904834E+00  0.38725038508E+02  0.50528852183E+02  0.29999976697E+02 0.  0.
         12    1    1    2    0    0  0.12372283099E+02 -0.68139904834E+00 -0.38725038508E+02  0.40659147817E+02  0.00000000000E+00 0. -1.
         11    1    3    3    0    0  0.44782005206E+01 -0.72294162769E+01  0.18137361948E+02  0.20032040293E+02  0.51100000000E-03 0. -1.
        -11    1    3    3    0    0 -0.13713077288E+01 -0.24109041319E+01  0.34800227773E-01  0.27738339779E+01  0.51100000000E-03 0.  1.
        -12    1    3    3    0    0 -0.15479175891E+02  0.10321719457E+02  0.20552876332E+02  0.27722977912E+02  0.00000000000E+00 0.  1.
</event>
<event>
 7    1  0.5408841E-013  0.5052886E+02  0.7816164E-02  0.1300439E+00
        -11   -1    0    0    0    0  0.00000000000E+00  0.00000000000E+00  0.45593999997E+02  0.45594000000E+02  0.51100000000E-03 0.  1.
         11   -1    0    0    0    0 -0.00000000000E+00 -0.00000000000E+00 -0.45593999997E+02  0.45594000000E+02  0.51100000000E-03 0. -1.
    9900012    2    1    2    0    0 -0.65611497007E+01 -0.39570595541E+02  0.66547180514E+01  0.50528856019E+02  0.29999988356E+02 0.  0.
         12    1    1    2    0    0  0.65611497007E+01  0.39570595541E+02 -0.66547180514E+01  0.40659143981E+02  0.00000000000E+00 0. -1.
         11    1    3    3    0    0 -0.27075722861E+01 -0.92379240647E-01  0.38464568817E+01  0.47047542351E+01  0.51100000000E-03 0.  1.
        -11    1    3    3    0    0 -0.55061830060E+01 -0.11167011969E+01 -0.39083307246E+01  0.68439843784E+01  0.51100000000E-03 0. -1.
        -12    1    3    3    0    0  0.16526055914E+01 -0.38361515104E+02  0.67165918943E+01  0.38980117406E+02  0.00000000000E+00 0.  1.
</event>
<event>
 7    1  0.5408841E-013  0.5052886E+02  0.7816164E-02  0.1300439E+00
        -11   -1    0    0    0    0  0.00000000000E+00  0.00000000000E+00  0.45593999997E+02  0.45594000000E+02  0.51100000000E-03 0.  1.
         11   -1    0    0    0    0 -0.00000000000E+00 -0.00000000000E+00 -0.45593999997E+02  0.45594000000E+02  0.51100000000E-03 0. -1.
    9900012    2    1    2    0    0 -0.17167476809E+02 -0.16231168884E+02  0.33090668682E+02  0.50528862562E+02  0.30000008245E+02 0.  0.
         12    1    1    2    0    0  0.17167476809E+02  0.16231168884E+02 -0.33090668682E+02  0.40659137438E+02  0.00000000000E+00 0. -1.
         11    1    3    3    0    0 -0.30596580067E+01 -0.55769559827E+01  0.65430545965E+00  0.63946900665E+01  0.51100000000E-03 0. -1.
        -11    1    3    3    0    0 -0.10458867410E+02 -0.18504662603E+02  0.22397879439E+02  0.30878397775E+02  0.51100000000E-03 0.  1.
         12    1    3    3    0    0 -0.36489513929E+01  0.78504497012E+01  0.10038483783E+02  0.13255774721E+02  0.00000000000E+00 0. -1.
</event>
<event>
 7    1  0.5408841E-013  0.5052885E+02  0.7816164E-02  0.1300439E+00
        -11   -1    0    0    0    0  0.00000000000E+00  0.00000000000E+00  0.45593999997E+02  0.45594000000E+02  0.51100000000E-03 0.  1.
         11   -1    0    0    0    0 -0.00000000000E+00 -0.00000000000E+00 -0.45593999997E+02  0.45594000000E+02  0.51100000000E-03 0. -1.
    9900012    2    1    2    0    0 -0.22924553756E+02 -0.19774103935E+01  0.33521949450E+02  0.50528850824E+02  0.29999972564E+02 0.  0.
         12    1    1    2    0    0  0.22924553756E+02  0.19774103935E+01 -0.33521949450E+02  0.40659149176E+02  0.00000000000E+00 0. -1.
         11    1    3    3    0    0 -0.17284741875E+02  0.27959242461E+01  0.12858471882E+02  0.21723715002E+02  0.51100000000E-03 0. -1.
        -11    1    3    3    0    0 -0.73344222096E+01  0.45316184130E+01  0.36973041320E+01  0.93807980841E+01  0.51100000000E-03 0.  1.
         12    1    3    3    0    0  0.16946103289E+01 -0.93049530526E+01  0.16966173436E+02  0.19424337738E+02  0.00000000000E+00 0. -1.
</event>
<event>
 7    1  0.5408841E-013  0.5052886E+02  0.7816164E-02  0.1300439E+00
        -11   -1    0    0    0    0  0.00000000000E+00  0.00000000000E+00  0.45593999997E+02  0.45594000000E+02  0.51100000000E-03 0.  1.
         11   -1    0    0    0    0 -0.00000000000E+00 -0.00000000000E+00 -0.45593999997E+02  0.45594000000E+02  0.51100000000E-03 0. -1.
    9900012    2    1    2    0    0  0.13531156744E+02 -0.25599407699E+02  0.28543714445E+02  0.50528861892E+02  0.30000006206E+02 0.  0.
         12    1    1    2    0    0 -0.13531156744E+02  0.25599407699E+02 -0.28543714445E+02  0.40659138108E+02  0.00000000000E+00 0. -1.
         11    1    3    3    0    0  0.13976839905E+01 -0.12869106679E+01  0.53250099244E+01  0.56537943507E+01  0.51100000000E-03 0. -1.
        -11    1    3    3    0    0  0.21235323317E+01  0.37223232295E+01  0.12535604172E+02  0.13247884812E+02  0.51100000000E-03 0.  1.
        -12    1    3    3    0    0  0.10009940422E+02 -0.28034820260E+02  0.10683100350E+02  0.31627182729E+02  0.00000000000E+00 0.  1.
</event>
<event>
 7    1  0.5408841E-013  0.5052885E+02  0.7816164E-02  0.1300439E+00
        -11   -1    0    0    0    0  0.00000000000E+00  0.00000000000E+00  0.45593999997E+02  0.45594000000E+02  0.51100000000E-03 0.  1.
         11   -1    0    0    0    0 -0.00000000000E+00 -0.00000000000E+00 -0.45593999997E+02  0.45594000000E+02  0.51100000000E-03 0. -1.
    9900012    2    1    2    0    0 -0.10097082163E+02 -0.19891114105E+02  0.33993508998E+02  0.50528854134E+02  0.29999982627E+02 0.  0.
         12    1    1    2    0    0  0.10097082163E+02  0.19891114105E+02 -0.33993508998E+02  0.40659145866E+02  0.00000000000E+00 0. -1.
         11    1    3    3    0    0  0.76449208997E-01 -0.20843460190E+02  0.14065241712E+02  0.25145311727E+02  0.51100000000E-03 0.  1.
        -11    1    3    3    0    0 -0.19138371961E-01 -0.42925897646E+01  0.55433816605E+01  0.70111178609E+01  0.51100000000E-03 0. -1.
        -12    1    3    3    0    0 -0.10154393000E+02  0.52449358491E+01  0.14384885626E+02  0.18372424547E+02  0.00000000000E+00 0.  1.
</event>
<event>
 7    1  0.5408841E-013  0.5052886E+02  0.7816164E-02  0.1300439E+00
        -11   -1    0    0    0    0  0.00000000000E+00  0.00000000000E+00  0.45593999997E+02  0.45594000000E+02  0.51100000000E-03 0.  1.
         11   -1    0    0    0    0 -0.00000000000E+00 -0.00000000000E+00 -0.45593999997E+02  0.45594000000E+02  0.51100000000E-03 0. -1.
    9900012    2    1    2    0    0  0.30436984490E+02  0.20156130012E+02  0.17902124067E+02  0.50528860216E+02  0.30000001111E+02 0.  0.
         12    1    1    2    0    0 -0.30436984490E+02 -0.20156130012E+02 -0.17902124067E+02  0.40659139784E+02  0.00000000000E+00 0. -1.
         11    1    3    3    0    0 -0.41406265327E+01  0.86017614214E+01  0.80866737630E+00  0.95806592059E+01  0.51100000000E-03 0. -1.
        -11    1    3    3    0    0  0.23088141038E+02  0.11126428546E+02  0.13050415875E+02  0.28760615841E+02  0.51100000000E-03 0.  1.
        -12    1    3    3    0    0  0.11489469984E+02  0.42794004447E+00  0.40430408159E+01  0.12187585169E+02  0.00000000000E+00 0.  1.
</event>
<event>
 7    1  0.5408841E-013  0.5052885E+02  0.7816164E-02  0.1300439E+00
        -11   -1    0    0    0    0  0.00000000000E+00  0.00000000000E+00  0.45593999997E+02  0.45594000000E+02  0.51100000000E-03 0.  1.
         11   -1    0    0    0    0 -0.00000000000E+00 -0.00000000000E+00 -0.45593999997E+02  0.45594000000E+02  0.51100000000E-03 0. -1.
    9900012    2    1    2    0    0 -0.27506829792E+01  0.30406174415E+02  0.26852644269E+02  0.50528853383E+02  0.29999980342E+02 0.  0.
         12    1    1    2    0    0  0.27506829792E+01 -0.30406174415E+02 -0.26852644269E+02  0.40659146617E+02  0.00000000000E+00 0. -1.
         11    1    3    3    0    0  0.49065451021E+00  0.18738244513E+01  0.17114554824E+02  0.17223819176E+02  0.51100000000E-03 0. -1.
        -11    1    3    3    0    0  0.18471479000E+01  0.77623587575E+01  0.88306863971E+01  0.11901562559E+02  0.51100000000E-03 0.  1.
         12    1    3    3    0    0 -0.50884853894E+01  0.20769991206E+02  0.90740304732E+00  0.21403471647E+02  0.00000000000E+00 0. -1.
</event>
<event>
 7    1  0.5408841E-013  0.5052886E+02  0.7816164E-02  0.1300439E+00
        -11   -1    0    0    0    0  0.00000000000E+00  0.00000000000E+00  0.45593999997E+02  0.45594000000E+02  0.51100000000E-03 0.  1.
         11   -1    0    0    0    0 -0.00000000000E+00 -0.00000000000E+00 -0.45593999997E+02  0.45594000000E+02  0.51100000000E-03 0. -1.
    9900012    2    1    2    0    0  0.39866992459E+02 -0.65183217953E+01 -0.46152053408E+01  0.50528859243E+02  0.29999998154E+02 0.  0.
         12    1    1    2    0    0 -0.39866992459E+02  0.65183217953E+01  0.46152053408E+01  0.40659140757E+02  0.00000000000E+00 0. -1.
         11    1    3    3    0    0  0.20060257275E+02 -0.42165603919E+01 -0.35157713318E+01  0.20797931431E+02  0.51100000000E-03 0. -1.
        -11    1    3    3    0    0  0.21507528742E+02  0.36445901826E+01 -0.50513349628E+01  0.22391355818E+02  0.51100000000E-03 0.  1.
        -12    1    3    3    0    0 -0.17007935576E+01 -0.59463515859E+01  0.39519009537E+01  0.73395719942E+01  0.00000000000E+00 0.  1.
</event>
<event>
 7    1  0.5408841E-013  0.5052886E+02  0.7816164E-02  0.1300439E+00
        -11   -1    0    0    0    0  0.00000000000E+00  0.00000000000E+00  0.45593999997E+02  0.45594000000E+02  0.51100000000E-03 0.  1.
         11   -1    0    0    0    0 -0.00000000000E+00 -0.00000000000E+00 -0.45593999997E+02  0.45594000000E+02  0.51100000000E-03 0. -1.
    9900012    2    1    2    0    0  0.20068807427E+02  0.19949000382E+02  0.29196678546E+02  0.50528859750E+02  0.29999999695E+02 0.  0.
         12    1    1    2    0    0 -0.20068807427E+02 -0.19949000382E+02 -0.29196678546E+02  0.40659140250E+02  0.00000000000E+00 0. -1.
         11    1    3    3    0    0  0.66459992771E+01  0.86805491094E+01 -0.17264021768E+01  0.11068048788E+02  0.51100000000E-03 0. -1.
        -11    1    3    3    0    0 -0.17361892847E+00  0.80952010520E+01  0.37768653421E+01  0.89346032748E+01  0.51100000000E-03 0.  1.
         12    1    3    3    0    0  0.13596427078E+02  0.31732502204E+01  0.27146215381E+02  0.30526207687E+02  0.00000000000E+00 0. -1.
</event>
<event>
 7    1  0.5408841E-013  0.5052886E+02  0.7816164E-02  0.1300439E+00
        -11   -1    0    0    0    0  0.00000000000E+00  0.00000000000E+00  0.45593999997E+02  0.45594000000E+02  0.51100000000E-03 0. -1.
         11   -1    0    0    0    0 -0.00000000000E+00 -0.00000000000E+00 -0.45593999997E+02  0.45594000000E+02  0.51100000000E-03 0.  1.
    9900012    2    1    2    0    0  0.15840130877E+02 -0.31665093072E+02 -0.19989439669E+02  0.50528861252E+02  0.30000004262E+02 0.  0.
         12    1    1    2    0    0 -0.15840130877E+02  0.31665093072E+02  0.19989439669E+02  0.40659138748E+02  0.00000000000E+00 0. -1.
         11    1    3    3    0    0  0.14622984778E+02 -0.62880143604E+01 -0.21509898653E+01  0.16062302639E+02  0.51100000000E-03 0. -1.
        -11    1    3    3    0    0  0.72336623394E+01 -0.16373469302E+02 -0.14781782528E+02  0.23214595900E+02  0.51100000000E-03 0.  1.
        -12    1    3    3    0    0 -0.60165162402E+01 -0.90036094092E+01 -0.30566672758E+01  0.11251962713E+02  0.00000000000E+00 0.  1.
</event>
<event>
 7    1  0.5408841E-013  0.5052885E+02  0.7816164E-02  0.1300439E+00
        -11   -1    0    0    0    0  0.00000000000E+00  0.00000000000E+00  0.45593999997E+02  0.45594000000E+02  0.51100000000E-03 0. -1.
         11   -1    0    0    0    0 -0.00000000000E+00 -0.00000000000E+00 -0.45593999997E+02  0.45594000000E+02  0.51100000000E-03 0.  1.
    9900012    2    1    2    0    0 -0.17867121766E+02  0.11780544199E+02 -0.34570959003E+02  0.50528850130E+02  0.29999970454E+02 0.  0.
         12    1    1    2    0    0  0.17867121766E+02 -0.11780544199E+02  0.34570959003E+02  0.40659149870E+02  0.00000000000E+00 0. -1.
         11    1    3    3    0    0  0.31087771440E+01  0.41284506301E+01 -0.29727229100E+01  0.59620199342E+01  0.51100000000E-03 0. -1.
        -11    1    3    3    0    0  0.80324634355E+00  0.93091186364E+01 -0.70284535450E+01  0.11692050888E+02  0.51100000000E-03 0.  1.
         12    1    3    3    0    0 -0.21779145254E+02 -0.16570250676E+01 -0.24569782548E+02  0.32874779307E+02  0.00000000000E+00 0. -1.
</event>
<event>
 7    1  0.5408841E-013  0.5052889E+02  0.7816164E-02  0.1300439E+00
        -11   -1    0    0    0    0  0.00000000000E+00  0.00000000000E+00  0.45593999997E+02  0.45594000000E+02  0.51100000000E-03 0.  1.
         11   -1    0    0    0    0 -0.00000000000E+00 -0.00000000000E+00 -0.45593999997E+02  0.45594000000E+02  0.51100000000E-03 0. -1.
    9900012    2    1    2    0    0 -0.11416372324E+02 -0.35229436645E+02  0.16784420647E+02  0.50528886141E+02  0.30000079914E+02 0.  0.
         12    1    1    2    0    0  0.11416372324E+02  0.35229436645E+02 -0.16784420647E+02  0.40659113859E+02  0.00000000000E+00 0. -1.
         11    1    3    3    0    0 -0.43533232777E+01 -0.13688221384E+01 -0.10156534277E+01  0.46751095979E+01  0.51100000000E-03 0. -1.
        -11    1    3    3    0    0 -0.11363504355E+02 -0.91334466133E+01  0.14460474881E+02  0.20534225389E+02  0.51100000000E-03 0.  1.
         12    1    3    3    0    0  0.43004553091E+01 -0.24727167893E+02  0.33395991936E+01  0.25319551154E+02  0.00000000000E+00 0. -1.
</event>
<event>
 7    1  0.5408841E-013  0.5052886E+02  0.7816164E-02  0.1300439E+00
        -11   -1    0    0    0    0  0.00000000000E+00  0.00000000000E+00  0.45593999997E+02  0.45594000000E+02  0.51100000000E-03 0.  1.
         11   -1    0    0    0    0 -0.00000000000E+00 -0.00000000000E+00 -0.45593999997E+02  0.45594000000E+02  0.51100000000E-03 0. -1.
    9900012    2    1    2    0    0  0.15762897274E+02 -0.93541582864E+01  0.36293198777E+02  0.50528862218E+02  0.30000007199E+02 0.  0.
         12    1    1    2    0    0 -0.15762897274E+02  0.93541582864E+01 -0.36293198777E+02  0.40659137782E+02  0.00000000000E+00 0. -1.
         11    1    3    3    0    0  0.77957818638E+01 -0.60188866116E+01  0.12020232150E+02  0.15539858175E+02  0.51100000000E-03 0. -1.
        -11    1    3    3    0    0  0.14097032924E+02 -0.77813379458E+01  0.21636543013E+02  0.26970642397E+02  0.51100000000E-03 0.  1.
         12    1    3    3    0    0 -0.61299175143E+01  0.44460662711E+01  0.26364236137E+01  0.80183616462E+01  0.00000000000E+00 0. -1.
</event>
<event>
 7    1  0.5408841E-013  0.5052887E+02  0.7816164E-02  0.1300439E+00
        -11   -1    0    0    0    0  0.00000000000E+00  0.00000000000E+00  0.45593999997E+02  0.45594000000E+02  0.51100000000E-03 0. -1.
         11   -1    0    0    0    0 -0.00000000000E+00 -0.00000000000E+00 -0.45593999997E+02  0.45594000000E+02  0.51100000000E-03 0.  1.
    9900012    2    1    2    0    0 -0.39323165415E+02 -0.10134960016E+02  0.20337584086E+01  0.50528869094E+02  0.30000028099E+02 0.  0.
         12    1    1    2    0    0  0.39323165415E+02  0.10134960016E+02 -0.20337584086E+01  0.40659130906E+02  0.00000000000E+00 0. -1.
         11    1    3    3    0    0 -0.23334048561E+02 -0.72851827261E+01  0.49582134040E+01  0.24942646011E+02  0.51100000000E-03 0. -1.
        -11    1    3    3    0    0 -0.15017612933E+02 -0.55170133017E+01  0.53251511713E+01  0.16861891034E+02  0.51100000000E-03 0.  1.
         12    1    3    3    0    0 -0.97150392073E+00  0.26672360118E+01 -0.82496061667E+01  0.87243320499E+01  0.00000000000E+00 0. -1.
</event>
<event>
 7    1  0.5408841E-013  0.5052886E+02  0.7816164E-02  0.1300439E+00
        -11   -1    0    0    0    0  0.00000000000E+00  0.00000000000E+00  0.45593999997E+02  0.45594000000E+02  0.51100000000E-03 0.  1.
         11   -1    0    0    0    0 -0.00000000000E+00 -0.00000000000E+00 -0.45593999997E+02  0.45594000000E+02  0.51100000000E-03 0. -1.
    9900012    2    1    2    0    0  0.32698633362E+02  0.12255371107E+02  0.20827172990E+02  0.50528857369E+02  0.29999992459E+02 0.  0.
         12    1    1    2    0    0 -0.32698633362E+02 -0.12255371107E+02 -0.20827172990E+02  0.40659142631E+02  0.00000000000E+00 0. -1.
         11    1    3    3    0    0 -0.10729372560E+00  0.68652914101E+01  0.21043826251E+01  0.71813762319E+01  0.51100000000E-03 0. -1.
        -11    1    3    3    0    0  0.69961567321E+01 -0.41619762704E+01  0.12843177421E+02  0.15205770681E+02  0.51100000000E-03 0.  1.
         12    1    3    3    0    0  0.25809770356E+02  0.95520559673E+01  0.58796129441E+01  0.28141710456E+02  0.00000000000E+00 0. -1.
</event>
<event>
 7    1  0.5408841E-013  0.5052885E+02  0.7816164E-02  0.1300439E+00
        -11   -1    0    0    0    0  0.00000000000E+00  0.00000000000E+00  0.45593999997E+02  0.45594000000E+02  0.51100000000E-03 0. -1.
         11   -1    0    0    0    0 -0.00000000000E+00 -0.00000000000E+00 -0.45593999997E+02  0.45594000000E+02  0.51100000000E-03 0.  1.
    9900012    2    1    2    0    0 -0.25682285395E+02 -0.28227943342E+02 -0.14027455514E+02  0.50528854945E+02  0.29999985090E+02 0.  0.
         12    1    1    2    0    0  0.25682285395E+02  0.28227943342E+02  0.14027455514E+02  0.40659145055E+02  0.00000000000E+00 0. -1.
         11    1    3    3    0    0 -0.30190771993E+01 -0.70715561396E+01 -0.26427513501E+01  0.81305515391E+01  0.51100000000E-03 0.  1.
        -11    1    3    3    0    0 -0.55515445160E+01 -0.13686588554E+02  0.68673034712E+01  0.16288100257E+02  0.51100000000E-03 0. -1.
        -12    1    3    3    0    0 -0.17111663680E+02 -0.74697986484E+01 -0.18252007635E+02  0.26110203148E+02  0.00000000000E+00 0.  1.
</event>
<event>
 7    1  0.5408841E-013  0.5052886E+02  0.7816164E-02  0.1300439E+00
        -11   -1    0    0    0    0  0.00000000000E+00  0.00000000000E+00  0.45593999997E+02  0.45594000000E+02  0.51100000000E-03 0.  1.
         11   -1    0    0    0    0 -0.00000000000E+00 -0.00000000000E+00 -0.45593999997E+02  0.45594000000E+02  0.51100000000E-03 0. -1.
    9900012    2    1    2    0    0 -0.21732250242E+01 -0.67204024501E+01  0.40040964361E+02  0.50528861506E+02  0.30000005033E+02 0.  0.
         12    1    1    2    0    0  0.21732250242E+01  0.67204024501E+01 -0.40040964361E+02  0.40659138494E+02  0.00000000000E+00 0. -1.
         11    1    3    3    0    0 -0.48257193707E+01 -0.84853219257E+01  0.23058836984E+02  0.25039932487E+02  0.51100000000E-03 0. -1.
        -11    1    3    3    0    0 -0.32823802974E+01 -0.69339922507E+01  0.36391879352E+01  0.84910516450E+01  0.51100000000E-03 0.  1.
         12    1    3    3    0    0  0.59348746440E+01  0.86989117263E+01  0.13342939442E+02  0.16997877374E+02  0.00000000000E+00 0. -1.
</event>
<event>
 7    1  0.5408841E-013  0.5052885E+02  0.7816164E-02  0.1300439E+00
        -11   -1    0    0    0    0  0.00000000000E+00  0.00000000000E+00  0.45593999997E+02  0.45594000000E+02  0.51100000000E-03 0.  1.
         11   -1    0    0    0    0 -0.00000000000E+00 -0.00000000000E+00 -0.45593999997E+02  0.45594000000E+02  0.51100000000E-03 0. -1.
    9900012    2    1    2    0    0  0.93192948979E+00  0.40568835524E+02  0.25431140630E+01  0.50528851737E+02  0.29999975339E+02 0.  0.
         12    1    1    2    0    0 -0.93192948979E+00 -0.40568835524E+02 -0.25431140630E+01  0.40659148263E+02  0.00000000000E+00 0. -1.
         11    1    3    3    0    0 -0.24289595172E+01  0.35698934038E+01  0.22059085149E+01  0.48487128074E+01  0.51100000000E-03 0.  1.
        -11    1    3    3    0    0 -0.14669151219E+01  0.23815028540E+01 -0.90637292484E+01  0.94854933434E+01  0.51100000000E-03 0. -1.
         12    1    3    3    0    0  0.48278041290E+01  0.34617439266E+02  0.94009347964E+01  0.36194645586E+02  0.00000000000E+00 0. -1.
</event>
<event>
 7    1  0.5408841E-013  0.5052886E+02  0.7816164E-02  0.1300439E+00
        -11   -1    0    0    0    0  0.00000000000E+00  0.00000000000E+00  0.45593999997E+02  0.45594000000E+02  0.51100000000E-03 0.  1.
         11   -1    0    0    0    0 -0.00000000000E+00 -0.00000000000E+00 -0.45593999997E+02  0.45594000000E+02  0.51100000000E-03 0. -1.
    9900012    2    1    2    0    0 -0.38139048724E+02 -0.42431942431E+01  0.13437768586E+02  0.50528863763E+02  0.30000011895E+02 0.  0.
         12    1    1    2    0    0  0.38139048724E+02  0.42431942431E+01 -0.13437768586E+02  0.40659136237E+02  0.00000000000E+00 0. -1.
         11    1    3    3    0    0 -0.10971573628E+01 -0.12080067093E+01  0.80036993433E+01  0.81683681313E+01  0.51100000000E-03 0. -1.
        -11    1    3    3    0    0 -0.46713802523E+01 -0.42291334470E+01 -0.53019529508E+01  0.82351726471E+01  0.51100000000E-03 0.  1.
        -12    1    3    3    0    0 -0.32370511109E+02  0.11939459132E+01  0.10736022193E+02  0.34125322985E+02  0.00000000000E+00 0.  1.
</event>
<event>
 7    1  0.5408841E-013  0.5052886E+02  0.7816164E-02  0.1300439E+00
        -11   -1    0    0    0    0  0.00000000000E+00  0.00000000000E+00  0.45593999997E+02  0.45594000000E+02  0.51100000000E-03 0.  1.
         11   -1    0    0    0    0 -0.00000000000E+00 -0.00000000000E+00 -0.45593999997E+02  0.45594000000E+02  0.51100000000E-03 0. -1.
    9900012    2    1    2    0    0  0.21068488734E+02 -0.25157272799E+02  0.24008254892E+02  0.50528857176E+02  0.29999991872E+02 0.  0.
         12    1    1    2    0    0 -0.21068488734E+02  0.25157272799E+02 -0.24008254892E+02  0.40659142824E+02  0.00000000000E+00 0. -1.
         11    1    3    3    0    0 -0.17704621766E+01 -0.89830366021E+01 -0.22899069874E+01  0.94378576587E+01  0.51100000000E-03 0. -1.
        -11    1    3    3    0    0 -0.19624616913E+01 -0.12162324550E+01  0.63603663861E+00  0.23947902082E+01  0.51100000000E-03 0.  1.
        -12    1    3    3    0    0  0.24801412602E+02 -0.14958003742E+02  0.25662125241E+02  0.38696209309E+02  0.00000000000E+00 0.  1.
</event>
<event>
 7    1  0.5408841E-013  0.5052889E+02  0.7816164E-02  0.1300439E+00
        -11   -1    0    0    0    0  0.00000000000E+00  0.00000000000E+00  0.45593999997E+02  0.45594000000E+02  0.51100000000E-03 0. -1.
         11   -1    0    0    0    0 -0.00000000000E+00 -0.00000000000E+00 -0.45593999997E+02  0.45594000000E+02  0.51100000000E-03 0.  1.
    9900012    2    1    2    0    0 -0.17021903184E+02 -0.29366159213E+01 -0.36807526599E+02  0.50528893820E+02  0.30000103254E+02 0.  0.
         12    1    1    2    0    0  0.17021903184E+02  0.29366159213E+01  0.36807526599E+02  0.40659106180E+02  0.00000000000E+00 0. -1.
         11    1    3    3    0    0 -0.12068099863E+02 -0.21755362700E+00 -0.88736192560E+01  0.14980903940E+02  0.51100000000E-03 0. -1.
        -11    1    3    3    0    0 -0.11240872222E+02  0.44665654733E+01 -0.18661406133E+02  0.22238603701E+02  0.51100000000E-03 0.  1.
         12    1    3    3    0    0  0.62870689011E+01 -0.71856277675E+01 -0.92725012099E+01  0.13309386179E+02  0.00000000000E+00 0. -1.
</event>
<event>
 7    1  0.5408841E-013  0.5052886E+02  0.7816164E-02  0.1300439E+00
        -11   -1    0    0    0    0  0.00000000000E+00  0.00000000000E+00  0.45593999997E+02  0.45594000000E+02  0.51100000000E-03 0.  1.
         11   -1    0    0    0    0 -0.00000000000E+00 -0.00000000000E+00 -0.45593999997E+02  0.45594000000E+02  0.51100000000E-03 0. -1.
    9900012    2    1    2    0    0  0.12837519896E+02  0.25963098373E+02  0.28535618453E+02  0.50528856936E+02  0.29999991141E+02 0.  0.
         12    1    1    2    0    0 -0.12837519896E+02 -0.25963098373E+02 -0.28535618453E+02  0.40659143064E+02  0.00000000000E+00 0. -1.
         11    1    3    3    0    0  0.10808104965E+02  0.14722152396E+02  0.79824881919E+01  0.19931809303E+02  0.51100000000E-03 0. -1.
        -11    1    3    3    0    0  0.73785802706E+01  0.82544842720E+01  0.22527619262E+01  0.11298446529E+02  0.51100000000E-03 0.  1.
        -12    1    3    3    0    0 -0.53491653394E+01  0.29864617050E+01  0.18300368335E+02  0.19298601104E+02  0.00000000000E+00 0.  1.
</event>
<event>
 7    1  0.5408841E-013  0.5052885E+02  0.7816164E-02  0.1300439E+00
        -11   -1    0    0    0    0  0.00000000000E+00  0.00000000000E+00  0.45593999997E+02  0.45594000000E+02  0.51100000000E-03 0.  1.
         11   -1    0    0    0    0 -0.00000000000E+00 -0.00000000000E+00 -0.45593999997E+02  0.45594000000E+02  0.51100000000E-03 0. -1.
    9900012    2    1    2    0    0 -0.85481938022E+01  0.15635206011E+02  0.36546342146E+02  0.50528850863E+02  0.29999972683E+02 0.  0.
         12    1    1    2    0    0  0.85481938022E+01 -0.15635206011E+02 -0.36546342146E+02  0.40659149137E+02  0.00000000000E+00 0. -1.
         11    1    3    3    0    0 -0.99037301953E+01  0.54307032509E+01  0.88946504023E+01  0.14376759566E+02  0.51100000000E-03 0. -1.
        -11    1    3    3    0    0 -0.83517094579E+01  0.78327965345E+01  0.75836012478E+01  0.13733708915E+02  0.51100000000E-03 0.  1.
         12    1    3    3    0    0  0.97072458510E+01  0.23717062251E+01  0.20068090496E+02  0.22418382382E+02  0.00000000000E+00 0. -1.
</event>
<event>
 7    1  0.5408841E-013  0.5052886E+02  0.7816164E-02  0.1300439E+00
        -11   -1    0    0    0    0  0.00000000000E+00  0.00000000000E+00  0.45593999997E+02  0.45594000000E+02  0.51100000000E-03 0.  1.
         11   -1    0    0    0    0 -0.00000000000E+00 -0.00000000000E+00 -0.45593999997E+02  0.45594000000E+02  0.51100000000E-03 0. -1.
    9900012    2    1    2    0    0  0.26694958305E+02  0.25209360488E+02  0.17465184800E+02  0.50528864062E+02  0.30000012803E+02 0.  0.
         12    1    1    2    0    0 -0.26694958305E+02 -0.25209360488E+02 -0.17465184800E+02  0.40659135938E+02  0.00000000000E+00 0. -1.
         11    1    3    3    0    0  0.51102422770E+01  0.28420405348E+00 -0.63791201512E+00  0.51577398222E+01  0.51100000000E-03 0. -1.
        -11    1    3    3    0    0 -0.42480221516E+01 -0.15208497675E+01  0.30958329483E+01  0.54720067727E+01  0.51100000000E-03 0.  1.
        -12    1    3    3    0    0  0.25832738180E+02  0.26446006202E+02  0.15007263867E+02  0.39899117467E+02  0.00000000000E+00 0.  1.
</event>
<event>
 7    1  0.5408841E-013  0.5052889E+02  0.7816164E-02  0.1300439E+00
        -11   -1    0    0    0    0  0.00000000000E+00  0.00000000000E+00  0.45593999997E+02  0.45594000000E+02  0.51100000000E-03 0.  1.
         11   -1    0    0    0    0 -0.00000000000E+00 -0.00000000000E+00 -0.45593999997E+02  0.45594000000E+02  0.51100000000E-03 0. -1.
    9900012    2    1    2    0    0 -0.22592554491E+02 -0.33351084306E+02 -0.55176789793E+01  0.50528891253E+02  0.30000095452E+02 0.  0.
         12    1    1    2    0    0  0.22592554491E+02  0.33351084306E+02  0.55176789793E+01  0.40659108747E+02  0.00000000000E+00 0. -1.
         11    1    3    3    0    0 -0.13735062412E+02 -0.22833394796E+02 -0.13295314417E+02  0.29778872428E+02  0.51100000000E-03 0. -1.
        -11    1    3    3    0    0 -0.16571462927E+00 -0.86076879522E+01 -0.46257064938E+00  0.86217008234E+01  0.51100000000E-03 0.  1.
         12    1    3    3    0    0 -0.86917774504E+01 -0.19100015576E+01  0.82402060870E+01  0.12128318002E+02  0.00000000000E+00 0. -1.
</event>
<event>
 7    1  0.5408841E-013  0.5052887E+02  0.7816164E-02  0.1300439E+00
        -11   -1    0    0    0    0  0.00000000000E+00  0.00000000000E+00  0.45593999997E+02  0.45594000000E+02  0.51100000000E-03 0. -1.
         11   -1    0    0    0    0 -0.00000000000E+00 -0.00000000000E+00 -0.45593999997E+02  0.45594000000E+02  0.51100000000E-03 0.  1.
    9900012    2    1    2    0    0  0.11313257115E+02  0.37551546607E+02 -0.10726441094E+02  0.50528868459E+02  0.30000026169E+02 0.  0.
         12    1    1    2    0    0 -0.11313257115E+02 -0.37551546607E+02  0.10726441094E+02  0.40659131541E+02  0.00000000000E+00 0. -1.
         11    1    3    3    0    0  0.13364924711E+02  0.24986983537E+02  0.12526793246E+01  0.28364410175E+02  0.51100000000E-03 0. -1.
        -11    1    3    3    0    0  0.56422615324E+01  0.67723567291E+01 -0.41004863892E+01  0.97218269763E+01  0.51100000000E-03 0.  1.
         12    1    3    3    0    0 -0.76939291280E+01  0.57922063400E+01 -0.78786340289E+01  0.12442631308E+02  0.00000000000E+00 0. -1.
</event>
<event>
 7    1  0.5408841E-013  0.5052886E+02  0.7816164E-02  0.1300439E+00
        -11   -1    0    0    0    0  0.00000000000E+00  0.00000000000E+00  0.45593999997E+02  0.45594000000E+02  0.51100000000E-03 0.  1.
         11   -1    0    0    0    0 -0.00000000000E+00 -0.00000000000E+00 -0.45593999997E+02  0.45594000000E+02  0.51100000000E-03 0. -1.
    9900012    2    1    2    0    0 -0.36880687236E+02  0.12440689986E+02  0.11756251430E+02  0.50528864421E+02  0.30000013894E+02 0.  0.
         12    1    1    2    0    0  0.36880687236E+02 -0.12440689986E+02 -0.11756251430E+02  0.40659135579E+02  0.00000000000E+00 0. -1.
         11    1    3    3    0    0  0.23055273830E+01 -0.31865005509E+00  0.75299063583E+00  0.24462194362E+01  0.51100000000E-03 0. -1.
        -11    1    3    3    0    0  0.11756904683E+00  0.83115710282E+00  0.67354651813E+01  0.67875721786E+01  0.51100000000E-03 0.  1.
        -12    1    3    3    0    0 -0.39303783666E+02  0.11928182938E+02  0.42677956126E+01  0.41295072806E+02  0.00000000000E+00 0.  1.
</event>
<event>
 7    1  0.5408841E-013  0.5052886E+02  0.7816164E-02  0.1300439E+00
        -11   -1    0    0    0    0  0.00000000000E+00  0.00000000000E+00  0.45593999997E+02  0.45594000000E+02  0.51100000000E-03 0.  1.
         11   -1    0    0    0    0 -0.00000000000E+00 -0.00000000000E+00 -0.45593999997E+02  0.45594000000E+02  0.51100000000E-03 0. -1.
    9900012    2    1    2    0    0 -0.10341038800E+02  0.25404589864E+02  0.30013922266E+02  0.50528858354E+02  0.29999995453E+02 0.  0.
         12    1    1    2    0    0  0.10341038800E+02 -0.25404589864E+02 -0.30013922266E+02  0.40659141646E+02  0.00000000000E+00 0. -1.
         11    1    3    3    0    0 -0.22916509576E+01  0.22573498173E+02  0.23242009751E+02  0.32480848225E+02  0.51100000000E-03 0. -1.
        -11    1    3    3    0    0 -0.11605413127E+01  0.50953518001E+01  0.90471836920E+01  0.10448014123E+02  0.51100000000E-03 0.  1.
         12    1    3    3    0    0 -0.68888465301E+01 -0.22642601095E+01 -0.22752711771E+01  0.75999960057E+01  0.00000000000E+00 0. -1.
</event>
<event>
 7    1  0.5408841E-013  0.5052886E+02  0.7816164E-02  0.1300439E+00
        -11   -1    0    0    0    0  0.00000000000E+00  0.00000000000E+00  0.45593999997E+02  0.45594000000E+02  0.51100000000E-03 0. -1.
         11   -1    0    0    0    0 -0.00000000000E+00 -0.00000000000E+00 -0.45593999997E+02  0.45594000000E+02  0.51100000000E-03 0.  1.
    9900012    2    1    2    0    0 -0.24434584934E+02  0.91485067333E+01 -0.31183677562E+02  0.50528857576E+02  0.29999993088E+02 0.  0.
         12    1    1    2    0    0  0.24434584934E+02 -0.91485067333E+01  0.31183677562E+02  0.40659142424E+02  0.00000000000E+00 0. -1.
         11    1    3    3    0    0 -0.13456682547E+02 -0.35355287337E+01 -0.23721586228E+02  0.27500834933E+02  0.51100000000E-03 0. -1.
        -11    1    3    3    0    0  0.11231997453E+01 -0.20070493632E+01  0.56975853511E+00  0.23694830372E+01  0.51100000000E-03 0.  1.
        -12    1    3    3    0    0 -0.12101102132E+02  0.14691084830E+02 -0.80318498696E+01  0.20658539606E+02  0.00000000000E+00 0.  1.
</event>
<event>
 7    1  0.5408841E-013  0.5052887E+02  0.7816164E-02  0.1300439E+00
        -11   -1    0    0    0    0  0.00000000000E+00  0.00000000000E+00  0.45593999997E+02  0.45594000000E+02  0.51100000000E-03 0.  1.
         11   -1    0    0    0    0 -0.00000000000E+00 -0.00000000000E+00 -0.45593999997E+02  0.45594000000E+02  0.51100000000E-03 0. -1.
    9900012    2    1    2    0    0  0.19379889199E+02  0.26763163177E+02  0.23692152790E+02  0.50528866802E+02  0.30000021130E+02 0.  0.
         12    1    1    2    0    0 -0.19379889199E+02 -0.26763163177E+02 -0.23692152790E+02  0.40659133198E+02  0.00000000000E+00 0. -1.
         11    1    3    3    0    0  0.84112422879E+00 -0.15458274655E+01 -0.17514734608E+01  0.24828878481E+01  0.51100000000E-03 0. -1.
        -11    1    3    3    0    0 -0.12296410562E+01  0.17120776523E+02  0.61186200934E+01  0.18222802144E+02  0.51100000000E-03 0.  1.
        -12    1    3    3    0    0  0.19768406026E+02  0.11188214120E+02  0.19325006158E+02  0.29823176809E+02  0.00000000000E+00 0.  1.
</event>
<event>
 7    1  0.5408841E-013  0.5052883E+02  0.7816164E-02  0.1300439E+00
        -11   -1    0    0    0    0  0.00000000000E+00  0.00000000000E+00  0.45593999997E+02  0.45594000000E+02  0.51100000000E-03 0.  1.
         11   -1    0    0    0    0 -0.00000000000E+00 -0.00000000000E+00 -0.45593999997E+02  0.45594000000E+02  0.51100000000E-03 0. -1.
    9900012    2    1    2    0    0 -0.17253633072E+00 -0.34418629265E+02 -0.21644778143E+02  0.50528828463E+02  0.29999904595E+02 0.  0.
         12    1    1    2    0    0  0.17253633072E+00  0.34418629265E+02  0.21644778143E+02  0.40659171537E+02  0.00000000000E+00 0. -1.
         11    1    3    3    0    0  0.31784791686E+01  0.92711789377E+00  0.84061849565E-01  0.33120000105E+01  0.51100000000E-03 0. -1.
        -11    1    3    3    0    0 -0.57834465506E+01 -0.38768034908E+00 -0.72963498351E+01  0.93185444804E+01  0.51100000000E-03 0.  1.
        -12    1    3    3    0    0  0.24324310513E+01 -0.34958066809E+02 -0.14432490157E+02  0.37898283972E+02  0.00000000000E+00 0.  1.
</event>
<event>
 7    1  0.5408841E-013  0.5052886E+02  0.7816164E-02  0.1300439E+00
        -11   -1    0    0    0    0  0.00000000000E+00  0.00000000000E+00  0.45593999997E+02  0.45594000000E+02  0.51100000000E-03 0.  1.
         11   -1    0    0    0    0 -0.00000000000E+00 -0.00000000000E+00 -0.45593999997E+02  0.45594000000E+02  0.51100000000E-03 0. -1.
    9900012    2    1    2    0    0  0.39377563564E+01  0.14453734126E+02  0.37798798034E+02  0.50528862182E+02  0.30000007088E+02 0.  0.
         12    1    1    2    0    0 -0.39377563564E+01 -0.14453734126E+02 -0.37798798034E+02  0.40659137818E+02  0.00000000000E+00 0. -1.
         11    1    3    3    0    0  0.31462278034E+01  0.14115566601E+02  0.18991793081E+02  0.23871241580E+02  0.51100000000E-03 0. -1.
        -11    1    3    3    0    0  0.73908696001E+01 -0.37812106194E+01  0.16617480647E+02  0.18575876036E+02  0.51100000000E-03 0.  1.
         12    1    3    3    0    0 -0.65993410472E+01  0.41193781438E+01  0.21895243062E+01  0.80817445664E+01  0.00000000000E+00 0. -1.
</event>
<event>
 7    1  0.5408841E-013  0.5052886E+02  0.7816164E-02  0.1300439E+00
        -11   -1    0    0    0    0  0.00000000000E+00  0.00000000000E+00  0.45593999997E+02  0.45594000000E+02  0.51100000000E-03 0.  1.
         11   -1    0    0    0    0 -0.00000000000E+00 -0.00000000000E+00 -0.45593999997E+02  0.45594000000E+02  0.51100000000E-03 0. -1.
    9900012    2    1    2    0    0  0.34168877493E+02  0.40803005560E+01  0.21656518853E+02  0.50528857724E+02  0.29999993539E+02 0.  0.
         12    1    1    2    0    0 -0.34168877493E+02 -0.40803005560E+01 -0.21656518853E+02  0.40659142276E+02  0.00000000000E+00 0. -1.
         11    1    3    3    0    0  0.16783509113E+02  0.65125590802E+00  0.25641749541E+02  0.30653052575E+02  0.51100000000E-03 0. -1.
        -11    1    3    3    0    0  0.46139327619E+01 -0.10994627159E+01  0.18907704270E+01  0.51060950700E+01  0.51100000000E-03 0.  1.
         12    1    3    3    0    0  0.12771435619E+02  0.45285073638E+01 -0.58760011156E+01  0.14769710079E+02  0.00000000000E+00 0. -1.
</event>
<event>
 7    1  0.5408841E-013  0.5052887E+02  0.7816164E-02  0.1300439E+00
        -11   -1    0    0    0    0  0.00000000000E+00  0.00000000000E+00  0.45593999997E+02  0.45594000000E+02  0.51100000000E-03 0. -1.
         11   -1    0    0    0    0 -0.00000000000E+00 -0.00000000000E+00 -0.45593999997E+02  0.45594000000E+02  0.51100000000E-03 0.  1.
    9900012    2    1    2    0    0  0.30945137675E+02  0.10614394244E+02 -0.24143285384E+02  0.50528866462E+02  0.30000020098E+02 0.  0.
         12    1    1    2    0    0 -0.30945137675E+02 -0.10614394244E+02  0.24143285384E+02  0.40659133538E+02  0.00000000000E+00 0. -1.
         11    1    3    3    0    0  0.15846746878E+02  0.11501436035E+02 -0.25603322541E+02  0.32232476524E+02  0.51100000000E-03 0.  1.
        -11    1    3    3    0    0  0.54285251923E+00 -0.21171606644E+01  0.28852174221E+01  0.36196046704E+01  0.51100000000E-03 0. -1.
        -12    1    3    3    0    0  0.14555538278E+02  0.12301188732E+01 -0.14251802658E+01  0.14676785267E+02  0.00000000000E+00 0.  1.
</event>
<event>
 7    1  0.5408841E-013  0.5052886E+02  0.7816164E-02  0.1300439E+00
        -11   -1    0    0    0    0  0.00000000000E+00  0.00000000000E+00  0.45593999997E+02  0.45594000000E+02  0.51100000000E-03 0. -1.
         11   -1    0    0    0    0 -0.00000000000E+00 -0.00000000000E+00 -0.45593999997E+02  0.45594000000E+02  0.51100000000E-03 0.  1.
    9900012    2    1    2    0    0 -0.96994683708E+01  0.31986764625E+02 -0.23150224232E+02  0.50528859824E+02  0.29999999922E+02 0.  0.
         12    1    1    2    0    0  0.96994683708E+01 -0.31986764625E+02  0.23150224232E+02  0.40659140176E+02  0.00000000000E+00 0. -1.
         11    1    3    3    0    0 -0.77111258312E+01  0.11286774414E+01 -0.14980719198E+02  0.16886601858E+02  0.51100000000E-03 0. -1.
        -11    1    3    3    0    0 -0.58174436112E+01  0.20450234784E+02 -0.74501204450E+01  0.22529071170E+02  0.51100000000E-03 0.  1.
        -12    1    3    3    0    0  0.38291010715E+01  0.10407852400E+02 -0.71938458862E+00  0.11113186796E+02  0.00000000000E+00 0.  1.
</event>
<event>
 7    1  0.5408841E-013  0.5052886E+02  0.7816164E-02  0.1300439E+00
        -11   -1    0    0    0    0  0.00000000000E+00  0.00000000000E+00  0.45593999997E+02  0.45594000000E+02  0.51100000000E-03 0.  1.
         11   -1    0    0    0    0 -0.00000000000E+00 -0.00000000000E+00 -0.45593999997E+02  0.45594000000E+02  0.51100000000E-03 0. -1.
    9900012    2    1    2    0    0 -0.36506107796E+00  0.40536251268E+02  0.31376205623E+01  0.50528860815E+02  0.30000002934E+02 0.  0.
         12    1    1    2    0    0  0.36506107796E+00 -0.40536251268E+02 -0.31376205623E+01  0.40659139185E+02  0.00000000000E+00 0. -1.
         11    1    3    3    0    0 -0.97979620930E+00  0.14698933179E+02  0.88695754664E+01  0.17195581014E+02  0.51100000000E-03 0. -1.
        -11    1    3    3    0    0  0.27929398393E+01  0.20978913981E+02  0.46471249994E+01  0.21668205182E+02  0.51100000000E-03 0.  1.
         12    1    3    3    0    0 -0.21782047079E+01  0.48584041080E+01 -0.10379079903E+02  0.11665074619E+02  0.00000000000E+00 0. -1.
</event>
<event>
 7    1  0.5408841E-013  0.5052886E+02  0.7816164E-02  0.1300439E+00
        -11   -1    0    0    0    0  0.00000000000E+00  0.00000000000E+00  0.45593999997E+02  0.45594000000E+02  0.51100000000E-03 0.  1.
         11   -1    0    0    0    0 -0.00000000000E+00 -0.00000000000E+00 -0.45593999997E+02  0.45594000000E+02  0.51100000000E-03 0. -1.
    9900012    2    1    2    0    0  0.18294375553E+02 -0.58264115790E+01  0.35840399605E+02  0.50528862127E+02  0.30000006921E+02 0.  0.
         12    1    1    2    0    0 -0.18294375553E+02  0.58264115790E+01 -0.35840399605E+02  0.40659137873E+02  0.00000000000E+00 0. -1.
         11    1    3    3    0    0  0.17449852731E+01  0.17678255355E+01 -0.39703851152E+01  0.46833896861E+01  0.51100000000E-03 0. -1.
        -11    1    3    3    0    0  0.44518252218E+01  0.16165793498E+00  0.11506780745E+01  0.46009717871E+01  0.51100000000E-03 0.  1.
         12    1    3    3    0    0  0.12097565058E+02 -0.77558950494E+01  0.38660106645E+02  0.41244500654E+02  0.00000000000E+00 0. -1.
</event>
<event>
 7    1  0.5408841E-013  0.5052886E+02  0.7816164E-02  0.1300439E+00
        -11   -1    0    0    0    0  0.00000000000E+00  0.00000000000E+00  0.45593999997E+02  0.45594000000E+02  0.51100000000E-03 0. -1.
         11   -1    0    0    0    0 -0.00000000000E+00 -0.00000000000E+00 -0.45593999997E+02  0.45594000000E+02  0.51100000000E-03 0.  1.
    9900012    2    1    2    0    0  0.11900940923E+01  0.82086616726E+00 -0.40633429179E+02  0.50528859428E+02  0.29999998718E+02 0.  0.
         12    1    1    2    0    0 -0.11900940923E+01 -0.82086616726E+00  0.40633429179E+02  0.40659140572E+02  0.00000000000E+00 0. -1.
         11    1    3    3    0    0  0.77507559643E+01 -0.64917374234E+01 -0.10573970152E+02  0.14629617830E+02  0.51100000000E-03 0. -1.
        -11    1    3    3    0    0 -0.17143541549E+01 -0.50560530358E+01 -0.40760121225E+01  0.67168860012E+01  0.51100000000E-03 0.  1.
        -12    1    3    3    0    0 -0.48463077170E+01  0.12368656626E+02 -0.25983446904E+02  0.29182355598E+02  0.00000000000E+00 0.  1.
</event>
<event>
 7    1  0.5408841E-013  0.5052885E+02  0.7816164E-02  0.1300439E+00
        -11   -1    0    0    0    0  0.00000000000E+00  0.00000000000E+00  0.45593999997E+02  0.45594000000E+02  0.51100000000E-03 0. -1.
         11   -1    0    0    0    0 -0.00000000000E+00 -0.00000000000E+00 -0.45593999997E+02  0.45594000000E+02  0.51100000000E-03 0.  1.
    9900012    2    1    2    0    0  0.59748396153E+01 -0.48719744809E+01 -0.39921569141E+02  0.50528849413E+02  0.29999968276E+02 0.  0.
         12    1    1    2    0    0 -0.59748396153E+01  0.48719744809E+01  0.39921569141E+02  0.40659150587E+02  0.00000000000E+00 0. -1.
         11    1    3    3    0    0 -0.12748436797E-01 -0.40708681363E+01 -0.35872069590E+01  0.54258809362E+01  0.51100000000E-03 0. -1.
        -11    1    3    3    0    0  0.18103636281E+01 -0.81256199661E+01 -0.35688209456E+02  0.36646301461E+02  0.51100000000E-03 0.  1.
         12    1    3    3    0    0  0.41772244240E+01  0.73245136215E+01 -0.64615272564E+00  0.84566670163E+01  0.00000000000E+00 0. -1.
</event>
<event>
 7    1  0.5408841E-013  0.5052887E+02  0.7816164E-02  0.1300439E+00
        -11   -1    0    0    0    0  0.00000000000E+00  0.00000000000E+00  0.45593999997E+02  0.45594000000E+02  0.51100000000E-03 0.  1.
         11   -1    0    0    0    0 -0.00000000000E+00 -0.00000000000E+00 -0.45593999997E+02  0.45594000000E+02  0.51100000000E-03 0. -1.
    9900012    2    1    2    0    0  0.15356731998E+02 -0.60072091486E+01  0.37165163895E+02  0.50528865887E+02  0.30000018351E+02 0.  0.
         12    1    1    2    0    0 -0.15356731998E+02  0.60072091486E+01 -0.37165163895E+02  0.40659134113E+02  0.00000000000E+00 0. -1.
         11    1    3    3    0    0  0.80162195305E+00 -0.11347498651E+02  0.11010892056E+02  0.15831868731E+02  0.51100000000E-03 0. -1.
        -11    1    3    3    0    0  0.16875766408E+02  0.24558714058E+01  0.14228247048E+02  0.22209588257E+02  0.51100000000E-03 0.  1.
         12    1    3    3    0    0 -0.23206563626E+01  0.28844180961E+01  0.11926024792E+02  0.12487408900E+02  0.00000000000E+00 0. -1.
</event>
<event>
 7    1  0.5408841E-013  0.5052886E+02  0.7816164E-02  0.1300439E+00
        -11   -1    0    0    0    0  0.00000000000E+00  0.00000000000E+00  0.45593999997E+02  0.45594000000E+02  0.51100000000E-03 0.  1.
         11   -1    0    0    0    0 -0.00000000000E+00 -0.00000000000E+00 -0.45593999997E+02  0.45594000000E+02  0.51100000000E-03 0. -1.
    9900012    2    1    2    0    0 -0.29695489880E+02  0.26575440988E+02  0.80678089597E+01  0.50528859277E+02  0.29999998258E+02 0.  0.
         12    1    1    2    0    0  0.29695489880E+02 -0.26575440988E+02 -0.80678089597E+01  0.40659140723E+02  0.00000000000E+00 0. -1.
         11    1    3    3    0    0 -0.16919458590E+02  0.18473761900E+02 -0.42053000546E+01  0.25401427253E+02  0.51100000000E-03 0. -1.
        -11    1    3    3    0    0 -0.82778748827E+01 -0.33380750946E+01  0.20947414475E+01  0.91680913992E+01  0.51100000000E-03 0.  1.
        -12    1    3    3    0    0 -0.44981564073E+01  0.11439754183E+02  0.10178367567E+02  0.15959340624E+02  0.00000000000E+00 0.  1.
</event>
<event>
 7    1  0.5408841E-013  0.5052887E+02  0.7816164E-02  0.1300439E+00
        -11   -1    0    0    0    0  0.00000000000E+00  0.00000000000E+00  0.45593999997E+02  0.45594000000E+02  0.51100000000E-03 0.  1.
         11   -1    0    0    0    0 -0.00000000000E+00 -0.00000000000E+00 -0.45593999997E+02  0.45594000000E+02  0.51100000000E-03 0. -1.
    9900012    2    1    2    0    0  0.15355488856E+02 -0.17394283465E+01  0.37607826439E+02  0.50528865006E+02  0.30000015672E+02 0.  0.
         12    1    1    2    0    0 -0.15355488856E+02  0.17394283465E+01 -0.37607826439E+02  0.40659134994E+02  0.00000000000E+00 0. -1.
         11    1    3    3    0    0 -0.23361340821E+01  0.25991590655E+01  0.39521722827E+01  0.52756815968E+01  0.51100000000E-03 0. -1.
        -11    1    3    3    0    0  0.16287803217E+02  0.17259749941E+01  0.35213448231E+02  0.38836303376E+02  0.51100000000E-03 0.  1.
         12    1    3    3    0    0  0.14038197216E+01 -0.60645624060E+01 -0.15577940746E+01  0.64168800336E+01  0.00000000000E+00 0. -1.
</event>
<event>
 7    1  0.5408841E-013  0.5052888E+02  0.7816164E-02  0.1300439E+00
        -11   -1    0    0    0    0  0.00000000000E+00  0.00000000000E+00  0.45593999997E+02  0.45594000000E+02  0.51100000000E-03 0. -1.
         11   -1    0    0    0    0 -0.00000000000E+00 -0.00000000000E+00 -0.45593999997E+02  0.45594000000E+02  0.51100000000E-03 0.  1.
    9900012    2    1    2    0    0 -0.32116964531E+02 -0.39178191986E+01  0.24623477365E+02  0.50528876110E+02  0.30000049424E+02 0.  0.
         12    1    1    2    0    0  0.32116964531E+02  0.39178191986E+01 -0.24623477365E+02  0.40659123890E+02  0.00000000000E+00 0. -1.
         11    1    3    3    0    0 -0.34548184132E+01  0.32057266423E+01 -0.43844630184E-01  0.47132129366E+01  0.51100000000E-03 0. -1.
        -11    1    3    3    0    0 -0.15611883493E+02 -0.58714855105E+01 -0.12963308934E+01  0.16729785484E+02  0.51100000000E-03 0.  1.
         12    1    3    3    0    0 -0.13050262625E+02 -0.12520603304E+01  0.25963652889E+02  0.29085877689E+02  0.00000000000E+00 0. -1.
</event>
<event>
 7    1  0.5408841E-013  0.5052886E+02  0.7816164E-02  0.1300439E+00
        -11   -1    0    0    0    0  0.00000000000E+00  0.00000000000E+00  0.45593999997E+02  0.45594000000E+02  0.51100000000E-03 0.  1.
         11   -1    0    0    0    0 -0.00000000000E+00 -0.00000000000E+00 -0.45593999997E+02  0.45594000000E+02  0.51100000000E-03 0. -1.
    9900012    2    1    2    0    0  0.21656020350E+01 -0.40587985471E+02 -0.10444642009E+01  0.50528864468E+02  0.30000014036E+02 0.  0.
         12    1    1    2    0    0 -0.21656020350E+01  0.40587985471E+02  0.10444642009E+01  0.40659135532E+02  0.00000000000E+00 0. -1.
         11    1    3    3    0    0 -0.66333647979E+01 -0.57510675051E+01 -0.39754182154E+01  0.96374403365E+01  0.51100000000E-03 0. -1.
        -11    1    3    3    0    0  0.19165166471E+01 -0.33098849382E+02 -0.14626350416E+00  0.33154611440E+02  0.51100000000E-03 0.  1.
        -12    1    3    3    0    0  0.68824501858E+01 -0.17380685843E+01  0.30772175187E+01  0.77368126914E+01  0.00000000000E+00 0.  1.
</event>
<event>
 7    1  0.5408841E-013  0.5052886E+02  0.7816164E-02  0.1300439E+00
        -11   -1    0    0    0    0  0.00000000000E+00  0.00000000000E+00  0.45593999997E+02  0.45594000000E+02  0.51100000000E-03 0.  1.
         11   -1    0    0    0    0 -0.00000000000E+00 -0.00000000000E+00 -0.45593999997E+02  0.45594000000E+02  0.51100000000E-03 0. -1.
    9900012    2    1    2    0    0 -0.20305034363E+02 -0.19608681392E+02  0.29263812357E+02  0.50528861789E+02  0.30000005892E+02 0.  0.
         12    1    1    2    0    0  0.20305034363E+02  0.19608681392E+02 -0.29263812357E+02  0.40659138211E+02  0.00000000000E+00 0. -1.
         11    1    3    3    0    0  0.54492916114E+00 -0.72043015917E+01  0.52392806340E+01  0.89246272212E+01  0.51100000000E-03 0. -1.
        -11    1    3    3    0    0 -0.56935186667E+01 -0.13532807894E+02  0.19602600752E+01  0.14812010806E+02  0.51100000000E-03 0.  1.
        -12    1    3    3    0    0 -0.15156444858E+02  0.11284280942E+01  0.22064271648E+02  0.26792223761E+02  0.00000000000E+00 0.  1.
</event>
<event>
 7    1  0.5408841E-013  0.5052885E+02  0.7816164E-02  0.1300439E+00
        -11   -1    0    0    0    0  0.00000000000E+00  0.00000000000E+00  0.45593999997E+02  0.45594000000E+02  0.51100000000E-03 0. -1.
         11   -1    0    0    0    0 -0.00000000000E+00 -0.00000000000E+00 -0.45593999997E+02  0.45594000000E+02  0.51100000000E-03 0.  1.
    9900012    2    1    2    0    0 -0.31179128787E+02 -0.46805821106E+01 -0.25673339382E+02  0.50528852495E+02  0.29999977643E+02 0.  0.
         12    1    1    2    0    0  0.31179128787E+02  0.46805821106E+01  0.25673339382E+02  0.40659147505E+02  0.00000000000E+00 0. -1.
         11    1    3    3    0    0 -0.35254335143E+01 -0.82734788626E+01 -0.29913524160E+01  0.94777277600E+01  0.51100000000E-03 0. -1.
        -11    1    3    3    0    0 -0.29202979128E+02  0.21809006373E+01 -0.24572786252E+02  0.38228159019E+02  0.51100000000E-03 0.  1.
         12    1    3    3    0    0  0.15492838556E+01  0.14119961147E+01  0.18907992858E+01  0.28229657157E+01  0.00000000000E+00 0. -1.
</event>
<event>
 7    1  0.5408841E-013  0.5052886E+02  0.7816164E-02  0.1300439E+00
        -11   -1    0    0    0    0  0.00000000000E+00  0.00000000000E+00  0.45593999997E+02  0.45594000000E+02  0.51100000000E-03 0. -1.
         11   -1    0    0    0    0 -0.00000000000E+00 -0.00000000000E+00 -0.45593999997E+02  0.45594000000E+02  0.51100000000E-03 0.  1.
    9900012    2    1    2    0    0 -0.10364940230E+02 -0.93077663866E+01 -0.38198159131E+02  0.50528857583E+02  0.29999993110E+02 0.  0.
         12    1    1    2    0    0  0.10364940230E+02  0.93077663866E+01  0.38198159131E+02  0.40659142417E+02  0.00000000000E+00 0. -1.
         11    1    3    3    0    0 -0.48252016317E+01 -0.77256414206E+01  0.15061299601E+01  0.92323633954E+01  0.51100000000E-03 0. -1.
        -11    1    3    3    0    0 -0.75436583809E+01 -0.26576722993E+01 -0.21298748071E+02  0.22750970825E+02  0.51100000000E-03 0.  1.
        -12    1    3    3    0    0  0.20039197831E+01  0.10755473333E+01 -0.18405541020E+02  0.18545523363E+02  0.00000000000E+00 0.  1.
</event>
<event>
 7    1  0.5408841E-013  0.5052885E+02  0.7816164E-02  0.1300439E+00
        -11   -1    0    0    0    0  0.00000000000E+00  0.00000000000E+00  0.45593999997E+02  0.45594000000E+02  0.51100000000E-03 0. -1.
         11   -1    0    0    0    0 -0.00000000000E+00 -0.00000000000E+00 -0.45593999997E+02  0.45594000000E+02  0.51100000000E-03 0.  1.
    9900012    2    1    2    0    0 -0.18843456744E+02  0.25227068543E+02 -0.25723250909E+02  0.50528849903E+02  0.29999969764E+02 0.  0.
         12    1    1    2    0    0  0.18843456744E+02 -0.25227068543E+02  0.25723250909E+02  0.40659150097E+02  0.00000000000E+00 0. -1.
         11    1    3    3    0    0 -0.57425192320E+01  0.15078918106E+02 -0.19129284913E+01  0.16248372044E+02  0.51100000000E-03 0. -1.
        -11    1    3    3    0    0  0.16778021551E+01  0.72234901051E+01 -0.18393271131E+01  0.76404812584E+01  0.51100000000E-03 0.  1.
        -12    1    3    3    0    0 -0.14778739667E+02  0.29246603311E+01 -0.21970995305E+02  0.26639996601E+02  0.00000000000E+00 0.  1.
</event>
<event>
 7    1  0.5408841E-013  0.5052886E+02  0.7816164E-02  0.1300439E+00
        -11   -1    0    0    0    0  0.00000000000E+00  0.00000000000E+00  0.45593999997E+02  0.45594000000E+02  0.51100000000E-03 0.  1.
         11   -1    0    0    0    0 -0.00000000000E+00 -0.00000000000E+00 -0.45593999997E+02  0.45594000000E+02  0.51100000000E-03 0. -1.
    9900012    2    1    2    0    0 -0.38722631935E+02  0.98664118337E+01  0.75084845271E+01  0.50528860236E+02  0.30000001174E+02 0.  0.
         12    1    1    2    0    0  0.38722631935E+02 -0.98664118337E+01 -0.75084845271E+01  0.40659139764E+02  0.00000000000E+00 0. -1.
         11    1    3    3    0    0 -0.18899930583E+02  0.11535414372E+02  0.10234236908E+02  0.24392883514E+02  0.51100000000E-03 0. -1.
        -11    1    3    3    0    0 -0.11706174312E+02  0.40357328418E+01  0.52079887666E+01  0.13432974497E+02  0.51100000000E-03 0.  1.
        -12    1    3    3    0    0 -0.81165270407E+01 -0.57047353799E+01 -0.79337411473E+01  0.12703002226E+02  0.00000000000E+00 0.  1.
</event>
<event>
 7    1  0.5408841E-013  0.5052886E+02  0.7816164E-02  0.1300439E+00
        -11   -1    0    0    0    0  0.00000000000E+00  0.00000000000E+00  0.45593999997E+02  0.45594000000E+02  0.51100000000E-03 0. -1.
         11   -1    0    0    0    0 -0.00000000000E+00 -0.00000000000E+00 -0.45593999997E+02  0.45594000000E+02  0.51100000000E-03 0.  1.
    9900012    2    1    2    0    0 -0.11736708903E+02  0.37845958009E+02  0.91158485338E+01  0.50528861200E+02  0.30000004103E+02 0.  0.
         12    1    1    2    0    0  0.11736708903E+02 -0.37845958009E+02 -0.91158485338E+01  0.40659138800E+02  0.00000000000E+00 0. -1.
         11    1    3    3    0    0 -0.14457573948E+00 -0.77685525697E+00 -0.93872457070E+00  0.12270331354E+01  0.51100000000E-03 0. -1.
        -11    1    3    3    0    0  0.49866889908E+01 -0.80969884911E+00  0.31999615562E+01  0.59801700259E+01  0.51100000000E-03 0.  1.
        -12    1    3    3    0    0 -0.16578822154E+02  0.39432512115E+02  0.68546115484E+01  0.43321658038E+02  0.00000000000E+00 0.  1.
</event>
<event>
 7    1  0.5408841E-013  0.5052886E+02  0.7816164E-02  0.1300439E+00
        -11   -1    0    0    0    0  0.00000000000E+00  0.00000000000E+00  0.45593999997E+02  0.45594000000E+02  0.51100000000E-03 0.  1.
         11   -1    0    0    0    0 -0.00000000000E+00 -0.00000000000E+00 -0.45593999997E+02  0.45594000000E+02  0.51100000000E-03 0. -1.
    9900012    2    1    2    0    0 -0.23445512382E+02  0.71998160288E+01  0.32428935742E+02  0.50528864802E+02  0.30000015052E+02 0.  0.
         12    1    1    2    0    0  0.23445512382E+02 -0.71998160288E+01 -0.32428935742E+02  0.40659135198E+02  0.00000000000E+00 0. -1.
         11    1    3    3    0    0  0.58489203422E+01  0.36756390735E+01  0.74919221404E+01  0.10190637340E+02  0.51100000000E-03 0. -1.
        -11    1    3    3    0    0 -0.99111060202E+01 -0.18041347096E+01  0.28425184393E+01  0.10467322290E+02  0.51100000000E-03 0.  1.
        -12    1    3    3    0    0 -0.19383326704E+02  0.53283116650E+01  0.22094495162E+02  0.29870905172E+02  0.00000000000E+00 0.  1.
</event>
<event>
 7    1  0.5408841E-013  0.5052886E+02  0.7816164E-02  0.1300439E+00
        -11   -1    0    0    0    0  0.00000000000E+00  0.00000000000E+00  0.45593999997E+02  0.45594000000E+02  0.51100000000E-03 0. -1.
         11   -1    0    0    0    0 -0.00000000000E+00 -0.00000000000E+00 -0.45593999997E+02  0.45594000000E+02  0.51100000000E-03 0.  1.
    9900012    2    1    2    0    0  0.27464329959E+02  0.25666878451E+01  0.29871197123E+02  0.50528859279E+02  0.29999998266E+02 0.  0.
         12    1    1    2    0    0 -0.27464329959E+02 -0.25666878451E+01 -0.29871197123E+02  0.40659140721E+02  0.00000000000E+00 0. -1.
         11    1    3    3    0    0  0.79917032737E+01  0.54702870110E+01  0.23633243044E+02  0.25540586098E+02  0.51100000000E-03 0.  1.
        -11    1    3    3    0    0  0.95681618682E+00 -0.37943290289E+00  0.62165518708E+01  0.63011890915E+01  0.51100000000E-03 0. -1.
        -12    1    3    3    0    0  0.18515810498E+02 -0.25241662630E+01  0.21402208136E-01  0.18687084090E+02  0.00000000000E+00 0.  1.
</event>
<event>
 7    1  0.5408841E-013  0.5052886E+02  0.7816164E-02  0.1300439E+00
        -11   -1    0    0    0    0  0.00000000000E+00  0.00000000000E+00  0.45593999997E+02  0.45594000000E+02  0.51100000000E-03 0.  1.
         11   -1    0    0    0    0 -0.00000000000E+00 -0.00000000000E+00 -0.45593999997E+02  0.45594000000E+02  0.51100000000E-03 0. -1.
    9900012    2    1    2    0    0  0.40785063376E+01  0.74402011989E+01  0.39763993207E+02  0.50528856335E+02  0.29999989316E+02 0.  0.
         12    1    1    2    0    0 -0.40785063376E+01 -0.74402011989E+01 -0.39763993207E+02  0.40659143665E+02  0.00000000000E+00 0. -1.
         11    1    3    3    0    0  0.64569345335E+01 -0.72212299605E+01  0.10770454149E+02  0.14485884459E+02  0.51100000000E-03 0. -1.
        -11    1    3    3    0    0  0.34180440114E+01 -0.85531090737E+00  0.11162863564E+02  0.11705729572E+02  0.51100000000E-03 0.  1.
        -12    1    3    3    0    0 -0.57964722072E+01  0.15516742067E+02  0.17830675494E+02  0.24337242305E+02  0.00000000000E+00 0.  1.
</event>
<event>
 7    1  0.5408841E-013  0.5052886E+02  0.7816164E-02  0.1300439E+00
        -11   -1    0    0    0    0  0.00000000000E+00  0.00000000000E+00  0.45593999997E+02  0.45594000000E+02  0.51100000000E-03 0.  1.
         11   -1    0    0    0    0 -0.00000000000E+00 -0.00000000000E+00 -0.45593999997E+02  0.45594000000E+02  0.51100000000E-03 0. -1.
    9900012    2    1    2    0    0  0.38520702753E+02 -0.62830037858E+01  0.11394946996E+02  0.50528862108E+02  0.30000006862E+02 0.  0.
         12    1    1    2    0    0 -0.38520702753E+02  0.62830037858E+01 -0.11394946996E+02  0.40659137892E+02  0.00000000000E+00 0. -1.
         11    1    3    3    0    0  0.10489417864E+02 -0.24677836046E+01  0.63683575495E+01  0.12516941367E+02  0.51100000000E-03 0.  1.
        -11    1    3    3    0    0  0.11726625191E+02 -0.12649617140E+02  0.83638668487E+01  0.19169789281E+02  0.51100000000E-03 0. -1.
         12    1    3    3    0    0  0.16304659697E+02  0.88343969588E+01 -0.33372774024E+01  0.18842131459E+02  0.00000000000E+00 0. -1.
</event>
<event>
 7    1  0.5408841E-013  0.5052887E+02  0.7816164E-02  0.1300439E+00
        -11   -1    0    0    0    0  0.00000000000E+00  0.00000000000E+00  0.45593999997E+02  0.45594000000E+02  0.51100000000E-03 0.  1.
         11   -1    0    0    0    0 -0.00000000000E+00 -0.00000000000E+00 -0.45593999997E+02  0.45594000000E+02  0.51100000000E-03 0. -1.
    9900012    2    1    2    0    0 -0.41543912730E+01  0.20506726145E+02  0.34862306570E+02  0.50528865683E+02  0.30000017729E+02 0.  0.
         12    1    1    2    0    0  0.41543912730E+01 -0.20506726145E+02 -0.34862306570E+02  0.40659134317E+02  0.00000000000E+00 0. -1.
         11    1    3    3    0    0  0.75775162632E+00  0.69870613473E+01 -0.26700733928E+01  0.75181451158E+01  0.51100000000E-03 0. -1.
        -11    1    3    3    0    0  0.45801829859E+01  0.47298678142E+01  0.59220878148E+01  0.88555547580E+01  0.51100000000E-03 0.  1.
         12    1    3    3    0    0 -0.94923258852E+01  0.87897969835E+01  0.31610292148E+02  0.34155165809E+02  0.00000000000E+00 0. -1.
</event>
<event>
 7    1  0.5408841E-013  0.5052886E+02  0.7816164E-02  0.1300439E+00
        -11   -1    0    0    0    0  0.00000000000E+00  0.00000000000E+00  0.45593999997E+02  0.45594000000E+02  0.51100000000E-03 0. -1.
         11   -1    0    0    0    0 -0.00000000000E+00 -0.00000000000E+00 -0.45593999997E+02  0.45594000000E+02  0.51100000000E-03 0.  1.
    9900012    2    1    2    0    0 -0.23805214851E+02  0.15433606845E+02 -0.29125264923E+02  0.50528861652E+02  0.30000005478E+02 0.  0.
         12    1    1    2    0    0  0.23805214851E+02 -0.15433606845E+02  0.29125264923E+02  0.40659138348E+02  0.00000000000E+00 0. -1.
         11    1    3    3    0    0 -0.16141260158E+02  0.97211903983E+01 -0.34090834744E+02  0.38951596065E+02  0.51100000000E-03 0.  1.
        -11    1    3    3    0    0 -0.80986513203E+00  0.29640638126E+01  0.15328490669E+01  0.34338291076E+01  0.51100000000E-03 0. -1.
        -12    1    3    3    0    0 -0.68540895613E+01  0.27483526338E+01  0.34327207538E+01  0.81434364790E+01  0.00000000000E+00 0.  1.
</event>
<event>
 7    1  0.5408841E-013  0.5052885E+02  0.7816164E-02  0.1300439E+00
        -11   -1    0    0    0    0  0.00000000000E+00  0.00000000000E+00  0.45593999997E+02  0.45594000000E+02  0.51100000000E-03 0. -1.
         11   -1    0    0    0    0 -0.00000000000E+00 -0.00000000000E+00 -0.45593999997E+02  0.45594000000E+02  0.51100000000E-03 0.  1.
    9900012    2    1    2    0    0  0.90070642409E+01 -0.18203903939E+02 -0.35222960251E+02  0.50528852767E+02  0.29999978470E+02 0.  0.
         12    1    1    2    0    0 -0.90070642409E+01  0.18203903939E+02  0.35222960251E+02  0.40659147233E+02  0.00000000000E+00 0. -1.
         11    1    3    3    0    0 -0.69342732139E+01 -0.42923154769E+01 -0.14753172798E+02  0.16857171324E+02  0.51100000000E-03 0. -1.
        -11    1    3    3    0    0  0.14324706565E+02 -0.10658754323E+02 -0.23093336218E+02  0.29190896524E+02  0.51100000000E-03 0.  1.
        -12    1    3    3    0    0  0.16166308895E+01 -0.32528341391E+01  0.26235487655E+01  0.44807849195E+01  0.00000000000E+00 0.  1.
</event>
<event>
 7    1  0.5408841E-013  0.5052886E+02  0.7816164E-02  0.1300439E+00
        -11   -1    0    0    0    0  0.00000000000E+00  0.00000000000E+00  0.45593999997E+02  0.45594000000E+02  0.51100000000E-03 0.  1.
         11   -1    0    0    0    0 -0.00000000000E+00 -0.00000000000E+00 -0.45593999997E+02  0.45594000000E+02  0.51100000000E-03 0. -1.
    9900012    2    1    2    0    0  0.26387664232E+02 -0.81778761890E+01  0.29832522774E+02  0.50528857146E+02  0.29999991780E+02 0.  0.
         12    1    1    2    0    0 -0.26387664232E+02  0.81778761890E+01 -0.29832522774E+02  0.40659142854E+02  0.00000000000E+00 0. -1.
         11    1    3    3    0    0  0.13262938226E+02 -0.16016107839E+01  0.19421780620E+02  0.23572786221E+02  0.51100000000E-03 0. -1.
        -11    1    3    3    0    0  0.15727962299E+02 -0.12640908029E+01  0.13052124157E+02  0.20477418512E+02  0.51100000000E-03 0.  1.
         12    1    3    3    0    0 -0.26032362933E+01 -0.53121746021E+01 -0.26413820032E+01  0.64786524130E+01  0.00000000000E+00 0. -1.
</event>
<event>
 7    1  0.5408841E-013  0.5052886E+02  0.7816164E-02  0.1300439E+00
        -11   -1    0    0    0    0  0.00000000000E+00  0.00000000000E+00  0.45593999997E+02  0.45594000000E+02  0.51100000000E-03 0.  1.
         11   -1    0    0    0    0 -0.00000000000E+00 -0.00000000000E+00 -0.45593999997E+02  0.45594000000E+02  0.51100000000E-03 0. -1.
    9900012    2    1    2    0    0  0.35657549646E+02  0.17552838900E+02  0.85792031385E+01  0.50528859248E+02  0.29999998169E+02 0.  0.
         12    1    1    2    0    0 -0.35657549646E+02 -0.17552838900E+02 -0.85792031385E+01  0.40659140752E+02  0.00000000000E+00 0. -1.
         11    1    3    3    0    0  0.48823516615E+01  0.75768967995E+01 -0.30739592863E+01  0.95234420674E+01  0.51100000000E-03 0. -1.
        -11    1    3    3    0    0 -0.32703381407E+01  0.30799353367E+01  0.49068054448E+00  0.45190575224E+01  0.51100000000E-03 0.  1.
        -12    1    3    3    0    0  0.34045536125E+02  0.68960067638E+01  0.11162481880E+02  0.36486359658E+02  0.00000000000E+00 0.  1.
</event>
<event>
 7    1  0.5408841E-013  0.5052888E+02  0.7816164E-02  0.1300439E+00
        -11   -1    0    0    0    0  0.00000000000E+00  0.00000000000E+00  0.45593999997E+02  0.45594000000E+02  0.51100000000E-03 0.  1.
         11   -1    0    0    0    0 -0.00000000000E+00 -0.00000000000E+00 -0.45593999997E+02  0.45594000000E+02  0.51100000000E-03 0. -1.
    9900012    2    1    2    0    0 -0.22093004311E+02 -0.24836444126E+02  0.23413980776E+02  0.50528876890E+02  0.30000051795E+02 0.  0.
         12    1    1    2    0    0  0.22093004311E+02  0.24836444126E+02 -0.23413980776E+02  0.40659123110E+02  0.00000000000E+00 0. -1.
         11    1    3    3    0    0 -0.34154512358E+01 -0.13610753883E+02  0.85109976704E+01  0.16412038570E+02  0.51100000000E-03 0. -1.
        -11    1    3    3    0    0 -0.66455452023E+01 -0.14404286893E+02  0.14764749893E+02  0.21671284955E+02  0.51100000000E-03 0.  1.
         12    1    3    3    0    0 -0.12032007873E+02  0.31785966510E+01  0.13823321197E+00  0.12445553364E+02  0.00000000000E+00 0. -1.
</event>
<event>
 7    1  0.5408841E-013  0.5052886E+02  0.7816164E-02  0.1300439E+00
        -11   -1    0    0    0    0  0.00000000000E+00  0.00000000000E+00  0.45593999997E+02  0.45594000000E+02  0.51100000000E-03 0. -1.
         11   -1    0    0    0    0 -0.00000000000E+00 -0.00000000000E+00 -0.45593999997E+02  0.45594000000E+02  0.51100000000E-03 0.  1.
    9900012    2    1    2    0    0  0.12969521530E+02  0.32084710054E+02 -0.21343115803E+02  0.50528859574E+02  0.29999999162E+02 0.  0.
         12    1    1    2    0    0 -0.12969521530E+02 -0.32084710054E+02  0.21343115803E+02  0.40659140426E+02  0.00000000000E+00 0. -1.
         11    1    3    3    0    0  0.10366021884E+02  0.69242676856E+01 -0.96501895964E+01  0.15764709074E+02  0.51100000000E-03 0. -1.
        -11    1    3    3    0    0  0.63060047935E+01  0.27379193362E+01 -0.97842493055E+01  0.11957986180E+02  0.51100000000E-03 0.  1.
         12    1    3    3    0    0 -0.37025051475E+01  0.22422523032E+02 -0.19086769013E+01  0.22806164321E+02  0.00000000000E+00 0. -1.
</event>
<event>
 7    1  0.5408841E-013  0.5052886E+02  0.7816164E-02  0.1300439E+00
        -11   -1    0    0    0    0  0.00000000000E+00  0.00000000000E+00  0.45593999997E+02  0.45594000000E+02  0.51100000000E-03 0. -1.
         11   -1    0    0    0    0 -0.00000000000E+00 -0.00000000000E+00 -0.45593999997E+02  0.45594000000E+02  0.51100000000E-03 0.  1.
    9900012    2    1    2    0    0 -0.30987486565E+02 -0.24800534077E+02  0.88246905683E+01  0.50528856161E+02  0.29999988787E+02 0.  0.
         12    1    1    2    0    0  0.30987486565E+02  0.24800534077E+02 -0.88246905683E+01  0.40659143839E+02  0.00000000000E+00 0. -1.
         11    1    3    3    0    0 -0.79776219016E+01 -0.16002455521E+02  0.33477827042E+01  0.18191445330E+02  0.51100000000E-03 0. -1.
        -11    1    3    3    0    0 -0.11200723044E+02 -0.47548856358E+01 -0.75303853295E+01  0.14309851068E+02  0.51100000000E-03 0.  1.
         12    1    3    3    0    0 -0.11809141619E+02 -0.40431929202E+01  0.13007293194E+02  0.18027559763E+02  0.00000000000E+00 0. -1.
</event>
<event>
 7    1  0.5408841E-013  0.5052886E+02  0.7816164E-02  0.1300439E+00
        -11   -1    0    0    0    0  0.00000000000E+00  0.00000000000E+00  0.45593999997E+02  0.45594000000E+02  0.51100000000E-03 0.  1.
         11   -1    0    0    0    0 -0.00000000000E+00 -0.00000000000E+00 -0.45593999997E+02  0.45594000000E+02  0.51100000000E-03 0. -1.
    9900012    2    1    2    0    0 -0.21064345238E+02 -0.17776469426E+02  0.29890740474E+02  0.50528857465E+02  0.29999992752E+02 0.  0.
         12    1    1    2    0    0  0.21064345238E+02  0.17776469426E+02 -0.29890740474E+02  0.40659142535E+02  0.00000000000E+00 0. -1.
         11    1    3    3    0    0 -0.96760373428E+01 -0.34896885250E+01 -0.17365498991E+01  0.10431645626E+02  0.51100000000E-03 0. -1.
        -11    1    3    3    0    0 -0.14559746630E+00  0.28227248659E+01  0.54527164968E+00  0.28785926638E+01  0.51100000000E-03 0.  1.
         12    1    3    3    0    0 -0.11242710429E+02 -0.17109505767E+02  0.31082018724E+02  0.37218619175E+02  0.00000000000E+00 0. -1.
</event>
<event>
 7    1  0.5408841E-013  0.5052886E+02  0.7816164E-02  0.1300439E+00
        -11   -1    0    0    0    0  0.00000000000E+00  0.00000000000E+00  0.45593999997E+02  0.45594000000E+02  0.51100000000E-03 0. -1.
         11   -1    0    0    0    0 -0.00000000000E+00 -0.00000000000E+00 -0.45593999997E+02  0.45594000000E+02  0.51100000000E-03 0.  1.
    9900012    2    1    2    0    0 -0.27795338291E+02  0.21438266467E+02 -0.20517927737E+02  0.50528862547E+02  0.30000008198E+02 0.  0.
         12    1    1    2    0    0  0.27795338291E+02 -0.21438266467E+02  0.20517927737E+02  0.40659137453E+02  0.00000000000E+00 0. -1.
         11    1    3    3    0    0 -0.34776313276E+01  0.53257147756E+01 -0.73506730477E+01  0.97205736475E+01  0.51100000000E-03 0. -1.
        -11    1    3    3    0    0 -0.14759407031E+02  0.58770105490E+01 -0.19739503064E+02  0.25338258234E+02  0.51100000000E-03 0.  1.
         12    1    3    3    0    0 -0.95582999328E+01  0.10235541142E+02  0.65722483748E+01  0.15470030665E+02  0.00000000000E+00 0. -1.
</event>
<event>
 7    1  0.5408841E-013  0.5052888E+02  0.7816164E-02  0.1300439E+00
        -11   -1    0    0    0    0  0.00000000000E+00  0.00000000000E+00  0.45593999997E+02  0.45594000000E+02  0.51100000000E-03 0.  1.
         11   -1    0    0    0    0 -0.00000000000E+00 -0.00000000000E+00 -0.45593999997E+02  0.45594000000E+02  0.51100000000E-03 0. -1.
    9900012    2    1    2    0    0  0.44442372656E+01  0.13672849388E+01  0.40392370067E+02  0.50528877130E+02  0.30000052523E+02 0.  0.
         12    1    1    2    0    0 -0.44442372656E+01 -0.13672849388E+01 -0.40392370067E+02  0.40659122870E+02  0.00000000000E+00 0. -1.
         11    1    3    3    0    0  0.85320720836E+01  0.65229671724E+01  0.12959549045E+02  0.16831377439E+02  0.51100000000E-03 0.  1.
        -11    1    3    3    0    0  0.70021669680E+01 -0.36059777219E+01  0.77343104113E+01  0.11038703519E+02  0.51100000000E-03 0. -1.
        -12    1    3    3    0    0 -0.11090001786E+02 -0.15497045117E+01  0.19698510611E+02  0.22658796172E+02  0.00000000000E+00 0.  1.
</event>
<event>
 7    1  0.5408841E-013  0.5052887E+02  0.7816164E-02  0.1300439E+00
        -11   -1    0    0    0    0  0.00000000000E+00  0.00000000000E+00  0.45593999997E+02  0.45594000000E+02  0.51100000000E-03 0.  1.
         11   -1    0    0    0    0 -0.00000000000E+00 -0.00000000000E+00 -0.45593999997E+02  0.45594000000E+02  0.51100000000E-03 0. -1.
    9900012    2    1    2    0    0 -0.33860401660E+02  0.96060623342E+01  0.20355875283E+02  0.50528869504E+02  0.30000029345E+02 0.  0.
         12    1    1    2    0    0  0.33860401660E+02 -0.96060623342E+01 -0.20355875283E+02  0.40659130496E+02  0.00000000000E+00 0. -1.
         11    1    3    3    0    0  0.33157202201E+01  0.62192491658E+00 -0.54419383134E+00  0.34171535475E+01  0.51100000000E-03 0. -1.
        -11    1    3    3    0    0 -0.16327644152E+02  0.68939716555E+01  0.19138975203E+02  0.26084845808E+02  0.51100000000E-03 0.  1.
        -12    1    3    3    0    0 -0.20848477728E+02  0.20901657621E+01  0.17610939119E+01  0.21026870149E+02  0.00000000000E+00 0.  1.
</event>
<event>
 7    1  0.5408841E-013  0.5052887E+02  0.7816164E-02  0.1300439E+00
        -11   -1    0    0    0    0  0.00000000000E+00  0.00000000000E+00  0.45593999997E+02  0.45594000000E+02  0.51100000000E-03 0. -1.
         11   -1    0    0    0    0 -0.00000000000E+00 -0.00000000000E+00 -0.45593999997E+02  0.45594000000E+02  0.51100000000E-03 0.  1.
    9900012    2    1    2    0    0 -0.10922767681E+02  0.29971527623E+02  0.25210428627E+02  0.50528867773E+02  0.30000024082E+02 0.  0.
         12    1    1    2    0    0  0.10922767681E+02 -0.29971527623E+02 -0.25210428627E+02  0.40659132227E+02  0.00000000000E+00 0. -1.
         11    1    3    3    0    0 -0.81284766071E+00 -0.27008615447E+01  0.47485142031E+01  0.55230210755E+01  0.51100000000E-03 0.  1.
        -11    1    3    3    0    0  0.13560843564E+01  0.13316216863E+01  0.97839551900E+01  0.99668430567E+01  0.51100000000E-03 0. -1.
        -12    1    3    3    0    0 -0.11466004377E+02  0.31340767482E+02  0.10677959234E+02  0.35039003641E+02  0.00000000000E+00 0.  1.
</event>
<event>
 7    1  0.5408841E-013  0.5052881E+02  0.7816164E-02  0.1300439E+00
        -11   -1    0    0    0    0  0.00000000000E+00  0.00000000000E+00  0.45593999997E+02  0.45594000000E+02  0.51100000000E-03 0.  1.
         11   -1    0    0    0    0 -0.00000000000E+00 -0.00000000000E+00 -0.45593999997E+02  0.45594000000E+02  0.51100000000E-03 0. -1.
    9900012    2    1    2    0    0  0.17724024053E+02 -0.32338206387E+02  0.17125106986E+02  0.50528807802E+02  0.29999841794E+02 0.  0.
         12    1    1    2    0    0 -0.17724024053E+02  0.32338206387E+02 -0.17125106986E+02  0.40659192198E+02  0.00000000000E+00 0. -1.
         11    1    3    3    0    0  0.64029014393E+00 -0.84713769884E+00  0.53509429214E+01  0.54552913908E+01  0.51100000000E-03 0. -1.
        -11    1    3    3    0    0  0.13021567632E+02 -0.10699915299E+02  0.16260863334E+02  0.23419331494E+02  0.51100000000E-03 0.  1.
         12    1    3    3    0    0  0.40621662773E+01 -0.20791153389E+02 -0.44866992691E+01  0.21654184918E+02  0.00000000000E+00 0. -1.
</event>
<event>
 7    1  0.5408841E-013  0.5052886E+02  0.7816164E-02  0.1300439E+00
        -11   -1    0    0    0    0  0.00000000000E+00  0.00000000000E+00  0.45593999997E+02  0.45594000000E+02  0.51100000000E-03 0.  1.
         11   -1    0    0    0    0 -0.00000000000E+00 -0.00000000000E+00 -0.45593999997E+02  0.45594000000E+02  0.51100000000E-03 0. -1.
    9900012    2    1    2    0    0 -0.30410128101E+02 -0.64225294620E+01  0.26213371247E+02  0.50528860708E+02  0.30000002609E+02 0.  0.
         12    1    1    2    0    0  0.30410128101E+02  0.64225294620E+01 -0.26213371247E+02  0.40659139292E+02  0.00000000000E+00 0. -1.
         11    1    3    3    0    0 -0.15855749823E+02 -0.33359430678E+01  0.28489318728E+01  0.16451435550E+02  0.51100000000E-03 0. -1.
        -11    1    3    3    0    0 -0.10892812125E+02 -0.10217462856E+02  0.84869663529E+01  0.17177849148E+02  0.51100000000E-03 0.  1.
        -12    1    3    3    0    0 -0.36615661528E+01  0.71308764622E+01  0.14877473022E+02  0.16899576010E+02  0.00000000000E+00 0.  1.
</event>
<event>
 7    1  0.5408841E-013  0.5052881E+02  0.7816164E-02  0.1300439E+00
        -11   -1    0    0    0    0  0.00000000000E+00  0.00000000000E+00  0.45593999997E+02  0.45594000000E+02  0.51100000000E-03 0. -1.
         11   -1    0    0    0    0 -0.00000000000E+00 -0.00000000000E+00 -0.45593999997E+02  0.45594000000E+02  0.51100000000E-03 0.  1.
    9900012    2    1    2    0    0 -0.29688257885E+02  0.23389024077E+02 -0.14991029325E+02  0.50528805914E+02  0.29999836056E+02 0.  0.
         12    1    1    2    0    0  0.29688257885E+02 -0.23389024077E+02  0.14991029325E+02  0.40659194086E+02  0.00000000000E+00 0. -1.
         11    1    3    3    0    0 -0.10375613850E+02  0.18638452542E+02 -0.50941638455E+00  0.21337871994E+02  0.51100000000E-03 0. -1.
        -11    1    3    3    0    0 -0.18977858699E+02  0.84066284206E+01 -0.90702912008E+01  0.22651726312E+02  0.51100000000E-03 0.  1.
         12    1    3    3    0    0 -0.33478533577E+00 -0.36560568856E+01 -0.54113217393E+01  0.65392076078E+01  0.00000000000E+00 0. -1.
</event>
<event>
 7    1  0.5408841E-013  0.5052886E+02  0.7816164E-02  0.1300439E+00
        -11   -1    0    0    0    0  0.00000000000E+00  0.00000000000E+00  0.45593999997E+02  0.45594000000E+02  0.51100000000E-03 0.  1.
         11   -1    0    0    0    0 -0.00000000000E+00 -0.00000000000E+00 -0.45593999997E+02  0.45594000000E+02  0.51100000000E-03 0. -1.
    9900012    2    1    2    0    0  0.12111506671E+02 -0.15545872012E+02  0.35564063450E+02  0.50528864009E+02  0.30000012642E+02 0.  0.
         12    1    1    2    0    0 -0.12111506671E+02  0.15545872012E+02 -0.35564063450E+02  0.40659135991E+02  0.00000000000E+00 0. -1.
         11    1    3    3    0    0  0.17124921440E+01  0.20101584276E+01 -0.35396930723E+00  0.26643312066E+01  0.51100000000E-03 0. -1.
        -11    1    3    3    0    0  0.40758760897E+00 -0.93438409747E+01 -0.35021428325E+00  0.93592810688E+01  0.51100000000E-03 0.  1.
        -12    1    3    3    0    0  0.99914269183E+01 -0.82121894648E+01  0.36268247041E+02  0.38505251734E+02  0.00000000000E+00 0.  1.
</event>
<event>
 7    1  0.5408841E-013  0.5052885E+02  0.7816164E-02  0.1300439E+00
        -11   -1    0    0    0    0  0.00000000000E+00  0.00000000000E+00  0.45593999997E+02  0.45594000000E+02  0.51100000000E-03 0.  1.
         11   -1    0    0    0    0 -0.00000000000E+00 -0.00000000000E+00 -0.45593999997E+02  0.45594000000E+02  0.51100000000E-03 0. -1.
    9900012    2    1    2    0    0 -0.27434039044E+02  0.29549978932E+02 -0.52286418381E+01  0.50528850370E+02  0.29999971184E+02 0.  0.
         12    1    1    2    0    0  0.27434039044E+02 -0.29549978932E+02  0.52286418381E+01  0.40659149630E+02  0.00000000000E+00 0. -1.
         11    1    3    3    0    0 -0.13502589416E+02  0.60966050546E+01 -0.59542173013E+01  0.15966878783E+02  0.51100000000E-03 0. -1.
        -11    1    3    3    0    0 -0.13370137969E+02  0.12045710329E+02 -0.84786326628E+01  0.19893389322E+02  0.51100000000E-03 0.  1.
         12    1    3    3    0    0 -0.56131165911E+00  0.11407663549E+02  0.92042081260E+01  0.14668582265E+02  0.00000000000E+00 0. -1.
</event>
<event>
 7    1  0.5408841E-013  0.5052886E+02  0.7816164E-02  0.1300439E+00
        -11   -1    0    0    0    0  0.00000000000E+00  0.00000000000E+00  0.45593999997E+02  0.45594000000E+02  0.51100000000E-03 0. -1.
         11   -1    0    0    0    0 -0.00000000000E+00 -0.00000000000E+00 -0.45593999997E+02  0.45594000000E+02  0.51100000000E-03 0.  1.
    9900012    2    1    2    0    0  0.39113817717E+02 -0.86889987288E+01 -0.69120580597E+01  0.50528856109E+02  0.29999988630E+02 0.  0.
         12    1    1    2    0    0 -0.39113817717E+02  0.86889987288E+01  0.69120580597E+01  0.40659143891E+02  0.00000000000E+00 0. -1.
         11    1    3    3    0    0  0.40936486139E+01 -0.29970010516E+01 -0.55053513262E+01  0.74865791763E+01  0.51100000000E-03 0. -1.
        -11    1    3    3    0    0  0.67125517414E+01 -0.24492078533E+01 -0.10879454285E+02  0.13016124454E+02  0.51100000000E-03 0.  1.
         12    1    3    3    0    0  0.28307617362E+02 -0.32427898239E+01  0.94727475517E+01  0.30026152479E+02  0.00000000000E+00 0. -1.
</event>
<event>
 7    1  0.5408841E-013  0.5052886E+02  0.7816164E-02  0.1300439E+00
        -11   -1    0    0    0    0  0.00000000000E+00  0.00000000000E+00  0.45593999997E+02  0.45594000000E+02  0.51100000000E-03 0.  1.
         11   -1    0    0    0    0 -0.00000000000E+00 -0.00000000000E+00 -0.45593999997E+02  0.45594000000E+02  0.51100000000E-03 0. -1.
    9900012    2    1    2    0    0  0.39912056439E+02 -0.77579695572E+00  0.77195713748E+01  0.50528857211E+02  0.29999991980E+02 0.  0.
         12    1    1    2    0    0 -0.39912056439E+02  0.77579695572E+00 -0.77195713748E+01  0.40659142789E+02  0.00000000000E+00 0. -1.
         11    1    3    3    0    0  0.13011303386E+02 -0.20203103768E+01  0.81717326529E+01  0.15496866930E+02  0.51100000000E-03 0. -1.
        -11    1    3    3    0    0  0.20339016513E+02 -0.84967804015E+01  0.41274142475E+01  0.22425575099E+02  0.51100000000E-03 0.  1.
         12    1    3    3    0    0  0.65617365397E+01  0.97412938226E+01 -0.45795755256E+01  0.12606415182E+02  0.00000000000E+00 0. -1.
</event>
<event>
 7    1  0.5408841E-013  0.5052887E+02  0.7816164E-02  0.1300439E+00
        -11   -1    0    0    0    0  0.00000000000E+00  0.00000000000E+00  0.45593999997E+02  0.45594000000E+02  0.51100000000E-03 0.  1.
         11   -1    0    0    0    0 -0.00000000000E+00 -0.00000000000E+00 -0.45593999997E+02  0.45594000000E+02  0.51100000000E-03 0. -1.
    9900012    2    1    2    0    0 -0.24348497192E+02 -0.30731777726E+02  0.10764452722E+02  0.50528869167E+02  0.30000028320E+02 0.  0.
         12    1    1    2    0    0  0.24348497192E+02  0.30731777726E+02 -0.10764452722E+02  0.40659130833E+02  0.00000000000E+00 0. -1.
         11    1    3    3    0    0  0.19526989519E+00 -0.63868047530E+01  0.13344346131E+01  0.65276428581E+01  0.51100000000E-03 0. -1.
        -11    1    3    3    0    0  0.25445988627E+01 -0.11599055135E+02 -0.18327281248E+01  0.12015488173E+02  0.51100000000E-03 0.  1.
        -12    1    3    3    0    0 -0.27088365950E+02 -0.12745917838E+02  0.11262746234E+02  0.31985738136E+02  0.00000000000E+00 0.  1.
</event>
<event>
 7    1  0.5408841E-013  0.5052887E+02  0.7816164E-02  0.1300439E+00
        -11   -1    0    0    0    0  0.00000000000E+00  0.00000000000E+00  0.45593999997E+02  0.45594000000E+02  0.51100000000E-03 0. -1.
         11   -1    0    0    0    0 -0.00000000000E+00 -0.00000000000E+00 -0.45593999997E+02  0.45594000000E+02  0.51100000000E-03 0.  1.
    9900012    2    1    2    0    0 -0.64007579269E+01 -0.39376321849E+02 -0.78549637059E+01  0.50528869669E+02  0.30000029847E+02 0.  0.
         12    1    1    2    0    0  0.64007579269E+01  0.39376321849E+02  0.78549637059E+01  0.40659130331E+02  0.00000000000E+00 0. -1.
         11    1    3    3    0    0 -0.61441995011E+01 -0.11498147348E+02 -0.21045231267E+01  0.13205589642E+02  0.51100000000E-03 0.  1.
        -11    1    3    3    0    0 -0.35095778891E+01 -0.26379047697E+02 -0.12713898818E+02  0.29492618022E+02  0.51100000000E-03 0. -1.
         12    1    3    3    0    0  0.32530194633E+01 -0.14991268038E+01  0.69634582384E+01  0.78306620052E+01  0.00000000000E+00 0. -1.
</event>
<event>
 7    1  0.5408841E-013  0.5052887E+02  0.7816164E-02  0.1300439E+00
        -11   -1    0    0    0    0  0.00000000000E+00  0.00000000000E+00  0.45593999997E+02  0.45594000000E+02  0.51100000000E-03 0. -1.
         11   -1    0    0    0    0 -0.00000000000E+00 -0.00000000000E+00 -0.45593999997E+02  0.45594000000E+02  0.51100000000E-03 0.  1.
    9900012    2    1    2    0    0 -0.74888804668E+01 -0.28293557199E+02 -0.28223322806E+02  0.50528872368E+02  0.30000038048E+02 0.  0.
         12    1    1    2    0    0  0.74888804668E+01  0.28293557199E+02  0.28223322806E+02  0.40659127632E+02  0.00000000000E+00 0. -1.
         11    1    3    3    0    0  0.10266877009E+01  0.13384317758E+01 -0.62138740574E+01  0.64387668319E+01  0.51100000000E-03 0. -1.
        -11    1    3    3    0    0  0.63509449203E+01 -0.49185198761E+01 -0.10056433368E+02  0.12870827149E+02  0.51100000000E-03 0.  1.
        -12    1    3    3    0    0 -0.14866513088E+02 -0.24713469099E+02 -0.11953015380E+02  0.31219278387E+02  0.00000000000E+00 0.  1.
</event>
<event>
 7    1  0.5408841E-013  0.5052888E+02  0.7816164E-02  0.1300439E+00
        -11   -1    0    0    0    0  0.00000000000E+00  0.00000000000E+00  0.45593999997E+02  0.45594000000E+02  0.51100000000E-03 0. -1.
         11   -1    0    0    0    0 -0.00000000000E+00 -0.00000000000E+00 -0.45593999997E+02  0.45594000000E+02  0.51100000000E-03 0.  1.
    9900012    2    1    2    0    0 -0.13915720440E+02 -0.37849829091E+02 -0.51872213601E+01  0.50528879215E+02  0.30000058861E+02 0.  0.
         12    1    1    2    0    0  0.13915720440E+02  0.37849829091E+02  0.51872213601E+01  0.40659120785E+02  0.00000000000E+00 0. -1.
         11    1    3    3    0    0 -0.57835259422E+01  0.17260346603E+00  0.33109197051E+01  0.66664198664E+01  0.51100000000E-03 0. -1.
        -11    1    3    3    0    0  0.51191039959E+01 -0.10394019928E+02 -0.61840759663E+01  0.13133303918E+02  0.51100000000E-03 0.  1.
         12    1    3    3    0    0 -0.13251298493E+02 -0.27628412630E+02 -0.23140650988E+01  0.30729155431E+02  0.00000000000E+00 0. -1.
</event>
<event>
 7    1  0.5408841E-013  0.5052877E+02  0.7816164E-02  0.1300439E+00
        -11   -1    0    0    0    0  0.00000000000E+00  0.00000000000E+00  0.45593999997E+02  0.45594000000E+02  0.51100000000E-03 0.  1.
         11   -1    0    0    0    0 -0.00000000000E+00 -0.00000000000E+00 -0.45593999997E+02  0.45594000000E+02  0.51100000000E-03 0. -1.
    9900012    2    1    2    0    0 -0.27802095546E+02  0.21301620089E+02  0.20650839387E+02  0.50528773463E+02  0.29999737418E+02 0.  0.
         12    1    1    2    0    0  0.27802095546E+02 -0.21301620089E+02 -0.20650839387E+02  0.40659226537E+02  0.00000000000E+00 0. -1.
         11    1    3    3    0    0 -0.25311457670E+01  0.85336705723E+00 -0.23352291362E+01  0.35479895163E+01  0.51100000000E-03 0. -1.
        -11    1    3    3    0    0 -0.10028857124E+02  0.18779823857E+02  0.25647243059E+01  0.21443823594E+02  0.51100000000E-03 0.  1.
        -12    1    3    3    0    0 -0.15242092655E+02  0.16684291749E+01  0.20421344217E+02  0.25536960353E+02  0.00000000000E+00 0.  1.
</event>
<event>
 7    1  0.5408841E-013  0.5052886E+02  0.7816164E-02  0.1300439E+00
        -11   -1    0    0    0    0  0.00000000000E+00  0.00000000000E+00  0.45593999997E+02  0.45594000000E+02  0.51100000000E-03 0. -1.
         11   -1    0    0    0    0 -0.00000000000E+00 -0.00000000000E+00 -0.45593999997E+02  0.45594000000E+02  0.51100000000E-03 0.  1.
    9900012    2    1    2    0    0  0.26240530263E+02  0.28783385204E+02 -0.11666916251E+02  0.50528860473E+02  0.30000001893E+02 0.  0.
         12    1    1    2    0    0 -0.26240530263E+02 -0.28783385204E+02  0.11666916251E+02  0.40659139527E+02  0.00000000000E+00 0. -1.
         11    1    3    3    0    0  0.11889665054E+02  0.10778093381E+02 -0.36294855075E+01  0.16453102970E+02  0.51100000000E-03 0. -1.
        -11    1    3    3    0    0  0.15668387089E+02  0.17945958609E+02 -0.14226346481E+02  0.27747877736E+02  0.51100000000E-03 0.  1.
         12    1    3    3    0    0 -0.13175218793E+01  0.59333213421E-01  0.61889157381E+01  0.63278797670E+01  0.00000000000E+00 0. -1.
</event>
<event>
 7    1  0.5408841E-013  0.5052886E+02  0.7816164E-02  0.1300439E+00
        -11   -1    0    0    0    0  0.00000000000E+00  0.00000000000E+00  0.45593999997E+02  0.45594000000E+02  0.51100000000E-03 0.  1.
         11   -1    0    0    0    0 -0.00000000000E+00 -0.00000000000E+00 -0.45593999997E+02  0.45594000000E+02  0.51100000000E-03 0. -1.
    9900012    2    1    2    0    0  0.32820833016E+02  0.21102949619E+02  0.11429090042E+02  0.50528860048E+02  0.30000000601E+02 0.  0.
         12    1    1    2    0    0 -0.32820833016E+02 -0.21102949619E+02 -0.11429090042E+02  0.40659139952E+02  0.00000000000E+00 0. -1.
         11    1    3    3    0    0  0.71829368249E+01  0.69914706392E+01 -0.36203580237E+01  0.10657496686E+02  0.51100000000E-03 0. -1.
        -11    1    3    3    0    0 -0.29237888249E+01 -0.24926513884E+01  0.99549578015E+00  0.39689877987E+01  0.51100000000E-03 0.  1.
        -12    1    3    3    0    0  0.28561685016E+02  0.16604130368E+02  0.14053952286E+02  0.35902375563E+02  0.00000000000E+00 0.  1.
</event>
<event>
 7    1  0.5408841E-013  0.5052885E+02  0.7816164E-02  0.1300439E+00
        -11   -1    0    0    0    0  0.00000000000E+00  0.00000000000E+00  0.45593999997E+02  0.45594000000E+02  0.51100000000E-03 0.  1.
         11   -1    0    0    0    0 -0.00000000000E+00 -0.00000000000E+00 -0.45593999997E+02  0.45594000000E+02  0.51100000000E-03 0. -1.
    9900012    2    1    2    0    0  0.30474466315E+02 -0.60319214890E+01  0.26231459392E+02  0.50528848068E+02  0.29999964186E+02 0.  0.
         12    1    1    2    0    0 -0.30474466315E+02  0.60319214890E+01 -0.26231459392E+02  0.40659151932E+02  0.00000000000E+00 0. -1.
         11    1    3    3    0    0  0.19085551323E+02 -0.26099326953E+01  0.12594526487E+02  0.23015041075E+02  0.51100000000E-03 0. -1.
        -11    1    3    3    0    0  0.12273255454E+02 -0.18018412793E+01  0.18521672394E+02  0.22291966714E+02  0.51100000000E-03 0.  1.
         12    1    3    3    0    0 -0.88434046275E+00 -0.16201475144E+01 -0.48847394889E+01  0.52218402788E+01  0.00000000000E+00 0. -1.
</event>
<event>
 7    1  0.5408841E-013  0.5052884E+02  0.7816164E-02  0.1300439E+00
        -11   -1    0    0    0    0  0.00000000000E+00  0.00000000000E+00  0.45593999997E+02  0.45594000000E+02  0.51100000000E-03 0. -1.
         11   -1    0    0    0    0 -0.00000000000E+00 -0.00000000000E+00 -0.45593999997E+02  0.45594000000E+02  0.51100000000E-03 0.  1.
    9900012    2    1    2    0    0 -0.49033502384E+01  0.36132994609E+02 -0.17986980074E+02  0.50528836271E+02  0.29999928329E+02 0.  0.
         12    1    1    2    0    0  0.49033502384E+01 -0.36132994609E+02  0.17986980074E+02  0.40659163729E+02  0.00000000000E+00 0. -1.
         11    1    3    3    0    0 -0.34646563713E+01  0.10698594756E+02 -0.24620476955E+01  0.11511969972E+02  0.51100000000E-03 0.  1.
        -11    1    3    3    0    0  0.90192097598E+01  0.12487019363E+02 -0.16207259800E+02  0.22359496142E+02  0.51100000000E-03 0. -1.
         12    1    3    3    0    0 -0.10457903627E+02  0.12947380490E+02  0.68232742105E+00  0.16657370157E+02  0.00000000000E+00 0. -1.
</event>
<event>
 7    1  0.5408841E-013  0.5052886E+02  0.7816164E-02  0.1300439E+00
        -11   -1    0    0    0    0  0.00000000000E+00  0.00000000000E+00  0.45593999997E+02  0.45594000000E+02  0.51100000000E-03 0.  1.
         11   -1    0    0    0    0 -0.00000000000E+00 -0.00000000000E+00 -0.45593999997E+02  0.45594000000E+02  0.51100000000E-03 0. -1.
    9900012    2    1    2    0    0  0.24415565890E+02  0.10862895095E+02  0.30643814277E+02  0.50528859563E+02  0.29999999129E+02 0.  0.
         12    1    1    2    0    0 -0.24415565890E+02 -0.10862895095E+02 -0.30643814277E+02  0.40659140437E+02  0.00000000000E+00 0. -1.
         11    1    3    3    0    0  0.46965746230E+01 -0.28649830941E+01 -0.18865474584E+01  0.58159266581E+01  0.51100000000E-03 0. -1.
        -11    1    3    3    0    0  0.12574703351E+02  0.14818370657E+02  0.11747301476E+02  0.22709169195E+02  0.51100000000E-03 0.  1.
         12    1    3    3    0    0  0.71442879159E+01 -0.10904924681E+01  0.20783060260E+02  0.22003763710E+02  0.00000000000E+00 0. -1.
</event>
<event>
 7    1  0.5408841E-013  0.5052886E+02  0.7816164E-02  0.1300439E+00
        -11   -1    0    0    0    0  0.00000000000E+00  0.00000000000E+00  0.45593999997E+02  0.45594000000E+02  0.51100000000E-03 0. -1.
         11   -1    0    0    0    0 -0.00000000000E+00 -0.00000000000E+00 -0.45593999997E+02  0.45594000000E+02  0.51100000000E-03 0.  1.
    9900012    2    1    2    0    0  0.39094723185E+02  0.87589336853E+01  0.69317735548E+01  0.50528858533E+02  0.29999995996E+02 0.  0.
         12    1    1    2    0    0 -0.39094723185E+02 -0.87589336853E+01 -0.69317735548E+01  0.40659141467E+02  0.00000000000E+00 0. -1.
         11    1    3    3    0    0  0.15910727860E+02  0.11450480708E+02  0.11081798497E+02  0.22518237668E+02  0.51100000000E-03 0. -1.
        -11    1    3    3    0    0  0.10991580305E+02  0.60729395222E+01 -0.55172049289E+00  0.12569798241E+02  0.51100000000E-03 0.  1.
        -12    1    3    3    0    0  0.12192415020E+02 -0.87644865444E+01 -0.35983044496E+01  0.15440822625E+02  0.00000000000E+00 0.  1.
</event>
<event>
 7    1  0.5408841E-013  0.5052886E+02  0.7816164E-02  0.1300439E+00
        -11   -1    0    0    0    0  0.00000000000E+00  0.00000000000E+00  0.45593999997E+02  0.45594000000E+02  0.51100000000E-03 0.  1.
         11   -1    0    0    0    0 -0.00000000000E+00 -0.00000000000E+00 -0.45593999997E+02  0.45594000000E+02  0.51100000000E-03 0. -1.
    9900012    2    1    2    0    0 -0.39423500443E+02 -0.22653631768E+01  0.96861510195E+01  0.50528858604E+02  0.29999996212E+02 0.  0.
         12    1    1    2    0    0  0.39423500443E+02  0.22653631768E+01 -0.96861510195E+01  0.40659141396E+02  0.00000000000E+00 0. -1.
         11    1    3    3    0    0 -0.33277981324E+01  0.82300242904E+01 -0.15837486299E+00  0.88787737379E+01  0.51100000000E-03 0. -1.
        -11    1    3    3    0    0 -0.44946901861E+01  0.29633513122E+01  0.42298328333E+01  0.68465448898E+01  0.51100000000E-03 0.  1.
        -12    1    3    3    0    0 -0.31601012125E+02 -0.13458738779E+02  0.56146930492E+01  0.34803539976E+02  0.00000000000E+00 0.  1.
</event>
<event>
 7    1  0.5408841E-013  0.5052886E+02  0.7816164E-02  0.1300439E+00
        -11   -1    0    0    0    0  0.00000000000E+00  0.00000000000E+00  0.45593999997E+02  0.45594000000E+02  0.51100000000E-03 0.  1.
         11   -1    0    0    0    0 -0.00000000000E+00 -0.00000000000E+00 -0.45593999997E+02  0.45594000000E+02  0.51100000000E-03 0. -1.
    9900012    2    1    2    0    0 -0.33213811575E+02 -0.66149851722E+01  0.22500009190E+02  0.50528859309E+02  0.29999998355E+02 0.  0.
         12    1    1    2    0    0  0.33213811575E+02  0.66149851722E+01 -0.22500009190E+02  0.40659140691E+02  0.00000000000E+00 0. -1.
         11    1    3    3    0    0 -0.21463200697E+02 -0.51270209494E+01  0.25582375650E+01  0.22214857814E+02  0.51100000000E-03 0. -1.
        -11    1    3    3    0    0 -0.14927684726E+02  0.20127300395E+01  0.12895411267E+02  0.19828728792E+02  0.51100000000E-03 0.  1.
        -12    1    3    3    0    0  0.31770738480E+01 -0.35006942623E+01  0.70463603578E+01  0.84852727031E+01  0.00000000000E+00 0.  1.
</event>
<event>
 7    1  0.5408841E-013  0.5052886E+02  0.7816164E-02  0.1300439E+00
        -11   -1    0    0    0    0  0.00000000000E+00  0.00000000000E+00  0.45593999997E+02  0.45594000000E+02  0.51100000000E-03 0. -1.
         11   -1    0    0    0    0 -0.00000000000E+00 -0.00000000000E+00 -0.45593999997E+02  0.45594000000E+02  0.51100000000E-03 0.  1.
    9900012    2    1    2    0    0 -0.19867482790E+02  0.37745360905E+00 -0.35472616664E+02  0.50528857404E+02  0.29999992565E+02 0.  0.
         12    1    1    2    0    0  0.19867482790E+02 -0.37745360905E+00  0.35472616664E+02  0.40659142596E+02  0.00000000000E+00 0. -1.
         11    1    3    3    0    0  0.32733961002E+01  0.24364672530E+01 -0.18789916759E+02  0.19227908539E+02  0.51100000000E-03 0. -1.
        -11    1    3    3    0    0 -0.58101318704E+01  0.13784916341E+01 -0.11384102829E+02  0.12855180630E+02  0.51100000000E-03 0.  1.
         12    1    3    3    0    0 -0.17330747020E+02 -0.34375052781E+01 -0.52985970757E+01  0.18445768235E+02  0.00000000000E+00 0. -1.
</event>
<event>
 7    1  0.5408841E-013  0.5052888E+02  0.7816164E-02  0.1300439E+00
        -11   -1    0    0    0    0  0.00000000000E+00  0.00000000000E+00  0.45593999997E+02  0.45594000000E+02  0.51100000000E-03 0. -1.
         11   -1    0    0    0    0 -0.00000000000E+00 -0.00000000000E+00 -0.45593999997E+02  0.45594000000E+02  0.51100000000E-03 0.  1.
    9900012    2    1    2    0    0 -0.25488520098E+02  0.20548923726E+02 -0.24108950260E+02  0.50528875493E+02  0.30000047547E+02 0.  0.
         12    1    1    2    0    0  0.25488520098E+02 -0.20548923726E+02  0.24108950260E+02  0.40659124507E+02  0.00000000000E+00 0. -1.
         11    1    3    3    0    0 -0.59519964700E+01  0.11874078011E+02  0.18811104182E+01  0.13414863669E+02  0.51100000000E-03 0. -1.
        -11    1    3    3    0    0 -0.14930582955E+02  0.11680848936E+02 -0.12940077615E+02  0.22952345156E+02  0.51100000000E-03 0.  1.
        -12    1    3    3    0    0 -0.46059406730E+01 -0.30060032211E+01 -0.13049983063E+02  0.14161666667E+02  0.00000000000E+00 0.  1.
</event>
<event>
 7    1  0.5408841E-013  0.5052885E+02  0.7816164E-02  0.1300439E+00
        -11   -1    0    0    0    0  0.00000000000E+00  0.00000000000E+00  0.45593999997E+02  0.45594000000E+02  0.51100000000E-03 0.  1.
         11   -1    0    0    0    0 -0.00000000000E+00 -0.00000000000E+00 -0.45593999997E+02  0.45594000000E+02  0.51100000000E-03 0. -1.
    9900012    2    1    2    0    0  0.30797045597E+02  0.12279064012E+01  0.26517939208E+02  0.50528845170E+02  0.29999955379E+02 0.  0.
         12    1    1    2    0    0 -0.30797045597E+02 -0.12279064012E+01 -0.26517939208E+02  0.40659154830E+02  0.00000000000E+00 0. -1.
         11    1    3    3    0    0  0.91956282838E-01 -0.76499677509E+00 -0.26705374892E+01  0.27794687921E+01  0.51100000000E-03 0. -1.
        -11    1    3    3    0    0 -0.92418340459E+00 -0.48502983111E+01  0.67793480716E+01  0.83868390475E+01  0.51100000000E-03 0.  1.
         12    1    3    3    0    0  0.31629272719E+02  0.68432014874E+01  0.22409128626E+02  0.39362537330E+02  0.00000000000E+00 0. -1.
</event>
<event>
 7    1  0.5408841E-013  0.5052886E+02  0.7816164E-02  0.1300439E+00
        -11   -1    0    0    0    0  0.00000000000E+00  0.00000000000E+00  0.45593999997E+02  0.45594000000E+02  0.51100000000E-03 0. -1.
         11   -1    0    0    0    0 -0.00000000000E+00 -0.00000000000E+00 -0.45593999997E+02  0.45594000000E+02  0.51100000000E-03 0.  1.
    9900012    2    1    2    0    0 -0.10573556347E+02  0.24056440362E+00 -0.39259487409E+02  0.50528864290E+02  0.30000013495E+02 0.  0.
         12    1    1    2    0    0  0.10573556347E+02 -0.24056440362E+00  0.39259487409E+02  0.40659135710E+02  0.00000000000E+00 0. -1.
         11    1    3    3    0    0 -0.85786993872E+00  0.68747704564E+01 -0.54168473675E+01  0.87943530361E+01  0.51100000000E-03 0. -1.
        -11    1    3    3    0    0  0.23017739484E+01  0.83731405960E-01  0.21794833660E+01  0.31710128132E+01  0.51100000000E-03 0.  1.
        -12    1    3    3    0    0 -0.12017460357E+02 -0.67179374587E+01 -0.36022123408E+02  0.38563498440E+02  0.00000000000E+00 0.  1.
</event>
<event>
 7    1  0.5408841E-013  0.5052887E+02  0.7816164E-02  0.1300439E+00
        -11   -1    0    0    0    0  0.00000000000E+00  0.00000000000E+00  0.45593999997E+02  0.45594000000E+02  0.51100000000E-03 0.  1.
         11   -1    0    0    0    0 -0.00000000000E+00 -0.00000000000E+00 -0.45593999997E+02  0.45594000000E+02  0.51100000000E-03 0. -1.
    9900012    2    1    2    0    0  0.66712860986E+00  0.34348944137E+02  0.21745579601E+02  0.50528865035E+02  0.30000015759E+02 0.  0.
         12    1    1    2    0    0 -0.66712860986E+00 -0.34348944137E+02 -0.21745579601E+02  0.40659134965E+02  0.00000000000E+00 0. -1.
         11    1    3    3    0    0  0.64516629413E+01  0.13542276218E+02 -0.85705193890E-01  0.15000818161E+02  0.51100000000E-03 0. -1.
        -11    1    3    3    0    0  0.42775662557E+01  0.84446642090E+01  0.15931759508E+02  0.18531888408E+02  0.51100000000E-03 0.  1.
         12    1    3    3    0    0 -0.10062100587E+02  0.12362003711E+02  0.58995252872E+01  0.16996158466E+02  0.00000000000E+00 0. -1.
</event>
<event>
 7    1  0.5408841E-013  0.5052884E+02  0.7816164E-02  0.1300439E+00
        -11   -1    0    0    0    0  0.00000000000E+00  0.00000000000E+00  0.45593999997E+02  0.45594000000E+02  0.51100000000E-03 0. -1.
         11   -1    0    0    0    0 -0.00000000000E+00 -0.00000000000E+00 -0.45593999997E+02  0.45594000000E+02  0.51100000000E-03 0.  1.
    9900012    2    1    2    0    0 -0.18086634586E+02  0.29229721277E+02 -0.21717827416E+02  0.50528843784E+02  0.29999951165E+02 0.  0.
         12    1    1    2    0    0  0.18086634586E+02 -0.29229721277E+02  0.21717827416E+02  0.40659156216E+02  0.00000000000E+00 0. -1.
         11    1    3    3    0    0 -0.30841692907E+00  0.14572843302E+01 -0.78835396112E+01  0.80230290840E+01  0.51100000000E-03 0. -1.
        -11    1    3    3    0    0 -0.69729950185E+00  0.14858139768E+02 -0.14915943483E+02  0.21065040095E+02  0.51100000000E-03 0.  1.
         12    1    3    3    0    0 -0.17080918155E+02  0.12914297179E+02  0.10816556784E+01  0.21440774604E+02  0.00000000000E+00 0. -1.
</event>
<event>
 7    1  0.5408841E-013  0.5052886E+02  0.7816164E-02  0.1300439E+00
        -11   -1    0    0    0    0  0.00000000000E+00  0.00000000000E+00  0.45593999997E+02  0.45594000000E+02  0.51100000000E-03 0.  1.
         11   -1    0    0    0    0 -0.00000000000E+00 -0.00000000000E+00 -0.45593999997E+02  0.45594000000E+02  0.51100000000E-03 0. -1.
    9900012    2    1    2    0    0  0.33149326246E+02 -0.38830413446E+01  0.23220895082E+02  0.50528858235E+02  0.29999995091E+02 0.  0.
         12    1    1    2    0    0 -0.33149326246E+02  0.38830413446E+01 -0.23220895082E+02  0.40659141765E+02  0.00000000000E+00 0. -1.
         11    1    3    3    0    0  0.48335154865E+01  0.52935348516E+01  0.63719879130E+01  0.95909651969E+01  0.51100000000E-03 0. -1.
        -11    1    3    3    0    0 -0.51251126074E+00  0.40086555720E+01 -0.14991578948E+01  0.43103899988E+01  0.51100000000E-03 0.  1.
        -12    1    3    3    0    0  0.28828322020E+02 -0.13185231768E+02  0.18348065064E+02  0.36627503039E+02  0.00000000000E+00 0.  1.
</event>
<event>
 7    1  0.5408841E-013  0.5052899E+02  0.7816164E-02  0.1300438E+00
        -11   -1    0    0    0    0  0.00000000000E+00  0.00000000000E+00  0.45593999997E+02  0.45594000000E+02  0.51100000000E-03 0.  1.
         11   -1    0    0    0    0 -0.00000000000E+00 -0.00000000000E+00 -0.45593999997E+02  0.45594000000E+02  0.51100000000E-03 0. -1.
    9900012    2    1    2    0    0  0.29938029576E+02  0.13081020221E+02  0.24202407611E+02  0.50528988218E+02  0.30000390185E+02 0.  0.
         12    1    1    2    0    0 -0.29938029576E+02 -0.13081020221E+02 -0.24202407611E+02  0.40659011782E+02  0.00000000000E+00 0. -1.
         11    1    3    3    0    0  0.17115205743E+01 -0.95038037864E+00  0.46092833661E+01  0.50077958176E+01  0.51100000000E-03 0. -1.
        -11    1    3    3    0    0  0.21710372189E+02  0.12161364191E+02  0.26144317590E+02  0.36093827479E+02  0.51100000000E-03 0.  1.
         12    1    3    3    0    0  0.65161368126E+01  0.18700364082E+01 -0.65511933444E+01  0.94273649215E+01  0.00000000000E+00 0. -1.
</event>
<event>
 7    1  0.5408841E-013  0.5052886E+02  0.7816164E-02  0.1300439E+00
        -11   -1    0    0    0    0  0.00000000000E+00  0.00000000000E+00  0.45593999997E+02  0.45594000000E+02  0.51100000000E-03 0.  1.
         11   -1    0    0    0    0 -0.00000000000E+00 -0.00000000000E+00 -0.45593999997E+02  0.45594000000E+02  0.51100000000E-03 0. -1.
    9900012    2    1    2    0    0 -0.23687106054E+01 -0.26336519120E+02  0.30885958985E+02  0.50528862138E+02  0.30000006953E+02 0.  0.
         12    1    1    2    0    0  0.23687106054E+01  0.26336519120E+02 -0.30885958985E+02  0.40659137862E+02  0.00000000000E+00 0. -1.
         11    1    3    3    0    0 -0.15486599588E+01 -0.90213367852E+00  0.10670370385E+02  0.10819842755E+02  0.51100000000E-03 0. -1.
        -11    1    3    3    0    0 -0.79825596811E+01 -0.59754205642E+00  0.25540611186E+01  0.84024724951E+01  0.51100000000E-03 0.  1.
        -12    1    3    3    0    0  0.71625090345E+01 -0.24836843385E+02  0.17661527481E+02  0.31306546887E+02  0.00000000000E+00 0.  1.
</event>
<event>
 7    1  0.5408841E-013  0.5052886E+02  0.7816164E-02  0.1300439E+00
        -11   -1    0    0    0    0  0.00000000000E+00  0.00000000000E+00  0.45593999997E+02  0.45594000000E+02  0.51100000000E-03 0.  1.
         11   -1    0    0    0    0 -0.00000000000E+00 -0.00000000000E+00 -0.45593999997E+02  0.45594000000E+02  0.51100000000E-03 0. -1.
    9900012    2    1    2    0    0  0.97294139710E+01 -0.13407874197E+02  0.37131300229E+02  0.50528855353E+02  0.29999986332E+02 0.  0.
         12    1    1    2    0    0 -0.97294139710E+01  0.13407874197E+02 -0.37131300229E+02  0.40659144647E+02  0.00000000000E+00 0. -1.
         11    1    3    3    0    0  0.48166774674E+01 -0.89229203754E+01  0.12157150255E+02  0.15830830440E+02  0.51100000000E-03 0.  1.
        -11    1    3    3    0    0  0.14172520357E+02 -0.40263778094E+01  0.16716770228E+02  0.22282783907E+02  0.51100000000E-03 0. -1.
         12    1    3    3    0    0 -0.92597838530E+01 -0.45857601210E+00  0.82573797459E+01  0.12415241006E+02  0.00000000000E+00 0. -1.
</event>
<event>
 7    1  0.5408841E-013  0.5052886E+02  0.7816164E-02  0.1300439E+00
        -11   -1    0    0    0    0  0.00000000000E+00  0.00000000000E+00  0.45593999997E+02  0.45594000000E+02  0.51100000000E-03 0.  1.
         11   -1    0    0    0    0 -0.00000000000E+00 -0.00000000000E+00 -0.45593999997E+02  0.45594000000E+02  0.51100000000E-03 0. -1.
    9900012    2    1    2    0    0 -0.20912495386E+02 -0.34853260648E+02  0.10409186708E+01  0.50528858928E+02  0.29999997197E+02 0.  0.
         12    1    1    2    0    0  0.20912495386E+02  0.34853260648E+02 -0.10409186708E+01  0.40659141072E+02  0.00000000000E+00 0. -1.
         11    1    3    3    0    0 -0.46205804386E+01 -0.75915372895E+01  0.42333344838E+01  0.98438977606E+01  0.51100000000E-03 0. -1.
        -11    1    3    3    0    0 -0.19042507090E+02 -0.29996503670E+02  0.20156691642E+00  0.35530943389E+02  0.51100000000E-03 0.  1.
         12    1    3    3    0    0  0.27505921425E+01  0.27347803112E+01 -0.33939827295E+01  0.51540177777E+01  0.00000000000E+00 0. -1.
</event>
<event>
 7    1  0.5408841E-013  0.5052886E+02  0.7816164E-02  0.1300439E+00
        -11   -1    0    0    0    0  0.00000000000E+00  0.00000000000E+00  0.45593999997E+02  0.45594000000E+02  0.51100000000E-03 0.  1.
         11   -1    0    0    0    0 -0.00000000000E+00 -0.00000000000E+00 -0.45593999997E+02  0.45594000000E+02  0.51100000000E-03 0. -1.
    9900012    2    1    2    0    0 -0.10585385621E+02  0.14375146449E+02  0.36530402202E+02  0.50528861922E+02  0.30000006299E+02 0.  0.
         12    1    1    2    0    0  0.10585385621E+02 -0.14375146449E+02 -0.36530402202E+02  0.40659138078E+02  0.00000000000E+00 0. -1.
         11    1    3    3    0    0  0.69663450058E+00  0.24511479315E+01  0.14287867969E+02  0.14513324815E+02  0.51100000000E-03 0. -1.
        -11    1    3    3    0    0 -0.12196554760E+02  0.23285898345E+01  0.23215657048E+02  0.26327647275E+02  0.51100000000E-03 0.  1.
         12    1    3    3    0    0  0.91453463827E+00  0.95954086826E+01 -0.97312281497E+00  0.96878898323E+01  0.00000000000E+00 0. -1.
</event>
<event>
 7    1  0.5408841E-013  0.5052886E+02  0.7816164E-02  0.1300439E+00
        -11   -1    0    0    0    0  0.00000000000E+00  0.00000000000E+00  0.45593999997E+02  0.45594000000E+02  0.51100000000E-03 0. -1.
         11   -1    0    0    0    0 -0.00000000000E+00 -0.00000000000E+00 -0.45593999997E+02  0.45594000000E+02  0.51100000000E-03 0.  1.
    9900012    2    1    2    0    0 -0.33014895649E+02  0.54631999514E+01 -0.23094071649E+02  0.50528855472E+02  0.29999986693E+02 0.  0.
         12    1    1    2    0    0  0.33014895649E+02 -0.54631999514E+01  0.23094071649E+02  0.40659144528E+02  0.00000000000E+00 0. -1.
         11    1    3    3    0    0  0.15144265201E+01  0.65224888037E+01 -0.11345346310E+02  0.13173960340E+02  0.51100000000E-03 0.  1.
        -11    1    3    3    0    0 -0.93545035702E+01 -0.14671711253E+01 -0.68948621144E+01  0.11713174292E+02  0.51100000000E-03 0. -1.
        -12    1    3    3    0    0 -0.25174818599E+02  0.40788227299E+00 -0.48538632242E+01  0.25641720840E+02  0.00000000000E+00 0.  1.
</event>
<event>
 7    1  0.5408841E-013  0.5052886E+02  0.7816164E-02  0.1300439E+00
        -11   -1    0    0    0    0  0.00000000000E+00  0.00000000000E+00  0.45593999997E+02  0.45594000000E+02  0.51100000000E-03 0. -1.
         11   -1    0    0    0    0 -0.00000000000E+00 -0.00000000000E+00 -0.45593999997E+02  0.45594000000E+02  0.51100000000E-03 0.  1.
    9900012    2    1    2    0    0 -0.20005714525E+02  0.42702456172E+01 -0.35138328118E+02  0.50528859401E+02  0.29999998635E+02 0.  0.
         12    1    1    2    0    0  0.20005714525E+02 -0.42702456172E+01  0.35138328118E+02  0.40659140599E+02  0.00000000000E+00 0. -1.
         11    1    3    3    0    0 -0.94680183844E+01 -0.18971530714E+01 -0.18870857981E+02  0.21197920726E+02  0.51100000000E-03 0. -1.
        -11    1    3    3    0    0 -0.74347542029E+01  0.13850629458E+02 -0.80507440730E+01  0.17661539764E+02  0.51100000000E-03 0.  1.
         12    1    3    3    0    0 -0.31029419381E+01 -0.76832307694E+01 -0.82167260649E+01  0.11669398911E+02  0.00000000000E+00 0. -1.
</event>
<event>
 7    1  0.5408841E-013  0.5052886E+02  0.7816164E-02  0.1300439E+00
        -11   -1    0    0    0    0  0.00000000000E+00  0.00000000000E+00  0.45593999997E+02  0.45594000000E+02  0.51100000000E-03 0.  1.
         11   -1    0    0    0    0 -0.00000000000E+00 -0.00000000000E+00 -0.45593999997E+02  0.45594000000E+02  0.51100000000E-03 0. -1.
    9900012    2    1    2    0    0 -0.26975656902E+01  0.29333923776E+02  0.28025163274E+02  0.50528859315E+02  0.29999998373E+02 0.  0.
         12    1    1    2    0    0  0.26975656902E+01 -0.29333923776E+02 -0.28025163274E+02  0.40659140685E+02  0.00000000000E+00 0. -1.
         11    1    3    3    0    0  0.53773676207E+01  0.23491850296E+01  0.64345078193E+01  0.87084811517E+01  0.51100000000E-03 0. -1.
        -11    1    3    3    0    0  0.32825621863E+01  0.58711914947E+01 -0.30988821609E+01  0.74060228856E+01  0.51100000000E-03 0.  1.
        -12    1    3    3    0    0 -0.11357495497E+02  0.21113547251E+02  0.24689537615E+02  0.34414355278E+02  0.00000000000E+00 0.  1.
</event>
<event>
 7    1  0.5408841E-013  0.5052886E+02  0.7816164E-02  0.1300439E+00
        -11   -1    0    0    0    0  0.00000000000E+00  0.00000000000E+00  0.45593999997E+02  0.45594000000E+02  0.51100000000E-03 0.  1.
         11   -1    0    0    0    0 -0.00000000000E+00 -0.00000000000E+00 -0.45593999997E+02  0.45594000000E+02  0.51100000000E-03 0. -1.
    9900012    2    1    2    0    0  0.61404662359E+01 -0.38913242148E+02  0.10060798001E+02  0.50528863309E+02  0.30000010514E+02 0.  0.
         12    1    1    2    0    0 -0.61404662359E+01  0.38913242148E+02 -0.10060798001E+02  0.40659136691E+02  0.00000000000E+00 0. -1.
         11    1    3    3    0    0  0.72949782518E+00 -0.49236859019E+01  0.52113440925E+01  0.72064524871E+01  0.51100000000E-03 0. -1.
        -11    1    3    3    0    0  0.22025861983E+01 -0.37608570232E+02  0.64641444623E+01  0.38223567400E+02  0.51100000000E-03 0.  1.
         12    1    3    3    0    0  0.32083822124E+01  0.36190139867E+01 -0.16146905535E+01  0.50988434219E+01  0.00000000000E+00 0. -1.
</event>
<event>
 7    1  0.5408841E-013  0.5052887E+02  0.7816164E-02  0.1300439E+00
        -11   -1    0    0    0    0  0.00000000000E+00  0.00000000000E+00  0.45593999997E+02  0.45594000000E+02  0.51100000000E-03 0.  1.
         11   -1    0    0    0    0 -0.00000000000E+00 -0.00000000000E+00 -0.45593999997E+02  0.45594000000E+02  0.51100000000E-03 0. -1.
    9900012    2    1    2    0    0  0.32800290077E+02 -0.10755188780E+02  0.21485614767E+02  0.50528871176E+02  0.30000034427E+02 0.  0.
         12    1    1    2    0    0 -0.32800290077E+02  0.10755188780E+02 -0.21485614767E+02  0.40659128824E+02  0.00000000000E+00 0. -1.
         11    1    3    3    0    0  0.10791971063E+00 -0.35029094742E+01  0.19080066518E+01  0.39903021305E+01  0.51100000000E-03 0. -1.
        -11    1    3    3    0    0 -0.48287054102E+00  0.11791899740E+01  0.11234551899E+02  0.11306582577E+02  0.51100000000E-03 0.  1.
         12    1    3    3    0    0  0.33175240907E+02 -0.84314692797E+01  0.83430562166E+01  0.35231986468E+02  0.00000000000E+00 0. -1.
</event>
<event>
 7    1  0.5408841E-013  0.5052886E+02  0.7816164E-02  0.1300439E+00
        -11   -1    0    0    0    0  0.00000000000E+00  0.00000000000E+00  0.45593999997E+02  0.45594000000E+02  0.51100000000E-03 0.  1.
         11   -1    0    0    0    0 -0.00000000000E+00 -0.00000000000E+00 -0.45593999997E+02  0.45594000000E+02  0.51100000000E-03 0. -1.
    9900012    2    1    2    0    0  0.13199859813E+02 -0.17910624172E+02  0.34031436230E+02  0.50528863152E+02  0.30000010037E+02 0.  0.
         12    1    1    2    0    0 -0.13199859813E+02  0.17910624172E+02 -0.34031436230E+02  0.40659136848E+02  0.00000000000E+00 0. -1.
         11    1    3    3    0    0  0.14482174095E+02 -0.80225399401E+00  0.14566746068E+02  0.20556436200E+02  0.51100000000E-03 0. -1.
        -11    1    3    3    0    0  0.37399109992E+01  0.11032023578E+01  0.34527400463E+01  0.52082054311E+01  0.51100000000E-03 0.  1.
         12    1    3    3    0    0 -0.50222252810E+01 -0.18211572536E+02  0.16011950117E+02  0.24764221521E+02  0.00000000000E+00 0. -1.
</event>
<event>
 7    1  0.5408841E-013  0.5052887E+02  0.7816164E-02  0.1300439E+00
        -11   -1    0    0    0    0  0.00000000000E+00  0.00000000000E+00  0.45593999997E+02  0.45594000000E+02  0.51100000000E-03 0. -1.
         11   -1    0    0    0    0 -0.00000000000E+00 -0.00000000000E+00 -0.45593999997E+02  0.45594000000E+02  0.51100000000E-03 0.  1.
    9900012    2    1    2    0    0 -0.31161334406E+02 -0.25843893144E+02  0.37721804871E+01  0.50528869163E+02  0.30000028308E+02 0.  0.
         12    1    1    2    0    0  0.31161334406E+02  0.25843893144E+02 -0.37721804871E+01  0.40659130837E+02  0.00000000000E+00 0. -1.
         11    1    3    3    0    0 -0.11593055490E+02 -0.19651567431E+02 -0.22749632208E+01  0.22929424241E+02  0.51100000000E-03 0. -1.
        -11    1    3    3    0    0 -0.12749998274E+02 -0.72762796342E+01 -0.41768163618E+01  0.15262781414E+02  0.51100000000E-03 0.  1.
         12    1    3    3    0    0 -0.68182806414E+01  0.10839539213E+01  0.10223960070E+02  0.12336663508E+02  0.00000000000E+00 0. -1.
</event>
<event>
 7    1  0.5408841E-013  0.5052886E+02  0.7816164E-02  0.1300439E+00
        -11   -1    0    0    0    0  0.00000000000E+00  0.00000000000E+00  0.45593999997E+02  0.45594000000E+02  0.51100000000E-03 0. -1.
         11   -1    0    0    0    0 -0.00000000000E+00 -0.00000000000E+00 -0.45593999997E+02  0.45594000000E+02  0.51100000000E-03 0.  1.
    9900012    2    1    2    0    0  0.37341254721E+02 -0.15348946247E+02 -0.48172414922E+01  0.50528864856E+02  0.30000015218E+02 0.  0.
         12    1    1    2    0    0 -0.37341254721E+02  0.15348946247E+02  0.48172414922E+01  0.40659135144E+02  0.00000000000E+00 0. -1.
         11    1    3    3    0    0  0.27154371565E+02 -0.41182538606E+01 -0.39063275819E+01  0.27741292424E+02  0.51100000000E-03 0.  1.
        -11    1    3    3    0    0  0.68931426916E+01  0.30765804196E+01 -0.26571516269E+01  0.80025757275E+01  0.51100000000E-03 0. -1.
        -12    1    3    3    0    0  0.32937404646E+01 -0.14307272806E+02  0.17462377166E+01  0.14784996705E+02  0.00000000000E+00 0.  1.
</event>
<event>
 7    1  0.5408841E-013  0.5052899E+02  0.7816164E-02  0.1300438E+00
        -11   -1    0    0    0    0  0.00000000000E+00  0.00000000000E+00  0.45593999997E+02  0.45594000000E+02  0.51100000000E-03 0.  1.
         11   -1    0    0    0    0 -0.00000000000E+00 -0.00000000000E+00 -0.45593999997E+02  0.45594000000E+02  0.51100000000E-03 0. -1.
    9900012    2    1    2    0    0  0.25213506075E+01 -0.29108948306E+00  0.40579708706E+02  0.50528994839E+02  0.30000410310E+02 0.  0.
         12    1    1    2    0    0 -0.25213506075E+01  0.29108948306E+00 -0.40579708706E+02  0.40659005161E+02  0.00000000000E+00 0. -1.
         11    1    3    3    0    0 -0.90100726392E+00 -0.98564098525E+01  0.16670603532E+02  0.19387358037E+02  0.51100000000E-03 0. -1.
        -11    1    3    3    0    0 -0.83324731762E+00 -0.48358030000E+01  0.51704515594E+01  0.71283140599E+01  0.51100000000E-03 0.  1.
        -12    1    3    3    0    0  0.42556051890E+01  0.14401123369E+02  0.18738653615E+02  0.24013322742E+02  0.00000000000E+00 0.  1.
</event>
<event>
 7    1  0.5408841E-013  0.5052887E+02  0.7816164E-02  0.1300439E+00
        -11   -1    0    0    0    0  0.00000000000E+00  0.00000000000E+00  0.45593999997E+02  0.45594000000E+02  0.51100000000E-03 0.  1.
         11   -1    0    0    0    0 -0.00000000000E+00 -0.00000000000E+00 -0.45593999997E+02  0.45594000000E+02  0.51100000000E-03 0. -1.
    9900012    2    1    2    0    0  0.27017823369E+02 -0.30371468124E+02  0.88108858079E+00  0.50528866060E+02  0.30000018876E+02 0.  0.
         12    1    1    2    0    0 -0.27017823369E+02  0.30371468124E+02 -0.88108858079E+00  0.40659133940E+02  0.00000000000E+00 0. -1.
         11    1    3    3    0    0  0.19685444323E+02 -0.16830976610E+02  0.43553226225E+01  0.26263421850E+02  0.51100000000E-03 0. -1.
        -11    1    3    3    0    0  0.11200331328E+02 -0.54071615752E+01  0.34479946072E+01  0.12906335081E+02  0.51100000000E-03 0.  1.
         12    1    3    3    0    0 -0.38679522813E+01 -0.81333299389E+01 -0.69222286489E+01  0.11359109129E+02  0.00000000000E+00 0. -1.
</event>
<event>
 7    1  0.5408841E-013  0.5052886E+02  0.7816164E-02  0.1300439E+00
        -11   -1    0    0    0    0  0.00000000000E+00  0.00000000000E+00  0.45593999997E+02  0.45594000000E+02  0.51100000000E-03 0. -1.
         11   -1    0    0    0    0 -0.00000000000E+00 -0.00000000000E+00 -0.45593999997E+02  0.45594000000E+02  0.51100000000E-03 0.  1.
    9900012    2    1    2    0    0  0.24855154464E+02 -0.33270062368E+01 -0.32004970423E+02  0.50528858277E+02  0.29999995217E+02 0.  0.
         12    1    1    2    0    0 -0.24855154464E+02  0.33270062368E+01  0.32004970423E+02  0.40659141723E+02  0.00000000000E+00 0. -1.
         11    1    3    3    0    0  0.46487037570E+01 -0.65889819954E+01 -0.38309022902E+01  0.89275384611E+01  0.51100000000E-03 0. -1.
        -11    1    3    3    0    0  0.52456559009E+01  0.57490989177E+01 -0.24897190666E+02  0.26085228531E+02  0.51100000000E-03 0.  1.
         12    1    3    3    0    0  0.14960794806E+02 -0.24871231591E+01 -0.32768774673E+01  0.15516091285E+02  0.00000000000E+00 0. -1.
</event>
<event>
 7    1  0.5408841E-013  0.5052885E+02  0.7816164E-02  0.1300439E+00
        -11   -1    0    0    0    0  0.00000000000E+00  0.00000000000E+00  0.45593999997E+02  0.45594000000E+02  0.51100000000E-03 0.  1.
         11   -1    0    0    0    0 -0.00000000000E+00 -0.00000000000E+00 -0.45593999997E+02  0.45594000000E+02  0.51100000000E-03 0. -1.
    9900012    2    1    2    0    0  0.19446314058E+02 -0.14933255507E+02  0.32434627433E+02  0.50528852109E+02  0.29999976472E+02 0.  0.
         12    1    1    2    0    0 -0.19446314058E+02  0.14933255507E+02 -0.32434627433E+02  0.40659147891E+02  0.00000000000E+00 0. -1.
         11    1    3    3    0    0  0.20060317981E+02 -0.12782837417E+02  0.13381884835E+02  0.27292712066E+02  0.51100000000E-03 0. -1.
        -11    1    3    3    0    0  0.28198471764E+01 -0.50698981510E+01  0.29378318668E+01  0.65027887632E+01  0.51100000000E-03 0.  1.
        -12    1    3    3    0    0 -0.34338510995E+01  0.29194800610E+01  0.16114910731E+02  0.16733351281E+02  0.00000000000E+00 0.  1.
</event>
<event>
 7    1  0.5408841E-013  0.5052885E+02  0.7816164E-02  0.1300439E+00
        -11   -1    0    0    0    0  0.00000000000E+00  0.00000000000E+00  0.45593999997E+02  0.45594000000E+02  0.51100000000E-03 0.  1.
         11   -1    0    0    0    0 -0.00000000000E+00 -0.00000000000E+00 -0.45593999997E+02  0.45594000000E+02  0.51100000000E-03 0. -1.
    9900012    2    1    2    0    0  0.10518466401E+02 -0.39254609552E+02 -0.12663816643E+01  0.50528853070E+02  0.29999979392E+02 0.  0.
         12    1    1    2    0    0 -0.10518466401E+02  0.39254609552E+02  0.12663816643E+01  0.40659146930E+02  0.00000000000E+00 0. -1.
         11    1    3    3    0    0  0.10362910719E+02 -0.13493810175E+02 -0.81100714208E+01  0.18847973109E+02  0.51100000000E-03 0. -1.
        -11    1    3    3    0    0 -0.32945369945E+01  0.12838994987E+01 -0.13348518995E+00  0.35383881200E+01  0.51100000000E-03 0.  1.
        -12    1    3    3    0    0  0.34500926768E+01 -0.27044698877E+02  0.69771749465E+01  0.28142491841E+02  0.00000000000E+00 0.  1.
</event>
<event>
 7    1  0.5408841E-013  0.5052887E+02  0.7816164E-02  0.1300439E+00
        -11   -1    0    0    0    0  0.00000000000E+00  0.00000000000E+00  0.45593999997E+02  0.45594000000E+02  0.51100000000E-03 0.  1.
         11   -1    0    0    0    0 -0.00000000000E+00 -0.00000000000E+00 -0.45593999997E+02  0.45594000000E+02  0.51100000000E-03 0. -1.
    9900012    2    1    2    0    0  0.29408268987E+01 -0.34019495085E+02  0.22072394470E+02  0.50528866877E+02  0.30000021359E+02 0.  0.
         12    1    1    2    0    0 -0.29408268987E+01  0.34019495085E+02 -0.22072394470E+02  0.40659133123E+02  0.00000000000E+00 0. -1.
         11    1    3    3    0    0  0.84237493663E+00 -0.63987912111E+01 -0.31874612604E+01  0.71981965828E+01  0.51100000000E-03 0. -1.
        -11    1    3    3    0    0 -0.14127994005E+01 -0.15215744160E+02  0.35338958211E+00  0.15285279093E+02  0.51100000000E-03 0.  1.
        -12    1    3    3    0    0  0.35112513626E+01 -0.12404959714E+02  0.24906466148E+02  0.28045391201E+02  0.00000000000E+00 0.  1.
</event>
<event>
 7    1  0.5408841E-013  0.5052886E+02  0.7816164E-02  0.1300439E+00
        -11   -1    0    0    0    0  0.00000000000E+00  0.00000000000E+00  0.45593999997E+02  0.45594000000E+02  0.51100000000E-03 0.  1.
         11   -1    0    0    0    0 -0.00000000000E+00 -0.00000000000E+00 -0.45593999997E+02  0.45594000000E+02  0.51100000000E-03 0. -1.
    9900012    2    1    2    0    0  0.17208310056E+02 -0.11761489545E+02  0.34909984474E+02  0.50528860963E+02  0.30000003383E+02 0.  0.
         12    1    1    2    0    0 -0.17208310056E+02  0.11761489545E+02 -0.34909984474E+02  0.40659139037E+02  0.00000000000E+00 0. -1.
         11    1    3    3    0    0 -0.68709439848E+00  0.36358562162E+01  0.37449493836E+00  0.37191122405E+01  0.51100000000E-03 0. -1.
        -11    1    3    3    0    0  0.18671879085E+02 -0.56334385916E+01  0.13844294908E+02  0.23917341004E+02  0.51100000000E-03 0.  1.
         12    1    3    3    0    0 -0.77647463054E+00 -0.97639071698E+01  0.20691194627E+02  0.22892407719E+02  0.00000000000E+00 0. -1.
</event>
<event>
 7    1  0.5408841E-013  0.5052890E+02  0.7816164E-02  0.1300439E+00
        -11   -1    0    0    0    0  0.00000000000E+00  0.00000000000E+00  0.45593999997E+02  0.45594000000E+02  0.51100000000E-03 0. -1.
         11   -1    0    0    0    0 -0.00000000000E+00 -0.00000000000E+00 -0.45593999997E+02  0.45594000000E+02  0.51100000000E-03 0.  1.
    9900012    2    1    2    0    0 -0.66181453478E+01  0.36706830954E+01 -0.39948576030E+02  0.50528899062E+02  0.30000119189E+02 0.  0.
         12    1    1    2    0    0  0.66181453478E+01 -0.36706830954E+01  0.39948576030E+02  0.40659100938E+02  0.00000000000E+00 0. -1.
         11    1    3    3    0    0 -0.10985418365E+02 -0.44308007322E+01 -0.14623347494E+02  0.18818971915E+02  0.51100000000E-03 0. -1.
        -11    1    3    3    0    0 -0.36684668285E+01 -0.21787401153E+01 -0.13292505789E+02  0.13960489525E+02  0.51100000000E-03 0.  1.
        -12    1    3    3    0    0  0.80357398454E+01  0.10280223943E+02 -0.12032722747E+02  0.17749437622E+02  0.00000000000E+00 0.  1.
</event>
<event>
 7    1  0.5408841E-013  0.5052887E+02  0.7816164E-02  0.1300439E+00
        -11   -1    0    0    0    0  0.00000000000E+00  0.00000000000E+00  0.45593999997E+02  0.45594000000E+02  0.51100000000E-03 0. -1.
         11   -1    0    0    0    0 -0.00000000000E+00 -0.00000000000E+00 -0.45593999997E+02  0.45594000000E+02  0.51100000000E-03 0.  1.
    9900012    2    1    2    0    0 -0.18120374777E+01  0.17623623134E+02 -0.36596306857E+02  0.50528865138E+02  0.30000016072E+02 0.  0.
         12    1    1    2    0    0  0.18120374777E+01 -0.17623623134E+02  0.36596306857E+02  0.40659134862E+02  0.00000000000E+00 0. -1.
         11    1    3    3    0    0 -0.73813944511E+01 -0.91282058092E+00 -0.81563187862E+01  0.11038286183E+02  0.51100000000E-03 0. -1.
        -11    1    3    3    0    0  0.90975942966E+01  0.17830122145E+01 -0.15376538691E+02  0.17955035420E+02  0.51100000000E-03 0.  1.
        -12    1    3    3    0    0 -0.35282373232E+01  0.16753431500E+02 -0.13063449380E+02  0.21535543535E+02  0.00000000000E+00 0.  1.
</event>
<event>
 7    1  0.5408841E-013  0.5052886E+02  0.7816164E-02  0.1300439E+00
        -11   -1    0    0    0    0  0.00000000000E+00  0.00000000000E+00  0.45593999997E+02  0.45594000000E+02  0.51100000000E-03 0.  1.
         11   -1    0    0    0    0 -0.00000000000E+00 -0.00000000000E+00 -0.45593999997E+02  0.45594000000E+02  0.51100000000E-03 0. -1.
    9900012    2    1    2    0    0  0.24794800300E+02 -0.31325588402E+02 -0.75558701277E+01  0.50528858542E+02  0.29999996026E+02 0.  0.
         12    1    1    2    0    0 -0.24794800300E+02  0.31325588402E+02  0.75558701277E+01  0.40659141458E+02  0.00000000000E+00 0. -1.
         11    1    3    3    0    0  0.44560209074E+00  0.27137333024E+01  0.16672536161E-01  0.27501250689E+01  0.51100000000E-03 0. -1.
        -11    1    3    3    0    0  0.15376059577E+01 -0.19629618403E+02 -0.66462392385E+01  0.20781208988E+02  0.51100000000E-03 0.  1.
        -12    1    3    3    0    0  0.22811592252E+02 -0.14409703301E+02 -0.92630342533E+00  0.26997524485E+02  0.00000000000E+00 0.  1.
</event>
<event>
 7    1  0.5408841E-013  0.5052886E+02  0.7816164E-02  0.1300439E+00
        -11   -1    0    0    0    0  0.00000000000E+00  0.00000000000E+00  0.45593999997E+02  0.45594000000E+02  0.51100000000E-03 0.  1.
         11   -1    0    0    0    0 -0.00000000000E+00 -0.00000000000E+00 -0.45593999997E+02  0.45594000000E+02  0.51100000000E-03 0. -1.
    9900012    2    1    2    0    0  0.99619388594E+01  0.37591915795E+02 -0.11864802122E+02  0.50528857260E+02  0.29999992127E+02 0.  0.
         12    1    1    2    0    0 -0.99619388594E+01 -0.37591915795E+02  0.11864802122E+02  0.40659142740E+02  0.00000000000E+00 0. -1.
         11    1    3    3    0    0  0.11343380985E+02  0.10124260191E+02  0.80882937932E+00  0.15225870806E+02  0.51100000000E-03 0. -1.
        -11    1    3    3    0    0  0.41856746024E+01  0.35906254378E+01  0.29265837823E+01  0.62431847487E+01  0.51100000000E-03 0.  1.
         12    1    3    3    0    0 -0.55671167278E+01  0.23877030167E+02 -0.15600215283E+02  0.29059801705E+02  0.00000000000E+00 0. -1.
</event>
<event>
 7    1  0.5408841E-013  0.5052885E+02  0.7816164E-02  0.1300439E+00
        -11   -1    0    0    0    0  0.00000000000E+00  0.00000000000E+00  0.45593999997E+02  0.45594000000E+02  0.51100000000E-03 0.  1.
         11   -1    0    0    0    0 -0.00000000000E+00 -0.00000000000E+00 -0.45593999997E+02  0.45594000000E+02  0.51100000000E-03 0. -1.
    9900012    2    1    2    0    0 -0.26599527112E+01  0.15954839296E+02  0.37303271238E+02  0.50528852315E+02  0.29999977097E+02 0.  0.
         12    1    1    2    0    0  0.26599527112E+01 -0.15954839296E+02 -0.37303271238E+02  0.40659147685E+02  0.00000000000E+00 0. -1.
         11    1    3    3    0    0  0.77065346245E+01  0.12321270041E+02  0.17884908195E+02  0.23045049636E+02  0.51100000000E-03 0. -1.
        -11    1    3    3    0    0  0.36914714481E+01 -0.13122428762E+01  0.72641927533E+01  0.82533289911E+01  0.51100000000E-03 0.  1.
        -12    1    3    3    0    0 -0.14057958784E+02  0.49458121320E+01  0.12154170290E+02  0.19230473687E+02  0.00000000000E+00 0.  1.
</event>
<event>
 7    1  0.5408841E-013  0.5052886E+02  0.7816164E-02  0.1300439E+00
        -11   -1    0    0    0    0  0.00000000000E+00  0.00000000000E+00  0.45593999997E+02  0.45594000000E+02  0.51100000000E-03 0.  1.
         11   -1    0    0    0    0 -0.00000000000E+00 -0.00000000000E+00 -0.45593999997E+02  0.45594000000E+02  0.51100000000E-03 0. -1.
    9900012    2    1    2    0    0  0.34759323467E+02  0.17506295648E+02 -0.11767940274E+02  0.50528863591E+02  0.30000011372E+02 0.  0.
         12    1    1    2    0    0 -0.34759323467E+02 -0.17506295648E+02  0.11767940274E+02  0.40659136409E+02  0.00000000000E+00 0. -1.
         11    1    3    3    0    0 -0.14412276539E+01  0.65974813122E+01 -0.73751424175E+01  0.99998311364E+01  0.51100000000E-03 0. -1.
        -11    1    3    3    0    0  0.22795432224E+02  0.12058475935E+02  0.15192891430E+01  0.25833056573E+02  0.51100000000E-03 0.  1.
        -12    1    3    3    0    0  0.13405118897E+02 -0.11496615990E+01 -0.59120869989E+01  0.14695975882E+02  0.00000000000E+00 0.  1.
</event>
<event>
 7    1  0.5408841E-013  0.5052884E+02  0.7816164E-02  0.1300439E+00
        -11   -1    0    0    0    0  0.00000000000E+00  0.00000000000E+00  0.45593999997E+02  0.45594000000E+02  0.51100000000E-03 0. -1.
         11   -1    0    0    0    0 -0.00000000000E+00 -0.00000000000E+00 -0.45593999997E+02  0.45594000000E+02  0.51100000000E-03 0.  1.
    9900012    2    1    2    0    0 -0.12423711972E+01 -0.35722201992E+02 -0.19379062991E+02  0.50528840101E+02  0.29999939969E+02 0.  0.
         12    1    1    2    0    0  0.12423711972E+01  0.35722201992E+02  0.19379062991E+02  0.40659159899E+02  0.00000000000E+00 0. -1.
         11    1    3    3    0    0  0.41785134489E+01 -0.52058151509E+01  0.57263356401E+00  0.66998802593E+01  0.51100000000E-03 0. -1.
        -11    1    3    3    0    0  0.34113953838E+01 -0.13760436032E+02  0.25626442223E+01  0.14406747167E+02  0.51100000000E-03 0.  1.
        -12    1    3    3    0    0 -0.88322800300E+01 -0.16755950809E+02 -0.22514340777E+02  0.29422212674E+02  0.00000000000E+00 0.  1.
</event>
<event>
 7    1  0.5408841E-013  0.5052886E+02  0.7816164E-02  0.1300439E+00
        -11   -1    0    0    0    0  0.00000000000E+00  0.00000000000E+00  0.45593999997E+02  0.45594000000E+02  0.51100000000E-03 0.  1.
         11   -1    0    0    0    0 -0.00000000000E+00 -0.00000000000E+00 -0.45593999997E+02  0.45594000000E+02  0.51100000000E-03 0. -1.
    9900012    2    1    2    0    0  0.18563066633E+02 -0.11832008284E+02  0.34184521670E+02  0.50528863454E+02  0.30000010954E+02 0.  0.
         12    1    1    2    0    0 -0.18563066633E+02  0.11832008284E+02 -0.34184521670E+02  0.40659136546E+02  0.00000000000E+00 0. -1.
         11    1    3    3    0    0  0.20934631150E+02 -0.66474689116E+01  0.16353019290E+02  0.27383733575E+02  0.51100000000E-03 0. -1.
        -11    1    3    3    0    0  0.45222522960E+01  0.10264427675E+01  0.99230488683E+01  0.10953138805E+02  0.51100000000E-03 0.  1.
         12    1    3    3    0    0 -0.68938168128E+01 -0.62109821402E+01  0.79084535114E+01  0.12191991073E+02  0.00000000000E+00 0. -1.
</event>
<event>
 7    1  0.5408841E-013  0.5052885E+02  0.7816164E-02  0.1300439E+00
        -11   -1    0    0    0    0  0.00000000000E+00  0.00000000000E+00  0.45593999997E+02  0.45594000000E+02  0.51100000000E-03 0.  1.
         11   -1    0    0    0    0 -0.00000000000E+00 -0.00000000000E+00 -0.45593999997E+02  0.45594000000E+02  0.51100000000E-03 0. -1.
    9900012    2    1    2    0    0 -0.28063084373E+02 -0.40761768218E+01  0.29137853860E+02  0.50528850359E+02  0.29999971151E+02 0.  0.
         12    1    1    2    0    0  0.28063084373E+02  0.40761768218E+01 -0.29137853860E+02  0.40659149641E+02  0.00000000000E+00 0. -1.
         11    1    3    3    0    0 -0.73220088728E+01 -0.28367557205E+01  0.39396981446E+01  0.87852272983E+01  0.51100000000E-03 0. -1.
        -11    1    3    3    0    0 -0.63324216858E+01 -0.13003787213E+02  0.13394999904E+02  0.19713550390E+02  0.51100000000E-03 0.  1.
         12    1    3    3    0    0 -0.14408653814E+02  0.11764366112E+02  0.11803155811E+02  0.22030072670E+02  0.00000000000E+00 0. -1.
</event>
<event>
 7    1  0.5408841E-013  0.5052886E+02  0.7816164E-02  0.1300439E+00
        -11   -1    0    0    0    0  0.00000000000E+00  0.00000000000E+00  0.45593999997E+02  0.45594000000E+02  0.51100000000E-03 0. -1.
         11   -1    0    0    0    0 -0.00000000000E+00 -0.00000000000E+00 -0.45593999997E+02  0.45594000000E+02  0.51100000000E-03 0.  1.
    9900012    2    1    2    0    0  0.29285846548E+01 -0.39291547111E+02 -0.10038088248E+02  0.50528862058E+02  0.30000006712E+02 0.  0.
         12    1    1    2    0    0 -0.29285846548E+01  0.39291547111E+02  0.10038088248E+02  0.40659137942E+02  0.00000000000E+00 0. -1.
         11    1    3    3    0    0  0.16823541033E+01 -0.61801993209E+01 -0.49956424820E+01  0.81229073024E+01  0.51100000000E-03 0. -1.
        -11    1    3    3    0    0 -0.34393527461E+01 -0.28672353364E+02 -0.13408915746E+02  0.31839158539E+02  0.51100000000E-03 0.  1.
         12    1    3    3    0    0  0.46855832975E+01 -0.44389944265E+01  0.83664699800E+01  0.10566796217E+02  0.00000000000E+00 0. -1.
</event>
<event>
 7    1  0.5408841E-013  0.5052886E+02  0.7816164E-02  0.1300439E+00
        -11   -1    0    0    0    0  0.00000000000E+00  0.00000000000E+00  0.45593999997E+02  0.45594000000E+02  0.51100000000E-03 0.  1.
         11   -1    0    0    0    0 -0.00000000000E+00 -0.00000000000E+00 -0.45593999997E+02  0.45594000000E+02  0.51100000000E-03 0. -1.
    9900012    2    1    2    0    0  0.18461290144E+02 -0.19142150661E+02 -0.30755887978E+02  0.50528858211E+02  0.29999995019E+02 0.  0.
         12    1    1    2    0    0 -0.18461290144E+02  0.19142150661E+02  0.30755887978E+02  0.40659141789E+02  0.00000000000E+00 0. -1.
         11    1    3    3    0    0 -0.57348885557E+00  0.48686315603E+01 -0.21603963994E+01  0.53572171508E+01  0.51100000000E-03 0. -1.
        -11    1    3    3    0    0  0.13505100604E+02 -0.47853706296E+01 -0.77892324449E+01  0.16308269581E+02  0.51100000000E-03 0.  1.
         12    1    3    3    0    0  0.55296783956E+01 -0.19225411591E+02 -0.20806259134E+02  0.28863371479E+02  0.00000000000E+00 0. -1.
</event>
<event>
 7    1  0.5408841E-013  0.5052885E+02  0.7816164E-02  0.1300439E+00
        -11   -1    0    0    0    0  0.00000000000E+00  0.00000000000E+00  0.45593999997E+02  0.45594000000E+02  0.51100000000E-03 0.  1.
         11   -1    0    0    0    0 -0.00000000000E+00 -0.00000000000E+00 -0.45593999997E+02  0.45594000000E+02  0.51100000000E-03 0. -1.
    9900012    2    1    2    0    0 -0.12771044560E+02  0.11969168667E+02  0.36698857721E+02  0.50528846839E+02  0.29999960453E+02 0.  0.
         12    1    1    2    0    0  0.12771044560E+02 -0.11969168667E+02 -0.36698857721E+02  0.40659153161E+02  0.00000000000E+00 0. -1.
         11    1    3    3    0    0 -0.35847935181E+01  0.16227355590E+02  0.23298068410E+02  0.28617788278E+02  0.51100000000E-03 0. -1.
        -11    1    3    3    0    0 -0.35320909153E+01  0.24299884359E+01  0.12370966012E+02  0.13092796124E+02  0.51100000000E-03 0.  1.
         12    1    3    3    0    0 -0.56541601268E+01 -0.66881753596E+01  0.10298232989E+01  0.88182624370E+01  0.00000000000E+00 0. -1.
</event>
<event>
 7    1  0.5408841E-013  0.5052886E+02  0.7816164E-02  0.1300439E+00
        -11   -1    0    0    0    0  0.00000000000E+00  0.00000000000E+00  0.45593999997E+02  0.45594000000E+02  0.51100000000E-03 0.  1.
         11   -1    0    0    0    0 -0.00000000000E+00 -0.00000000000E+00 -0.45593999997E+02  0.45594000000E+02  0.51100000000E-03 0. -1.
    9900012    2    1    2    0    0 -0.26915951795E+02  0.15520385022E+01  0.30434982830E+02  0.50528862473E+02  0.30000007974E+02 0.  0.
         12    1    1    2    0    0  0.26915951795E+02 -0.15520385022E+01 -0.30434982830E+02  0.40659137527E+02  0.00000000000E+00 0. -1.
         11    1    3    3    0    0 -0.15696182447E+02  0.72337923014E+01  0.50161090759E+01  0.17996089714E+02  0.51100000000E-03 0. -1.
        -11    1    3    3    0    0 -0.13777634628E+01  0.52754045853E+01  0.53447204246E+01  0.76350613866E+01  0.51100000000E-03 0.  1.
         12    1    3    3    0    0 -0.98420058854E+01 -0.10957158385E+02  0.20074153330E+02  0.24897711373E+02  0.00000000000E+00 0. -1.
</event>
<event>
 7    1  0.5408841E-013  0.5052886E+02  0.7816164E-02  0.1300439E+00
        -11   -1    0    0    0    0  0.00000000000E+00  0.00000000000E+00  0.45593999997E+02  0.45594000000E+02  0.51100000000E-03 0. -1.
         11   -1    0    0    0    0 -0.00000000000E+00 -0.00000000000E+00 -0.45593999997E+02  0.45594000000E+02  0.51100000000E-03 0.  1.
    9900012    2    1    2    0    0  0.39430539052E+02 -0.88160129123E+01  0.45470966322E+01  0.50528861035E+02  0.30000003602E+02 0.  0.
         12    1    1    2    0    0 -0.39430539052E+02  0.88160129123E+01 -0.45470966322E+01  0.40659138965E+02  0.00000000000E+00 0. -1.
         11    1    3    3    0    0  0.10285432381E+02  0.60598827027E+01 -0.22883115231E+01  0.12155190970E+02  0.51100000000E-03 0.  1.
        -11    1    3    3    0    0  0.41190565717E+01 -0.11847513235E+02  0.18942941848E+01  0.12685367460E+02  0.51100000000E-03 0. -1.
         12    1    3    3    0    0  0.25026050099E+02 -0.30283823802E+01  0.49411139706E+01  0.25688302604E+02  0.00000000000E+00 0. -1.
</event>
<event>
 7    1  0.5408841E-013  0.5052883E+02  0.7816164E-02  0.1300439E+00
        -11   -1    0    0    0    0  0.00000000000E+00  0.00000000000E+00  0.45593999997E+02  0.45594000000E+02  0.51100000000E-03 0. -1.
         11   -1    0    0    0    0 -0.00000000000E+00 -0.00000000000E+00 -0.45593999997E+02  0.45594000000E+02  0.51100000000E-03 0.  1.
    9900012    2    1    2    0    0 -0.22838877315E+02 -0.18265928975E+02 -0.28247291522E+02  0.50528831826E+02  0.29999914818E+02 0.  0.
         12    1    1    2    0    0  0.22838877315E+02  0.18265928975E+02  0.28247291522E+02  0.40659168174E+02  0.00000000000E+00 0. -1.
         11    1    3    3    0    0 -0.17074359445E+02 -0.87040739798E+01 -0.71227853968E+01  0.20445750815E+02  0.51100000000E-03 0. -1.
        -11    1    3    3    0    0 -0.74405401450E+01 -0.73728303708E+01 -0.23946900846E+02  0.26137603672E+02  0.51100000000E-03 0.  1.
         12    1    3    3    0    0  0.16760222752E+01 -0.21890246239E+01  0.28223947212E+01  0.39454773391E+01  0.00000000000E+00 0. -1.
</event>
<event>
 7    1  0.5408841E-013  0.5052886E+02  0.7816164E-02  0.1300439E+00
        -11   -1    0    0    0    0  0.00000000000E+00  0.00000000000E+00  0.45593999997E+02  0.45594000000E+02  0.51100000000E-03 0.  1.
         11   -1    0    0    0    0 -0.00000000000E+00 -0.00000000000E+00 -0.45593999997E+02  0.45594000000E+02  0.51100000000E-03 0. -1.
    9900012    2    1    2    0    0 -0.15472878839E+02 -0.29884842430E+02 -0.22817795712E+02  0.50528860956E+02  0.30000003362E+02 0.  0.
         12    1    1    2    0    0  0.15472878839E+02  0.29884842430E+02  0.22817795712E+02  0.40659139044E+02  0.00000000000E+00 0. -1.
         11    1    3    3    0    0  0.32369323746E+01 -0.78248556379E+01 -0.75830953006E+01  0.11367032663E+02  0.51100000000E-03 0. -1.
        -11    1    3    3    0    0 -0.98100435459E+01 -0.77199509116E+01 -0.18156096640E+02  0.22033575332E+02  0.51100000000E-03 0.  1.
        -12    1    3    3    0    0 -0.88997676678E+01 -0.14340035881E+02  0.29213962280E+01  0.17128252962E+02  0.00000000000E+00 0.  1.
</event>
<event>
 7    1  0.5408841E-013  0.5052886E+02  0.7816164E-02  0.1300439E+00
        -11   -1    0    0    0    0  0.00000000000E+00  0.00000000000E+00  0.45593999997E+02  0.45594000000E+02  0.51100000000E-03 0. -1.
         11   -1    0    0    0    0 -0.00000000000E+00 -0.00000000000E+00 -0.45593999997E+02  0.45594000000E+02  0.51100000000E-03 0.  1.
    9900012    2    1    2    0    0  0.35440488825E+02 -0.17405149800E+02  0.97055853051E+01  0.50528857439E+02  0.29999992672E+02 0.  0.
         12    1    1    2    0    0 -0.35440488825E+02  0.17405149800E+02 -0.97055853051E+01  0.40659142561E+02  0.00000000000E+00 0. -1.
         11    1    3    3    0    0  0.10012293322E+02 -0.25062123534E+01  0.15884755468E+02  0.18943404511E+02  0.51100000000E-03 0. -1.
        -11    1    3    3    0    0  0.46114740177E+01 -0.52696520399E+01  0.19208975075E+01  0.72611825987E+01  0.51100000000E-03 0.  1.
         12    1    3    3    0    0  0.20816721485E+02 -0.96292854062E+01 -0.81000676700E+01  0.24324270330E+02  0.00000000000E+00 0. -1.
</event>
<event>
 7    1  0.5408841E-013  0.5052887E+02  0.7816164E-02  0.1300439E+00
        -11   -1    0    0    0    0  0.00000000000E+00  0.00000000000E+00  0.45593999997E+02  0.45594000000E+02  0.51100000000E-03 0. -1.
         11   -1    0    0    0    0 -0.00000000000E+00 -0.00000000000E+00 -0.45593999997E+02  0.45594000000E+02  0.51100000000E-03 0.  1.
    9900012    2    1    2    0    0 -0.10134381023E+02 -0.35153567345E+02  0.17739379343E+02  0.50528873653E+02  0.30000041956E+02 0.  0.
         12    1    1    2    0    0  0.10134381023E+02  0.35153567345E+02 -0.17739379343E+02  0.40659126347E+02  0.00000000000E+00 0. -1.
         11    1    3    3    0    0  0.30735193444E-02  0.15361493938E+01 -0.20211042889E+01  0.25386270333E+01  0.51100000000E-03 0. -1.
        -11    1    3    3    0    0  0.11375670917E+01 -0.17212098778E+01  0.96712477098E+01  0.98888651956E+01  0.51100000000E-03 0.  1.
        -12    1    3    3    0    0 -0.11275021634E+02 -0.34968506861E+02  0.10089235922E+02  0.38101381424E+02  0.00000000000E+00 0.  1.
</event>
<event>
 7    1  0.5408841E-013  0.5052886E+02  0.7816164E-02  0.1300439E+00
        -11   -1    0    0    0    0  0.00000000000E+00  0.00000000000E+00  0.45593999997E+02  0.45594000000E+02  0.51100000000E-03 0. -1.
         11   -1    0    0    0    0 -0.00000000000E+00 -0.00000000000E+00 -0.45593999997E+02  0.45594000000E+02  0.51100000000E-03 0.  1.
    9900012    2    1    2    0    0 -0.28066789593E+02  0.22129836528E+02  0.19382748359E+02  0.50528864781E+02  0.30000014988E+02 0.  0.
         12    1    1    2    0    0  0.28066789593E+02 -0.22129836528E+02 -0.19382748359E+02  0.40659135219E+02  0.00000000000E+00 0. -1.
         11    1    3    3    0    0  0.37579762506E+01  0.27582371455E+01  0.67237044468E+01  0.81815927177E+01  0.51100000000E-03 0. -1.
        -11    1    3    3    0    0 -0.24651179770E+01  0.47493108755E+01  0.73953568478E+01  0.91282015535E+01  0.51100000000E-03 0.  1.
        -12    1    3    3    0    0 -0.29359647866E+02  0.14622288507E+02  0.52636870645E+01  0.33219070510E+02  0.00000000000E+00 0.  1.
</event>
<event>
 7    1  0.5408841E-013  0.5052887E+02  0.7816164E-02  0.1300439E+00
        -11   -1    0    0    0    0  0.00000000000E+00  0.00000000000E+00  0.45593999997E+02  0.45594000000E+02  0.51100000000E-03 0.  1.
         11   -1    0    0    0    0 -0.00000000000E+00 -0.00000000000E+00 -0.45593999997E+02  0.45594000000E+02  0.51100000000E-03 0. -1.
    9900012    2    1    2    0    0 -0.20874208727E+02  0.37277924748E+01  0.34692010322E+02  0.50528873019E+02  0.30000040028E+02 0.  0.
         12    1    1    2    0    0  0.20874208727E+02 -0.37277924748E+01 -0.34692010322E+02  0.40659126981E+02  0.00000000000E+00 0. -1.
         11    1    3    3    0    0 -0.11734869976E+02  0.10527256308E+02  0.20065929299E+02  0.25518068454E+02  0.51100000000E-03 0. -1.
        -11    1    3    3    0    0  0.32903156469E-01  0.51718179101E+01  0.31041293576E+01  0.60319484781E+01  0.51100000000E-03 0.  1.
         12    1    3    3    0    0 -0.91722419069E+01 -0.11971281743E+02  0.11521951665E+02  0.18978856086E+02  0.00000000000E+00 0. -1.
</event>
<event>
 7    1  0.5408841E-013  0.5052886E+02  0.7816164E-02  0.1300439E+00
        -11   -1    0    0    0    0  0.00000000000E+00  0.00000000000E+00  0.45593999997E+02  0.45594000000E+02  0.51100000000E-03 0.  1.
         11   -1    0    0    0    0 -0.00000000000E+00 -0.00000000000E+00 -0.45593999997E+02  0.45594000000E+02  0.51100000000E-03 0. -1.
    9900012    2    1    2    0    0  0.13880413300E+02 -0.26487994456E+02  0.27547883192E+02  0.50528860904E+02  0.30000003203E+02 0.  0.
         12    1    1    2    0    0 -0.13880413300E+02  0.26487994456E+02 -0.27547883192E+02  0.40659139096E+02  0.00000000000E+00 0. -1.
         11    1    3    3    0    0  0.39329539472E+01  0.65407564654E+00 -0.81269866492E+00  0.40689582308E+01  0.51100000000E-03 0. -1.
        -11    1    3    3    0    0 -0.45608585929E+01  0.13114499069E+01  0.24986330143E+01  0.53632545309E+01  0.51100000000E-03 0.  1.
        -12    1    3    3    0    0  0.14508317945E+02 -0.28453520010E+02  0.25861948843E+02  0.41096648142E+02  0.00000000000E+00 0.  1.
</event>
<event>
 7    1  0.5408841E-013  0.5052884E+02  0.7816164E-02  0.1300439E+00
        -11   -1    0    0    0    0  0.00000000000E+00  0.00000000000E+00  0.45593999997E+02  0.45594000000E+02  0.51100000000E-03 0.  1.
         11   -1    0    0    0    0 -0.00000000000E+00 -0.00000000000E+00 -0.45593999997E+02  0.45594000000E+02  0.51100000000E-03 0. -1.
    9900012    2    1    2    0    0  0.16427274353E+02  0.28693762188E+02  0.23663902591E+02  0.50528836002E+02  0.29999927510E+02 0.  0.
         12    1    1    2    0    0 -0.16427274353E+02 -0.28693762188E+02 -0.23663902591E+02  0.40659163998E+02  0.00000000000E+00 0. -1.
         11    1    3    3    0    0  0.26814200807E+01  0.87246697158E+01  0.13173942676E+02  0.16026934866E+02  0.51100000000E-03 0. -1.
        -11    1    3    3    0    0  0.12677893342E+02  0.19730846970E+02  0.16318546897E+02  0.28571494095E+02  0.51100000000E-03 0.  1.
         12    1    3    3    0    0  0.10679609308E+01  0.23824550252E+00 -0.58285869815E+01  0.59304070409E+01  0.00000000000E+00 0. -1.
</event>
<event>
 7    1  0.5408841E-013  0.5052887E+02  0.7816164E-02  0.1300439E+00
        -11   -1    0    0    0    0  0.00000000000E+00  0.00000000000E+00  0.45593999997E+02  0.45594000000E+02  0.51100000000E-03 0.  1.
         11   -1    0    0    0    0 -0.00000000000E+00 -0.00000000000E+00 -0.45593999997E+02  0.45594000000E+02  0.51100000000E-03 0. -1.
    9900012    2    1    2    0    0 -0.63659743022E+01 -0.30192787903E+02  0.26477066505E+02  0.50528866698E+02  0.30000020815E+02 0.  0.
         12    1    1    2    0    0  0.63659743022E+01  0.30192787903E+02 -0.26477066505E+02  0.40659133302E+02  0.00000000000E+00 0. -1.
         11    1    3    3    0    0  0.15117141142E+01 -0.12491419679E+02 -0.96316432629E+00  0.12619371258E+02  0.51100000000E-03 0. -1.
        -11    1    3    3    0    0 -0.38287234528E+01  0.26310622631E+01  0.19125968108E+01  0.50239067201E+01  0.51100000000E-03 0.  1.
        -12    1    3    3    0    0 -0.40489649635E+01 -0.20332430486E+02  0.25527634021E+02  0.32885588720E+02  0.00000000000E+00 0.  1.
</event>
<event>
 7    1  0.5408841E-013  0.5052884E+02  0.7816164E-02  0.1300439E+00
        -11   -1    0    0    0    0  0.00000000000E+00  0.00000000000E+00  0.45593999997E+02  0.45594000000E+02  0.51100000000E-03 0.  1.
         11   -1    0    0    0    0 -0.00000000000E+00 -0.00000000000E+00 -0.45593999997E+02  0.45594000000E+02  0.51100000000E-03 0. -1.
    9900012    2    1    2    0    0 -0.39577474406E+02 -0.79150435604E+01  0.49135409903E+01  0.50528840146E+02  0.29999940109E+02 0.  0.
         12    1    1    2    0    0  0.39577474406E+02  0.79150435604E+01 -0.49135409903E+01  0.40659159854E+02  0.00000000000E+00 0. -1.
         11    1    3    3    0    0 -0.16608925657E+02 -0.13057547605E+02  0.26023895336E+01  0.21286812643E+02  0.51100000000E-03 0. -1.
        -11    1    3    3    0    0 -0.73726447581E+01 -0.52470613480E+01 -0.33759608776E+01  0.96583981916E+01  0.51100000000E-03 0.  1.
        -12    1    3    3    0    0 -0.15595903991E+02  0.10389565392E+02  0.56871123343E+01  0.19583629312E+02  0.00000000000E+00 0.  1.
</event>
<event>
 7    1  0.5408841E-013  0.5052886E+02  0.7816164E-02  0.1300439E+00
        -11   -1    0    0    0    0  0.00000000000E+00  0.00000000000E+00  0.45593999997E+02  0.45594000000E+02  0.51100000000E-03 0.  1.
         11   -1    0    0    0    0 -0.00000000000E+00 -0.00000000000E+00 -0.45593999997E+02  0.45594000000E+02  0.51100000000E-03 0. -1.
    9900012    2    1    2    0    0 -0.80777958498E+01  0.32192361981E+02  0.23485456567E+02  0.50528860488E+02  0.30000001940E+02 0.  0.
         12    1    1    2    0    0  0.80777958498E+01 -0.32192361981E+02 -0.23485456567E+02  0.40659139512E+02  0.00000000000E+00 0. -1.
         11    1    3    3    0    0 -0.99340772094E+00  0.18470455488E+01 -0.13312501235E+01  0.24840819858E+01  0.51100000000E-03 0. -1.
        -11    1    3    3    0    0 -0.26228986860E+01 -0.35044070154E-01  0.15836609049E+02  0.16052383376E+02  0.51100000000E-03 0.  1.
         12    1    3    3    0    0 -0.44614894428E+01  0.30380360502E+02  0.89800976409E+01  0.31992395127E+02  0.00000000000E+00 0. -1.
</event>
<event>
 7    1  0.5408841E-013  0.5052887E+02  0.7816164E-02  0.1300439E+00
        -11   -1    0    0    0    0  0.00000000000E+00  0.00000000000E+00  0.45593999997E+02  0.45594000000E+02  0.51100000000E-03 0.  1.
         11   -1    0    0    0    0 -0.00000000000E+00 -0.00000000000E+00 -0.45593999997E+02  0.45594000000E+02  0.51100000000E-03 0. -1.
    9900012    2    1    2    0    0  0.29108364337E+01 -0.41217365489E+00  0.40552711063E+02  0.50528865350E+02  0.30000016719E+02 0.  0.
         12    1    1    2    0    0 -0.29108364337E+01  0.41217365489E+00 -0.40552711063E+02  0.40659134650E+02  0.00000000000E+00 0. -1.
         11    1    3    3    0    0  0.29200979341E+01 -0.80585961492E+01  0.62693841144E+01  0.10619468973E+02  0.51100000000E-03 0. -1.
        -11    1    3    3    0    0  0.61881970380E+00  0.12449057891E+02  0.12720797630E+02  0.17809566890E+02  0.51100000000E-03 0.  1.
         12    1    3    3    0    0 -0.62808120421E+00 -0.48026353963E+01  0.21562529319E+02  0.22099829488E+02  0.00000000000E+00 0. -1.
</event>
<event>
 7    1  0.5408841E-013  0.5052885E+02  0.7816164E-02  0.1300439E+00
        -11   -1    0    0    0    0  0.00000000000E+00  0.00000000000E+00  0.45593999997E+02  0.45594000000E+02  0.51100000000E-03 0.  1.
         11   -1    0    0    0    0 -0.00000000000E+00 -0.00000000000E+00 -0.45593999997E+02  0.45594000000E+02  0.51100000000E-03 0. -1.
    9900012    2    1    2    0    0 -0.22133621776E+02 -0.13803647134E+02  0.31188596154E+02  0.50528850757E+02  0.29999972360E+02 0.  0.
         12    1    1    2    0    0  0.22133621776E+02  0.13803647134E+02 -0.31188596154E+02  0.40659149243E+02  0.00000000000E+00 0. -1.
         11    1    3    3    0    0  0.30937933954E+01 -0.96139488337E+00 -0.25619717840E+01  0.41303192828E+01  0.51100000000E-03 0. -1.
        -11    1    3    3    0    0 -0.82562988571E+01  0.12863082687E+01  0.37796534541E+01  0.91709781525E+01  0.51100000000E-03 0.  1.
        -12    1    3    3    0    0 -0.16971116314E+02 -0.14128560519E+02  0.29970914484E+02  0.37227553321E+02  0.00000000000E+00 0.  1.
</event>
<event>
 7    1  0.5408841E-013  0.5052886E+02  0.7816164E-02  0.1300439E+00
        -11   -1    0    0    0    0  0.00000000000E+00  0.00000000000E+00  0.45593999997E+02  0.45594000000E+02  0.51100000000E-03 0.  1.
         11   -1    0    0    0    0 -0.00000000000E+00 -0.00000000000E+00 -0.45593999997E+02  0.45594000000E+02  0.51100000000E-03 0. -1.
    9900012    2    1    2    0    0  0.40324671203E+02  0.14858120755E+01  0.49878496227E+01  0.50528863401E+02  0.30000010794E+02 0.  0.
         12    1    1    2    0    0 -0.40324671203E+02 -0.14858120755E+01 -0.49878496227E+01  0.40659136599E+02  0.00000000000E+00 0. -1.
         11    1    3    3    0    0  0.18327088240E+02  0.67540646195E+01  0.76990113717E+01  0.20994626184E+02  0.51100000000E-03 0. -1.
        -11    1    3    3    0    0  0.11384170675E+02 -0.82268530329E+01  0.62100864177E+01  0.15357266240E+02  0.51100000000E-03 0.  1.
         12    1    3    3    0    0  0.10613412288E+02  0.29586004889E+01 -0.89212481667E+01  0.14176970977E+02  0.00000000000E+00 0. -1.
</event>
<event>
 7    1  0.5408841E-013  0.5052888E+02  0.7816164E-02  0.1300439E+00
        -11   -1    0    0    0    0  0.00000000000E+00  0.00000000000E+00  0.45593999997E+02  0.45594000000E+02  0.51100000000E-03 0.  1.
         11   -1    0    0    0    0 -0.00000000000E+00 -0.00000000000E+00 -0.45593999997E+02  0.45594000000E+02  0.51100000000E-03 0. -1.
    9900012    2    1    2    0    0 -0.17827373351E+02  0.14777296423E+02  0.33421251162E+02  0.50528883441E+02  0.30000071706E+02 0.  0.
         12    1    1    2    0    0  0.17827373351E+02 -0.14777296423E+02 -0.33421251162E+02  0.40659116559E+02  0.00000000000E+00 0. -1.
         11    1    3    3    0    0 -0.10388609215E+02  0.19179557291E+01 -0.19260978041E+01  0.10738324292E+02  0.51100000000E-03 0. -1.
        -11    1    3    3    0    0 -0.19696858011E+01  0.33063930601E+01  0.13872526199E+01  0.40910105495E+01  0.51100000000E-03 0.  1.
        -12    1    3    3    0    0 -0.54690783355E+01  0.95529476341E+01  0.33960096346E+02  0.35699548599E+02  0.00000000000E+00 0.  1.
</event>
<event>
 7    1  0.5408841E-013  0.5052886E+02  0.7816164E-02  0.1300439E+00
        -11   -1    0    0    0    0  0.00000000000E+00  0.00000000000E+00  0.45593999997E+02  0.45594000000E+02  0.51100000000E-03 0.  1.
         11   -1    0    0    0    0 -0.00000000000E+00 -0.00000000000E+00 -0.45593999997E+02  0.45594000000E+02  0.51100000000E-03 0. -1.
    9900012    2    1    2    0    0 -0.14161835181E+02  0.24517201984E+02  0.29180730105E+02  0.50528858614E+02  0.29999996243E+02 0.  0.
         12    1    1    2    0    0  0.14161835181E+02 -0.24517201984E+02 -0.29180730105E+02  0.40659141386E+02  0.00000000000E+00 0. -1.
         11    1    3    3    0    0 -0.13233598102E+02  0.17030280295E+02  0.74618834587E+01  0.22821881401E+02  0.51100000000E-03 0. -1.
        -11    1    3    3    0    0 -0.63640018061E+01  0.21650188001E+01  0.27379421798E+01  0.72583850155E+01  0.51100000000E-03 0.  1.
        -12    1    3    3    0    0  0.54357647269E+01  0.53219028883E+01  0.18980904466E+02  0.20448592198E+02  0.00000000000E+00 0.  1.
</event>
<event>
 7    1  0.5408841E-013  0.5052885E+02  0.7816164E-02  0.1300439E+00
        -11   -1    0    0    0    0  0.00000000000E+00  0.00000000000E+00  0.45593999997E+02  0.45594000000E+02  0.51100000000E-03 0. -1.
         11   -1    0    0    0    0 -0.00000000000E+00 -0.00000000000E+00 -0.45593999997E+02  0.45594000000E+02  0.51100000000E-03 0.  1.
    9900012    2    1    2    0    0  0.28899108558E+02  0.22906925777E+02 -0.17125445136E+02  0.50528848569E+02  0.29999965711E+02 0.  0.
         12    1    1    2    0    0 -0.28899108558E+02 -0.22906925777E+02  0.17125445136E+02  0.40659151431E+02  0.00000000000E+00 0. -1.
         11    1    3    3    0    0 -0.22367881616E+01  0.34454441413E+00  0.40815216233E+01  0.46669852320E+01  0.51100000000E-03 0. -1.
        -11    1    3    3    0    0  0.74696784825E+00  0.27548918139E+00  0.16179042273E+01  0.18031831868E+01  0.51100000000E-03 0.  1.
        -12    1    3    3    0    0  0.30388928871E+02  0.22286892181E+02 -0.22824870986E+02  0.44058680150E+02  0.00000000000E+00 0.  1.
</event>
<event>
 7    1  0.5408841E-013  0.5052887E+02  0.7816164E-02  0.1300439E+00
        -11   -1    0    0    0    0  0.00000000000E+00  0.00000000000E+00  0.45593999997E+02  0.45594000000E+02  0.51100000000E-03 0.  1.
         11   -1    0    0    0    0 -0.00000000000E+00 -0.00000000000E+00 -0.45593999997E+02  0.45594000000E+02  0.51100000000E-03 0. -1.
    9900012    2    1    2    0    0  0.46223760249E+01  0.56157407811E+01  0.40003271305E+02  0.50528872861E+02  0.30000039547E+02 0.  0.
         12    1    1    2    0    0 -0.46223760249E+01 -0.56157407811E+01 -0.40003271305E+02  0.40659127139E+02  0.00000000000E+00 0. -1.
         11    1    3    3    0    0  0.58724025150E+01 -0.68997946766E+01  0.80873293551E+01  0.12144841466E+02  0.51100000000E-03 0. -1.
        -11    1    3    3    0    0  0.35803179031E+01 -0.32472682970E+01  0.69289188613E+01  0.84482746480E+01  0.51100000000E-03 0.  1.
         12    1    3    3    0    0 -0.48303443932E+01  0.15762803755E+02  0.24987023088E+02  0.29935756747E+02  0.00000000000E+00 0. -1.
</event>
<event>
 7    1  0.5408841E-013  0.5052886E+02  0.7816164E-02  0.1300439E+00
        -11   -1    0    0    0    0  0.00000000000E+00  0.00000000000E+00  0.45593999997E+02  0.45594000000E+02  0.51100000000E-03 0.  1.
         11   -1    0    0    0    0 -0.00000000000E+00 -0.00000000000E+00 -0.45593999997E+02  0.45594000000E+02  0.51100000000E-03 0. -1.
    9900012    2    1    2    0    0 -0.10062768262E+02 -0.27337850772E+02  0.28364559776E+02  0.50528860300E+02  0.30000001366E+02 0.  0.
         12    1    1    2    0    0  0.10062768262E+02  0.27337850772E+02 -0.28364559776E+02  0.40659139700E+02  0.00000000000E+00 0. -1.
         11    1    3    3    0    0  0.83261965782E+01 -0.57707072459E+01  0.45129959333E+01  0.11090254467E+02  0.51100000000E-03 0. -1.
        -11    1    3    3    0    0  0.15491387522E+01 -0.35511443775E+01  0.63413405597E+00  0.39258863363E+01  0.51100000000E-03 0.  1.
        -12    1    3    3    0    0 -0.19938103592E+02 -0.18015999149E+02  0.23217429786E+02  0.35512719497E+02  0.00000000000E+00 0.  1.
</event>
<event>
 7    1  0.5408841E-013  0.5052886E+02  0.7816164E-02  0.1300439E+00
        -11   -1    0    0    0    0  0.00000000000E+00  0.00000000000E+00  0.45593999997E+02  0.45594000000E+02  0.51100000000E-03 0.  1.
         11   -1    0    0    0    0 -0.00000000000E+00 -0.00000000000E+00 -0.45593999997E+02  0.45594000000E+02  0.51100000000E-03 0. -1.
    9900012    2    1    2    0    0 -0.78374158134E+01  0.36006146048E+02  0.17184230987E+02  0.50528862841E+02  0.30000009092E+02 0.  0.
         12    1    1    2    0    0  0.78374158134E+01 -0.36006146048E+02 -0.17184230987E+02  0.40659137159E+02  0.00000000000E+00 0. -1.
         11    1    3    3    0    0  0.72464451946E+01  0.20908174229E+02  0.77587048541E+01  0.23449098465E+02  0.51100000000E-03 0. -1.
        -11    1    3    3    0    0 -0.70722246944E+01  0.14235601918E+02  0.18199823236E+01  0.15999408114E+02  0.51100000000E-03 0.  1.
        -12    1    3    3    0    0 -0.80116363136E+01  0.86236990197E+00  0.76055438088E+01  0.11080356262E+02  0.00000000000E+00 0.  1.
</event>
<event>
 7    1  0.5408841E-013  0.5052886E+02  0.7816164E-02  0.1300439E+00
        -11   -1    0    0    0    0  0.00000000000E+00  0.00000000000E+00  0.45593999997E+02  0.45594000000E+02  0.51100000000E-03 0. -1.
         11   -1    0    0    0    0 -0.00000000000E+00 -0.00000000000E+00 -0.45593999997E+02  0.45594000000E+02  0.51100000000E-03 0.  1.
    9900012    2    1    2    0    0 -0.99263058829E+01 -0.22715089144E+02 -0.32228228894E+02  0.50528861286E+02  0.30000004366E+02 0.  0.
         12    1    1    2    0    0  0.99263058829E+01  0.22715089144E+02  0.32228228894E+02  0.40659138714E+02  0.00000000000E+00 0. -1.
         11    1    3    3    0    0 -0.66388507163E+00 -0.22756356463E+01  0.34689427980E+01  0.42015265535E+01  0.51100000000E-03 0. -1.
        -11    1    3    3    0    0 -0.62695426233E+01 -0.16292335270E+02 -0.99837907799E+01  0.20110281745E+02  0.51100000000E-03 0.  1.
        -12    1    3    3    0    0 -0.29928781880E+01 -0.41471182276E+01 -0.25713380912E+02  0.26217052988E+02  0.00000000000E+00 0.  1.
</event>
<event>
 7    1  0.5408841E-013  0.5052877E+02  0.7816164E-02  0.1300439E+00
        -11   -1    0    0    0    0  0.00000000000E+00  0.00000000000E+00  0.45593999997E+02  0.45594000000E+02  0.51100000000E-03 0.  1.
         11   -1    0    0    0    0 -0.00000000000E+00 -0.00000000000E+00 -0.45593999997E+02  0.45594000000E+02  0.51100000000E-03 0. -1.
    9900012    2    1    2    0    0  0.89572071507E+01  0.39485337100E+02 -0.37215368286E+01  0.50528766827E+02  0.29999717247E+02 0.  0.
         12    1    1    2    0    0 -0.89572071507E+01 -0.39485337100E+02  0.37215368286E+01  0.40659233173E+02  0.00000000000E+00 0. -1.
         11    1    3    3    0    0  0.10218492348E+02  0.12322464909E+02 -0.85940559261E+01  0.18169164120E+02  0.51100000000E-03 0. -1.
        -11    1    3    3    0    0  0.12883879270E+01  0.11760039343E+02 -0.60676024104E+01  0.13295648464E+02  0.51100000000E-03 0.  1.
         12    1    3    3    0    0 -0.25496731245E+01  0.15402832849E+02  0.10940121508E+02  0.19063954244E+02  0.00000000000E+00 0. -1.
</event>
<event>
 7    1  0.5408841E-013  0.5052885E+02  0.7816164E-02  0.1300439E+00
        -11   -1    0    0    0    0  0.00000000000E+00  0.00000000000E+00  0.45593999997E+02  0.45594000000E+02  0.51100000000E-03 0.  1.
         11   -1    0    0    0    0 -0.00000000000E+00 -0.00000000000E+00 -0.45593999997E+02  0.45594000000E+02  0.51100000000E-03 0. -1.
    9900012    2    1    2    0    0 -0.34759300343E+02  0.20753699181E+02  0.37738240057E+01  0.50528846816E+02  0.29999960383E+02 0.  0.
         12    1    1    2    0    0  0.34759300343E+02 -0.20753699181E+02 -0.37738240057E+01  0.40659153184E+02  0.00000000000E+00 0. -1.
         11    1    3    3    0    0 -0.88795973214E+01  0.33405391262E+00 -0.59759509972E+00  0.89059508628E+01  0.51100000000E-03 0. -1.
        -11    1    3    3    0    0 -0.56609703179E+01 -0.52009035077E+01  0.46496397834E+01  0.89841600951E+01  0.51100000000E-03 0.  1.
        -12    1    3    3    0    0 -0.20218732703E+02  0.25620548776E+02 -0.27822067805E+00  0.32638735858E+02  0.00000000000E+00 0.  1.
</event>
<event>
 7    1  0.5408841E-013  0.5052886E+02  0.7816164E-02  0.1300439E+00
        -11   -1    0    0    0    0  0.00000000000E+00  0.00000000000E+00  0.45593999997E+02  0.45594000000E+02  0.51100000000E-03 0. -1.
         11   -1    0    0    0    0 -0.00000000000E+00 -0.00000000000E+00 -0.45593999997E+02  0.45594000000E+02  0.51100000000E-03 0.  1.
    9900012    2    1    2    0    0  0.39323732719E+02  0.71701409572E+01 -0.74430140357E+01  0.50528864074E+02  0.30000012840E+02 0.  0.
         12    1    1    2    0    0 -0.39323732719E+02 -0.71701409572E+01  0.74430140357E+01  0.40659135926E+02  0.00000000000E+00 0. -1.
         11    1    3    3    0    0  0.18497448552E+02  0.10906197201E+02  0.19942126379E+01  0.21565658456E+02  0.51100000000E-03 0. -1.
        -11    1    3    3    0    0  0.16076371568E+02  0.26153824669E+01  0.44269946303E+00  0.16293739022E+02  0.51100000000E-03 0.  1.
        -12    1    3    3    0    0  0.47499125990E+01 -0.63514387103E+01 -0.98799261367E+01  0.12669466597E+02  0.00000000000E+00 0.  1.
</event>
<event>
 7    1  0.5408841E-013  0.5052886E+02  0.7816164E-02  0.1300439E+00
        -11   -1    0    0    0    0  0.00000000000E+00  0.00000000000E+00  0.45593999997E+02  0.45594000000E+02  0.51100000000E-03 0.  1.
         11   -1    0    0    0    0 -0.00000000000E+00 -0.00000000000E+00 -0.45593999997E+02  0.45594000000E+02  0.51100000000E-03 0. -1.
    9900012    2    1    2    0    0 -0.17275045826E+02 -0.13097988395E+02  0.34397403675E+02  0.50528857266E+02  0.29999992146E+02 0.  0.
         12    1    1    2    0    0  0.17275045826E+02  0.13097988395E+02 -0.34397403675E+02  0.40659142734E+02  0.00000000000E+00 0. -1.
         11    1    3    3    0    0  0.42604244896E+01 -0.11826072216E+01  0.85838012274E+00  0.45040640946E+01  0.51100000000E-03 0. -1.
        -11    1    3    3    0    0 -0.11745655190E+01  0.39092100255E+01  0.11152414027E+02  0.11875936429E+02  0.51100000000E-03 0.  1.
         12    1    3    3    0    0 -0.20360904796E+02 -0.15824591199E+02  0.22386609525E+02  0.34148856742E+02  0.00000000000E+00 0. -1.
</event>
<event>
 7    1  0.5408841E-013  0.5052886E+02  0.7816164E-02  0.1300439E+00
        -11   -1    0    0    0    0  0.00000000000E+00  0.00000000000E+00  0.45593999997E+02  0.45594000000E+02  0.51100000000E-03 0.  1.
         11   -1    0    0    0    0 -0.00000000000E+00 -0.00000000000E+00 -0.45593999997E+02  0.45594000000E+02  0.51100000000E-03 0. -1.
    9900012    2    1    2    0    0 -0.90489231950E+01  0.33694056987E+01  0.39495944176E+02  0.50528861887E+02  0.30000006190E+02 0.  0.
         12    1    1    2    0    0  0.90489231950E+01 -0.33694056987E+01 -0.39495944176E+02  0.40659138113E+02  0.00000000000E+00 0. -1.
         11    1    3    3    0    0  0.49270732345E+00  0.66680537100E+01  0.75079930496E+01  0.10053639176E+02  0.51100000000E-03 0. -1.
        -11    1    3    3    0    0  0.49756948576E+01 -0.17465319905E+01  0.22390659256E+02  0.23003250542E+02  0.51100000000E-03 0.  1.
         12    1    3    3    0    0 -0.14517325376E+02 -0.15521160207E+01  0.95972918708E+01  0.17471972169E+02  0.00000000000E+00 0. -1.
</event>
<event>
 7    1  0.5408841E-013  0.5052886E+02  0.7816164E-02  0.1300439E+00
        -11   -1    0    0    0    0  0.00000000000E+00  0.00000000000E+00  0.45593999997E+02  0.45594000000E+02  0.51100000000E-03 0.  1.
         11   -1    0    0    0    0 -0.00000000000E+00 -0.00000000000E+00 -0.45593999997E+02  0.45594000000E+02  0.51100000000E-03 0. -1.
    9900012    2    1    2    0    0  0.18072637461E+02 -0.11759969957E+02  0.34470983359E+02  0.50528858199E+02  0.29999994983E+02 0.  0.
         12    1    1    2    0    0 -0.18072637461E+02  0.11759969957E+02 -0.34470983359E+02  0.40659141801E+02  0.00000000000E+00 0. -1.
         11    1    3    3    0    0 -0.14466203872E+01  0.22820786972E+01  0.63802816023E+01  0.69288229383E+01  0.51100000000E-03 0. -1.
        -11    1    3    3    0    0 -0.32904084995E+01  0.27271755184E+00 -0.14682834434E+01  0.36134498042E+01  0.51100000000E-03 0.  1.
        -12    1    3    3    0    0  0.22809666347E+02 -0.14314766206E+02  0.29558985201E+02  0.39986585457E+02  0.00000000000E+00 0.  1.
</event>
<event>
 7    1  0.5408841E-013  0.5052886E+02  0.7816164E-02  0.1300439E+00
        -11   -1    0    0    0    0  0.00000000000E+00  0.00000000000E+00  0.45593999997E+02  0.45594000000E+02  0.51100000000E-03 0.  1.
         11   -1    0    0    0    0 -0.00000000000E+00 -0.00000000000E+00 -0.45593999997E+02  0.45594000000E+02  0.51100000000E-03 0. -1.
    9900012    2    1    2    0    0  0.70488278107E+00  0.39420922055E+02 -0.99327717179E+01  0.50528857001E+02  0.29999991340E+02 0.  0.
         12    1    1    2    0    0 -0.70488278107E+00 -0.39420922055E+02  0.99327717179E+01  0.40659142999E+02  0.00000000000E+00 0. -1.
         11    1    3    3    0    0  0.56270216397E+01  0.59215708947E+01 -0.13853468777E+02  0.16082505147E+02  0.51100000000E-03 0. -1.
        -11    1    3    3    0    0 -0.84579831249E+00  0.10090917216E+01  0.82860184183E+00  0.15557063223E+01  0.51100000000E-03 0.  1.
         12    1    3    3    0    0 -0.40763405462E+01  0.32490259439E+02  0.30920952170E+01  0.32890645532E+02  0.00000000000E+00 0. -1.
</event>
<event>
 7    1  0.5408841E-013  0.5052886E+02  0.7816164E-02  0.1300439E+00
        -11   -1    0    0    0    0  0.00000000000E+00  0.00000000000E+00  0.45593999997E+02  0.45594000000E+02  0.51100000000E-03 0.  1.
         11   -1    0    0    0    0 -0.00000000000E+00 -0.00000000000E+00 -0.45593999997E+02  0.45594000000E+02  0.51100000000E-03 0. -1.
    9900012    2    1    2    0    0 -0.19620745748E+02  0.28910040876E+02  0.20794261393E+02  0.50528862847E+02  0.30000009110E+02 0.  0.
         12    1    1    2    0    0  0.19620745748E+02 -0.28910040876E+02 -0.20794261393E+02  0.40659137153E+02  0.00000000000E+00 0. -1.
         11    1    3    3    0    0  0.30847770187E+01  0.69512686595E+01 -0.60494251736E+00  0.76290196580E+01  0.51100000000E-03 0. -1.
        -11    1    3    3    0    0  0.32738865046E+01  0.35633864429E+01  0.54728151061E+01  0.73053241703E+01  0.51100000000E-03 0.  1.
        -12    1    3    3    0    0 -0.25979409271E+02  0.18395385774E+02  0.15926388804E+02  0.35594519019E+02  0.00000000000E+00 0.  1.
</event>
<event>
 7    1  0.5408841E-013  0.5052881E+02  0.7816164E-02  0.1300439E+00
        -11   -1    0    0    0    0  0.00000000000E+00  0.00000000000E+00  0.45593999997E+02  0.45594000000E+02  0.51100000000E-03 0.  1.
         11   -1    0    0    0    0 -0.00000000000E+00 -0.00000000000E+00 -0.45593999997E+02  0.45594000000E+02  0.51100000000E-03 0. -1.
    9900012    2    1    2    0    0  0.40653071962E+01 -0.35339794709E+02  0.19691172470E+02  0.50528805641E+02  0.29999835226E+02 0.  0.
         12    1    1    2    0    0 -0.40653071962E+01  0.35339794709E+02 -0.19691172470E+02  0.40659194359E+02  0.00000000000E+00 0. -1.
         11    1    3    3    0    0 -0.53394697729E+01 -0.17368948127E+02  0.54552730265E+01  0.18972356220E+02  0.51100000000E-03 0. -1.
        -11    1    3    3    0    0 -0.12155701030E+01 -0.41459711104E+00  0.10649616165E+02  0.10726780792E+02  0.51100000000E-03 0.  1.
        -12    1    3    3    0    0  0.10620347072E+02 -0.17556249471E+02  0.35862832780E+01  0.20829668629E+02  0.00000000000E+00 0.  1.
</event>
<event>
 7    1  0.5408841E-013  0.5052886E+02  0.7816164E-02  0.1300439E+00
        -11   -1    0    0    0    0  0.00000000000E+00  0.00000000000E+00  0.45593999997E+02  0.45594000000E+02  0.51100000000E-03 0.  1.
         11   -1    0    0    0    0 -0.00000000000E+00 -0.00000000000E+00 -0.45593999997E+02  0.45594000000E+02  0.51100000000E-03 0. -1.
    9900012    2    1    2    0    0 -0.38116266453E+00 -0.33685351436E+02  0.22766584494E+02  0.50528861349E+02  0.30000004555E+02 0.  0.
         12    1    1    2    0    0  0.38116266453E+00  0.33685351436E+02 -0.22766584494E+02  0.40659138651E+02  0.00000000000E+00 0. -1.
         11    1    3    3    0    0 -0.66890618287E+01 -0.69357925943E+01  0.57936837568E+01  0.11243466494E+02  0.51100000000E-03 0. -1.
        -11    1    3    3    0    0 -0.50617229632E+01 -0.11983809629E+01  0.86728186028E+01  0.10113107290E+02  0.51100000000E-03 0.  1.
        -12    1    3    3    0    0  0.11369622127E+02 -0.25551177879E+02  0.83000821348E+01  0.29172287564E+02  0.00000000000E+00 0.  1.
</event>
<event>
 7    1  0.5408841E-013  0.5052886E+02  0.7816164E-02  0.1300439E+00
        -11   -1    0    0    0    0  0.00000000000E+00  0.00000000000E+00  0.45593999997E+02  0.45594000000E+02  0.51100000000E-03 0.  1.
         11   -1    0    0    0    0 -0.00000000000E+00 -0.00000000000E+00 -0.45593999997E+02  0.45594000000E+02  0.51100000000E-03 0. -1.
    9900012    2    1    2    0    0  0.16487248849E+02 -0.34621468921E+02  0.13516299520E+02  0.50528857885E+02  0.29999994026E+02 0.  0.
         12    1    1    2    0    0 -0.16487248849E+02  0.34621468921E+02 -0.13516299520E+02  0.40659142115E+02  0.00000000000E+00 0. -1.
         11    1    3    3    0    0  0.76914358492E+01 -0.17538484608E+02  0.19037027569E+02  0.27003056248E+02  0.51100000000E-03 0. -1.
        -11    1    3    3    0    0  0.37369540251E+01 -0.24120566280E+01  0.34247401509E+01  0.56135272267E+01  0.51100000000E-03 0.  1.
         12    1    3    3    0    0  0.50588589750E+01 -0.14670927684E+02 -0.89454681997E+01  0.17912274410E+02  0.00000000000E+00 0. -1.
</event>
<event>
 7    1  0.5408841E-013  0.5052886E+02  0.7816164E-02  0.1300439E+00
        -11   -1    0    0    0    0  0.00000000000E+00  0.00000000000E+00  0.45593999997E+02  0.45594000000E+02  0.51100000000E-03 0. -1.
         11   -1    0    0    0    0 -0.00000000000E+00 -0.00000000000E+00 -0.45593999997E+02  0.45594000000E+02  0.51100000000E-03 0.  1.
    9900012    2    1    2    0    0 -0.96350615936E+01 -0.22410278847E+01 -0.39437409592E+02  0.50528857200E+02  0.29999991946E+02 0.  0.
         12    1    1    2    0    0  0.96350615936E+01  0.22410278847E+01  0.39437409592E+02  0.40659142800E+02  0.00000000000E+00 0. -1.
         11    1    3    3    0    0 -0.10171937830E+02  0.90513271556E+01 -0.14176857372E+02  0.19656503446E+02  0.51100000000E-03 0. -1.
        -11    1    3    3    0    0 -0.20276638638E+01  0.27733206281E+01 -0.54150665994E+01  0.64129302653E+01  0.51100000000E-03 0.  1.
        -12    1    3    3    0    0  0.25645401002E+01 -0.14065675668E+02 -0.19845485620E+02  0.24459423489E+02  0.00000000000E+00 0.  1.
</event>
<event>
 7    1  0.5408841E-013  0.5052886E+02  0.7816164E-02  0.1300439E+00
        -11   -1    0    0    0    0  0.00000000000E+00  0.00000000000E+00  0.45593999997E+02  0.45594000000E+02  0.51100000000E-03 0. -1.
         11   -1    0    0    0    0 -0.00000000000E+00 -0.00000000000E+00 -0.45593999997E+02  0.45594000000E+02  0.51100000000E-03 0.  1.
    9900012    2    1    2    0    0 -0.34225974579E+01  0.85019870672E+01 -0.39612722114E+02  0.50528859444E+02  0.29999998767E+02 0.  0.
         12    1    1    2    0    0  0.34225974579E+01 -0.85019870672E+01  0.39612722114E+02  0.40659140556E+02  0.00000000000E+00 0. -1.
         11    1    3    3    0    0 -0.38435938129E+01 -0.59820798137E+01 -0.36075434118E+01  0.79732591846E+01  0.51100000000E-03 0. -1.
        -11    1    3    3    0    0 -0.10249965929E+01  0.88766469082E+01 -0.35942557367E+01  0.96314148966E+01  0.51100000000E-03 0.  1.
        -12    1    3    3    0    0  0.14459929479E+01  0.56074199727E+01 -0.32410922965E+02  0.32924185363E+02  0.00000000000E+00 0.  1.
</event>
<event>
 7    1  0.5408841E-013  0.5052889E+02  0.7816164E-02  0.1300439E+00
        -11   -1    0    0    0    0  0.00000000000E+00  0.00000000000E+00  0.45593999997E+02  0.45594000000E+02  0.51100000000E-03 0.  1.
         11   -1    0    0    0    0 -0.00000000000E+00 -0.00000000000E+00 -0.45593999997E+02  0.45594000000E+02  0.51100000000E-03 0. -1.
    9900012    2    1    2    0    0  0.89426594506E+01  0.33886889363E+02  0.20612389809E+02  0.50528892258E+02  0.30000098508E+02 0.  0.
         12    1    1    2    0    0 -0.89426594506E+01 -0.33886889363E+02 -0.20612389809E+02  0.40659107742E+02  0.00000000000E+00 0. -1.
         11    1    3    3    0    0  0.17292276316E+02  0.25426487716E+02  0.18768545745E+02  0.36024816549E+02  0.51100000000E-03 0. -1.
        -11    1    3    3    0    0 -0.90468388839E+00  0.32400705257E+01  0.39319274046E+01  0.51746075528E+01  0.51100000000E-03 0.  1.
         12    1    3    3    0    0 -0.74449329770E+01  0.52203311211E+01 -0.20880833406E+01  0.93294681565E+01  0.00000000000E+00 0. -1.
</event>
<event>
 7    1  0.5408841E-013  0.5052886E+02  0.7816164E-02  0.1300439E+00
        -11   -1    0    0    0    0  0.00000000000E+00  0.00000000000E+00  0.45593999997E+02  0.45594000000E+02  0.51100000000E-03 0.  1.
         11   -1    0    0    0    0 -0.00000000000E+00 -0.00000000000E+00 -0.45593999997E+02  0.45594000000E+02  0.51100000000E-03 0. -1.
    9900012    2    1    2    0    0 -0.37755726954E+02  0.14172163557E+02  0.51788893022E+01  0.50528855492E+02  0.29999986754E+02 0.  0.
         12    1    1    2    0    0  0.37755726954E+02 -0.14172163557E+02 -0.51788893022E+01  0.40659144508E+02  0.00000000000E+00 0. -1.
         11    1    3    3    0    0 -0.16048991102E+01 -0.29042868553E+01 -0.23714563977E+01  0.40785277980E+01  0.51100000000E-03 0. -1.
        -11    1    3    3    0    0 -0.88986129305E+01  0.16268628475E+02  0.23026892931E+01  0.18685715474E+02  0.51100000000E-03 0.  1.
         12    1    3    3    0    0 -0.27252214913E+02  0.80782193683E+00  0.52476564067E+01  0.27764612220E+02  0.00000000000E+00 0. -1.
</event>
<event>
 7    1  0.5408841E-013  0.5052899E+02  0.7816164E-02  0.1300438E+00
        -11   -1    0    0    0    0  0.00000000000E+00  0.00000000000E+00  0.45593999997E+02  0.45594000000E+02  0.51100000000E-03 0. -1.
         11   -1    0    0    0    0 -0.00000000000E+00 -0.00000000000E+00 -0.45593999997E+02  0.45594000000E+02  0.51100000000E-03 0.  1.
    9900012    2    1    2    0    0  0.20386621717E+02  0.14945880428E+02 -0.31845902162E+02  0.50528989051E+02  0.30000392717E+02 0.  0.
         12    1    1    2    0    0 -0.20386621717E+02 -0.14945880428E+02  0.31845902162E+02  0.40659010949E+02  0.00000000000E+00 0. -1.
         11    1    3    3    0    0 -0.25358395387E+01 -0.14798167020E+01  0.12348183362E+01  0.31851399062E+01  0.51100000000E-03 0. -1.
        -11    1    3    3    0    0  0.66639639323E+01 -0.28542959589E+01 -0.13834557386E+02  0.15618911583E+02  0.51100000000E-03 0.  1.
         12    1    3    3    0    0  0.16258497323E+02  0.19279993089E+02 -0.19246163112E+02  0.31724937562E+02  0.00000000000E+00 0. -1.
</event>
<event>
 7    1  0.5408841E-013  0.5052886E+02  0.7816164E-02  0.1300439E+00
        -11   -1    0    0    0    0  0.00000000000E+00  0.00000000000E+00  0.45593999997E+02  0.45594000000E+02  0.51100000000E-03 0. -1.
         11   -1    0    0    0    0 -0.00000000000E+00 -0.00000000000E+00 -0.45593999997E+02  0.45594000000E+02  0.51100000000E-03 0.  1.
    9900012    2    1    2    0    0 -0.14744102073E+02 -0.37144267834E+02 -0.74887092673E+01  0.50528856559E+02  0.29999989998E+02 0.  0.
         12    1    1    2    0    0  0.14744102073E+02  0.37144267834E+02  0.74887092673E+01  0.40659143441E+02  0.00000000000E+00 0. -1.
         11    1    3    3    0    0  0.31582116782E+01 -0.32682790382E+01  0.41595391228E+01  0.61609832698E+01  0.51100000000E-03 0. -1.
        -11    1    3    3    0    0 -0.33793600359E+01 -0.15239796265E+02  0.38928079740E+01  0.16088052046E+02  0.51100000000E-03 0.  1.
        -12    1    3    3    0    0 -0.14522953715E+02 -0.18636192530E+02 -0.15541056364E+02  0.28279821243E+02  0.00000000000E+00 0.  1.
</event>
<event>
 7    1  0.5408841E-013  0.5052886E+02  0.7816164E-02  0.1300439E+00
        -11   -1    0    0    0    0  0.00000000000E+00  0.00000000000E+00  0.45593999997E+02  0.45594000000E+02  0.51100000000E-03 0. -1.
         11   -1    0    0    0    0 -0.00000000000E+00 -0.00000000000E+00 -0.45593999997E+02  0.45594000000E+02  0.51100000000E-03 0.  1.
    9900012    2    1    2    0    0 -0.38615010648E+02 -0.12538840966E+02 -0.21962978290E+01  0.50528864442E+02  0.30000013959E+02 0.  0.
         12    1    1    2    0    0  0.38615010648E+02  0.12538840966E+02  0.21962978290E+01  0.40659135558E+02  0.00000000000E+00 0. -1.
         11    1    3    3    0    0 -0.33740097403E+01  0.10834343086E+01  0.64426782037E+00  0.36017846846E+01  0.51100000000E-03 0. -1.
        -11    1    3    3    0    0 -0.32855307906E+02 -0.20586807049E+02 -0.53710426416E+01  0.39142508624E+02  0.51100000000E-03 0.  1.
         12    1    3    3    0    0 -0.23856930019E+01  0.69645317739E+01  0.25304769922E+01  0.77845711338E+01  0.00000000000E+00 0. -1.
</event>
<event>
 7    1  0.5408841E-013  0.5052886E+02  0.7816164E-02  0.1300439E+00
        -11   -1    0    0    0    0  0.00000000000E+00  0.00000000000E+00  0.45593999997E+02  0.45594000000E+02  0.51100000000E-03 0. -1.
         11   -1    0    0    0    0 -0.00000000000E+00 -0.00000000000E+00 -0.45593999997E+02  0.45594000000E+02  0.51100000000E-03 0.  1.
    9900012    2    1    2    0    0 -0.13280755510E+02 -0.21944624299E+02 -0.31547117330E+02  0.50528860629E+02  0.30000002368E+02 0.  0.
         12    1    1    2    0    0  0.13280755510E+02  0.21944624299E+02  0.31547117330E+02  0.40659139371E+02  0.00000000000E+00 0. -1.
         11    1    3    3    0    0 -0.13525420255E+02 -0.20831214980E+02 -0.90974429811E+01  0.26450708491E+02  0.51100000000E-03 0. -1.
        -11    1    3    3    0    0  0.26625679346E+00 -0.41436315560E+01 -0.19163079972E+02  0.19607758909E+02  0.51100000000E-03 0.  1.
        -12    1    3    3    0    0 -0.21592048815E-01  0.30302222374E+01 -0.32865943773E+01  0.44703932294E+01  0.00000000000E+00 0.  1.
</event>
<event>
 7    1  0.5408841E-013  0.5052886E+02  0.7816164E-02  0.1300439E+00
        -11   -1    0    0    0    0  0.00000000000E+00  0.00000000000E+00  0.45593999997E+02  0.45594000000E+02  0.51100000000E-03 0.  1.
         11   -1    0    0    0    0 -0.00000000000E+00 -0.00000000000E+00 -0.45593999997E+02  0.45594000000E+02  0.51100000000E-03 0. -1.
    9900012    2    1    2    0    0 -0.79801265926E+01  0.29770170972E+02  0.26518301329E+02  0.50528858279E+02  0.29999995224E+02 0.  0.
         12    1    1    2    0    0  0.79801265926E+01 -0.29770170972E+02 -0.26518301329E+02  0.40659141721E+02  0.00000000000E+00 0. -1.
         11    1    3    3    0    0 -0.19999379226E+01 -0.38909479413E+01  0.84255098108E+01  0.94936001290E+01  0.51100000000E-03 0. -1.
        -11    1    3    3    0    0 -0.84628557157E+00  0.98100130128E+01  0.12663453876E+02  0.16041060405E+02  0.51100000000E-03 0.  1.
        -12    1    3    3    0    0 -0.51339030984E+01  0.23851105900E+02  0.54293376430E+01  0.24994197745E+02  0.00000000000E+00 0.  1.
</event>
<event>
 7    1  0.5408841E-013  0.5052886E+02  0.7816164E-02  0.1300439E+00
        -11   -1    0    0    0    0  0.00000000000E+00  0.00000000000E+00  0.45593999997E+02  0.45594000000E+02  0.51100000000E-03 0. -1.
         11   -1    0    0    0    0 -0.00000000000E+00 -0.00000000000E+00 -0.45593999997E+02  0.45594000000E+02  0.51100000000E-03 0.  1.
    9900012    2    1    2    0    0 -0.29135106722E+02 -0.11926973392E+02 -0.25730490308E+02  0.50528864871E+02  0.30000015261E+02 0.  0.
         12    1    1    2    0    0  0.29135106722E+02  0.11926973392E+02  0.25730490308E+02  0.40659135129E+02  0.00000000000E+00 0. -1.
         11    1    3    3    0    0 -0.91785345485E+01 -0.98873058318E+01 -0.12521525440E+02  0.18406328061E+02  0.51100000000E-03 0. -1.
        -11    1    3    3    0    0 -0.16958146845E+02 -0.52692134884E+01 -0.18224811643E+02  0.25445768113E+02  0.51100000000E-03 0.  1.
         12    1    3    3    0    0 -0.29984253288E+01  0.32295459281E+01  0.50158467755E+01  0.66767686967E+01  0.00000000000E+00 0. -1.
</event>
<event>
 7    1  0.5408841E-013  0.5052887E+02  0.7816164E-02  0.1300439E+00
        -11   -1    0    0    0    0  0.00000000000E+00  0.00000000000E+00  0.45593999997E+02  0.45594000000E+02  0.51100000000E-03 0.  1.
         11   -1    0    0    0    0 -0.00000000000E+00 -0.00000000000E+00 -0.45593999997E+02  0.45594000000E+02  0.51100000000E-03 0. -1.
    9900012    2    1    2    0    0 -0.23906918835E+02  0.24678776854E+01  0.32795330691E+02  0.50528869370E+02  0.30000028937E+02 0.  0.
         12    1    1    2    0    0  0.23906918835E+02 -0.24678776854E+01 -0.32795330691E+02  0.40659130630E+02  0.00000000000E+00 0. -1.
         11    1    3    3    0    0 -0.15615909198E+01  0.92482983288E+01  0.12656149380E+02  0.15752704706E+02  0.51100000000E-03 0. -1.
        -11    1    3    3    0    0 -0.11786019800E+01  0.18869696279E+01  0.91203919561E+01  0.93878275814E+01  0.51100000000E-03 0.  1.
         12    1    3    3    0    0 -0.21166725935E+02 -0.86673902712E+01  0.11018789355E+02  0.25388337082E+02  0.00000000000E+00 0. -1.
</event>
<event>
 7    1  0.5408841E-013  0.5052882E+02  0.7816164E-02  0.1300439E+00
        -11   -1    0    0    0    0  0.00000000000E+00  0.00000000000E+00  0.45593999997E+02  0.45594000000E+02  0.51100000000E-03 0.  1.
         11   -1    0    0    0    0 -0.00000000000E+00 -0.00000000000E+00 -0.45593999997E+02  0.45594000000E+02  0.51100000000E-03 0. -1.
    9900012    2    1    2    0    0 -0.11736996174E+02  0.33334288964E+01  0.38785309669E+02  0.50528818091E+02  0.29999873069E+02 0.  0.
         12    1    1    2    0    0  0.11736996174E+02 -0.33334288964E+01 -0.38785309669E+02  0.40659181909E+02  0.00000000000E+00 0. -1.
         11    1    3    3    0    0  0.22248102617E+01 -0.46993969026E+01  0.86810369464E+00  0.52714055274E+01  0.51100000000E-03 0. -1.
        -11    1    3    3    0    0  0.34710311747E+01 -0.25571852832E+01  0.66426876911E+01  0.79191258363E+01  0.51100000000E-03 0.  1.
        -12    1    3    3    0    0 -0.17432837611E+02  0.10590011082E+02  0.31274518283E+02  0.37338286727E+02  0.00000000000E+00 0.  1.
</event>
<event>
 7    1  0.5408841E-013  0.5052887E+02  0.7816164E-02  0.1300439E+00
        -11   -1    0    0    0    0  0.00000000000E+00  0.00000000000E+00  0.45593999997E+02  0.45594000000E+02  0.51100000000E-03 0. -1.
         11   -1    0    0    0    0 -0.00000000000E+00 -0.00000000000E+00 -0.45593999997E+02  0.45594000000E+02  0.51100000000E-03 0.  1.
    9900012    2    1    2    0    0 -0.20013437905E+02  0.35375887585E+02  0.10835709117E+01  0.50528865170E+02  0.30000016172E+02 0.  0.
         12    1    1    2    0    0  0.20013437905E+02 -0.35375887585E+02 -0.10835709117E+01  0.40659134830E+02  0.00000000000E+00 0. -1.
         11    1    3    3    0    0 -0.11803711033E+01  0.17722431223E+02 -0.37505115333E+01  0.18153351796E+02  0.51100000000E-03 0. -1.
        -11    1    3    3    0    0 -0.11335393783E+02  0.19502338738E+02 -0.11792122258E+01  0.22588114356E+02  0.51100000000E-03 0.  1.
        -12    1    3    3    0    0 -0.74976730191E+01 -0.18488823761E+01  0.60132946707E+01  0.97873990181E+01  0.00000000000E+00 0.  1.
</event>
<event>
 7    1  0.5408841E-013  0.5052885E+02  0.7816164E-02  0.1300439E+00
        -11   -1    0    0    0    0  0.00000000000E+00  0.00000000000E+00  0.45593999997E+02  0.45594000000E+02  0.51100000000E-03 0.  1.
         11   -1    0    0    0    0 -0.00000000000E+00 -0.00000000000E+00 -0.45593999997E+02  0.45594000000E+02  0.51100000000E-03 0. -1.
    9900012    2    1    2    0    0  0.91633191279E+01 -0.37170079337E+01  0.39438358431E+02  0.50528847511E+02  0.29999962494E+02 0.  0.
         12    1    1    2    0    0 -0.91633191279E+01  0.37170079337E+01 -0.39438358431E+02  0.40659152489E+02  0.00000000000E+00 0. -1.
         11    1    3    3    0    0 -0.70111946557E+00  0.94147081671E+01  0.12280709539E+02  0.15490129936E+02  0.51100000000E-03 0. -1.
        -11    1    3    3    0    0 -0.34052578247E+01  0.38605547003E-01  0.34716827899E+01  0.48631114418E+01  0.51100000000E-03 0.  1.
        -12    1    3    3    0    0  0.13269696418E+02 -0.13170321648E+02  0.23685966102E+02  0.30175606133E+02  0.00000000000E+00 0.  1.
</event>
<event>
 7    1  0.6923755E-013  0.5052886E+02  0.7816164E-02  0.1300439E+00
        -11   -1    0    0    0    0  0.00000000000E+00  0.00000000000E+00  0.45593999997E+02  0.45594000000E+02  0.51100000000E-03 0.  1.
         11   -1    0    0    0    0 -0.00000000000E+00 -0.00000000000E+00 -0.45593999997E+02  0.45594000000E+02  0.51100000000E-03 0. -1.
    9900012    2    1    2    0    0  0.33207637589E+02  0.17634036680E+02  0.15474461915E+02  0.50528863076E+02  0.30000009805E+02 0.  0.
         12    1    1    2    0    0 -0.33207637589E+02 -0.17634036680E+02 -0.15474461915E+02  0.40659136924E+02  0.00000000000E+00 0. -1.
         11    1    3    3    0    0  0.10589369701E+01 -0.31636426457E+01 -0.27057290124E+01  0.42954571405E+01  0.51100000000E-03 0. -1.
        -11    1    3    3    0    0  0.57702802150E+01  0.71709297932E+01 -0.30914456752E+01  0.97095522288E+01  0.51100000000E-03 0.  1.
        -12    1    3    3    0    0  0.26378420404E+02  0.13626749532E+02  0.21271636602E+02  0.36523853706E+02  0.00000000000E+00 0.  1.
</event>
<event>
 7    1  0.5408841E-013  0.5052887E+02  0.7816164E-02  0.1300439E+00
        -11   -1    0    0    0    0  0.00000000000E+00  0.00000000000E+00  0.45593999997E+02  0.45594000000E+02  0.51100000000E-03 0.  1.
         11   -1    0    0    0    0 -0.00000000000E+00 -0.00000000000E+00 -0.45593999997E+02  0.45594000000E+02  0.51100000000E-03 0. -1.
    9900012    2    1    2    0    0  0.81989342949E+01 -0.32065918820E+02  0.23616085585E+02  0.50528866073E+02  0.30000018915E+02 0.  0.
         12    1    1    2    0    0 -0.81989342949E+01  0.32065918820E+02 -0.23616085585E+02  0.40659133927E+02  0.00000000000E+00 0. -1.
         11    1    3    3    0    0  0.50028578540E+01 -0.92479655146E+01  0.79909573181E+01  0.13206394360E+02  0.51100000000E-03 0. -1.
        -11    1    3    3    0    0  0.58710104538E+01 -0.15688602255E+02  0.21818432425E+02  0.27507180848E+02  0.51100000000E-03 0.  1.
         12    1    3    3    0    0 -0.26749340129E+01 -0.71293510504E+01 -0.61933041577E+01  0.98152908649E+01  0.00000000000E+00 0. -1.
</event>
<event>
 7    1  0.5408841E-013  0.5052886E+02  0.7816164E-02  0.1300439E+00
        -11   -1    0    0    0    0  0.00000000000E+00  0.00000000000E+00  0.45593999997E+02  0.45594000000E+02  0.51100000000E-03 0.  1.
         11   -1    0    0    0    0 -0.00000000000E+00 -0.00000000000E+00 -0.45593999997E+02  0.45594000000E+02  0.51100000000E-03 0. -1.
    9900012    2    1    2    0    0  0.84119373590E+01 -0.36881935155E+02  0.14903961345E+02  0.50528857182E+02  0.29999991890E+02 0.  0.
         12    1    1    2    0    0 -0.84119373590E+01  0.36881935155E+02 -0.14903961345E+02  0.40659142818E+02  0.00000000000E+00 0. -1.
         11    1    3    3    0    0  0.36476315300E+01 -0.85698754846E+01  0.15516674636E+02  0.18097380297E+02  0.51100000000E-03 0. -1.
        -11    1    3    3    0    0  0.78724791753E+01 -0.15190911847E+02  0.50007153561E+01  0.17825456107E+02  0.51100000000E-03 0.  1.
         12    1    3    3    0    0 -0.31081733464E+01 -0.13121147824E+02 -0.56134286470E+01  0.14606020777E+02  0.00000000000E+00 0. -1.
</event>
<event>
 7    1  0.5408841E-013  0.5052886E+02  0.7816164E-02  0.1300439E+00
        -11   -1    0    0    0    0  0.00000000000E+00  0.00000000000E+00  0.45593999997E+02  0.45594000000E+02  0.51100000000E-03 0.  1.
         11   -1    0    0    0    0 -0.00000000000E+00 -0.00000000000E+00 -0.45593999997E+02  0.45594000000E+02  0.51100000000E-03 0. -1.
    9900012    2    1    2    0    0 -0.64529260053E+00 -0.14827609371E+02  0.37853547822E+02  0.50528862221E+02  0.30000007208E+02 0.  0.
         12    1    1    2    0    0  0.64529260053E+00  0.14827609371E+02 -0.37853547822E+02  0.40659137779E+02  0.00000000000E+00 0. -1.
         11    1    3    3    0    0 -0.76370862375E+01  0.25130227855E+01  0.27945394306E+01  0.85117460377E+01  0.51100000000E-03 0. -1.
        -11    1    3    3    0    0  0.27932896106E+00 -0.36401980752E+01  0.20854962936E+02  0.21172117183E+02  0.51100000000E-03 0.  1.
        -12    1    3    3    0    0  0.67124646759E+01 -0.13700434081E+02  0.14204045455E+02  0.20844999001E+02  0.00000000000E+00 0.  1.
</event>
<event>
 7    1  0.5408841E-013  0.5052887E+02  0.7816164E-02  0.1300439E+00
        -11   -1    0    0    0    0  0.00000000000E+00  0.00000000000E+00  0.45593999997E+02  0.45594000000E+02  0.51100000000E-03 0.  1.
         11   -1    0    0    0    0 -0.00000000000E+00 -0.00000000000E+00 -0.45593999997E+02  0.45594000000E+02  0.51100000000E-03 0. -1.
    9900012    2    1    2    0    0  0.35588838485E+02  0.41156004693E+01  0.19226574253E+02  0.50528871266E+02  0.30000034700E+02 0.  0.
         12    1    1    2    0    0 -0.35588838485E+02 -0.41156004693E+01 -0.19226574253E+02  0.40659128734E+02  0.00000000000E+00 0. -1.
         11    1    3    3    0    0  0.76599740310E+01  0.87627269696E+01 -0.10715924225E+01  0.11687980864E+02  0.51100000000E-03 0. -1.
        -11    1    3    3    0    0  0.77104083459E+01  0.63549801916E+01  0.75904848924E+01  0.12547973193E+02  0.51100000000E-03 0.  1.
        -12    1    3    3    0    0  0.20218456108E+02 -0.11002106692E+02  0.12707681783E+02  0.26292917209E+02  0.00000000000E+00 0.  1.
</event>
<event>
 7    1  0.5408841E-013  0.5052885E+02  0.7816164E-02  0.1300439E+00
        -11   -1    0    0    0    0  0.00000000000E+00  0.00000000000E+00  0.45593999997E+02  0.45594000000E+02  0.51100000000E-03 0.  1.
         11   -1    0    0    0    0 -0.00000000000E+00 -0.00000000000E+00 -0.45593999997E+02  0.45594000000E+02  0.51100000000E-03 0. -1.
    9900012    2    1    2    0    0 -0.35020799007E+02 -0.70199844029E+00  0.20645024466E+02  0.50528853426E+02  0.29999980475E+02 0.  0.
         12    1    1    2    0    0  0.35020799007E+02  0.70199844029E+00 -0.20645024466E+02  0.40659146574E+02  0.00000000000E+00 0. -1.
         11    1    3    3    0    0 -0.12156057987E+02  0.83322646245E+01  0.53344969842E+00  0.14747235280E+02  0.51100000000E-03 0. -1.
        -11    1    3    3    0    0 -0.29421874697E+01  0.39241857170E+01  0.42908443126E+00  0.49233945971E+01  0.51100000000E-03 0.  1.
        -12    1    3    3    0    0 -0.19922553551E+02 -0.12958448782E+02  0.19682490336E+02  0.30858223549E+02  0.00000000000E+00 0.  1.
</event>
<event>
 7    1  0.5408841E-013  0.5052885E+02  0.7816164E-02  0.1300439E+00
        -11   -1    0    0    0    0  0.00000000000E+00  0.00000000000E+00  0.45593999997E+02  0.45594000000E+02  0.51100000000E-03 0. -1.
         11   -1    0    0    0    0 -0.00000000000E+00 -0.00000000000E+00 -0.45593999997E+02  0.45594000000E+02  0.51100000000E-03 0.  1.
    9900012    2    1    2    0    0 -0.12785665808E+02 -0.35076578277E+02  0.16103621143E+02  0.50528853333E+02  0.29999980191E+02 0.  0.
         12    1    1    2    0    0  0.12785665808E+02  0.35076578277E+02 -0.16103621143E+02  0.40659146667E+02  0.00000000000E+00 0. -1.
         11    1    3    3    0    0 -0.12684213366E+02 -0.30562567426E+02  0.69233276113E+01  0.33806689602E+02  0.51100000000E-03 0.  1.
        -11    1    3    3    0    0 -0.59701845927E+01 -0.35635948727E+01  0.81082201917E+01  0.10681083626E+02  0.51100000000E-03 0. -1.
        -12    1    3    3    0    0  0.58687321508E+01 -0.95041597869E+00  0.10720733403E+01  0.60410801052E+01  0.00000000000E+00 0.  1.
</event>
<event>
 7    1  0.5408841E-013  0.5052886E+02  0.7816164E-02  0.1300439E+00
        -11   -1    0    0    0    0  0.00000000000E+00  0.00000000000E+00  0.45593999997E+02  0.45594000000E+02  0.51100000000E-03 0.  1.
         11   -1    0    0    0    0 -0.00000000000E+00 -0.00000000000E+00 -0.45593999997E+02  0.45594000000E+02  0.51100000000E-03 0. -1.
    9900012    2    1    2    0    0  0.33500142997E+02 -0.22371319846E+02 -0.55163763920E+01  0.50528856613E+02  0.29999990161E+02 0.  0.
         12    1    1    2    0    0 -0.33500142997E+02  0.22371319846E+02  0.55163763920E+01  0.40659143387E+02  0.00000000000E+00 0. -1.
         11    1    3    3    0    0 -0.45919374191E+00 -0.31395252428E+01 -0.14801799933E+01  0.35012013248E+01  0.51100000000E-03 0. -1.
        -11    1    3    3    0    0  0.10183527288E+02 -0.87520863394E+01  0.10688569072E+02  0.17162422684E+02  0.51100000000E-03 0.  1.
        -12    1    3    3    0    0  0.23775809451E+02 -0.10479708264E+02 -0.14724765471E+02  0.29865232604E+02  0.00000000000E+00 0.  1.
</event>
<event>
 7    1  0.5408841E-013  0.5052886E+02  0.7816164E-02  0.1300439E+00
        -11   -1    0    0    0    0  0.00000000000E+00  0.00000000000E+00  0.45593999997E+02  0.45594000000E+02  0.51100000000E-03 0.  1.
         11   -1    0    0    0    0 -0.00000000000E+00 -0.00000000000E+00 -0.45593999997E+02  0.45594000000E+02  0.51100000000E-03 0. -1.
    9900012    2    1    2    0    0  0.50084124120E+01 -0.29105955668E+02  0.27945033196E+02  0.50528859200E+02  0.29999998026E+02 0.  0.
         12    1    1    2    0    0 -0.50084124120E+01  0.29105955668E+02 -0.27945033196E+02  0.40659140800E+02  0.00000000000E+00 0. -1.
         11    1    3    3    0    0  0.42270535853E+01 -0.61740578040E+01  0.95834948266E+00  0.75435671782E+01  0.51100000000E-03 0. -1.
        -11    1    3    3    0    0 -0.21608456601E+01 -0.27376694944E+02  0.19040836044E+02  0.33417153044E+02  0.51100000000E-03 0.  1.
         12    1    3    3    0    0  0.29422044868E+01  0.44447970803E+01  0.79458476692E+01  0.95681389783E+01  0.00000000000E+00 0. -1.
</event>
<event>
 7    1  0.5408841E-013  0.5052885E+02  0.7816164E-02  0.1300439E+00
        -11   -1    0    0    0    0  0.00000000000E+00  0.00000000000E+00  0.45593999997E+02  0.45594000000E+02  0.51100000000E-03 0. -1.
         11   -1    0    0    0    0 -0.00000000000E+00 -0.00000000000E+00 -0.45593999997E+02  0.45594000000E+02  0.51100000000E-03 0.  1.
    9900012    2    1    2    0    0 -0.18354230670E+02  0.36264838514E+02  0.10725167031E+01  0.50528848656E+02  0.29999965976E+02 0.  0.
         12    1    1    2    0    0  0.18354230670E+02 -0.36264838514E+02 -0.10725167031E+01  0.40659151344E+02  0.00000000000E+00 0. -1.
         11    1    3    3    0    0  0.62536115037E+00 -0.37226383961E+00 -0.22163516292E+01  0.23327819744E+01  0.51100000000E-03 0. -1.
        -11    1    3    3    0    0 -0.29371796233E+00  0.64317900309E+01 -0.85982894673E+01  0.10741730553E+02  0.51100000000E-03 0.  1.
         12    1    3    3    0    0 -0.18685873858E+02  0.30205312323E+02  0.11887157800E+02  0.37454336129E+02  0.00000000000E+00 0. -1.
</event>
<event>
 7    1  0.5408841E-013  0.5052886E+02  0.7816164E-02  0.1300439E+00
        -11   -1    0    0    0    0  0.00000000000E+00  0.00000000000E+00  0.45593999997E+02  0.45594000000E+02  0.51100000000E-03 0.  1.
         11   -1    0    0    0    0 -0.00000000000E+00 -0.00000000000E+00 -0.45593999997E+02  0.45594000000E+02  0.51100000000E-03 0. -1.
    9900012    2    1    2    0    0 -0.21630687057E+01  0.10816309172E+02  0.39134306665E+02  0.50528863653E+02  0.30000011559E+02 0.  0.
         12    1    1    2    0    0  0.21630687057E+01 -0.10816309172E+02 -0.39134306665E+02  0.40659136347E+02  0.00000000000E+00 0. -1.
         11    1    3    3    0    0 -0.26540235494E+01  0.17251398982E+02  0.29284699786E+02  0.34091762196E+02  0.51100000000E-03 0. -1.
        -11    1    3    3    0    0  0.55216014967E+01 -0.30746868422E+01  0.78230342794E+01  0.10056920397E+02  0.51100000000E-03 0.  1.
         12    1    3    3    0    0 -0.50306466530E+01 -0.33604029679E+01  0.20265726000E+01  0.63801810599E+01  0.00000000000E+00 0. -1.
</event>
<event>
 7    1  0.5408841E-013  0.5052886E+02  0.7816164E-02  0.1300439E+00
        -11   -1    0    0    0    0  0.00000000000E+00  0.00000000000E+00  0.45593999997E+02  0.45594000000E+02  0.51100000000E-03 0. -1.
         11   -1    0    0    0    0 -0.00000000000E+00 -0.00000000000E+00 -0.45593999997E+02  0.45594000000E+02  0.51100000000E-03 0.  1.
    9900012    2    1    2    0    0 -0.16822919057E+02  0.36900547091E+02 -0.29162254444E+01  0.50528863855E+02  0.30000012173E+02 0.  0.
         12    1    1    2    0    0  0.16822919057E+02 -0.36900547091E+02  0.29162254444E+01  0.40659136145E+02  0.00000000000E+00 0. -1.
         11    1    3    3    0    0 -0.47050057949E+01  0.27359991031E+01  0.61471519545E+01  0.82103744151E+01  0.51100000000E-03 0.  1.
        -11    1    3    3    0    0 -0.10574806016E+01  0.17882132732E+01  0.49331794793E+01  0.53527779675E+01  0.51100000000E-03 0. -1.
        -12    1    3    3    0    0 -0.11060432661E+02  0.32376334715E+02 -0.13996556878E+02  0.36965711472E+02  0.00000000000E+00 0.  1.
</event>
<event>
 7    1  0.5408841E-013  0.5052886E+02  0.7816164E-02  0.1300439E+00
        -11   -1    0    0    0    0  0.00000000000E+00  0.00000000000E+00  0.45593999997E+02  0.45594000000E+02  0.51100000000E-03 0. -1.
         11   -1    0    0    0    0 -0.00000000000E+00 -0.00000000000E+00 -0.45593999997E+02  0.45594000000E+02  0.51100000000E-03 0.  1.
    9900012    2    1    2    0    0  0.38802923702E+02  0.60461867340E+01 -0.10532919639E+02  0.50528860093E+02  0.30000000740E+02 0.  0.
         12    1    1    2    0    0 -0.38802923702E+02 -0.60461867340E+01  0.10532919639E+02  0.40659139907E+02  0.00000000000E+00 0. -1.
         11    1    3    3    0    0  0.10699132277E+02  0.43717591805E+01  0.53010241004E+01  0.12715524629E+02  0.51100000000E-03 0. -1.
        -11    1    3    3    0    0  0.12138432763E+00 -0.14256046127E-01  0.36640127159E+01  0.36660505770E+01  0.51100000000E-03 0.  1.
        -12    1    3    3    0    0  0.27982407097E+02  0.16886835996E+01 -0.19497956456E+02  0.34147284887E+02  0.00000000000E+00 0.  1.
</event>
<event>
 7    1  0.5408841E-013  0.5052885E+02  0.7816164E-02  0.1300439E+00
        -11   -1    0    0    0    0  0.00000000000E+00  0.00000000000E+00  0.45593999997E+02  0.45594000000E+02  0.51100000000E-03 0.  1.
         11   -1    0    0    0    0 -0.00000000000E+00 -0.00000000000E+00 -0.45593999997E+02  0.45594000000E+02  0.51100000000E-03 0. -1.
    9900012    2    1    2    0    0 -0.21770538736E+02 -0.33915512056E+02  0.53803193596E+01  0.50528854027E+02  0.29999982300E+02 0.  0.
         12    1    1    2    0    0  0.21770538736E+02  0.33915512056E+02 -0.53803193596E+01  0.40659145973E+02  0.00000000000E+00 0. -1.
         11    1    3    3    0    0  0.26002703257E+01 -0.10426497324E+01 -0.13957473872E+01  0.31299577092E+01  0.51100000000E-03 0. -1.
        -11    1    3    3    0    0  0.14898417191E+01 -0.61959598357E+01 -0.53452066868E+01  0.83174985074E+01  0.51100000000E-03 0.  1.
        -12    1    3    3    0    0 -0.25860650781E+02 -0.26676902487E+02  0.12121273434E+02  0.39081397810E+02  0.00000000000E+00 0.  1.
</event>
<event>
 7    1  0.5408841E-013  0.5052886E+02  0.7816164E-02  0.1300439E+00
        -11   -1    0    0    0    0  0.00000000000E+00  0.00000000000E+00  0.45593999997E+02  0.45594000000E+02  0.51100000000E-03 0. -1.
         11   -1    0    0    0    0 -0.00000000000E+00 -0.00000000000E+00 -0.45593999997E+02  0.45594000000E+02  0.51100000000E-03 0.  1.
    9900012    2    1    2    0    0  0.71562823534E+01 -0.68844000243E+01 -0.39427884604E+02  0.50528862956E+02  0.30000009440E+02 0.  0.
         12    1    1    2    0    0 -0.71562823534E+01  0.68844000243E+01  0.39427884604E+02  0.40659137044E+02  0.00000000000E+00 0. -1.
         11    1    3    3    0    0  0.68601822591E+01 -0.23028181008E+01 -0.25523901490E+01  0.76733152918E+01  0.51100000000E-03 0. -1.
        -11    1    3    3    0    0 -0.12097486206E+00 -0.81857382309E+01 -0.28973098935E+01  0.86842011828E+01  0.51100000000E-03 0.  1.
        -12    1    3    3    0    0  0.41707495633E+00  0.36041563074E+01 -0.33978184562E+02  0.34171346481E+02  0.00000000000E+00 0.  1.
</event>
<event>
 7    1  0.5408841E-013  0.5052886E+02  0.7816164E-02  0.1300439E+00
        -11   -1    0    0    0    0  0.00000000000E+00  0.00000000000E+00  0.45593999997E+02  0.45594000000E+02  0.51100000000E-03 0. -1.
         11   -1    0    0    0    0 -0.00000000000E+00 -0.00000000000E+00 -0.45593999997E+02  0.45594000000E+02  0.51100000000E-03 0.  1.
    9900012    2    1    2    0    0 -0.31034051892E+02  0.22001567159E+01 -0.26176562921E+02  0.50528861878E+02  0.30000006165E+02 0.  0.
         12    1    1    2    0    0  0.31034051892E+02 -0.22001567159E+01  0.26176562921E+02  0.40659138122E+02  0.00000000000E+00 0. -1.
         11    1    3    3    0    0 -0.31046977387E+01 -0.25607234701E+01 -0.18281449096E+00  0.40286317948E+01  0.51100000000E-03 0. -1.
        -11    1    3    3    0    0 -0.13941842406E+02  0.72733604901E+01  0.12479286366E+01  0.15774475226E+02  0.51100000000E-03 0.  1.
        -12    1    3    3    0    0 -0.13987511747E+02 -0.25124803041E+01 -0.27241677067E+02  0.30725754858E+02  0.00000000000E+00 0.  1.
</event>
<event>
 7    1  0.5408841E-013  0.5052887E+02  0.7816164E-02  0.1300439E+00
        -11   -1    0    0    0    0  0.00000000000E+00  0.00000000000E+00  0.45593999997E+02  0.45594000000E+02  0.51100000000E-03 0.  1.
         11   -1    0    0    0    0 -0.00000000000E+00 -0.00000000000E+00 -0.45593999997E+02  0.45594000000E+02  0.51100000000E-03 0. -1.
    9900012    2    1    2    0    0  0.15472472994E+02  0.22062725040E+02  0.30446727093E+02  0.50528874980E+02  0.30000045988E+02 0.  0.
         12    1    1    2    0    0 -0.15472472994E+02 -0.22062725040E+02 -0.30446727093E+02  0.40659125020E+02  0.00000000000E+00 0. -1.
         11    1    3    3    0    0  0.39452555320E+01  0.81132033933E+01  0.41290322190E+01  0.99215935132E+01  0.51100000000E-03 0. -1.
        -11    1    3    3    0    0  0.11690755146E+02  0.20133326643E+02  0.14957984751E+02  0.27672475597E+02  0.51100000000E-03 0.  1.
         12    1    3    3    0    0 -0.16353768400E+00 -0.61838049961E+01  0.11359710123E+02  0.12934805870E+02  0.00000000000E+00 0. -1.
</event>
<event>
 7    1  0.5408841E-013  0.5052885E+02  0.7816164E-02  0.1300439E+00
        -11   -1    0    0    0    0  0.00000000000E+00  0.00000000000E+00  0.45593999997E+02  0.45594000000E+02  0.51100000000E-03 0.  1.
         11   -1    0    0    0    0 -0.00000000000E+00 -0.00000000000E+00 -0.45593999997E+02  0.45594000000E+02  0.51100000000E-03 0. -1.
    9900012    2    1    2    0    0  0.37567547894E+01  0.40349232309E+02 -0.33154744478E+01  0.50528854346E+02  0.29999983270E+02 0.  0.
         12    1    1    2    0    0 -0.37567547894E+01 -0.40349232309E+02  0.33154744478E+01  0.40659145654E+02  0.00000000000E+00 0. -1.
         11    1    3    3    0    0 -0.19737627284E+01  0.12049333765E+02 -0.94015469839E+01  0.15410102837E+02  0.51100000000E-03 0. -1.
        -11    1    3    3    0    0 -0.17105307415E+01  0.20905439894E+02 -0.30648401214E+01  0.21198032405E+02  0.51100000000E-03 0.  1.
        -12    1    3    3    0    0  0.74410482593E+01  0.73944586495E+01  0.91509126574E+01  0.13920719104E+02  0.00000000000E+00 0.  1.
</event>
<event>
 7    1  0.5408841E-013  0.5052883E+02  0.7816164E-02  0.1300439E+00
        -11   -1    0    0    0    0  0.00000000000E+00  0.00000000000E+00  0.45593999997E+02  0.45594000000E+02  0.51100000000E-03 0. -1.
         11   -1    0    0    0    0 -0.00000000000E+00 -0.00000000000E+00 -0.45593999997E+02  0.45594000000E+02  0.51100000000E-03 0.  1.
    9900012    2    1    2    0    0 -0.19087536601E+02  0.35882298604E+02 -0.11379549585E+01  0.50528827012E+02  0.29999900184E+02 0.  0.
         12    1    1    2    0    0  0.19087536601E+02 -0.35882298604E+02  0.11379549585E+01  0.40659172988E+02  0.00000000000E+00 0. -1.
         11    1    3    3    0    0 -0.58592119404E+01  0.14700454405E+01  0.43617424685E+01  0.74509191233E+01  0.51100000000E-03 0. -1.
        -11    1    3    3    0    0 -0.94062296631E+01  0.14770031343E+01 -0.38339157879E+00  0.95292016506E+01  0.51100000000E-03 0.  1.
        -12    1    3    3    0    0 -0.38220949972E+01  0.32935250030E+02 -0.51163058482E+01  0.33548706238E+02  0.00000000000E+00 0.  1.
</event>
<event>
 7    1  0.5408841E-013  0.5052886E+02  0.7816164E-02  0.1300439E+00
        -11   -1    0    0    0    0  0.00000000000E+00  0.00000000000E+00  0.45593999997E+02  0.45594000000E+02  0.51100000000E-03 0.  1.
         11   -1    0    0    0    0 -0.00000000000E+00 -0.00000000000E+00 -0.45593999997E+02  0.45594000000E+02  0.51100000000E-03 0. -1.
    9900012    2    1    2    0    0 -0.15531290496E+02  0.30581645944E+02  0.21833640027E+02  0.50528857240E+02  0.29999992067E+02 0.  0.
         12    1    1    2    0    0  0.15531290496E+02 -0.30581645944E+02 -0.21833640027E+02  0.40659142760E+02  0.00000000000E+00 0. -1.
         11    1    3    3    0    0 -0.79885013247E+01  0.17732256910E+02  0.24767546551E+01  0.19605698213E+02  0.51100000000E-03 0. -1.
        -11    1    3    3    0    0 -0.11358442426E+02  0.80767053560E+01  0.41616364358E+01  0.14545329211E+02  0.51100000000E-03 0.  1.
        -12    1    3    3    0    0  0.38156532546E+01  0.47726836780E+01  0.15195248936E+02  0.16377829816E+02  0.00000000000E+00 0.  1.
</event>
<event>
 7    1  0.5408841E-013  0.5052886E+02  0.7816164E-02  0.1300439E+00
        -11   -1    0    0    0    0  0.00000000000E+00  0.00000000000E+00  0.45593999997E+02  0.45594000000E+02  0.51100000000E-03 0.  1.
         11   -1    0    0    0    0 -0.00000000000E+00 -0.00000000000E+00 -0.45593999997E+02  0.45594000000E+02  0.51100000000E-03 0. -1.
    9900012    2    1    2    0    0  0.22721380943E+02  0.20383878400E+02  0.26858921030E+02  0.50528864625E+02  0.30000014513E+02 0.  0.
         12    1    1    2    0    0 -0.22721380943E+02 -0.20383878400E+02 -0.26858921030E+02  0.40659135375E+02  0.00000000000E+00 0. -1.
         11    1    3    3    0    0  0.90417242378E+01  0.41196217847E+01  0.24990533826E+01  0.10245454061E+02  0.51100000000E-03 0. -1.
        -11    1    3    3    0    0  0.54297397058E+01  0.74138336101E+01 -0.35597346167E+01  0.98548826920E+01  0.51100000000E-03 0.  1.
        -12    1    3    3    0    0  0.82499169991E+01  0.88504230049E+01  0.27919602264E+02  0.30428527872E+02  0.00000000000E+00 0.  1.
</event>
<event>
 7    1  0.5408841E-013  0.5052886E+02  0.7816164E-02  0.1300439E+00
        -11   -1    0    0    0    0  0.00000000000E+00  0.00000000000E+00  0.45593999997E+02  0.45594000000E+02  0.51100000000E-03 0.  1.
         11   -1    0    0    0    0 -0.00000000000E+00 -0.00000000000E+00 -0.45593999997E+02  0.45594000000E+02  0.51100000000E-03 0. -1.
    9900012    2    1    2    0    0 -0.36816628885E+02  0.13764119553E+02  0.10404368006E+02  0.50528855603E+02  0.29999987090E+02 0.  0.
         12    1    1    2    0    0  0.36816628885E+02 -0.13764119553E+02 -0.10404368006E+02  0.40659144397E+02  0.00000000000E+00 0. -1.
         11    1    3    3    0    0 -0.11333162444E+02 -0.63671611578E+01 -0.19013803153E+01  0.13137600982E+02  0.51100000000E-03 0. -1.
        -11    1    3    3    0    0 -0.99920980972E+01  0.35563666086E+01 -0.16818140038E+01  0.10738634291E+02  0.51100000000E-03 0.  1.
        -12    1    3    3    0    0 -0.15491368344E+02  0.16574914102E+02  0.13987562325E+02  0.26652620330E+02  0.00000000000E+00 0.  1.
</event>
<event>
 7    1  0.5408841E-013  0.5052882E+02  0.7816164E-02  0.1300439E+00
        -11   -1    0    0    0    0  0.00000000000E+00  0.00000000000E+00  0.45593999997E+02  0.45594000000E+02  0.51100000000E-03 0. -1.
         11   -1    0    0    0    0 -0.00000000000E+00 -0.00000000000E+00 -0.45593999997E+02  0.45594000000E+02  0.51100000000E-03 0.  1.
    9900012    2    1    2    0    0 -0.50561264319E+01 -0.39429593698E+02 -0.85388373685E+01  0.50528818782E+02  0.29999875170E+02 0.  0.
         12    1    1    2    0    0  0.50561264319E+01  0.39429593698E+02  0.85388373685E+01  0.40659181218E+02  0.00000000000E+00 0. -1.
         11    1    3    3    0    0 -0.73634037640E+01 -0.24371311591E+01 -0.40143636691E+01  0.87335238711E+01  0.51100000000E-03 0. -1.
        -11    1    3    3    0    0  0.50575314561E+01 -0.62526986509E+01  0.50325158566E+01  0.94868899518E+01  0.51100000000E-03 0.  1.
         12    1    3    3    0    0 -0.27502541240E+01 -0.30739763888E+02 -0.95569895560E+01  0.32308404959E+02  0.00000000000E+00 0. -1.
</event>
<event>
 7    1  0.5408841E-013  0.5052886E+02  0.7816164E-02  0.1300439E+00
        -11   -1    0    0    0    0  0.00000000000E+00  0.00000000000E+00  0.45593999997E+02  0.45594000000E+02  0.51100000000E-03 0.  1.
         11   -1    0    0    0    0 -0.00000000000E+00 -0.00000000000E+00 -0.45593999997E+02  0.45594000000E+02  0.51100000000E-03 0. -1.
    9900012    2    1    2    0    0 -0.24460424196E+01 -0.26545388014E+02  0.30700563013E+02  0.50528864278E+02  0.30000013459E+02 0.  0.
         12    1    1    2    0    0  0.24460424196E+01  0.26545388014E+02 -0.30700563013E+02  0.40659135722E+02  0.00000000000E+00 0. -1.
         11    1    3    3    0    0  0.17063537102E+01 -0.56116205960E+01  0.11665969420E+02  0.13057441230E+02  0.51100000000E-03 0. -1.
        -11    1    3    3    0    0 -0.11041198179E+02 -0.11878768725E+02  0.20345825097E+02  0.26018566502E+02  0.51100000000E-03 0.  1.
         12    1    3    3    0    0  0.68888020497E+01 -0.90549986928E+01 -0.13112315041E+01  0.11452856546E+02  0.00000000000E+00 0. -1.
</event>
<event>
 7    1  0.5408841E-013  0.5052886E+02  0.7816164E-02  0.1300439E+00
        -11   -1    0    0    0    0  0.00000000000E+00  0.00000000000E+00  0.45593999997E+02  0.45594000000E+02  0.51100000000E-03 0. -1.
         11   -1    0    0    0    0 -0.00000000000E+00 -0.00000000000E+00 -0.45593999997E+02  0.45594000000E+02  0.51100000000E-03 0.  1.
    9900012    2    1    2    0    0 -0.11347262541E+02  0.24019976636E+01 -0.38969678051E+02  0.50528858748E+02  0.29999996650E+02 0.  0.
         12    1    1    2    0    0  0.11347262541E+02 -0.24019976636E+01  0.38969678051E+02  0.40659141252E+02  0.00000000000E+00 0. -1.
         11    1    3    3    0    0 -0.39819546957E+01 -0.26499533368E+01  0.32264046564E+01  0.57695669815E+01  0.51100000000E-03 0. -1.
        -11    1    3    3    0    0 -0.24059954876E+00 -0.33651185527E+01 -0.55992223628E+01  0.65370637403E+01  0.51100000000E-03 0.  1.
         12    1    3    3    0    0 -0.71247082962E+01  0.84170695531E+01 -0.36596860345E+02  0.38222228026E+02  0.00000000000E+00 0. -1.
</event>
<event>
 7    1  0.5408841E-013  0.5052887E+02  0.7816164E-02  0.1300439E+00
        -11   -1    0    0    0    0  0.00000000000E+00  0.00000000000E+00  0.45593999997E+02  0.45594000000E+02  0.51100000000E-03 0.  1.
         11   -1    0    0    0    0 -0.00000000000E+00 -0.00000000000E+00 -0.45593999997E+02  0.45594000000E+02  0.51100000000E-03 0. -1.
    9900012    2    1    2    0    0 -0.12670266130E+01 -0.14625161539E+02  0.37916546307E+02  0.50528865844E+02  0.30000018220E+02 0.  0.
         12    1    1    2    0    0  0.12670266130E+01  0.14625161539E+02 -0.37916546307E+02  0.40659134156E+02  0.00000000000E+00 0. -1.
         11    1    3    3    0    0  0.24427097518E+01 -0.79685153429E+01  0.10204043385E+02  0.13175225590E+02  0.51100000000E-03 0. -1.
        -11    1    3    3    0    0 -0.91732334502E+01 -0.48625430711E+01  0.29546657806E+02  0.31317687093E+02  0.51100000000E-03 0.  1.
         12    1    3    3    0    0  0.54634970854E+01 -0.17941031246E+01 -0.18341548843E+01  0.60359531611E+01  0.00000000000E+00 0. -1.
</event>
<event>
 7    1  0.5408841E-013  0.5052886E+02  0.7816164E-02  0.1300439E+00
        -11   -1    0    0    0    0  0.00000000000E+00  0.00000000000E+00  0.45593999997E+02  0.45594000000E+02  0.51100000000E-03 0.  1.
         11   -1    0    0    0    0 -0.00000000000E+00 -0.00000000000E+00 -0.45593999997E+02  0.45594000000E+02  0.51100000000E-03 0. -1.
    9900012    2    1    2    0    0  0.50796023128E+01  0.40335470253E+02  0.64257334742E+00  0.50528863011E+02  0.30000009609E+02 0.  0.
         12    1    1    2    0    0 -0.50796023128E+01 -0.40335470253E+02 -0.64257334742E+00  0.40659136989E+02  0.00000000000E+00 0. -1.
         11    1    3    3    0    0  0.26998258507E+01 -0.10648026032E+01 -0.24269363943E+01  0.37832373348E+01  0.51100000000E-03 0. -1.
        -11    1    3    3    0    0  0.40762836875E+01  0.38190282148E+02 -0.41837434558E+01  0.38634407577E+02  0.51100000000E-03 0.  1.
         12    1    3    3    0    0 -0.16965072254E+01  0.32099907080E+01  0.72532531976E+01  0.81112180996E+01  0.00000000000E+00 0. -1.
</event>
<event>
 7    1  0.5408841E-013  0.5052880E+02  0.7816164E-02  0.1300439E+00
        -11   -1    0    0    0    0  0.00000000000E+00  0.00000000000E+00  0.45593999997E+02  0.45594000000E+02  0.51100000000E-03 0.  1.
         11   -1    0    0    0    0 -0.00000000000E+00 -0.00000000000E+00 -0.45593999997E+02  0.45594000000E+02  0.51100000000E-03 0. -1.
    9900012    2    1    2    0    0  0.40599103756E+01  0.93648633451E+00  0.40445156325E+02  0.50528799946E+02  0.29999817915E+02 0.  0.
         12    1    1    2    0    0 -0.40599103756E+01 -0.93648633451E+00 -0.40445156325E+02  0.40659200054E+02  0.00000000000E+00 0. -1.
         11    1    3    3    0    0  0.50041549155E+01 -0.42583508125E+01  0.20273171163E+02  0.21311419177E+02  0.51100000000E-03 0. -1.
        -11    1    3    3    0    0 -0.79821562602E+01  0.42070358229E+01  0.20185614810E+02  0.22110472960E+02  0.51100000000E-03 0.  1.
         12    1    3    3    0    0  0.70379117203E+01  0.98780132410E+00 -0.13629648986E-01  0.71069078090E+01  0.00000000000E+00 0. -1.
</event>
<event>
 7    1  0.5408841E-013  0.5052886E+02  0.7816164E-02  0.1300439E+00
        -11   -1    0    0    0    0  0.00000000000E+00  0.00000000000E+00  0.45593999997E+02  0.45594000000E+02  0.51100000000E-03 0. -1.
         11   -1    0    0    0    0 -0.00000000000E+00 -0.00000000000E+00 -0.45593999997E+02  0.45594000000E+02  0.51100000000E-03 0.  1.
    9900012    2    1    2    0    0 -0.90293557824E+01 -0.39550428521E+02  0.27203087322E+01  0.50528859064E+02  0.29999997612E+02 0.  0.
         12    1    1    2    0    0  0.90293557824E+01  0.39550428521E+02 -0.27203087322E+01  0.40659140936E+02  0.00000000000E+00 0. -1.
         11    1    3    3    0    0  0.28144379790E+01 -0.15364376828E+02  0.36559309665E+01  0.16042162197E+02  0.51100000000E-03 0. -1.
        -11    1    3    3    0    0 -0.34853849399E+00 -0.78553979646E+01  0.91906712485E+01  0.12095337718E+02  0.51100000000E-03 0.  1.
        -12    1    3    3    0    0 -0.11495255267E+02 -0.16330653728E+02 -0.10126293483E+02  0.22391359149E+02  0.00000000000E+00 0.  1.
</event>
<event>
 7    1  0.5408841E-013  0.5052885E+02  0.7816164E-02  0.1300439E+00
        -11   -1    0    0    0    0  0.00000000000E+00  0.00000000000E+00  0.45593999997E+02  0.45594000000E+02  0.51100000000E-03 0.  1.
         11   -1    0    0    0    0 -0.00000000000E+00 -0.00000000000E+00 -0.45593999997E+02  0.45594000000E+02  0.51100000000E-03 0. -1.
    9900012    2    1    2    0    0  0.25888010150E+02  0.20045327323E+02  0.24107311130E+02  0.50528847686E+02  0.29999963026E+02 0.  0.
         12    1    1    2    0    0 -0.25888010150E+02 -0.20045327323E+02 -0.24107311130E+02  0.40659152314E+02  0.00000000000E+00 0. -1.
         11    1    3    3    0    0  0.86187151394E+01  0.12893731544E+02  0.14181154459E+02  0.21015130402E+02  0.51100000000E-03 0. -1.
        -11    1    3    3    0    0  0.16204029304E+02  0.11418329998E+02  0.13416028675E+01  0.19868284379E+02  0.51100000000E-03 0.  1.
         12    1    3    3    0    0  0.10652657062E+01 -0.42667342189E+01  0.85845538033E+01  0.96454329048E+01  0.00000000000E+00 0. -1.
</event>
<event>
 7    1  0.5408841E-013  0.5052886E+02  0.7816164E-02  0.1300439E+00
        -11   -1    0    0    0    0  0.00000000000E+00  0.00000000000E+00  0.45593999997E+02  0.45594000000E+02  0.51100000000E-03 0. -1.
         11   -1    0    0    0    0 -0.00000000000E+00 -0.00000000000E+00 -0.45593999997E+02  0.45594000000E+02  0.51100000000E-03 0.  1.
    9900012    2    1    2    0    0 -0.19779150490E+02  0.34420849681E+02 -0.87838690375E+01  0.50528855369E+02  0.29999986379E+02 0.  0.
         12    1    1    2    0    0  0.19779150490E+02 -0.34420849681E+02  0.87838690375E+01  0.40659144631E+02  0.00000000000E+00 0. -1.
         11    1    3    3    0    0  0.27894004084E+01 -0.60337381704E+00  0.25096139444E+01  0.38003916920E+01  0.51100000000E-03 0. -1.
        -11    1    3    3    0    0 -0.13360145730E+02  0.20318155940E+02 -0.15548643173E+02  0.28863147082E+02  0.51100000000E-03 0.  1.
         12    1    3    3    0    0 -0.92084051685E+01  0.14706067558E+02  0.42551601907E+01  0.17865316595E+02  0.00000000000E+00 0. -1.
</event>
<event>
 7    1  0.5408841E-013  0.5052886E+02  0.7816164E-02  0.1300439E+00
        -11   -1    0    0    0    0  0.00000000000E+00  0.00000000000E+00  0.45593999997E+02  0.45594000000E+02  0.51100000000E-03 0.  1.
         11   -1    0    0    0    0 -0.00000000000E+00 -0.00000000000E+00 -0.45593999997E+02  0.45594000000E+02  0.51100000000E-03 0. -1.
    9900012    2    1    2    0    0  0.17463096426E+02  0.19809145308E+02  0.30916075698E+02  0.50528859438E+02  0.29999998748E+02 0.  0.
         12    1    1    2    0    0 -0.17463096426E+02 -0.19809145308E+02 -0.30916075698E+02  0.40659140562E+02  0.00000000000E+00 0. -1.
         11    1    3    3    0    0  0.31344633816E+01 -0.40928741160E+01 -0.17426335946E+01  0.54418058883E+01  0.51100000000E-03 0. -1.
        -11    1    3    3    0    0  0.66239178364E+01  0.73493568724E+00  0.73494719490E+01  0.99212477117E+01  0.51100000000E-03 0.  1.
         12    1    3    3    0    0  0.77047152081E+01  0.23167083737E+02  0.25309237344E+02  0.35165805838E+02  0.00000000000E+00 0. -1.
</event>
<event>
 7    1  0.5408841E-013  0.5052886E+02  0.7816164E-02  0.1300439E+00
        -11   -1    0    0    0    0  0.00000000000E+00  0.00000000000E+00  0.45593999997E+02  0.45594000000E+02  0.51100000000E-03 0. -1.
         11   -1    0    0    0    0 -0.00000000000E+00 -0.00000000000E+00 -0.45593999997E+02  0.45594000000E+02  0.51100000000E-03 0.  1.
    9900012    2    1    2    0    0 -0.40261710894E+02 -0.11083349134E+01  0.55616593702E+01  0.50528858035E+02  0.29999994484E+02 0.  0.
         12    1    1    2    0    0  0.40261710894E+02  0.11083349134E+01 -0.55616593702E+01  0.40659141965E+02  0.00000000000E+00 0. -1.
         11    1    3    3    0    0 -0.21523416991E+02 -0.38426262524E+00  0.93659131915E+01  0.23476061571E+02  0.51100000000E-03 0. -1.
        -11    1    3    3    0    0 -0.10649401790E+02 -0.77949398338E+01  0.39811574193E+01  0.13784790900E+02  0.51100000000E-03 0.  1.
        -12    1    3    3    0    0 -0.80888921126E+01  0.70708675456E+01 -0.77854112406E+01  0.13268005564E+02  0.00000000000E+00 0.  1.
</event>
<event>
 7    1  0.5408841E-013  0.5052887E+02  0.7816164E-02  0.1300439E+00
        -11   -1    0    0    0    0  0.00000000000E+00  0.00000000000E+00  0.45593999997E+02  0.45594000000E+02  0.51100000000E-03 0.  1.
         11   -1    0    0    0    0 -0.00000000000E+00 -0.00000000000E+00 -0.45593999997E+02  0.45594000000E+02  0.51100000000E-03 0. -1.
    9900012    2    1    2    0    0 -0.99049277990E+01 -0.38233188110E+02  0.96581913519E+01  0.50528869070E+02  0.30000028026E+02 0.  0.
         12    1    1    2    0    0  0.99049277990E+01  0.38233188110E+02 -0.96581913519E+01  0.40659130930E+02  0.00000000000E+00 0. -1.
         11    1    3    3    0    0 -0.20520256545E+01 -0.30174037292E+01  0.40167096982E+00  0.36710862672E+01  0.51100000000E-03 0. -1.
        -11    1    3    3    0    0 -0.17574368044E+02 -0.25545685338E+02  0.13650607985E+01  0.31037136511E+02  0.51100000000E-03 0.  1.
         12    1    3    3    0    0  0.97214658997E+01 -0.96700990431E+01  0.78914595835E+01  0.15820646292E+02  0.00000000000E+00 0. -1.
</event>
<event>
 7    1  0.5408841E-013  0.5052886E+02  0.7816164E-02  0.1300439E+00
        -11   -1    0    0    0    0  0.00000000000E+00  0.00000000000E+00  0.45593999997E+02  0.45594000000E+02  0.51100000000E-03 0. -1.
         11   -1    0    0    0    0 -0.00000000000E+00 -0.00000000000E+00 -0.45593999997E+02  0.45594000000E+02  0.51100000000E-03 0.  1.
    9900012    2    1    2    0    0 -0.20865803942E+01  0.38579362336E+02  0.12666673404E+02  0.50528860423E+02  0.30000001742E+02 0.  0.
         12    1    1    2    0    0  0.20865803942E+01 -0.38579362336E+02 -0.12666673404E+02  0.40659139577E+02  0.00000000000E+00 0. -1.
         11    1    3    3    0    0  0.49231395574E+01  0.24984777913E+02  0.11267779855E+02  0.27846710642E+02  0.51100000000E-03 0. -1.
        -11    1    3    3    0    0  0.21501365878E+01  0.84707918215E+01  0.66162124736E+01  0.10961371684E+02  0.51100000000E-03 0.  1.
        -12    1    3    3    0    0 -0.91598565394E+01  0.51237926013E+01 -0.52173189242E+01  0.11720778097E+02  0.00000000000E+00 0.  1.
</event>
<event>
 7    1  0.5408841E-013  0.5052892E+02  0.7816164E-02  0.1300439E+00
        -11   -1    0    0    0    0  0.00000000000E+00  0.00000000000E+00  0.45593999997E+02  0.45594000000E+02  0.51100000000E-03 0. -1.
         11   -1    0    0    0    0 -0.00000000000E+00 -0.00000000000E+00 -0.45593999997E+02  0.45594000000E+02  0.51100000000E-03 0.  1.
    9900012    2    1    2    0    0 -0.12363017993E+02  0.17012079870E+02 -0.34798065486E+02  0.50528924297E+02  0.30000195894E+02 0.  0.
         12    1    1    2    0    0  0.12363017993E+02 -0.17012079870E+02  0.34798065486E+02  0.40659075703E+02  0.00000000000E+00 0. -1.
         11    1    3    3    0    0 -0.41590979838E+01  0.68515637490E+01 -0.12032511274E+02  0.14457639837E+02  0.51100000000E-03 0.  1.
        -11    1    3    3    0    0 -0.91244576760E+01  0.15343667183E+02 -0.24688791095E+02  0.30466707346E+02  0.51100000000E-03 0. -1.
         12    1    3    3    0    0  0.92053766681E+00 -0.51831510614E+01  0.19232368831E+01  0.56045771143E+01  0.00000000000E+00 0. -1.
</event>
<event>
 7    1  0.5408841E-013  0.5052886E+02  0.7816164E-02  0.1300439E+00
        -11   -1    0    0    0    0  0.00000000000E+00  0.00000000000E+00  0.45593999997E+02  0.45594000000E+02  0.51100000000E-03 0.  1.
         11   -1    0    0    0    0 -0.00000000000E+00 -0.00000000000E+00 -0.45593999997E+02  0.45594000000E+02  0.51100000000E-03 0. -1.
    9900012    2    1    2    0    0  0.20509892297E+02  0.24123448254E+01  0.35024144013E+02  0.50528858919E+02  0.29999997170E+02 0.  0.
         12    1    1    2    0    0 -0.20509892297E+02 -0.24123448254E+01 -0.35024144013E+02  0.40659141081E+02  0.00000000000E+00 0. -1.
         11    1    3    3    0    0  0.77942873109E+01 -0.67381479354E+01  0.96650621166E+01  0.14126817698E+02  0.51100000000E-03 0. -1.
        -11    1    3    3    0    0  0.86166413309E+01 -0.32095751091E+01  0.20562454247E+02  0.22524706549E+02  0.51100000000E-03 0.  1.
        -12    1    3    3    0    0  0.40989636548E+01  0.12360067870E+02  0.47966276497E+01  0.13877334672E+02  0.00000000000E+00 0.  1.
</event>
<event>
 7    1  0.5408841E-013  0.5052886E+02  0.7816164E-02  0.1300439E+00
        -11   -1    0    0    0    0  0.00000000000E+00  0.00000000000E+00  0.45593999997E+02  0.45594000000E+02  0.51100000000E-03 0.  1.
         11   -1    0    0    0    0 -0.00000000000E+00 -0.00000000000E+00 -0.45593999997E+02  0.45594000000E+02  0.51100000000E-03 0. -1.
    9900012    2    1    2    0    0  0.85790388142E+01 -0.31727611713E+02  0.23935843426E+02  0.50528857701E+02  0.29999993468E+02 0.  0.
         12    1    1    2    0    0 -0.85790388142E+01  0.31727611713E+02 -0.23935843426E+02  0.40659142299E+02  0.00000000000E+00 0. -1.
         11    1    3    3    0    0  0.76019954559E+01 -0.45623464720E+01  0.57073778188E+01  0.10544169103E+02  0.51100000000E-03 0. -1.
        -11    1    3    3    0    0  0.11750337758E+02 -0.11904616001E+02  0.66072964909E+01  0.17984623620E+02  0.51100000000E-03 0.  1.
        -12    1    3    3    0    0 -0.10773294399E+02 -0.15260649239E+02  0.11621169117E+02  0.22000064978E+02  0.00000000000E+00 0.  1.
</event>
<event>
 7    1  0.5408841E-013  0.5052886E+02  0.7816164E-02  0.1300439E+00
        -11   -1    0    0    0    0  0.00000000000E+00  0.00000000000E+00  0.45593999997E+02  0.45594000000E+02  0.51100000000E-03 0. -1.
         11   -1    0    0    0    0 -0.00000000000E+00 -0.00000000000E+00 -0.45593999997E+02  0.45594000000E+02  0.51100000000E-03 0.  1.
    9900012    2    1    2    0    0 -0.38325120765E+02 -0.78769369716E+01 -0.11059153038E+02  0.50528857318E+02  0.29999992303E+02 0.  0.
         12    1    1    2    0    0  0.38325120765E+02  0.78769369716E+01  0.11059153038E+02  0.40659142682E+02  0.00000000000E+00 0. -1.
         11    1    3    3    0    0 -0.23805588966E+01  0.16273966825E+01 -0.14340030001E+01  0.32205349692E+01  0.51100000000E-03 0. -1.
        -11    1    3    3    0    0 -0.16266391678E+02 -0.11042500629E+02  0.76320981351E+01  0.21089837377E+02  0.51100000000E-03 0.  1.
        -12    1    3    3    0    0 -0.19678170191E+02  0.15381669750E+01 -0.17257248174E+02  0.26218484972E+02  0.00000000000E+00 0.  1.
</event>
<event>
 7    1  0.5408841E-013  0.5052884E+02  0.7816164E-02  0.1300439E+00
        -11   -1    0    0    0    0  0.00000000000E+00  0.00000000000E+00  0.45593999997E+02  0.45594000000E+02  0.51100000000E-03 0.  1.
         11   -1    0    0    0    0 -0.00000000000E+00 -0.00000000000E+00 -0.45593999997E+02  0.45594000000E+02  0.51100000000E-03 0. -1.
    9900012    2    1    2    0    0 -0.96234672828E+01  0.24260142008E+02  0.31176943889E+02  0.50528838141E+02  0.29999934013E+02 0.  0.
         12    1    1    2    0    0  0.96234672828E+01 -0.24260142008E+02 -0.31176943889E+02  0.40659161859E+02  0.00000000000E+00 0. -1.
         11    1    3    3    0    0 -0.35386197188E+01  0.30959240008E+01  0.17999488374E+02  0.18603444759E+02  0.51100000000E-03 0. -1.
        -11    1    3    3    0    0  0.78682020410E+00  0.42683392308E+01  0.12977967011E+02  0.13684496111E+02  0.51100000000E-03 0.  1.
         12    1    3    3    0    0 -0.68716677681E+01  0.16895878777E+02  0.19948850465E+00  0.18240897270E+02  0.00000000000E+00 0. -1.
</event>
<event>
 7    1  0.5408841E-013  0.5052887E+02  0.7816164E-02  0.1300439E+00
        -11   -1    0    0    0    0  0.00000000000E+00  0.00000000000E+00  0.45593999997E+02  0.45594000000E+02  0.51100000000E-03 0. -1.
         11   -1    0    0    0    0 -0.00000000000E+00 -0.00000000000E+00 -0.45593999997E+02  0.45594000000E+02  0.51100000000E-03 0.  1.
    9900012    2    1    2    0    0  0.16872447439E+02 -0.36992001001E+02  0.27831433276E+00  0.50528867206E+02  0.30000022360E+02 0.  0.
         12    1    1    2    0    0 -0.16872447439E+02  0.36992001001E+02 -0.27831433276E+00  0.40659132794E+02  0.00000000000E+00 0. -1.
         11    1    3    3    0    0  0.44193183268E+01  0.17150020913E+00 -0.72067405864E+01  0.84555837727E+01  0.51100000000E-03 0. -1.
        -11    1    3    3    0    0  0.29640203912E+00 -0.70263645895E+00 -0.22916352806E+01  0.24151904030E+01  0.51100000000E-03 0.  1.
        -12    1    3    3    0    0  0.12156727073E+02 -0.36460864752E+02  0.97766901998E+01  0.39658093031E+02  0.00000000000E+00 0.  1.
</event>
<event>
 7    1  0.5408841E-013  0.5052886E+02  0.7816164E-02  0.1300439E+00
        -11   -1    0    0    0    0  0.00000000000E+00  0.00000000000E+00  0.45593999997E+02  0.45594000000E+02  0.51100000000E-03 0.  1.
         11   -1    0    0    0    0 -0.00000000000E+00 -0.00000000000E+00 -0.45593999997E+02  0.45594000000E+02  0.51100000000E-03 0. -1.
    9900012    2    1    2    0    0 -0.25444657977E+02  0.17598478035E+02  0.26382348568E+02  0.50528863700E+02  0.30000011702E+02 0.  0.
         12    1    1    2    0    0  0.25444657977E+02 -0.17598478035E+02 -0.26382348568E+02  0.40659136300E+02  0.00000000000E+00 0. -1.
         11    1    3    3    0    0 -0.38202988132E+01  0.48560984930E+01 -0.57477309279E+01  0.84387668931E+01  0.51100000000E-03 0.  1.
        -11    1    3    3    0    0 -0.74778768366E+01 -0.89035815625E+00  0.83513720435E+01  0.11245301014E+02  0.51100000000E-03 0. -1.
        -12    1    3    3    0    0 -0.14146482328E+02  0.13632737698E+02  0.23778707452E+02  0.30844795793E+02  0.00000000000E+00 0.  1.
</event>
<event>
 7    1  0.5408841E-013  0.5052885E+02  0.7816164E-02  0.1300439E+00
        -11   -1    0    0    0    0  0.00000000000E+00  0.00000000000E+00  0.45593999997E+02  0.45594000000E+02  0.51100000000E-03 0.  1.
         11   -1    0    0    0    0 -0.00000000000E+00 -0.00000000000E+00 -0.45593999997E+02  0.45594000000E+02  0.51100000000E-03 0. -1.
    9900012    2    1    2    0    0 -0.16022681494E+02  0.36048735580E+02  0.98452601630E+01  0.50528845965E+02  0.29999957795E+02 0.  0.
         12    1    1    2    0    0  0.16022681494E+02 -0.36048735580E+02 -0.98452601630E+01  0.40659154035E+02  0.00000000000E+00 0. -1.
         11    1    3    3    0    0  0.66132935749E+00  0.86345889730E+00 -0.46733446735E+01  0.47982359764E+01  0.51100000000E-03 0. -1.
        -11    1    3    3    0    0  0.29849468940E+01  0.11639232862E+02  0.57309172991E+00  0.12029550447E+02  0.51100000000E-03 0.  1.
         12    1    3    3    0    0 -0.19668957745E+02  0.23546043821E+02  0.13945513107E+02  0.33701059541E+02  0.00000000000E+00 0. -1.
</event>
<event>
 7    1  0.5408841E-013  0.5052886E+02  0.7816164E-02  0.1300439E+00
        -11   -1    0    0    0    0  0.00000000000E+00  0.00000000000E+00  0.45593999997E+02  0.45594000000E+02  0.51100000000E-03 0. -1.
         11   -1    0    0    0    0 -0.00000000000E+00 -0.00000000000E+00 -0.45593999997E+02  0.45594000000E+02  0.51100000000E-03 0.  1.
    9900012    2    1    2    0    0  0.34214002809E+02  0.96963909270E+01  0.19711608456E+02  0.50528862120E+02  0.30000006900E+02 0.  0.
         12    1    1    2    0    0 -0.34214002809E+02 -0.96963909270E+01 -0.19711608456E+02  0.40659137880E+02  0.00000000000E+00 0. -1.
         11    1    3    3    0    0 -0.12053299729E+01  0.29586198160E+01 -0.12694930486E+01  0.34377120910E+01  0.51100000000E-03 0. -1.
        -11    1    3    3    0    0  0.13745243962E+01 -0.94585460070E+00  0.10526398363E+02  0.10657815020E+02  0.51100000000E-03 0.  1.
        -12    1    3    3    0    0  0.34044808386E+02  0.76836257117E+01  0.10454703141E+02  0.36433335009E+02  0.00000000000E+00 0.  1.
</event>
<event>
 7    1  0.5408841E-013  0.5052886E+02  0.7816164E-02  0.1300439E+00
        -11   -1    0    0    0    0  0.00000000000E+00  0.00000000000E+00  0.45593999997E+02  0.45594000000E+02  0.51100000000E-03 0.  1.
         11   -1    0    0    0    0 -0.00000000000E+00 -0.00000000000E+00 -0.45593999997E+02  0.45594000000E+02  0.51100000000E-03 0. -1.
    9900012    2    1    2    0    0 -0.13676379574E+02 -0.20894547282E+02  0.32086454345E+02  0.50528855680E+02  0.29999987326E+02 0.  0.
         12    1    1    2    0    0  0.13676379574E+02  0.20894547282E+02 -0.32086454345E+02  0.40659144320E+02  0.00000000000E+00 0. -1.
         11    1    3    3    0    0  0.10121159004E+01 -0.42202919401E-03  0.34847960212E+01  0.36287990223E+01  0.51100000000E-03 0. -1.
        -11    1    3    3    0    0  0.66093202824E+01 -0.11787907543E+02  0.69649331411E+01  0.15203557898E+02  0.51100000000E-03 0.  1.
         12    1    3    3    0    0 -0.21297815757E+02 -0.91062177096E+01  0.21636725183E+02  0.31696498760E+02  0.00000000000E+00 0. -1.
</event>
<event>
 7    1  0.5408841E-013  0.5052883E+02  0.7816164E-02  0.1300439E+00
        -11   -1    0    0    0    0  0.00000000000E+00  0.00000000000E+00  0.45593999997E+02  0.45594000000E+02  0.51100000000E-03 0.  1.
         11   -1    0    0    0    0 -0.00000000000E+00 -0.00000000000E+00 -0.45593999997E+02  0.45594000000E+02  0.51100000000E-03 0. -1.
    9900012    2    1    2    0    0  0.57472188291E+01  0.27093632444E+02  0.29766969635E+02  0.50528832221E+02  0.29999916018E+02 0.  0.
         12    1    1    2    0    0 -0.57472188291E+01 -0.27093632444E+02 -0.29766969635E+02  0.40659167779E+02  0.00000000000E+00 0. -1.
         11    1    3    3    0    0  0.39955751295E+01  0.81533975585E+00  0.87181254988E+01  0.96247136065E+01  0.51100000000E-03 0. -1.
        -11    1    3    3    0    0 -0.60650994994E+01  0.25199633119E+02  0.20404334550E+02  0.32987024873E+02  0.51100000000E-03 0.  1.
         12    1    3    3    0    0  0.78167431991E+01  0.10786595695E+01  0.64450958526E+00  0.79170937416E+01  0.00000000000E+00 0. -1.
</event>
<event>
 7    1  0.5408841E-013  0.5052886E+02  0.7816164E-02  0.1300439E+00
        -11   -1    0    0    0    0  0.00000000000E+00  0.00000000000E+00  0.45593999997E+02  0.45594000000E+02  0.51100000000E-03 0. -1.
         11   -1    0    0    0    0 -0.00000000000E+00 -0.00000000000E+00 -0.45593999997E+02  0.45594000000E+02  0.51100000000E-03 0.  1.
    9900012    2    1    2    0    0  0.20123261953E+02 -0.82039108245E+01 -0.34364460938E+02  0.50528855887E+02  0.29999987953E+02 0.  0.
         12    1    1    2    0    0 -0.20123261953E+02  0.82039108245E+01  0.34364460938E+02  0.40659144113E+02  0.00000000000E+00 0. -1.
         11    1    3    3    0    0  0.15142023794E+02  0.33744440812E+01 -0.19292212325E+02  0.24755953104E+02  0.51100000000E-03 0. -1.
        -11    1    3    3    0    0  0.61778337754E+01  0.20934360175E+00 -0.12053540979E+02  0.13546117721E+02  0.51100000000E-03 0.  1.
         12    1    3    3    0    0 -0.11965956163E+01 -0.11787698507E+02 -0.30187076339E+01  0.12226785062E+02  0.00000000000E+00 0. -1.
</event>
<event>
 7    1  0.5408841E-013  0.5052886E+02  0.7816164E-02  0.1300439E+00
        -11   -1    0    0    0    0  0.00000000000E+00  0.00000000000E+00  0.45593999997E+02  0.45594000000E+02  0.51100000000E-03 0. -1.
         11   -1    0    0    0    0 -0.00000000000E+00 -0.00000000000E+00 -0.45593999997E+02  0.45594000000E+02  0.51100000000E-03 0.  1.
    9900012    2    1    2    0    0 -0.33865607318E+01 -0.18009779994E+02  0.36295247559E+02  0.50528856325E+02  0.29999989285E+02 0.  0.
         12    1    1    2    0    0  0.33865607318E+01  0.18009779994E+02 -0.36295247559E+02  0.40659143675E+02  0.00000000000E+00 0. -1.
         11    1    3    3    0    0 -0.43478448642E+01  0.15043175724E+01  0.25192298724E+01  0.52453070199E+01  0.51100000000E-03 0. -1.
        -11    1    3    3    0    0  0.61247801890E+01 -0.11325009628E+02  0.32779950368E+01  0.13285858164E+02  0.51100000000E-03 0.  1.
         12    1    3    3    0    0 -0.51634960565E+01 -0.81890879388E+01  0.30498022650E+02  0.31997691141E+02  0.00000000000E+00 0. -1.
</event>
<event>
 7    1  0.5408841E-013  0.5052889E+02  0.7816164E-02  0.1300439E+00
        -11   -1    0    0    0    0  0.00000000000E+00  0.00000000000E+00  0.45593999997E+02  0.45594000000E+02  0.51100000000E-03 0. -1.
         11   -1    0    0    0    0 -0.00000000000E+00 -0.00000000000E+00 -0.45593999997E+02  0.45594000000E+02  0.51100000000E-03 0.  1.
    9900012    2    1    2    0    0  0.16115140608E+02 -0.37241198917E+02 -0.25609859228E+01  0.50528889059E+02  0.30000088784E+02 0.  0.
         12    1    1    2    0    0 -0.16115140608E+02  0.37241198917E+02  0.25609859228E+01  0.40659110941E+02  0.00000000000E+00 0. -1.
         11    1    3    3    0    0  0.12345344670E+02 -0.15787950277E+02  0.87609884109E+01  0.21872855944E+02  0.51100000000E-03 0. -1.
        -11    1    3    3    0    0  0.21875341999E+01 -0.18724906769E+02 -0.21710663791E+01  0.18976853502E+02  0.51100000000E-03 0.  1.
        -12    1    3    3    0    0  0.15822617382E+01 -0.27283418721E+01 -0.91509079546E+01  0.96791796126E+01  0.00000000000E+00 0.  1.
</event>
<event>
 7    1  0.5408841E-013  0.5052887E+02  0.7816164E-02  0.1300439E+00
        -11   -1    0    0    0    0  0.00000000000E+00  0.00000000000E+00  0.45593999997E+02  0.45594000000E+02  0.51100000000E-03 0. -1.
         11   -1    0    0    0    0 -0.00000000000E+00 -0.00000000000E+00 -0.45593999997E+02  0.45594000000E+02  0.51100000000E-03 0.  1.
    9900012    2    1    2    0    0  0.29785158083E+02  0.21909064289E+02 -0.16911604075E+02  0.50528867047E+02  0.30000021877E+02 0.  0.
         12    1    1    2    0    0 -0.29785158083E+02 -0.21909064289E+02  0.16911604075E+02  0.40659132953E+02  0.00000000000E+00 0. -1.
         11    1    3    3    0    0 -0.10731029232E+01  0.14187405287E+01 -0.20952840680E+01  0.27485614707E+01  0.51100000000E-03 0. -1.
        -11    1    3    3    0    0  0.27852491383E+02  0.26383637895E+02 -0.10150477040E+02  0.39684881368E+02  0.51100000000E-03 0.  1.
         12    1    3    3    0    0  0.30057696232E+01 -0.58933141344E+01 -0.46658429673E+01  0.80954242081E+01  0.00000000000E+00 0. -1.
</event>
<event>
 7    1  0.5408841E-013  0.5052886E+02  0.7816164E-02  0.1300439E+00
        -11   -1    0    0    0    0  0.00000000000E+00  0.00000000000E+00  0.45593999997E+02  0.45594000000E+02  0.51100000000E-03 0.  1.
         11   -1    0    0    0    0 -0.00000000000E+00 -0.00000000000E+00 -0.45593999997E+02  0.45594000000E+02  0.51100000000E-03 0. -1.
    9900012    2    1    2    0    0  0.20105399891E+02 -0.25983302414E+02  0.23954253043E+02  0.50528863905E+02  0.30000012326E+02 0.  0.
         12    1    1    2    0    0 -0.20105399891E+02  0.25983302414E+02 -0.23954253043E+02  0.40659136095E+02  0.00000000000E+00 0. -1.
         11    1    3    3    0    0  0.17003048518E+02 -0.13389945459E+02  0.22884014858E-01  0.21642431062E+02  0.51100000000E-03 0. -1.
        -11    1    3    3    0    0 -0.19116668882E+01  0.28282875695E+00  0.56435646923E+01  0.59652564986E+01  0.51100000000E-03 0.  1.
        -12    1    3    3    0    0  0.50140182612E+01 -0.12876185712E+02  0.18287804336E+02  0.22921176345E+02  0.00000000000E+00 0.  1.
</event>
<event>
 7    1  0.5408841E-013  0.5052885E+02  0.7816164E-02  0.1300439E+00
        -11   -1    0    0    0    0  0.00000000000E+00  0.00000000000E+00  0.45593999997E+02  0.45594000000E+02  0.51100000000E-03 0.  1.
         11   -1    0    0    0    0 -0.00000000000E+00 -0.00000000000E+00 -0.45593999997E+02  0.45594000000E+02  0.51100000000E-03 0. -1.
    9900012    2    1    2    0    0 -0.19451000998E+01 -0.26376279178E+02  0.30881629302E+02  0.50528849172E+02  0.29999967544E+02 0.  0.
         12    1    1    2    0    0  0.19451000998E+01  0.26376279178E+02 -0.30881629302E+02  0.40659150828E+02  0.00000000000E+00 0. -1.
         11    1    3    3    0    0 -0.15227940073E+01 -0.27851226447E-01  0.82656065105E+00  0.17328820071E+01  0.51100000000E-03 0. -1.
        -11    1    3    3    0    0 -0.47699011573E+01 -0.23823886543E+02  0.34424443648E+02  0.42135161656E+02  0.51100000000E-03 0.  1.
        -12    1    3    3    0    0  0.43475950649E+01 -0.25245414083E+01 -0.43693749963E+01  0.66608055090E+01  0.00000000000E+00 0.  1.
</event>
<event>
 7    1  0.5408841E-013  0.5052886E+02  0.7816164E-02  0.1300439E+00
        -11   -1    0    0    0    0  0.00000000000E+00  0.00000000000E+00  0.45593999997E+02  0.45594000000E+02  0.51100000000E-03 0.  1.
         11   -1    0    0    0    0 -0.00000000000E+00 -0.00000000000E+00 -0.45593999997E+02  0.45594000000E+02  0.51100000000E-03 0. -1.
    9900012    2    1    2    0    0 -0.83173911070E+01  0.38982076232E+02 -0.80239777360E+01  0.50528862271E+02  0.30000007358E+02 0.  0.
         12    1    1    2    0    0  0.83173911070E+01 -0.38982076232E+02  0.80239777360E+01  0.40659137729E+02  0.00000000000E+00 0. -1.
         11    1    3    3    0    0 -0.58483646912E+00  0.80974397152E+00  0.42219432174E+01  0.43384932623E+01  0.51100000000E-03 0. -1.
        -11    1    3    3    0    0 -0.14155881683E+02  0.15688788056E+02 -0.50689943791E+01  0.21730664076E+02  0.51100000000E-03 0.  1.
        -12    1    3    3    0    0  0.64233270455E+01  0.22483544205E+02 -0.71769265743E+01  0.24459704933E+02  0.00000000000E+00 0.  1.
</event>
<event>
 7    1  0.5408841E-013  0.5052886E+02  0.7816164E-02  0.1300439E+00
        -11   -1    0    0    0    0  0.00000000000E+00  0.00000000000E+00  0.45593999997E+02  0.45594000000E+02  0.51100000000E-03 0.  1.
         11   -1    0    0    0    0 -0.00000000000E+00 -0.00000000000E+00 -0.45593999997E+02  0.45594000000E+02  0.51100000000E-03 0. -1.
    9900012    2    1    2    0    0  0.12399287053E+02  0.17671570266E+02  0.34454888490E+02  0.50528855199E+02  0.29999985863E+02 0.  0.
         12    1    1    2    0    0 -0.12399287053E+02 -0.17671570266E+02 -0.34454888490E+02  0.40659144801E+02  0.00000000000E+00 0. -1.
         11    1    3    3    0    0  0.16748985658E+02  0.93678198130E+01  0.19229505941E+02  0.27167231505E+02  0.51100000000E-03 0. -1.
        -11    1    3    3    0    0  0.33850106599E+01  0.88803516393E+00  0.11494372474E+02  0.12015302844E+02  0.51100000000E-03 0.  1.
        -12    1    3    3    0    0 -0.77347092647E+01  0.74157152888E+01  0.37310100752E+01  0.11346320850E+02  0.00000000000E+00 0.  1.
</event>
<event>
 7    1  0.5408841E-013  0.5052886E+02  0.7816164E-02  0.1300439E+00
        -11   -1    0    0    0    0  0.00000000000E+00  0.00000000000E+00  0.45593999997E+02  0.45594000000E+02  0.51100000000E-03 0. -1.
         11   -1    0    0    0    0 -0.00000000000E+00 -0.00000000000E+00 -0.45593999997E+02  0.45594000000E+02  0.51100000000E-03 0.  1.
    9900012    2    1    2    0    0 -0.16703870520E+02  0.12576765868E+02 -0.34870784373E+02  0.50528856713E+02  0.29999990465E+02 0.  0.
         12    1    1    2    0    0  0.16703870520E+02 -0.12576765868E+02  0.34870784373E+02  0.40659143287E+02  0.00000000000E+00 0. -1.
         11    1    3    3    0    0  0.89487555326E+00  0.51273402435E+01  0.20775308640E+01  0.56041551531E+01  0.51100000000E-03 0. -1.
        -11    1    3    3    0    0  0.82872058396E+00 -0.32303533345E+01 -0.17048849259E+01  0.37454763841E+01  0.51100000000E-03 0.  1.
         12    1    3    3    0    0 -0.18427466657E+02  0.10679778959E+02 -0.35243430311E+02  0.41179225176E+02  0.00000000000E+00 0. -1.
</event>
<event>
 7    1  0.5408841E-013  0.5052886E+02  0.7816164E-02  0.1300439E+00
        -11   -1    0    0    0    0  0.00000000000E+00  0.00000000000E+00  0.45593999997E+02  0.45594000000E+02  0.51100000000E-03 0.  1.
         11   -1    0    0    0    0 -0.00000000000E+00 -0.00000000000E+00 -0.45593999997E+02  0.45594000000E+02  0.51100000000E-03 0. -1.
    9900012    2    1    2    0    0  0.15256315800E+02  0.24050801295E+02  0.29016703507E+02  0.50528864531E+02  0.30000014228E+02 0.  0.
         12    1    1    2    0    0 -0.15256315800E+02 -0.24050801295E+02 -0.29016703507E+02  0.40659135469E+02  0.00000000000E+00 0. -1.
         11    1    3    3    0    0  0.45384340907E+01  0.15417698637E+02 -0.63381574835E+00  0.16084294760E+02  0.51100000000E-03 0. -1.
        -11    1    3    3    0    0  0.88573134432E+01  0.10246655474E+02  0.17944216184E+02  0.22482011577E+02  0.51100000000E-03 0.  1.
        -12    1    3    3    0    0  0.18605682659E+01 -0.16135528161E+01  0.11706303071E+02  0.11962558194E+02  0.00000000000E+00 0.  1.
</event>
<event>
 7    1  0.5408841E-013  0.5052885E+02  0.7816164E-02  0.1300439E+00
        -11   -1    0    0    0    0  0.00000000000E+00  0.00000000000E+00  0.45593999997E+02  0.45594000000E+02  0.51100000000E-03 0.  1.
         11   -1    0    0    0    0 -0.00000000000E+00 -0.00000000000E+00 -0.45593999997E+02  0.45594000000E+02  0.51100000000E-03 0. -1.
    9900012    2    1    2    0    0 -0.31777475615E+02 -0.24503417188E+02  0.65529158422E+01  0.50528854455E+02  0.29999983602E+02 0.  0.
         12    1    1    2    0    0  0.31777475615E+02  0.24503417188E+02 -0.65529158422E+01  0.40659145545E+02  0.00000000000E+00 0. -1.
         11    1    3    3    0    0 -0.27340371720E+02 -0.11725945877E+02 -0.21651490522E+01  0.29827530960E+02  0.51100000000E-03 0. -1.
        -11    1    3    3    0    0 -0.88313569878E+01 -0.61511507296E+01  0.41739625601E+01  0.11543460714E+02  0.51100000000E-03 0.  1.
         12    1    3    3    0    0  0.43942530924E+01 -0.66263205813E+01  0.45441023343E+01  0.91578627807E+01  0.00000000000E+00 0. -1.
</event>
<event>
 7    1  0.5408841E-013  0.5052886E+02  0.7816164E-02  0.1300439E+00
        -11   -1    0    0    0    0  0.00000000000E+00  0.00000000000E+00  0.45593999997E+02  0.45594000000E+02  0.51100000000E-03 0.  1.
         11   -1    0    0    0    0 -0.00000000000E+00 -0.00000000000E+00 -0.45593999997E+02  0.45594000000E+02  0.51100000000E-03 0. -1.
    9900012    2    1    2    0    0  0.21549458881E+02  0.24421270667E+01  0.34392188842E+02  0.50528858149E+02  0.29999994830E+02 0.  0.
         12    1    1    2    0    0 -0.21549458881E+02 -0.24421270667E+01 -0.34392188842E+02  0.40659141851E+02  0.00000000000E+00 0. -1.
         11    1    3    3    0    0  0.12500091138E+02 -0.56819033468E+01  0.46512724886E+01  0.14497263194E+02  0.51100000000E-03 0. -1.
        -11    1    3    3    0    0  0.10850087550E+02  0.90913411129E+00  0.94364007904E+01  0.14408212409E+02  0.51100000000E-03 0.  1.
         12    1    3    3    0    0 -0.18007198071E+01  0.72148963022E+01  0.20304515564E+02  0.21623382546E+02  0.00000000000E+00 0. -1.
</event>
<event>
 7    1  0.5408841E-013  0.5052885E+02  0.7816164E-02  0.1300439E+00
        -11   -1    0    0    0    0  0.00000000000E+00  0.00000000000E+00  0.45593999997E+02  0.45594000000E+02  0.51100000000E-03 0.  1.
         11   -1    0    0    0    0 -0.00000000000E+00 -0.00000000000E+00 -0.45593999997E+02  0.45594000000E+02  0.51100000000E-03 0. -1.
    9900012    2    1    2    0    0 -0.26210412310E+02  0.20832542088E+02  0.23069147976E+02  0.50528854514E+02  0.29999983782E+02 0.  0.
         12    1    1    2    0    0  0.26210412310E+02 -0.20832542088E+02 -0.23069147976E+02  0.40659145486E+02  0.00000000000E+00 0. -1.
         11    1    3    3    0    0 -0.44269644103E+01  0.62869790509E+01  0.20320140259E+01  0.79531880865E+01  0.51100000000E-03 0. -1.
        -11    1    3    3    0    0 -0.32382369675E+01  0.14147824409E+02 -0.19714947589E-01  0.14513700531E+02  0.51100000000E-03 0.  1.
        -12    1    3    3    0    0 -0.18545210932E+02  0.39773862862E+00  0.21056848897E+02  0.28061965897E+02  0.00000000000E+00 0.  1.
</event>
<event>
 7    1  0.5408841E-013  0.5052886E+02  0.7816164E-02  0.1300439E+00
        -11   -1    0    0    0    0  0.00000000000E+00  0.00000000000E+00  0.45593999997E+02  0.45594000000E+02  0.51100000000E-03 0. -1.
         11   -1    0    0    0    0 -0.00000000000E+00 -0.00000000000E+00 -0.45593999997E+02  0.45594000000E+02  0.51100000000E-03 0.  1.
    9900012    2    1    2    0    0 -0.34296050351E+02 -0.16730495413E+02 -0.14036988156E+02  0.50528861016E+02  0.30000003544E+02 0.  0.
         12    1    1    2    0    0  0.34296050351E+02  0.16730495413E+02  0.14036988156E+02  0.40659138984E+02  0.00000000000E+00 0. -1.
         11    1    3    3    0    0 -0.19832998679E+02  0.11344216766E+01 -0.87241627252E+01  0.21696676350E+02  0.51100000000E-03 0. -1.
        -11    1    3    3    0    0 -0.17410399393E+02 -0.10725304150E+02 -0.52327543955E+01  0.21107720743E+02  0.51100000000E-03 0.  1.
        -12    1    3    3    0    0  0.29473477210E+01 -0.71396129400E+01 -0.80071035724E-01  0.77244639226E+01  0.00000000000E+00 0.  1.
</event>
<event>
 7    1  0.5408841E-013  0.5052886E+02  0.7816164E-02  0.1300439E+00
        -11   -1    0    0    0    0  0.00000000000E+00  0.00000000000E+00  0.45593999997E+02  0.45594000000E+02  0.51100000000E-03 0.  1.
         11   -1    0    0    0    0 -0.00000000000E+00 -0.00000000000E+00 -0.45593999997E+02  0.45594000000E+02  0.51100000000E-03 0. -1.
    9900012    2    1    2    0    0 -0.45363099219E+01 -0.14130827297E+02  0.37853759493E+02  0.50528862090E+02  0.30000006809E+02 0.  0.
         12    1    1    2    0    0  0.45363099219E+01  0.14130827297E+02 -0.37853759493E+02  0.40659137910E+02  0.00000000000E+00 0. -1.
         11    1    3    3    0    0  0.78736492977E+00 -0.17050563679E+02  0.10104191476E+02  0.19835230045E+02  0.51100000000E-03 0. -1.
        -11    1    3    3    0    0  0.31756345455E+01 -0.11559705951E+01  0.46797483801E+01  0.57724317186E+01  0.51100000000E-03 0.  1.
         12    1    3    3    0    0 -0.84993093972E+01  0.40757069770E+01  0.23069819637E+02  0.24921200326E+02  0.00000000000E+00 0. -1.
</event>
<event>
 7    1  0.5408841E-013  0.5052886E+02  0.7816164E-02  0.1300439E+00
        -11   -1    0    0    0    0  0.00000000000E+00  0.00000000000E+00  0.45593999997E+02  0.45594000000E+02  0.51100000000E-03 0.  1.
         11   -1    0    0    0    0 -0.00000000000E+00 -0.00000000000E+00 -0.45593999997E+02  0.45594000000E+02  0.51100000000E-03 0. -1.
    9900012    2    1    2    0    0  0.27529862042E+02  0.83155588076E+00  0.29909542239E+02  0.50528861960E+02  0.30000006413E+02 0.  0.
         12    1    1    2    0    0 -0.27529862042E+02 -0.83155588076E+00 -0.29909542239E+02  0.40659138040E+02  0.00000000000E+00 0. -1.
         11    1    3    3    0    0 -0.19288895315E+01 -0.39739854103E+01  0.48780578402E+01  0.65809287657E+01  0.51100000000E-03 0. -1.
        -11    1    3    3    0    0  0.20551162597E+01  0.39355471566E+00  0.13877102544E+02  0.14033971763E+02  0.51100000000E-03 0.  1.
         12    1    3    3    0    0  0.27403635314E+02  0.44119865754E+01  0.11154381855E+02  0.29913961431E+02  0.00000000000E+00 0. -1.
</event>
<event>
 7    1  0.5408841E-013  0.5052886E+02  0.7816164E-02  0.1300439E+00
        -11   -1    0    0    0    0  0.00000000000E+00  0.00000000000E+00  0.45593999997E+02  0.45594000000E+02  0.51100000000E-03 0.  1.
         11   -1    0    0    0    0 -0.00000000000E+00 -0.00000000000E+00 -0.45593999997E+02  0.45594000000E+02  0.51100000000E-03 0. -1.
    9900012    2    1    2    0    0 -0.39821324853E+02 -0.79269558965E+01  0.21426763094E+01  0.50528860749E+02  0.30000002734E+02 0.  0.
         12    1    1    2    0    0  0.39821324853E+02  0.79269558965E+01 -0.21426763094E+01  0.40659139251E+02  0.00000000000E+00 0. -1.
         11    1    3    3    0    0 -0.76195548713E+01 -0.72316581277E+01 -0.32307446103E+01  0.10990550792E+02  0.51100000000E-03 0. -1.
        -11    1    3    3    0    0 -0.29507606217E+02 -0.13059856685E+01  0.12365368805E+02  0.32020411759E+02  0.51100000000E-03 0.  1.
         12    1    3    3    0    0 -0.26941637644E+01  0.61068789977E+00 -0.69919478851E+01  0.75178981989E+01  0.00000000000E+00 0. -1.
</event>
<event>
 7    1  0.5408841E-013  0.5052886E+02  0.7816164E-02  0.1300439E+00
        -11   -1    0    0    0    0  0.00000000000E+00  0.00000000000E+00  0.45593999997E+02  0.45594000000E+02  0.51100000000E-03 0.  1.
         11   -1    0    0    0    0 -0.00000000000E+00 -0.00000000000E+00 -0.45593999997E+02  0.45594000000E+02  0.51100000000E-03 0. -1.
    9900012    2    1    2    0    0 -0.32464274018E+02 -0.23634831669E+02  0.63742640650E+01  0.50528860832E+02  0.30000002985E+02 0.  0.
         12    1    1    2    0    0  0.32464274018E+02  0.23634831669E+02 -0.63742640650E+01  0.40659139168E+02  0.00000000000E+00 0. -1.
         11    1    3    3    0    0 -0.11972623082E+02 -0.78445714382E+01 -0.18267152138E+01  0.14429757214E+02  0.51100000000E-03 0. -1.
        -11    1    3    3    0    0 -0.22362023843E+02 -0.15628000695E+02 -0.41100733335E+00  0.27284857401E+02  0.51100000000E-03 0.  1.
         12    1    3    3    0    0  0.18703729080E+01 -0.16225953533E+00  0.86119866121E+01  0.88142462173E+01  0.00000000000E+00 0. -1.
</event>
<event>
 7    1  0.5408841E-013  0.5052886E+02  0.7816164E-02  0.1300439E+00
        -11   -1    0    0    0    0  0.00000000000E+00  0.00000000000E+00  0.45593999997E+02  0.45594000000E+02  0.51100000000E-03 0. -1.
         11   -1    0    0    0    0 -0.00000000000E+00 -0.00000000000E+00 -0.45593999997E+02  0.45594000000E+02  0.51100000000E-03 0.  1.
    9900012    2    1    2    0    0 -0.35849452056E+02  0.18003693087E+02 -0.66219073989E+01  0.50528857914E+02  0.29999994117E+02 0.  0.
         12    1    1    2    0    0  0.35849452056E+02 -0.18003693087E+02  0.66219073989E+01  0.40659142086E+02  0.00000000000E+00 0. -1.
         11    1    3    3    0    0  0.21195250220E+01 -0.26740796891E+01  0.16447976776E+01  0.37879345511E+01  0.51100000000E-03 0. -1.
        -11    1    3    3    0    0 -0.51955432651E+01  0.65404879570E+01  0.36443707559E+01  0.91133468607E+01  0.51100000000E-03 0.  1.
        -12    1    3    3    0    0 -0.32773433813E+02  0.14137284820E+02 -0.11911075832E+02  0.37627576503E+02  0.00000000000E+00 0.  1.
</event>
<event>
 7    1  0.5408841E-013  0.5052886E+02  0.7816164E-02  0.1300439E+00
        -11   -1    0    0    0    0  0.00000000000E+00  0.00000000000E+00  0.45593999997E+02  0.45594000000E+02  0.51100000000E-03 0.  1.
         11   -1    0    0    0    0 -0.00000000000E+00 -0.00000000000E+00 -0.45593999997E+02  0.45594000000E+02  0.51100000000E-03 0. -1.
    9900012    2    1    2    0    0 -0.23097118488E+02  0.29982728618E+02  0.14856811287E+02  0.50528859091E+02  0.29999997694E+02 0.  0.
         12    1    1    2    0    0  0.23097118488E+02 -0.29982728618E+02 -0.14856811287E+02  0.40659140909E+02  0.00000000000E+00 0. -1.
         11    1    3    3    0    0 -0.61102010116E+01  0.10382735915E+02 -0.39666211605E+01  0.12683447685E+02  0.51100000000E-03 0. -1.
        -11    1    3    3    0    0 -0.18036852801E+02  0.22758871976E+02  0.14706645089E+02  0.32551186193E+02  0.51100000000E-03 0.  1.
         12    1    3    3    0    0  0.10499353239E+01 -0.31588792734E+01  0.41167873587E+01  0.52942252129E+01  0.00000000000E+00 0. -1.
</event>
<event>
 7    1  0.5408841E-013  0.5052895E+02  0.7816164E-02  0.1300438E+00
        -11   -1    0    0    0    0  0.00000000000E+00  0.00000000000E+00  0.45593999997E+02  0.45594000000E+02  0.51100000000E-03 0. -1.
         11   -1    0    0    0    0 -0.00000000000E+00 -0.00000000000E+00 -0.45593999997E+02  0.45594000000E+02  0.51100000000E-03 0.  1.
    9900012    2    1    2    0    0 -0.12355152439E+02  0.38684506611E+02 -0.20044381937E+01  0.50528946690E+02  0.30000263958E+02 0.  0.
         12    1    1    2    0    0  0.12355152439E+02 -0.38684506611E+02  0.20044381937E+01  0.40659053310E+02  0.00000000000E+00 0. -1.
         11    1    3    3    0    0  0.29622838076E+01 -0.68857922815E+00 -0.14474124306E+01  0.33681255492E+01  0.51100000000E-03 0. -1.
        -11    1    3    3    0    0 -0.13648622062E+01  0.10205429962E+02 -0.90747918208E+01  0.13724631011E+02  0.51100000000E-03 0.  1.
         12    1    3    3    0    0 -0.13952574041E+02  0.29167655878E+02  0.85177660576E+01  0.33436190130E+02  0.00000000000E+00 0. -1.
</event>
<event>
 7    1  0.5408841E-013  0.5052883E+02  0.7816164E-02  0.1300439E+00
        -11   -1    0    0    0    0  0.00000000000E+00  0.00000000000E+00  0.45593999997E+02  0.45594000000E+02  0.51100000000E-03 0.  1.
         11   -1    0    0    0    0 -0.00000000000E+00 -0.00000000000E+00 -0.45593999997E+02  0.45594000000E+02  0.51100000000E-03 0. -1.
    9900012    2    1    2    0    0 -0.26373247240E+02 -0.17079059830E+02  0.25805537046E+02  0.50528828871E+02  0.29999905835E+02 0.  0.
         12    1    1    2    0    0  0.26373247240E+02  0.17079059830E+02 -0.25805537046E+02  0.40659171129E+02  0.00000000000E+00 0. -1.
         11    1    3    3    0    0 -0.24554843509E+01  0.22158623848E+01 -0.23980598618E+01  0.40853568838E+01  0.51100000000E-03 0. -1.
        -11    1    3    3    0    0  0.60190332134E+00 -0.28668931951E+01 -0.25025767819E+01  0.38528242901E+01  0.51100000000E-03 0.  1.
        -12    1    3    3    0    0 -0.24519666210E+02 -0.16428029020E+02  0.30706173690E+02  0.42590647697E+02  0.00000000000E+00 0.  1.
</event>
<event>
 7    1  0.5408841E-013  0.5052887E+02  0.7816164E-02  0.1300439E+00
        -11   -1    0    0    0    0  0.00000000000E+00  0.00000000000E+00  0.45593999997E+02  0.45594000000E+02  0.51100000000E-03 0.  1.
         11   -1    0    0    0    0 -0.00000000000E+00 -0.00000000000E+00 -0.45593999997E+02  0.45594000000E+02  0.51100000000E-03 0. -1.
    9900012    2    1    2    0    0 -0.29081116592E+02 -0.28385145600E+02  0.13180538705E+01  0.50528866968E+02  0.30000021635E+02 0.  0.
         12    1    1    2    0    0  0.29081116592E+02  0.28385145600E+02 -0.13180538705E+01  0.40659133032E+02  0.00000000000E+00 0. -1.
         11    1    3    3    0    0  0.82560510265E-01 -0.28696726140E+01 -0.72221485384E+01  0.77718251989E+01  0.51100000000E-03 0. -1.
        -11    1    3    3    0    0 -0.51645356372E+01  0.10332933463E+01 -0.16968585633E+01  0.55334846826E+01  0.51100000000E-03 0.  1.
         12    1    3    3    0    0 -0.23999141465E+02 -0.26548766332E+02  0.10237060972E+02  0.37223557086E+02  0.00000000000E+00 0. -1.
</event>
<event>
 7    1  0.5408841E-013  0.5052885E+02  0.7816164E-02  0.1300439E+00
        -11   -1    0    0    0    0  0.00000000000E+00  0.00000000000E+00  0.45593999997E+02  0.45594000000E+02  0.51100000000E-03 0.  1.
         11   -1    0    0    0    0 -0.00000000000E+00 -0.00000000000E+00 -0.45593999997E+02  0.45594000000E+02  0.51100000000E-03 0. -1.
    9900012    2    1    2    0    0 -0.21949894441E+02 -0.34159223572E+02  0.21250270682E+01  0.50528853907E+02  0.29999981935E+02 0.  0.
         12    1    1    2    0    0  0.21949894441E+02  0.34159223572E+02 -0.21250270682E+01  0.40659146093E+02  0.00000000000E+00 0. -1.
         11    1    3    3    0    0 -0.37467672321E+01 -0.14030546692E+02  0.68494564110E+01  0.16056449126E+02  0.51100000000E-03 0. -1.
        -11    1    3    3    0    0 -0.96902311676E+00 -0.40732498274E+01  0.70038976131E+01  0.81599602936E+01  0.51100000000E-03 0.  1.
         12    1    3    3    0    0 -0.17234104092E+02 -0.16055427052E+02 -0.11728326956E+02  0.26312444487E+02  0.00000000000E+00 0. -1.
</event>
<event>
 7    1  0.5408841E-013  0.5052885E+02  0.7816164E-02  0.1300439E+00
        -11   -1    0    0    0    0  0.00000000000E+00  0.00000000000E+00  0.45593999997E+02  0.45594000000E+02  0.51100000000E-03 0. -1.
         11   -1    0    0    0    0 -0.00000000000E+00 -0.00000000000E+00 -0.45593999997E+02  0.45594000000E+02  0.51100000000E-03 0.  1.
    9900012    2    1    2    0    0  0.10604437281E+02 -0.39103056420E+02  0.34151967905E+01  0.50528847519E+02  0.29999962517E+02 0.  0.
         12    1    1    2    0    0 -0.10604437281E+02  0.39103056420E+02 -0.34151967905E+01  0.40659152481E+02  0.00000000000E+00 0. -1.
         11    1    3    3    0    0  0.74026570774E+01 -0.12047582062E+02 -0.32656427673E+01  0.14512339173E+02  0.51100000000E-03 0. -1.
        -11    1    3    3    0    0 -0.84302118405E+00 -0.20176111354E+02 -0.59710632195E+01  0.21058009173E+02  0.51100000000E-03 0.  1.
         12    1    3    3    0    0  0.40448013875E+01 -0.68793630039E+01  0.12651902777E+02  0.14958499172E+02  0.00000000000E+00 0. -1.
</event>
<event>
 7    1  0.5408841E-013  0.5052886E+02  0.7816164E-02  0.1300439E+00
        -11   -1    0    0    0    0  0.00000000000E+00  0.00000000000E+00  0.45593999997E+02  0.45594000000E+02  0.51100000000E-03 0. -1.
         11   -1    0    0    0    0 -0.00000000000E+00 -0.00000000000E+00 -0.45593999997E+02  0.45594000000E+02  0.51100000000E-03 0.  1.
    9900012    2    1    2    0    0 -0.26400092005E+02 -0.28034930811E+02 -0.13047733924E+02  0.50528861248E+02  0.30000004250E+02 0.  0.
         12    1    1    2    0    0  0.26400092005E+02  0.28034930811E+02  0.13047733924E+02  0.40659138752E+02  0.00000000000E+00 0. -1.
         11    1    3    3    0    0  0.20370078220E+01  0.81729505992E+00 -0.80043004933E+01  0.82997710046E+01  0.51100000000E-03 0. -1.
        -11    1    3    3    0    0 -0.15870813679E+01 -0.15726556325E+01 -0.32068532814E+01  0.39084499788E+01  0.51100000000E-03 0.  1.
        -12    1    3    3    0    0 -0.26850018459E+02 -0.27279570239E+02 -0.18365801498E+01  0.38320640265E+02  0.00000000000E+00 0.  1.
</event>
<event>
 7    1  0.5408841E-013  0.5052886E+02  0.7816164E-02  0.1300439E+00
        -11   -1    0    0    0    0  0.00000000000E+00  0.00000000000E+00  0.45593999997E+02  0.45594000000E+02  0.51100000000E-03 0.  1.
         11   -1    0    0    0    0 -0.00000000000E+00 -0.00000000000E+00 -0.45593999997E+02  0.45594000000E+02  0.51100000000E-03 0. -1.
    9900012    2    1    2    0    0  0.15968659643E+02 -0.11058273136E+02  0.35719497340E+02  0.50528856062E+02  0.29999988487E+02 0.  0.
         12    1    1    2    0    0 -0.15968659643E+02  0.11058273136E+02 -0.35719497340E+02  0.40659143938E+02  0.00000000000E+00 0. -1.
         11    1    3    3    0    0  0.66335691237E+01 -0.53398592875E+01 -0.70287554128E+00  0.85447276619E+01  0.51100000000E-03 0. -1.
        -11    1    3    3    0    0  0.42404274499E+01 -0.75617016933E+00 -0.54246929775E+00  0.43413467361E+01  0.51100000000E-03 0.  1.
        -12    1    3    3    0    0  0.50946630698E+01 -0.49622436788E+01  0.36964842179E+02  0.37642781664E+02  0.00000000000E+00 0.  1.
</event>
<event>
 7    1  0.5408841E-013  0.5052891E+02  0.7816164E-02  0.1300439E+00
        -11   -1    0    0    0    0  0.00000000000E+00  0.00000000000E+00  0.45593999997E+02  0.45594000000E+02  0.51100000000E-03 0. -1.
         11   -1    0    0    0    0 -0.00000000000E+00 -0.00000000000E+00 -0.45593999997E+02  0.45594000000E+02  0.51100000000E-03 0.  1.
    9900012    2    1    2    0    0 -0.18496627996E+02  0.14423796962E+02 -0.33211296298E+02  0.50528912851E+02  0.30000161101E+02 0.  0.
         12    1    1    2    0    0  0.18496627996E+02 -0.14423796962E+02  0.33211296298E+02  0.40659087149E+02  0.00000000000E+00 0. -1.
         11    1    3    3    0    0 -0.92373472508E+01 -0.59549429885E+01 -0.13529781812E+02  0.17431148166E+02  0.51100000000E-03 0. -1.
        -11    1    3    3    0    0 -0.53381577105E+01  0.10528392617E+02 -0.19133068237E+02  0.22481487479E+02  0.51100000000E-03 0.  1.
        -12    1    3    3    0    0 -0.39211230343E+01  0.98503473329E+01 -0.54844624931E+00  0.10616277206E+02  0.00000000000E+00 0.  1.
</event>
<event>
 7    1  0.5408841E-013  0.5052887E+02  0.7816164E-02  0.1300439E+00
        -11   -1    0    0    0    0  0.00000000000E+00  0.00000000000E+00  0.45593999997E+02  0.45594000000E+02  0.51100000000E-03 0.  1.
         11   -1    0    0    0    0 -0.00000000000E+00 -0.00000000000E+00 -0.45593999997E+02  0.45594000000E+02  0.51100000000E-03 0. -1.
    9900012    2    1    2    0    0 -0.25441013323E+01 -0.15518040092E+02  0.37495104304E+02  0.50528869825E+02  0.30000030319E+02 0.  0.
         12    1    1    2    0    0  0.25441013323E+01  0.15518040092E+02 -0.37495104304E+02  0.40659130175E+02  0.00000000000E+00 0. -1.
         11    1    3    3    0    0 -0.33653981768E+01 -0.13312871481E+02  0.16803066268E+02  0.21700264704E+02  0.51100000000E-03 0. -1.
        -11    1    3    3    0    0  0.39163422889E+01 -0.87590064556E+01  0.19149005700E+02  0.21418271419E+02  0.51100000000E-03 0.  1.
         12    1    3    3    0    0 -0.30950454444E+01  0.65538378440E+01  0.15430323360E+01  0.74103337022E+01  0.00000000000E+00 0. -1.
</event>
<event>
 7    1  0.5408841E-013  0.5052886E+02  0.7816164E-02  0.1300439E+00
        -11   -1    0    0    0    0  0.00000000000E+00  0.00000000000E+00  0.45593999997E+02  0.45594000000E+02  0.51100000000E-03 0.  1.
         11   -1    0    0    0    0 -0.00000000000E+00 -0.00000000000E+00 -0.45593999997E+02  0.45594000000E+02  0.51100000000E-03 0. -1.
    9900012    2    1    2    0    0 -0.35052675706E+02  0.10890684094E+02 -0.17489091847E+02  0.50528863169E+02  0.30000010089E+02 0.  0.
         12    1    1    2    0    0  0.35052675706E+02 -0.10890684094E+02  0.17489091847E+02  0.40659136831E+02  0.00000000000E+00 0. -1.
         11    1    3    3    0    0 -0.80439138205E+01  0.85611206759E+01 -0.13972792952E+01  0.11830034931E+02  0.51100000000E-03 0. -1.
        -11    1    3    3    0    0 -0.15786263888E+02  0.63253017171E+01  0.19090473470E+01  0.17113153754E+02  0.51100000000E-03 0.  1.
        -12    1    3    3    0    0 -0.11222497997E+02 -0.39957382993E+01 -0.18000859898E+02  0.21585674484E+02  0.00000000000E+00 0.  1.
</event>
<event>
 7    1  0.5408841E-013  0.5052886E+02  0.7816164E-02  0.1300439E+00
        -11   -1    0    0    0    0  0.00000000000E+00  0.00000000000E+00  0.45593999997E+02  0.45594000000E+02  0.51100000000E-03 0.  1.
         11   -1    0    0    0    0 -0.00000000000E+00 -0.00000000000E+00 -0.45593999997E+02  0.45594000000E+02  0.51100000000E-03 0. -1.
    9900012    2    1    2    0    0  0.16716799330E+02  0.34514216130E+02  0.13508631661E+02  0.50528860508E+02  0.30000001999E+02 0.  0.
         12    1    1    2    0    0 -0.16716799330E+02 -0.34514216130E+02 -0.13508631661E+02  0.40659139492E+02  0.00000000000E+00 0. -1.
         11    1    3    3    0    0 -0.43917624281E+01  0.16321913388E+02  0.69760375810E+01  0.18285445973E+02  0.51100000000E-03 0. -1.
        -11    1    3    3    0    0 -0.15031769667E+00  0.53581102939E+01  0.50535504267E+01  0.73668387730E+01  0.51100000000E-03 0.  1.
         12    1    3    3    0    0  0.21258879455E+02  0.12834192448E+02  0.14790436537E+01  0.24876575761E+02  0.00000000000E+00 0. -1.
</event>
<event>
 7    1  0.5408841E-013  0.5052886E+02  0.7816164E-02  0.1300439E+00
        -11   -1    0    0    0    0  0.00000000000E+00  0.00000000000E+00  0.45593999997E+02  0.45594000000E+02  0.51100000000E-03 0.  1.
         11   -1    0    0    0    0 -0.00000000000E+00 -0.00000000000E+00 -0.45593999997E+02  0.45594000000E+02  0.51100000000E-03 0. -1.
    9900012    2    1    2    0    0  0.21419664902E+02 -0.36532942742E+01  0.34365931366E+02  0.50528857828E+02  0.29999993853E+02 0.  0.
         12    1    1    2    0    0 -0.21419664902E+02  0.36532942742E+01 -0.34365931366E+02  0.40659142172E+02  0.00000000000E+00 0. -1.
         11    1    3    3    0    0 -0.26951015283E+01  0.98934431771E+00  0.54522776490E+01  0.61619563655E+01  0.51100000000E-03 0. -1.
        -11    1    3    3    0    0  0.10516243359E+02 -0.10054802596E+02  0.25467660972E+02  0.29330737892E+02  0.51100000000E-03 0.  1.
        -12    1    3    3    0    0  0.13598523071E+02  0.54121640036E+01  0.34459927445E+01  0.15036163570E+02  0.00000000000E+00 0.  1.
</event>
<event>
 7    1  0.5408841E-013  0.5052887E+02  0.7816164E-02  0.1300439E+00
        -11   -1    0    0    0    0  0.00000000000E+00  0.00000000000E+00  0.45593999997E+02  0.45594000000E+02  0.51100000000E-03 0.  1.
         11   -1    0    0    0    0 -0.00000000000E+00 -0.00000000000E+00 -0.45593999997E+02  0.45594000000E+02  0.51100000000E-03 0. -1.
    9900012    2    1    2    0    0  0.31301899476E+02 -0.24229416548E+02  0.92893139030E+01  0.50528869539E+02  0.30000029451E+02 0.  0.
         12    1    1    2    0    0 -0.31301899476E+02  0.24229416548E+02 -0.92893139030E+01  0.40659130461E+02  0.00000000000E+00 0. -1.
         11    1    3    3    0    0  0.15156342823E+02 -0.84815254622E+01  0.48073214588E+01  0.18021135975E+02  0.51100000000E-03 0.  1.
        -11    1    3    3    0    0  0.14916681883E+02 -0.13269765888E+02  0.12817575688E+02  0.23725183496E+02  0.51100000000E-03 0. -1.
         12    1    3    3    0    0  0.12288747697E+01 -0.24781251975E+01 -0.83355832441E+01  0.87825500690E+01  0.00000000000E+00 0. -1.
</event>
<event>
 7    1  0.5408841E-013  0.5052895E+02  0.7816164E-02  0.1300438E+00
        -11   -1    0    0    0    0  0.00000000000E+00  0.00000000000E+00  0.45593999997E+02  0.45594000000E+02  0.51100000000E-03 0.  1.
         11   -1    0    0    0    0 -0.00000000000E+00 -0.00000000000E+00 -0.45593999997E+02  0.45594000000E+02  0.51100000000E-03 0. -1.
    9900012    2    1    2    0    0  0.34528309679E+02 -0.13624952589E+02  0.16592613178E+02  0.50528950400E+02  0.30000275233E+02 0.  0.
         12    1    1    2    0    0 -0.34528309679E+02  0.13624952589E+02 -0.16592613178E+02  0.40659049600E+02  0.00000000000E+00 0. -1.
         11    1    3    3    0    0  0.35828156308E+01  0.47792686350E+01  0.98734104588E+01  0.11539593185E+02  0.51100000000E-03 0. -1.
        -11    1    3    3    0    0  0.64241968930E+01  0.10987675262E+01  0.37455498091E+01  0.75170964760E+01  0.51100000000E-03 0.  1.
         12    1    3    3    0    0  0.24521297155E+02 -0.19502988750E+02  0.29736529106E+01  0.31472260738E+02  0.00000000000E+00 0. -1.
</event>
<event>
 7    1  0.5408841E-013  0.5052885E+02  0.7816164E-02  0.1300439E+00
        -11   -1    0    0    0    0  0.00000000000E+00  0.00000000000E+00  0.45593999997E+02  0.45594000000E+02  0.51100000000E-03 0. -1.
         11   -1    0    0    0    0 -0.00000000000E+00 -0.00000000000E+00 -0.45593999997E+02  0.45594000000E+02  0.51100000000E-03 0.  1.
    9900012    2    1    2    0    0  0.32970843638E+02  0.23742365058E+02  0.15459138898E+01  0.50528852462E+02  0.29999977544E+02 0.  0.
         12    1    1    2    0    0 -0.32970843638E+02 -0.23742365058E+02 -0.15459138898E+01  0.40659147538E+02  0.00000000000E+00 0. -1.
         11    1    3    3    0    0  0.68260846506E+01 -0.12477246468E+01  0.42764435052E+01  0.81510869070E+01  0.51100000000E-03 0. -1.
        -11    1    3    3    0    0  0.11543936303E+02 -0.43007774139E+00 -0.57569364880E+01  0.12906965182E+02  0.51100000000E-03 0.  1.
         12    1    3    3    0    0  0.14600822685E+02  0.25420167446E+02  0.30264068727E+01  0.29470800373E+02  0.00000000000E+00 0. -1.
</event>
<event>
 7    1  0.5408841E-013  0.5052885E+02  0.7816164E-02  0.1300439E+00
        -11   -1    0    0    0    0  0.00000000000E+00  0.00000000000E+00  0.45593999997E+02  0.45594000000E+02  0.51100000000E-03 0.  1.
         11   -1    0    0    0    0 -0.00000000000E+00 -0.00000000000E+00 -0.45593999997E+02  0.45594000000E+02  0.51100000000E-03 0. -1.
    9900012    2    1    2    0    0  0.11278504692E+02  0.21794146443E+02  0.32418770781E+02  0.50528853598E+02  0.29999980995E+02 0.  0.
         12    1    1    2    0    0 -0.11278504692E+02 -0.21794146443E+02 -0.32418770781E+02  0.40659146402E+02  0.00000000000E+00 0. -1.
         11    1    3    3    0    0 -0.16758439496E+01 -0.14646178450E+01  0.20692640796E+02  0.20811990337E+02  0.51100000000E-03 0. -1.
        -11    1    3    3    0    0  0.16828395202E+00  0.81773018307E+00 -0.66782962546E+00  0.10691112246E+01  0.51100000000E-03 0.  1.
        -12    1    3    3    0    0  0.12786064689E+02  0.22441034105E+02  0.12393959609E+02  0.28647752036E+02  0.00000000000E+00 0.  1.
</event>
<event>
 7    1  0.5408841E-013  0.5052885E+02  0.7816164E-02  0.1300439E+00
        -11   -1    0    0    0    0  0.00000000000E+00  0.00000000000E+00  0.45593999997E+02  0.45594000000E+02  0.51100000000E-03 0. -1.
         11   -1    0    0    0    0 -0.00000000000E+00 -0.00000000000E+00 -0.45593999997E+02  0.45594000000E+02  0.51100000000E-03 0.  1.
    9900012    2    1    2    0    0  0.92662315682E+01 -0.31929026931E+02 -0.23405988907E+02  0.50528854350E+02  0.29999983283E+02 0.  0.
         12    1    1    2    0    0 -0.92662315682E+01  0.31929026931E+02  0.23405988907E+02  0.40659145650E+02  0.00000000000E+00 0. -1.
         11    1    3    3    0    0  0.34924729525E+01 -0.10075484387E+02 -0.40172057179E+01  0.11395204913E+02  0.51100000000E-03 0. -1.
        -11    1    3    3    0    0  0.75971919148E+01 -0.25728835440E+02 -0.21480625228E+02  0.34367245432E+02  0.51100000000E-03 0.  1.
         12    1    3    3    0    0 -0.18234332991E+01  0.38752928968E+01  0.20918420388E+01  0.47664040059E+01  0.00000000000E+00 0. -1.
</event>
<event>
 7    1  0.5408841E-013  0.5052885E+02  0.7816164E-02  0.1300439E+00
        -11   -1    0    0    0    0  0.00000000000E+00  0.00000000000E+00  0.45593999997E+02  0.45594000000E+02  0.51100000000E-03 0. -1.
         11   -1    0    0    0    0 -0.00000000000E+00 -0.00000000000E+00 -0.45593999997E+02  0.45594000000E+02  0.51100000000E-03 0.  1.
    9900012    2    1    2    0    0  0.25846183662E+02 -0.21878371480E+02 -0.22505065270E+02  0.50528852059E+02  0.29999976318E+02 0.  0.
         12    1    1    2    0    0 -0.25846183662E+02  0.21878371480E+02  0.22505065270E+02  0.40659147941E+02  0.00000000000E+00 0. -1.
         11    1    3    3    0    0  0.70643012573E+01  0.90318087741E+00  0.35648565474E+01  0.79641879947E+01  0.51100000000E-03 0. -1.
        -11    1    3    3    0    0 -0.28928448541E+01 -0.28608702037E+01 -0.45201278626E+01  0.60815035828E+01  0.51100000000E-03 0.  1.
        -12    1    3    3    0    0  0.21674727259E+02 -0.19920682154E+02 -0.21549793955E+02  0.36483160481E+02  0.00000000000E+00 0.  1.
</event>
<event>
 7    1  0.5408841E-013  0.5052886E+02  0.7816164E-02  0.1300439E+00
        -11   -1    0    0    0    0  0.00000000000E+00  0.00000000000E+00  0.45593999997E+02  0.45594000000E+02  0.51100000000E-03 0.  1.
         11   -1    0    0    0    0 -0.00000000000E+00 -0.00000000000E+00 -0.45593999997E+02  0.45594000000E+02  0.51100000000E-03 0. -1.
    9900012    2    1    2    0    0  0.14643396025E+02 -0.37736062158E+02 -0.38374482252E+01  0.50528862735E+02  0.30000008768E+02 0.  0.
         12    1    1    2    0    0 -0.14643396025E+02  0.37736062158E+02  0.38374482252E+01  0.40659137265E+02  0.00000000000E+00 0. -1.
         11    1    3    3    0    0  0.99760468602E+00 -0.22084610111E+02 -0.11919578514E+00  0.22107451837E+02  0.51100000000E-03 0. -1.
        -11    1    3    3    0    0  0.34218376380E+01 -0.81312426920E+01 -0.10754290650E+02  0.13909739329E+02  0.51100000000E-03 0.  1.
        -12    1    3    3    0    0  0.10223953701E+02 -0.75202093549E+01  0.70360382105E+01  0.14511671568E+02  0.00000000000E+00 0.  1.
</event>
<event>
 7    1  0.5408841E-013  0.5052887E+02  0.7816164E-02  0.1300439E+00
        -11   -1    0    0    0    0  0.00000000000E+00  0.00000000000E+00  0.45593999997E+02  0.45594000000E+02  0.51100000000E-03 0. -1.
         11   -1    0    0    0    0 -0.00000000000E+00 -0.00000000000E+00 -0.45593999997E+02  0.45594000000E+02  0.51100000000E-03 0.  1.
    9900012    2    1    2    0    0  0.26842208114E+02  0.29006070181E+02 -0.95555439080E+01  0.50528872327E+02  0.30000037925E+02 0.  0.
         12    1    1    2    0    0 -0.26842208114E+02 -0.29006070181E+02  0.95555439080E+01  0.40659127673E+02  0.00000000000E+00 0. -1.
         11    1    3    3    0    0  0.12229323315E+02  0.26803691233E+01 -0.61880267171E+01  0.13965400183E+02  0.51100000000E-03 0. -1.
        -11    1    3    3    0    0  0.14527272270E+02  0.54340209826E+01 -0.17599982508E+01  0.15609862836E+02  0.51100000000E-03 0.  1.
        -12    1    3    3    0    0  0.85612528854E-01  0.20891680075E+02 -0.16075189401E+01  0.20953609307E+02  0.00000000000E+00 0.  1.
</event>
<event>
 7    1  0.5408841E-013  0.5052888E+02  0.7816164E-02  0.1300439E+00
        -11   -1    0    0    0    0  0.00000000000E+00  0.00000000000E+00  0.45593999997E+02  0.45594000000E+02  0.51100000000E-03 0. -1.
         11   -1    0    0    0    0 -0.00000000000E+00 -0.00000000000E+00 -0.45593999997E+02  0.45594000000E+02  0.51100000000E-03 0.  1.
    9900012    2    1    2    0    0  0.37999738003E+02  0.14018709057E+02  0.35580750359E+01  0.50528878147E+02  0.30000055615E+02 0.  0.
         12    1    1    2    0    0 -0.37999738003E+02 -0.14018709057E+02 -0.35580750359E+01  0.40659121853E+02  0.00000000000E+00 0. -1.
         11    1    3    3    0    0  0.61140418481E+01  0.21931833111E+01  0.80200322127E+01  0.10320488250E+02  0.51100000000E-03 0. -1.
        -11    1    3    3    0    0  0.38979114987E+01  0.96073897296E+01 -0.61977666070E+01  0.12079236840E+02  0.51100000000E-03 0.  1.
         12    1    3    3    0    0  0.27987784656E+02  0.22181360165E+01  0.17358094302E+01  0.28129153057E+02  0.00000000000E+00 0. -1.
</event>
<event>
 7    1  0.5408841E-013  0.5052886E+02  0.7816164E-02  0.1300439E+00
        -11   -1    0    0    0    0  0.00000000000E+00  0.00000000000E+00  0.45593999997E+02  0.45594000000E+02  0.51100000000E-03 0.  1.
         11   -1    0    0    0    0 -0.00000000000E+00 -0.00000000000E+00 -0.45593999997E+02  0.45594000000E+02  0.51100000000E-03 0. -1.
    9900012    2    1    2    0    0  0.26869713578E+02  0.22496626574E+02  0.20617612957E+02  0.50528859834E+02  0.29999999952E+02 0.  0.
         12    1    1    2    0    0 -0.26869713578E+02 -0.22496626574E+02 -0.20617612957E+02  0.40659140166E+02  0.00000000000E+00 0. -1.
         11    1    3    3    0    0 -0.75809809336E+00 -0.12825482914E+00 -0.64734029353E+00  0.10050928997E+01  0.51100000000E-03 0. -1.
        -11    1    3    3    0    0 -0.58343008552E+00  0.13478969021E+02  0.84728381989E+00  0.13518168762E+02  0.51100000000E-03 0.  1.
        -12    1    3    3    0    0  0.28211241757E+02  0.91459123815E+01  0.20417669431E+02  0.36005598172E+02  0.00000000000E+00 0.  1.
</event>
<event>
 7    1  0.5408841E-013  0.5052887E+02  0.7816164E-02  0.1300439E+00
        -11   -1    0    0    0    0  0.00000000000E+00  0.00000000000E+00  0.45593999997E+02  0.45594000000E+02  0.51100000000E-03 0.  1.
         11   -1    0    0    0    0 -0.00000000000E+00 -0.00000000000E+00 -0.45593999997E+02  0.45594000000E+02  0.51100000000E-03 0. -1.
    9900012    2    1    2    0    0  0.44944537831E+01  0.40115520912E+02 -0.48692827911E+01  0.50528867597E+02  0.30000023548E+02 0.  0.
         12    1    1    2    0    0 -0.44944537831E+01 -0.40115520912E+02  0.48692827911E+01  0.40659132403E+02  0.00000000000E+00 0. -1.
         11    1    3    3    0    0 -0.34702982718E+00 -0.41034547693E+00  0.37078435866E+01  0.37465874386E+01  0.51100000000E-03 0.  1.
        -11    1    3    3    0    0  0.33391078558E+01  0.40627095460E+01 -0.88414824437E+01  0.10287228110E+02  0.51100000000E-03 0. -1.
        -12    1    3    3    0    0  0.15023757545E+01  0.36463156843E+02  0.26435606604E+00  0.36495052048E+02  0.00000000000E+00 0.  1.
</event>
<event>
 7    1  0.5408841E-013  0.5052887E+02  0.7816164E-02  0.1300439E+00
        -11   -1    0    0    0    0  0.00000000000E+00  0.00000000000E+00  0.45593999997E+02  0.45594000000E+02  0.51100000000E-03 0.  1.
         11   -1    0    0    0    0 -0.00000000000E+00 -0.00000000000E+00 -0.45593999997E+02  0.45594000000E+02  0.51100000000E-03 0. -1.
    9900012    2    1    2    0    0  0.11336188298E+02 -0.11740938338E+02  0.37239849596E+02  0.50528865772E+02  0.30000018001E+02 0.  0.
         12    1    1    2    0    0 -0.11336188298E+02  0.11740938338E+02 -0.37239849596E+02  0.40659134228E+02  0.00000000000E+00 0. -1.
         11    1    3    3    0    0  0.94453362275E+01 -0.95176898789E+01  0.19561503900E+02  0.23716096478E+02  0.51100000000E-03 0. -1.
        -11    1    3    3    0    0  0.12986263232E+01  0.86522004033E+01  0.49194687877E+01  0.10037339068E+02  0.51100000000E-03 0.  1.
         12    1    3    3    0    0  0.59222574782E+00 -0.10875448863E+02  0.12758876908E+02  0.16775430226E+02  0.00000000000E+00 0. -1.
</event>
<event>
 7    1  0.5408841E-013  0.5052886E+02  0.7816164E-02  0.1300439E+00
        -11   -1    0    0    0    0  0.00000000000E+00  0.00000000000E+00  0.45593999997E+02  0.45594000000E+02  0.51100000000E-03 0.  1.
         11   -1    0    0    0    0 -0.00000000000E+00 -0.00000000000E+00 -0.45593999997E+02  0.45594000000E+02  0.51100000000E-03 0. -1.
    9900012    2    1    2    0    0  0.17676978280E+02  0.23181237864E+02  0.28342907834E+02  0.50528858660E+02  0.29999996383E+02 0.  0.
         12    1    1    2    0    0 -0.17676978280E+02 -0.23181237864E+02 -0.28342907834E+02  0.40659141340E+02  0.00000000000E+00 0. -1.
         11    1    3    3    0    0  0.58247437000E+01  0.16765467404E+02  0.17505540082E+02  0.24928948439E+02  0.51100000000E-03 0. -1.
        -11    1    3    3    0    0  0.67868624241E+01  0.99427625155E+01  0.14163609911E+02  0.18588380079E+02  0.51100000000E-03 0.  1.
        -12    1    3    3    0    0  0.50653721557E+01 -0.35269920554E+01 -0.33262421585E+01  0.70115301420E+01  0.00000000000E+00 0.  1.
</event>
<event>
 7    1  0.5408841E-013  0.5052886E+02  0.7816164E-02  0.1300439E+00
        -11   -1    0    0    0    0  0.00000000000E+00  0.00000000000E+00  0.45593999997E+02  0.45594000000E+02  0.51100000000E-03 0.  1.
         11   -1    0    0    0    0 -0.00000000000E+00 -0.00000000000E+00 -0.45593999997E+02  0.45594000000E+02  0.51100000000E-03 0. -1.
    9900012    2    1    2    0    0  0.27972290009E+02  0.15778115128E+02  0.24935275388E+02  0.50528857313E+02  0.29999992290E+02 0.  0.
         12    1    1    2    0    0 -0.27972290009E+02 -0.15778115128E+02 -0.24935275388E+02  0.40659142687E+02  0.00000000000E+00 0. -1.
         11    1    3    3    0    0  0.24788905847E+02  0.16445347319E+02  0.20360646164E+02  0.36048511953E+02  0.51100000000E-03 0. -1.
        -11    1    3    3    0    0  0.65004029465E+01 -0.49682546637E+01  0.36980316250E+01  0.89785428122E+01  0.51100000000E-03 0.  1.
         12    1    3    3    0    0 -0.33170187849E+01  0.43010224730E+01  0.87659759954E+00  0.55018025486E+01  0.00000000000E+00 0. -1.
</event>
<event>
 7    1  0.5408841E-013  0.5052883E+02  0.7816164E-02  0.1300439E+00
        -11   -1    0    0    0    0  0.00000000000E+00  0.00000000000E+00  0.45593999997E+02  0.45594000000E+02  0.51100000000E-03 0.  1.
         11   -1    0    0    0    0 -0.00000000000E+00 -0.00000000000E+00 -0.45593999997E+02  0.45594000000E+02  0.51100000000E-03 0. -1.
    9900012    2    1    2    0    0 -0.25110737913E+02 -0.37830572365E+01  0.31753860414E+02  0.50528827212E+02  0.29999900794E+02 0.  0.
         12    1    1    2    0    0  0.25110737913E+02  0.37830572365E+01 -0.31753860414E+02  0.40659172788E+02  0.00000000000E+00 0. -1.
         11    1    3    3    0    0 -0.11907380157E+02 -0.24562878975E+01  0.45687876355E+01  0.12988182057E+02  0.51100000000E-03 0. -1.
        -11    1    3    3    0    0 -0.12000530900E+02 -0.10881954221E+02  0.15805030726E+02  0.22632469287E+02  0.51100000000E-03 0.  1.
        -12    1    3    3    0    0 -0.12028268562E+01  0.95551848818E+01  0.11380042053E+02  0.14908175868E+02  0.00000000000E+00 0.  1.
</event>
<event>
 7    1  0.5408841E-013  0.5052887E+02  0.7816164E-02  0.1300439E+00
        -11   -1    0    0    0    0  0.00000000000E+00  0.00000000000E+00  0.45593999997E+02  0.45594000000E+02  0.51100000000E-03 0.  1.
         11   -1    0    0    0    0 -0.00000000000E+00 -0.00000000000E+00 -0.45593999997E+02  0.45594000000E+02  0.51100000000E-03 0. -1.
    9900012    2    1    2    0    0 -0.38123641019E+02  0.67135278043E+01 -0.12437108594E+02  0.50528866582E+02  0.30000020464E+02 0.  0.
         12    1    1    2    0    0  0.38123641019E+02 -0.67135278043E+01  0.12437108594E+02  0.40659133418E+02  0.00000000000E+00 0. -1.
         11    1    3    3    0    0 -0.69173663167E+01 -0.28602726470E+01 -0.96500091934E+01  0.12212853641E+02  0.51100000000E-03 0. -1.
        -11    1    3    3    0    0 -0.28449250345E+01 -0.53942560607E+01  0.25066964294E+00  0.61036409159E+01  0.51100000000E-03 0.  1.
        -12    1    3    3    0    0 -0.28361349668E+02  0.14968056512E+02 -0.30377690434E+01  0.32212372025E+02  0.00000000000E+00 0.  1.
</event>
<event>
 7    1  0.5408841E-013  0.5052886E+02  0.7816164E-02  0.1300439E+00
        -11   -1    0    0    0    0  0.00000000000E+00  0.00000000000E+00  0.45593999997E+02  0.45594000000E+02  0.51100000000E-03 0.  1.
         11   -1    0    0    0    0 -0.00000000000E+00 -0.00000000000E+00 -0.45593999997E+02  0.45594000000E+02  0.51100000000E-03 0. -1.
    9900012    2    1    2    0    0  0.84268245539E+01  0.34601069578E+01  0.39625522339E+02  0.50528859172E+02  0.29999997938E+02 0.  0.
         12    1    1    2    0    0 -0.84268245539E+01 -0.34601069578E+01 -0.39625522339E+02  0.40659140828E+02  0.00000000000E+00 0. -1.
         11    1    3    3    0    0 -0.59891553060E-01 -0.16610594323E+01  0.12184136151E+02  0.12296986600E+02  0.51100000000E-03 0. -1.
        -11    1    3    3    0    0  0.11740962652E+02 -0.63109505708E+01  0.20543591794E+02  0.24489129531E+02  0.51100000000E-03 0.  1.
         12    1    3    3    0    0 -0.32542465448E+01  0.11432116961E+02  0.68977943939E+01  0.13742743041E+02  0.00000000000E+00 0. -1.
</event>
<event>
 7    1  0.5408841E-013  0.5052886E+02  0.7816164E-02  0.1300439E+00
        -11   -1    0    0    0    0  0.00000000000E+00  0.00000000000E+00  0.45593999997E+02  0.45594000000E+02  0.51100000000E-03 0. -1.
         11   -1    0    0    0    0 -0.00000000000E+00 -0.00000000000E+00 -0.45593999997E+02  0.45594000000E+02  0.51100000000E-03 0.  1.
    9900012    2    1    2    0    0  0.90114008199E+01 -0.32137959256E+02 -0.23218783097E+02  0.50528860088E+02  0.30000000723E+02 0.  0.
         12    1    1    2    0    0 -0.90114008199E+01  0.32137959256E+02  0.23218783097E+02  0.40659139912E+02  0.00000000000E+00 0. -1.
         11    1    3    3    0    0  0.72828616005E+01 -0.15789780569E+02 -0.15164648064E+02  0.23072143261E+02  0.51100000000E-03 0. -1.
        -11    1    3    3    0    0  0.35485443825E+01 -0.64252704789E+01 -0.13956166890E+02  0.15768667112E+02  0.51100000000E-03 0.  1.
         12    1    3    3    0    0 -0.18200051631E+01 -0.99229082083E+01  0.59020318565E+01  0.11688049715E+02  0.00000000000E+00 0. -1.
</event>
<event>
 7    1  0.5408841E-013  0.5052886E+02  0.7816164E-02  0.1300439E+00
        -11   -1    0    0    0    0  0.00000000000E+00  0.00000000000E+00  0.45593999997E+02  0.45594000000E+02  0.51100000000E-03 0.  1.
         11   -1    0    0    0    0 -0.00000000000E+00 -0.00000000000E+00 -0.45593999997E+02  0.45594000000E+02  0.51100000000E-03 0. -1.
    9900012    2    1    2    0    0 -0.24563212092E+02  0.61450036598E+01  0.31812785520E+02  0.50528858583E+02  0.29999996148E+02 0.  0.
         12    1    1    2    0    0  0.24563212092E+02 -0.61450036598E+01 -0.31812785520E+02  0.40659141417E+02  0.00000000000E+00 0. -1.
         11    1    3    3    0    0  0.17911288601E+00  0.35147320919E+01  0.65566452715E+00  0.35798490662E+01  0.51100000000E-03 0. -1.
        -11    1    3    3    0    0 -0.11773671428E+02  0.13621105844E+02  0.17933206290E+02  0.25411685332E+02  0.51100000000E-03 0.  1.
         12    1    3    3    0    0 -0.12968653549E+02 -0.10990834276E+02  0.13223914703E+02  0.21537324185E+02  0.00000000000E+00 0. -1.
</event>
<event>
 7    1  0.5408841E-013  0.5052894E+02  0.7816164E-02  0.1300439E+00
        -11   -1    0    0    0    0  0.00000000000E+00  0.00000000000E+00  0.45593999997E+02  0.45594000000E+02  0.51100000000E-03 0.  1.
         11   -1    0    0    0    0 -0.00000000000E+00 -0.00000000000E+00 -0.45593999997E+02  0.45594000000E+02  0.51100000000E-03 0. -1.
    9900012    2    1    2    0    0  0.15938010122E+02 -0.27452678956E+02  0.25406481653E+02  0.50528941250E+02  0.30000247422E+02 0.  0.
         12    1    1    2    0    0 -0.15938010122E+02  0.27452678956E+02 -0.25406481653E+02  0.40659058750E+02  0.00000000000E+00 0. -1.
         11    1    3    3    0    0  0.32621631340E+01 -0.12826044906E+01 -0.16688744183E+01  0.38822576778E+01  0.51100000000E-03 0. -1.
        -11    1    3    3    0    0  0.12888130615E+02 -0.18912331656E+01  0.54061090499E+01  0.14103428270E+02  0.51100000000E-03 0.  1.
        -12    1    3    3    0    0 -0.21228362762E+00 -0.24278841300E+02  0.21669247021E+02  0.32543255302E+02  0.00000000000E+00 0.  1.
</event>
<event>
 7    1  0.5408841E-013  0.5052886E+02  0.7816164E-02  0.1300439E+00
        -11   -1    0    0    0    0  0.00000000000E+00  0.00000000000E+00  0.45593999997E+02  0.45594000000E+02  0.51100000000E-03 0.  1.
         11   -1    0    0    0    0 -0.00000000000E+00 -0.00000000000E+00 -0.45593999997E+02  0.45594000000E+02  0.51100000000E-03 0. -1.
    9900012    2    1    2    0    0  0.12810270309E+02  0.17284152545E+02  0.34501024083E+02  0.50528860592E+02  0.30000002256E+02 0.  0.
         12    1    1    2    0    0 -0.12810270309E+02 -0.17284152545E+02 -0.34501024083E+02  0.40659139408E+02  0.00000000000E+00 0. -1.
         11    1    3    3    0    0  0.12160350508E+02  0.14016169499E+02  0.12062098992E+02  0.22131908283E+02  0.51100000000E-03 0.  1.
        -11    1    3    3    0    0 -0.33107369113E+01  0.88477076985E+01  0.78486767547E+01  0.12281882489E+02  0.51100000000E-03 0. -1.
         12    1    3    3    0    0  0.39606567125E+01 -0.55797246522E+01  0.14590248337E+02  0.16115069820E+02  0.00000000000E+00 0. -1.
</event>
<event>
 7    1  0.5408841E-013  0.5052890E+02  0.7816164E-02  0.1300439E+00
        -11   -1    0    0    0    0  0.00000000000E+00  0.00000000000E+00  0.45593999997E+02  0.45594000000E+02  0.51100000000E-03 0.  1.
         11   -1    0    0    0    0 -0.00000000000E+00 -0.00000000000E+00 -0.45593999997E+02  0.45594000000E+02  0.51100000000E-03 0. -1.
    9900012    2    1    2    0    0  0.27262216624E+01 -0.18827559508E+02  0.35934006737E+02  0.50528903580E+02  0.30000132921E+02 0.  0.
         12    1    1    2    0    0 -0.27262216624E+01  0.18827559508E+02 -0.35934006737E+02  0.40659096420E+02  0.00000000000E+00 0. -1.
         11    1    3    3    0    0  0.71192389217E+01 -0.82536463856E+01  0.23580110728E+00  0.10902377901E+02  0.51100000000E-03 0. -1.
        -11    1    3    3    0    0  0.29485958506E+01 -0.30792828135E-03  0.20256038508E+01  0.35773298431E+01  0.51100000000E-03 0.  1.
        -12    1    3    3    0    0 -0.73416131098E+01 -0.10573605194E+02  0.33672601778E+02  0.36049195835E+02  0.00000000000E+00 0.  1.
</event>
<event>
 7    1  0.5408841E-013  0.5052886E+02  0.7816164E-02  0.1300439E+00
        -11   -1    0    0    0    0  0.00000000000E+00  0.00000000000E+00  0.45593999997E+02  0.45594000000E+02  0.51100000000E-03 0. -1.
         11   -1    0    0    0    0 -0.00000000000E+00 -0.00000000000E+00 -0.45593999997E+02  0.45594000000E+02  0.51100000000E-03 0.  1.
    9900012    2    1    2    0    0 -0.20874349434E+02 -0.34754136190E+02 -0.30947474614E+01  0.50528857013E+02  0.29999991376E+02 0.  0.
         12    1    1    2    0    0  0.20874349434E+02  0.34754136190E+02  0.30947474614E+01  0.40659142987E+02  0.00000000000E+00 0. -1.
         11    1    3    3    0    0  0.10466805165E+01  0.17910091333E+01 -0.17986534296E+01  0.27456161859E+01  0.51100000000E-03 0. -1.
        -11    1    3    3    0    0 -0.23766346865E+02 -0.21986231586E+02  0.29374157851E+01  0.32509414551E+02  0.51100000000E-03 0.  1.
         12    1    3    3    0    0  0.18453169155E+01 -0.14558913737E+02 -0.42335098168E+01  0.15273826276E+02  0.00000000000E+00 0. -1.
</event>
<event>
 7    1  0.5408841E-013  0.5052887E+02  0.7816164E-02  0.1300439E+00
        -11   -1    0    0    0    0  0.00000000000E+00  0.00000000000E+00  0.45593999997E+02  0.45594000000E+02  0.51100000000E-03 0. -1.
         11   -1    0    0    0    0 -0.00000000000E+00 -0.00000000000E+00 -0.45593999997E+02  0.45594000000E+02  0.51100000000E-03 0.  1.
    9900012    2    1    2    0    0  0.37631894230E+02  0.10168245248E+02  0.11559075322E+02  0.50528869450E+02  0.30000029181E+02 0.  0.
         12    1    1    2    0    0 -0.37631894230E+02 -0.10168245248E+02 -0.11559075322E+02  0.40659130550E+02  0.00000000000E+00 0. -1.
         11    1    3    3    0    0  0.46799018582E+01  0.87279258606E+01  0.79499581651E+01  0.12699606542E+02  0.51100000000E-03 0. -1.
        -11    1    3    3    0    0  0.21072621966E+01 -0.26482557865E+01  0.57167636216E+01  0.66434327905E+01  0.51100000000E-03 0.  1.
        -12    1    3    3    0    0  0.30844730175E+02  0.40885751736E+01 -0.21076464649E+01  0.31185830118E+02  0.00000000000E+00 0.  1.
</event>
<event>
 7    1  0.5408841E-013  0.5052886E+02  0.7816164E-02  0.1300439E+00
        -11   -1    0    0    0    0  0.00000000000E+00  0.00000000000E+00  0.45593999997E+02  0.45594000000E+02  0.51100000000E-03 0.  1.
         11   -1    0    0    0    0 -0.00000000000E+00 -0.00000000000E+00 -0.45593999997E+02  0.45594000000E+02  0.51100000000E-03 0. -1.
    9900012    2    1    2    0    0  0.16505631034E+02 -0.36046472682E+02  0.90211784733E+01  0.50528859457E+02  0.29999998806E+02 0.  0.
         12    1    1    2    0    0 -0.16505631034E+02  0.36046472682E+02 -0.90211784733E+01  0.40659140543E+02  0.00000000000E+00 0. -1.
         11    1    3    3    0    0  0.61960205273E+01  0.55460616111E+00  0.65071429348E+01  0.90022868097E+01  0.51100000000E-03 0. -1.
        -11    1    3    3    0    0 -0.44322990088E+01 -0.11564094249E+02  0.30748697352E+00  0.12388224199E+02  0.51100000000E-03 0.  1.
         12    1    3    3    0    0  0.14741909516E+02 -0.25036984594E+02  0.22065485650E+01  0.29138348448E+02  0.00000000000E+00 0. -1.
</event>
<event>
 7    1  0.5408841E-013  0.5052887E+02  0.7816164E-02  0.1300439E+00
        -11   -1    0    0    0    0  0.00000000000E+00  0.00000000000E+00  0.45593999997E+02  0.45594000000E+02  0.51100000000E-03 0. -1.
         11   -1    0    0    0    0 -0.00000000000E+00 -0.00000000000E+00 -0.45593999997E+02  0.45594000000E+02  0.51100000000E-03 0.  1.
    9900012    2    1    2    0    0  0.25757538200E+02 -0.30880508375E+02  0.60090159964E+01  0.50528870092E+02  0.30000031131E+02 0.  0.
         12    1    1    2    0    0 -0.25757538200E+02  0.30880508375E+02 -0.60090159964E+01  0.40659129908E+02  0.00000000000E+00 0. -1.
         11    1    3    3    0    0  0.11321378766E+02 -0.73768057255E+01  0.33557610069E+01  0.13923074807E+02  0.51100000000E-03 0. -1.
        -11    1    3    3    0    0  0.18410875774E+02 -0.10203501204E+02 -0.36447362558E+01  0.21362487828E+02  0.51100000000E-03 0.  1.
         12    1    3    3    0    0 -0.39747163400E+01 -0.13300201446E+02  0.62979912454E+01  0.15243307457E+02  0.00000000000E+00 0. -1.
</event>
<event>
 7    1  0.5408841E-013  0.5052888E+02  0.7816164E-02  0.1300439E+00
        -11   -1    0    0    0    0  0.00000000000E+00  0.00000000000E+00  0.45593999997E+02  0.45594000000E+02  0.51100000000E-03 0. -1.
         11   -1    0    0    0    0 -0.00000000000E+00 -0.00000000000E+00 -0.45593999997E+02  0.45594000000E+02  0.51100000000E-03 0.  1.
    9900012    2    1    2    0    0 -0.14917571802E+02  0.22603090742E+02 -0.30327058425E+02  0.50528878855E+02  0.30000057768E+02 0.  0.
         12    1    1    2    0    0  0.14917571802E+02 -0.22603090742E+02  0.30327058425E+02  0.40659121145E+02  0.00000000000E+00 0. -1.
         11    1    3    3    0    0 -0.29792848737E+01  0.16024241256E+02 -0.61423966464E+01  0.17417849552E+02  0.51100000000E-03 0. -1.
        -11    1    3    3    0    0 -0.95327925939E+01  0.11750816318E+02 -0.10884769338E+02  0.18639582147E+02  0.51100000000E-03 0.  1.
         12    1    3    3    0    0 -0.24054943349E+01 -0.51719668318E+01 -0.13299892440E+02  0.14471447157E+02  0.00000000000E+00 0. -1.
</event>
<event>
 7    1  0.5408841E-013  0.5052882E+02  0.7816164E-02  0.1300439E+00
        -11   -1    0    0    0    0  0.00000000000E+00  0.00000000000E+00  0.45593999997E+02  0.45594000000E+02  0.51100000000E-03 0.  1.
         11   -1    0    0    0    0 -0.00000000000E+00 -0.00000000000E+00 -0.45593999997E+02  0.45594000000E+02  0.51100000000E-03 0. -1.
    9900012    2    1    2    0    0  0.31085218026E+02  0.41681330317E+01  0.25874783251E+02  0.50528824885E+02  0.29999893721E+02 0.  0.
         12    1    1    2    0    0 -0.31085218026E+02 -0.41681330317E+01 -0.25874783251E+02  0.40659175115E+02  0.00000000000E+00 0. -1.
         11    1    3    3    0    0  0.12331963998E+02  0.65743452729E+01  0.69118960211E+01  0.15590819692E+02  0.51100000000E-03 0. -1.
        -11    1    3    3    0    0  0.23001793862E+02 -0.27603755117E+00  0.10620515471E+02  0.25336812481E+02  0.51100000000E-03 0.  1.
         12    1    3    3    0    0 -0.42485398329E+01 -0.21301746900E+01  0.83423717593E+01  0.96011927119E+01  0.00000000000E+00 0. -1.
</event>
<event>
 7    1  0.5408841E-013  0.5052886E+02  0.7816164E-02  0.1300439E+00
        -11   -1    0    0    0    0  0.00000000000E+00  0.00000000000E+00  0.45593999997E+02  0.45594000000E+02  0.51100000000E-03 0.  1.
         11   -1    0    0    0    0 -0.00000000000E+00 -0.00000000000E+00 -0.45593999997E+02  0.45594000000E+02  0.51100000000E-03 0. -1.
    9900012    2    1    2    0    0  0.20031875071E+02 -0.12646728155E+02  0.33044669543E+02  0.50528856661E+02  0.29999990306E+02 0.  0.
         12    1    1    2    0    0 -0.20031875071E+02  0.12646728155E+02 -0.33044669543E+02  0.40659143339E+02  0.00000000000E+00 0. -1.
         11    1    3    3    0    0 -0.79558033027E+00  0.32563617967E+01  0.18396662543E+01  0.38237693970E+01  0.51100000000E-03 0. -1.
        -11    1    3    3    0    0  0.59637145445E+01 -0.13692513545E+02  0.37371847704E+01  0.15395368414E+02  0.51100000000E-03 0.  1.
        -12    1    3    3    0    0  0.14863740857E+02 -0.22105764075E+01  0.27467818518E+02  0.31309718850E+02  0.00000000000E+00 0.  1.
</event>
<event>
 7    1  0.5408841E-013  0.5052886E+02  0.7816164E-02  0.1300439E+00
        -11   -1    0    0    0    0  0.00000000000E+00  0.00000000000E+00  0.45593999997E+02  0.45594000000E+02  0.51100000000E-03 0.  1.
         11   -1    0    0    0    0 -0.00000000000E+00 -0.00000000000E+00 -0.45593999997E+02  0.45594000000E+02  0.51100000000E-03 0. -1.
    9900012    2    1    2    0    0 -0.18954307761E+02 -0.18062463384E+02  0.31107034605E+02  0.50528856279E+02  0.29999989146E+02 0.  0.
         12    1    1    2    0    0  0.18954307761E+02  0.18062463384E+02 -0.31107034605E+02  0.40659143721E+02  0.00000000000E+00 0. -1.
         11    1    3    3    0    0 -0.12163616086E+02 -0.38365110693E+01  0.25650989110E+02  0.28646912854E+02  0.51100000000E-03 0. -1.
        -11    1    3    3    0    0 -0.21523875645E+01 -0.30669063696E+00  0.68092715119E+01  0.71479374758E+01  0.51100000000E-03 0.  1.
         12    1    3    3    0    0 -0.46383041112E+01 -0.13919261677E+02 -0.13532260169E+01  0.14734005950E+02  0.00000000000E+00 0. -1.
</event>
<event>
 7    1  0.5408841E-013  0.5052886E+02  0.7816164E-02  0.1300439E+00
        -11   -1    0    0    0    0  0.00000000000E+00  0.00000000000E+00  0.45593999997E+02  0.45594000000E+02  0.51100000000E-03 0.  1.
         11   -1    0    0    0    0 -0.00000000000E+00 -0.00000000000E+00 -0.45593999997E+02  0.45594000000E+02  0.51100000000E-03 0. -1.
    9900012    2    1    2    0    0 -0.27696535467E+02 -0.21094564034E+02  0.21002075222E+02  0.50528857458E+02  0.29999992728E+02 0.  0.
         12    1    1    2    0    0  0.27696535467E+02  0.21094564034E+02 -0.21002075222E+02  0.40659142542E+02  0.00000000000E+00 0. -1.
         11    1    3    3    0    0 -0.78981134260E+01 -0.59331858568E+00  0.74686962966E+00  0.79555035755E+01  0.51100000000E-03 0. -1.
        -11    1    3    3    0    0 -0.18468151799E+02 -0.25724830807E+02  0.14982685952E+02  0.35033133310E+02  0.51100000000E-03 0.  1.
         12    1    3    3    0    0 -0.13302702418E+01  0.52235853587E+01  0.52725196406E+01  0.75402205721E+01  0.00000000000E+00 0. -1.
</event>
<event>
 7    1  0.5408841E-013  0.5052885E+02  0.7816164E-02  0.1300439E+00
        -11   -1    0    0    0    0  0.00000000000E+00  0.00000000000E+00  0.45593999997E+02  0.45594000000E+02  0.51100000000E-03 0.  1.
         11   -1    0    0    0    0 -0.00000000000E+00 -0.00000000000E+00 -0.45593999997E+02  0.45594000000E+02  0.51100000000E-03 0. -1.
    9900012    2    1    2    0    0  0.14572767318E+02 -0.25522283805E+02  0.28096512312E+02  0.50528849468E+02  0.29999968442E+02 0.  0.
         12    1    1    2    0    0 -0.14572767318E+02  0.25522283805E+02 -0.28096512312E+02  0.40659150532E+02  0.00000000000E+00 0. -1.
         11    1    3    3    0    0  0.31825845189E+01 -0.24548350960E+01  0.91220467151E+01  0.99682895274E+01  0.51100000000E-03 0. -1.
        -11    1    3    3    0    0  0.55442229191E+01 -0.18689795111E+02  0.24566814030E+02  0.31362002502E+02  0.51100000000E-03 0.  1.
        -12    1    3    3    0    0  0.58459598802E+01 -0.43776535976E+01 -0.55923484336E+01  0.91985574382E+01  0.00000000000E+00 0.  1.
</event>
<event>
 7    1  0.5408841E-013  0.5052886E+02  0.7816164E-02  0.1300439E+00
        -11   -1    0    0    0    0  0.00000000000E+00  0.00000000000E+00  0.45593999997E+02  0.45594000000E+02  0.51100000000E-03 0.  1.
         11   -1    0    0    0    0 -0.00000000000E+00 -0.00000000000E+00 -0.45593999997E+02  0.45594000000E+02  0.51100000000E-03 0. -1.
    9900012    2    1    2    0    0  0.19457737159E+01  0.10625442975E+02  0.39197958046E+02  0.50528856026E+02  0.29999988376E+02 0.  0.
         12    1    1    2    0    0 -0.19457737159E+01 -0.10625442975E+02 -0.39197958046E+02  0.40659143974E+02  0.00000000000E+00 0. -1.
         11    1    3    3    0    0 -0.56699284583E+01 -0.45529508779E+01  0.16403024765E+02  0.17942593796E+02  0.51100000000E-03 0. -1.
        -11    1    3    3    0    0 -0.48091152694E+01  0.21109676927E+01  0.49288008043E+01  0.72025587053E+01  0.51100000000E-03 0.  1.
         12    1    3    3    0    0  0.12424817444E+02  0.13067426160E+02  0.17866132476E+02  0.25383703524E+02  0.00000000000E+00 0. -1.
</event>
<event>
 7    1  0.5408841E-013  0.5052886E+02  0.7816164E-02  0.1300439E+00
        -11   -1    0    0    0    0  0.00000000000E+00  0.00000000000E+00  0.45593999997E+02  0.45594000000E+02  0.51100000000E-03 0. -1.
         11   -1    0    0    0    0 -0.00000000000E+00 -0.00000000000E+00 -0.45593999997E+02  0.45594000000E+02  0.51100000000E-03 0.  1.
    9900012    2    1    2    0    0 -0.79700921278E+01 -0.39634449740E+02  0.43305162983E+01  0.50528863928E+02  0.30000012396E+02 0.  0.
         12    1    1    2    0    0  0.79700921278E+01  0.39634449740E+02 -0.43305162983E+01  0.40659136072E+02  0.00000000000E+00 0. -1.
         11    1    3    3    0    0  0.65447871735E+01 -0.71194711229E+01 -0.55184667047E+01  0.11134387421E+02  0.51100000000E-03 0. -1.
        -11    1    3    3    0    0 -0.12014360834E+01 -0.35975143639E+01 -0.32258186698E+01  0.49791027919E+01  0.51100000000E-03 0.  1.
         12    1    3    3    0    0 -0.13313443218E+02 -0.28917464253E+02  0.13074801673E+02  0.34415373715E+02  0.00000000000E+00 0. -1.
</event>
<event>
 7    1  0.5408841E-013  0.5052892E+02  0.7816164E-02  0.1300439E+00
        -11   -1    0    0    0    0  0.00000000000E+00  0.00000000000E+00  0.45593999997E+02  0.45594000000E+02  0.51100000000E-03 0. -1.
         11   -1    0    0    0    0 -0.00000000000E+00 -0.00000000000E+00 -0.45593999997E+02  0.45594000000E+02  0.51100000000E-03 0.  1.
    9900012    2    1    2    0    0  0.92568098422E+01  0.34602297974E+02  0.19239358732E+02  0.50528923794E+02  0.30000194363E+02 0.  0.
         12    1    1    2    0    0 -0.92568098422E+01 -0.34602297974E+02 -0.19239358732E+02  0.40659076206E+02  0.00000000000E+00 0. -1.
         11    1    3    3    0    0  0.64487350498E+01  0.18944630146E+02  0.18388532748E+01  0.20096431940E+02  0.51100000000E-03 0. -1.
        -11    1    3    3    0    0  0.13270952117E+01  0.20101627145E+02  0.15310614756E+02  0.25303191895E+02  0.51100000000E-03 0.  1.
         12    1    3    3    0    0  0.14809795807E+01 -0.44439593168E+01  0.20898907011E+01  0.51292999591E+01  0.00000000000E+00 0. -1.
</event>
<event>
 7    1  0.5408841E-013  0.5052886E+02  0.7816164E-02  0.1300439E+00
        -11   -1    0    0    0    0  0.00000000000E+00  0.00000000000E+00  0.45593999997E+02  0.45594000000E+02  0.51100000000E-03 0.  1.
         11   -1    0    0    0    0 -0.00000000000E+00 -0.00000000000E+00 -0.45593999997E+02  0.45594000000E+02  0.51100000000E-03 0. -1.
    9900012    2    1    2    0    0  0.31935752258E+02 -0.12001650128E+02  0.22118629046E+02  0.50528860450E+02  0.30000001823E+02 0.  0.
         12    1    1    2    0    0 -0.31935752258E+02  0.12001650128E+02 -0.22118629046E+02  0.40659139550E+02  0.00000000000E+00 0. -1.
         11    1    3    3    0    0  0.21868742372E+01  0.31076786242E+01  0.41577833356E+01  0.56326945495E+01  0.51100000000E-03 0. -1.
        -11    1    3    3    0    0  0.12244152949E+02  0.16141966728E+01  0.16544134041E+02  0.20645417985E+02  0.51100000000E-03 0.  1.
        -12    1    3    3    0    0  0.17504725072E+02 -0.16723525425E+02  0.14167116692E+01  0.24250747915E+02  0.00000000000E+00 0.  1.
</event>
<event>
 7    1  0.5408841E-013  0.5052886E+02  0.7816164E-02  0.1300439E+00
        -11   -1    0    0    0    0  0.00000000000E+00  0.00000000000E+00  0.45593999997E+02  0.45594000000E+02  0.51100000000E-03 0. -1.
         11   -1    0    0    0    0 -0.00000000000E+00 -0.00000000000E+00 -0.45593999997E+02  0.45594000000E+02  0.51100000000E-03 0.  1.
    9900012    2    1    2    0    0  0.37799330551E+02 -0.90688133253E+01 -0.11921955172E+02  0.50528858588E+02  0.29999996165E+02 0.  0.
         12    1    1    2    0    0 -0.37799330551E+02  0.90688133253E+01  0.11921955172E+02  0.40659141412E+02  0.00000000000E+00 0. -1.
         11    1    3    3    0    0  0.55212892872E+01 -0.66399100783E+01 -0.41494769694E+01  0.95807724439E+01  0.51100000000E-03 0. -1.
        -11    1    3    3    0    0  0.16808445953E+02 -0.12776000308E+02 -0.72728315435E+01  0.22330340753E+02  0.51100000000E-03 0.  1.
         12    1    3    3    0    0  0.15469595311E+02  0.10347097061E+02 -0.49964665949E+00  0.18617745391E+02  0.00000000000E+00 0. -1.
</event>
<event>
 7    1  0.5408841E-013  0.5052886E+02  0.7816164E-02  0.1300439E+00
        -11   -1    0    0    0    0  0.00000000000E+00  0.00000000000E+00  0.45593999997E+02  0.45594000000E+02  0.51100000000E-03 0.  1.
         11   -1    0    0    0    0 -0.00000000000E+00 -0.00000000000E+00 -0.45593999997E+02  0.45594000000E+02  0.51100000000E-03 0. -1.
    9900012    2    1    2    0    0  0.26460504744E+02  0.42388095752E+01  0.30578416757E+02  0.50528863397E+02  0.30000010783E+02 0.  0.
         12    1    1    2    0    0 -0.26460504744E+02 -0.42388095752E+01 -0.30578416757E+02  0.40659136603E+02  0.00000000000E+00 0. -1.
         11    1    3    3    0    0  0.62263973452E+00 -0.20516445851E+01 -0.49420896773E+01  0.53871306260E+01  0.51100000000E-03 0. -1.
        -11    1    3    3    0    0  0.77806160168E+00 -0.14347870007E+01  0.22210825672E+01  0.27563021650E+01  0.51100000000E-03 0.  1.
        -12    1    3    3    0    0  0.25059803408E+02  0.77252411610E+01  0.33299423867E+02  0.42385430606E+02  0.00000000000E+00 0.  1.
</event>
<event>
 7    1  0.5408841E-013  0.5052886E+02  0.7816164E-02  0.1300439E+00
        -11   -1    0    0    0    0  0.00000000000E+00  0.00000000000E+00  0.45593999997E+02  0.45594000000E+02  0.51100000000E-03 0.  1.
         11   -1    0    0    0    0 -0.00000000000E+00 -0.00000000000E+00 -0.45593999997E+02  0.45594000000E+02  0.51100000000E-03 0. -1.
    9900012    2    1    2    0    0  0.15629115143E+02  0.33497212887E+02  0.16936147204E+02  0.50528860886E+02  0.30000003150E+02 0.  0.
         12    1    1    2    0    0 -0.15629115143E+02 -0.33497212887E+02 -0.16936147204E+02  0.40659139114E+02  0.00000000000E+00 0. -1.
         11    1    3    3    0    0  0.17170641966E+02  0.61444648465E+01  0.11520362509E+02  0.21570909726E+02  0.51100000000E-03 0. -1.
        -11    1    3    3    0    0  0.20330941321E+01  0.54264027209E+01  0.32317840855E+01  0.66350393274E+01  0.51100000000E-03 0.  1.
        -12    1    3    3    0    0 -0.35746209560E+01  0.21926345320E+02  0.21840006097E+01  0.22322911833E+02  0.00000000000E+00 0.  1.
</event>
<event>
 7    1  0.5408841E-013  0.5052886E+02  0.7816164E-02  0.1300439E+00
        -11   -1    0    0    0    0  0.00000000000E+00  0.00000000000E+00  0.45593999997E+02  0.45594000000E+02  0.51100000000E-03 0. -1.
         11   -1    0    0    0    0 -0.00000000000E+00 -0.00000000000E+00 -0.45593999997E+02  0.45594000000E+02  0.51100000000E-03 0.  1.
    9900012    2    1    2    0    0 -0.39371570454E+02  0.89080238000E+01  0.48674279662E+01  0.50528864458E+02  0.30000014006E+02 0.  0.
         12    1    1    2    0    0  0.39371570454E+02 -0.89080238000E+01 -0.48674279662E+01  0.40659135542E+02  0.00000000000E+00 0. -1.
         11    1    3    3    0    0 -0.44111863908E+01  0.84924050560E+01  0.11747216764E+00  0.95704393306E+01  0.51100000000E-03 0. -1.
        -11    1    3    3    0    0 -0.81734322667E+01  0.75138859154E+01 -0.41502387661E+01  0.11852761646E+02  0.51100000000E-03 0.  1.
        -12    1    3    3    0    0 -0.26786951796E+02 -0.70982671714E+01  0.89001945647E+01  0.29105663481E+02  0.00000000000E+00 0.  1.
</event>
<event>
 7    1  0.5408841E-013  0.5052885E+02  0.7816164E-02  0.1300439E+00
        -11   -1    0    0    0    0  0.00000000000E+00  0.00000000000E+00  0.45593999997E+02  0.45594000000E+02  0.51100000000E-03 0.  1.
         11   -1    0    0    0    0 -0.00000000000E+00 -0.00000000000E+00 -0.45593999997E+02  0.45594000000E+02  0.51100000000E-03 0. -1.
    9900012    2    1    2    0    0 -0.20884383698E+02  0.31838741636E+02  0.14258446093E+02  0.50528852980E+02  0.29999979118E+02 0.  0.
         12    1    1    2    0    0  0.20884383698E+02 -0.31838741636E+02 -0.14258446093E+02  0.40659147020E+02  0.00000000000E+00 0. -1.
         11    1    3    3    0    0 -0.65509287459E+01 -0.68753572097E+00 -0.73013843214E+00  0.66272524618E+01  0.51100000000E-03 0. -1.
        -11    1    3    3    0    0 -0.16821760722E+02  0.26654613526E+02  0.48006800412E+01  0.31882386754E+02  0.51100000000E-03 0.  1.
         12    1    3    3    0    0  0.24883057693E+01  0.58716638304E+01  0.10187904484E+02  0.12019213764E+02  0.00000000000E+00 0. -1.
</event>
<event>
 7    1  0.5408841E-013  0.5052886E+02  0.7816164E-02  0.1300439E+00
        -11   -1    0    0    0    0  0.00000000000E+00  0.00000000000E+00  0.45593999997E+02  0.45594000000E+02  0.51100000000E-03 0. -1.
         11   -1    0    0    0    0 -0.00000000000E+00 -0.00000000000E+00 -0.45593999997E+02  0.45594000000E+02  0.51100000000E-03 0.  1.
    9900012    2    1    2    0    0 -0.84223409321E+01  0.14998994492E+02 -0.36841011610E+02  0.50528858359E+02  0.29999995467E+02 0.  0.
         12    1    1    2    0    0  0.84223409321E+01 -0.14998994492E+02  0.36841011610E+02  0.40659141641E+02  0.00000000000E+00 0. -1.
         11    1    3    3    0    0 -0.27934838706E+01 -0.29426766918E+00 -0.28544850097E+00  0.28234069321E+01  0.51100000000E-03 0. -1.
        -11    1    3    3    0    0  0.72798420080E+01 -0.13136153529E+01 -0.27532801162E+01  0.78931765859E+01  0.51100000000E-03 0.  1.
        -12    1    3    3    0    0 -0.12908699070E+02  0.16606877514E+02 -0.33802282993E+02  0.39812274841E+02  0.00000000000E+00 0.  1.
</event>
<event>
 7    1  0.5408841E-013  0.5052886E+02  0.7816164E-02  0.1300439E+00
        -11   -1    0    0    0    0  0.00000000000E+00  0.00000000000E+00  0.45593999997E+02  0.45594000000E+02  0.51100000000E-03 0.  1.
         11   -1    0    0    0    0 -0.00000000000E+00 -0.00000000000E+00 -0.45593999997E+02  0.45594000000E+02  0.51100000000E-03 0. -1.
    9900012    2    1    2    0    0 -0.19162486788E+02 -0.23865230577E+02  0.26765945233E+02  0.50528856446E+02  0.29999989652E+02 0.  0.
         12    1    1    2    0    0  0.19162486788E+02  0.23865230577E+02 -0.26765945233E+02  0.40659143554E+02  0.00000000000E+00 0. -1.
         11    1    3    3    0    0 -0.12482033330E+02 -0.98675627938E+01  0.66740022847E+01  0.17254340274E+02  0.51100000000E-03 0. -1.
        -11    1    3    3    0    0 -0.75482981970E+01 -0.49059087975E+01  0.22152491872E+02  0.23911872432E+02  0.51100000000E-03 0.  1.
         12    1    3    3    0    0  0.86784473896E+00 -0.90917589855E+01 -0.20605489234E+01  0.93626437403E+01  0.00000000000E+00 0. -1.
</event>
<event>
 7    1  0.5408841E-013  0.5052887E+02  0.7816164E-02  0.1300439E+00
        -11   -1    0    0    0    0  0.00000000000E+00  0.00000000000E+00  0.45593999997E+02  0.45594000000E+02  0.51100000000E-03 0.  1.
         11   -1    0    0    0    0 -0.00000000000E+00 -0.00000000000E+00 -0.45593999997E+02  0.45594000000E+02  0.51100000000E-03 0. -1.
    9900012    2    1    2    0    0  0.25468151061E+02  0.59230399530E+01  0.31136081155E+02  0.50528872237E+02  0.30000037652E+02 0.  0.
         12    1    1    2    0    0 -0.25468151061E+02 -0.59230399530E+01 -0.31136081155E+02  0.40659127763E+02  0.00000000000E+00 0. -1.
         11    1    3    3    0    0  0.16762379531E+02 -0.57160795331E+01  0.24362838543E+02  0.30119741614E+02  0.51100000000E-03 0. -1.
        -11    1    3    3    0    0 -0.13845395947E+00  0.14519607138E+01  0.67629507788E+01  0.69184436769E+01  0.51100000000E-03 0.  1.
         12    1    3    3    0    0  0.88442254887E+01  0.10187158772E+02  0.10291833602E-01  0.13490686946E+02  0.00000000000E+00 0. -1.
</event>
<event>
 7    1  0.5408841E-013  0.5052887E+02  0.7816164E-02  0.1300439E+00
        -11   -1    0    0    0    0  0.00000000000E+00  0.00000000000E+00  0.45593999997E+02  0.45594000000E+02  0.51100000000E-03 0.  1.
         11   -1    0    0    0    0 -0.00000000000E+00 -0.00000000000E+00 -0.45593999997E+02  0.45594000000E+02  0.51100000000E-03 0. -1.
    9900012    2    1    2    0    0  0.72271084575E+01 -0.19169774303E+01  0.39965719142E+02  0.50528873034E+02  0.30000040075E+02 0.  0.
         12    1    1    2    0    0 -0.72271084575E+01  0.19169774303E+01 -0.39965719142E+02  0.40659126966E+02  0.00000000000E+00 0. -1.
         11    1    3    3    0    0  0.51660270677E+01  0.51748652368E+01  0.53294065591E+01  0.90481843713E+01  0.51100000000E-03 0. -1.
        -11    1    3    3    0    0  0.14290573963E+01  0.73626019380E+01  0.68696278224E+01  0.10170639066E+02  0.51100000000E-03 0.  1.
         12    1    3    3    0    0  0.63202399349E+00 -0.14454444605E+02  0.27766684760E+02  0.31310049597E+02  0.00000000000E+00 0. -1.
</event>
<event>
 7    1  0.5408841E-013  0.5052887E+02  0.7816164E-02  0.1300439E+00
        -11   -1    0    0    0    0  0.00000000000E+00  0.00000000000E+00  0.45593999997E+02  0.45594000000E+02  0.51100000000E-03 0.  1.
         11   -1    0    0    0    0 -0.00000000000E+00 -0.00000000000E+00 -0.45593999997E+02  0.45594000000E+02  0.51100000000E-03 0. -1.
    9900012    2    1    2    0    0  0.26907546593E+02 -0.30201530102E+02 -0.41251111096E+01  0.50528867867E+02  0.30000024368E+02 0.  0.
         12    1    1    2    0    0 -0.26907546593E+02  0.30201530102E+02  0.41251111096E+01  0.40659132133E+02  0.00000000000E+00 0. -1.
         11    1    3    3    0    0 -0.55592254219E+01 -0.14068886971E+01  0.12035564953E+01  0.58594258760E+01  0.51100000000E-03 0. -1.
        -11    1    3    3    0    0  0.14603611922E+01 -0.51573474135E+01 -0.76963794419E+00  0.54150927952E+01  0.51100000000E-03 0.  1.
        -12    1    3    3    0    0  0.31006410822E+02 -0.23637293992E+02 -0.45590296608E+01  0.39254349196E+02  0.00000000000E+00 0.  1.
</event>
<event>
 7    1  0.5408841E-013  0.5052886E+02  0.7816164E-02  0.1300439E+00
        -11   -1    0    0    0    0  0.00000000000E+00  0.00000000000E+00  0.45593999997E+02  0.45594000000E+02  0.51100000000E-03 0. -1.
         11   -1    0    0    0    0 -0.00000000000E+00 -0.00000000000E+00 -0.45593999997E+02  0.45594000000E+02  0.51100000000E-03 0.  1.
    9900012    2    1    2    0    0  0.27940914146E+01  0.32741243640E+02 -0.23945134666E+02  0.50528862576E+02  0.30000008286E+02 0.  0.
         12    1    1    2    0    0 -0.27940914146E+01 -0.32741243640E+02  0.23945134666E+02  0.40659137424E+02  0.00000000000E+00 0. -1.
         11    1    3    3    0    0  0.12802571153E+02  0.68433124737E+01 -0.63828517047E+01  0.15858043697E+02  0.51100000000E-03 0. -1.
        -11    1    3    3    0    0 -0.15018981803E+01  0.83349439192E+01 -0.78390828902E-01  0.84695415261E+01  0.51100000000E-03 0.  1.
        -12    1    3    3    0    0 -0.85065815584E+01  0.17562987247E+02 -0.17483892132E+02  0.26201277353E+02  0.00000000000E+00 0.  1.
</event>
<event>
 7    1  0.5408841E-013  0.5052886E+02  0.7816164E-02  0.1300439E+00
        -11   -1    0    0    0    0  0.00000000000E+00  0.00000000000E+00  0.45593999997E+02  0.45594000000E+02  0.51100000000E-03 0.  1.
         11   -1    0    0    0    0 -0.00000000000E+00 -0.00000000000E+00 -0.45593999997E+02  0.45594000000E+02  0.51100000000E-03 0. -1.
    9900012    2    1    2    0    0  0.42537228437E+01  0.37697216975E+02 -0.14628456614E+02  0.50528855044E+02  0.29999985390E+02 0.  0.
         12    1    1    2    0    0 -0.42537228437E+01 -0.37697216975E+02  0.14628456614E+02  0.40659144956E+02  0.00000000000E+00 0. -1.
         11    1    3    3    0    0 -0.36664324268E+01  0.41358112498E+01 -0.74876479460E+01  0.93065854887E+01  0.51100000000E-03 0. -1.
        -11    1    3    3    0    0  0.51296748695E+01  0.76977662378E+01  0.70121504816E+01  0.11607731215E+02  0.51100000000E-03 0.  1.
         12    1    3    3    0    0  0.27904804011E+01  0.25863639487E+02 -0.14152959150E+02  0.29614538340E+02  0.00000000000E+00 0. -1.
</event>
<event>
 7    1  0.5408841E-013  0.5052884E+02  0.7816164E-02  0.1300439E+00
        -11   -1    0    0    0    0  0.00000000000E+00  0.00000000000E+00  0.45593999997E+02  0.45594000000E+02  0.51100000000E-03 0.  1.
         11   -1    0    0    0    0 -0.00000000000E+00 -0.00000000000E+00 -0.45593999997E+02  0.45594000000E+02  0.51100000000E-03 0. -1.
    9900012    2    1    2    0    0  0.26726867672E+02  0.22733364778E+01  0.30556082359E+02  0.50528835185E+02  0.29999925030E+02 0.  0.
         12    1    1    2    0    0 -0.26726867672E+02 -0.22733364778E+01 -0.30556082359E+02  0.40659164815E+02  0.00000000000E+00 0. -1.
         11    1    3    3    0    0  0.53142976903E+01 -0.25322420422E+01 -0.40629548588E+01  0.71527345923E+01  0.51100000000E-03 0. -1.
        -11    1    3    3    0    0  0.94588783921E+01  0.55561088220E+01  0.63520695386E+01  0.12676336749E+02  0.51100000000E-03 0.  1.
        -12    1    3    3    0    0  0.11953691590E+02 -0.75053030203E+00  0.28266967679E+02  0.30699763845E+02  0.00000000000E+00 0.  1.
</event>
<event>
 7    1  0.5408841E-013  0.5052886E+02  0.7816164E-02  0.1300439E+00
        -11   -1    0    0    0    0  0.00000000000E+00  0.00000000000E+00  0.45593999997E+02  0.45594000000E+02  0.51100000000E-03 0. -1.
         11   -1    0    0    0    0 -0.00000000000E+00 -0.00000000000E+00 -0.45593999997E+02  0.45594000000E+02  0.51100000000E-03 0.  1.
    9900012    2    1    2    0    0  0.33546850753E+01  0.40292867996E+02  0.42891335702E+01  0.50528858468E+02  0.29999995800E+02 0.  0.
         12    1    1    2    0    0 -0.33546850753E+01 -0.40292867996E+02 -0.42891335702E+01  0.40659141532E+02  0.00000000000E+00 0. -1.
         11    1    3    3    0    0  0.54624794152E+01  0.86618708214E+01  0.41673583586E+01  0.11055928882E+02  0.51100000000E-03 0. -1.
        -11    1    3    3    0    0  0.19973250204E+01  0.21632170880E+02  0.10816030769E+02  0.24267810904E+02  0.51100000000E-03 0.  1.
        -12    1    3    3    0    0 -0.41051193603E+01  0.99988262946E+01 -0.10694255557E+02  0.15205118682E+02  0.00000000000E+00 0.  1.
</event>
<event>
 7    1  0.5408841E-013  0.5052886E+02  0.7816164E-02  0.1300439E+00
        -11   -1    0    0    0    0  0.00000000000E+00  0.00000000000E+00  0.45593999997E+02  0.45594000000E+02  0.51100000000E-03 0.  1.
         11   -1    0    0    0    0 -0.00000000000E+00 -0.00000000000E+00 -0.45593999997E+02  0.45594000000E+02  0.51100000000E-03 0. -1.
    9900012    2    1    2    0    0 -0.25981859575E+02  0.31239408879E+02  0.14858606695E+01  0.50528862330E+02  0.30000007539E+02 0.  0.
         12    1    1    2    0    0  0.25981859575E+02 -0.31239408879E+02 -0.14858606695E+01  0.40659137670E+02  0.00000000000E+00 0. -1.
         11    1    3    3    0    0 -0.27852196011E+01  0.79424434699E+01  0.66896871859E+01  0.10751361374E+02  0.51100000000E-03 0. -1.
        -11    1    3    3    0    0  0.41717618252E+01  0.27969305822E+01  0.71838203471E+00  0.50737057874E+01  0.51100000000E-03 0.  1.
        -12    1    3    3    0    0 -0.27368401800E+02  0.20500034827E+02 -0.59222085511E+01  0.34703795168E+02  0.00000000000E+00 0.  1.
</event>
<event>
 7    1  0.5408841E-013  0.5052883E+02  0.7816164E-02  0.1300439E+00
        -11   -1    0    0    0    0  0.00000000000E+00  0.00000000000E+00  0.45593999997E+02  0.45594000000E+02  0.51100000000E-03 0. -1.
         11   -1    0    0    0    0 -0.00000000000E+00 -0.00000000000E+00 -0.45593999997E+02  0.45594000000E+02  0.51100000000E-03 0.  1.
    9900012    2    1    2    0    0 -0.10755501522E+02  0.29626831933E+02 -0.25685362039E+02  0.50528833673E+02  0.29999920431E+02 0.  0.
         12    1    1    2    0    0  0.10755501522E+02 -0.29626831933E+02  0.25685362039E+02  0.40659166327E+02  0.00000000000E+00 0. -1.
         11    1    3    3    0    0 -0.94658321959E+01  0.15818396956E+02 -0.15027233552E+01  0.18495454554E+02  0.51100000000E-03 0. -1.
        -11    1    3    3    0    0 -0.46592751897E+01  0.90597745022E+01 -0.38622307402E+01  0.10895190952E+02  0.51100000000E-03 0.  1.
        -12    1    3    3    0    0  0.33696058632E+01  0.47486604744E+01 -0.20320407943E+02  0.21138188166E+02  0.00000000000E+00 0.  1.
</event>
<event>
 7    1  0.5408841E-013  0.5052887E+02  0.7816164E-02  0.1300439E+00
        -11   -1    0    0    0    0  0.00000000000E+00  0.00000000000E+00  0.45593999997E+02  0.45594000000E+02  0.51100000000E-03 0. -1.
         11   -1    0    0    0    0 -0.00000000000E+00 -0.00000000000E+00 -0.45593999997E+02  0.45594000000E+02  0.51100000000E-03 0.  1.
    9900012    2    1    2    0    0 -0.28064260266E+02  0.18563822203E+02 -0.22824260091E+02  0.50528867596E+02  0.30000023546E+02 0.  0.
         12    1    1    2    0    0  0.28064260266E+02 -0.18563822203E+02  0.22824260091E+02  0.40659132404E+02  0.00000000000E+00 0. -1.
         11    1    3    3    0    0 -0.55838598481E+01 -0.41738597989E+01 -0.66995670950E+01  0.96687535880E+01  0.51100000000E-03 0. -1.
        -11    1    3    3    0    0 -0.40776793693E+01  0.76789703793E+00 -0.10986918447E+02  0.11744339578E+02  0.51100000000E-03 0.  1.
         12    1    3    3    0    0 -0.18402721049E+02  0.21969784964E+02 -0.51377745496E+01  0.29115774431E+02  0.00000000000E+00 0. -1.
</event>
<event>
 7    1  0.5408841E-013  0.5052886E+02  0.7816164E-02  0.1300439E+00
        -11   -1    0    0    0    0  0.00000000000E+00  0.00000000000E+00  0.45593999997E+02  0.45594000000E+02  0.51100000000E-03 0.  1.
         11   -1    0    0    0    0 -0.00000000000E+00 -0.00000000000E+00 -0.45593999997E+02  0.45594000000E+02  0.51100000000E-03 0. -1.
    9900012    2    1    2    0    0 -0.20334448502E+02  0.25236730396E+01  0.35118471976E+02  0.50528858403E+02  0.29999995600E+02 0.  0.
         12    1    1    2    0    0  0.20334448502E+02 -0.25236730396E+01 -0.35118471976E+02  0.40659141597E+02  0.00000000000E+00 0. -1.
         11    1    3    3    0    0  0.13505387667E+00 -0.68930912081E+01  0.29971885071E+01  0.75177180820E+01  0.51100000000E-03 0. -1.
        -11    1    3    3    0    0 -0.53089487666E+01 -0.52688430990E+01  0.90671900405E+01  0.11754130342E+02  0.51100000000E-03 0.  1.
        -12    1    3    3    0    0 -0.15160553612E+02  0.14685607347E+02  0.23054093429E+02  0.31257009978E+02  0.00000000000E+00 0.  1.
</event>
<event>
 7    1  0.5408841E-013  0.5052884E+02  0.7816164E-02  0.1300439E+00
        -11   -1    0    0    0    0  0.00000000000E+00  0.00000000000E+00  0.45593999997E+02  0.45594000000E+02  0.51100000000E-03 0.  1.
         11   -1    0    0    0    0 -0.00000000000E+00 -0.00000000000E+00 -0.45593999997E+02  0.45594000000E+02  0.51100000000E-03 0. -1.
    9900012    2    1    2    0    0 -0.16337991177E+02  0.25872022360E+02  0.26774529624E+02  0.50528844410E+02  0.29999953070E+02 0.  0.
         12    1    1    2    0    0  0.16337991177E+02 -0.25872022360E+02 -0.26774529624E+02  0.40659155590E+02  0.00000000000E+00 0. -1.
         11    1    3    3    0    0  0.30208786694E+01  0.23843933864E+01  0.12976708039E+02  0.13535360784E+02  0.51100000000E-03 0. -1.
        -11    1    3    3    0    0 -0.56444633681E-01  0.92581974460E+01  0.82017911873E+01  0.12368782676E+02  0.51100000000E-03 0.  1.
        -12    1    3    3    0    0 -0.19302425213E+02  0.14229431528E+02  0.55960303971E+01  0.24624700950E+02  0.00000000000E+00 0.  1.
</event>
<event>
 7    1  0.5408841E-013  0.5052885E+02  0.7816164E-02  0.1300439E+00
        -11   -1    0    0    0    0  0.00000000000E+00  0.00000000000E+00  0.45593999997E+02  0.45594000000E+02  0.51100000000E-03 0. -1.
         11   -1    0    0    0    0 -0.00000000000E+00 -0.00000000000E+00 -0.45593999997E+02  0.45594000000E+02  0.51100000000E-03 0.  1.
    9900012    2    1    2    0    0 -0.39584815653E+02 -0.56743641528E+01 -0.73491707598E+01  0.50528851587E+02  0.29999974884E+02 0.  0.
         12    1    1    2    0    0  0.39584815653E+02  0.56743641528E+01  0.73491707598E+01  0.40659148413E+02  0.00000000000E+00 0. -1.
         11    1    3    3    0    0 -0.19266409853E+01 -0.92465331686E+00 -0.41640927495E+01  0.46804484753E+01  0.51100000000E-03 0.  1.
        -11    1    3    3    0    0  0.10398284397E+01  0.28965448728E+01  0.47037942899E+01  0.56211116665E+01  0.51100000000E-03 0. -1.
         12    1    3    3    0    0 -0.38698003107E+02 -0.76462557087E+01 -0.78888723003E+01  0.40227291445E+02  0.00000000000E+00 0. -1.
</event>
<event>
 7    1  0.5408841E-013  0.5052888E+02  0.7816164E-02  0.1300439E+00
        -11   -1    0    0    0    0  0.00000000000E+00  0.00000000000E+00  0.45593999997E+02  0.45594000000E+02  0.51100000000E-03 0.  1.
         11   -1    0    0    0    0 -0.00000000000E+00 -0.00000000000E+00 -0.45593999997E+02  0.45594000000E+02  0.51100000000E-03 0. -1.
    9900012    2    1    2    0    0  0.25960414993E+02 -0.19852506817E+02  0.24188822727E+02  0.50528876566E+02  0.30000050810E+02 0.  0.
         12    1    1    2    0    0 -0.25960414993E+02  0.19852506817E+02 -0.24188822727E+02  0.40659123434E+02  0.00000000000E+00 0. -1.
         11    1    3    3    0    0 -0.35170990267E+00 -0.35077857251E+01  0.48439719777E+01  0.59910203915E+01  0.51100000000E-03 0. -1.
        -11    1    3    3    0    0 -0.61449746385E+00 -0.12897214133E+02  0.51164640762E+01  0.13888626442E+02  0.51100000000E-03 0.  1.
        -12    1    3    3    0    0  0.26926622359E+02 -0.34475069584E+01  0.14228386673E+02  0.30649229733E+02  0.00000000000E+00 0.  1.
</event>
<event>
 7    1  0.5408841E-013  0.5052886E+02  0.7816164E-02  0.1300439E+00
        -11   -1    0    0    0    0  0.00000000000E+00  0.00000000000E+00  0.45593999997E+02  0.45594000000E+02  0.51100000000E-03 0.  1.
         11   -1    0    0    0    0 -0.00000000000E+00 -0.00000000000E+00 -0.45593999997E+02  0.45594000000E+02  0.51100000000E-03 0. -1.
    9900012    2    1    2    0    0 -0.23183353544E+01  0.67890940118E+01  0.40021231992E+02  0.50528862202E+02  0.30000007148E+02 0.  0.
         12    1    1    2    0    0  0.23183353544E+01 -0.67890940118E+01 -0.40021231992E+02  0.40659137798E+02  0.00000000000E+00 0. -1.
         11    1    3    3    0    0  0.24394387886E+00  0.63745975254E+01  0.18970508678E+02  0.20014374884E+02  0.51100000000E-03 0. -1.
        -11    1    3    3    0    0 -0.55194705551E+01  0.10064630190E+02  0.14451192184E+02  0.18455305250E+02  0.51100000000E-03 0.  1.
         12    1    3    3    0    0  0.29571913218E+01 -0.96501337036E+01  0.65995311308E+01  0.12059182068E+02  0.00000000000E+00 0. -1.
</event>
<event>
 7    1  0.5408841E-013  0.5052888E+02  0.7816164E-02  0.1300439E+00
        -11   -1    0    0    0    0  0.00000000000E+00  0.00000000000E+00  0.45593999997E+02  0.45594000000E+02  0.51100000000E-03 0. -1.
         11   -1    0    0    0    0 -0.00000000000E+00 -0.00000000000E+00 -0.45593999997E+02  0.45594000000E+02  0.51100000000E-03 0.  1.
    9900012    2    1    2    0    0  0.17276061022E+02 -0.36647755573E+02 -0.34123536494E+01  0.50528875189E+02  0.30000046623E+02 0.  0.
         12    1    1    2    0    0 -0.17276061022E+02  0.36647755573E+02  0.34123536494E+01  0.40659124811E+02  0.00000000000E+00 0. -1.
         11    1    3    3    0    0  0.19505496342E+01  0.60855715484E+00 -0.15119598083E+00  0.20488646056E+01  0.51100000000E-03 0. -1.
        -11    1    3    3    0    0 -0.15204542932E+01 -0.46816084420E+01  0.86235293143E+01  0.99294761674E+01  0.51100000000E-03 0.  1.
        -12    1    3    3    0    0  0.16845965681E+02 -0.32574704286E+02 -0.11884686983E+02  0.38550534416E+02  0.00000000000E+00 0.  1.
</event>
<event>
 7    1  0.5408841E-013  0.5052888E+02  0.7816164E-02  0.1300439E+00
        -11   -1    0    0    0    0  0.00000000000E+00  0.00000000000E+00  0.45593999997E+02  0.45594000000E+02  0.51100000000E-03 0. -1.
         11   -1    0    0    0    0 -0.00000000000E+00 -0.00000000000E+00 -0.45593999997E+02  0.45594000000E+02  0.51100000000E-03 0.  1.
    9900012    2    1    2    0    0 -0.25240117162E+02  0.27732393490E+02  0.15716711245E+02  0.50528878325E+02  0.30000056157E+02 0.  0.
         12    1    1    2    0    0  0.25240117162E+02 -0.27732393490E+02 -0.15716711245E+02  0.40659121675E+02  0.00000000000E+00 0. -1.
         11    1    3    3    0    0 -0.10708837374E+02  0.10028268868E+02 -0.12400505282E+01  0.14723555955E+02  0.51100000000E-03 0. -1.
        -11    1    3    3    0    0 -0.10637324581E+02 -0.11431894880E+01  0.89109400688E+00  0.10735623188E+02  0.51100000000E-03 0.  1.
         12    1    3    3    0    0 -0.38939552070E+01  0.18847314110E+02  0.16065667766E+02  0.25069699182E+02  0.00000000000E+00 0. -1.
</event>
<event>
 7    1  0.5408841E-013  0.5052886E+02  0.7816164E-02  0.1300439E+00
        -11   -1    0    0    0    0  0.00000000000E+00  0.00000000000E+00  0.45593999997E+02  0.45594000000E+02  0.51100000000E-03 0. -1.
         11   -1    0    0    0    0 -0.00000000000E+00 -0.00000000000E+00 -0.45593999997E+02  0.45594000000E+02  0.51100000000E-03 0.  1.
    9900012    2    1    2    0    0 -0.32724958195E+02 -0.12148054327E+02 -0.20848687387E+02  0.50528857380E+02  0.29999992493E+02 0.  0.
         12    1    1    2    0    0  0.32724958195E+02  0.12148054327E+02  0.20848687387E+02  0.40659142620E+02  0.00000000000E+00 0. -1.
         11    1    3    3    0    0 -0.40444483234E+01 -0.27232301832E+01  0.28027447006E+01  0.56239597251E+01  0.51100000000E-03 0. -1.
        -11    1    3    3    0    0 -0.31918463637E+02 -0.98444880817E+01 -0.16964151325E+02  0.37463111149E+02  0.51100000000E-03 0.  1.
        -12    1    3    3    0    0  0.32379537652E+01  0.41966393759E+00 -0.66872807626E+01  0.74417865062E+01  0.00000000000E+00 0.  1.
</event>
<event>
 7    1  0.5408841E-013  0.5052885E+02  0.7816164E-02  0.1300439E+00
        -11   -1    0    0    0    0  0.00000000000E+00  0.00000000000E+00  0.45593999997E+02  0.45594000000E+02  0.51100000000E-03 0.  1.
         11   -1    0    0    0    0 -0.00000000000E+00 -0.00000000000E+00 -0.45593999997E+02  0.45594000000E+02  0.51100000000E-03 0. -1.
    9900012    2    1    2    0    0  0.18372345999E+02 -0.97239740080E+01  0.34943777070E+02  0.50528851903E+02  0.29999975846E+02 0.  0.
         12    1    1    2    0    0 -0.18372345999E+02  0.97239740080E+01 -0.34943777070E+02  0.40659148097E+02  0.00000000000E+00 0. -1.
         11    1    3    3    0    0 -0.27426081032E+01 -0.87871294195E+01  0.39746296800E+01  0.10026625753E+02  0.51100000000E-03 0. -1.
        -11    1    3    3    0    0  0.25277512325E+01 -0.59082788590E+01  0.47997706818E+01  0.80209154233E+01  0.51100000000E-03 0.  1.
         12    1    3    3    0    0  0.18587202870E+02  0.49714342705E+01  0.26169376708E+02  0.32481310727E+02  0.00000000000E+00 0. -1.
</event>
<event>
 7    1  0.5408841E-013  0.5052889E+02  0.7816164E-02  0.1300439E+00
        -11   -1    0    0    0    0  0.00000000000E+00  0.00000000000E+00  0.45593999997E+02  0.45594000000E+02  0.51100000000E-03 0.  1.
         11   -1    0    0    0    0 -0.00000000000E+00 -0.00000000000E+00 -0.45593999997E+02  0.45594000000E+02  0.51100000000E-03 0. -1.
    9900012    2    1    2    0    0  0.96638059277E+00 -0.22298264447E+02  0.33985540485E+02  0.50528887235E+02  0.30000083239E+02 0.  0.
         12    1    1    2    0    0 -0.96638059277E+00  0.22298264447E+02 -0.33985540485E+02  0.40659112765E+02  0.00000000000E+00 0. -1.
         11    1    3    3    0    0 -0.11014746980E+02 -0.54301352308E+01  0.23206904785E+02  0.26255884095E+02  0.51100000000E-03 0.  1.
        -11    1    3    3    0    0 -0.27449333968E+00 -0.88992504082E+00 -0.63407389432E+00  0.11266601690E+01  0.51100000000E-03 0. -1.
        -12    1    3    3    0    0  0.12255620912E+02 -0.15978204176E+02  0.11412709594E+02  0.23146342970E+02  0.00000000000E+00 0.  1.
</event>
<event>
 7    1  0.5408841E-013  0.5052888E+02  0.7816164E-02  0.1300439E+00
        -11   -1    0    0    0    0  0.00000000000E+00  0.00000000000E+00  0.45593999997E+02  0.45594000000E+02  0.51100000000E-03 0.  1.
         11   -1    0    0    0    0 -0.00000000000E+00 -0.00000000000E+00 -0.45593999997E+02  0.45594000000E+02  0.51100000000E-03 0. -1.
    9900012    2    1    2    0    0 -0.37955402579E+02 -0.13791788307E+02  0.47263059185E+01  0.50528880761E+02  0.30000063562E+02 0.  0.
         12    1    1    2    0    0  0.37955402579E+02  0.13791788307E+02 -0.47263059185E+01  0.40659119239E+02  0.00000000000E+00 0. -1.
         11    1    3    3    0    0 -0.22452728104E+02 -0.98500030482E+01  0.80588729564E+01  0.25808777441E+02  0.51100000000E-03 0. -1.
        -11    1    3    3    0    0 -0.19730110597E+02 -0.39793686489E+01 -0.17399946765E+01  0.20202480560E+02  0.51100000000E-03 0.  1.
         12    1    3    3    0    0  0.42274361229E+01  0.37583389767E-01 -0.15925723614E+01  0.45176227610E+01  0.00000000000E+00 0. -1.
</event>
<event>
 7    1  0.5408841E-013  0.5052886E+02  0.7816164E-02  0.1300439E+00
        -11   -1    0    0    0    0  0.00000000000E+00  0.00000000000E+00  0.45593999997E+02  0.45594000000E+02  0.51100000000E-03 0. -1.
         11   -1    0    0    0    0 -0.00000000000E+00 -0.00000000000E+00 -0.45593999997E+02  0.45594000000E+02  0.51100000000E-03 0.  1.
    9900012    2    1    2    0    0  0.18675337962E+02 -0.56402671009E+00 -0.36112034042E+02  0.50528863551E+02  0.30000011251E+02 0.  0.
         12    1    1    2    0    0 -0.18675337962E+02  0.56402671009E+00  0.36112034042E+02  0.40659136449E+02  0.00000000000E+00 0. -1.
         11    1    3    3    0    0  0.58506951107E+01 -0.74435960185E+01 -0.15760882467E+02  0.18385950379E+02  0.51100000000E-03 0. -1.
        -11    1    3    3    0    0  0.38938468796E+01 -0.70828396821E+01 -0.87504494876E+01  0.11912137843E+02  0.51100000000E-03 0.  1.
         12    1    3    3    0    0  0.89307959716E+01  0.13962408991E+02 -0.11600702088E+02  0.20230775329E+02  0.00000000000E+00 0. -1.
</event>
<event>
 7    1  0.5408841E-013  0.5052886E+02  0.7816164E-02  0.1300439E+00
        -11   -1    0    0    0    0  0.00000000000E+00  0.00000000000E+00  0.45593999997E+02  0.45594000000E+02  0.51100000000E-03 0.  1.
         11   -1    0    0    0    0 -0.00000000000E+00 -0.00000000000E+00 -0.45593999997E+02  0.45594000000E+02  0.51100000000E-03 0. -1.
    9900012    2    1    2    0    0 -0.16689130219E+01  0.35653681200E+02 -0.19472933893E+02  0.50528863165E+02  0.30000010076E+02 0.  0.
         12    1    1    2    0    0  0.16689130219E+01 -0.35653681200E+02  0.19472933893E+02  0.40659136835E+02  0.00000000000E+00 0. -1.
         11    1    3    3    0    0 -0.66211378160E+01  0.48345612271E+01 -0.91037244967E+01  0.12251132528E+02  0.51100000000E-03 0. -1.
        -11    1    3    3    0    0 -0.29857331049E+01  0.14920235890E+01 -0.69418951000E+01  0.77026387948E+01  0.51100000000E-03 0.  1.
        -12    1    3    3    0    0  0.79379578990E+01  0.29327096383E+02 -0.34273142968E+01  0.30575091843E+02  0.00000000000E+00 0.  1.
</event>
<event>
 7    1  0.5408841E-013  0.5052886E+02  0.7816164E-02  0.1300439E+00
        -11   -1    0    0    0    0  0.00000000000E+00  0.00000000000E+00  0.45593999997E+02  0.45594000000E+02  0.51100000000E-03 0.  1.
         11   -1    0    0    0    0 -0.00000000000E+00 -0.00000000000E+00 -0.45593999997E+02  0.45594000000E+02  0.51100000000E-03 0. -1.
    9900012    2    1    2    0    0 -0.20553913225E+02 -0.12281937095E+02  0.32861164209E+02  0.50528862764E+02  0.30000008857E+02 0.  0.
         12    1    1    2    0    0  0.20553913225E+02  0.12281937095E+02 -0.32861164209E+02  0.40659137236E+02  0.00000000000E+00 0. -1.
         11    1    3    3    0    0 -0.11565169311E+02 -0.45468464151E+01  0.22281533305E+02  0.25512618059E+02  0.51100000000E-03 0. -1.
        -11    1    3    3    0    0 -0.12847876412E+02 -0.24994687246E+01  0.12637760472E+02  0.18194182098E+02  0.51100000000E-03 0.  1.
         12    1    3    3    0    0  0.38591324984E+01 -0.52356219551E+01 -0.20581295687E+01  0.68220626073E+01  0.00000000000E+00 0. -1.
</event>
<event>
 7    1  0.5408841E-013  0.5052886E+02  0.7816164E-02  0.1300439E+00
        -11   -1    0    0    0    0  0.00000000000E+00  0.00000000000E+00  0.45593999997E+02  0.45594000000E+02  0.51100000000E-03 0.  1.
         11   -1    0    0    0    0 -0.00000000000E+00 -0.00000000000E+00 -0.45593999997E+02  0.45594000000E+02  0.51100000000E-03 0. -1.
    9900012    2    1    2    0    0 -0.18626012850E+02 -0.47755685257E+01  0.35825007232E+02  0.50528861389E+02  0.30000004678E+02 0.  0.
         12    1    1    2    0    0  0.18626012850E+02  0.47755685257E+01 -0.35825007232E+02  0.40659138611E+02  0.00000000000E+00 0. -1.
         11    1    3    3    0    0 -0.17744923991E+01  0.34913512007E+01  0.33044491032E+01  0.51242307342E+01  0.51100000000E-03 0. -1.
        -11    1    3    3    0    0  0.39390746618E+01  0.45353495823E+01  0.12353852629E+02  0.13736934886E+02  0.51100000000E-03 0.  1.
        -12    1    3    3    0    0 -0.20790595113E+02 -0.12802269309E+02  0.20166705499E+02  0.31667695768E+02  0.00000000000E+00 0.  1.
</event>
<event>
 7    1  0.5408841E-013  0.5052886E+02  0.7816164E-02  0.1300439E+00
        -11   -1    0    0    0    0  0.00000000000E+00  0.00000000000E+00  0.45593999997E+02  0.45594000000E+02  0.51100000000E-03 0.  1.
         11   -1    0    0    0    0 -0.00000000000E+00 -0.00000000000E+00 -0.45593999997E+02  0.45594000000E+02  0.51100000000E-03 0. -1.
    9900012    2    1    2    0    0  0.54722242843E+01  0.29420609534E+02  0.27525413346E+02  0.50528857316E+02  0.29999992297E+02 0.  0.
         12    1    1    2    0    0 -0.54722242843E+01 -0.29420609534E+02 -0.27525413346E+02  0.40659142684E+02  0.00000000000E+00 0. -1.
         11    1    3    3    0    0  0.59928445497E+01  0.28645044019E+01 -0.21579418969E+01  0.69840020587E+01  0.51100000000E-03 0. -1.
        -11    1    3    3    0    0  0.12221094113E+00 -0.26455750411E+01  0.23120343831E+01  0.35156089177E+01  0.51100000000E-03 0.  1.
         12    1    3    3    0    0 -0.64283120646E+00  0.29201680173E+02  0.27371320860E+02  0.40029246339E+02  0.00000000000E+00 0. -1.
</event>
<event>
 7    1  0.5408841E-013  0.5052885E+02  0.7816164E-02  0.1300439E+00
        -11   -1    0    0    0    0  0.00000000000E+00  0.00000000000E+00  0.45593999997E+02  0.45594000000E+02  0.51100000000E-03 0.  1.
         11   -1    0    0    0    0 -0.00000000000E+00 -0.00000000000E+00 -0.45593999997E+02  0.45594000000E+02  0.51100000000E-03 0. -1.
    9900012    2    1    2    0    0  0.15795340547E+02 -0.35173741270E+02  0.12902775210E+02  0.50528850155E+02  0.29999970533E+02 0.  0.
         12    1    1    2    0    0 -0.15795340547E+02  0.35173741270E+02 -0.12902775210E+02  0.40659149845E+02  0.00000000000E+00 0. -1.
         11    1    3    3    0    0  0.71702012689E+01 -0.20037948919E+02  0.81715722601E+01  0.22797056314E+02  0.51100000000E-03 0. -1.
        -11    1    3    3    0    0  0.28235882448E+01 -0.14038525705E+02  0.11776007196E+02  0.18539881345E+02  0.51100000000E-03 0.  1.
         12    1    3    3    0    0  0.58015510333E+01 -0.10972666468E+01 -0.70448042459E+01  0.91919124968E+01  0.00000000000E+00 0. -1.
</event>
<event>
 7    1  0.5408841E-013  0.5052886E+02  0.7816164E-02  0.1300439E+00
        -11   -1    0    0    0    0  0.00000000000E+00  0.00000000000E+00  0.45593999997E+02  0.45594000000E+02  0.51100000000E-03 0. -1.
         11   -1    0    0    0    0 -0.00000000000E+00 -0.00000000000E+00 -0.45593999997E+02  0.45594000000E+02  0.51100000000E-03 0.  1.
    9900012    2    1    2    0    0  0.18456515310E+02 -0.32969201073E+02  0.15018480096E+02  0.50528856857E+02  0.29999990902E+02 0.  0.
         12    1    1    2    0    0 -0.18456515310E+02  0.32969201073E+02 -0.15018480096E+02  0.40659143143E+02  0.00000000000E+00 0. -1.
         11    1    3    3    0    0  0.12818867034E+02 -0.97825814593E+01  0.94133078309E+01  0.18671706313E+02  0.51100000000E-03 0. -1.
        -11    1    3    3    0    0  0.12824612272E+02 -0.99376883638E+01  0.39149029941E+01  0.16689960924E+02  0.51100000000E-03 0.  1.
        -12    1    3    3    0    0 -0.71869639964E+01 -0.13248931250E+02  0.16902692704E+01  0.15167189620E+02  0.00000000000E+00 0.  1.
</event>
<event>
 7    1  0.5408841E-013  0.5052882E+02  0.7816164E-02  0.1300439E+00
        -11   -1    0    0    0    0  0.00000000000E+00  0.00000000000E+00  0.45593999997E+02  0.45594000000E+02  0.51100000000E-03 0.  1.
         11   -1    0    0    0    0 -0.00000000000E+00 -0.00000000000E+00 -0.45593999997E+02  0.45594000000E+02  0.51100000000E-03 0. -1.
    9900012    2    1    2    0    0 -0.16752513991E+02 -0.56352463638E+01  0.36616475635E+02  0.50528818817E+02  0.29999875275E+02 0.  0.
         12    1    1    2    0    0  0.16752513991E+02  0.56352463638E+01 -0.36616475635E+02  0.40659181183E+02  0.00000000000E+00 0. -1.
         11    1    3    3    0    0 -0.13733745642E+02 -0.42257178949E+01  0.43389785761E+01  0.15009969901E+02  0.51100000000E-03 0. -1.
        -11    1    3    3    0    0 -0.25901757706E+01  0.25854919819E+01  0.74931243049E+00  0.37356724549E+01  0.51100000000E-03 0.  1.
         12    1    3    3    0    0 -0.42859257834E+00 -0.39950204508E+01  0.31528184628E+02  0.31783176461E+02  0.00000000000E+00 0. -1.
</event>
<event>
 7    1  0.5408841E-013  0.5052886E+02  0.7816164E-02  0.1300439E+00
        -11   -1    0    0    0    0  0.00000000000E+00  0.00000000000E+00  0.45593999997E+02  0.45594000000E+02  0.51100000000E-03 0.  1.
         11   -1    0    0    0    0 -0.00000000000E+00 -0.00000000000E+00 -0.45593999997E+02  0.45594000000E+02  0.51100000000E-03 0. -1.
    9900012    2    1    2    0    0 -0.24530433999E+02  0.19417970480E+02  0.25968557259E+02  0.50528859135E+02  0.29999997828E+02 0.  0.
         12    1    1    2    0    0  0.24530433999E+02 -0.19417970480E+02 -0.25968557259E+02  0.40659140865E+02  0.00000000000E+00 0. -1.
         11    1    3    3    0    0 -0.51768948096E+01  0.93645198427E+01  0.26191772600E+02  0.28293169210E+02  0.51100000000E-03 0. -1.
        -11    1    3    3    0    0 -0.43856942308E+01  0.15678786347E+01  0.16203870044E+01  0.49313498765E+01  0.51100000000E-03 0.  1.
         12    1    3    3    0    0 -0.14967844959E+02  0.84855720024E+01 -0.18436023454E+01  0.17304340049E+02  0.00000000000E+00 0. -1.
</event>
<event>
 7    1  0.5408841E-013  0.5052886E+02  0.7816164E-02  0.1300439E+00
        -11   -1    0    0    0    0  0.00000000000E+00  0.00000000000E+00  0.45593999997E+02  0.45594000000E+02  0.51100000000E-03 0.  1.
         11   -1    0    0    0    0 -0.00000000000E+00 -0.00000000000E+00 -0.45593999997E+02  0.45594000000E+02  0.51100000000E-03 0. -1.
    9900012    2    1    2    0    0  0.29144503432E+02  0.10172119281E+02  0.26463025085E+02  0.50528858499E+02  0.29999995895E+02 0.  0.
         12    1    1    2    0    0 -0.29144503432E+02 -0.10172119281E+02 -0.26463025085E+02  0.40659141501E+02  0.00000000000E+00 0. -1.
         11    1    3    3    0    0  0.13049169031E+02 -0.20495252968E+01  0.14920383173E+02  0.19927348058E+02  0.51100000000E-03 0. -1.
        -11    1    3    3    0    0  0.97474233560E+01 -0.33523438538E+01  0.88165609671E+01  0.13564004532E+02  0.51100000000E-03 0.  1.
        -12    1    3    3    0    0  0.63479110444E+01  0.15573988431E+02  0.27260809447E+01  0.17037505909E+02  0.00000000000E+00 0.  1.
</event>
<event>
 7    1  0.5408841E-013  0.5052886E+02  0.7816164E-02  0.1300439E+00
        -11   -1    0    0    0    0  0.00000000000E+00  0.00000000000E+00  0.45593999997E+02  0.45594000000E+02  0.51100000000E-03 0. -1.
         11   -1    0    0    0    0 -0.00000000000E+00 -0.00000000000E+00 -0.45593999997E+02  0.45594000000E+02  0.51100000000E-03 0.  1.
    9900012    2    1    2    0    0 -0.27955978708E+01  0.40375129712E+02 -0.38985982217E+01  0.50528861608E+02  0.30000005344E+02 0.  0.
         12    1    1    2    0    0  0.27955978708E+01 -0.40375129712E+02  0.38985982217E+01  0.40659138392E+02  0.00000000000E+00 0. -1.
         11    1    3    3    0    0  0.77277551787E+00 -0.34404711612E+01 -0.14041024259E+01  0.37954614602E+01  0.51100000000E-03 0. -1.
        -11    1    3    3    0    0  0.59101257785E+01  0.15526918623E+02 -0.30624665223E+01  0.16893593167E+02  0.51100000000E-03 0.  1.
        -12    1    3    3    0    0 -0.94784991672E+01  0.28288682250E+02  0.56797072648E+00  0.29839806981E+02  0.00000000000E+00 0.  1.
</event>
<event>
 7    1  0.5408841E-013  0.5052885E+02  0.7816164E-02  0.1300439E+00
        -11   -1    0    0    0    0  0.00000000000E+00  0.00000000000E+00  0.45593999997E+02  0.45594000000E+02  0.51100000000E-03 0.  1.
         11   -1    0    0    0    0 -0.00000000000E+00 -0.00000000000E+00 -0.45593999997E+02  0.45594000000E+02  0.51100000000E-03 0. -1.
    9900012    2    1    2    0    0  0.24816212688E+02 -0.23547229414E+02  0.21973842045E+02  0.50528853926E+02  0.29999981993E+02 0.  0.
         12    1    1    2    0    0 -0.24816212688E+02  0.23547229414E+02 -0.21973842045E+02  0.40659146074E+02  0.00000000000E+00 0. -1.
         11    1    3    3    0    0  0.57206197937E+01  0.10890348566E+01  0.80298652380E+01  0.99191846310E+01  0.51100000000E-03 0. -1.
        -11    1    3    3    0    0  0.15891650338E+02 -0.99687061301E+01 -0.18110997113E+01  0.18846743347E+02  0.51100000000E-03 0.  1.
         12    1    3    3    0    0  0.32039425568E+01 -0.14667558140E+02  0.15755076518E+02  0.21762925948E+02  0.00000000000E+00 0. -1.
</event>
<event>
 7    1  0.5408841E-013  0.5052886E+02  0.7816164E-02  0.1300439E+00
        -11   -1    0    0    0    0  0.00000000000E+00  0.00000000000E+00  0.45593999997E+02  0.45594000000E+02  0.51100000000E-03 0.  1.
         11   -1    0    0    0    0 -0.00000000000E+00 -0.00000000000E+00 -0.45593999997E+02  0.45594000000E+02  0.51100000000E-03 0. -1.
    9900012    2    1    2    0    0 -0.18470870403E+02 -0.21455789573E+02  0.29182896035E+02  0.50528863504E+02  0.30000011107E+02 0.  0.
         12    1    1    2    0    0  0.18470870403E+02  0.21455789573E+02 -0.29182896035E+02  0.40659136496E+02  0.00000000000E+00 0. -1.
         11    1    3    3    0    0 -0.91746314729E+01 -0.59890154745E+01  0.22433411308E+02  0.24965979095E+02  0.51100000000E-03 0. -1.
        -11    1    3    3    0    0  0.25147544586E+01 -0.89310503917E+01  0.76624687361E+01  0.12033331977E+02  0.51100000000E-03 0.  1.
         12    1    3    3    0    0 -0.11810993388E+02 -0.65357237070E+01 -0.91298400929E+00  0.13529552431E+02  0.00000000000E+00 0. -1.
</event>
<event>
 7    1  0.5408841E-013  0.5052886E+02  0.7816164E-02  0.1300439E+00
        -11   -1    0    0    0    0  0.00000000000E+00  0.00000000000E+00  0.45593999997E+02  0.45594000000E+02  0.51100000000E-03 0.  1.
         11   -1    0    0    0    0 -0.00000000000E+00 -0.00000000000E+00 -0.45593999997E+02  0.45594000000E+02  0.51100000000E-03 0. -1.
    9900012    2    1    2    0    0 -0.15958594927E+02  0.18859965942E+02  0.32292273571E+02  0.50528855890E+02  0.29999987963E+02 0.  0.
         12    1    1    2    0    0  0.15958594927E+02 -0.18859965942E+02 -0.32292273571E+02  0.40659144110E+02  0.00000000000E+00 0. -1.
         11    1    3    3    0    0 -0.85412754377E+01  0.12884181392E+02  0.74590132387E+01  0.17163694095E+02  0.51100000000E-03 0. -1.
        -11    1    3    3    0    0 -0.24900356195E+01  0.10711296096E+02  0.44436940518E+01  0.11860799237E+02  0.51100000000E-03 0.  1.
         12    1    3    3    0    0 -0.49272838695E+01 -0.47355115455E+01  0.20389566280E+02  0.21504362558E+02  0.00000000000E+00 0. -1.
</event>
<event>
 7    1  0.5408841E-013  0.5052886E+02  0.7816164E-02  0.1300439E+00
        -11   -1    0    0    0    0  0.00000000000E+00  0.00000000000E+00  0.45593999997E+02  0.45594000000E+02  0.51100000000E-03 0.  1.
         11   -1    0    0    0    0 -0.00000000000E+00 -0.00000000000E+00 -0.45593999997E+02  0.45594000000E+02  0.51100000000E-03 0. -1.
    9900012    2    1    2    0    0  0.35858655482E+02 -0.12990932147E+02  0.14091072176E+02  0.50528858272E+02  0.29999995204E+02 0.  0.
         12    1    1    2    0    0 -0.35858655482E+02  0.12990932147E+02 -0.14091072176E+02  0.40659141728E+02  0.00000000000E+00 0. -1.
         11    1    3    3    0    0  0.10209799871E+02 -0.93390545911E+01  0.21064550796E+01  0.13996253331E+02  0.51100000000E-03 0.  1.
        -11    1    3    3    0    0 -0.61011169489E+00 -0.76013590738E+01  0.48466740568E+01  0.90356596728E+01  0.51100000000E-03 0. -1.
        -12    1    3    3    0    0  0.26258967306E+02  0.39494815181E+01  0.71379430392E+01  0.27496945268E+02  0.00000000000E+00 0.  1.
</event>
<event>
 7    1  0.5408841E-013  0.5052886E+02  0.7816164E-02  0.1300439E+00
        -11   -1    0    0    0    0  0.00000000000E+00  0.00000000000E+00  0.45593999997E+02  0.45594000000E+02  0.51100000000E-03 0.  1.
         11   -1    0    0    0    0 -0.00000000000E+00 -0.00000000000E+00 -0.45593999997E+02  0.45594000000E+02  0.51100000000E-03 0. -1.
    9900012    2    1    2    0    0  0.24585507197E+02  0.30840177312E+02  0.98793752912E+01  0.50528858876E+02  0.29999997040E+02 0.  0.
         12    1    1    2    0    0 -0.24585507197E+02 -0.30840177312E+02 -0.98793752912E+01  0.40659141124E+02  0.00000000000E+00 0. -1.
         11    1    3    3    0    0  0.11228266758E+02  0.31327559770E+01  0.86390064900E+01  0.14509326924E+02  0.51100000000E-03 0. -1.
        -11    1    3    3    0    0  0.63165484782E+01 -0.85905140863E+00 -0.12387404986E+01  0.64939381183E+01  0.51100000000E-03 0.  1.
         12    1    3    3    0    0  0.70406919616E+01  0.28566472744E+02  0.24791092998E+01  0.29525593834E+02  0.00000000000E+00 0. -1.
</event>
<event>
 7    1  0.5408841E-013  0.5052889E+02  0.7816164E-02  0.1300439E+00
        -11   -1    0    0    0    0  0.00000000000E+00  0.00000000000E+00  0.45593999997E+02  0.45594000000E+02  0.51100000000E-03 0. -1.
         11   -1    0    0    0    0 -0.00000000000E+00 -0.00000000000E+00 -0.45593999997E+02  0.45594000000E+02  0.51100000000E-03 0.  1.
    9900012    2    1    2    0    0  0.35012900027E+00  0.30073790719E+02 -0.27360695788E+02  0.50528890904E+02  0.30000094390E+02 0.  0.
         12    1    1    2    0    0 -0.35012900027E+00 -0.30073790719E+02  0.27360695788E+02  0.40659109096E+02  0.00000000000E+00 0. -1.
         11    1    3    3    0    0  0.36165788633E+01  0.22541286263E+02 -0.22918272160E+02  0.32348669650E+02  0.51100000000E-03 0. -1.
        -11    1    3    3    0    0 -0.18087536038E+01  0.19732659239E+00 -0.91593541461E+01  0.93383240476E+01  0.51100000000E-03 0.  1.
         12    1    3    3    0    0 -0.14576962593E+01  0.73351778640E+01  0.47169305187E+01  0.88418972059E+01  0.00000000000E+00 0. -1.
</event>
<event>
 7    1  0.5408841E-013  0.5052885E+02  0.7816164E-02  0.1300439E+00
        -11   -1    0    0    0    0  0.00000000000E+00  0.00000000000E+00  0.45593999997E+02  0.45594000000E+02  0.51100000000E-03 0.  1.
         11   -1    0    0    0    0 -0.00000000000E+00 -0.00000000000E+00 -0.45593999997E+02  0.45594000000E+02  0.51100000000E-03 0. -1.
    9900012    2    1    2    0    0 -0.31701561000E+01  0.11888412553E+02  0.38752837801E+02  0.50528847520E+02  0.29999962521E+02 0.  0.
         12    1    1    2    0    0  0.31701561000E+01 -0.11888412553E+02 -0.38752837801E+02  0.40659152480E+02  0.00000000000E+00 0. -1.
         11    1    3    3    0    0  0.44115832016E+01 -0.10774813422E+01  0.17251313017E+02  0.17839025575E+02  0.51100000000E-03 0. -1.
        -11    1    3    3    0    0 -0.35349175148E+01 -0.39900042387E+01  0.11294517145E+02  0.12489271134E+02  0.51100000000E-03 0.  1.
        -12    1    3    3    0    0 -0.40468217868E+01  0.16955898134E+02  0.10207007639E+02  0.20200550811E+02  0.00000000000E+00 0.  1.
</event>
<event>
 7    1  0.5408841E-013  0.5052886E+02  0.7816164E-02  0.1300439E+00
        -11   -1    0    0    0    0  0.00000000000E+00  0.00000000000E+00  0.45593999997E+02  0.45594000000E+02  0.51100000000E-03 0.  1.
         11   -1    0    0    0    0 -0.00000000000E+00 -0.00000000000E+00 -0.45593999997E+02  0.45594000000E+02  0.51100000000E-03 0. -1.
    9900012    2    1    2    0    0 -0.38337705746E+02 -0.12908579943E+02  0.40932216878E+01  0.50528861030E+02  0.30000003586E+02 0.  0.
         12    1    1    2    0    0  0.38337705746E+02  0.12908579943E+02 -0.40932216878E+01  0.40659138970E+02  0.00000000000E+00 0. -1.
         11    1    3    3    0    0  0.27052509354E+01 -0.43155027022E+01 -0.26076496363E+01  0.57220436107E+01  0.51100000000E-03 0. -1.
        -11    1    3    3    0    0 -0.80423642191E+01  0.23939857230E+01  0.54443779107E+01  0.10002601710E+02  0.51100000000E-03 0.  1.
        -12    1    3    3    0    0 -0.33000592462E+02 -0.10987062964E+02  0.12564934133E+01  0.34804215709E+02  0.00000000000E+00 0.  1.
</event>
<event>
 7    1  0.5408841E-013  0.5052886E+02  0.7816164E-02  0.1300439E+00
        -11   -1    0    0    0    0  0.00000000000E+00  0.00000000000E+00  0.45593999997E+02  0.45594000000E+02  0.51100000000E-03 0.  1.
         11   -1    0    0    0    0 -0.00000000000E+00 -0.00000000000E+00 -0.45593999997E+02  0.45594000000E+02  0.51100000000E-03 0. -1.
    9900012    2    1    2    0    0 -0.37088806244E+01 -0.32847741194E+02  0.23673519715E+02  0.50528862863E+02  0.30000009157E+02 0.  0.
         12    1    1    2    0    0  0.37088806244E+01  0.32847741194E+02 -0.23673519715E+02  0.40659137137E+02  0.00000000000E+00 0. -1.
         11    1    3    3    0    0  0.21369136890E+00 -0.25388802987E+02  0.18367086325E+02  0.31336669278E+02  0.51100000000E-03 0. -1.
        -11    1    3    3    0    0 -0.64141554189E+00 -0.11322474702E+02  0.75760862307E+01  0.13638435765E+02  0.51100000000E-03 0.  1.
         12    1    3    3    0    0 -0.32811564514E+01  0.38635364948E+01 -0.22696528405E+01  0.55537578198E+01  0.00000000000E+00 0. -1.
</event>
<event>
 7    1  0.5408841E-013  0.5052885E+02  0.7816164E-02  0.1300439E+00
        -11   -1    0    0    0    0  0.00000000000E+00  0.00000000000E+00  0.45593999997E+02  0.45594000000E+02  0.51100000000E-03 0. -1.
         11   -1    0    0    0    0 -0.00000000000E+00 -0.00000000000E+00 -0.45593999997E+02  0.45594000000E+02  0.51100000000E-03 0.  1.
    9900012    2    1    2    0    0  0.96243569090E+01 -0.21952457505E+01 -0.39442608759E+02  0.50528846842E+02  0.29999960461E+02 0.  0.
         12    1    1    2    0    0 -0.96243569090E+01  0.21952457505E+01  0.39442608759E+02  0.40659153158E+02  0.00000000000E+00 0. -1.
         11    1    3    3    0    0  0.41032586659E+01 -0.17537255522E+01 -0.86678391787E+01  0.97490369411E+01  0.51100000000E-03 0. -1.
        -11    1    3    3    0    0  0.85657159484E+00  0.59034652424E+01 -0.32224869391E+02  0.32772348471E+02  0.51100000000E-03 0.  1.
        -12    1    3    3    0    0  0.46645266483E+01 -0.63449854407E+01  0.14500998106E+01  0.80074614302E+01  0.00000000000E+00 0.  1.
</event>
<event>
 7    1  0.5408841E-013  0.5052886E+02  0.7816164E-02  0.1300439E+00
        -11   -1    0    0    0    0  0.00000000000E+00  0.00000000000E+00  0.45593999997E+02  0.45594000000E+02  0.51100000000E-03 0.  1.
         11   -1    0    0    0    0 -0.00000000000E+00 -0.00000000000E+00 -0.45593999997E+02  0.45594000000E+02  0.51100000000E-03 0. -1.
    9900012    2    1    2    0    0 -0.30619073366E+02  0.18889782463E+02  0.18942387855E+02  0.50528860892E+02  0.30000003169E+02 0.  0.
         12    1    1    2    0    0  0.30619073366E+02 -0.18889782463E+02 -0.18942387855E+02  0.40659139108E+02  0.00000000000E+00 0. -1.
         11    1    3    3    0    0 -0.14776631647E+02  0.20029779194E+01  0.33643218258E+01  0.15286576628E+02  0.51100000000E-03 0.  1.
        -11    1    3    3    0    0 -0.86759102312E+01 -0.32021863169E+01  0.77653033402E+00  0.92805395947E+01  0.51100000000E-03 0. -1.
         12    1    3    3    0    0 -0.71665314877E+01  0.20088990861E+02  0.14801535695E+02  0.25961744670E+02  0.00000000000E+00 0. -1.
</event>
<event>
 7    1  0.5408841E-013  0.5052886E+02  0.7816164E-02  0.1300439E+00
        -11   -1    0    0    0    0  0.00000000000E+00  0.00000000000E+00  0.45593999997E+02  0.45594000000E+02  0.51100000000E-03 0.  1.
         11   -1    0    0    0    0 -0.00000000000E+00 -0.00000000000E+00 -0.45593999997E+02  0.45594000000E+02  0.51100000000E-03 0. -1.
    9900012    2    1    2    0    0  0.32443974113E+02  0.20718687654E+02  0.13087785307E+02  0.50528860824E+02  0.30000002959E+02 0.  0.
         12    1    1    2    0    0 -0.32443974113E+02 -0.20718687654E+02 -0.13087785307E+02  0.40659139176E+02  0.00000000000E+00 0. -1.
         11    1    3    3    0    0  0.21783413523E+02  0.51905916479E+01  0.25698356732E+01  0.22540261800E+02  0.51100000000E-03 0.  1.
        -11    1    3    3    0    0 -0.35710852681E+01  0.12516582892E+00  0.52760854093E+01  0.63722361840E+01  0.51100000000E-03 0. -1.
         12    1    3    3    0    0  0.14231645858E+02  0.15402930177E+02  0.52418642240E+01  0.21616362840E+02  0.00000000000E+00 0. -1.
</event>
<event>
 7    1  0.5408841E-013  0.5052885E+02  0.7816164E-02  0.1300439E+00
        -11   -1    0    0    0    0  0.00000000000E+00  0.00000000000E+00  0.45593999997E+02  0.45594000000E+02  0.51100000000E-03 0.  1.
         11   -1    0    0    0    0 -0.00000000000E+00 -0.00000000000E+00 -0.45593999997E+02  0.45594000000E+02  0.51100000000E-03 0. -1.
    9900012    2    1    2    0    0 -0.29039971469E+02  0.14039354590E+02  0.24753643433E+02  0.50528852401E+02  0.29999977359E+02 0.  0.
         12    1    1    2    0    0  0.29039971469E+02 -0.14039354590E+02 -0.24753643433E+02  0.40659147599E+02  0.00000000000E+00 0. -1.
         11    1    3    3    0    0 -0.11717784080E+02  0.15299775408E+02  0.38325708947E+01  0.19648872518E+02  0.51100000000E-03 0. -1.
        -11    1    3    3    0    0 -0.36498304568E+01  0.23308346044E+01 -0.13194640790E+01  0.45271445783E+01  0.51100000000E-03 0.  1.
        -12    1    3    3    0    0 -0.13672356932E+02 -0.35912554231E+01  0.22240536618E+02  0.26352835306E+02  0.00000000000E+00 0.  1.
</event>
<event>
 7    1  0.5408841E-013  0.5052888E+02  0.7816164E-02  0.1300439E+00
        -11   -1    0    0    0    0  0.00000000000E+00  0.00000000000E+00  0.45593999997E+02  0.45594000000E+02  0.51100000000E-03 0.  1.
         11   -1    0    0    0    0 -0.00000000000E+00 -0.00000000000E+00 -0.45593999997E+02  0.45594000000E+02  0.51100000000E-03 0. -1.
    9900012    2    1    2    0    0 -0.51265665893E+01 -0.23566207748E+02  0.32734026612E+02  0.50528876413E+02  0.30000050346E+02 0.  0.
         12    1    1    2    0    0  0.51265665893E+01  0.23566207748E+02 -0.32734026612E+02  0.40659123587E+02  0.00000000000E+00 0. -1.
         11    1    3    3    0    0 -0.36332590644E+01 -0.14381766133E+01 -0.43587105466E+01  0.58538262094E+01  0.51100000000E-03 0. -1.
        -11    1    3    3    0    0 -0.15893055884E+00 -0.33390932379E+01  0.16214738077E+02  0.16555740205E+02  0.51100000000E-03 0.  1.
        -12    1    3    3    0    0 -0.13343769660E+01 -0.18788937897E+02  0.20877999082E+02  0.28119309999E+02  0.00000000000E+00 0.  1.
</event>
<event>
 7    1  0.5408841E-013  0.5052887E+02  0.7816164E-02  0.1300439E+00
        -11   -1    0    0    0    0  0.00000000000E+00  0.00000000000E+00  0.45593999997E+02  0.45594000000E+02  0.51100000000E-03 0.  1.
         11   -1    0    0    0    0 -0.00000000000E+00 -0.00000000000E+00 -0.45593999997E+02  0.45594000000E+02  0.51100000000E-03 0. -1.
    9900012    2    1    2    0    0 -0.59171562491E+01  0.39615842449E+02 -0.69811821450E+01  0.50528872917E+02  0.30000039717E+02 0.  0.
         12    1    1    2    0    0  0.59171562491E+01 -0.39615842449E+02  0.69811821450E+01  0.40659127083E+02  0.00000000000E+00 0. -1.
         11    1    3    3    0    0 -0.51895823980E+00 -0.40736441399E+01  0.13296855856E-01  0.41065887669E+01  0.51100000000E-03 0. -1.
        -11    1    3    3    0    0  0.31929480232E+01  0.34370673871E+01 -0.13234734836E+01  0.48744160292E+01  0.51100000000E-03 0.  1.
        -12    1    3    3    0    0 -0.85911460325E+01  0.40252419202E+02 -0.56710055172E+01  0.41547868120E+02  0.00000000000E+00 0.  1.
</event>
<event>
 7    1  0.5408841E-013  0.5052886E+02  0.7816164E-02  0.1300439E+00
        -11   -1    0    0    0    0  0.00000000000E+00  0.00000000000E+00  0.45593999997E+02  0.45594000000E+02  0.51100000000E-03 0.  1.
         11   -1    0    0    0    0 -0.00000000000E+00 -0.00000000000E+00 -0.45593999997E+02  0.45594000000E+02  0.51100000000E-03 0. -1.
    9900012    2    1    2    0    0 -0.19951639325E+02  0.34938995241E+02  0.58620994058E+01  0.50528861917E+02  0.30000006283E+02 0.  0.
         12    1    1    2    0    0  0.19951639325E+02 -0.34938995241E+02 -0.58620994058E+01  0.40659138083E+02  0.00000000000E+00 0. -1.
         11    1    3    3    0    0  0.34122271996E+01  0.33913161328E+01  0.16062060277E+01  0.50719047348E+01  0.51100000000E-03 0. -1.
        -11    1    3    3    0    0 -0.45765073506E+01  0.19825674001E+02  0.98663511769E+01  0.22612975367E+02  0.51100000000E-03 0.  1.
        -12    1    3    3    0    0 -0.18787359174E+02  0.11722005107E+02 -0.56104577988E+01  0.22843981816E+02  0.00000000000E+00 0.  1.
</event>
<event>
 7    1  0.5408841E-013  0.5052891E+02  0.7816164E-02  0.1300439E+00
        -11   -1    0    0    0    0  0.00000000000E+00  0.00000000000E+00  0.45593999997E+02  0.45594000000E+02  0.51100000000E-03 0.  1.
         11   -1    0    0    0    0 -0.00000000000E+00 -0.00000000000E+00 -0.45593999997E+02  0.45594000000E+02  0.51100000000E-03 0. -1.
    9900012    2    1    2    0    0 -0.25773965959E+02  0.10873841156E+01  0.31427403263E+02  0.50528912439E+02  0.30000159849E+02 0.  0.
         12    1    1    2    0    0  0.25773965959E+02 -0.10873841156E+01 -0.31427403263E+02  0.40659087561E+02  0.00000000000E+00 0. -1.
         11    1    3    3    0    0 -0.11698879957E+01 -0.25929260455E+01  0.14650348462E+01  0.31997235446E+01  0.51100000000E-03 0. -1.
        -11    1    3    3    0    0  0.53536034252E+01 -0.20529620090E+01  0.75423941648E+01  0.94743565820E+01  0.51100000000E-03 0.  1.
         12    1    3    3    0    0 -0.29957681388E+02  0.57332721701E+01  0.22419974252E+02  0.37854832312E+02  0.00000000000E+00 0. -1.
</event>
<event>
 7    1  0.5408841E-013  0.5052885E+02  0.7816164E-02  0.1300439E+00
        -11   -1    0    0    0    0  0.00000000000E+00  0.00000000000E+00  0.45593999997E+02  0.45594000000E+02  0.51100000000E-03 0.  1.
         11   -1    0    0    0    0 -0.00000000000E+00 -0.00000000000E+00 -0.45593999997E+02  0.45594000000E+02  0.51100000000E-03 0. -1.
    9900012    2    1    2    0    0  0.59084900386E+00  0.34768488441E+02  0.21070591609E+02  0.50528847011E+02  0.29999960974E+02 0.  0.
         12    1    1    2    0    0 -0.59084900386E+00 -0.34768488441E+02 -0.21070591609E+02  0.40659152989E+02  0.00000000000E+00 0. -1.
         11    1    3    3    0    0  0.25770801412E+01  0.10549621678E+02  0.15012860277E+02  0.18528945829E+02  0.51100000000E-03 0. -1.
        -11    1    3    3    0    0  0.54728304116E+00 -0.14943555764E-01  0.75675092187E+01  0.75872879260E+01  0.51100000000E-03 0.  1.
         12    1    3    3    0    0 -0.25335141785E+01  0.24233810320E+02 -0.15097778864E+01  0.24412613256E+02  0.00000000000E+00 0. -1.
</event>
<event>
 7    1  0.5408841E-013  0.5052885E+02  0.7816164E-02  0.1300439E+00
        -11   -1    0    0    0    0  0.00000000000E+00  0.00000000000E+00  0.45593999997E+02  0.45594000000E+02  0.51100000000E-03 0.  1.
         11   -1    0    0    0    0 -0.00000000000E+00 -0.00000000000E+00 -0.45593999997E+02  0.45594000000E+02  0.51100000000E-03 0. -1.
    9900012    2    1    2    0    0 -0.19737102812E+02 -0.35439980758E+02  0.27606216352E+01  0.50528849796E+02  0.29999969439E+02 0.  0.
         12    1    1    2    0    0  0.19737102812E+02  0.35439980758E+02 -0.27606216352E+01  0.40659150204E+02  0.00000000000E+00 0. -1.
         11    1    3    3    0    0 -0.17116806121E+02 -0.28099468297E+02  0.33059286301E+01  0.33068025867E+02  0.51100000000E-03 0. -1.
        -11    1    3    3    0    0 -0.78277412000E+01 -0.57922549313E+01  0.38515354126E+01  0.10471775149E+02  0.51100000000E-03 0.  1.
         12    1    3    3    0    0  0.52074445088E+01 -0.15482575295E+01 -0.43968424074E+01  0.69890487798E+01  0.00000000000E+00 0. -1.
</event>
<event>
 7    1  0.5408841E-013  0.5052886E+02  0.7816164E-02  0.1300439E+00
        -11   -1    0    0    0    0  0.00000000000E+00  0.00000000000E+00  0.45593999997E+02  0.45594000000E+02  0.51100000000E-03 0.  1.
         11   -1    0    0    0    0 -0.00000000000E+00 -0.00000000000E+00 -0.45593999997E+02  0.45594000000E+02  0.51100000000E-03 0. -1.
    9900012    2    1    2    0    0 -0.22130334051E+02 -0.15675382725E+02  0.30293506379E+02  0.50528857886E+02  0.29999994029E+02 0.  0.
         12    1    1    2    0    0  0.22130334051E+02  0.15675382725E+02 -0.30293506379E+02  0.40659142114E+02  0.00000000000E+00 0. -1.
         11    1    3    3    0    0 -0.88340683040E+01 -0.68189780489E+01  0.98677080518E+01  0.14896673685E+02  0.51100000000E-03 0. -1.
        -11    1    3    3    0    0 -0.12668726670E+02 -0.14641553609E+02  0.22287121215E+02  0.29522660785E+02  0.51100000000E-03 0.  1.
         12    1    3    3    0    0 -0.62753907623E+00  0.57851489325E+01 -0.18613228883E+01  0.61095234149E+01  0.00000000000E+00 0. -1.
</event>
<event>
 7    1  0.5408841E-013  0.5052886E+02  0.7816164E-02  0.1300439E+00
        -11   -1    0    0    0    0  0.00000000000E+00  0.00000000000E+00  0.45593999997E+02  0.45594000000E+02  0.51100000000E-03 0.  1.
         11   -1    0    0    0    0 -0.00000000000E+00 -0.00000000000E+00 -0.45593999997E+02  0.45594000000E+02  0.51100000000E-03 0. -1.
    9900012    2    1    2    0    0 -0.18935597412E+02 -0.23492918495E+02  0.27252371030E+02  0.50528858402E+02  0.29999995597E+02 0.  0.
         12    1    1    2    0    0  0.18935597412E+02  0.23492918495E+02 -0.27252371030E+02  0.40659141598E+02  0.00000000000E+00 0. -1.
         11    1    3    3    0    0 -0.14003782724E+02 -0.60250540848E+01  0.42571753702E+01  0.15828163181E+02  0.51100000000E-03 0. -1.
        -11    1    3    3    0    0 -0.87258778130E+00  0.29631004146E+00  0.14614964353E+02  0.14643988268E+02  0.51100000000E-03 0.  1.
         12    1    3    3    0    0 -0.40592269069E+01 -0.17764174451E+02  0.83802313066E+01  0.20056706952E+02  0.00000000000E+00 0. -1.
</event>
<event>
 7    1  0.5408841E-013  0.5052886E+02  0.7816164E-02  0.1300439E+00
        -11   -1    0    0    0    0  0.00000000000E+00  0.00000000000E+00  0.45593999997E+02  0.45594000000E+02  0.51100000000E-03 0.  1.
         11   -1    0    0    0    0 -0.00000000000E+00 -0.00000000000E+00 -0.45593999997E+02  0.45594000000E+02  0.51100000000E-03 0. -1.
    9900012    2    1    2    0    0 -0.31980903466E+02 -0.17776023744E+02  0.17731337464E+02  0.50528861606E+02  0.30000005339E+02 0.  0.
         12    1    1    2    0    0  0.31980903466E+02  0.17776023744E+02 -0.17731337464E+02  0.40659138394E+02  0.00000000000E+00 0. -1.
         11    1    3    3    0    0 -0.75969426967E+01 -0.11006846490E+02  0.80670109356E+01  0.15618606650E+02  0.51100000000E-03 0. -1.
        -11    1    3    3    0    0 -0.21774535254E+02 -0.62483631362E+01  0.16202554412E+02  0.27851305125E+02  0.51100000000E-03 0.  1.
         12    1    3    3    0    0 -0.26094255155E+01 -0.52081411761E+00 -0.65382278840E+01  0.70589498318E+01  0.00000000000E+00 0. -1.
</event>
<event>
 7    1  0.5408841E-013  0.5052886E+02  0.7816164E-02  0.1300439E+00
        -11   -1    0    0    0    0  0.00000000000E+00  0.00000000000E+00  0.45593999997E+02  0.45594000000E+02  0.51100000000E-03 0. -1.
         11   -1    0    0    0    0 -0.00000000000E+00 -0.00000000000E+00 -0.45593999997E+02  0.45594000000E+02  0.51100000000E-03 0.  1.
    9900012    2    1    2    0    0  0.28537711605E+02  0.23730742492E+02 -0.16601702891E+02  0.50528860047E+02  0.30000000599E+02 0.  0.
         12    1    1    2    0    0 -0.28537711605E+02 -0.23730742492E+02  0.16601702891E+02  0.40659139953E+02  0.00000000000E+00 0. -1.
         11    1    3    3    0    0 -0.10904589984E+00  0.24017669508E+00  0.31677857623E+01  0.31787486138E+01  0.51100000000E-03 0. -1.
        -11    1    3    3    0    0  0.30107393393E+02  0.14141817537E+02 -0.12989214677E+02  0.35709464269E+02  0.51100000000E-03 0.  1.
         12    1    3    3    0    0 -0.14606358881E+01  0.93487482595E+01 -0.67802739758E+01  0.11640647164E+02  0.00000000000E+00 0. -1.
</event>
<event>
 7    1  0.5408841E-013  0.5052885E+02  0.7816164E-02  0.1300439E+00
        -11   -1    0    0    0    0  0.00000000000E+00  0.00000000000E+00  0.45593999997E+02  0.45594000000E+02  0.51100000000E-03 0.  1.
         11   -1    0    0    0    0 -0.00000000000E+00 -0.00000000000E+00 -0.45593999997E+02  0.45594000000E+02  0.51100000000E-03 0. -1.
    9900012    2    1    2    0    0 -0.26025076885E+02  0.29550408105E+02 -0.10130893587E+02  0.50528852802E+02  0.29999978576E+02 0.  0.
         12    1    1    2    0    0  0.26025076885E+02 -0.29550408105E+02  0.10130893587E+02  0.40659147198E+02  0.00000000000E+00 0. -1.
         11    1    3    3    0    0 -0.75197198372E+01 -0.31820629235E+01 -0.16478834236E+01  0.83298998144E+01  0.51100000000E-03 0. -1.
        -11    1    3    3    0    0  0.11100573654E+01  0.55907080462E+00 -0.40752569997E+01  0.42605759462E+01  0.51100000000E-03 0.  1.
        -12    1    3    3    0    0 -0.19615414413E+02  0.32173400224E+02 -0.44077531634E+01  0.37938377041E+02  0.00000000000E+00 0.  1.
</event>
<event>
 7    1  0.5408841E-013  0.5052883E+02  0.7816164E-02  0.1300439E+00
        -11   -1    0    0    0    0  0.00000000000E+00  0.00000000000E+00  0.45593999997E+02  0.45594000000E+02  0.51100000000E-03 0. -1.
         11   -1    0    0    0    0 -0.00000000000E+00 -0.00000000000E+00 -0.45593999997E+02  0.45594000000E+02  0.51100000000E-03 0.  1.
    9900012    2    1    2    0    0 -0.15551085280E+02  0.39066206368E+01 -0.37364024687E+02  0.50528827862E+02  0.29999902769E+02 0.  0.
         12    1    1    2    0    0  0.15551085280E+02 -0.39066206368E+01  0.37364024687E+02  0.40659172138E+02  0.00000000000E+00 0. -1.
         11    1    3    3    0    0 -0.47026703803E+01 -0.76678201499E+01 -0.66437820190E+01  0.11182594258E+02  0.51100000000E-03 0. -1.
        -11    1    3    3    0    0 -0.12228158257E+02  0.24256319372E+01 -0.79953578774E+01  0.14810040260E+02  0.51100000000E-03 0.  1.
         12    1    3    3    0    0  0.13797433570E+01  0.91488088496E+01 -0.22724884790E+02  0.24536193344E+02  0.00000000000E+00 0. -1.
</event>
<event>
 7    1  0.5408841E-013  0.5052893E+02  0.7816164E-02  0.1300439E+00
        -11   -1    0    0    0    0  0.00000000000E+00  0.00000000000E+00  0.45593999997E+02  0.45594000000E+02  0.51100000000E-03 0. -1.
         11   -1    0    0    0    0 -0.00000000000E+00 -0.00000000000E+00 -0.45593999997E+02  0.45594000000E+02  0.51100000000E-03 0.  1.
    9900012    2    1    2    0    0 -0.15690553496E+01  0.26619147464E+02  0.30693956636E+02  0.50528930651E+02  0.30000215205E+02 0.  0.
         12    1    1    2    0    0  0.15690553496E+01 -0.26619147464E+02 -0.30693956636E+02  0.40659069349E+02  0.00000000000E+00 0. -1.
         11    1    3    3    0    0 -0.24893361671E+01  0.17285578318E+02  0.97673403452E+01  0.20009721388E+02  0.51100000000E-03 0. -1.
        -11    1    3    3    0    0 -0.49848513800E+01  0.96826235783E+01  0.25101002426E+01  0.11175980768E+02  0.51100000000E-03 0.  1.
         12    1    3    3    0    0  0.59051321975E+01 -0.34905443241E+00  0.18416516048E+02  0.19343228495E+02  0.00000000000E+00 0. -1.
</event>
<event>
 7    1  0.5408841E-013  0.5052886E+02  0.7816164E-02  0.1300439E+00
        -11   -1    0    0    0    0  0.00000000000E+00  0.00000000000E+00  0.45593999997E+02  0.45594000000E+02  0.51100000000E-03 0. -1.
         11   -1    0    0    0    0 -0.00000000000E+00 -0.00000000000E+00 -0.45593999997E+02  0.45594000000E+02  0.51100000000E-03 0.  1.
    9900012    2    1    2    0    0  0.36263851651E+02  0.17664950476E+02  0.51037160688E+01  0.50528864131E+02  0.30000013013E+02 0.  0.
         12    1    1    2    0    0 -0.36263851651E+02 -0.17664950476E+02 -0.51037160688E+01  0.40659135869E+02  0.00000000000E+00 0. -1.
         11    1    3    3    0    0 -0.31150404629E+01 -0.12806014430E+01  0.35107132556E+01  0.48650308289E+01  0.51100000000E-03 0. -1.
        -11    1    3    3    0    0  0.25987616055E+02  0.13530611270E+02  0.71972924092E+01  0.30170095257E+02  0.51100000000E-03 0.  1.
        -12    1    3    3    0    0  0.13391276059E+02  0.54149406491E+01 -0.56042895961E+01  0.15493738045E+02  0.00000000000E+00 0.  1.
</event>
<event>
 7    1  0.5408841E-013  0.5052891E+02  0.7816164E-02  0.1300439E+00
        -11   -1    0    0    0    0  0.00000000000E+00  0.00000000000E+00  0.45593999997E+02  0.45594000000E+02  0.51100000000E-03 0. -1.
         11   -1    0    0    0    0 -0.00000000000E+00 -0.00000000000E+00 -0.45593999997E+02  0.45594000000E+02  0.51100000000E-03 0.  1.
    9900012    2    1    2    0    0 -0.32377012890E+02 -0.20410156236E+02 -0.13722844263E+02  0.50528906357E+02  0.30000141362E+02 0.  0.
         12    1    1    2    0    0  0.32377012890E+02  0.20410156236E+02  0.13722844263E+02  0.40659093643E+02  0.00000000000E+00 0. -1.
         11    1    3    3    0    0 -0.44220166676E+00  0.27335156468E+01  0.13206220260E+01  0.30678482528E+01  0.51100000000E-03 0. -1.
        -11    1    3    3    0    0 -0.23584774743E+01  0.27529613362E+01 -0.61768416881E+01  0.71620238491E+01  0.51100000000E-03 0.  1.
        -12    1    3    3    0    0 -0.29576333749E+02 -0.25896633219E+02 -0.88666246005E+01  0.40299034255E+02  0.00000000000E+00 0.  1.
</event>
<event>
 7    1  0.5408841E-013  0.5052885E+02  0.7816164E-02  0.1300439E+00
        -11   -1    0    0    0    0  0.00000000000E+00  0.00000000000E+00  0.45593999997E+02  0.45594000000E+02  0.51100000000E-03 0. -1.
         11   -1    0    0    0    0 -0.00000000000E+00 -0.00000000000E+00 -0.45593999997E+02  0.45594000000E+02  0.51100000000E-03 0.  1.
    9900012    2    1    2    0    0 -0.28792013202E+02  0.53969161501E+01 -0.28196800800E+02  0.50528852155E+02  0.29999976609E+02 0.  0.
         12    1    1    2    0    0  0.28792013202E+02 -0.53969161501E+01  0.28196800800E+02  0.40659147845E+02  0.00000000000E+00 0. -1.
         11    1    3    3    0    0  0.26527456487E+00 -0.20538706340E+01 -0.64565804939E+01  0.67805742464E+01  0.51100000000E-03 0. -1.
        -11    1    3    3    0    0 -0.17216872132E+02 -0.62678571050E+01 -0.17052957424E+02  0.25030183297E+02  0.51100000000E-03 0.  1.
         12    1    3    3    0    0 -0.11840415635E+02  0.13718643889E+02 -0.46872628819E+01  0.18718094612E+02  0.00000000000E+00 0. -1.
</event>
<event>
 7    1  0.5408841E-013  0.5052887E+02  0.7816164E-02  0.1300439E+00
        -11   -1    0    0    0    0  0.00000000000E+00  0.00000000000E+00  0.45593999997E+02  0.45594000000E+02  0.51100000000E-03 0.  1.
         11   -1    0    0    0    0 -0.00000000000E+00 -0.00000000000E+00 -0.45593999997E+02  0.45594000000E+02  0.51100000000E-03 0. -1.
    9900012    2    1    2    0    0 -0.30409604492E+02 -0.25899830019E+02 -0.75907781668E+01  0.50528866296E+02  0.30000019594E+02 0.  0.
         12    1    1    2    0    0  0.30409604492E+02  0.25899830019E+02  0.75907781668E+01  0.40659133704E+02  0.00000000000E+00 0. -1.
         11    1    3    3    0    0 -0.59516384835E+01 -0.85737686517E+01  0.52165422647E+01  0.11668068520E+02  0.51100000000E-03 0. -1.
        -11    1    3    3    0    0 -0.22856926641E+02 -0.49831028385E+01 -0.43024602786E+01  0.23786163501E+02  0.51100000000E-03 0.  1.
         12    1    3    3    0    0 -0.16010393669E+01 -0.12342958529E+02 -0.85048601529E+01  0.15074634275E+02  0.00000000000E+00 0. -1.
</event>
<event>
 7    1  0.5408841E-013  0.5052888E+02  0.7816164E-02  0.1300439E+00
        -11   -1    0    0    0    0  0.00000000000E+00  0.00000000000E+00  0.45593999997E+02  0.45594000000E+02  0.51100000000E-03 0.  1.
         11   -1    0    0    0    0 -0.00000000000E+00 -0.00000000000E+00 -0.45593999997E+02  0.45594000000E+02  0.51100000000E-03 0. -1.
    9900012    2    1    2    0    0  0.37820690162E+02 -0.11379219977E+02  0.96577821601E+01  0.50528880385E+02  0.30000062417E+02 0.  0.
         12    1    1    2    0    0 -0.37820690162E+02  0.11379219977E+02 -0.96577821601E+01  0.40659119615E+02  0.00000000000E+00 0. -1.
         11    1    3    3    0    0  0.95070132681E+01  0.13512079681E+01 -0.70177123564E+01  0.11893584457E+02  0.51100000000E-03 0. -1.
        -11    1    3    3    0    0  0.59914153508E+01 -0.46934580436E+01 -0.26253898471E+01  0.80509799666E+01  0.51100000000E-03 0.  1.
         12    1    3    3    0    0  0.22322261543E+02 -0.80369699012E+01  0.19300884364E+02  0.30584315961E+02  0.00000000000E+00 0. -1.
</event>
<event>
 7    1  0.5408841E-013  0.5052886E+02  0.7816164E-02  0.1300439E+00
        -11   -1    0    0    0    0  0.00000000000E+00  0.00000000000E+00  0.45593999997E+02  0.45594000000E+02  0.51100000000E-03 0. -1.
         11   -1    0    0    0    0 -0.00000000000E+00 -0.00000000000E+00 -0.45593999997E+02  0.45594000000E+02  0.51100000000E-03 0.  1.
    9900012    2    1    2    0    0  0.76487337723E+00  0.36865382719E+02  0.17132541519E+02  0.50528862611E+02  0.30000008393E+02 0.  0.
         12    1    1    2    0    0 -0.76487337723E+00 -0.36865382719E+02 -0.17132541519E+02  0.40659137389E+02  0.00000000000E+00 0. -1.
         11    1    3    3    0    0  0.47854893003E+01  0.31663735045E+02  0.23855790115E+02  0.39932339614E+02  0.51100000000E-03 0. -1.
        -11    1    3    3    0    0 -0.15187937129E+01  0.24475073130E+01  0.36173107078E-01  0.28806831038E+01  0.51100000000E-03 0.  1.
         12    1    3    3    0    0 -0.25018222101E+01  0.27541403613E+01 -0.67594217025E+01  0.77158398929E+01  0.00000000000E+00 0. -1.
</event>
<event>
 7    1  0.5408841E-013  0.5052886E+02  0.7816164E-02  0.1300439E+00
        -11   -1    0    0    0    0  0.00000000000E+00  0.00000000000E+00  0.45593999997E+02  0.45594000000E+02  0.51100000000E-03 0. -1.
         11   -1    0    0    0    0 -0.00000000000E+00 -0.00000000000E+00 -0.45593999997E+02  0.45594000000E+02  0.51100000000E-03 0.  1.
    9900012    2    1    2    0    0  0.16202438434E+02  0.32575389149E+02 -0.18151888683E+02  0.50528855245E+02  0.29999986004E+02 0.  0.
         12    1    1    2    0    0 -0.16202438434E+02 -0.32575389149E+02  0.18151888683E+02  0.40659144755E+02  0.00000000000E+00 0. -1.
         11    1    3    3    0    0 -0.19492631413E+01 -0.30286332144E+01  0.14225971776E+01  0.38724706497E+01  0.51100000000E-03 0. -1.
        -11    1    3    3    0    0  0.10496983045E+02  0.69245373912E+01 -0.44293587701E+01  0.13332482534E+02  0.51100000000E-03 0.  1.
        -12    1    3    3    0    0  0.76547185302E+01  0.28679484972E+02 -0.15145127091E+02  0.33323902062E+02  0.00000000000E+00 0.  1.
</event>
<event>
 7    1  0.5408841E-013  0.5052886E+02  0.7816164E-02  0.1300439E+00
        -11   -1    0    0    0    0  0.00000000000E+00  0.00000000000E+00  0.45593999997E+02  0.45594000000E+02  0.51100000000E-03 0.  1.
         11   -1    0    0    0    0 -0.00000000000E+00 -0.00000000000E+00 -0.45593999997E+02  0.45594000000E+02  0.51100000000E-03 0. -1.
    9900012    2    1    2    0    0  0.12415062753E+02  0.25372906945E+02  0.29244620218E+02  0.50528855867E+02  0.29999987892E+02 0.  0.
         12    1    1    2    0    0 -0.12415062753E+02 -0.25372906945E+02 -0.29244620218E+02  0.40659144133E+02  0.00000000000E+00 0. -1.
         11    1    3    3    0    0  0.43900876358E+01  0.14903563615E+01  0.10805164631E+01  0.47604146481E+01  0.51100000000E-03 0. -1.
        -11    1    3    3    0    0  0.15735106514E+02  0.71425084519E+01  0.10387134632E+02  0.20161884091E+02  0.51100000000E-03 0.  1.
        -12    1    3    3    0    0 -0.77101313970E+01  0.16740042131E+02  0.17776969122E+02  0.25606557127E+02  0.00000000000E+00 0.  1.
</event>
<event>
 7    1  0.5408841E-013  0.5052886E+02  0.7816164E-02  0.1300439E+00
        -11   -1    0    0    0    0  0.00000000000E+00  0.00000000000E+00  0.45593999997E+02  0.45594000000E+02  0.51100000000E-03 0.  1.
         11   -1    0    0    0    0 -0.00000000000E+00 -0.00000000000E+00 -0.45593999997E+02  0.45594000000E+02  0.51100000000E-03 0. -1.
    9900012    2    1    2    0    0  0.18111416132E+02 -0.71779468022E+01  0.35687808803E+02  0.50528855742E+02  0.29999987515E+02 0.  0.
         12    1    1    2    0    0 -0.18111416132E+02  0.71779468022E+01 -0.35687808803E+02  0.40659144258E+02  0.00000000000E+00 0. -1.
         11    1    3    3    0    0  0.28095147391E+01  0.31524904531E+01  0.18969814472E+00  0.42270030487E+01  0.51100000000E-03 0. -1.
        -11    1    3    3    0    0  0.44037970103E+01  0.59139949955E+01  0.20091412430E+02  0.21401719992E+02  0.51100000000E-03 0.  1.
        -12    1    3    3    0    0  0.10898104382E+02 -0.16244432251E+02  0.15406698228E+02  0.24900132702E+02  0.00000000000E+00 0.  1.
</event>
<event>
 7    1  0.5408841E-013  0.5052887E+02  0.7816164E-02  0.1300439E+00
        -11   -1    0    0    0    0  0.00000000000E+00  0.00000000000E+00  0.45593999997E+02  0.45594000000E+02  0.51100000000E-03 0. -1.
         11   -1    0    0    0    0 -0.00000000000E+00 -0.00000000000E+00 -0.45593999997E+02  0.45594000000E+02  0.51100000000E-03 0.  1.
    9900012    2    1    2    0    0  0.21252302815E+02 -0.32271281041E+02 -0.12651829202E+02  0.50528871417E+02  0.30000035160E+02 0.  0.
         12    1    1    2    0    0 -0.21252302815E+02  0.32271281041E+02  0.12651829202E+02  0.40659128583E+02  0.00000000000E+00 0. -1.
         11    1    3    3    0    0  0.27551859460E+02 -0.23745898762E+02 -0.73115592675E+01  0.37100290658E+02  0.51100000000E-03 0. -1.
        -11    1    3    3    0    0  0.35640167273E+00 -0.14069426739E+00 -0.22552519602E+01  0.22875704786E+01  0.51100000000E-03 0.  1.
        -12    1    3    3    0    0 -0.66559583177E+01 -0.83846880111E+01 -0.30850179743E+01  0.11141010281E+02  0.00000000000E+00 0.  1.
</event>
<event>
 7    1  0.5408841E-013  0.5052886E+02  0.7816164E-02  0.1300439E+00
        -11   -1    0    0    0    0  0.00000000000E+00  0.00000000000E+00  0.45593999997E+02  0.45594000000E+02  0.51100000000E-03 0. -1.
         11   -1    0    0    0    0 -0.00000000000E+00 -0.00000000000E+00 -0.45593999997E+02  0.45594000000E+02  0.51100000000E-03 0.  1.
    9900012    2    1    2    0    0  0.24965428270E+02 -0.30434282931E+02 -0.10180747220E+02  0.50528858345E+02  0.29999995424E+02 0.  0.
         12    1    1    2    0    0 -0.24965428270E+02  0.30434282931E+02  0.10180747220E+02  0.40659141655E+02  0.00000000000E+00 0. -1.
         11    1    3    3    0    0  0.13614438882E+01 -0.16207525502E+01 -0.20987258741E+01  0.29807748733E+01  0.51100000000E-03 0. -1.
        -11    1    3    3    0    0  0.17052940136E+02 -0.46455179438E+01 -0.13112917073E+02  0.22007548675E+02  0.51100000000E-03 0.  1.
         12    1    3    3    0    0  0.65510442454E+01 -0.24168012437E+02  0.50308957274E+01  0.25540534796E+02  0.00000000000E+00 0. -1.
</event>
<event>
 7    1  0.5408841E-013  0.5052886E+02  0.7816164E-02  0.1300439E+00
        -11   -1    0    0    0    0  0.00000000000E+00  0.00000000000E+00  0.45593999997E+02  0.45594000000E+02  0.51100000000E-03 0.  1.
         11   -1    0    0    0    0 -0.00000000000E+00 -0.00000000000E+00 -0.45593999997E+02  0.45594000000E+02  0.51100000000E-03 0. -1.
    9900012    2    1    2    0    0  0.20057545893E+02 -0.22718881987E+02  0.27105581979E+02  0.50528864245E+02  0.30000013358E+02 0.  0.
         12    1    1    2    0    0 -0.20057545893E+02  0.22718881987E+02 -0.27105581979E+02  0.40659135755E+02  0.00000000000E+00 0. -1.
         11    1    3    3    0    0  0.88485827164E+01  0.16677066056E+01  0.58783706924E+01  0.10753320588E+02  0.51100000000E-03 0. -1.
        -11    1    3    3    0    0  0.11494710405E+02 -0.16768482212E+02  0.24188286926E+02  0.31597208542E+02  0.51100000000E-03 0.  1.
         12    1    3    3    0    0 -0.28574722804E+00 -0.76181063805E+01 -0.29610756395E+01  0.81783351145E+01  0.00000000000E+00 0. -1.
</event>
<event>
 7    1  0.5408841E-013  0.5052886E+02  0.7816164E-02  0.1300439E+00
        -11   -1    0    0    0    0  0.00000000000E+00  0.00000000000E+00  0.45593999997E+02  0.45594000000E+02  0.51100000000E-03 0. -1.
         11   -1    0    0    0    0 -0.00000000000E+00 -0.00000000000E+00 -0.45593999997E+02  0.45594000000E+02  0.51100000000E-03 0.  1.
    9900012    2    1    2    0    0 -0.29660609025E+02 -0.22223265254E+02 -0.16719467289E+02  0.50528857944E+02  0.29999994206E+02 0.  0.
         12    1    1    2    0    0  0.29660609025E+02  0.22223265254E+02  0.16719467289E+02  0.40659142056E+02  0.00000000000E+00 0. -1.
         11    1    3    3    0    0 -0.23717949460E+01  0.15946265488E+01  0.80991323264E-01  0.28591615819E+01  0.51100000000E-03 0. -1.
        -11    1    3    3    0    0  0.38652258193E+01 -0.72314907067E+01  0.78486856233E+00  0.82371383014E+01  0.51100000000E-03 0.  1.
        -12    1    3    3    0    0 -0.31154039898E+02 -0.16586401097E+02 -0.17585327175E+02  0.39432558060E+02  0.00000000000E+00 0.  1.
</event>
<event>
 7    1  0.5408841E-013  0.5052887E+02  0.7816164E-02  0.1300439E+00
        -11   -1    0    0    0    0  0.00000000000E+00  0.00000000000E+00  0.45593999997E+02  0.45594000000E+02  0.51100000000E-03 0.  1.
         11   -1    0    0    0    0 -0.00000000000E+00 -0.00000000000E+00 -0.45593999997E+02  0.45594000000E+02  0.51100000000E-03 0. -1.
    9900012    2    1    2    0    0  0.65577075266E+01  0.39496573365E+02 -0.70839472051E+01  0.50528866419E+02  0.30000019966E+02 0.  0.
         12    1    1    2    0    0 -0.65577075266E+01 -0.39496573365E+02  0.70839472051E+01  0.40659133581E+02  0.00000000000E+00 0. -1.
         11    1    3    3    0    0 -0.52419285611E+01  0.92814986161E+01 -0.12624741044E+02  0.16522957311E+02  0.51100000000E-03 0. -1.
        -11    1    3    3    0    0  0.73225566783E+01  0.10202721707E+02 -0.67774571497E+00  0.12576752604E+02  0.51100000000E-03 0.  1.
        -12    1    3    3    0    0  0.44770794095E+01  0.20012353042E+02  0.62185395538E+01  0.21429156504E+02  0.00000000000E+00 0.  1.
</event>
<event>
 7    1  0.5408841E-013  0.5052887E+02  0.7816164E-02  0.1300439E+00
        -11   -1    0    0    0    0  0.00000000000E+00  0.00000000000E+00  0.45593999997E+02  0.45594000000E+02  0.51100000000E-03 0. -1.
         11   -1    0    0    0    0 -0.00000000000E+00 -0.00000000000E+00 -0.45593999997E+02  0.45594000000E+02  0.51100000000E-03 0.  1.
    9900012    2    1    2    0    0  0.30773913733E+02  0.15389160304E+02 -0.21663448238E+02  0.50528868051E+02  0.30000024928E+02 0.  0.
         12    1    1    2    0    0 -0.30773913733E+02 -0.15389160304E+02  0.21663448238E+02  0.40659131949E+02  0.00000000000E+00 0. -1.
         11    1    3    3    0    0  0.96525863962E+01  0.39817155726E+01 -0.11505353449E+02  0.15537040944E+02  0.51100000000E-03 0. -1.
        -11    1    3    3    0    0  0.31457018527E+01 -0.70458194915E+01 -0.20315325411E+01  0.79791062895E+01  0.51100000000E-03 0.  1.
        -12    1    3    3    0    0  0.17975625484E+02  0.18453264223E+02 -0.81265622477E+01  0.27012720818E+02  0.00000000000E+00 0.  1.
</event>
<event>
 7    1  0.5408841E-013  0.5052889E+02  0.7816164E-02  0.1300439E+00
        -11   -1    0    0    0    0  0.00000000000E+00  0.00000000000E+00  0.45593999997E+02  0.45594000000E+02  0.51100000000E-03 0.  1.
         11   -1    0    0    0    0 -0.00000000000E+00 -0.00000000000E+00 -0.45593999997E+02  0.45594000000E+02  0.51100000000E-03 0. -1.
    9900012    2    1    2    0    0  0.16843874961E+02  0.25685184208E+02  0.26640545950E+02  0.50528886630E+02  0.30000081400E+02 0.  0.
         12    1    1    2    0    0 -0.16843874961E+02 -0.25685184208E+02 -0.26640545950E+02  0.40659113370E+02  0.00000000000E+00 0. -1.
         11    1    3    3    0    0  0.79614813476E+01  0.16997062767E+02  0.39471283097E+01  0.19179811003E+02  0.51100000000E-03 0. -1.
        -11    1    3    3    0    0  0.10875242207E+02  0.11190717117E+02  0.10661105832E+02  0.18898735949E+02  0.51100000000E-03 0.  1.
         12    1    3    3    0    0 -0.19928485936E+01 -0.25025956756E+01  0.12032311809E+02  0.12450339678E+02  0.00000000000E+00 0. -1.
</event>
<event>
 7    1  0.5408841E-013  0.5052885E+02  0.7816164E-02  0.1300439E+00
        -11   -1    0    0    0    0  0.00000000000E+00  0.00000000000E+00  0.45593999997E+02  0.45594000000E+02  0.51100000000E-03 0. -1.
         11   -1    0    0    0    0 -0.00000000000E+00 -0.00000000000E+00 -0.45593999997E+02  0.45594000000E+02  0.51100000000E-03 0.  1.
    9900012    2    1    2    0    0  0.70839011488E+01  0.38135617896E+02 -0.12192586753E+02  0.50528853680E+02  0.29999981244E+02 0.  0.
         12    1    1    2    0    0 -0.70839011488E+01 -0.38135617896E+02  0.12192586753E+02  0.40659146320E+02  0.00000000000E+00 0. -1.
         11    1    3    3    0    0  0.12488017262E-01  0.32144508875E+02 -0.84857626646E+01  0.33245718146E+02  0.51100000000E-03 0. -1.
        -11    1    3    3    0    0 -0.13116720788E+01  0.69789410179E+01 -0.50799514607E+01  0.87310943459E+01  0.51100000000E-03 0.  1.
         12    1    3    3    0    0  0.83830852103E+01 -0.98783199732E+00  0.13731273718E+01  0.85520411878E+01  0.00000000000E+00 0. -1.
</event>
<event>
 7    1  0.5408841E-013  0.5052883E+02  0.7816164E-02  0.1300439E+00
        -11   -1    0    0    0    0  0.00000000000E+00  0.00000000000E+00  0.45593999997E+02  0.45594000000E+02  0.51100000000E-03 0.  1.
         11   -1    0    0    0    0 -0.00000000000E+00 -0.00000000000E+00 -0.45593999997E+02  0.45594000000E+02  0.51100000000E-03 0. -1.
    9900012    2    1    2    0    0  0.16519593297E+01 -0.27749962194E+02  0.29671171599E+02  0.50528833807E+02  0.29999920841E+02 0.  0.
         12    1    1    2    0    0 -0.16519593297E+01  0.27749962194E+02 -0.29671171599E+02  0.40659166193E+02  0.00000000000E+00 0. -1.
         11    1    3    3    0    0 -0.78966000348E+00  0.65512900658E+00  0.26799411364E+01  0.28696413874E+01  0.51100000000E-03 0. -1.
        -11    1    3    3    0    0  0.85634024527E+01 -0.19403814351E+02  0.29648602041E+02  0.36453799201E+02  0.51100000000E-03 0.  1.
         12    1    3    3    0    0 -0.61217831196E+01 -0.90012768498E+01 -0.26573715783E+01  0.11205393219E+02  0.00000000000E+00 0. -1.
</event>
<event>
 7    1  0.5408841E-013  0.5052886E+02  0.7816164E-02  0.1300439E+00
        -11   -1    0    0    0    0  0.00000000000E+00  0.00000000000E+00  0.45593999997E+02  0.45594000000E+02  0.51100000000E-03 0. -1.
         11   -1    0    0    0    0 -0.00000000000E+00 -0.00000000000E+00 -0.45593999997E+02  0.45594000000E+02  0.51100000000E-03 0.  1.
    9900012    2    1    2    0    0  0.99913638464E+01 -0.95038986672E+01 -0.38249367495E+02  0.50528861357E+02  0.30000004582E+02 0.  0.
         12    1    1    2    0    0 -0.99913638464E+01  0.95038986672E+01  0.38249367495E+02  0.40659138643E+02  0.00000000000E+00 0. -1.
         11    1    3    3    0    0  0.91421992688E+01  0.34376358013E+01 -0.15224425462E+02  0.18088125339E+02  0.51100000000E-03 0. -1.
        -11    1    3    3    0    0 -0.64579398128E+01 -0.20436303770E+00 -0.13419168789E+02  0.14893651068E+02  0.51100000000E-03 0.  1.
        -12    1    3    3    0    0  0.73071043904E+01 -0.12737171431E+02 -0.96057732433E+01  0.17547084950E+02  0.00000000000E+00 0.  1.
</event>
<event>
 7    1  0.5408841E-013  0.5052886E+02  0.7816164E-02  0.1300439E+00
        -11   -1    0    0    0    0  0.00000000000E+00  0.00000000000E+00  0.45593999997E+02  0.45594000000E+02  0.51100000000E-03 0.  1.
         11   -1    0    0    0    0 -0.00000000000E+00 -0.00000000000E+00 -0.45593999997E+02  0.45594000000E+02  0.51100000000E-03 0. -1.
    9900012    2    1    2    0    0  0.38723631055E+02  0.60063053538E+01  0.10842993604E+02  0.50528858145E+02  0.29999994817E+02 0.  0.
         12    1    1    2    0    0 -0.38723631055E+02 -0.60063053538E+01 -0.10842993604E+02  0.40659141855E+02  0.00000000000E+00 0. -1.
         11    1    3    3    0    0  0.21616117244E+02  0.33858548038E+01  0.59631852676E+00  0.21887807874E+02  0.51100000000E-03 0. -1.
        -11    1    3    3    0    0  0.11083609608E+02 -0.14614510581E+01 -0.46141678533E+01  0.12094328687E+02  0.51100000000E-03 0.  1.
         12    1    3    3    0    0  0.60239042026E+01  0.40819016081E+01  0.14860842930E+02  0.16546721584E+02  0.00000000000E+00 0. -1.
</event>
<event>
 7    1  0.5408841E-013  0.5052888E+02  0.7816164E-02  0.1300439E+00
        -11   -1    0    0    0    0  0.00000000000E+00  0.00000000000E+00  0.45593999997E+02  0.45594000000E+02  0.51100000000E-03 0. -1.
         11   -1    0    0    0    0 -0.00000000000E+00 -0.00000000000E+00 -0.45593999997E+02  0.45594000000E+02  0.51100000000E-03 0.  1.
    9900012    2    1    2    0    0 -0.74533753139E+01 -0.19235474945E+02 -0.35037233456E+02  0.50528880135E+02  0.30000061659E+02 0.  0.
         12    1    1    2    0    0  0.74533753139E+01  0.19235474945E+02  0.35037233456E+02  0.40659119865E+02  0.00000000000E+00 0. -1.
         11    1    3    3    0    0 -0.16870682445E+01  0.10488570486E+00  0.18008912598E+01  0.24699007801E+01  0.51100000000E-03 0. -1.
        -11    1    3    3    0    0 -0.10843218863E+02 -0.97732214661E+01 -0.67535712146E+01  0.16084215167E+02  0.51100000000E-03 0.  1.
        -12    1    3    3    0    0  0.50769117936E+01 -0.95671391835E+01 -0.30084553501E+02  0.31974764188E+02  0.00000000000E+00 0.  1.
</event>
<event>
 7    1  0.5408841E-013  0.5052886E+02  0.7816164E-02  0.1300439E+00
        -11   -1    0    0    0    0  0.00000000000E+00  0.00000000000E+00  0.45593999997E+02  0.45594000000E+02  0.51100000000E-03 0.  1.
         11   -1    0    0    0    0 -0.00000000000E+00 -0.00000000000E+00 -0.45593999997E+02  0.45594000000E+02  0.51100000000E-03 0. -1.
    9900012    2    1    2    0    0 -0.17484443793E+02 -0.29712724405E+02  0.21554912196E+02  0.50528855812E+02  0.29999987725E+02 0.  0.
         12    1    1    2    0    0  0.17484443793E+02  0.29712724405E+02 -0.21554912196E+02  0.40659144188E+02  0.00000000000E+00 0. -1.
         11    1    3    3    0    0 -0.12983634829E+02 -0.49908755753E+01  0.16050860839E+02  0.21239438465E+02  0.51100000000E-03 0. -1.
        -11    1    3    3    0    0 -0.32144542920E+01 -0.93844096394E+01  0.91245581149E+01  0.13478034787E+02  0.51100000000E-03 0.  1.
         12    1    3    3    0    0 -0.12863546727E+01 -0.15337439190E+02 -0.36205067575E+01  0.15811382560E+02  0.00000000000E+00 0. -1.
</event>
<event>
 7    1  0.5408841E-013  0.5052886E+02  0.7816164E-02  0.1300439E+00
        -11   -1    0    0    0    0  0.00000000000E+00  0.00000000000E+00  0.45593999997E+02  0.45594000000E+02  0.51100000000E-03 0.  1.
         11   -1    0    0    0    0 -0.00000000000E+00 -0.00000000000E+00 -0.45593999997E+02  0.45594000000E+02  0.51100000000E-03 0. -1.
    9900012    2    1    2    0    0 -0.25796243158E+02  0.89306107644E+01  0.30132433225E+02  0.50528862014E+02  0.30000006579E+02 0.  0.
         12    1    1    2    0    0  0.25796243158E+02 -0.89306107644E+01 -0.30132433225E+02  0.40659137986E+02  0.00000000000E+00 0. -1.
         11    1    3    3    0    0  0.26601607557E+01  0.32313141185E+01  0.18264543108E+01  0.45665941126E+01  0.51100000000E-03 0.  1.
        -11    1    3    3    0    0 -0.24897169787E+01  0.18372112641E+01 -0.35327388901E+01  0.46961984828E+01  0.51100000000E-03 0. -1.
        -12    1    3    3    0    0 -0.25966686934E+02  0.38620853818E+01  0.31838717804E+02  0.41266069419E+02  0.00000000000E+00 0.  1.
</event>
<event>
 7    1  0.5408841E-013  0.5052886E+02  0.7816164E-02  0.1300439E+00
        -11   -1    0    0    0    0  0.00000000000E+00  0.00000000000E+00  0.45593999997E+02  0.45594000000E+02  0.51100000000E-03 0. -1.
         11   -1    0    0    0    0 -0.00000000000E+00 -0.00000000000E+00 -0.45593999997E+02  0.45594000000E+02  0.51100000000E-03 0.  1.
    9900012    2    1    2    0    0 -0.80709239876E+01  0.21351878937E+02 -0.33647040057E+02  0.50528857698E+02  0.29999993458E+02 0.  0.
         12    1    1    2    0    0  0.80709239876E+01 -0.21351878937E+02  0.33647040057E+02  0.40659142302E+02  0.00000000000E+00 0. -1.
         11    1    3    3    0    0 -0.36729712242E+01 -0.13818111501E+00 -0.13573031207E+01  0.39181735103E+01  0.51100000000E-03 0. -1.
        -11    1    3    3    0    0 -0.99185724722E+01  0.16339208389E+01 -0.24514848966E+01  0.10346862116E+02  0.51100000000E-03 0.  1.
        -12    1    3    3    0    0  0.55206197088E+01  0.19856139213E+02 -0.29838252040E+02  0.36263822071E+02  0.00000000000E+00 0.  1.
</event>
<event>
 7    1  0.5408841E-013  0.5052884E+02  0.7816164E-02  0.1300439E+00
        -11   -1    0    0    0    0  0.00000000000E+00  0.00000000000E+00  0.45593999997E+02  0.45594000000E+02  0.51100000000E-03 0.  1.
         11   -1    0    0    0    0 -0.00000000000E+00 -0.00000000000E+00 -0.45593999997E+02  0.45594000000E+02  0.51100000000E-03 0. -1.
    9900012    2    1    2    0    0  0.40232624989E+02 -0.18900663498E+01  0.55615515167E+01  0.50528839660E+02  0.29999938630E+02 0.  0.
         12    1    1    2    0    0 -0.40232624989E+02  0.18900663498E+01 -0.55615515167E+01  0.40659160340E+02  0.00000000000E+00 0. -1.
         11    1    3    3    0    0  0.15933896202E+01 -0.48566327648E+01 -0.39455425787E+01  0.64570177943E+01  0.51100000000E-03 0. -1.
        -11    1    3    3    0    0  0.24427810492E+02 -0.63208860790E+01  0.98616776621E+01  0.27091035654E+02  0.51100000000E-03 0.  1.
        -12    1    3    3    0    0  0.14211424877E+02  0.92874524941E+01 -0.35458356674E+00  0.16980786212E+02  0.00000000000E+00 0.  1.
</event>
<event>
 7    1  0.5408841E-013  0.5052886E+02  0.7816164E-02  0.1300439E+00
        -11   -1    0    0    0    0  0.00000000000E+00  0.00000000000E+00  0.45593999997E+02  0.45594000000E+02  0.51100000000E-03 0. -1.
         11   -1    0    0    0    0 -0.00000000000E+00 -0.00000000000E+00 -0.45593999997E+02  0.45594000000E+02  0.51100000000E-03 0.  1.
    9900012    2    1    2    0    0 -0.24862062648E+02 -0.27183988377E+02 -0.17206813292E+02  0.50528858262E+02  0.29999995174E+02 0.  0.
         12    1    1    2    0    0  0.24862062648E+02  0.27183988377E+02  0.17206813292E+02  0.40659141738E+02  0.00000000000E+00 0. -1.
         11    1    3    3    0    0 -0.29644982421E+01  0.14518964161E+01 -0.24591353389E+01  0.41162604275E+01  0.51100000000E-03 0. -1.
        -11    1    3    3    0    0 -0.73513330263E+01 -0.46405960157E+01  0.67972058094E+01  0.11035362963E+02  0.51100000000E-03 0.  1.
        -12    1    3    3    0    0 -0.14546231380E+02 -0.23995288777E+02 -0.21544883763E+02  0.35377234872E+02  0.00000000000E+00 0.  1.
</event>
<event>
 7    1  0.5408841E-013  0.5052885E+02  0.7816164E-02  0.1300439E+00
        -11   -1    0    0    0    0  0.00000000000E+00  0.00000000000E+00  0.45593999997E+02  0.45594000000E+02  0.51100000000E-03 0.  1.
         11   -1    0    0    0    0 -0.00000000000E+00 -0.00000000000E+00 -0.45593999997E+02  0.45594000000E+02  0.51100000000E-03 0. -1.
    9900012    2    1    2    0    0  0.20070406453E+01 -0.26988672691E+01  0.40519797876E+02  0.50528854453E+02  0.29999983595E+02 0.  0.
         12    1    1    2    0    0 -0.20070406453E+01  0.26988672691E+01 -0.40519797876E+02  0.40659145547E+02  0.00000000000E+00 0. -1.
         11    1    3    3    0    0  0.43313682727E+01  0.16713019279E+01  0.38058046452E+01  0.60031783671E+01  0.51100000000E-03 0. -1.
        -11    1    3    3    0    0  0.96871179021E+01 -0.71241335724E+01  0.23860215036E+02  0.26718970681E+02  0.51100000000E-03 0.  1.
        -12    1    3    3    0    0 -0.12011445530E+02  0.27539643754E+01  0.12853778195E+02  0.17806705405E+02  0.00000000000E+00 0.  1.
</event>
<event>
 7    1  0.5408841E-013  0.5052886E+02  0.7816164E-02  0.1300439E+00
        -11   -1    0    0    0    0  0.00000000000E+00  0.00000000000E+00  0.45593999997E+02  0.45594000000E+02  0.51100000000E-03 0.  1.
         11   -1    0    0    0    0 -0.00000000000E+00 -0.00000000000E+00 -0.45593999997E+02  0.45594000000E+02  0.51100000000E-03 0. -1.
    9900012    2    1    2    0    0 -0.15223431266E+02  0.36949913291E+02  0.74911177321E+01  0.50528858388E+02  0.29999995556E+02 0.  0.
         12    1    1    2    0    0  0.15223431266E+02 -0.36949913291E+02 -0.74911177321E+01  0.40659141612E+02  0.00000000000E+00 0. -1.
         11    1    3    3    0    0 -0.13176936974E+02  0.63838059278E+01  0.59764528586E+01  0.15814633577E+02  0.51100000000E-03 0. -1.
        -11    1    3    3    0    0 -0.79369399469E+01  0.25890223925E+02  0.21622353935E+01  0.27165676373E+02  0.51100000000E-03 0.  1.
         12    1    3    3    0    0  0.58904456550E+01  0.46758834382E+01 -0.64757052011E+00  0.75485484380E+01  0.00000000000E+00 0. -1.
</event>
<event>
 7    1  0.5408841E-013  0.5052887E+02  0.7816164E-02  0.1300439E+00
        -11   -1    0    0    0    0  0.00000000000E+00  0.00000000000E+00  0.45593999997E+02  0.45594000000E+02  0.51100000000E-03 0. -1.
         11   -1    0    0    0    0 -0.00000000000E+00 -0.00000000000E+00 -0.45593999997E+02  0.45594000000E+02  0.51100000000E-03 0.  1.
    9900012    2    1    2    0    0 -0.37929539591E+02  0.13670159008E+02 -0.52575441516E+01  0.50528868290E+02  0.30000025655E+02 0.  0.
         12    1    1    2    0    0  0.37929539591E+02 -0.13670159008E+02  0.52575441516E+01  0.40659131710E+02  0.00000000000E+00 0. -1.
         11    1    3    3    0    0 -0.16876712422E+01  0.11458178307E+02 -0.64470609971E+01  0.13255288760E+02  0.51100000000E-03 0. -1.
        -11    1    3    3    0    0 -0.17114850295E+01  0.20961472170E+01  0.38732441434E+00  0.27336851729E+01  0.51100000000E-03 0.  1.
        -12    1    3    3    0    0 -0.34530383319E+02  0.11583348403E+00  0.80219243114E+00  0.34539894358E+02  0.00000000000E+00 0.  1.
</event>
<event>
 7    1  0.5408841E-013  0.5052886E+02  0.7816164E-02  0.1300439E+00
        -11   -1    0    0    0    0  0.00000000000E+00  0.00000000000E+00  0.45593999997E+02  0.45594000000E+02  0.51100000000E-03 0. -1.
         11   -1    0    0    0    0 -0.00000000000E+00 -0.00000000000E+00 -0.45593999997E+02  0.45594000000E+02  0.51100000000E-03 0.  1.
    9900012    2    1    2    0    0 -0.17768982087E+02 -0.36544933608E+02  0.13772216839E+01  0.50528860359E+02  0.30000001546E+02 0.  0.
         12    1    1    2    0    0  0.17768982087E+02  0.36544933608E+02 -0.13772216839E+01  0.40659139641E+02  0.00000000000E+00 0. -1.
         11    1    3    3    0    0 -0.79084963867E+01 -0.37956887117E+02  0.41446079371E+01  0.38992914355E+02  0.51100000000E-03 0. -1.
        -11    1    3    3    0    0 -0.72444812175E+01 -0.11087928232E+01 -0.71553778311E+00  0.73636895790E+01  0.51100000000E-03 0.  1.
        -12    1    3    3    0    0 -0.26160044832E+01  0.25207463322E+01 -0.20518484700E+01  0.41722564244E+01  0.00000000000E+00 0.  1.
</event>
<event>
 7    1  0.5408841E-013  0.5052886E+02  0.7816164E-02  0.1300439E+00
        -11   -1    0    0    0    0  0.00000000000E+00  0.00000000000E+00  0.45593999997E+02  0.45594000000E+02  0.51100000000E-03 0.  1.
         11   -1    0    0    0    0 -0.00000000000E+00 -0.00000000000E+00 -0.45593999997E+02  0.45594000000E+02  0.51100000000E-03 0. -1.
    9900012    2    1    2    0    0  0.87540294623E+00 -0.71525906505E+01  0.40015489794E+02  0.50528864412E+02  0.30000013866E+02 0.  0.
         12    1    1    2    0    0 -0.87540294623E+00  0.71525906505E+01 -0.40015489794E+02  0.40659135588E+02  0.00000000000E+00 0. -1.
         11    1    3    3    0    0 -0.38212377880E+01  0.53743183015E+00 -0.10341468512E+00  0.38602313483E+01  0.51100000000E-03 0. -1.
        -11    1    3    3    0    0 -0.56111821480E+01 -0.11533002866E+02  0.20757724799E+02  0.24400382360E+02  0.51100000000E-03 0.  1.
         12    1    3    3    0    0  0.10307822882E+02  0.38429803850E+01  0.19361179680E+02  0.22268250704E+02  0.00000000000E+00 0. -1.
</event>
<event>
 7    1  0.5408841E-013  0.5052885E+02  0.7816164E-02  0.1300439E+00
        -11   -1    0    0    0    0  0.00000000000E+00  0.00000000000E+00  0.45593999997E+02  0.45594000000E+02  0.51100000000E-03 0. -1.
         11   -1    0    0    0    0 -0.00000000000E+00 -0.00000000000E+00 -0.45593999997E+02  0.45594000000E+02  0.51100000000E-03 0.  1.
    9900012    2    1    2    0    0 -0.27484739472E+02  0.34870332501E+01 -0.29758963029E+02  0.50528853608E+02  0.29999981028E+02 0.  0.
         12    1    1    2    0    0  0.27484739472E+02 -0.34870332501E+01  0.29758963029E+02  0.40659146392E+02  0.00000000000E+00 0. -1.
         11    1    3    3    0    0 -0.21405559585E+01  0.29817572261E+01  0.11639862049E+01  0.38506778771E+01  0.51100000000E-03 0. -1.
        -11    1    3    3    0    0 -0.13016044522E+02 -0.90499331625E+00  0.33039159677E+00  0.13051650730E+02  0.51100000000E-03 0.  1.
        -12    1    3    3    0    0 -0.12328138991E+02  0.14102693402E+01 -0.31253340831E+02  0.33626525002E+02  0.00000000000E+00 0.  1.
</event>
<event>
 7    1  0.5408841E-013  0.5052886E+02  0.7816164E-02  0.1300439E+00
        -11   -1    0    0    0    0  0.00000000000E+00  0.00000000000E+00  0.45593999997E+02  0.45594000000E+02  0.51100000000E-03 0.  1.
         11   -1    0    0    0    0 -0.00000000000E+00 -0.00000000000E+00 -0.45593999997E+02  0.45594000000E+02  0.51100000000E-03 0. -1.
    9900012    2    1    2    0    0 -0.11749946433E+02  0.12449915858E+02  0.36879588997E+02  0.50528859200E+02  0.29999998023E+02 0.  0.
         12    1    1    2    0    0  0.11749946433E+02 -0.12449915858E+02 -0.36879588997E+02  0.40659140800E+02  0.00000000000E+00 0. -1.
         11    1    3    3    0    0 -0.26403512650E+01 -0.41392965635E+01  0.55265041774E+01  0.73923933558E+01  0.51100000000E-03 0. -1.
        -11    1    3    3    0    0 -0.16812499472E+02  0.10957277250E+02  0.21916334924E+02  0.29716120204E+02  0.51100000000E-03 0.  1.
        -12    1    3    3    0    0  0.77029043040E+01  0.56319351718E+01  0.94367498958E+01  0.13420345640E+02  0.00000000000E+00 0.  1.
</event>
<event>
 7    1  0.5408841E-013  0.5052885E+02  0.7816164E-02  0.1300439E+00
        -11   -1    0    0    0    0  0.00000000000E+00  0.00000000000E+00  0.45593999997E+02  0.45594000000E+02  0.51100000000E-03 0.  1.
         11   -1    0    0    0    0 -0.00000000000E+00 -0.00000000000E+00 -0.45593999997E+02  0.45594000000E+02  0.51100000000E-03 0. -1.
    9900012    2    1    2    0    0  0.34671869587E+01 -0.66374562755E+01  0.39963598179E+02  0.50528851084E+02  0.29999973354E+02 0.  0.
         12    1    1    2    0    0 -0.34671869587E+01  0.66374562755E+01 -0.39963598179E+02  0.40659148916E+02  0.00000000000E+00 0. -1.
         11    1    3    3    0    0  0.49234026820E+01  0.39965649027E+01  0.83418837441E+01  0.10478523257E+02  0.51100000000E-03 0. -1.
        -11    1    3    3    0    0  0.89447156437E+01 -0.10942439218E+01  0.19359723299E+02  0.21354254709E+02  0.51100000000E-03 0.  1.
        -12    1    3    3    0    0 -0.10400931367E+02 -0.95397772563E+01  0.12261991136E+02  0.18696073118E+02  0.00000000000E+00 0.  1.
</event>
<event>
 7    1  0.5408841E-013  0.5052886E+02  0.7816164E-02  0.1300439E+00
        -11   -1    0    0    0    0  0.00000000000E+00  0.00000000000E+00  0.45593999997E+02  0.45594000000E+02  0.51100000000E-03 0.  1.
         11   -1    0    0    0    0 -0.00000000000E+00 -0.00000000000E+00 -0.45593999997E+02  0.45594000000E+02  0.51100000000E-03 0. -1.
    9900012    2    1    2    0    0 -0.37330846127E+02  0.15547286170E+02  0.42256173618E+01  0.50528855618E+02  0.29999987135E+02 0.  0.
         12    1    1    2    0    0  0.37330846127E+02 -0.15547286170E+02 -0.42256173618E+01  0.40659144382E+02  0.00000000000E+00 0. -1.
         11    1    3    3    0    0 -0.15050162822E+02  0.32630809468E+01 -0.19282914035E+01  0.15520096850E+02  0.51100000000E-03 0. -1.
        -11    1    3    3    0    0 -0.25757138624E+02  0.88555755691E+01  0.10771422330E+00  0.27237162322E+02  0.51100000000E-03 0.  1.
         12    1    3    3    0    0  0.34764553179E+01  0.34286296539E+01  0.60461945420E+01  0.77715964460E+01  0.00000000000E+00 0. -1.
</event>
<event>
 7    1  0.5408841E-013  0.5052886E+02  0.7816164E-02  0.1300439E+00
        -11   -1    0    0    0    0  0.00000000000E+00  0.00000000000E+00  0.45593999997E+02  0.45594000000E+02  0.51100000000E-03 0.  1.
         11   -1    0    0    0    0 -0.00000000000E+00 -0.00000000000E+00 -0.45593999997E+02  0.45594000000E+02  0.51100000000E-03 0. -1.
    9900012    2    1    2    0    0 -0.92977223369E+01  0.14130512846E+02  0.36973595189E+02  0.50528858652E+02  0.29999996360E+02 0.  0.
         12    1    1    2    0    0  0.92977223369E+01 -0.14130512846E+02 -0.36973595189E+02  0.40659141348E+02  0.00000000000E+00 0. -1.
         11    1    3    3    0    0 -0.28404024363E+00  0.11244353718E+02  0.39916810004E+01  0.11935228815E+02  0.51100000000E-03 0. -1.
        -11    1    3    3    0    0 -0.10663208248E+02  0.13055137335E+01  0.77209504356E+01  0.13229567345E+02  0.51100000000E-03 0.  1.
        -12    1    3    3    0    0  0.16495261543E+01  0.15806453941E+01  0.25260963753E+02  0.25364062492E+02  0.00000000000E+00 0.  1.
</event>
<event>
 7    1  0.5408841E-013  0.5052885E+02  0.7816164E-02  0.1300439E+00
        -11   -1    0    0    0    0  0.00000000000E+00  0.00000000000E+00  0.45593999997E+02  0.45594000000E+02  0.51100000000E-03 0.  1.
         11   -1    0    0    0    0 -0.00000000000E+00 -0.00000000000E+00 -0.45593999997E+02  0.45594000000E+02  0.51100000000E-03 0. -1.
    9900012    2    1    2    0    0 -0.85221493213E+01  0.39349061316E+02 -0.56737100511E+01  0.50528848001E+02  0.29999963985E+02 0.  0.
         12    1    1    2    0    0  0.85221493213E+01 -0.39349061316E+02  0.56737100511E+01  0.40659151999E+02  0.00000000000E+00 0. -1.
         11    1    3    3    0    0 -0.58496886970E+00 -0.38931695591E+00 -0.53365447454E+00  0.88235119425E+00  0.51100000000E-03 0. -1.
        -11    1    3    3    0    0 -0.17193413017E+02  0.31730873824E+02 -0.82452474430E+01  0.37019534175E+02  0.51100000000E-03 0.  1.
         12    1    3    3    0    0  0.92562325659E+01  0.80075044475E+01  0.31051918664E+01  0.12626962632E+02  0.00000000000E+00 0. -1.
</event>
<event>
 7    1  0.5408841E-013  0.5052887E+02  0.7816164E-02  0.1300439E+00
        -11   -1    0    0    0    0  0.00000000000E+00  0.00000000000E+00  0.45593999997E+02  0.45594000000E+02  0.51100000000E-03 0.  1.
         11   -1    0    0    0    0 -0.00000000000E+00 -0.00000000000E+00 -0.45593999997E+02  0.45594000000E+02  0.51100000000E-03 0. -1.
    9900012    2    1    2    0    0 -0.18318113082E+02 -0.11366740500E+02  0.34473306073E+02  0.50528869561E+02  0.30000029517E+02 0.  0.
         12    1    1    2    0    0  0.18318113082E+02  0.11366740500E+02 -0.34473306073E+02  0.40659130439E+02  0.00000000000E+00 0. -1.
         11    1    3    3    0    0 -0.29491438620E+01 -0.47489465471E+00  0.13309359753E+02  0.13640455702E+02  0.51100000000E-03 0.  1.
        -11    1    3    3    0    0 -0.18202879500E+02 -0.20581889293E+01  0.20639424466E+02  0.27596499893E+02  0.51100000000E-03 0. -1.
         12    1    3    3    0    0  0.28339102807E+01 -0.88336569156E+01  0.52452185395E+00  0.92919139663E+01  0.00000000000E+00 0. -1.
</event>
<event>
 7    1  0.5408841E-013  0.5052892E+02  0.7816164E-02  0.1300439E+00
        -11   -1    0    0    0    0  0.00000000000E+00  0.00000000000E+00  0.45593999997E+02  0.45594000000E+02  0.51100000000E-03 0.  1.
         11   -1    0    0    0    0 -0.00000000000E+00 -0.00000000000E+00 -0.45593999997E+02  0.45594000000E+02  0.51100000000E-03 0. -1.
    9900012    2    1    2    0    0  0.31264536399E+02  0.29286162819E+01  0.25828532435E+02  0.50528915931E+02  0.30000170462E+02 0.  0.
         12    1    1    2    0    0 -0.31264536399E+02 -0.29286162819E+01 -0.25828532435E+02  0.40659084069E+02  0.00000000000E+00 0. -1.
         11    1    3    3    0    0  0.14726914123E+02 -0.45165426655E+01  0.13562580086E+02  0.20523760281E+02  0.51100000000E-03 0. -1.
        -11    1    3    3    0    0  0.13875806691E+02 -0.39558003226E+01  0.11168731609E+02  0.18246285472E+02  0.51100000000E-03 0.  1.
        -12    1    3    3    0    0  0.26618155858E+01  0.11400959270E+02  0.10972207400E+01  0.11758870177E+02  0.00000000000E+00 0.  1.
</event>
<event>
 7    1  0.5408841E-013  0.5052885E+02  0.7816164E-02  0.1300439E+00
        -11   -1    0    0    0    0  0.00000000000E+00  0.00000000000E+00  0.45593999997E+02  0.45594000000E+02  0.51100000000E-03 0.  1.
         11   -1    0    0    0    0 -0.00000000000E+00 -0.00000000000E+00 -0.45593999997E+02  0.45594000000E+02  0.51100000000E-03 0. -1.
    9900012    2    1    2    0    0 -0.13731646688E+02 -0.38239015437E+02 -0.15446612281E+01  0.50528850959E+02  0.29999972976E+02 0.  0.
         12    1    1    2    0    0  0.13731646688E+02  0.38239015437E+02  0.15446612281E+01  0.40659149041E+02  0.00000000000E+00 0. -1.
         11    1    3    3    0    0  0.32131123964E+01 -0.22653900777E+01  0.20321493880E+01  0.44255750894E+01  0.51100000000E-03 0. -1.
        -11    1    3    3    0    0  0.43954731464E+01 -0.48662233943E+00 -0.13924583268E+01  0.46363699092E+01  0.51100000000E-03 0.  1.
        -12    1    3    3    0    0 -0.21340232231E+02 -0.35487003020E+02 -0.21843522893E+01  0.41466905961E+02  0.00000000000E+00 0.  1.
</event>
<event>
 7    1  0.5408841E-013  0.5052887E+02  0.7816164E-02  0.1300439E+00
        -11   -1    0    0    0    0  0.00000000000E+00  0.00000000000E+00  0.45593999997E+02  0.45594000000E+02  0.51100000000E-03 0. -1.
         11   -1    0    0    0    0 -0.00000000000E+00 -0.00000000000E+00 -0.45593999997E+02  0.45594000000E+02  0.51100000000E-03 0.  1.
    9900012    2    1    2    0    0 -0.33954878085E+02  0.21001555696E+02 -0.76919091821E+01  0.50528873665E+02  0.30000041993E+02 0.  0.
         12    1    1    2    0    0  0.33954878085E+02 -0.21001555696E+02  0.76919091821E+01  0.40659126335E+02  0.00000000000E+00 0. -1.
         11    1    3    3    0    0 -0.98851312909E+01  0.70315066215E+01 -0.59299823817E+01  0.13502688522E+02  0.51100000000E-03 0. -1.
        -11    1    3    3    0    0 -0.26023351801E+02  0.15505460533E+02 -0.71217809889E+01  0.31118385402E+02  0.51100000000E-03 0.  1.
         12    1    3    3    0    0  0.19536050061E+01 -0.15354114592E+01  0.53598541885E+01  0.59077997420E+01  0.00000000000E+00 0. -1.
</event>
<event>
 7    1  0.5408841E-013  0.5052886E+02  0.7816164E-02  0.1300439E+00
        -11   -1    0    0    0    0  0.00000000000E+00  0.00000000000E+00  0.45593999997E+02  0.45594000000E+02  0.51100000000E-03 0. -1.
         11   -1    0    0    0    0 -0.00000000000E+00 -0.00000000000E+00 -0.45593999997E+02  0.45594000000E+02  0.51100000000E-03 0.  1.
    9900012    2    1    2    0    0  0.29843572456E+02  0.22259995253E+02  0.16340734737E+02  0.50528858134E+02  0.29999994783E+02 0.  0.
         12    1    1    2    0    0 -0.29843572456E+02 -0.22259995253E+02 -0.16340734737E+02  0.40659141866E+02  0.00000000000E+00 0. -1.
         11    1    3    3    0    0  0.30548164745E+01 -0.17742427789E+00  0.47428148843E+01  0.56442604790E+01  0.51100000000E-03 0.  1.
        -11    1    3    3    0    0  0.23025239000E+01 -0.30456380701E+01 -0.46257948721E+01  0.59979584880E+01  0.51100000000E-03 0. -1.
        -12    1    3    3    0    0  0.24486232081E+02  0.25483057601E+02  0.16223714724E+02  0.38886639167E+02  0.00000000000E+00 0.  1.
</event>
<event>
 7    1  0.5408841E-013  0.5052884E+02  0.7816164E-02  0.1300439E+00
        -11   -1    0    0    0    0  0.00000000000E+00  0.00000000000E+00  0.45593999997E+02  0.45594000000E+02  0.51100000000E-03 0.  1.
         11   -1    0    0    0    0 -0.00000000000E+00 -0.00000000000E+00 -0.45593999997E+02  0.45594000000E+02  0.51100000000E-03 0. -1.
    9900012    2    1    2    0    0 -0.33694532456E+02 -0.76155251951E+01  0.21444109876E+02  0.50528836336E+02  0.29999928528E+02 0.  0.
         12    1    1    2    0    0  0.33694532456E+02  0.76155251951E+01 -0.21444109876E+02  0.40659163664E+02  0.00000000000E+00 0. -1.
         11    1    3    3    0    0 -0.84288658276E+00 -0.37955831269E+00  0.12276120035E+02  0.12310875098E+02  0.51100000000E-03 0. -1.
        -11    1    3    3    0    0  0.16042903224E+01 -0.12531875126E+01  0.11536707592E+01  0.23399108663E+01  0.51100000000E-03 0.  1.
        -12    1    3    3    0    0 -0.34455936196E+02 -0.59827793699E+01  0.80143190812E+01  0.35878050372E+02  0.00000000000E+00 0.  1.
</event>
<event>
 7    1  0.5408841E-013  0.5052886E+02  0.7816164E-02  0.1300439E+00
        -11   -1    0    0    0    0  0.00000000000E+00  0.00000000000E+00  0.45593999997E+02  0.45594000000E+02  0.51100000000E-03 0. -1.
         11   -1    0    0    0    0 -0.00000000000E+00 -0.00000000000E+00 -0.45593999997E+02  0.45594000000E+02  0.51100000000E-03 0.  1.
    9900012    2    1    2    0    0  0.27947510699E+02 -0.26799346792E+02 -0.12405536922E+02  0.50528859710E+02  0.29999999576E+02 0.  0.
         12    1    1    2    0    0 -0.27947510699E+02  0.26799346792E+02  0.12405536922E+02  0.40659140290E+02  0.00000000000E+00 0. -1.
         11    1    3    3    0    0  0.28782159388E+01  0.19544503969E+01 -0.25152518572E+01  0.42930752976E+01  0.51100000000E-03 0. -1.
        -11    1    3    3    0    0  0.19758607289E+02 -0.66647141387E+01 -0.10831638190E+02  0.23497773569E+02  0.51100000000E-03 0.  1.
         12    1    3    3    0    0  0.53106874709E+01 -0.22089083051E+02  0.94135312512E+00  0.22738010844E+02  0.00000000000E+00 0. -1.
</event>
<event>
 7    1  0.5408841E-013  0.5052888E+02  0.7816164E-02  0.1300439E+00
        -11   -1    0    0    0    0  0.00000000000E+00  0.00000000000E+00  0.45593999997E+02  0.45594000000E+02  0.51100000000E-03 0.  1.
         11   -1    0    0    0    0 -0.00000000000E+00 -0.00000000000E+00 -0.45593999997E+02  0.45594000000E+02  0.51100000000E-03 0. -1.
    9900012    2    1    2    0    0  0.18319543028E+02  0.36199411998E+02 -0.26760582479E+01  0.50528875889E+02  0.30000048752E+02 0.  0.
         12    1    1    2    0    0 -0.18319543028E+02 -0.36199411998E+02  0.26760582479E+01  0.40659124111E+02  0.00000000000E+00 0. -1.
         11    1    3    3    0    0  0.12659748025E+02  0.24889072736E+01 -0.31001036564E+01  0.13269307534E+02  0.51100000000E-03 0. -1.
        -11    1    3    3    0    0 -0.12535580884E+01  0.12464573587E+02  0.64894044517E+01  0.14108485850E+02  0.51100000000E-03 0.  1.
        -12    1    3    3    0    0  0.69133530906E+01  0.21245931137E+02 -0.60653590432E+01  0.23151082505E+02  0.00000000000E+00 0.  1.
</event>
<event>
 7    1  0.5408841E-013  0.5052886E+02  0.7816164E-02  0.1300439E+00
        -11   -1    0    0    0    0  0.00000000000E+00  0.00000000000E+00  0.45593999997E+02  0.45594000000E+02  0.51100000000E-03 0.  1.
         11   -1    0    0    0    0 -0.00000000000E+00 -0.00000000000E+00 -0.45593999997E+02  0.45594000000E+02  0.51100000000E-03 0. -1.
    9900012    2    1    2    0    0 -0.38441098557E+02  0.12138882185E+01  0.13189917579E+02  0.50528861930E+02  0.30000006323E+02 0.  0.
         12    1    1    2    0    0  0.38441098557E+02 -0.12138882185E+01 -0.13189917579E+02  0.40659138070E+02  0.00000000000E+00 0. -1.
         11    1    3    3    0    0 -0.34871849949E-01  0.91989162077E+00  0.29121259208E+01  0.30541601595E+01  0.51100000000E-03 0. -1.
        -11    1    3    3    0    0 -0.41639574309E+01  0.73147584650E+01  0.92482065054E+01  0.12504941292E+02  0.51100000000E-03 0.  1.
        -12    1    3    3    0    0 -0.34242269276E+02 -0.70207618673E+01  0.10295851527E+01  0.34969760479E+02  0.00000000000E+00 0.  1.
</event>
<event>
 7    1  0.5408841E-013  0.5052887E+02  0.7816164E-02  0.1300439E+00
        -11   -1    0    0    0    0  0.00000000000E+00  0.00000000000E+00  0.45593999997E+02  0.45594000000E+02  0.51100000000E-03 0.  1.
         11   -1    0    0    0    0 -0.00000000000E+00 -0.00000000000E+00 -0.45593999997E+02  0.45594000000E+02  0.51100000000E-03 0. -1.
    9900012    2    1    2    0    0  0.38164194651E+02 -0.80091526437E+01  0.11511420638E+02  0.50528867144E+02  0.30000022172E+02 0.  0.
         12    1    1    2    0    0 -0.38164194651E+02  0.80091526437E+01 -0.11511420638E+02  0.40659132856E+02  0.00000000000E+00 0. -1.
         11    1    3    3    0    0  0.24634552751E+02 -0.10684588005E+02  0.32212737959E+01  0.27044374928E+02  0.51100000000E-03 0. -1.
        -11    1    3    3    0    0  0.10880117348E+02 -0.62979835229E+01  0.54911966935E+01  0.13718410671E+02  0.51100000000E-03 0.  1.
         12    1    3    3    0    0  0.26495245521E+01  0.89734188840E+01  0.27989501490E+01  0.97660815457E+01  0.00000000000E+00 0. -1.
</event>
<event>
 7    1  0.5408841E-013  0.5052885E+02  0.7816164E-02  0.1300439E+00
        -11   -1    0    0    0    0  0.00000000000E+00  0.00000000000E+00  0.45593999997E+02  0.45594000000E+02  0.51100000000E-03 0.  1.
         11   -1    0    0    0    0 -0.00000000000E+00 -0.00000000000E+00 -0.45593999997E+02  0.45594000000E+02  0.51100000000E-03 0. -1.
    9900012    2    1    2    0    0  0.33985784930E+02  0.22090399441E+02  0.31854044563E+01  0.50528854334E+02  0.29999983232E+02 0.  0.
         12    1    1    2    0    0 -0.33985784930E+02 -0.22090399441E+02 -0.31854044563E+01  0.40659145666E+02  0.00000000000E+00 0. -1.
         11    1    3    3    0    0  0.27145599434E+01  0.13190025681E+02  0.14337292373E+01  0.13542569658E+02  0.51100000000E-03 0. -1.
        -11    1    3    3    0    0  0.99991962744E+01  0.11593401092E+02 -0.11310444959E+01  0.15351551613E+02  0.51100000000E-03 0.  1.
         12    1    3    3    0    0  0.21272028712E+02 -0.26930273318E+01  0.28827197149E+01  0.21634733063E+02  0.00000000000E+00 0. -1.
</event>
<event>
 7    1  0.5408841E-013  0.5052886E+02  0.7816164E-02  0.1300439E+00
        -11   -1    0    0    0    0  0.00000000000E+00  0.00000000000E+00  0.45593999997E+02  0.45594000000E+02  0.51100000000E-03 0.  1.
         11   -1    0    0    0    0 -0.00000000000E+00 -0.00000000000E+00 -0.45593999997E+02  0.45594000000E+02  0.51100000000E-03 0. -1.
    9900012    2    1    2    0    0  0.20526369859E+02  0.23671021881E+02 -0.25913642505E+02  0.50528855834E+02  0.29999987792E+02 0.  0.
         12    1    1    2    0    0 -0.20526369859E+02 -0.23671021881E+02  0.25913642505E+02  0.40659144166E+02  0.00000000000E+00 0. -1.
         11    1    3    3    0    0 -0.80558514493E+00  0.11243634943E+01 -0.20458935450E+01  0.24695832344E+01  0.51100000000E-03 0. -1.
        -11    1    3    3    0    0  0.18813729058E+02  0.11573183146E+00 -0.13861042125E+02  0.23368745879E+02  0.51100000000E-03 0.  1.
        -12    1    3    3    0    0  0.25182259465E+01  0.22430926555E+02 -0.10006706834E+02  0.24690526720E+02  0.00000000000E+00 0.  1.
</event>
<event>
 7    1  0.5408841E-013  0.5052886E+02  0.7816164E-02  0.1300439E+00
        -11   -1    0    0    0    0  0.00000000000E+00  0.00000000000E+00  0.45593999997E+02  0.45594000000E+02  0.51100000000E-03 0.  1.
         11   -1    0    0    0    0 -0.00000000000E+00 -0.00000000000E+00 -0.45593999997E+02  0.45594000000E+02  0.51100000000E-03 0. -1.
    9900012    2    1    2    0    0  0.11081478311E+02  0.28198511335E+02  0.27114758462E+02  0.50528864132E+02  0.30000013015E+02 0.  0.
         12    1    1    2    0    0 -0.11081478311E+02 -0.28198511335E+02 -0.27114758462E+02  0.40659135868E+02  0.00000000000E+00 0. -1.
         11    1    3    3    0    0  0.21037174833E+01 -0.26427725056E+01 -0.17990384615E+00  0.33826379382E+01  0.51100000000E-03 0. -1.
        -11    1    3    3    0    0 -0.66140072847E+01  0.95736343264E+01  0.52098301442E+01  0.12749192012E+02  0.51100000000E-03 0.  1.
        -12    1    3    3    0    0  0.15591768112E+02  0.21267649514E+02  0.22084832164E+02  0.34397034181E+02  0.00000000000E+00 0.  1.
</event>
<event>
 7    1  0.5408841E-013  0.5052887E+02  0.7816164E-02  0.1300439E+00
        -11   -1    0    0    0    0  0.00000000000E+00  0.00000000000E+00  0.45593999997E+02  0.45594000000E+02  0.51100000000E-03 0.  1.
         11   -1    0    0    0    0 -0.00000000000E+00 -0.00000000000E+00 -0.45593999997E+02  0.45594000000E+02  0.51100000000E-03 0. -1.
    9900012    2    1    2    0    0 -0.27335803751E+02  0.28794125304E+01  0.29960435551E+02  0.50528869639E+02  0.30000029755E+02 0.  0.
         12    1    1    2    0    0  0.27335803751E+02 -0.28794125304E+01 -0.29960435551E+02  0.40659130361E+02  0.00000000000E+00 0. -1.
         11    1    3    3    0    0  0.76878082419E+00 -0.20544163150E+01  0.77170641186E+01  0.80227631913E+01  0.51100000000E-03 0. -1.
        -11    1    3    3    0    0  0.33421374449E+01  0.26013479286E+01  0.50478851838E+01  0.65892365898E+01  0.51100000000E-03 0.  1.
         12    1    3    3    0    0 -0.31446722021E+02  0.23324809168E+01  0.17195486249E+02  0.35916869858E+02  0.00000000000E+00 0. -1.
</event>
<event>
 7    1  0.5408841E-013  0.5052885E+02  0.7816164E-02  0.1300439E+00
        -11   -1    0    0    0    0  0.00000000000E+00  0.00000000000E+00  0.45593999997E+02  0.45594000000E+02  0.51100000000E-03 0.  1.
         11   -1    0    0    0    0 -0.00000000000E+00 -0.00000000000E+00 -0.45593999997E+02  0.45594000000E+02  0.51100000000E-03 0. -1.
    9900012    2    1    2    0    0  0.33190121783E+02  0.11968306995E+02  0.20207462197E+02  0.50528854845E+02  0.29999984786E+02 0.  0.
         12    1    1    2    0    0 -0.33190121783E+02 -0.11968306995E+02 -0.20207462197E+02  0.40659145155E+02  0.00000000000E+00 0. -1.
         11    1    3    3    0    0  0.12578074341E+02 -0.65081854024E+01  0.53451613390E+01  0.15137211809E+02  0.51100000000E-03 0. -1.
        -11    1    3    3    0    0  0.17117020600E+02  0.11602344306E+02  0.25109242133E+01  0.20830543159E+02  0.51100000000E-03 0.  1.
         12    1    3    3    0    0  0.34950268424E+01  0.68741480907E+01  0.12351376645E+02  0.14561099877E+02  0.00000000000E+00 0. -1.
</event>
<event>
 7    1  0.5408841E-013  0.5052886E+02  0.7816164E-02  0.1300439E+00
        -11   -1    0    0    0    0  0.00000000000E+00  0.00000000000E+00  0.45593999997E+02  0.45594000000E+02  0.51100000000E-03 0.  1.
         11   -1    0    0    0    0 -0.00000000000E+00 -0.00000000000E+00 -0.45593999997E+02  0.45594000000E+02  0.51100000000E-03 0. -1.
    9900012    2    1    2    0    0 -0.19723851256E+02  0.35387808621E+02  0.34407153284E+01  0.50528857986E+02  0.29999994335E+02 0.  0.
         12    1    1    2    0    0  0.19723851256E+02 -0.35387808621E+02 -0.34407153284E+01  0.40659142014E+02  0.00000000000E+00 0. -1.
         11    1    3    3    0    0  0.54368993593E+00  0.67492300887E+01  0.71354177125E+01  0.98367622584E+01  0.51100000000E-03 0. -1.
        -11    1    3    3    0    0  0.20755447453E+01  0.84362094124E+01  0.40570932362E+01  0.95884055519E+01  0.51100000000E-03 0.  1.
        -12    1    3    3    0    0 -0.22343085937E+02  0.20202369119E+02 -0.77517956203E+01  0.31103690176E+02  0.00000000000E+00 0.  1.
</event>
<event>
 7    1  0.5408841E-013  0.5052886E+02  0.7816164E-02  0.1300439E+00
        -11   -1    0    0    0    0  0.00000000000E+00  0.00000000000E+00  0.45593999997E+02  0.45594000000E+02  0.51100000000E-03 0. -1.
         11   -1    0    0    0    0 -0.00000000000E+00 -0.00000000000E+00 -0.45593999997E+02  0.45594000000E+02  0.51100000000E-03 0.  1.
    9900012    2    1    2    0    0 -0.63986412790E+01  0.32386447617E+02 -0.23734805933E+02  0.50528860656E+02  0.30000002451E+02 0.  0.
         12    1    1    2    0    0  0.63986412790E+01 -0.32386447617E+02  0.23734805933E+02  0.40659139344E+02  0.00000000000E+00 0. -1.
         11    1    3    3    0    0 -0.43555764154E+01  0.28770821325E+00 -0.11388435298E+02  0.12196322426E+02  0.51100000000E-03 0. -1.
        -11    1    3    3    0    0 -0.33258932343E+01 -0.75523657758E+00 -0.12009722139E+01  0.36158377471E+01  0.51100000000E-03 0.  1.
        -12    1    3    3    0    0  0.12828283707E+01  0.32853975982E+02 -0.11145398421E+02  0.34716700483E+02  0.00000000000E+00 0.  1.
</event>
<event>
 7    1  0.5408841E-013  0.5052886E+02  0.7816164E-02  0.1300439E+00
        -11   -1    0    0    0    0  0.00000000000E+00  0.00000000000E+00  0.45593999997E+02  0.45594000000E+02  0.51100000000E-03 0.  1.
         11   -1    0    0    0    0 -0.00000000000E+00 -0.00000000000E+00 -0.45593999997E+02  0.45594000000E+02  0.51100000000E-03 0. -1.
    9900012    2    1    2    0    0 -0.33497397103E+02  0.18223291990E+02  0.14106793218E+02  0.50528860824E+02  0.30000002961E+02 0.  0.
         12    1    1    2    0    0  0.33497397103E+02 -0.18223291990E+02 -0.14106793218E+02  0.40659139176E+02  0.00000000000E+00 0. -1.
         11    1    3    3    0    0 -0.91303786011E+01  0.16455563017E+02  0.29404189872E+01  0.19047189601E+02  0.51100000000E-03 0. -1.
        -11    1    3    3    0    0 -0.10789971467E+02  0.62317052533E+01  0.11819959338E+02  0.17174663712E+02  0.51100000000E-03 0.  1.
         12    1    3    3    0    0 -0.13577047035E+02 -0.44639762807E+01 -0.65358510670E+00  0.14307007511E+02  0.00000000000E+00 0. -1.
</event>
<event>
 7    1  0.5408841E-013  0.5052886E+02  0.7816164E-02  0.1300439E+00
        -11   -1    0    0    0    0  0.00000000000E+00  0.00000000000E+00  0.45593999997E+02  0.45594000000E+02  0.51100000000E-03 0.  1.
         11   -1    0    0    0    0 -0.00000000000E+00 -0.00000000000E+00 -0.45593999997E+02  0.45594000000E+02  0.51100000000E-03 0. -1.
    9900012    2    1    2    0    0 -0.72553558852E+01  0.37979321998E+02 -0.12573655407E+02  0.50528857132E+02  0.29999991739E+02 0.  0.
         12    1    1    2    0    0  0.72553558852E+01 -0.37979321998E+02  0.12573655407E+02  0.40659142868E+02  0.00000000000E+00 0. -1.
         11    1    3    3    0    0 -0.98583693412E+01  0.43668980929E+01 -0.55215222073E+00  0.10796393720E+02  0.51100000000E-03 0. -1.
        -11    1    3    3    0    0 -0.72905533226E+01  0.14520669224E+02 -0.67383726856E+01  0.17589987754E+02  0.51100000000E-03 0.  1.
        -12    1    3    3    0    0  0.98935667785E+01  0.19091754681E+02 -0.52831305010E+01  0.22142475658E+02  0.00000000000E+00 0.  1.
</event>
<event>
 7    1  0.5408841E-013  0.5052885E+02  0.7816164E-02  0.1300439E+00
        -11   -1    0    0    0    0  0.00000000000E+00  0.00000000000E+00  0.45593999997E+02  0.45594000000E+02  0.51100000000E-03 0.  1.
         11   -1    0    0    0    0 -0.00000000000E+00 -0.00000000000E+00 -0.45593999997E+02  0.45594000000E+02  0.51100000000E-03 0. -1.
    9900012    2    1    2    0    0 -0.15976237925E+02 -0.32150817994E+02  0.19085364926E+02  0.50528850596E+02  0.29999971870E+02 0.  0.
         12    1    1    2    0    0  0.15976237925E+02  0.32150817994E+02 -0.19085364926E+02  0.40659149404E+02  0.00000000000E+00 0. -1.
         11    1    3    3    0    0  0.62013738489E+01 -0.90106001673E+01  0.38428052606E+01  0.11593752866E+02  0.51100000000E-03 0. -1.
        -11    1    3    3    0    0  0.25252172358E+01 -0.31636238006E+01  0.14318249380E+01  0.42936418754E+01  0.51100000000E-03 0.  1.
        -12    1    3    3    0    0 -0.24702829010E+02 -0.19976594026E+02  0.13810734727E+02  0.34641455854E+02  0.00000000000E+00 0.  1.
</event>
<event>
 7    1  0.5408841E-013  0.5052889E+02  0.7816164E-02  0.1300439E+00
        -11   -1    0    0    0    0  0.00000000000E+00  0.00000000000E+00  0.45593999997E+02  0.45594000000E+02  0.51100000000E-03 0.  1.
         11   -1    0    0    0    0 -0.00000000000E+00 -0.00000000000E+00 -0.45593999997E+02  0.45594000000E+02  0.51100000000E-03 0. -1.
    9900012    2    1    2    0    0 -0.13934458425E+02  0.37881937160E+02  0.48941369483E+01  0.50528894365E+02  0.30000104911E+02 0.  0.
         12    1    1    2    0    0  0.13934458425E+02 -0.37881937160E+02 -0.48941369483E+01  0.40659105635E+02  0.00000000000E+00 0. -1.
         11    1    3    3    0    0 -0.15211666472E+01  0.13397193141E+01 -0.38253829251E+01  0.43292436515E+01  0.51100000000E-03 0. -1.
        -11    1    3    3    0    0 -0.11828377345E+02  0.24819511795E+02 -0.52111963389E+01  0.27983481625E+02  0.51100000000E-03 0.  1.
        -12    1    3    3    0    0 -0.58491443305E+00  0.11722706051E+02  0.13930716212E+02  0.18216169088E+02  0.00000000000E+00 0.  1.
</event>
<event>
 7    1  0.5408841E-013  0.5052886E+02  0.7816164E-02  0.1300439E+00
        -11   -1    0    0    0    0  0.00000000000E+00  0.00000000000E+00  0.45593999997E+02  0.45594000000E+02  0.51100000000E-03 0. -1.
         11   -1    0    0    0    0 -0.00000000000E+00 -0.00000000000E+00 -0.45593999997E+02  0.45594000000E+02  0.51100000000E-03 0.  1.
    9900012    2    1    2    0    0 -0.34273911719E+02 -0.48501251371E+01 -0.21329346790E+02  0.50528858680E+02  0.29999996443E+02 0.  0.
         12    1    1    2    0    0  0.34273911719E+02  0.48501251371E+01  0.21329346790E+02  0.40659141320E+02  0.00000000000E+00 0. -1.
         11    1    3    3    0    0 -0.16199574617E+02 -0.10113683953E+02 -0.86162446775E+01  0.20951193127E+02  0.51100000000E-03 0. -1.
        -11    1    3    3    0    0 -0.40928556930E+01 -0.58595411535E+01 -0.87121253132E+01  0.11268842797E+02  0.51100000000E-03 0.  1.
         12    1    3    3    0    0 -0.13981481410E+02  0.11123099969E+02 -0.40009767995E+01  0.18308822755E+02  0.00000000000E+00 0. -1.
</event>
<event>
 7    1  0.5408841E-013  0.5052886E+02  0.7816164E-02  0.1300439E+00
        -11   -1    0    0    0    0  0.00000000000E+00  0.00000000000E+00  0.45593999997E+02  0.45594000000E+02  0.51100000000E-03 0. -1.
         11   -1    0    0    0    0 -0.00000000000E+00 -0.00000000000E+00 -0.45593999997E+02  0.45594000000E+02  0.51100000000E-03 0.  1.
    9900012    2    1    2    0    0 -0.88302551434E+01 -0.14264769602E+02 -0.37036585688E+02  0.50528859119E+02  0.29999997779E+02 0.  0.
         12    1    1    2    0    0  0.88302551434E+01  0.14264769602E+02  0.37036585688E+02  0.40659140881E+02  0.00000000000E+00 0. -1.
         11    1    3    3    0    0  0.46861442031E+00 -0.62753619726E+01 -0.13734002662E+02  0.15107037987E+02  0.51100000000E-03 0.  1.
        -11    1    3    3    0    0 -0.86794987173E-01 -0.54405387088E+01  0.38305795781E+01  0.66543470737E+01  0.51100000000E-03 0. -1.
         12    1    3    3    0    0 -0.92120745765E+01 -0.25488689207E+01 -0.27133162604E+02  0.28767474058E+02  0.00000000000E+00 0. -1.
</event>
<event>
 7    1  0.5408841E-013  0.5052886E+02  0.7816164E-02  0.1300439E+00
        -11   -1    0    0    0    0  0.00000000000E+00  0.00000000000E+00  0.45593999997E+02  0.45594000000E+02  0.51100000000E-03 0.  1.
         11   -1    0    0    0    0 -0.00000000000E+00 -0.00000000000E+00 -0.45593999997E+02  0.45594000000E+02  0.51100000000E-03 0. -1.
    9900012    2    1    2    0    0  0.73931593468E+01  0.39948022207E+02 -0.16316183280E+01  0.50528862506E+02  0.30000008073E+02 0.  0.
         12    1    1    2    0    0 -0.73931593468E+01 -0.39948022207E+02  0.16316183280E+01  0.40659137494E+02  0.00000000000E+00 0. -1.
         11    1    3    3    0    0  0.10451664946E+02  0.29544226353E+02 -0.95297201855E+01  0.32755368690E+02  0.51100000000E-03 0. -1.
        -11    1    3    3    0    0 -0.22790024453E+00  0.10716734011E+02  0.15692428129E+01  0.10833413574E+02  0.51100000000E-03 0.  1.
         12    1    3    3    0    0 -0.28306053542E+01 -0.31293815733E+00  0.63288590446E+01  0.69400802422E+01  0.00000000000E+00 0. -1.
</event>
<event>
 7    1  0.5408841E-013  0.5052886E+02  0.7816164E-02  0.1300439E+00
        -11   -1    0    0    0    0  0.00000000000E+00  0.00000000000E+00  0.45593999997E+02  0.45594000000E+02  0.51100000000E-03 0. -1.
         11   -1    0    0    0    0 -0.00000000000E+00 -0.00000000000E+00 -0.45593999997E+02  0.45594000000E+02  0.51100000000E-03 0.  1.
    9900012    2    1    2    0    0  0.17153418484E+01 -0.21040950202E+02 -0.34749120671E+02  0.50528863628E+02  0.30000011485E+02 0.  0.
         12    1    1    2    0    0 -0.17153418484E+01  0.21040950202E+02  0.34749120671E+02  0.40659136372E+02  0.00000000000E+00 0. -1.
         11    1    3    3    0    0  0.48045646666E+01 -0.81643284253E+00 -0.13203147979E+02  0.14073859493E+02  0.51100000000E-03 0. -1.
        -11    1    3    3    0    0  0.36466970111E+01  0.17756091033E+01 -0.98335624699E+01  0.10637205361E+02  0.51100000000E-03 0.  1.
        -12    1    3    3    0    0 -0.67359198294E+01 -0.22000126463E+02 -0.11712410222E+02  0.25817798774E+02  0.00000000000E+00 0.  1.
</event>
<event>
 7    1  0.5408841E-013  0.5052886E+02  0.7816164E-02  0.1300439E+00
        -11   -1    0    0    0    0  0.00000000000E+00  0.00000000000E+00  0.45593999997E+02  0.45594000000E+02  0.51100000000E-03 0. -1.
         11   -1    0    0    0    0 -0.00000000000E+00 -0.00000000000E+00 -0.45593999997E+02  0.45594000000E+02  0.51100000000E-03 0.  1.
    9900012    2    1    2    0    0 -0.37182496824E+02  0.19552702347E+00 -0.16449588518E+02  0.50528864946E+02  0.30000015491E+02 0.  0.
         12    1    1    2    0    0  0.37182496824E+02 -0.19552702347E+00  0.16449588518E+02  0.40659135054E+02  0.00000000000E+00 0. -1.
         11    1    3    3    0    0  0.19208665998E+01  0.16431369211E+01 -0.59948896057E+01  0.65060225239E+01  0.51100000000E-03 0. -1.
        -11    1    3    3    0    0 -0.56172914539E+01  0.41562388478E+01 -0.70082082572E+01  0.98966291168E+01  0.51100000000E-03 0.  1.
        -12    1    3    3    0    0 -0.33486071970E+02 -0.56038487455E+01 -0.34464906550E+01  0.34126213306E+02  0.00000000000E+00 0.  1.
</event>
<event>
 7    1  0.5408841E-013  0.5052887E+02  0.7816164E-02  0.1300439E+00
        -11   -1    0    0    0    0  0.00000000000E+00  0.00000000000E+00  0.45593999997E+02  0.45594000000E+02  0.51100000000E-03 0.  1.
         11   -1    0    0    0    0 -0.00000000000E+00 -0.00000000000E+00 -0.45593999997E+02  0.45594000000E+02  0.51100000000E-03 0. -1.
    9900012    2    1    2    0    0 -0.34386988905E+02 -0.47001529510E+01  0.21180373339E+02  0.50528872384E+02  0.30000038098E+02 0.  0.
         12    1    1    2    0    0  0.34386988905E+02  0.47001529510E+01 -0.21180373339E+02  0.40659127616E+02  0.00000000000E+00 0. -1.
         11    1    3    3    0    0 -0.87667378556E+01  0.28985842986E+00  0.11235484733E+02  0.14253975866E+02  0.51100000000E-03 0.  1.
        -11    1    3    3    0    0  0.34462492835E+01  0.30990096032E+01  0.21734129829E+01  0.51190056554E+01  0.51100000000E-03 0. -1.
        -12    1    3    3    0    0 -0.29066500333E+02 -0.80890209841E+01  0.77714756228E+01  0.31155890862E+02  0.00000000000E+00 0.  1.
</event>
<event>
 7    1  0.5408841E-013  0.5052887E+02  0.7816164E-02  0.1300439E+00
        -11   -1    0    0    0    0  0.00000000000E+00  0.00000000000E+00  0.45593999997E+02  0.45594000000E+02  0.51100000000E-03 0.  1.
         11   -1    0    0    0    0 -0.00000000000E+00 -0.00000000000E+00 -0.45593999997E+02  0.45594000000E+02  0.51100000000E-03 0. -1.
    9900012    2    1    2    0    0  0.21488164397E+02 -0.21527509754E+02  0.26981296552E+02  0.50528865122E+02  0.30000016026E+02 0.  0.
         12    1    1    2    0    0 -0.21488164397E+02  0.21527509754E+02 -0.26981296552E+02  0.40659134878E+02  0.00000000000E+00 0. -1.
         11    1    3    3    0    0  0.58962634002E+01 -0.10586012345E+02  0.11437271130E+02  0.16662555344E+02  0.51100000000E-03 0. -1.
        -11    1    3    3    0    0  0.98781250517E+01 -0.78488321121E+01  0.21580363332E+02  0.24997871947E+02  0.51100000000E-03 0.  1.
         12    1    3    3    0    0  0.57137759456E+01 -0.30926652969E+01 -0.60363379103E+01  0.88684378310E+01  0.00000000000E+00 0. -1.
</event>
<event>
 7    1  0.5408841E-013  0.5052885E+02  0.7816164E-02  0.1300439E+00
        -11   -1    0    0    0    0  0.00000000000E+00  0.00000000000E+00  0.45593999997E+02  0.45594000000E+02  0.51100000000E-03 0.  1.
         11   -1    0    0    0    0 -0.00000000000E+00 -0.00000000000E+00 -0.45593999997E+02  0.45594000000E+02  0.51100000000E-03 0. -1.
    9900012    2    1    2    0    0  0.22358175622E+02 -0.10730776562E+02  0.32220008281E+02  0.50528849537E+02  0.29999968653E+02 0.  0.
         12    1    1    2    0    0 -0.22358175622E+02  0.10730776562E+02 -0.32220008281E+02  0.40659150463E+02  0.00000000000E+00 0. -1.
         11    1    3    3    0    0  0.80344780929E+00  0.11881237223E+01 -0.45813145154E+01  0.48005842677E+01  0.51100000000E-03 0. -1.
        -11    1    3    3    0    0  0.36973396368E+00 -0.35386155931E+01  0.96498648234E+01  0.10284862415E+02  0.51100000000E-03 0.  1.
        -12    1    3    3    0    0  0.21184993849E+02 -0.83802846912E+01  0.27151457973E+02  0.35443402855E+02  0.00000000000E+00 0.  1.
</event>
<event>
 7    1  0.5408841E-013  0.5052885E+02  0.7816164E-02  0.1300439E+00
        -11   -1    0    0    0    0  0.00000000000E+00  0.00000000000E+00  0.45593999997E+02  0.45594000000E+02  0.51100000000E-03 0. -1.
         11   -1    0    0    0    0 -0.00000000000E+00 -0.00000000000E+00 -0.45593999997E+02  0.45594000000E+02  0.51100000000E-03 0.  1.
    9900012    2    1    2    0    0 -0.18717780593E+02  0.36044541151E+02 -0.18978613131E+01  0.50528854231E+02  0.29999982920E+02 0.  0.
         12    1    1    2    0    0  0.18717780593E+02 -0.36044541151E+02  0.18978613131E+01  0.40659145769E+02  0.00000000000E+00 0. -1.
         11    1    3    3    0    0 -0.64130614423E+01  0.33757807789E+01  0.30425363569E+01  0.78600432998E+01  0.51100000000E-03 0. -1.
        -11    1    3    3    0    0 -0.17194181798E+02  0.32206113153E+02 -0.12577850117E+01  0.36530201690E+02  0.51100000000E-03 0.  1.
         12    1    3    3    0    0  0.48894626468E+01  0.46264721940E+00 -0.36826126583E+01  0.61386092411E+01  0.00000000000E+00 0. -1.
</event>
<event>
 7    1  0.5408841E-013  0.5052885E+02  0.7816164E-02  0.1300439E+00
        -11   -1    0    0    0    0  0.00000000000E+00  0.00000000000E+00  0.45593999997E+02  0.45594000000E+02  0.51100000000E-03 0. -1.
         11   -1    0    0    0    0 -0.00000000000E+00 -0.00000000000E+00 -0.45593999997E+02  0.45594000000E+02  0.51100000000E-03 0.  1.
    9900012    2    1    2    0    0 -0.29751502231E+02 -0.30619505018E+01 -0.27543406658E+02  0.50528847571E+02  0.29999962678E+02 0.  0.
         12    1    1    2    0    0  0.29751502231E+02  0.30619505018E+01  0.27543406658E+02  0.40659152429E+02  0.00000000000E+00 0. -1.
         11    1    3    3    0    0 -0.69179049002E+01  0.33077220772E+01 -0.84813926806E+01  0.11433829438E+02  0.51100000000E-03 0. -1.
        -11    1    3    3    0    0 -0.20824231959E+02 -0.41234953493E+01 -0.24781013005E+02  0.32630514192E+02  0.51100000000E-03 0.  1.
        -12    1    3    3    0    0 -0.20093653711E+01 -0.22461772298E+01  0.57189990273E+01  0.64645039420E+01  0.00000000000E+00 0.  1.
</event>
<event>
 7    1  0.5408841E-013  0.5052884E+02  0.7816164E-02  0.1300439E+00
        -11   -1    0    0    0    0  0.00000000000E+00  0.00000000000E+00  0.45593999997E+02  0.45594000000E+02  0.51100000000E-03 0. -1.
         11   -1    0    0    0    0 -0.00000000000E+00 -0.00000000000E+00 -0.45593999997E+02  0.45594000000E+02  0.51100000000E-03 0.  1.
    9900012    2    1    2    0    0 -0.21112208747E+02  0.34601256404E+02 -0.31929461648E+01  0.50528841030E+02  0.29999942796E+02 0.  0.
         12    1    1    2    0    0  0.21112208747E+02 -0.34601256404E+02  0.31929461648E+01  0.40659158970E+02  0.00000000000E+00 0. -1.
         11    1    3    3    0    0 -0.84038146593E+00  0.12463146225E+02  0.27601580892E+01  0.12792760756E+02  0.51100000000E-03 0. -1.
        -11    1    3    3    0    0  0.43281394675E+01  0.39234714260E+01  0.18863589958E+01  0.61387922105E+01  0.51100000000E-03 0.  1.
        -12    1    3    3    0    0 -0.24599966749E+02  0.18214638753E+02 -0.78394632498E+01  0.31597288064E+02  0.00000000000E+00 0.  1.
</event>
<event>
 7    1  0.5408841E-013  0.5052886E+02  0.7816164E-02  0.1300439E+00
        -11   -1    0    0    0    0  0.00000000000E+00  0.00000000000E+00  0.45593999997E+02  0.45594000000E+02  0.51100000000E-03 0.  1.
         11   -1    0    0    0    0 -0.00000000000E+00 -0.00000000000E+00 -0.45593999997E+02  0.45594000000E+02  0.51100000000E-03 0. -1.
    9900012    2    1    2    0    0 -0.18041179833E+02  0.61108190655E+01  0.35921295867E+02  0.50528858640E+02  0.29999996321E+02 0.  0.
         12    1    1    2    0    0  0.18041179833E+02 -0.61108190655E+01 -0.35921295867E+02  0.40659141360E+02  0.00000000000E+00 0. -1.
         11    1    3    3    0    0  0.43067197166E+01 -0.19131646727E+01  0.52077205383E+01  0.70234170635E+01  0.51100000000E-03 0.  1.
        -11    1    3    3    0    0 -0.95150181295E+01  0.13719089252E+02  0.15148878546E+02  0.22544123434E+02  0.51100000000E-03 0. -1.
         12    1    3    3    0    0 -0.12832881420E+02 -0.56951055141E+01  0.15564696782E+02  0.20961318143E+02  0.00000000000E+00 0. -1.
</event>
<event>
 7    1  0.5408841E-013  0.5052885E+02  0.7816164E-02  0.1300439E+00
        -11   -1    0    0    0    0  0.00000000000E+00  0.00000000000E+00  0.45593999997E+02  0.45594000000E+02  0.51100000000E-03 0.  1.
         11   -1    0    0    0    0 -0.00000000000E+00 -0.00000000000E+00 -0.45593999997E+02  0.45594000000E+02  0.51100000000E-03 0. -1.
    9900012    2    1    2    0    0  0.17897101333E+01  0.14252277745E+02  0.38037296822E+02  0.50528850564E+02  0.29999971775E+02 0.  0.
         12    1    1    2    0    0 -0.17897101333E+01 -0.14252277745E+02 -0.38037296822E+02  0.40659149436E+02  0.00000000000E+00 0. -1.
         11    1    3    3    0    0  0.11613104404E+02  0.82913322869E+01  0.20509767545E+02  0.24985214628E+02  0.51100000000E-03 0. -1.
        -11    1    3    3    0    0  0.33747976153E+01  0.94546272396E+00  0.73372093214E+01  0.81312852363E+01  0.51100000000E-03 0.  1.
         12    1    3    3    0    0 -0.13198191886E+02  0.50154827344E+01  0.10190319956E+02  0.17412350700E+02  0.00000000000E+00 0. -1.
</event>
<event>
 7    1  0.5408841E-013  0.5052874E+02  0.7816164E-02  0.1300439E+00
        -11   -1    0    0    0    0  0.00000000000E+00  0.00000000000E+00  0.45593999997E+02  0.45594000000E+02  0.51100000000E-03 0.  1.
         11   -1    0    0    0    0 -0.00000000000E+00 -0.00000000000E+00 -0.45593999997E+02  0.45594000000E+02  0.51100000000E-03 0. -1.
    9900012    2    1    2    0    0 -0.47973619431E+01 -0.76380527734E+01  0.39646191931E+02  0.50528744394E+02  0.29999649058E+02 0.  0.
         12    1    1    2    0    0  0.47973619431E+01  0.76380527734E+01 -0.39646191931E+02  0.40659255606E+02  0.00000000000E+00 0. -1.
         11    1    3    3    0    0 -0.35811832751E+01 -0.46044296535E+01  0.93520318425E+01  0.11022075391E+02  0.51100000000E-03 0. -1.
        -11    1    3    3    0    0 -0.38898151460E+01 -0.55161867038E+01  0.33787703605E+02  0.34455302825E+02  0.51100000000E-03 0.  1.
         12    1    3    3    0    0  0.26736364781E+01  0.24825635839E+01 -0.34935435161E+01  0.50513661779E+01  0.00000000000E+00 0. -1.
</event>
<event>
 7    1  0.5408841E-013  0.5052886E+02  0.7816164E-02  0.1300439E+00
        -11   -1    0    0    0    0  0.00000000000E+00  0.00000000000E+00  0.45593999997E+02  0.45594000000E+02  0.51100000000E-03 0.  1.
         11   -1    0    0    0    0 -0.00000000000E+00 -0.00000000000E+00 -0.45593999997E+02  0.45594000000E+02  0.51100000000E-03 0. -1.
    9900012    2    1    2    0    0  0.23520643012E+02 -0.22569089686E+02  0.24301875765E+02  0.50528860528E+02  0.30000002060E+02 0.  0.
         12    1    1    2    0    0 -0.23520643012E+02  0.22569089686E+02 -0.24301875765E+02  0.40659139472E+02  0.00000000000E+00 0. -1.
         11    1    3    3    0    0  0.20036276173E+02 -0.23298380535E+02  0.21016531877E+02  0.37228504010E+02  0.51100000000E-03 0. -1.
        -11    1    3    3    0    0 -0.23401703176E+01 -0.34300781541E+01  0.44078558933E+01  0.60556607481E+01  0.51100000000E-03 0.  1.
        -12    1    3    3    0    0  0.58245371561E+01  0.41593690030E+01 -0.11225120059E+01  0.72446957692E+01  0.00000000000E+00 0.  1.
</event>
<event>
 7    1  0.5408841E-013  0.5052889E+02  0.7816164E-02  0.1300439E+00
        -11   -1    0    0    0    0  0.00000000000E+00  0.00000000000E+00  0.45593999997E+02  0.45594000000E+02  0.51100000000E-03 0.  1.
         11   -1    0    0    0    0 -0.00000000000E+00 -0.00000000000E+00 -0.45593999997E+02  0.45594000000E+02  0.51100000000E-03 0. -1.
    9900012    2    1    2    0    0  0.23770083577E+02 -0.20716118081E+02  0.25670783967E+02  0.50528885756E+02  0.30000078745E+02 0.  0.
         12    1    1    2    0    0 -0.23770083577E+02  0.20716118081E+02 -0.25670783967E+02  0.40659114244E+02  0.00000000000E+00 0. -1.
         11    1    3    3    0    0  0.97439264798E+01 -0.17060004248E+02  0.24875274743E+02  0.31698062117E+02  0.51100000000E-03 0. -1.
        -11    1    3    3    0    0  0.44717580045E+01 -0.51187668500E+01  0.48492549949E+01  0.83494711199E+01  0.51100000000E-03 0.  1.
        -12    1    3    3    0    0  0.95543990923E+01  0.14626530165E+01 -0.40537457708E+01  0.10481352519E+02  0.00000000000E+00 0.  1.
</event>
<event>
 7    1  0.5408841E-013  0.5052888E+02  0.7816164E-02  0.1300439E+00
        -11   -1    0    0    0    0  0.00000000000E+00  0.00000000000E+00  0.45593999997E+02  0.45594000000E+02  0.51100000000E-03 0.  1.
         11   -1    0    0    0    0 -0.00000000000E+00 -0.00000000000E+00 -0.45593999997E+02  0.45594000000E+02  0.51100000000E-03 0. -1.
    9900012    2    1    2    0    0  0.96628554331E+00 -0.39224104194E+02 -0.10663032364E+02  0.50528876586E+02  0.30000050871E+02 0.  0.
         12    1    1    2    0    0 -0.96628554331E+00  0.39224104194E+02  0.10663032364E+02  0.40659123414E+02  0.00000000000E+00 0. -1.
         11    1    3    3    0    0  0.20839110492E+00 -0.21870822146E+01 -0.68546632379E+00  0.23014386388E+01  0.51100000000E-03 0. -1.
        -11    1    3    3    0    0  0.14372156525E+02 -0.25176802777E+02 -0.43484965501E+01  0.29314496478E+02  0.51100000000E-03 0.  1.
         12    1    3    3    0    0 -0.13614262086E+02 -0.11860219203E+02 -0.56290694902E+01  0.18912941470E+02  0.00000000000E+00 0. -1.
</event>
<event>
 7    1  0.5408841E-013  0.5052887E+02  0.7816164E-02  0.1300439E+00
        -11   -1    0    0    0    0  0.00000000000E+00  0.00000000000E+00  0.45593999997E+02  0.45594000000E+02  0.51100000000E-03 0.  1.
         11   -1    0    0    0    0 -0.00000000000E+00 -0.00000000000E+00 -0.45593999997E+02  0.45594000000E+02  0.51100000000E-03 0. -1.
    9900012    2    1    2    0    0 -0.32495198725E+02 -0.19023144212E+02  0.15341030153E+02  0.50528866192E+02  0.30000019277E+02 0.  0.
         12    1    1    2    0    0  0.32495198725E+02  0.19023144212E+02 -0.15341030153E+02  0.40659133808E+02  0.00000000000E+00 0. -1.
         11    1    3    3    0    0 -0.65062664021E+01 -0.11058137992E+02  0.33396713691E+01  0.13257726934E+02  0.51100000000E-03 0. -1.
        -11    1    3    3    0    0 -0.25513829038E+02 -0.99813364695E+01  0.24594291839E+01  0.27506932619E+02  0.51100000000E-03 0.  1.
        -12    1    3    3    0    0 -0.47510328416E+00  0.20163302493E+01  0.95419296001E+01  0.97642066394E+01  0.00000000000E+00 0.  1.
</event>
<event>
 7    1  0.5408841E-013  0.5052900E+02  0.7816164E-02  0.1300438E+00
        -11   -1    0    0    0    0  0.00000000000E+00  0.00000000000E+00  0.45593999997E+02  0.45594000000E+02  0.51100000000E-03 0.  1.
         11   -1    0    0    0    0 -0.00000000000E+00 -0.00000000000E+00 -0.45593999997E+02  0.45594000000E+02  0.51100000000E-03 0. -1.
    9900012    2    1    2    0    0  0.60785394955E+01 -0.36017913166E+02  0.17858208879E+02  0.50528999329E+02  0.30000423956E+02 0.  0.
         12    1    1    2    0    0 -0.60785394955E+01  0.36017913166E+02 -0.17858208879E+02  0.40659000671E+02  0.00000000000E+00 0. -1.
         11    1    3    3    0    0  0.52725364269E+01 -0.12992277267E+02  0.36673302975E+01  0.14493040424E+02  0.51100000000E-03 0. -1.
        -11    1    3    3    0    0  0.74365013389E+01 -0.16003133864E+02 -0.13934964341E+01  0.17701516269E+02  0.51100000000E-03 0.  1.
        -12    1    3    3    0    0 -0.66304982703E+01 -0.70225020344E+01  0.15584375016E+02  0.18334442636E+02  0.00000000000E+00 0.  1.
</event>
<event>
 7    1  0.5408841E-013  0.5052886E+02  0.7816164E-02  0.1300439E+00
        -11   -1    0    0    0    0  0.00000000000E+00  0.00000000000E+00  0.45593999997E+02  0.45594000000E+02  0.51100000000E-03 0.  1.
         11   -1    0    0    0    0 -0.00000000000E+00 -0.00000000000E+00 -0.45593999997E+02  0.45594000000E+02  0.51100000000E-03 0. -1.
    9900012    2    1    2    0    0  0.27319711191E+02  0.24939268430E+02  0.16876956313E+02  0.50528863465E+02  0.30000010987E+02 0.  0.
         12    1    1    2    0    0 -0.27319711191E+02 -0.24939268430E+02 -0.16876956313E+02  0.40659136535E+02  0.00000000000E+00 0. -1.
         11    1    3    3    0    0  0.47023624965E+01  0.61857314296E+01 -0.53000062738E+01  0.94056128525E+01  0.51100000000E-03 0. -1.
        -11    1    3    3    0    0  0.20073084791E+02  0.57732327681E+01  0.10052890329E+02  0.23180154310E+02  0.51100000000E-03 0.  1.
         12    1    3    3    0    0  0.25442639037E+01  0.12980304233E+02  0.12124072258E+02  0.17943096302E+02  0.00000000000E+00 0. -1.
</event>
<event>
 7    1  0.5408841E-013  0.5052886E+02  0.7816164E-02  0.1300439E+00
        -11   -1    0    0    0    0  0.00000000000E+00  0.00000000000E+00  0.45593999997E+02  0.45594000000E+02  0.51100000000E-03 0. -1.
         11   -1    0    0    0    0 -0.00000000000E+00 -0.00000000000E+00 -0.45593999997E+02  0.45594000000E+02  0.51100000000E-03 0.  1.
    9900012    2    1    2    0    0  0.15602948855E+02  0.17515987832E+02 -0.33209993965E+02  0.50528861521E+02  0.30000005079E+02 0.  0.
         12    1    1    2    0    0 -0.15602948855E+02 -0.17515987832E+02  0.33209993965E+02  0.40659138479E+02  0.00000000000E+00 0. -1.
         11    1    3    3    0    0 -0.27875110343E+01  0.81657949581E+01 -0.16002745697E+02  0.18180712175E+02  0.51100000000E-03 0. -1.
        -11    1    3    3    0    0  0.37339668487E+01  0.47314732387E-01 -0.14259104047E+02  0.14739972714E+02  0.51100000000E-03 0.  1.
         12    1    3    3    0    0  0.14656493041E+02  0.93028781418E+01 -0.29481442205E+01  0.17608176632E+02  0.00000000000E+00 0. -1.
</event>
<event>
 7    1  0.5408841E-013  0.5052886E+02  0.7816164E-02  0.1300439E+00
        -11   -1    0    0    0    0  0.00000000000E+00  0.00000000000E+00  0.45593999997E+02  0.45594000000E+02  0.51100000000E-03 0.  1.
         11   -1    0    0    0    0 -0.00000000000E+00 -0.00000000000E+00 -0.45593999997E+02  0.45594000000E+02  0.51100000000E-03 0. -1.
    9900012    2    1    2    0    0 -0.21344198150E+01  0.37674538732E+02  0.15140634721E+02  0.50528862818E+02  0.30000009023E+02 0.  0.
         12    1    1    2    0    0  0.21344198150E+01 -0.37674538732E+02 -0.15140634721E+02  0.40659137182E+02  0.00000000000E+00 0. -1.
         11    1    3    3    0    0  0.14091974380E+01  0.49035011150E+01 -0.28647645400E+01  0.58512423241E+01  0.51100000000E-03 0. -1.
        -11    1    3    3    0    0  0.71048845039E+01  0.83729906336E+00  0.41883327952E+01  0.82899086485E+01  0.51100000000E-03 0.  1.
        -12    1    3    3    0    0 -0.10648501757E+02  0.31933738553E+02  0.13817066466E+02  0.36387711846E+02  0.00000000000E+00 0.  1.
</event>
<event>
 7    1  0.5408841E-013  0.5052886E+02  0.7816164E-02  0.1300439E+00
        -11   -1    0    0    0    0  0.00000000000E+00  0.00000000000E+00  0.45593999997E+02  0.45594000000E+02  0.51100000000E-03 0.  1.
         11   -1    0    0    0    0 -0.00000000000E+00 -0.00000000000E+00 -0.45593999997E+02  0.45594000000E+02  0.51100000000E-03 0. -1.
    9900012    2    1    2    0    0  0.29036866686E+02  0.20857370276E+02  0.19364820490E+02  0.50528858415E+02  0.29999995639E+02 0.  0.
         12    1    1    2    0    0 -0.29036866686E+02 -0.20857370276E+02 -0.19364820490E+02  0.40659141585E+02  0.00000000000E+00 0. -1.
         11    1    3    3    0    0  0.35815876128E+01 -0.46955443193E+00  0.39645905025E+01  0.53634158245E+01  0.51100000000E-03 0. -1.
        -11    1    3    3    0    0  0.24603361429E+02  0.67791547457E+01  0.16756611703E+02  0.30529762015E+02  0.51100000000E-03 0.  1.
         12    1    3    3    0    0  0.85191764439E+00  0.14547769963E+02 -0.13563817149E+01  0.14635680576E+02  0.00000000000E+00 0. -1.
</event>
<event>
 7    1  0.5408841E-013  0.5052881E+02  0.7816164E-02  0.1300439E+00
        -11   -1    0    0    0    0  0.00000000000E+00  0.00000000000E+00  0.45593999997E+02  0.45594000000E+02  0.51100000000E-03 0.  1.
         11   -1    0    0    0    0 -0.00000000000E+00 -0.00000000000E+00 -0.45593999997E+02  0.45594000000E+02  0.51100000000E-03 0. -1.
    9900012    2    1    2    0    0 -0.40585835421E+02  0.16265306609E+01 -0.18205364814E+01  0.50528806797E+02  0.29999838740E+02 0.  0.
         12    1    1    2    0    0  0.40585835421E+02 -0.16265306609E+01  0.18205364814E+01  0.40659193203E+02  0.00000000000E+00 0. -1.
         11    1    3    3    0    0 -0.10427438243E+02 -0.24983762912E+01 -0.84520837464E+01  0.13653244022E+02  0.51100000000E-03 0. -1.
        -11    1    3    3    0    0 -0.21017665849E+02  0.10252436855E+02 -0.11252795493E+01  0.23411983973E+02  0.51100000000E-03 0.  1.
        -12    1    3    3    0    0 -0.91407313293E+01 -0.61275299027E+01  0.77568268143E+01  0.13463578802E+02  0.00000000000E+00 0.  1.
</event>
<event>
 7    1  0.5408841E-013  0.5052886E+02  0.7816164E-02  0.1300439E+00
        -11   -1    0    0    0    0  0.00000000000E+00  0.00000000000E+00  0.45593999997E+02  0.45594000000E+02  0.51100000000E-03 0. -1.
         11   -1    0    0    0    0 -0.00000000000E+00 -0.00000000000E+00 -0.45593999997E+02  0.45594000000E+02  0.51100000000E-03 0.  1.
    9900012    2    1    2    0    0  0.17860100619E+01  0.35829197185E+02 -0.19137504740E+02  0.50528864612E+02  0.30000014474E+02 0.  0.
         12    1    1    2    0    0 -0.17860100619E+01 -0.35829197185E+02  0.19137504740E+02  0.40659135388E+02  0.00000000000E+00 0. -1.
         11    1    3    3    0    0 -0.45656036912E+01  0.29960492567E+01 -0.94986914397E+01  0.10956559111E+02  0.51100000000E-03 0. -1.
        -11    1    3    3    0    0 -0.54251751639E+01  0.15128021222E+02 -0.87284596597E+01  0.18288672996E+02  0.51100000000E-03 0.  1.
         12    1    3    3    0    0  0.11776788917E+02  0.17705126706E+02 -0.91035364056E+00  0.21283632506E+02  0.00000000000E+00 0. -1.
</event>
<event>
 7    1  0.5408841E-013  0.5052886E+02  0.7816164E-02  0.1300439E+00
        -11   -1    0    0    0    0  0.00000000000E+00  0.00000000000E+00  0.45593999997E+02  0.45594000000E+02  0.51100000000E-03 0.  1.
         11   -1    0    0    0    0 -0.00000000000E+00 -0.00000000000E+00 -0.45593999997E+02  0.45594000000E+02  0.51100000000E-03 0. -1.
    9900012    2    1    2    0    0  0.88243396904E+01 -0.25883543994E+02  0.30088850257E+02  0.50528859202E+02  0.29999998030E+02 0.  0.
         12    1    1    2    0    0 -0.88243396904E+01  0.25883543994E+02 -0.30088850257E+02  0.40659140798E+02  0.00000000000E+00 0. -1.
         11    1    3    3    0    0 -0.39390171737E+01 -0.11366430531E+02  0.11984713971E+02  0.16980723440E+02  0.51100000000E-03 0. -1.
        -11    1    3    3    0    0  0.65127342248E+01 -0.15916423668E+02  0.20456203481E+02  0.26724604966E+02  0.51100000000E-03 0.  1.
         12    1    3    3    0    0  0.62506226392E+01  0.13993102052E+01 -0.23520671958E+01  0.68235307958E+01  0.00000000000E+00 0. -1.
</event>
<event>
 7    1  0.5408841E-013  0.5052886E+02  0.7816164E-02  0.1300439E+00
        -11   -1    0    0    0    0  0.00000000000E+00  0.00000000000E+00  0.45593999997E+02  0.45594000000E+02  0.51100000000E-03 0.  1.
         11   -1    0    0    0    0 -0.00000000000E+00 -0.00000000000E+00 -0.45593999997E+02  0.45594000000E+02  0.51100000000E-03 0. -1.
    9900012    2    1    2    0    0 -0.32340132550E+02  0.21018197396E+02 -0.12865330962E+02  0.50528861595E+02  0.30000005303E+02 0.  0.
         12    1    1    2    0    0  0.32340132550E+02 -0.21018197396E+02  0.12865330962E+02  0.40659138405E+02  0.00000000000E+00 0. -1.
         11    1    3    3    0    0 -0.93639438138E+01  0.12378330286E+02 -0.68365335154E+01  0.16960091249E+02  0.51100000000E-03 0. -1.
        -11    1    3    3    0    0 -0.15498721425E+02  0.35849977507E+01  0.72747655908E+01  0.17492420912E+02  0.51100000000E-03 0.  1.
         12    1    3    3    0    0 -0.74774673106E+01  0.50548693593E+01 -0.13303563038E+02  0.16076349434E+02  0.00000000000E+00 0. -1.
</event>
<event>
 7    1  0.5408841E-013  0.5052885E+02  0.7816164E-02  0.1300439E+00
        -11   -1    0    0    0    0  0.00000000000E+00  0.00000000000E+00  0.45593999997E+02  0.45594000000E+02  0.51100000000E-03 0. -1.
         11   -1    0    0    0    0 -0.00000000000E+00 -0.00000000000E+00 -0.45593999997E+02  0.45594000000E+02  0.51100000000E-03 0.  1.
    9900012    2    1    2    0    0  0.16688224301E+02  0.31271707669E+02 -0.19918577159E+02  0.50528852851E+02  0.29999978726E+02 0.  0.
         12    1    1    2    0    0 -0.16688224301E+02 -0.31271707669E+02  0.19918577159E+02  0.40659147149E+02  0.00000000000E+00 0. -1.
         11    1    3    3    0    0  0.57870441854E+00  0.20849033566E+02 -0.11569605703E+02  0.23851056074E+02  0.51100000000E-03 0. -1.
        -11    1    3    3    0    0  0.49966696502E+01  0.11918699893E+02 -0.39434246562E+00  0.12929718519E+02  0.51100000000E-03 0.  1.
        -12    1    3    3    0    0  0.11112850232E+02 -0.14960257900E+01 -0.79546289895E+01  0.13748078259E+02  0.00000000000E+00 0.  1.
</event>
<event>
 7    1  0.5408841E-013  0.5052884E+02  0.7816164E-02  0.1300439E+00
        -11   -1    0    0    0    0  0.00000000000E+00  0.00000000000E+00  0.45593999997E+02  0.45594000000E+02  0.51100000000E-03 0. -1.
         11   -1    0    0    0    0 -0.00000000000E+00 -0.00000000000E+00 -0.45593999997E+02  0.45594000000E+02  0.51100000000E-03 0.  1.
    9900012    2    1    2    0    0  0.21030926169E+02 -0.24230666370E+02 -0.24974830936E+02  0.50528840779E+02  0.29999942032E+02 0.  0.
         12    1    1    2    0    0 -0.21030926169E+02  0.24230666370E+02  0.24974830936E+02  0.40659159221E+02  0.00000000000E+00 0. -1.
         11    1    3    3    0    0  0.18404180351E+02 -0.26132049714E+02 -0.78516455299E+01  0.32912705972E+02  0.51100000000E-03 0. -1.
        -11    1    3    3    0    0  0.64681765923E+00  0.43966426516E+00 -0.83886878085E+00  0.11468996656E+01  0.51100000000E-03 0.  1.
         12    1    3    3    0    0  0.19799281585E+01  0.14617190786E+01 -0.16284316625E+02  0.16469235141E+02  0.00000000000E+00 0. -1.
</event>
<event>
 7    1  0.5408841E-013  0.5052885E+02  0.7816164E-02  0.1300439E+00
        -11   -1    0    0    0    0  0.00000000000E+00  0.00000000000E+00  0.45593999997E+02  0.45594000000E+02  0.51100000000E-03 0. -1.
         11   -1    0    0    0    0 -0.00000000000E+00 -0.00000000000E+00 -0.45593999997E+02  0.45594000000E+02  0.51100000000E-03 0.  1.
    9900012    2    1    2    0    0  0.79099717192E+01 -0.72363062283E+01 -0.39220334931E+02  0.50528850322E+02  0.29999971040E+02 0.  0.
         12    1    1    2    0    0 -0.79099717192E+01  0.72363062283E+01  0.39220334931E+02  0.40659149678E+02  0.00000000000E+00 0. -1.
         11    1    3    3    0    0 -0.46860372534E+01  0.28896660581E+00 -0.32006051822E+01  0.56821052994E+01  0.51100000000E-03 0. -1.
        -11    1    3    3    0    0 -0.37174139194E+01  0.46114993136E+01 -0.49714485095E+01  0.77330713634E+01  0.51100000000E-03 0.  1.
        -12    1    3    3    0    0  0.16313422892E+02 -0.12136772148E+02 -0.31048281239E+02  0.37113673660E+02  0.00000000000E+00 0.  1.
</event>
<event>
 7    1  0.5408841E-013  0.5052892E+02  0.7816164E-02  0.1300439E+00
        -11   -1    0    0    0    0  0.00000000000E+00  0.00000000000E+00  0.45593999997E+02  0.45594000000E+02  0.51100000000E-03 0. -1.
         11   -1    0    0    0    0 -0.00000000000E+00 -0.00000000000E+00 -0.45593999997E+02  0.45594000000E+02  0.51100000000E-03 0.  1.
    9900012    2    1    2    0    0  0.91727037007E+00  0.40348995407E+02  0.49273051591E+01  0.50528915512E+02  0.30000169189E+02 0.  0.
         12    1    1    2    0    0 -0.91727037007E+00 -0.40348995407E+02 -0.49273051591E+01  0.40659084488E+02  0.00000000000E+00 0. -1.
         11    1    3    3    0    0 -0.60845950379E-01  0.13930898950E+02  0.71289318273E+01  0.15649131511E+02  0.51100000000E-03 0. -1.
        -11    1    3    3    0    0 -0.35190010274E+01  0.23567658356E+02  0.64810765387E+01  0.24694579203E+02  0.51100000000E-03 0.  1.
        -12    1    3    3    0    0  0.44971173478E+01  0.28504381004E+01 -0.86827032069E+01  0.10185204798E+02  0.00000000000E+00 0.  1.
</event>
<event>
 7    1  0.5408841E-013  0.5052886E+02  0.7816164E-02  0.1300439E+00
        -11   -1    0    0    0    0  0.00000000000E+00  0.00000000000E+00  0.45593999997E+02  0.45594000000E+02  0.51100000000E-03 0. -1.
         11   -1    0    0    0    0 -0.00000000000E+00 -0.00000000000E+00 -0.45593999997E+02  0.45594000000E+02  0.51100000000E-03 0.  1.
    9900012    2    1    2    0    0  0.12570636946E+02 -0.74261665402E+01 -0.37947285257E+02  0.50528864236E+02  0.30000013330E+02 0.  0.
         12    1    1    2    0    0 -0.12570636946E+02  0.74261665402E+01  0.37947285257E+02  0.40659135764E+02  0.00000000000E+00 0. -1.
         11    1    3    3    0    0  0.72406193394E+01  0.92166610795E+01 -0.16389268080E+02  0.20148983060E+02  0.51100000000E-03 0. -1.
        -11    1    3    3    0    0  0.12833013492E+01  0.52336137011E+00 -0.80397397643E+01  0.81583199995E+01  0.51100000000E-03 0.  1.
         12    1    3    3    0    0  0.40467162573E+01 -0.17166188990E+02 -0.13518277413E+02  0.22221561176E+02  0.00000000000E+00 0. -1.
</event>
<event>
 7    1  0.5408841E-013  0.5052884E+02  0.7816164E-02  0.1300439E+00
        -11   -1    0    0    0    0  0.00000000000E+00  0.00000000000E+00  0.45593999997E+02  0.45594000000E+02  0.51100000000E-03 0.  1.
         11   -1    0    0    0    0 -0.00000000000E+00 -0.00000000000E+00 -0.45593999997E+02  0.45594000000E+02  0.51100000000E-03 0. -1.
    9900012    2    1    2    0    0  0.30137497397E+02 -0.74203628171E+00  0.27282736394E+02  0.50528842700E+02  0.29999947871E+02 0.  0.
         12    1    1    2    0    0 -0.30137497397E+02  0.74203628171E+00 -0.27282736394E+02  0.40659157300E+02  0.00000000000E+00 0. -1.
         11    1    3    3    0    0 -0.86572031693E+00 -0.26264548820E+01  0.59897591433E+01  0.65973442968E+01  0.51100000000E-03 0. -1.
        -11    1    3    3    0    0 -0.18829383055E+00  0.69383669156E+00  0.11059106158E+02  0.11082449783E+02  0.51100000000E-03 0.  1.
         12    1    3    3    0    0  0.31191511544E+02  0.11905819087E+01  0.10233871093E+02  0.32849048620E+02  0.00000000000E+00 0. -1.
</event>
<event>
 7    1  0.5408841E-013  0.5052886E+02  0.7816164E-02  0.1300439E+00
        -11   -1    0    0    0    0  0.00000000000E+00  0.00000000000E+00  0.45593999997E+02  0.45594000000E+02  0.51100000000E-03 0.  1.
         11   -1    0    0    0    0 -0.00000000000E+00 -0.00000000000E+00 -0.45593999997E+02  0.45594000000E+02  0.51100000000E-03 0. -1.
    9900012    2    1    2    0    0  0.15051346626E+02  0.30479624709E+02  0.22307288271E+02  0.50528859974E+02  0.30000000377E+02 0.  0.
         12    1    1    2    0    0 -0.15051346626E+02 -0.30479624709E+02 -0.22307288271E+02  0.40659140026E+02  0.00000000000E+00 0. -1.
         11    1    3    3    0    0 -0.62701792774E+00  0.30089839788E+01  0.10695007810E+02  0.11127907638E+02  0.51100000000E-03 0. -1.
        -11    1    3    3    0    0  0.59357834350E+01  0.14761270603E+02  0.16237049860E+02  0.22732585054E+02  0.51100000000E-03 0.  1.
        -12    1    3    3    0    0  0.97425811186E+01  0.12709370127E+02 -0.46247693991E+01  0.16668367282E+02  0.00000000000E+00 0.  1.
</event>
<event>
 7    1  0.5408841E-013  0.5052886E+02  0.7816164E-02  0.1300439E+00
        -11   -1    0    0    0    0  0.00000000000E+00  0.00000000000E+00  0.45593999997E+02  0.45594000000E+02  0.51100000000E-03 0.  1.
         11   -1    0    0    0    0 -0.00000000000E+00 -0.00000000000E+00 -0.45593999997E+02  0.45594000000E+02  0.51100000000E-03 0. -1.
    9900012    2    1    2    0    0  0.20352256164E+02  0.25874605749E+02  0.23863276145E+02  0.50528862011E+02  0.30000006568E+02 0.  0.
         12    1    1    2    0    0 -0.20352256164E+02 -0.25874605749E+02 -0.23863276145E+02  0.40659137989E+02  0.00000000000E+00 0. -1.
         11    1    3    3    0    0  0.99920316006E+01  0.48593829478E+01  0.49726879849E+01  0.12172999803E+02  0.51100000000E-03 0. -1.
        -11    1    3    3    0    0  0.25361034609E+01  0.13838924255E+02  0.23007861535E+02  0.26968673271E+02  0.51100000000E-03 0.  1.
         12    1    3    3    0    0  0.78241211028E+01  0.71762985461E+01 -0.41172733749E+01  0.11387188937E+02  0.00000000000E+00 0. -1.
</event>
<event>
 7    1  0.5408841E-013  0.5052881E+02  0.7816164E-02  0.1300439E+00
        -11   -1    0    0    0    0  0.00000000000E+00  0.00000000000E+00  0.45593999997E+02  0.45594000000E+02  0.51100000000E-03 0.  1.
         11   -1    0    0    0    0 -0.00000000000E+00 -0.00000000000E+00 -0.45593999997E+02  0.45594000000E+02  0.51100000000E-03 0. -1.
    9900012    2    1    2    0    0 -0.35453058044E+02 -0.76135224176E+00  0.19891472177E+02  0.50528811036E+02  0.29999851624E+02 0.  0.
         12    1    1    2    0    0  0.35453058044E+02  0.76135224176E+00 -0.19891472177E+02  0.40659188964E+02  0.00000000000E+00 0. -1.
         11    1    3    3    0    0 -0.36417817887E+00 -0.98593262181E+00  0.95898877097E+01  0.96473123421E+01  0.51100000000E-03 0. -1.
        -11    1    3    3    0    0 -0.73604523935E+01 -0.33617222980E+00  0.10881432257E+02  0.13141340854E+02  0.51100000000E-03 0.  1.
        -12    1    3    3    0    0 -0.27728427471E+02  0.56075260985E+00 -0.57984779003E+00  0.27740157840E+02  0.00000000000E+00 0.  1.
</event>
<event>
 7    1  0.5408841E-013  0.5052884E+02  0.7816164E-02  0.1300439E+00
        -11   -1    0    0    0    0  0.00000000000E+00  0.00000000000E+00  0.45593999997E+02  0.45594000000E+02  0.51100000000E-03 0.  1.
         11   -1    0    0    0    0 -0.00000000000E+00 -0.00000000000E+00 -0.45593999997E+02  0.45594000000E+02  0.51100000000E-03 0. -1.
    9900012    2    1    2    0    0  0.20357996855E+02  0.19238245785E+02  0.29472171468E+02  0.50528843247E+02  0.29999949532E+02 0.  0.
         12    1    1    2    0    0 -0.20357996855E+02 -0.19238245785E+02 -0.29472171468E+02  0.40659156753E+02  0.00000000000E+00 0. -1.
         11    1    3    3    0    0  0.57322731506E+01  0.84139011122E+01  0.43392807404E+01  0.11067160657E+02  0.51100000000E-03 0. -1.
        -11    1    3    3    0    0 -0.32238547786E+01  0.83860251679E+01  0.57269021729E+00  0.90025902993E+01  0.51100000000E-03 0.  1.
        -12    1    3    3    0    0  0.17849578483E+02  0.24383195049E+01  0.24560200511E+02  0.30459092290E+02  0.00000000000E+00 0.  1.
</event>
<event>
 7    1  0.5408841E-013  0.5052896E+02  0.7816164E-02  0.1300438E+00
        -11   -1    0    0    0    0  0.00000000000E+00  0.00000000000E+00  0.45593999997E+02  0.45594000000E+02  0.51100000000E-03 0. -1.
         11   -1    0    0    0    0 -0.00000000000E+00 -0.00000000000E+00 -0.45593999997E+02  0.45594000000E+02  0.51100000000E-03 0.  1.
    9900012    2    1    2    0    0  0.54929690255E+01 -0.34018554404E+02 -0.21580607823E+02  0.50528961812E+02  0.30000309921E+02 0.  0.
         12    1    1    2    0    0 -0.54929690255E+01  0.34018554404E+02  0.21580607823E+02  0.40659038188E+02  0.00000000000E+00 0. -1.
         11    1    3    3    0    0 -0.32448434165E+00  0.18690868556E+01 -0.11375797731E+01  0.22119818632E+01  0.51100000000E-03 0. -1.
        -11    1    3    3    0    0  0.35236134941E+01  0.15250840629E+01  0.22982361962E+01  0.44747763441E+01  0.51100000000E-03 0.  1.
        -12    1    3    3    0    0  0.22938398731E+01 -0.37412725322E+02 -0.22741264246E+02  0.43842203604E+02  0.00000000000E+00 0.  1.
</event>
<event>
 7    1  0.5408841E-013  0.5052885E+02  0.7816164E-02  0.1300439E+00
        -11   -1    0    0    0    0  0.00000000000E+00  0.00000000000E+00  0.45593999997E+02  0.45594000000E+02  0.51100000000E-03 0.  1.
         11   -1    0    0    0    0 -0.00000000000E+00 -0.00000000000E+00 -0.45593999997E+02  0.45594000000E+02  0.51100000000E-03 0. -1.
    9900012    2    1    2    0    0 -0.36566804659E+01  0.16200434260E+02  0.37112545457E+02  0.50528850814E+02  0.29999972535E+02 0.  0.
         12    1    1    2    0    0  0.36566804659E+01 -0.16200434260E+02 -0.37112545457E+02  0.40659149186E+02  0.00000000000E+00 0. -1.
         11    1    3    3    0    0 -0.11558315502E+02  0.93177086281E+01  0.71545084353E+01  0.16480331991E+02  0.51100000000E-03 0. -1.
        -11    1    3    3    0    0 -0.19022077497E+01  0.23083802329E+00  0.14225432040E+02  0.14353905305E+02  0.51100000000E-03 0.  1.
        -12    1    3    3    0    0  0.98038427860E+01  0.66518876083E+01  0.15732604982E+02  0.19694613518E+02  0.00000000000E+00 0.  1.
</event>
<event>
 7    1  0.5408841E-013  0.5052885E+02  0.7816164E-02  0.1300439E+00
        -11   -1    0    0    0    0  0.00000000000E+00  0.00000000000E+00  0.45593999997E+02  0.45594000000E+02  0.51100000000E-03 0. -1.
         11   -1    0    0    0    0 -0.00000000000E+00 -0.00000000000E+00 -0.45593999997E+02  0.45594000000E+02  0.51100000000E-03 0.  1.
    9900012    2    1    2    0    0 -0.32941015220E+02  0.13597909943E+02  0.19574283323E+02  0.50528853352E+02  0.29999980249E+02 0.  0.
         12    1    1    2    0    0  0.32941015220E+02 -0.13597909943E+02 -0.19574283323E+02  0.40659146648E+02  0.00000000000E+00 0. -1.
         11    1    3    3    0    0 -0.22824536998E+01  0.72442078295E+01  0.67387530534E+01  0.10153764570E+02  0.51100000000E-03 0. -1.
        -11    1    3    3    0    0 -0.90873563107E+01  0.10053718071E+01  0.15495933895E+02  0.17992075609E+02  0.51100000000E-03 0.  1.
        -12    1    3    3    0    0 -0.21571205209E+02  0.53483303067E+01 -0.26604036254E+01  0.22383013173E+02  0.00000000000E+00 0.  1.
</event>
<event>
 7    1  0.5408841E-013  0.5052886E+02  0.7816164E-02  0.1300439E+00
        -11   -1    0    0    0    0  0.00000000000E+00  0.00000000000E+00  0.45593999997E+02  0.45594000000E+02  0.51100000000E-03 0. -1.
         11   -1    0    0    0    0 -0.00000000000E+00 -0.00000000000E+00 -0.45593999997E+02  0.45594000000E+02  0.51100000000E-03 0.  1.
    9900012    2    1    2    0    0  0.16149327640E+02  0.25847053995E+02 -0.26912717814E+02  0.50528863714E+02  0.30000011744E+02 0.  0.
         12    1    1    2    0    0 -0.16149327640E+02 -0.25847053995E+02  0.26912717814E+02  0.40659136286E+02  0.00000000000E+00 0. -1.
         11    1    3    3    0    0  0.11049442665E+01  0.67955644393E+01 -0.34803246249E+01  0.77144836273E+01  0.51100000000E-03 0. -1.
        -11    1    3    3    0    0  0.15697306954E+02  0.25127157552E+02 -0.20559598699E+02  0.36062121280E+02  0.51100000000E-03 0.  1.
         12    1    3    3    0    0 -0.65292358134E+00 -0.60756679967E+01 -0.28727944894E+01  0.67522588063E+01  0.00000000000E+00 0. -1.
</event>
<event>
 7    1  0.5408841E-013  0.5052886E+02  0.7816164E-02  0.1300439E+00
        -11   -1    0    0    0    0  0.00000000000E+00  0.00000000000E+00  0.45593999997E+02  0.45594000000E+02  0.51100000000E-03 0.  1.
         11   -1    0    0    0    0 -0.00000000000E+00 -0.00000000000E+00 -0.45593999997E+02  0.45594000000E+02  0.51100000000E-03 0. -1.
    9900012    2    1    2    0    0 -0.23225082022E+02  0.22424416352E+02  0.24716524587E+02  0.50528862389E+02  0.30000007717E+02 0.  0.
         12    1    1    2    0    0  0.23225082022E+02 -0.22424416352E+02 -0.24716524587E+02  0.40659137611E+02  0.00000000000E+00 0. -1.
         11    1    3    3    0    0  0.47141015971E+01  0.33035623221E+01  0.62251587899E+01  0.84787310433E+01  0.51100000000E-03 0. -1.
        -11    1    3    3    0    0 -0.79301011398E+01  0.22572798226E+01 -0.23762840652E+01  0.85807075760E+01  0.51100000000E-03 0.  1.
        -12    1    3    3    0    0 -0.20009082479E+02  0.16863574207E+02  0.20867649863E+02  0.33469423770E+02  0.00000000000E+00 0.  1.
</event>
<event>
 7    1  0.5408841E-013  0.5052887E+02  0.7816164E-02  0.1300439E+00
        -11   -1    0    0    0    0  0.00000000000E+00  0.00000000000E+00  0.45593999997E+02  0.45594000000E+02  0.51100000000E-03 0.  1.
         11   -1    0    0    0    0 -0.00000000000E+00 -0.00000000000E+00 -0.45593999997E+02  0.45594000000E+02  0.51100000000E-03 0. -1.
    9900012    2    1    2    0    0  0.13862528173E+02  0.19473546219E+02  0.32890361779E+02  0.50528873255E+02  0.30000040747E+02 0.  0.
         12    1    1    2    0    0 -0.13862528173E+02 -0.19473546219E+02 -0.32890361779E+02  0.40659126745E+02  0.00000000000E+00 0. -1.
         11    1    3    3    0    0  0.18507542064E+00 -0.17044999749E+01 -0.10235077888E+01  0.19967827950E+01  0.51100000000E-03 0. -1.
        -11    1    3    3    0    0 -0.67759530799E+01  0.67185734224E+01  0.11256389616E+02  0.14756662103E+02  0.51100000000E-03 0.  1.
        -12    1    3    3    0    0  0.20453405832E+02  0.14459472772E+02  0.22657479952E+02  0.33775428358E+02  0.00000000000E+00 0.  1.
</event>
<event>
 7    1  0.5408841E-013  0.5052886E+02  0.7816164E-02  0.1300439E+00
        -11   -1    0    0    0    0  0.00000000000E+00  0.00000000000E+00  0.45593999997E+02  0.45594000000E+02  0.51100000000E-03 0.  1.
         11   -1    0    0    0    0 -0.00000000000E+00 -0.00000000000E+00 -0.45593999997E+02  0.45594000000E+02  0.51100000000E-03 0. -1.
    9900012    2    1    2    0    0  0.25986469385E+02 -0.22837154176E+00  0.31270068336E+02  0.50528856890E+02  0.29999991004E+02 0.  0.
         12    1    1    2    0    0 -0.25986469385E+02  0.22837154176E+00 -0.31270068336E+02  0.40659143110E+02  0.00000000000E+00 0. -1.
         11    1    3    3    0    0 -0.42449949838E+00 -0.38976069383E+00 -0.76465277410E+00  0.95750057370E+00  0.51100000000E-03 0. -1.
        -11    1    3    3    0    0  0.35770331386E+01 -0.55899310138E+01 -0.30608521743E+01  0.73083042567E+01  0.51100000000E-03 0.  1.
        -12    1    3    3    0    0  0.22833935745E+02  0.57513201659E+01  0.35095573285E+02  0.42263052060E+02  0.00000000000E+00 0.  1.
</event>
<event>
 7    1  0.5408841E-013  0.5052886E+02  0.7816164E-02  0.1300439E+00
        -11   -1    0    0    0    0  0.00000000000E+00  0.00000000000E+00  0.45593999997E+02  0.45594000000E+02  0.51100000000E-03 0. -1.
         11   -1    0    0    0    0 -0.00000000000E+00 -0.00000000000E+00 -0.45593999997E+02  0.45594000000E+02  0.51100000000E-03 0.  1.
    9900012    2    1    2    0    0  0.71170054296E+01  0.17903132841E+02 -0.35804912028E+02  0.50528860103E+02  0.30000000770E+02 0.  0.
         12    1    1    2    0    0 -0.71170054296E+01 -0.17903132841E+02  0.35804912028E+02  0.40659139897E+02  0.00000000000E+00 0. -1.
         11    1    3    3    0    0 -0.66609811262E+01  0.85694211583E+01 -0.18118951068E+02  0.21121080384E+02  0.51100000000E-03 0. -1.
        -11    1    3    3    0    0 -0.36037608843E+01  0.78598928720E+00 -0.51525561320E+01  0.63366952448E+01  0.51100000000E-03 0.  1.
         12    1    3    3    0    0  0.17381747440E+02  0.85477223958E+01 -0.12533404828E+02  0.23071084474E+02  0.00000000000E+00 0. -1.
</event>
<event>
 7    1  0.5408841E-013  0.5052886E+02  0.7816164E-02  0.1300439E+00
        -11   -1    0    0    0    0  0.00000000000E+00  0.00000000000E+00  0.45593999997E+02  0.45594000000E+02  0.51100000000E-03 0.  1.
         11   -1    0    0    0    0 -0.00000000000E+00 -0.00000000000E+00 -0.45593999997E+02  0.45594000000E+02  0.51100000000E-03 0. -1.
    9900012    2    1    2    0    0  0.33599853547E+02 -0.22598742815E+02  0.36759225213E+01  0.50528859065E+02  0.29999997613E+02 0.  0.
         12    1    1    2    0    0 -0.33599853547E+02  0.22598742815E+02 -0.36759225213E+01  0.40659140935E+02  0.00000000000E+00 0. -1.
         11    1    3    3    0    0  0.43506973174E+01  0.39133552388E+01 -0.26330382494E+01  0.64168377770E+01  0.51100000000E-03 0. -1.
        -11    1    3    3    0    0  0.10582335975E+02 -0.11176281042E+02  0.11731193469E+02  0.19352415691E+02  0.51100000000E-03 0.  1.
         12    1    3    3    0    0  0.18666820255E+02 -0.15335817011E+02 -0.54222326983E+01  0.24759605596E+02  0.00000000000E+00 0. -1.
</event>
<event>
 7    1  0.5408841E-013  0.5052886E+02  0.7816164E-02  0.1300439E+00
        -11   -1    0    0    0    0  0.00000000000E+00  0.00000000000E+00  0.45593999997E+02  0.45594000000E+02  0.51100000000E-03 0.  1.
         11   -1    0    0    0    0 -0.00000000000E+00 -0.00000000000E+00 -0.45593999997E+02  0.45594000000E+02  0.51100000000E-03 0. -1.
    9900012    2    1    2    0    0 -0.16032167231E+02  0.72375663622E+01  0.36657232515E+02  0.50528862668E+02  0.30000008565E+02 0.  0.
         12    1    1    2    0    0  0.16032167231E+02 -0.72375663622E+01 -0.36657232515E+02  0.40659137332E+02  0.00000000000E+00 0. -1.
         11    1    3    3    0    0 -0.16856803777E+02  0.58120869125E+01  0.12745760166E+02  0.21917723202E+02  0.51100000000E-03 0. -1.
        -11    1    3    3    0    0 -0.72039731366E+01  0.17909427147E+01  0.89516209199E+01  0.11629110977E+02  0.51100000000E-03 0.  1.
         12    1    3    3    0    0  0.80286096828E+01 -0.36546326501E+00  0.14959851428E+02  0.16982028489E+02  0.00000000000E+00 0. -1.
</event>
<event>
 7    1  0.5408841E-013  0.5052886E+02  0.7816164E-02  0.1300439E+00
        -11   -1    0    0    0    0  0.00000000000E+00  0.00000000000E+00  0.45593999997E+02  0.45594000000E+02  0.51100000000E-03 0.  1.
         11   -1    0    0    0    0 -0.00000000000E+00 -0.00000000000E+00 -0.45593999997E+02  0.45594000000E+02  0.51100000000E-03 0. -1.
    9900012    2    1    2    0    0  0.25312170956E+02  0.48902142675E+01  0.31441145963E+02  0.50528857688E+02  0.29999993427E+02 0.  0.
         12    1    1    2    0    0 -0.25312170956E+02 -0.48902142675E+01 -0.31441145963E+02  0.40659142312E+02  0.00000000000E+00 0. -1.
         11    1    3    3    0    0  0.14366447374E+02  0.15853266502E+02  0.13043386230E+02  0.25056951002E+02  0.51100000000E-03 0. -1.
        -11    1    3    3    0    0  0.57642929790E+01 -0.31791329619E+00  0.57694737561E+01  0.81617994397E+01  0.51100000000E-03 0.  1.
        -12    1    3    3    0    0  0.51814306032E+01 -0.10645138938E+02  0.12628285978E+02  0.17310107246E+02  0.00000000000E+00 0.  1.
</event>
<event>
 7    1  0.5408841E-013  0.5052886E+02  0.7816164E-02  0.1300439E+00
        -11   -1    0    0    0    0  0.00000000000E+00  0.00000000000E+00  0.45593999997E+02  0.45594000000E+02  0.51100000000E-03 0.  1.
         11   -1    0    0    0    0 -0.00000000000E+00 -0.00000000000E+00 -0.45593999997E+02  0.45594000000E+02  0.51100000000E-03 0. -1.
    9900012    2    1    2    0    0 -0.12485322156E+02  0.34147120060E+02  0.18200450706E+02  0.50528862236E+02  0.30000007254E+02 0.  0.
         12    1    1    2    0    0  0.12485322156E+02 -0.34147120060E+02 -0.18200450706E+02  0.40659137764E+02  0.00000000000E+00 0. -1.
         11    1    3    3    0    0 -0.13981081881E+01 -0.20422898449E+01  0.77630561800E+01  0.81480485904E+01  0.51100000000E-03 0. -1.
        -11    1    3    3    0    0 -0.11802836627E+01  0.38473524430E+01  0.73947386553E+01  0.84188687118E+01  0.51100000000E-03 0.  1.
        -12    1    3    3    0    0 -0.99069303053E+01  0.32342057462E+02  0.30426558709E+01  0.33961944934E+02  0.00000000000E+00 0.  1.
</event>
<event>
 7    1  0.5408841E-013  0.5052883E+02  0.7816164E-02  0.1300439E+00
        -11   -1    0    0    0    0  0.00000000000E+00  0.00000000000E+00  0.45593999997E+02  0.45594000000E+02  0.51100000000E-03 0.  1.
         11   -1    0    0    0    0 -0.00000000000E+00 -0.00000000000E+00 -0.45593999997E+02  0.45594000000E+02  0.51100000000E-03 0. -1.
    9900012    2    1    2    0    0 -0.55714987822E+01  0.11084683606E+02  0.38720227758E+02  0.50528833174E+02  0.29999918915E+02 0.  0.
         12    1    1    2    0    0  0.55714987822E+01 -0.11084683606E+02 -0.38720227758E+02  0.40659166826E+02  0.00000000000E+00 0. -1.
         11    1    3    3    0    0  0.13443316379E+01 -0.63939968864E+01  0.21050406575E+01  0.68645189319E+01  0.51100000000E-03 0. -1.
        -11    1    3    3    0    0  0.42393788401E+01  0.23065781790E+01  0.57406032146E+01  0.74998107559E+01  0.51100000000E-03 0.  1.
         12    1    3    3    0    0 -0.11155209260E+02  0.15172102313E+02  0.30874583886E+02  0.36164503486E+02  0.00000000000E+00 0. -1.
</event>
<event>
 7    1  0.5408841E-013  0.5052887E+02  0.7816164E-02  0.1300439E+00
        -11   -1    0    0    0    0  0.00000000000E+00  0.00000000000E+00  0.45593999997E+02  0.45594000000E+02  0.51100000000E-03 0.  1.
         11   -1    0    0    0    0 -0.00000000000E+00 -0.00000000000E+00 -0.45593999997E+02  0.45594000000E+02  0.51100000000E-03 0. -1.
    9900012    2    1    2    0    0 -0.25725434746E+02 -0.28084675980E+02  0.14234390457E+02  0.50528869543E+02  0.30000029463E+02 0.  0.
         12    1    1    2    0    0  0.25725434746E+02  0.28084675980E+02 -0.14234390457E+02  0.40659130457E+02  0.00000000000E+00 0. -1.
         11    1    3    3    0    0  0.37764930515E-01 -0.16090699923E+01  0.42837958866E+01  0.45761818025E+01  0.51100000000E-03 0. -1.
        -11    1    3    3    0    0 -0.36085768472E+01 -0.14935614176E+01  0.11880941185E+02  0.12506371027E+02  0.51100000000E-03 0.  1.
        -12    1    3    3    0    0 -0.22154622830E+02 -0.24982044571E+02 -0.19303466139E+01  0.33446316714E+02  0.00000000000E+00 0.  1.
</event>
<event>
 7    1  0.5408841E-013  0.5052886E+02  0.7816164E-02  0.1300439E+00
        -11   -1    0    0    0    0  0.00000000000E+00  0.00000000000E+00  0.45593999997E+02  0.45594000000E+02  0.51100000000E-03 0.  1.
         11   -1    0    0    0    0 -0.00000000000E+00 -0.00000000000E+00 -0.45593999997E+02  0.45594000000E+02  0.51100000000E-03 0. -1.
    9900012    2    1    2    0    0  0.18257546968E+02  0.18577693612E+02 -0.31220131221E+02  0.50528864315E+02  0.30000013570E+02 0.  0.
         12    1    1    2    0    0 -0.18257546968E+02 -0.18577693612E+02  0.31220131221E+02  0.40659135685E+02  0.00000000000E+00 0. -1.
         11    1    3    3    0    0 -0.31268802989E+01  0.81504348091E+00  0.11099345503E+01  0.34166696133E+01  0.51100000000E-03 0. -1.
        -11    1    3    3    0    0  0.48219188157E+01  0.10916205137E+02 -0.23187349932E+01  0.12156930858E+02  0.51100000000E-03 0.  1.
         12    1    3    3    0    0  0.16562508452E+02  0.68464449935E+01 -0.30011330778E+02  0.34955263843E+02  0.00000000000E+00 0. -1.
</event>
<event>
 7    1  0.5408841E-013  0.5052887E+02  0.7816164E-02  0.1300439E+00
        -11   -1    0    0    0    0  0.00000000000E+00  0.00000000000E+00  0.45593999997E+02  0.45594000000E+02  0.51100000000E-03 0.  1.
         11   -1    0    0    0    0 -0.00000000000E+00 -0.00000000000E+00 -0.45593999997E+02  0.45594000000E+02  0.51100000000E-03 0. -1.
    9900012    2    1    2    0    0  0.24209592749E+02  0.29299412402E+02  0.14443174797E+02  0.50528865154E+02  0.30000016123E+02 0.  0.
         12    1    1    2    0    0 -0.24209592749E+02 -0.29299412402E+02 -0.14443174797E+02  0.40659134846E+02  0.00000000000E+00 0. -1.
         11    1    3    3    0    0  0.37289816722E+01  0.25498456758E+00 -0.40099903680E+01  0.54818194474E+01  0.51100000000E-03 0. -1.
        -11    1    3    3    0    0  0.48742243032E+01  0.17136386598E+02 -0.41223624907E+00  0.17820879529E+02  0.51100000000E-03 0.  1.
        -12    1    3    3    0    0  0.15606386774E+02  0.11908041236E+02  0.18865401414E+02  0.27226166178E+02  0.00000000000E+00 0.  1.
</event>
<event>
 7    1  0.5408841E-013  0.5052884E+02  0.7816164E-02  0.1300439E+00
        -11   -1    0    0    0    0  0.00000000000E+00  0.00000000000E+00  0.45593999997E+02  0.45594000000E+02  0.51100000000E-03 0.  1.
         11   -1    0    0    0    0 -0.00000000000E+00 -0.00000000000E+00 -0.45593999997E+02  0.45594000000E+02  0.51100000000E-03 0. -1.
    9900012    2    1    2    0    0 -0.11337100223E+02  0.17503255928E+02  0.34903770927E+02  0.50528843165E+02  0.29999949286E+02 0.  0.
         12    1    1    2    0    0  0.11337100223E+02 -0.17503255928E+02 -0.34903770927E+02  0.40659156835E+02  0.00000000000E+00 0. -1.
         11    1    3    3    0    0 -0.14305277028E+01 -0.30845995989E+01  0.11739452564E+02  0.12221943829E+02  0.51100000000E-03 0. -1.
        -11    1    3    3    0    0 -0.41349709484E+01  0.29025802944E+01  0.18431128137E+02  0.19110976997E+02  0.51100000000E-03 0.  1.
        -12    1    3    3    0    0 -0.57716015720E+01  0.17685275233E+02  0.47331902265E+01  0.19195922340E+02  0.00000000000E+00 0.  1.
</event>
<event>
 7    1  0.5408841E-013  0.5052886E+02  0.7816164E-02  0.1300439E+00
        -11   -1    0    0    0    0  0.00000000000E+00  0.00000000000E+00  0.45593999997E+02  0.45594000000E+02  0.51100000000E-03 0.  1.
         11   -1    0    0    0    0 -0.00000000000E+00 -0.00000000000E+00 -0.45593999997E+02  0.45594000000E+02  0.51100000000E-03 0. -1.
    9900012    2    1    2    0    0 -0.10673920405E+02 -0.54094379881E+01  0.38858341536E+02  0.50528864457E+02  0.30000014005E+02 0.  0.
         12    1    1    2    0    0  0.10673920405E+02  0.54094379881E+01 -0.38858341536E+02  0.40659135543E+02  0.00000000000E+00 0. -1.
         11    1    3    3    0    0 -0.98795440423E+01 -0.84621528395E+00  0.75894984036E+00  0.99447210072E+01  0.51100000000E-03 0. -1.
        -11    1    3    3    0    0  0.63427275004E+00 -0.85143308623E+00 -0.89428448320E+00  0.13881589317E+01  0.51100000000E-03 0.  1.
        -12    1    3    3    0    0 -0.14286491127E+01 -0.37117896179E+01  0.38993676179E+02  0.39195984519E+02  0.00000000000E+00 0.  1.
</event>
<event>
 7    1  0.5408841E-013  0.5052887E+02  0.7816164E-02  0.1300439E+00
        -11   -1    0    0    0    0  0.00000000000E+00  0.00000000000E+00  0.45593999997E+02  0.45594000000E+02  0.51100000000E-03 0. -1.
         11   -1    0    0    0    0 -0.00000000000E+00 -0.00000000000E+00 -0.45593999997E+02  0.45594000000E+02  0.51100000000E-03 0.  1.
    9900012    2    1    2    0    0 -0.38269391145E+02 -0.13733127965E+02 -0.14197067944E+00  0.50528865012E+02  0.30000015690E+02 0.  0.
         12    1    1    2    0    0  0.38269391145E+02  0.13733127965E+02  0.14197067944E+00  0.40659134988E+02  0.00000000000E+00 0. -1.
         11    1    3    3    0    0 -0.64207616855E+01  0.21221491566E+01 -0.28960728420E+01  0.73564214011E+01  0.51100000000E-03 0. -1.
        -11    1    3    3    0    0 -0.29724510361E+02 -0.76747064687E+01  0.97398186765E+01  0.32207323759E+02  0.51100000000E-03 0.  1.
         12    1    3    3    0    0 -0.21241190981E+01 -0.81805706530E+01 -0.69857165139E+01  0.10965119852E+02  0.00000000000E+00 0. -1.
</event>
<event>
 7    1  0.5408841E-013  0.5052886E+02  0.7816164E-02  0.1300439E+00
        -11   -1    0    0    0    0  0.00000000000E+00  0.00000000000E+00  0.45593999997E+02  0.45594000000E+02  0.51100000000E-03 0.  1.
         11   -1    0    0    0    0 -0.00000000000E+00 -0.00000000000E+00 -0.45593999997E+02  0.45594000000E+02  0.51100000000E-03 0. -1.
    9900012    2    1    2    0    0  0.32300176112E+02  0.54838819982E+01  0.24078853215E+02  0.50528861903E+02  0.30000006242E+02 0.  0.
         12    1    1    2    0    0 -0.32300176112E+02 -0.54838819982E+01 -0.24078853215E+02  0.40659138097E+02  0.00000000000E+00 0. -1.
         11    1    3    3    0    0  0.14754715079E+00 -0.37805359869E+01  0.56870834811E+01  0.68306032890E+01  0.51100000000E-03 0. -1.
        -11    1    3    3    0    0  0.51622397002E+01 -0.52628120925E+01  0.90129987538E+01  0.11643884946E+02  0.51100000000E-03 0.  1.
        -12    1    3    3    0    0  0.26990389261E+02  0.14527230078E+02  0.93787709801E+01  0.32054373668E+02  0.00000000000E+00 0.  1.
</event>
<event>
 7    1  0.5408841E-013  0.5052886E+02  0.7816164E-02  0.1300439E+00
        -11   -1    0    0    0    0  0.00000000000E+00  0.00000000000E+00  0.45593999997E+02  0.45594000000E+02  0.51100000000E-03 0.  1.
         11   -1    0    0    0    0 -0.00000000000E+00 -0.00000000000E+00 -0.45593999997E+02  0.45594000000E+02  0.51100000000E-03 0. -1.
    9900012    2    1    2    0    0  0.13123523404E+02 -0.10398013089E+02  0.37051587227E+02  0.50528860083E+02  0.30000000710E+02 0.  0.
         12    1    1    2    0    0 -0.13123523404E+02  0.10398013089E+02 -0.37051587227E+02  0.40659139917E+02  0.00000000000E+00 0. -1.
         11    1    3    3    0    0  0.55276003827E+00 -0.56998290449E+01  0.59717719357E+01  0.82737932724E+01  0.51100000000E-03 0. -1.
        -11    1    3    3    0    0  0.13037876654E+02 -0.14077672789E+02  0.22006677371E+02  0.29196933880E+02  0.51100000000E-03 0.  1.
         12    1    3    3    0    0 -0.46711328861E+00  0.93794887447E+01  0.90731379197E+01  0.13058132931E+02  0.00000000000E+00 0. -1.
</event>
<event>
 7    1  0.5408841E-013  0.5052884E+02  0.7816164E-02  0.1300439E+00
        -11   -1    0    0    0    0  0.00000000000E+00  0.00000000000E+00  0.45593999997E+02  0.45594000000E+02  0.51100000000E-03 0.  1.
         11   -1    0    0    0    0 -0.00000000000E+00 -0.00000000000E+00 -0.45593999997E+02  0.45594000000E+02  0.51100000000E-03 0. -1.
    9900012    2    1    2    0    0 -0.36106802919E+02 -0.15350369557E+01  0.18630871699E+02  0.50528844379E+02  0.29999952976E+02 0.  0.
         12    1    1    2    0    0  0.36106802919E+02  0.15350369557E+01 -0.18630871699E+02  0.40659155621E+02  0.00000000000E+00 0. -1.
         11    1    3    3    0    0 -0.17119262303E+02 -0.14963841296E+01  0.16233040134E+02  0.23639371809E+02  0.51100000000E-03 0. -1.
        -11    1    3    3    0    0 -0.15306288935E+02  0.44615338708E+01  0.88250188098E+01  0.18222752885E+02  0.51100000000E-03 0.  1.
         12    1    3    3    0    0 -0.36812516808E+01 -0.45001866968E+01 -0.64271872441E+01  0.86667196859E+01  0.00000000000E+00 0. -1.
</event>
<event>
 7    1  0.5408841E-013  0.5052886E+02  0.7816164E-02  0.1300439E+00
        -11   -1    0    0    0    0  0.00000000000E+00  0.00000000000E+00  0.45593999997E+02  0.45594000000E+02  0.51100000000E-03 0.  1.
         11   -1    0    0    0    0 -0.00000000000E+00 -0.00000000000E+00 -0.45593999997E+02  0.45594000000E+02  0.51100000000E-03 0. -1.
    9900012    2    1    2    0    0 -0.80955222962E+00  0.31493984619E+01  0.40528894922E+02  0.50528863154E+02  0.30000010043E+02 0.  0.
         12    1    1    2    0    0  0.80955222962E+00 -0.31493984619E+01 -0.40528894922E+02  0.40659136846E+02  0.00000000000E+00 0. -1.
         11    1    3    3    0    0 -0.27135032631E+01  0.23024534437E+01 -0.12155839743E+01  0.37605899111E+01  0.51100000000E-03 0. -1.
        -11    1    3    3    0    0  0.50794798413E+01 -0.84201930455E+01  0.12364365883E+02  0.15798047675E+02  0.51100000000E-03 0.  1.
         12    1    3    3    0    0 -0.31755288078E+01  0.92671380636E+01  0.29380113013E+02  0.30970225568E+02  0.00000000000E+00 0. -1.
</event>
<event>
 7    1  0.5408841E-013  0.5052886E+02  0.7816164E-02  0.1300439E+00
        -11   -1    0    0    0    0  0.00000000000E+00  0.00000000000E+00  0.45593999997E+02  0.45594000000E+02  0.51100000000E-03 0.  1.
         11   -1    0    0    0    0 -0.00000000000E+00 -0.00000000000E+00 -0.45593999997E+02  0.45594000000E+02  0.51100000000E-03 0. -1.
    9900012    2    1    2    0    0 -0.33132423219E+02  0.20712273780E+02  0.11243219620E+02  0.50528859073E+02  0.29999997638E+02 0.  0.
         12    1    1    2    0    0  0.33132423219E+02 -0.20712273780E+02 -0.11243219620E+02  0.40659140927E+02  0.00000000000E+00 0. -1.
         11    1    3    3    0    0 -0.34251194298E+02  0.19835978366E+02  0.50138878422E+01  0.39896734454E+02  0.51100000000E-03 0.  1.
        -11    1    3    3    0    0 -0.16740200218E+01 -0.32038725096E+01  0.20349259539E+01  0.41482605981E+01  0.51100000000E-03 0. -1.
        -12    1    3    3    0    0  0.27927911006E+01  0.40801679237E+01  0.41944058242E+01  0.64838640205E+01  0.00000000000E+00 0.  1.
</event>
<event>
 7    1  0.5408841E-013  0.5052886E+02  0.7816164E-02  0.1300439E+00
        -11   -1    0    0    0    0  0.00000000000E+00  0.00000000000E+00  0.45593999997E+02  0.45594000000E+02  0.51100000000E-03 0.  1.
         11   -1    0    0    0    0 -0.00000000000E+00 -0.00000000000E+00 -0.45593999997E+02  0.45594000000E+02  0.51100000000E-03 0. -1.
    9900012    2    1    2    0    0  0.14765540775E+02 -0.37755705283E+02 -0.31066342745E+01  0.50528860163E+02  0.30000000951E+02 0.  0.
         12    1    1    2    0    0 -0.14765540775E+02  0.37755705283E+02  0.31066342745E+01  0.40659139837E+02  0.00000000000E+00 0. -1.
         11    1    3    3    0    0  0.89630838827E+00 -0.10097230302E+02 -0.17520487334E+01  0.10287230119E+02  0.51100000000E-03 0. -1.
        -11    1    3    3    0    0  0.98163757278E+01 -0.28673747060E+02  0.68162411657E+01  0.31064548070E+02  0.51100000000E-03 0.  1.
         12    1    3    3    0    0  0.40528566585E+01  0.10152720786E+01 -0.81708267068E+01  0.91770819741E+01  0.00000000000E+00 0. -1.
</event>
<event>
 7    1  0.5408841E-013  0.5052886E+02  0.7816164E-02  0.1300439E+00
        -11   -1    0    0    0    0  0.00000000000E+00  0.00000000000E+00  0.45593999997E+02  0.45594000000E+02  0.51100000000E-03 0.  1.
         11   -1    0    0    0    0 -0.00000000000E+00 -0.00000000000E+00 -0.45593999997E+02  0.45594000000E+02  0.51100000000E-03 0. -1.
    9900012    2    1    2    0    0 -0.39982567050E+02 -0.53628036398E+01  0.50793687869E+01  0.50528864273E+02  0.30000013444E+02 0.  0.
         12    1    1    2    0    0  0.39982567050E+02  0.53628036398E+01 -0.50793687869E+01  0.40659135727E+02  0.00000000000E+00 0. -1.
         11    1    3    3    0    0 -0.14298876306E+02 -0.15934358041E+01 -0.36349806216E+01  0.14839473901E+02  0.51100000000E-03 0. -1.
        -11    1    3    3    0    0 -0.24756226874E+02  0.42905557514E+01  0.20839249675E+01  0.25211552535E+02  0.51100000000E-03 0.  1.
         12    1    3    3    0    0 -0.92746386985E+00 -0.80599235871E+01  0.66304244410E+01  0.10477837837E+02  0.00000000000E+00 0. -1.
</event>
<event>
 7    1  0.5408841E-013  0.5052886E+02  0.7816164E-02  0.1300439E+00
        -11   -1    0    0    0    0  0.00000000000E+00  0.00000000000E+00  0.45593999997E+02  0.45594000000E+02  0.51100000000E-03 0. -1.
         11   -1    0    0    0    0 -0.00000000000E+00 -0.00000000000E+00 -0.45593999997E+02  0.45594000000E+02  0.51100000000E-03 0.  1.
    9900012    2    1    2    0    0 -0.54408567894E+01  0.15009326254E+02 -0.37393620729E+02  0.50528859964E+02  0.30000000348E+02 0.  0.
         12    1    1    2    0    0  0.54408567894E+01 -0.15009326254E+02  0.37393620729E+02  0.40659140036E+02  0.00000000000E+00 0. -1.
         11    1    3    3    0    0  0.43831353168E+01 -0.28321068550E+01 -0.87851685008E+01  0.10218213655E+02  0.51100000000E-03 0. -1.
        -11    1    3    3    0    0 -0.35495478119E+01  0.17180237167E+02 -0.29103616388E+02  0.33982058883E+02  0.51100000000E-03 0.  1.
         12    1    3    3    0    0 -0.62744442943E+01  0.66119594279E+00  0.49516416013E+00  0.63285874271E+01  0.00000000000E+00 0. -1.
</event>
<event>
 7    1  0.5408841E-013  0.5052886E+02  0.7816164E-02  0.1300439E+00
        -11   -1    0    0    0    0  0.00000000000E+00  0.00000000000E+00  0.45593999997E+02  0.45594000000E+02  0.51100000000E-03 0. -1.
         11   -1    0    0    0    0 -0.00000000000E+00 -0.00000000000E+00 -0.45593999997E+02  0.45594000000E+02  0.51100000000E-03 0.  1.
    9900012    2    1    2    0    0 -0.24305446153E+02 -0.14402291487E+02 -0.29240127348E+02  0.50528858837E+02  0.29999996921E+02 0.  0.
         12    1    1    2    0    0  0.24305446153E+02  0.14402291487E+02  0.29240127348E+02  0.40659141163E+02  0.00000000000E+00 0. -1.
         11    1    3    3    0    0  0.21227214946E+01  0.18316652125E+01 -0.84649198671E+01  0.89171639332E+01  0.51100000000E-03 0. -1.
        -11    1    3    3    0    0 -0.87855984945E+01 -0.38982385029E+01 -0.17320738712E+02  0.19808861505E+02  0.51100000000E-03 0.  1.
        -12    1    3    3    0    0 -0.17642569153E+02 -0.12335718197E+02 -0.34544687689E+01  0.21802833399E+02  0.00000000000E+00 0.  1.
</event>
<event>
 7    1  0.5408841E-013  0.5052885E+02  0.7816164E-02  0.1300439E+00
        -11   -1    0    0    0    0  0.00000000000E+00  0.00000000000E+00  0.45593999997E+02  0.45594000000E+02  0.51100000000E-03 0. -1.
         11   -1    0    0    0    0 -0.00000000000E+00 -0.00000000000E+00 -0.45593999997E+02  0.45594000000E+02  0.51100000000E-03 0.  1.
    9900012    2    1    2    0    0  0.26956755183E+02 -0.38719113238E+01 -0.30191195857E+02  0.50528847837E+02  0.29999963485E+02 0.  0.
         12    1    1    2    0    0 -0.26956755183E+02  0.38719113238E+01  0.30191195857E+02  0.40659152163E+02  0.00000000000E+00 0. -1.
         11    1    3    3    0    0 -0.68276545611E+00 -0.44052205889E+01 -0.16451969106E+01  0.47517165573E+01  0.51100000000E-03 0. -1.
        -11    1    3    3    0    0 -0.12156456484E+01 -0.50630496798E+01 -0.92549129477E+01  0.10619118623E+02  0.51100000000E-03 0.  1.
        -12    1    3    3    0    0  0.28855166288E+02  0.55963589449E+01 -0.19291085999E+02  0.35158012657E+02  0.00000000000E+00 0.  1.
</event>
<event>
 7    1  0.5408841E-013  0.5052883E+02  0.7816164E-02  0.1300439E+00
        -11   -1    0    0    0    0  0.00000000000E+00  0.00000000000E+00  0.45593999997E+02  0.45594000000E+02  0.51100000000E-03 0.  1.
         11   -1    0    0    0    0 -0.00000000000E+00 -0.00000000000E+00 -0.45593999997E+02  0.45594000000E+02  0.51100000000E-03 0. -1.
    9900012    2    1    2    0    0 -0.12085655546E+02 -0.43189612074E+01  0.38580452377E+02  0.50528833733E+02  0.29999920615E+02 0.  0.
         12    1    1    2    0    0  0.12085655546E+02  0.43189612074E+01 -0.38580452377E+02  0.40659166267E+02  0.00000000000E+00 0. -1.
         11    1    3    3    0    0  0.12133174694E+01 -0.84061380354E+01  0.88134354930E+01  0.12239768846E+02  0.51100000000E-03 0. -1.
        -11    1    3    3    0    0 -0.78011806630E+01 -0.76553220935E+01  0.11262255310E+02  0.15693972442E+02  0.51100000000E-03 0.  1.
        -12    1    3    3    0    0 -0.54977923523E+01  0.11742498921E+02  0.18504761574E+02  0.22595092445E+02  0.00000000000E+00 0.  1.
</event>
<event>
 7    1  0.5408841E-013  0.5052885E+02  0.7816164E-02  0.1300439E+00
        -11   -1    0    0    0    0  0.00000000000E+00  0.00000000000E+00  0.45593999997E+02  0.45594000000E+02  0.51100000000E-03 0.  1.
         11   -1    0    0    0    0 -0.00000000000E+00 -0.00000000000E+00 -0.45593999997E+02  0.45594000000E+02  0.51100000000E-03 0. -1.
    9900012    2    1    2    0    0 -0.11814254061E+02  0.24477151949E+02  0.30240018415E+02  0.50528852440E+02  0.29999977476E+02 0.  0.
         12    1    1    2    0    0  0.11814254061E+02 -0.24477151949E+02 -0.30240018415E+02  0.40659147560E+02  0.00000000000E+00 0. -1.
         11    1    3    3    0    0 -0.65504399094E+01  0.64988759740E+01  0.15926219812E+01  0.93637651064E+01  0.51100000000E-03 0. -1.
        -11    1    3    3    0    0  0.51346908032E+01  0.17666303994E+02  0.13629950739E+02  0.22896263971E+02  0.51100000000E-03 0.  1.
        -12    1    3    3    0    0 -0.10398504955E+02  0.31197198150E+00  0.15017445695E+02  0.18268823362E+02  0.00000000000E+00 0.  1.
</event>
<event>
 7    1  0.5408841E-013  0.5052886E+02  0.7816164E-02  0.1300439E+00
        -11   -1    0    0    0    0  0.00000000000E+00  0.00000000000E+00  0.45593999997E+02  0.45594000000E+02  0.51100000000E-03 0. -1.
         11   -1    0    0    0    0 -0.00000000000E+00 -0.00000000000E+00 -0.45593999997E+02  0.45594000000E+02  0.51100000000E-03 0.  1.
    9900012    2    1    2    0    0 -0.28296053794E+02  0.22231954807E+00 -0.29196743950E+02  0.50528856581E+02  0.29999990064E+02 0.  0.
         12    1    1    2    0    0  0.28296053794E+02 -0.22231954807E+00  0.29196743950E+02  0.40659143419E+02  0.00000000000E+00 0. -1.
         11    1    3    3    0    0 -0.60063549634E+01  0.73344416329E+01  0.13803243914E+00  0.94810013832E+01  0.51100000000E-03 0. -1.
        -11    1    3    3    0    0 -0.68847632508E+00 -0.11208262454E+01  0.20764599142E+01  0.24580352233E+01  0.51100000000E-03 0.  1.
        -12    1    3    3    0    0 -0.21601222505E+02 -0.59912958395E+01 -0.31411236303E+02  0.38589819974E+02  0.00000000000E+00 0.  1.
</event>
<event>
 7    1  0.5408841E-013  0.5052886E+02  0.7816164E-02  0.1300439E+00
        -11   -1    0    0    0    0  0.00000000000E+00  0.00000000000E+00  0.45593999997E+02  0.45594000000E+02  0.51100000000E-03 0.  1.
         11   -1    0    0    0    0 -0.00000000000E+00 -0.00000000000E+00 -0.45593999997E+02  0.45594000000E+02  0.51100000000E-03 0. -1.
    9900012    2    1    2    0    0 -0.34181053535E+02  0.21775191651E+02  0.32653623653E+01  0.50528856089E+02  0.29999988567E+02 0.  0.
         12    1    1    2    0    0  0.34181053535E+02 -0.21775191651E+02 -0.32653623653E+01  0.40659143911E+02  0.00000000000E+00 0. -1.
         11    1    3    3    0    0 -0.26035286561E+02  0.94228664590E+01 -0.63546563865E+01  0.28407890042E+02  0.51100000000E-03 0. -1.
        -11    1    3    3    0    0 -0.65152573884E+01 -0.77741431124E+00  0.20322520185E+01  0.68689883081E+01  0.51100000000E-03 0.  1.
         12    1    3    3    0    0 -0.16305095861E+01  0.13129739503E+02  0.75877667332E+01  0.15251977738E+02  0.00000000000E+00 0. -1.
</event>
<event>
 7    1  0.5408841E-013  0.5052886E+02  0.7816164E-02  0.1300439E+00
        -11   -1    0    0    0    0  0.00000000000E+00  0.00000000000E+00  0.45593999997E+02  0.45594000000E+02  0.51100000000E-03 0.  1.
         11   -1    0    0    0    0 -0.00000000000E+00 -0.00000000000E+00 -0.45593999997E+02  0.45594000000E+02  0.51100000000E-03 0. -1.
    9900012    2    1    2    0    0 -0.18726409724E+02 -0.17949674885E+02  0.31309679848E+02  0.50528864473E+02  0.30000014053E+02 0.  0.
         12    1    1    2    0    0  0.18726409724E+02  0.17949674885E+02 -0.31309679848E+02  0.40659135527E+02  0.00000000000E+00 0. -1.
         11    1    3    3    0    0 -0.11803202486E+02 -0.80497303469E+01  0.23745980232E+02  0.27712548151E+02  0.51100000000E-03 0. -1.
        -11    1    3    3    0    0 -0.38483729219E+01 -0.63984252574E+01  0.13404870437E+02  0.15344066333E+02  0.51100000000E-03 0.  1.
         12    1    3    3    0    0 -0.30748343156E+01 -0.35015192808E+01 -0.58411708215E+01  0.74722499896E+01  0.00000000000E+00 0. -1.
</event>
<event>
 7    1  0.5408841E-013  0.5052886E+02  0.7816164E-02  0.1300439E+00
        -11   -1    0    0    0    0  0.00000000000E+00  0.00000000000E+00  0.45593999997E+02  0.45594000000E+02  0.51100000000E-03 0. -1.
         11   -1    0    0    0    0 -0.00000000000E+00 -0.00000000000E+00 -0.45593999997E+02  0.45594000000E+02  0.51100000000E-03 0.  1.
    9900012    2    1    2    0    0 -0.28549712609E+02 -0.28069267449E+02  0.70849059913E+01  0.50528858862E+02  0.29999996997E+02 0.  0.
         12    1    1    2    0    0  0.28549712609E+02  0.28069267449E+02 -0.70849059913E+01  0.40659141138E+02  0.00000000000E+00 0. -1.
         11    1    3    3    0    0 -0.89181608350E+00 -0.82270819804E+01  0.69031062973E+01  0.10776506421E+02  0.51100000000E-03 0. -1.
        -11    1    3    3    0    0 -0.37653286765E+01 -0.15412619675E+01 -0.76405206903E+01  0.86562546852E+01  0.51100000000E-03 0.  1.
        -12    1    3    3    0    0 -0.23892567849E+02 -0.18300923501E+02  0.78223203843E+01  0.31096097755E+02  0.00000000000E+00 0.  1.
</event>
<event>
 7    1  0.5408841E-013  0.5052883E+02  0.7816164E-02  0.1300439E+00
        -11   -1    0    0    0    0  0.00000000000E+00  0.00000000000E+00  0.45593999997E+02  0.45594000000E+02  0.51100000000E-03 0. -1.
         11   -1    0    0    0    0 -0.00000000000E+00 -0.00000000000E+00 -0.45593999997E+02  0.45594000000E+02  0.51100000000E-03 0.  1.
    9900012    2    1    2    0    0  0.37748497892E+02  0.11495122225E+02 -0.98021118110E+01  0.50528827308E+02  0.29999901084E+02 0.  0.
         12    1    1    2    0    0 -0.37748497892E+02 -0.11495122225E+02  0.98021118110E+01  0.40659172692E+02  0.00000000000E+00 0. -1.
         11    1    3    3    0    0  0.34121056389E+01  0.18125151181E+01 -0.61832121361E+01  0.72910759511E+01  0.51100000000E-03 0. -1.
        -11    1    3    3    0    0  0.21021195692E+02  0.15318436939E+02 -0.94128172573E+01  0.27661278125E+02  0.51100000000E-03 0.  1.
        -12    1    3    3    0    0  0.13315196562E+02 -0.56358298317E+01  0.57939175824E+01  0.15576473231E+02  0.00000000000E+00 0.  1.
</event>
<event>
 7    1  0.5408841E-013  0.5052886E+02  0.7816164E-02  0.1300439E+00
        -11   -1    0    0    0    0  0.00000000000E+00  0.00000000000E+00  0.45593999997E+02  0.45594000000E+02  0.51100000000E-03 0.  1.
         11   -1    0    0    0    0 -0.00000000000E+00 -0.00000000000E+00 -0.45593999997E+02  0.45594000000E+02  0.51100000000E-03 0. -1.
    9900012    2    1    2    0    0 -0.18650972274E+02  0.31598377328E+02  0.17517125307E+02  0.50528857171E+02  0.29999991858E+02 0.  0.
         12    1    1    2    0    0  0.18650972274E+02 -0.31598377328E+02 -0.17517125307E+02  0.40659142829E+02  0.00000000000E+00 0. -1.
         11    1    3    3    0    0  0.15753918519E+01  0.20856702443E+01 -0.20064080767E+01  0.32950801942E+01  0.51100000000E-03 0. -1.
        -11    1    3    3    0    0 -0.59993409001E+01  0.12379503721E+02 -0.45018061146E+01  0.14474476232E+02  0.51100000000E-03 0.  1.
        -12    1    3    3    0    0 -0.14227023225E+02  0.17133203362E+02  0.24025339499E+02  0.32759300746E+02  0.00000000000E+00 0.  1.
</event>
<event>
 7    1  0.5408841E-013  0.5052886E+02  0.7816164E-02  0.1300439E+00
        -11   -1    0    0    0    0  0.00000000000E+00  0.00000000000E+00  0.45593999997E+02  0.45594000000E+02  0.51100000000E-03 0.  1.
         11   -1    0    0    0    0 -0.00000000000E+00 -0.00000000000E+00 -0.45593999997E+02  0.45594000000E+02  0.51100000000E-03 0. -1.
    9900012    2    1    2    0    0  0.34438390620E+02  0.19060944195E+02 -0.10190343976E+02  0.50528862620E+02  0.30000008421E+02 0.  0.
         12    1    1    2    0    0 -0.34438390620E+02 -0.19060944195E+02  0.10190343976E+02  0.40659137380E+02  0.00000000000E+00 0. -1.
         11    1    3    3    0    0  0.20104715172E+02  0.10428860619E+01 -0.15575071186E+02  0.25453291068E+02  0.51100000000E-03 0. -1.
        -11    1    3    3    0    0  0.10661952159E+02  0.11562108241E+02 -0.28742843901E+00  0.15730295172E+02  0.51100000000E-03 0.  1.
        -12    1    3    3    0    0  0.36717232890E+01  0.64559498924E+01  0.56721556491E+01  0.93452763807E+01  0.00000000000E+00 0.  1.
</event>
<event>
 7    1  0.5408841E-013  0.5052888E+02  0.7816164E-02  0.1300439E+00
        -11   -1    0    0    0    0  0.00000000000E+00  0.00000000000E+00  0.45593999997E+02  0.45594000000E+02  0.51100000000E-03 0.  1.
         11   -1    0    0    0    0 -0.00000000000E+00 -0.00000000000E+00 -0.45593999997E+02  0.45594000000E+02  0.51100000000E-03 0. -1.
    9900012    2    1    2    0    0  0.21036375320E+02  0.34496282642E+02  0.45432608080E+01  0.50528882677E+02  0.30000069385E+02 0.  0.
         12    1    1    2    0    0 -0.21036375320E+02 -0.34496282642E+02 -0.45432608080E+01  0.40659117323E+02  0.00000000000E+00 0. -1.
         11    1    3    3    0    0  0.88733893529E+01  0.11879919389E+02 -0.37271480889E+01  0.15289249702E+02  0.51100000000E-03 0. -1.
        -11    1    3    3    0    0  0.13195852333E+02  0.23386743640E+02 -0.16893574559E-01  0.26852757447E+02  0.51100000000E-03 0.  1.
         12    1    3    3    0    0 -0.10328663659E+01 -0.77038038723E+00  0.82873024715E+01  0.83868755281E+01  0.00000000000E+00 0. -1.
</event>
<event>
 7    1  0.5408841E-013  0.5052885E+02  0.7816164E-02  0.1300439E+00
        -11   -1    0    0    0    0  0.00000000000E+00  0.00000000000E+00  0.45593999997E+02  0.45594000000E+02  0.51100000000E-03 0. -1.
         11   -1    0    0    0    0 -0.00000000000E+00 -0.00000000000E+00 -0.45593999997E+02  0.45594000000E+02  0.51100000000E-03 0.  1.
    9900012    2    1    2    0    0 -0.21244588203E+02 -0.36194220597E+01 -0.34478017230E+02  0.50528850770E+02  0.29999972401E+02 0.  0.
         12    1    1    2    0    0  0.21244588203E+02  0.36194220597E+01  0.34478017230E+02  0.40659149230E+02  0.00000000000E+00 0. -1.
         11    1    3    3    0    0  0.62607922140E+01  0.22548338212E+01 -0.30804314768E+01  0.73328611778E+01  0.51100000000E-03 0.  1.
        -11    1    3    3    0    0 -0.98864224992E+01 -0.14717270807E+01 -0.50573766085E+01  0.11201981470E+02  0.51100000000E-03 0. -1.
        -12    1    3    3    0    0 -0.17618957917E+02 -0.44025288002E+01 -0.26340209145E+02  0.31994008123E+02  0.00000000000E+00 0.  1.
</event>
<event>
 7    1  0.5408841E-013  0.5052886E+02  0.7816164E-02  0.1300439E+00
        -11   -1    0    0    0    0  0.00000000000E+00  0.00000000000E+00  0.45593999997E+02  0.45594000000E+02  0.51100000000E-03 0.  1.
         11   -1    0    0    0    0 -0.00000000000E+00 -0.00000000000E+00 -0.45593999997E+02  0.45594000000E+02  0.51100000000E-03 0. -1.
    9900012    2    1    2    0    0 -0.24073390689E+02  0.45167791603E+01  0.32453595614E+02  0.50528864477E+02  0.30000014063E+02 0.  0.
         12    1    1    2    0    0  0.24073390689E+02 -0.45167791603E+01 -0.32453595614E+02  0.40659135523E+02  0.00000000000E+00 0. -1.
         11    1    3    3    0    0 -0.29631477542E+01  0.58250444587E+01  0.91152095824E+01  0.11215990083E+02  0.51100000000E-03 0. -1.
        -11    1    3    3    0    0 -0.78637457292E+01  0.10945195886E+02  0.11637820662E+02  0.17806590912E+02  0.51100000000E-03 0.  1.
         12    1    3    3    0    0 -0.13246497205E+02 -0.12253461184E+02  0.11700565370E+02  0.21506283481E+02  0.00000000000E+00 0. -1.
</event>
<event>
 7    1  0.5408841E-013  0.5052886E+02  0.7816164E-02  0.1300439E+00
        -11   -1    0    0    0    0  0.00000000000E+00  0.00000000000E+00  0.45593999997E+02  0.45594000000E+02  0.51100000000E-03 0.  1.
         11   -1    0    0    0    0 -0.00000000000E+00 -0.00000000000E+00 -0.45593999997E+02  0.45594000000E+02  0.51100000000E-03 0. -1.
    9900012    2    1    2    0    0 -0.31114958898E+02  0.77135506621E+01  0.25010525780E+02  0.50528856737E+02  0.29999990539E+02 0.  0.
         12    1    1    2    0    0  0.31114958898E+02 -0.77135506621E+01 -0.25010525780E+02  0.40659143263E+02  0.00000000000E+00 0. -1.
         11    1    3    3    0    0 -0.21395345123E+02 -0.18520921546E+01  0.16542713002E+02  0.27108160986E+02  0.51100000000E-03 0. -1.
        -11    1    3    3    0    0 -0.13774078640E+02  0.29662775012E+01  0.55779371645E+01  0.15153792524E+02  0.51100000000E-03 0.  1.
         12    1    3    3    0    0  0.40544648650E+01  0.65993653156E+01  0.28898756134E+01  0.82669032274E+01  0.00000000000E+00 0. -1.
</event>
<event>
 7    1  0.5408841E-013  0.5052887E+02  0.7816164E-02  0.1300439E+00
        -11   -1    0    0    0    0  0.00000000000E+00  0.00000000000E+00  0.45593999997E+02  0.45594000000E+02  0.51100000000E-03 0.  1.
         11   -1    0    0    0    0 -0.00000000000E+00 -0.00000000000E+00 -0.45593999997E+02  0.45594000000E+02  0.51100000000E-03 0. -1.
    9900012    2    1    2    0    0  0.34487986661E+02 -0.17327673099E+02  0.12786539805E+02  0.50528867211E+02  0.30000022374E+02 0.  0.
         12    1    1    2    0    0 -0.34487986661E+02  0.17327673099E+02 -0.12786539805E+02  0.40659132789E+02  0.00000000000E+00 0. -1.
         11    1    3    3    0    0  0.30327238827E+02 -0.13130548239E+02  0.12890220204E+02  0.35472672426E+02  0.51100000000E-03 0. -1.
        -11    1    3    3    0    0  0.85875171209E+01 -0.14961372524E+01  0.27458818193E+01  0.91391325741E+01  0.51100000000E-03 0.  1.
         12    1    3    3    0    0 -0.44267692863E+01 -0.27009876073E+01 -0.28495622179E+01  0.59170622104E+01  0.00000000000E+00 0. -1.
</event>
<event>
 7    1  0.5408841E-013  0.5052885E+02  0.7816164E-02  0.1300439E+00
        -11   -1    0    0    0    0  0.00000000000E+00  0.00000000000E+00  0.45593999997E+02  0.45594000000E+02  0.51100000000E-03 0.  1.
         11   -1    0    0    0    0 -0.00000000000E+00 -0.00000000000E+00 -0.45593999997E+02  0.45594000000E+02  0.51100000000E-03 0. -1.
    9900012    2    1    2    0    0 -0.29439224312E+01 -0.13968478912E+02  0.38070736847E+02  0.50528854824E+02  0.29999984722E+02 0.  0.
         12    1    1    2    0    0  0.29439224312E+01  0.13968478912E+02 -0.38070736847E+02  0.40659145176E+02  0.00000000000E+00 0. -1.
         11    1    3    3    0    0  0.12207882530E+01  0.51793270932E+01  0.10964738765E+02  0.12187749979E+02  0.51100000000E-03 0. -1.
        -11    1    3    3    0    0  0.70335530413E+01 -0.89930768229E+01  0.78275640837E+01  0.13842581366E+02  0.51100000000E-03 0.  1.
        -12    1    3    3    0    0 -0.11198263725E+02 -0.10154729182E+02  0.19278433998E+02  0.24498523479E+02  0.00000000000E+00 0.  1.
</event>
<event>
 7    1  0.5408841E-013  0.5052886E+02  0.7816164E-02  0.1300439E+00
        -11   -1    0    0    0    0  0.00000000000E+00  0.00000000000E+00  0.45593999997E+02  0.45594000000E+02  0.51100000000E-03 0. -1.
         11   -1    0    0    0    0 -0.00000000000E+00 -0.00000000000E+00 -0.45593999997E+02  0.45594000000E+02  0.51100000000E-03 0.  1.
    9900012    2    1    2    0    0 -0.15314230909E+02 -0.10201638018E+02 -0.36256952642E+02  0.50528859559E+02  0.29999999114E+02 0.  0.
         12    1    1    2    0    0  0.15314230909E+02  0.10201638018E+02  0.36256952642E+02  0.40659140441E+02  0.00000000000E+00 0. -1.
         11    1    3    3    0    0 -0.76222916901E+00  0.15821750163E+01  0.36008065977E+01  0.40062550472E+01  0.51100000000E-03 0. -1.
        -11    1    3    3    0    0 -0.62347390819E+01 -0.10740084868E+02 -0.11406111314E+02  0.16861813958E+02  0.51100000000E-03 0.  1.
        -12    1    3    3    0    0 -0.83172626577E+01 -0.10437281671E+01 -0.28451647925E+02  0.29660790553E+02  0.00000000000E+00 0.  1.
</event>
<event>
 7    1  0.5408841E-013  0.5052885E+02  0.7816164E-02  0.1300439E+00
        -11   -1    0    0    0    0  0.00000000000E+00  0.00000000000E+00  0.45593999997E+02  0.45594000000E+02  0.51100000000E-03 0.  1.
         11   -1    0    0    0    0 -0.00000000000E+00 -0.00000000000E+00 -0.45593999997E+02  0.45594000000E+02  0.51100000000E-03 0. -1.
    9900012    2    1    2    0    0 -0.28464396179E+02 -0.22674019236E+02  0.18133773515E+02  0.50528846786E+02  0.29999960291E+02 0.  0.
         12    1    1    2    0    0  0.28464396179E+02  0.22674019236E+02 -0.18133773515E+02  0.40659153214E+02  0.00000000000E+00 0. -1.
         11    1    3    3    0    0 -0.24112051162E+02 -0.83759348031E+01  0.10147707256E+02  0.27468586747E+02  0.51100000000E-03 0. -1.
        -11    1    3    3    0    0 -0.49494330366E+01 -0.10864094103E+02  0.12547546430E+02  0.17319536649E+02  0.51100000000E-03 0.  1.
         12    1    3    3    0    0  0.59708801964E+00 -0.34339903301E+01 -0.45614801706E+01  0.57407233897E+01  0.00000000000E+00 0. -1.
</event>
<event>
 7    1  0.5408841E-013  0.5052887E+02  0.7816164E-02  0.1300439E+00
        -11   -1    0    0    0    0  0.00000000000E+00  0.00000000000E+00  0.45593999997E+02  0.45594000000E+02  0.51100000000E-03 0.  1.
         11   -1    0    0    0    0 -0.00000000000E+00 -0.00000000000E+00 -0.45593999997E+02  0.45594000000E+02  0.51100000000E-03 0. -1.
    9900012    2    1    2    0    0 -0.26684337185E+02  0.14101604791E+02  0.27244374363E+02  0.50528867654E+02  0.30000023722E+02 0.  0.
         12    1    1    2    0    0  0.26684337185E+02 -0.14101604791E+02 -0.27244374363E+02  0.40659132346E+02  0.00000000000E+00 0. -1.
         11    1    3    3    0    0 -0.26772542602E+02  0.82195075384E+01  0.12033323337E+02  0.30481637297E+02  0.51100000000E-03 0. -1.
        -11    1    3    3    0    0 -0.42955638261E+01  0.52172884429E+01  0.36843688292E+01  0.76971774835E+01  0.51100000000E-03 0.  1.
         12    1    3    3    0    0  0.43837692425E+01  0.66480880928E+00  0.11526682196E+02  0.12350052874E+02  0.00000000000E+00 0. -1.
</event>
<event>
 7    1  0.5408841E-013  0.5052885E+02  0.7816164E-02  0.1300439E+00
        -11   -1    0    0    0    0  0.00000000000E+00  0.00000000000E+00  0.45593999997E+02  0.45594000000E+02  0.51100000000E-03 0.  1.
         11   -1    0    0    0    0 -0.00000000000E+00 -0.00000000000E+00 -0.45593999997E+02  0.45594000000E+02  0.51100000000E-03 0. -1.
    9900012    2    1    2    0    0 -0.11965852375E+02 -0.36915830163E+02  0.12132874037E+02  0.50528846392E+02  0.29999959093E+02 0.  0.
         12    1    1    2    0    0  0.11965852375E+02  0.36915830163E+02 -0.12132874037E+02  0.40659153608E+02  0.00000000000E+00 0. -1.
         11    1    3    3    0    0 -0.80601497045E+01 -0.14261540554E+02 -0.25273964787E+01  0.16575442240E+02  0.51100000000E-03 0. -1.
        -11    1    3    3    0    0 -0.38323059819E+01 -0.21902466764E+02  0.19183921640E+02  0.29367115440E+02  0.51100000000E-03 0.  1.
         12    1    3    3    0    0 -0.73396689000E-01 -0.75182284496E+00 -0.45236511238E+01  0.45862887125E+01  0.00000000000E+00 0. -1.
</event>
<event>
 7    1  0.5408841E-013  0.5052886E+02  0.7816164E-02  0.1300439E+00
        -11   -1    0    0    0    0  0.00000000000E+00  0.00000000000E+00  0.45593999997E+02  0.45594000000E+02  0.51100000000E-03 0.  1.
         11   -1    0    0    0    0 -0.00000000000E+00 -0.00000000000E+00 -0.45593999997E+02  0.45594000000E+02  0.51100000000E-03 0. -1.
    9900012    2    1    2    0    0 -0.37492821471E+01 -0.27446901389E+02  0.29761989878E+02  0.50528861372E+02  0.30000004628E+02 0.  0.
         12    1    1    2    0    0  0.37492821471E+01  0.27446901389E+02 -0.29761989878E+02  0.40659138628E+02  0.00000000000E+00 0. -1.
         11    1    3    3    0    0  0.10075216914E+02 -0.61063925132E+01  0.17538173446E+02  0.21127838354E+02  0.51100000000E-03 0. -1.
        -11    1    3    3    0    0 -0.17598980054E+01 -0.23832081391E+00  0.28307471251E+01  0.33417311901E+01  0.51100000000E-03 0.  1.
        -12    1    3    3    0    0 -0.12064601056E+02 -0.21102188062E+02  0.93930693060E+01  0.26059291829E+02  0.00000000000E+00 0.  1.
</event>
<event>
 7    1  0.5408841E-013  0.5052887E+02  0.7816164E-02  0.1300439E+00
        -11   -1    0    0    0    0  0.00000000000E+00  0.00000000000E+00  0.45593999997E+02  0.45594000000E+02  0.51100000000E-03 0. -1.
         11   -1    0    0    0    0 -0.00000000000E+00 -0.00000000000E+00 -0.45593999997E+02  0.45594000000E+02  0.51100000000E-03 0.  1.
    9900012    2    1    2    0    0  0.30130936649E+02 -0.18320741766E+02 -0.20239622220E+02  0.50528865358E+02  0.30000016743E+02 0.  0.
         12    1    1    2    0    0 -0.30130936649E+02  0.18320741766E+02  0.20239622220E+02  0.40659134642E+02  0.00000000000E+00 0. -1.
         11    1    3    3    0    0 -0.19320291130E+01  0.70789480839E-01 -0.44557583741E+01  0.48571113425E+01  0.51100000000E-03 0. -1.
        -11    1    3    3    0    0 -0.63034317488E-01 -0.77112093469E+01  0.11856164330E+01  0.78020772557E+01  0.51100000000E-03 0.  1.
         12    1    3    3    0    0  0.32126000079E+02 -0.10680321900E+02 -0.16969480278E+02  0.37869676760E+02  0.00000000000E+00 0. -1.
</event>
<event>
 7    1  0.5408841E-013  0.5052886E+02  0.7816164E-02  0.1300439E+00
        -11   -1    0    0    0    0  0.00000000000E+00  0.00000000000E+00  0.45593999997E+02  0.45594000000E+02  0.51100000000E-03 0.  1.
         11   -1    0    0    0    0 -0.00000000000E+00 -0.00000000000E+00 -0.45593999997E+02  0.45594000000E+02  0.51100000000E-03 0. -1.
    9900012    2    1    2    0    0 -0.24029938802E+02  0.11071966753E+02  0.30872950067E+02  0.50528862621E+02  0.30000008422E+02 0.  0.
         12    1    1    2    0    0  0.24029938802E+02 -0.11071966753E+02 -0.30872950067E+02  0.40659137379E+02  0.00000000000E+00 0. -1.
         11    1    3    3    0    0  0.90839119571E+00  0.26520144200E+01 -0.22050477253E+00  0.28119348613E+01  0.51100000000E-03 0. -1.
        -11    1    3    3    0    0 -0.19749053689E+02  0.12614423637E+02  0.33273477477E+02  0.40697335404E+02  0.51100000000E-03 0.  1.
         12    1    3    3    0    0 -0.51892763085E+01 -0.41944713042E+01 -0.21800226380E+01  0.70195923550E+01  0.00000000000E+00 0. -1.
</event>
<event>
 7    1  0.5408841E-013  0.5052884E+02  0.7816164E-02  0.1300439E+00
        -11   -1    0    0    0    0  0.00000000000E+00  0.00000000000E+00  0.45593999997E+02  0.45594000000E+02  0.51100000000E-03 0.  1.
         11   -1    0    0    0    0 -0.00000000000E+00 -0.00000000000E+00 -0.45593999997E+02  0.45594000000E+02  0.51100000000E-03 0. -1.
    9900012    2    1    2    0    0 -0.17908297138E+02  0.16419013486E+02  0.32601778325E+02  0.50528842849E+02  0.29999948324E+02 0.  0.
         12    1    1    2    0    0  0.17908297138E+02 -0.16419013486E+02 -0.32601778325E+02  0.40659157151E+02  0.00000000000E+00 0. -1.
         11    1    3    3    0    0  0.18925931527E+01  0.11223055796E+02  0.69623966017E+01  0.13342183365E+02  0.51100000000E-03 0. -1.
        -11    1    3    3    0    0  0.16507217187E+01  0.39885038370E+01  0.91018698316E+01  0.10073583262E+02  0.51100000000E-03 0.  1.
         12    1    3    3    0    0 -0.21451612010E+02  0.12074538533E+01  0.16537511892E+02  0.27113076222E+02  0.00000000000E+00 0. -1.
</event>
<event>
 7    1  0.5408841E-013  0.5052887E+02  0.7816164E-02  0.1300439E+00
        -11   -1    0    0    0    0  0.00000000000E+00  0.00000000000E+00  0.45593999997E+02  0.45594000000E+02  0.51100000000E-03 0.  1.
         11   -1    0    0    0    0 -0.00000000000E+00 -0.00000000000E+00 -0.45593999997E+02  0.45594000000E+02  0.51100000000E-03 0. -1.
    9900012    2    1    2    0    0  0.50054523871E+01 -0.22021321508E+02  0.33810824354E+02  0.50528868208E+02  0.30000025405E+02 0.  0.
         12    1    1    2    0    0 -0.50054523871E+01  0.22021321508E+02 -0.33810824354E+02  0.40659131792E+02  0.00000000000E+00 0. -1.
         11    1    3    3    0    0  0.15216952032E+01  0.14225108409E+00 -0.88062717578E+00  0.17638866591E+01  0.51100000000E-03 0. -1.
        -11    1    3    3    0    0  0.99215895586E+01 -0.53210046629E+01  0.20056310311E+01  0.11435627927E+02  0.51100000000E-03 0.  1.
        -12    1    3    3    0    0 -0.64378323747E+01 -0.16842567929E+02  0.32685820499E+02  0.37329353622E+02  0.00000000000E+00 0.  1.
</event>
<event>
 7    1  0.5408841E-013  0.5052885E+02  0.7816164E-02  0.1300439E+00
        -11   -1    0    0    0    0  0.00000000000E+00  0.00000000000E+00  0.45593999997E+02  0.45594000000E+02  0.51100000000E-03 0. -1.
         11   -1    0    0    0    0 -0.00000000000E+00 -0.00000000000E+00 -0.45593999997E+02  0.45594000000E+02  0.51100000000E-03 0.  1.
    9900012    2    1    2    0    0  0.20765656181E+02  0.84052830329E+01 -0.33930886535E+02  0.50528851945E+02  0.29999975974E+02 0.  0.
         12    1    1    2    0    0 -0.20765656181E+02 -0.84052830329E+01  0.33930886535E+02  0.40659148055E+02  0.00000000000E+00 0. -1.
         11    1    3    3    0    0  0.70253438178E+01 -0.48032947339E+00 -0.19983568705E+01  0.73198089186E+01  0.51100000000E-03 0. -1.
        -11    1    3    3    0    0  0.16796346356E+02  0.51443079966E+01 -0.33749794021E+02  0.38047729924E+02  0.51100000000E-03 0.  1.
         12    1    3    3    0    0 -0.30560339934E+01  0.37413045096E+01  0.18172643564E+01  0.51613131026E+01  0.00000000000E+00 0. -1.
</event>
<event>
 7    1  0.5408841E-013  0.5052890E+02  0.7816164E-02  0.1300439E+00
        -11   -1    0    0    0    0  0.00000000000E+00  0.00000000000E+00  0.45593999997E+02  0.45594000000E+02  0.51100000000E-03 0.  1.
         11   -1    0    0    0    0 -0.00000000000E+00 -0.00000000000E+00 -0.45593999997E+02  0.45594000000E+02  0.51100000000E-03 0. -1.
    9900012    2    1    2    0    0 -0.20141270901E+02 -0.13127599688E+02  0.32789602244E+02  0.50528896685E+02  0.30000111962E+02 0.  0.
         12    1    1    2    0    0  0.20141270901E+02  0.13127599688E+02 -0.32789602244E+02  0.40659103315E+02  0.00000000000E+00 0. -1.
         11    1    3    3    0    0 -0.61227927409E+01 -0.69506220907E+01  0.11056300962E+02  0.14423644811E+02  0.51100000000E-03 0.  1.
        -11    1    3    3    0    0 -0.33740237690E+00  0.16667183296E+00 -0.52127955117E+01  0.52263617529E+01  0.51100000000E-03 0. -1.
         12    1    3    3    0    0 -0.13681075783E+02 -0.63436494306E+01  0.26946096794E+02  0.30878890121E+02  0.00000000000E+00 0. -1.
</event>
<event>
 7    1  0.5408841E-013  0.5052886E+02  0.7816164E-02  0.1300439E+00
        -11   -1    0    0    0    0  0.00000000000E+00  0.00000000000E+00  0.45593999997E+02  0.45594000000E+02  0.51100000000E-03 0.  1.
         11   -1    0    0    0    0 -0.00000000000E+00 -0.00000000000E+00 -0.45593999997E+02  0.45594000000E+02  0.51100000000E-03 0. -1.
    9900012    2    1    2    0    0 -0.33606401547E+02 -0.15147737880E+02  0.17155789140E+02  0.50528864633E+02  0.30000014538E+02 0.  0.
         12    1    1    2    0    0  0.33606401547E+02  0.15147737880E+02 -0.17155789140E+02  0.40659135367E+02  0.00000000000E+00 0. -1.
         11    1    3    3    0    0 -0.25300264095E+02 -0.12070962135E+02  0.75784332157E+01  0.29038666299E+02  0.51100000000E-03 0.  1.
        -11    1    3    3    0    0 -0.13455629080E+02 -0.37842522301E+01  0.77373686712E+01  0.15976275946E+02  0.51100000000E-03 0. -1.
         12    1    3    3    0    0  0.51494916287E+01  0.70747648558E+00  0.18399872532E+01  0.55139223882E+01  0.00000000000E+00 0. -1.
</event>
<event>
 7    1  0.5408841E-013  0.5052886E+02  0.7816164E-02  0.1300439E+00
        -11   -1    0    0    0    0  0.00000000000E+00  0.00000000000E+00  0.45593999997E+02  0.45594000000E+02  0.51100000000E-03 0.  1.
         11   -1    0    0    0    0 -0.00000000000E+00 -0.00000000000E+00 -0.45593999997E+02  0.45594000000E+02  0.51100000000E-03 0. -1.
    9900012    2    1    2    0    0 -0.33234433001E+02 -0.21766524065E+02  0.86519647755E+01  0.50528860791E+02  0.30000002860E+02 0.  0.
         12    1    1    2    0    0  0.33234433001E+02  0.21766524065E+02 -0.86519647755E+01  0.40659139209E+02  0.00000000000E+00 0. -1.
         11    1    3    3    0    0 -0.21799688591E+02 -0.11833688867E+02  0.80919602708E+01  0.26091041301E+02  0.51100000000E-03 0. -1.
        -11    1    3    3    0    0 -0.11814309417E+02 -0.14046325973E+02  0.43157286853E+01  0.18854779093E+02  0.51100000000E-03 0.  1.
         12    1    3    3    0    0  0.37956500717E+00  0.41134907749E+01 -0.37557241805E+01  0.55830403966E+01  0.00000000000E+00 0. -1.
</event>
<event>
 7    1  0.5408841E-013  0.5052882E+02  0.7816164E-02  0.1300439E+00
        -11   -1    0    0    0    0  0.00000000000E+00  0.00000000000E+00  0.45593999997E+02  0.45594000000E+02  0.51100000000E-03 0.  1.
         11   -1    0    0    0    0 -0.00000000000E+00 -0.00000000000E+00 -0.45593999997E+02  0.45594000000E+02  0.51100000000E-03 0. -1.
    9900012    2    1    2    0    0 -0.17671616654E+01  0.37900556871E+02  0.14614842448E+02  0.50528822792E+02  0.29999887357E+02 0.  0.
         12    1    1    2    0    0  0.17671616654E+01 -0.37900556871E+02 -0.14614842448E+02  0.40659177208E+02  0.00000000000E+00 0. -1.
         11    1    3    3    0    0  0.20229035813E+01 -0.36089127147E+01  0.14892133065E+01  0.43970611111E+01  0.51100000000E-03 0. -1.
        -11    1    3    3    0    0 -0.26035755340E+01  0.23906221264E+02 -0.15618719098E+00  0.24048085483E+02  0.51100000000E-03 0.  1.
        -12    1    3    3    0    0 -0.11864897128E+01  0.17603248321E+02  0.13281816333E+02  0.22083676197E+02  0.00000000000E+00 0.  1.
</event>
<event>
 7    1  0.5408841E-013  0.5052886E+02  0.7816164E-02  0.1300439E+00
        -11   -1    0    0    0    0  0.00000000000E+00  0.00000000000E+00  0.45593999997E+02  0.45594000000E+02  0.51100000000E-03 0. -1.
         11   -1    0    0    0    0 -0.00000000000E+00 -0.00000000000E+00 -0.45593999997E+02  0.45594000000E+02  0.51100000000E-03 0.  1.
    9900012    2    1    2    0    0  0.31161336397E+02 -0.10195215359E+02 -0.24045671791E+02  0.50528860386E+02  0.30000001630E+02 0.  0.
         12    1    1    2    0    0 -0.31161336397E+02  0.10195215359E+02  0.24045671791E+02  0.40659139614E+02  0.00000000000E+00 0. -1.
         11    1    3    3    0    0  0.89554362306E+01 -0.14500222639E+01 -0.24988485130E+01  0.94099227839E+01  0.51100000000E-03 0. -1.
        -11    1    3    3    0    0  0.27624490744E+02 -0.42919868362E+01 -0.18102175382E+02  0.33304990522E+02  0.51100000000E-03 0.  1.
         12    1    3    3    0    0 -0.54185905781E+01 -0.44532062593E+01 -0.34446478967E+01  0.78139470803E+01  0.00000000000E+00 0. -1.
</event>
<event>
 7    1  0.5408841E-013  0.5052888E+02  0.7816164E-02  0.1300439E+00
        -11   -1    0    0    0    0  0.00000000000E+00  0.00000000000E+00  0.45593999997E+02  0.45594000000E+02  0.51100000000E-03 0.  1.
         11   -1    0    0    0    0 -0.00000000000E+00 -0.00000000000E+00 -0.45593999997E+02  0.45594000000E+02  0.51100000000E-03 0. -1.
    9900012    2    1    2    0    0 -0.33176681996E+02 -0.19251231268E+02  0.13485628075E+02  0.50528876815E+02  0.30000051567E+02 0.  0.
         12    1    1    2    0    0  0.33176681996E+02  0.19251231268E+02 -0.13485628075E+02  0.40659123185E+02  0.00000000000E+00 0. -1.
         11    1    3    3    0    0 -0.48065777820E+01 -0.80490217943E+01  0.16015272026E-01  0.93749772571E+01  0.51100000000E-03 0. -1.
        -11    1    3    3    0    0 -0.84007179794E+01 -0.13715674917E+02 -0.13782510070E+01  0.16142842906E+02  0.51100000000E-03 0.  1.
        -12    1    3    3    0    0 -0.19969386234E+02  0.25134654431E+01  0.14847863810E+02  0.25011056651E+02  0.00000000000E+00 0.  1.
</event>
<event>
 7    1  0.5408841E-013  0.5052882E+02  0.7816164E-02  0.1300439E+00
        -11   -1    0    0    0    0  0.00000000000E+00  0.00000000000E+00  0.45593999997E+02  0.45594000000E+02  0.51100000000E-03 0.  1.
         11   -1    0    0    0    0 -0.00000000000E+00 -0.00000000000E+00 -0.45593999997E+02  0.45594000000E+02  0.51100000000E-03 0. -1.
    9900012    2    1    2    0    0  0.35369267524E+02 -0.25901947586E+01  0.19886538476E+02  0.50528823832E+02  0.29999890520E+02 0.  0.
         12    1    1    2    0    0 -0.35369267524E+02  0.25901947586E+01 -0.19886538476E+02  0.40659176168E+02  0.00000000000E+00 0. -1.
         11    1    3    3    0    0  0.32674068401E+01 -0.50093839622E+00  0.40521228782E+01  0.52293964104E+01  0.51100000000E-03 0. -1.
        -11    1    3    3    0    0  0.29599973855E+02 -0.27166410643E+01  0.23064347712E+02  0.37623167418E+02  0.51100000000E-03 0.  1.
         12    1    3    3    0    0  0.25018868294E+01  0.62738470193E+00 -0.72299321146E+01  0.76762600042E+01  0.00000000000E+00 0. -1.
</event>
<event>
 7    1  0.5408841E-013  0.5052886E+02  0.7816164E-02  0.1300439E+00
        -11   -1    0    0    0    0  0.00000000000E+00  0.00000000000E+00  0.45593999997E+02  0.45594000000E+02  0.51100000000E-03 0.  1.
         11   -1    0    0    0    0 -0.00000000000E+00 -0.00000000000E+00 -0.45593999997E+02  0.45594000000E+02  0.51100000000E-03 0. -1.
    9900012    2    1    2    0    0  0.16798247124E+02 -0.32134546773E+02 -0.18394448530E+02  0.50528856631E+02  0.29999990216E+02 0.  0.
         12    1    1    2    0    0 -0.16798247124E+02  0.32134546773E+02  0.18394448530E+02  0.40659143369E+02  0.00000000000E+00 0. -1.
         11    1    3    3    0    0 -0.43587731159E+01 -0.13660851280E+02 -0.15886301232E+02  0.21400755310E+02  0.51100000000E-03 0. -1.
        -11    1    3    3    0    0  0.10969864745E+01 -0.38469850875E+01  0.80853428179E+00  0.40812254942E+01  0.51100000000E-03 0.  1.
         12    1    3    3    0    0  0.20060033765E+02 -0.14626710406E+02 -0.33166815803E+01  0.25046875827E+02  0.00000000000E+00 0. -1.
</event>
<event>
 7    1  0.5408841E-013  0.5052887E+02  0.7816164E-02  0.1300439E+00
        -11   -1    0    0    0    0  0.00000000000E+00  0.00000000000E+00  0.45593999997E+02  0.45594000000E+02  0.51100000000E-03 0. -1.
         11   -1    0    0    0    0 -0.00000000000E+00 -0.00000000000E+00 -0.45593999997E+02  0.45594000000E+02  0.51100000000E-03 0.  1.
    9900012    2    1    2    0    0  0.27074014573E+02 -0.26043007017E+02 -0.15553924933E+02  0.50528867442E+02  0.30000023076E+02 0.  0.
         12    1    1    2    0    0 -0.27074014573E+02  0.26043007017E+02  0.15553924933E+02  0.40659132558E+02  0.00000000000E+00 0. -1.
         11    1    3    3    0    0  0.39214803113E+01  0.30753035666E+01 -0.10370167952E+01  0.50902754300E+01  0.51100000000E-03 0. -1.
        -11    1    3    3    0    0  0.20516262466E+02 -0.16812886297E+02 -0.18383949784E+02  0.32273205312E+02  0.51100000000E-03 0.  1.
         12    1    3    3    0    0  0.26362717960E+01 -0.12305424287E+02  0.38670416463E+01  0.13165386700E+02  0.00000000000E+00 0. -1.
</event>
<event>
 7    1  0.5408841E-013  0.5052886E+02  0.7816164E-02  0.1300439E+00
        -11   -1    0    0    0    0  0.00000000000E+00  0.00000000000E+00  0.45593999997E+02  0.45594000000E+02  0.51100000000E-03 0. -1.
         11   -1    0    0    0    0 -0.00000000000E+00 -0.00000000000E+00 -0.45593999997E+02  0.45594000000E+02  0.51100000000E-03 0.  1.
    9900012    2    1    2    0    0 -0.15969355545E+02  0.19887949151E+02 -0.31664096856E+02  0.50528857514E+02  0.29999992899E+02 0.  0.
         12    1    1    2    0    0  0.15969355545E+02 -0.19887949151E+02  0.31664096856E+02  0.40659142486E+02  0.00000000000E+00 0. -1.
         11    1    3    3    0    0 -0.12778019807E+02  0.11963984328E+02 -0.16573231361E+02  0.24105740171E+02  0.51100000000E-03 0. -1.
        -11    1    3    3    0    0 -0.86562231330E+01 -0.25307819779E+01 -0.10300504265E+02  0.13690706509E+02  0.51100000000E-03 0.  1.
         12    1    3    3    0    0  0.54648873947E+01  0.10454746801E+02 -0.47903612311E+01  0.12732410834E+02  0.00000000000E+00 0. -1.
</event>
<event>
 7    1  0.5408841E-013  0.5052886E+02  0.7816164E-02  0.1300439E+00
        -11   -1    0    0    0    0  0.00000000000E+00  0.00000000000E+00  0.45593999997E+02  0.45594000000E+02  0.51100000000E-03 0. -1.
         11   -1    0    0    0    0 -0.00000000000E+00 -0.00000000000E+00 -0.45593999997E+02  0.45594000000E+02  0.51100000000E-03 0.  1.
    9900012    2    1    2    0    0  0.23386026526E+02 -0.26277334761E+02  0.20390219912E+02  0.50528860475E+02  0.30000001901E+02 0.  0.
         12    1    1    2    0    0 -0.23386026526E+02  0.26277334761E+02 -0.20390219912E+02  0.40659139525E+02  0.00000000000E+00 0. -1.
         11    1    3    3    0    0  0.14331265518E+02 -0.10446791705E+02 -0.26131068823E+01  0.17926208637E+02  0.51100000000E-03 0. -1.
        -11    1    3    3    0    0  0.18358761046E+01 -0.83039751831E+01  0.14069993932E+01  0.86200981704E+01  0.51100000000E-03 0.  1.
         12    1    3    3    0    0  0.72188849038E+01 -0.75265678724E+01  0.21596327401E+02  0.23982553668E+02  0.00000000000E+00 0. -1.
</event>
<event>
 7    1  0.5408841E-013  0.5052886E+02  0.7816164E-02  0.1300439E+00
        -11   -1    0    0    0    0  0.00000000000E+00  0.00000000000E+00  0.45593999997E+02  0.45594000000E+02  0.51100000000E-03 0.  1.
         11   -1    0    0    0    0 -0.00000000000E+00 -0.00000000000E+00 -0.45593999997E+02  0.45594000000E+02  0.51100000000E-03 0. -1.
    9900012    2    1    2    0    0 -0.28566288921E+02 -0.14798542463E+02  0.24862339562E+02  0.50528860188E+02  0.30000001028E+02 0.  0.
         12    1    1    2    0    0  0.28566288921E+02  0.14798542463E+02 -0.24862339562E+02  0.40659139812E+02  0.00000000000E+00 0. -1.
         11    1    3    3    0    0 -0.39888012039E+01 -0.73813071676E+01  0.10066153409E+02  0.13104261721E+02  0.51100000000E-03 0. -1.
        -11    1    3    3    0    0 -0.14530812952E+02 -0.10492622684E+02  0.18989318535E+02  0.26111948884E+02  0.51100000000E-03 0.  1.
         12    1    3    3    0    0 -0.10046674765E+02  0.30753873884E+01 -0.41931323817E+01  0.11312649584E+02  0.00000000000E+00 0. -1.
</event>
<event>
 7    1  0.5408841E-013  0.5052885E+02  0.7816164E-02  0.1300439E+00
        -11   -1    0    0    0    0  0.00000000000E+00  0.00000000000E+00  0.45593999997E+02  0.45594000000E+02  0.51100000000E-03 0.  1.
         11   -1    0    0    0    0 -0.00000000000E+00 -0.00000000000E+00 -0.45593999997E+02  0.45594000000E+02  0.51100000000E-03 0. -1.
    9900012    2    1    2    0    0  0.77130795327E+01  0.58229859499E+01  0.39493891563E+02  0.50528853034E+02  0.29999979281E+02 0.  0.
         12    1    1    2    0    0 -0.77130795327E+01 -0.58229859499E+01 -0.39493891563E+02  0.40659146966E+02  0.00000000000E+00 0. -1.
         11    1    3    3    0    0  0.12690269766E+02  0.79107712903E+01  0.14590978362E+02  0.20893058631E+02  0.51100000000E-03 0. -1.
        -11    1    3    3    0    0 -0.19312993662E+01  0.50571943545E+01  0.25733534958E+01  0.59939369747E+01  0.51100000000E-03 0.  1.
         12    1    3    3    0    0 -0.30458908675E+01 -0.71449796948E+01  0.22329559705E+02  0.23641857428E+02  0.00000000000E+00 0. -1.
</event>
<event>
 7    1  0.5408841E-013  0.5052884E+02  0.7816164E-02  0.1300439E+00
        -11   -1    0    0    0    0  0.00000000000E+00  0.00000000000E+00  0.45593999997E+02  0.45594000000E+02  0.51100000000E-03 0.  1.
         11   -1    0    0    0    0 -0.00000000000E+00 -0.00000000000E+00 -0.45593999997E+02  0.45594000000E+02  0.51100000000E-03 0. -1.
    9900012    2    1    2    0    0  0.18477010531E+02  0.73246827670E+01  0.35469934829E+02  0.50528841467E+02  0.29999944124E+02 0.  0.
         12    1    1    2    0    0 -0.18477010531E+02 -0.73246827670E+01 -0.35469934829E+02  0.40659158533E+02  0.00000000000E+00 0. -1.
         11    1    3    3    0    0  0.14889661381E+02  0.24441497045E+01  0.11782594773E+02  0.19144331371E+02  0.51100000000E-03 0. -1.
        -11    1    3    3    0    0  0.10955814127E+02  0.66878620976E+01  0.16762307337E+02  0.21112373390E+02  0.51100000000E-03 0.  1.
         12    1    3    3    0    0 -0.73684649768E+01 -0.18073290351E+01  0.69250327193E+01  0.10272136707E+02  0.00000000000E+00 0. -1.
</event>
<event>
 7    1  0.5408841E-013  0.5052886E+02  0.7816164E-02  0.1300439E+00
        -11   -1    0    0    0    0  0.00000000000E+00  0.00000000000E+00  0.45593999997E+02  0.45594000000E+02  0.51100000000E-03 0.  1.
         11   -1    0    0    0    0 -0.00000000000E+00 -0.00000000000E+00 -0.45593999997E+02  0.45594000000E+02  0.51100000000E-03 0. -1.
    9900012    2    1    2    0    0  0.21503752366E+02  0.32554332648E+02  0.11444210467E+02  0.50528857201E+02  0.29999991947E+02 0.  0.
         12    1    1    2    0    0 -0.21503752366E+02 -0.32554332648E+02 -0.11444210467E+02  0.40659142799E+02  0.00000000000E+00 0. -1.
         11    1    3    3    0    0  0.84529272102E+01  0.15108013441E+02  0.13345783275E+02  0.21858956518E+02  0.51100000000E-03 0. -1.
        -11    1    3    3    0    0  0.99401010518E+01  0.17203436553E+02  0.55182301256E+01  0.20620734762E+02  0.51100000000E-03 0.  1.
         12    1    3    3    0    0  0.31107241037E+01  0.24288265366E+00 -0.74198029340E+01  0.80491659202E+01  0.00000000000E+00 0. -1.
</event>
<event>
 7    1  0.5408841E-013  0.5052884E+02  0.7816164E-02  0.1300439E+00
        -11   -1    0    0    0    0  0.00000000000E+00  0.00000000000E+00  0.45593999997E+02  0.45594000000E+02  0.51100000000E-03 0. -1.
         11   -1    0    0    0    0 -0.00000000000E+00 -0.00000000000E+00 -0.45593999997E+02  0.45594000000E+02  0.51100000000E-03 0.  1.
    9900012    2    1    2    0    0 -0.25587792205E+02  0.18062923588E+02 -0.25926099932E+02  0.50528843883E+02  0.29999951466E+02 0.  0.
         12    1    1    2    0    0  0.25587792205E+02 -0.18062923588E+02  0.25926099932E+02  0.40659156117E+02  0.00000000000E+00 0. -1.
         11    1    3    3    0    0 -0.85566404050E+01  0.45676739255E+01  0.16541621856E+00  0.97008815526E+01  0.51100000000E-03 0. -1.
        -11    1    3    3    0    0 -0.53050901105E+01 -0.62870108803E+01 -0.88733177438E+01  0.12099845244E+02  0.51100000000E-03 0.  1.
        -12    1    3    3    0    0 -0.11726061690E+02  0.19782260543E+02 -0.17218198406E+02  0.28728117086E+02  0.00000000000E+00 0.  1.
</event>
<event>
 7    1  0.5408841E-013  0.5052887E+02  0.7816164E-02  0.1300439E+00
        -11   -1    0    0    0    0  0.00000000000E+00  0.00000000000E+00  0.45593999997E+02  0.45594000000E+02  0.51100000000E-03 0. -1.
         11   -1    0    0    0    0 -0.00000000000E+00 -0.00000000000E+00 -0.45593999997E+02  0.45594000000E+02  0.51100000000E-03 0.  1.
    9900012    2    1    2    0    0  0.30955289110E+02  0.10636081224E+01 -0.26340149151E+02  0.50528872569E+02  0.30000038661E+02 0.  0.
         12    1    1    2    0    0 -0.30955289110E+02 -0.10636081224E+01  0.26340149151E+02  0.40659127431E+02  0.00000000000E+00 0. -1.
         11    1    3    3    0    0  0.21757596852E+02 -0.80672053982E+01 -0.15622373220E+02  0.27973762153E+02  0.51100000000E-03 0. -1.
        -11    1    3    3    0    0  0.12689813060E+01 -0.35230143853E+01 -0.56650596958E+01  0.67907912302E+01  0.51100000000E-03 0.  1.
         12    1    3    3    0    0  0.79287109518E+01  0.12653827906E+02 -0.50527162351E+01  0.15764319185E+02  0.00000000000E+00 0. -1.
</event>
<event>
 7    1  0.5408841E-013  0.5052886E+02  0.7816164E-02  0.1300439E+00
        -11   -1    0    0    0    0  0.00000000000E+00  0.00000000000E+00  0.45593999997E+02  0.45594000000E+02  0.51100000000E-03 0.  1.
         11   -1    0    0    0    0 -0.00000000000E+00 -0.00000000000E+00 -0.45593999997E+02  0.45594000000E+02  0.51100000000E-03 0. -1.
    9900012    2    1    2    0    0 -0.34312455212E+02 -0.21236785770E+01  0.21709703297E+02  0.50528858216E+02  0.29999995033E+02 0.  0.
         12    1    1    2    0    0  0.34312455212E+02  0.21236785770E+01 -0.21709703297E+02  0.40659141784E+02  0.00000000000E+00 0. -1.
         11    1    3    3    0    0  0.32375353801E+01 -0.30292281014E+01 -0.13410784859E+01  0.46320999551E+01  0.51100000000E-03 0. -1.
        -11    1    3    3    0    0 -0.10602732105E+02 -0.30907899664E+01  0.14677604420E+01  0.11141150375E+02  0.51100000000E-03 0.  1.
        -12    1    3    3    0    0 -0.26947258487E+02  0.39963394908E+01  0.21583021341E+02  0.34755607885E+02  0.00000000000E+00 0.  1.
</event>
<event>
 7    1  0.5408841E-013  0.5052890E+02  0.7816164E-02  0.1300439E+00
        -11   -1    0    0    0    0  0.00000000000E+00  0.00000000000E+00  0.45593999997E+02  0.45594000000E+02  0.51100000000E-03 0.  1.
         11   -1    0    0    0    0 -0.00000000000E+00 -0.00000000000E+00 -0.45593999997E+02  0.45594000000E+02  0.51100000000E-03 0. -1.
    9900012    2    1    2    0    0  0.18191461359E+02  0.19383497603E+02  0.30765448284E+02  0.50528904415E+02  0.30000135459E+02 0.  0.
         12    1    1    2    0    0 -0.18191461359E+02 -0.19383497603E+02 -0.30765448284E+02  0.40659095585E+02  0.00000000000E+00 0. -1.
         11    1    3    3    0    0 -0.44697350998E+01  0.96937711749E+01  0.87632988480E+01  0.13810978909E+02  0.51100000000E-03 0. -1.
        -11    1    3    3    0    0  0.43340970133E+00 -0.53549660267E+00  0.89705298555E+01  0.89969442996E+01  0.51100000000E-03 0.  1.
        -12    1    3    3    0    0  0.22227786758E+02  0.10225223031E+02  0.13031619580E+02  0.27720981207E+02  0.00000000000E+00 0.  1.
</event>
<event>
 7    1  0.5408841E-013  0.5052885E+02  0.7816164E-02  0.1300439E+00
        -11   -1    0    0    0    0  0.00000000000E+00  0.00000000000E+00  0.45593999997E+02  0.45594000000E+02  0.51100000000E-03 0.  1.
         11   -1    0    0    0    0 -0.00000000000E+00 -0.00000000000E+00 -0.45593999997E+02  0.45594000000E+02  0.51100000000E-03 0. -1.
    9900012    2    1    2    0    0  0.67953350192E+01 -0.39278466837E+02  0.80119694506E+01  0.50528853556E+02  0.29999980867E+02 0.  0.
         12    1    1    2    0    0 -0.67953350192E+01  0.39278466837E+02 -0.80119694506E+01  0.40659146444E+02  0.00000000000E+00 0. -1.
         11    1    3    3    0    0  0.41843175839E+01 -0.44371547482E+01 -0.72796015798E+01  0.94968129035E+01  0.51100000000E-03 0. -1.
        -11    1    3    3    0    0  0.38645771348E+01 -0.91961434228E+00  0.28069552347E+01  0.48641181030E+01  0.51100000000E-03 0.  1.
        -12    1    3    3    0    0 -0.12535596995E+01 -0.33921697747E+02  0.12484615796E+02  0.36167922549E+02  0.00000000000E+00 0.  1.
</event>
<event>
 7    1  0.5408841E-013  0.5052886E+02  0.7816164E-02  0.1300439E+00
        -11   -1    0    0    0    0  0.00000000000E+00  0.00000000000E+00  0.45593999997E+02  0.45594000000E+02  0.51100000000E-03 0. -1.
         11   -1    0    0    0    0 -0.00000000000E+00 -0.00000000000E+00 -0.45593999997E+02  0.45594000000E+02  0.51100000000E-03 0.  1.
    9900012    2    1    2    0    0  0.21723499792E+02  0.16428656478E+02 -0.30188650731E+02  0.50528857980E+02  0.29999994315E+02 0.  0.
         12    1    1    2    0    0 -0.21723499792E+02 -0.16428656478E+02  0.30188650731E+02  0.40659142020E+02  0.00000000000E+00 0. -1.
         11    1    3    3    0    0  0.14076677035E+02 -0.18586239863E+01 -0.63388081278E+01  0.15549527588E+02  0.51100000000E-03 0. -1.
        -11    1    3    3    0    0  0.47864710230E+01  0.15553921593E+02 -0.70765799523E+01  0.17745781636E+02  0.51100000000E-03 0.  1.
         12    1    3    3    0    0  0.28603517338E+01  0.27333588715E+01 -0.16773262651E+02  0.17233548756E+02  0.00000000000E+00 0. -1.
</event>
<event>
 7    1  0.5408841E-013  0.5052885E+02  0.7816164E-02  0.1300439E+00
        -11   -1    0    0    0    0  0.00000000000E+00  0.00000000000E+00  0.45593999997E+02  0.45594000000E+02  0.51100000000E-03 0.  1.
         11   -1    0    0    0    0 -0.00000000000E+00 -0.00000000000E+00 -0.45593999997E+02  0.45594000000E+02  0.51100000000E-03 0. -1.
    9900012    2    1    2    0    0 -0.31326411660E+02 -0.20675961406E+02  0.15630955361E+02  0.50528853267E+02  0.29999979990E+02 0.  0.
         12    1    1    2    0    0  0.31326411660E+02  0.20675961406E+02 -0.15630955361E+02  0.40659146733E+02  0.00000000000E+00 0. -1.
         11    1    3    3    0    0 -0.22139266025E+01 -0.33108551943E+01  0.23969355851E+00  0.39900734808E+01  0.51100000000E-03 0. -1.
        -11    1    3    3    0    0 -0.86957258129E+01 -0.21266574298E+02  0.61075944856E+01  0.23773631200E+02  0.51100000000E-03 0.  1.
         12    1    3    3    0    0 -0.20416759245E+02  0.39014680862E+01  0.92836673165E+01  0.22765148586E+02  0.00000000000E+00 0. -1.
</event>
<event>
 7    1  0.5408841E-013  0.5052887E+02  0.7816164E-02  0.1300439E+00
        -11   -1    0    0    0    0  0.00000000000E+00  0.00000000000E+00  0.45593999997E+02  0.45594000000E+02  0.51100000000E-03 0.  1.
         11   -1    0    0    0    0 -0.00000000000E+00 -0.00000000000E+00 -0.45593999997E+02  0.45594000000E+02  0.51100000000E-03 0. -1.
    9900012    2    1    2    0    0 -0.62866884652E+00 -0.38304113241E+02  0.13622195558E+02  0.50528873995E+02  0.30000042995E+02 0.  0.
         12    1    1    2    0    0  0.62866884652E+00  0.38304113241E+02 -0.13622195558E+02  0.40659126005E+02  0.00000000000E+00 0. -1.
         11    1    3    3    0    0 -0.24295292727E+01 -0.13188376350E+01 -0.41593567815E+01  0.49942160837E+01  0.51100000000E-03 0. -1.
        -11    1    3    3    0    0 -0.66505529090E+01 -0.28326700377E+02  0.85855427507E+01  0.30337161252E+02  0.51100000000E-03 0.  1.
         12    1    3    3    0    0  0.84514133352E+01 -0.86585752287E+01  0.91960095890E+01  0.15197496659E+02  0.00000000000E+00 0. -1.
</event>
<event>
 7    1  0.5408841E-013  0.5052886E+02  0.7816164E-02  0.1300439E+00
        -11   -1    0    0    0    0  0.00000000000E+00  0.00000000000E+00  0.45593999997E+02  0.45594000000E+02  0.51100000000E-03 0.  1.
         11   -1    0    0    0    0 -0.00000000000E+00 -0.00000000000E+00 -0.45593999997E+02  0.45594000000E+02  0.51100000000E-03 0. -1.
    9900012    2    1    2    0    0 -0.92144640369E+01 -0.37040226049E+02  0.14010023676E+02  0.50528862569E+02  0.30000008265E+02 0.  0.
         12    1    1    2    0    0  0.92144640369E+01  0.37040226049E+02 -0.14010023676E+02  0.40659137431E+02  0.00000000000E+00 0. -1.
         11    1    3    3    0    0  0.11411570275E+00 -0.59332954363E+01  0.49017704215E+01  0.76970364852E+01  0.51100000000E-03 0. -1.
        -11    1    3    3    0    0 -0.12551741471E+02 -0.13561089732E+02  0.15256454053E+02  0.23962653426E+02  0.51100000000E-03 0.  1.
         12    1    3    3    0    0  0.32231617310E+01 -0.17545840880E+02 -0.61482007989E+01  0.18869172658E+02  0.00000000000E+00 0. -1.
</event>
<event>
 7    1  0.5408841E-013  0.5052887E+02  0.7816164E-02  0.1300439E+00
        -11   -1    0    0    0    0  0.00000000000E+00  0.00000000000E+00  0.45593999997E+02  0.45594000000E+02  0.51100000000E-03 0.  1.
         11   -1    0    0    0    0 -0.00000000000E+00 -0.00000000000E+00 -0.45593999997E+02  0.45594000000E+02  0.51100000000E-03 0. -1.
    9900012    2    1    2    0    0 -0.34255420177E+02 -0.16867303929E+02  0.13972304291E+02  0.50528867686E+02  0.30000023818E+02 0.  0.
         12    1    1    2    0    0  0.34255420177E+02  0.16867303929E+02 -0.13972304291E+02  0.40659132314E+02  0.00000000000E+00 0. -1.
         11    1    3    3    0    0 -0.64192536471E+00 -0.10469427792E+02  0.59084193584E+01  0.12038704501E+02  0.51100000000E-03 0. -1.
        -11    1    3    3    0    0 -0.12692626004E+02 -0.10233395757E+02  0.45978338351E+01  0.16940047811E+02  0.51100000000E-03 0.  1.
         12    1    3    3    0    0 -0.20920868808E+02  0.38355196203E+01  0.34660510977E+01  0.21550115374E+02  0.00000000000E+00 0. -1.
</event>
<event>
 7    1  0.5408841E-013  0.5052888E+02  0.7816164E-02  0.1300439E+00
        -11   -1    0    0    0    0  0.00000000000E+00  0.00000000000E+00  0.45593999997E+02  0.45594000000E+02  0.51100000000E-03 0.  1.
         11   -1    0    0    0    0 -0.00000000000E+00 -0.00000000000E+00 -0.45593999997E+02  0.45594000000E+02  0.51100000000E-03 0. -1.
    9900012    2    1    2    0    0  0.95782906852E+01  0.17493215010E+02  0.35431736740E+02  0.50528878117E+02  0.30000055525E+02 0.  0.
         12    1    1    2    0    0 -0.95782906852E+01 -0.17493215010E+02 -0.35431736740E+02  0.40659121883E+02  0.00000000000E+00 0. -1.
         11    1    3    3    0    0 -0.18270396548E+01  0.42213982977E+01  0.26769562043E+01  0.53220646622E+01  0.51100000000E-03 0. -1.
        -11    1    3    3    0    0 -0.44230369312E+01  0.72905207377E+01  0.25333420791E+02  0.26730079640E+02  0.51100000000E-03 0.  1.
         12    1    3    3    0    0  0.15828367271E+02  0.59812959749E+01  0.74213597447E+01  0.18476733815E+02  0.00000000000E+00 0. -1.
</event>
<event>
 7    1  0.5408841E-013  0.5052886E+02  0.7816164E-02  0.1300439E+00
        -11   -1    0    0    0    0  0.00000000000E+00  0.00000000000E+00  0.45593999997E+02  0.45594000000E+02  0.51100000000E-03 0.  1.
         11   -1    0    0    0    0 -0.00000000000E+00 -0.00000000000E+00 -0.45593999997E+02  0.45594000000E+02  0.51100000000E-03 0. -1.
    9900012    2    1    2    0    0  0.24507490561E+02  0.86583106806E+01  0.31266306466E+02  0.50528863788E+02  0.30000011970E+02 0.  0.
         12    1    1    2    0    0 -0.24507490561E+02 -0.86583106806E+01 -0.31266306466E+02  0.40659136212E+02  0.00000000000E+00 0. -1.
         11    1    3    3    0    0  0.42821464760E+01  0.39653839695E+01  0.22540127325E+02  0.23283435927E+02  0.51100000000E-03 0. -1.
        -11    1    3    3    0    0  0.78597205266E+00 -0.42857081802E+01  0.20555761138E+01  0.48177214629E+01  0.51100000000E-03 0.  1.
         12    1    3    3    0    0  0.19439372033E+02  0.89786348913E+01  0.66706030275E+01  0.22427706398E+02  0.00000000000E+00 0. -1.
</event>
<event>
 7    1  0.5408841E-013  0.5052886E+02  0.7816164E-02  0.1300439E+00
        -11   -1    0    0    0    0  0.00000000000E+00  0.00000000000E+00  0.45593999997E+02  0.45594000000E+02  0.51100000000E-03 0.  1.
         11   -1    0    0    0    0 -0.00000000000E+00 -0.00000000000E+00 -0.45593999997E+02  0.45594000000E+02  0.51100000000E-03 0. -1.
    9900012    2    1    2    0    0 -0.13404081571E+02  0.24328493400E+02  0.29692099800E+02  0.50528858538E+02  0.29999996013E+02 0.  0.
         12    1    1    2    0    0  0.13404081571E+02 -0.24328493400E+02 -0.29692099800E+02  0.40659141462E+02  0.00000000000E+00 0. -1.
         11    1    3    3    0    0 -0.47855978248E+01  0.12672837691E+02  0.25197048409E+02  0.28607586590E+02  0.51100000000E-03 0.  1.
        -11    1    3    3    0    0 -0.12244127537E+02  0.12705955225E+02  0.41779834847E+01  0.18133270625E+02  0.51100000000E-03 0. -1.
        -12    1    3    3    0    0  0.36256437903E+01 -0.10502995160E+01  0.31706790564E+00  0.37880013232E+01  0.00000000000E+00 0.  1.
</event>
<event>
 7    1  0.5408841E-013  0.5052888E+02  0.7816164E-02  0.1300439E+00
        -11   -1    0    0    0    0  0.00000000000E+00  0.00000000000E+00  0.45593999997E+02  0.45594000000E+02  0.51100000000E-03 0. -1.
         11   -1    0    0    0    0 -0.00000000000E+00 -0.00000000000E+00 -0.45593999997E+02  0.45594000000E+02  0.51100000000E-03 0.  1.
    9900012    2    1    2    0    0  0.35477865152E+02 -0.15681594901E+02 -0.12189035985E+02  0.50528881310E+02  0.30000065230E+02 0.  0.
         12    1    1    2    0    0 -0.35477865152E+02  0.15681594901E+02  0.12189035985E+02  0.40659118690E+02  0.00000000000E+00 0. -1.
         11    1    3    3    0    0  0.21271345034E+02 -0.10405759131E+02 -0.20566538812E+01  0.23769303063E+02  0.51100000000E-03 0. -1.
        -11    1    3    3    0    0  0.13436104230E+02 -0.60830618549E+01  0.17252600648E+01  0.14849547500E+02  0.51100000000E-03 0.  1.
         12    1    3    3    0    0  0.77041588810E+00  0.80722608485E+00 -0.11857642169E+02  0.11910030747E+02  0.00000000000E+00 0. -1.
</event>
<event>
 7    1  0.5408841E-013  0.5052887E+02  0.7816164E-02  0.1300439E+00
        -11   -1    0    0    0    0  0.00000000000E+00  0.00000000000E+00  0.45593999997E+02  0.45594000000E+02  0.51100000000E-03 0. -1.
         11   -1    0    0    0    0 -0.00000000000E+00 -0.00000000000E+00 -0.45593999997E+02  0.45594000000E+02  0.51100000000E-03 0.  1.
    9900012    2    1    2    0    0  0.32286957536E+02 -0.23793475373E+02 -0.66774134316E+01  0.50528868831E+02  0.30000027298E+02 0.  0.
         12    1    1    2    0    0 -0.32286957536E+02  0.23793475373E+02  0.66774134316E+01  0.40659131169E+02  0.00000000000E+00 0. -1.
         11    1    3    3    0    0  0.11397418953E+02 -0.49903566220E+01  0.27018685624E+01  0.12732042726E+02  0.51100000000E-03 0.  1.
        -11    1    3    3    0    0  0.68299670606E+01  0.34667651799E+01 -0.85050817752E+01  0.11445668487E+02  0.51100000000E-03 0. -1.
         12    1    3    3    0    0  0.14059571523E+02 -0.22269883931E+02 -0.87420021887E+00  0.26351157617E+02  0.00000000000E+00 0. -1.
</event>
<event>
 7    1  0.5408841E-013  0.5052886E+02  0.7816164E-02  0.1300439E+00
        -11   -1    0    0    0    0  0.00000000000E+00  0.00000000000E+00  0.45593999997E+02  0.45594000000E+02  0.51100000000E-03 0.  1.
         11   -1    0    0    0    0 -0.00000000000E+00 -0.00000000000E+00 -0.45593999997E+02  0.45594000000E+02  0.51100000000E-03 0. -1.
    9900012    2    1    2    0    0  0.34608167315E+02 -0.18634938191E+02 -0.10400948576E+02  0.50528857147E+02  0.29999991784E+02 0.  0.
         12    1    1    2    0    0 -0.34608167315E+02  0.18634938191E+02  0.10400948576E+02  0.40659142853E+02  0.00000000000E+00 0. -1.
         11    1    3    3    0    0  0.64243027684E+01 -0.73510074813E+01  0.35188848549E+01  0.10377452863E+02  0.51100000000E-03 0. -1.
        -11    1    3    3    0    0  0.88249123052E+01 -0.98385779384E+01  0.39207356288E+01  0.13785821019E+02  0.51100000000E-03 0.  1.
         12    1    3    3    0    0  0.19358952241E+02 -0.14453527714E+01 -0.17840569059E+02  0.26365583264E+02  0.00000000000E+00 0. -1.
</event>
<event>
 7    1  0.5408841E-013  0.5052886E+02  0.7816164E-02  0.1300439E+00
        -11   -1    0    0    0    0  0.00000000000E+00  0.00000000000E+00  0.45593999997E+02  0.45594000000E+02  0.51100000000E-03 0.  1.
         11   -1    0    0    0    0 -0.00000000000E+00 -0.00000000000E+00 -0.45593999997E+02  0.45594000000E+02  0.51100000000E-03 0. -1.
    9900012    2    1    2    0    0  0.26778587711E+02 -0.29907994232E+02 -0.64486550327E+01  0.50528855512E+02  0.29999986814E+02 0.  0.
         12    1    1    2    0    0 -0.26778587711E+02  0.29907994232E+02  0.64486550327E+01  0.40659144488E+02  0.00000000000E+00 0. -1.
         11    1    3    3    0    0  0.18393359468E+02 -0.21795787535E+02 -0.66818076306E+00  0.28527504142E+02  0.51100000000E-03 0. -1.
        -11    1    3    3    0    0 -0.28436119974E+01 -0.94940311532E+01 -0.29158023928E+01  0.10330762827E+02  0.51100000000E-03 0.  1.
         12    1    3    3    0    0  0.11228840240E+02  0.13818244565E+01 -0.28646718768E+01  0.11670588543E+02  0.00000000000E+00 0. -1.
</event>
<event>
 7    1  0.5408841E-013  0.5052887E+02  0.7816164E-02  0.1300439E+00
        -11   -1    0    0    0    0  0.00000000000E+00  0.00000000000E+00  0.45593999997E+02  0.45594000000E+02  0.51100000000E-03 0.  1.
         11   -1    0    0    0    0 -0.00000000000E+00 -0.00000000000E+00 -0.45593999997E+02  0.45594000000E+02  0.51100000000E-03 0. -1.
    9900012    2    1    2    0    0  0.22712723856E+02 -0.95961262618E+01  0.32329732723E+02  0.50528867174E+02  0.30000022263E+02 0.  0.
         12    1    1    2    0    0 -0.22712723856E+02  0.95961262618E+01 -0.32329732723E+02  0.40659132826E+02  0.00000000000E+00 0. -1.
         11    1    3    3    0    0  0.12462675797E+00 -0.11837652227E+02  0.16953454872E+02  0.20677649152E+02  0.51100000000E-03 0. -1.
        -11    1    3    3    0    0  0.49873535721E+01 -0.98039224680E+00  0.99170483905E+01  0.11143729791E+02  0.51100000000E-03 0.  1.
         12    1    3    3    0    0  0.17600743526E+02  0.32219182121E+01  0.54592294604E+01  0.18707488232E+02  0.00000000000E+00 0. -1.
</event>
<event>
 7    1  0.5408841E-013  0.5052882E+02  0.7816164E-02  0.1300439E+00
        -11   -1    0    0    0    0  0.00000000000E+00  0.00000000000E+00  0.45593999997E+02  0.45594000000E+02  0.51100000000E-03 0. -1.
         11   -1    0    0    0    0 -0.00000000000E+00 -0.00000000000E+00 -0.45593999997E+02  0.45594000000E+02  0.51100000000E-03 0.  1.
    9900012    2    1    2    0    0  0.14649111006E+02 -0.56171166584E+01 -0.37510274155E+02  0.50528817519E+02  0.29999871331E+02 0.  0.
         12    1    1    2    0    0 -0.14649111006E+02  0.56171166584E+01  0.37510274155E+02  0.40659182481E+02  0.00000000000E+00 0. -1.
         11    1    3    3    0    0 -0.23642436939E+01 -0.69034935452E+01 -0.13950673420E+02  0.15743861042E+02  0.51100000000E-03 0. -1.
        -11    1    3    3    0    0  0.33635020739E+01 -0.80334877832E+01 -0.10977404735E+02  0.14012618853E+02  0.51100000000E-03 0.  1.
         12    1    3    3    0    0  0.13649852626E+02  0.93198646700E+01 -0.12582196001E+02  0.20772337624E+02  0.00000000000E+00 0. -1.
</event>
<event>
 7    1  0.5408841E-013  0.5052888E+02  0.7816164E-02  0.1300439E+00
        -11   -1    0    0    0    0  0.00000000000E+00  0.00000000000E+00  0.45593999997E+02  0.45594000000E+02  0.51100000000E-03 0.  1.
         11   -1    0    0    0    0 -0.00000000000E+00 -0.00000000000E+00 -0.45593999997E+02  0.45594000000E+02  0.51100000000E-03 0. -1.
    9900012    2    1    2    0    0 -0.33404323101E+02 -0.13495904263E+02 -0.18846115392E+02  0.50528876804E+02  0.30000051533E+02 0.  0.
         12    1    1    2    0    0  0.33404323101E+02  0.13495904263E+02  0.18846115392E+02  0.40659123196E+02  0.00000000000E+00 0. -1.
         11    1    3    3    0    0 -0.14488276393E+02 -0.12276336537E+02 -0.11164660149E+01  0.19022751858E+02  0.51100000000E-03 0. -1.
        -11    1    3    3    0    0 -0.99186022592E+01 -0.94728405577E+01 -0.78720387622E+01  0.15813992966E+02  0.51100000000E-03 0.  1.
        -12    1    3    3    0    0 -0.89974444488E+01  0.82532728314E+01 -0.98576106147E+01  0.15692131980E+02  0.00000000000E+00 0.  1.
</event>
<event>
 7    1  0.5408841E-013  0.5052875E+02  0.7816164E-02  0.1300439E+00
        -11   -1    0    0    0    0  0.00000000000E+00  0.00000000000E+00  0.45593999997E+02  0.45594000000E+02  0.51100000000E-03 0.  1.
         11   -1    0    0    0    0 -0.00000000000E+00 -0.00000000000E+00 -0.45593999997E+02  0.45594000000E+02  0.51100000000E-03 0. -1.
    9900012    2    1    2    0    0 -0.24936139680E+02 -0.58158907291E+01  0.31583838000E+02  0.50528751730E+02  0.29999671356E+02 0.  0.
         12    1    1    2    0    0  0.24936139680E+02  0.58158907291E+01 -0.31583838000E+02  0.40659248270E+02  0.00000000000E+00 0. -1.
         11    1    3    3    0    0  0.26028842358E+00  0.35260408096E+00  0.75675908050E-01  0.44475477011E+00  0.51100000000E-03 0. -1.
        -11    1    3    3    0    0 -0.26109320039E+02  0.56582178340E+01  0.18595750498E+02  0.32550176018E+02  0.51100000000E-03 0.  1.
         12    1    3    3    0    0  0.91289193516E+00 -0.11826712644E+02  0.12912411593E+02  0.17533820941E+02  0.00000000000E+00 0. -1.
</event>
<event>
 7    1  0.5408841E-013  0.5052889E+02  0.7816164E-02  0.1300439E+00
        -11   -1    0    0    0    0  0.00000000000E+00  0.00000000000E+00  0.45593999997E+02  0.45594000000E+02  0.51100000000E-03 0.  1.
         11   -1    0    0    0    0 -0.00000000000E+00 -0.00000000000E+00 -0.45593999997E+02  0.45594000000E+02  0.51100000000E-03 0. -1.
    9900012    2    1    2    0    0  0.30739073952E+02 -0.13371573581E+02  0.23010290999E+02  0.50528891066E+02  0.30000094883E+02 0.  0.
         12    1    1    2    0    0 -0.30739073952E+02  0.13371573581E+02 -0.23010290999E+02  0.40659108934E+02  0.00000000000E+00 0. -1.
         11    1    3    3    0    0  0.56623285689E+01  0.16592534468E+01  0.14574324125E+01  0.60777624436E+01  0.51100000000E-03 0. -1.
        -11    1    3    3    0    0  0.16256359197E+02  0.33617842534E+00 -0.36902352595E+00  0.16264021916E+02  0.51100000000E-03 0.  1.
        -12    1    3    3    0    0  0.88203861865E+01 -0.15367005453E+02  0.21921882113E+02  0.28187106705E+02  0.00000000000E+00 0.  1.
</event>
<event>
 7    1  0.5408841E-013  0.5052886E+02  0.7816164E-02  0.1300439E+00
        -11   -1    0    0    0    0  0.00000000000E+00  0.00000000000E+00  0.45593999997E+02  0.45594000000E+02  0.51100000000E-03 0. -1.
         11   -1    0    0    0    0 -0.00000000000E+00 -0.00000000000E+00 -0.45593999997E+02  0.45594000000E+02  0.51100000000E-03 0.  1.
    9900012    2    1    2    0    0  0.86525649223E+01 -0.29201950538E+02 -0.26935943128E+02  0.50528858012E+02  0.29999994415E+02 0.  0.
         12    1    1    2    0    0 -0.86525649223E+01  0.29201950538E+02  0.26935943128E+02  0.40659141988E+02  0.00000000000E+00 0. -1.
         11    1    3    3    0    0 -0.11114027167E+01  0.20580883528E+01  0.11019109487E+01  0.25855660244E+01  0.51100000000E-03 0. -1.
        -11    1    3    3    0    0  0.35508674383E+01  0.21688421170E+01 -0.64237369215E+01  0.76535568196E+01  0.51100000000E-03 0.  1.
         12    1    3    3    0    0  0.62131002007E+01 -0.33428881008E+02 -0.21614117156E+02  0.40289735168E+02  0.00000000000E+00 0. -1.
</event>
<event>
 7    1  0.5408841E-013  0.5052894E+02  0.7816164E-02  0.1300439E+00
        -11   -1    0    0    0    0  0.00000000000E+00  0.00000000000E+00  0.45593999997E+02  0.45594000000E+02  0.51100000000E-03 0.  1.
         11   -1    0    0    0    0 -0.00000000000E+00 -0.00000000000E+00 -0.45593999997E+02  0.45594000000E+02  0.51100000000E-03 0. -1.
    9900012    2    1    2    0    0 -0.24004454350E+02 -0.10220010592E+02  0.31184881948E+02  0.50528938190E+02  0.30000238121E+02 0.  0.
         12    1    1    2    0    0  0.24004454350E+02  0.10220010592E+02 -0.31184881948E+02  0.40659061810E+02  0.00000000000E+00 0. -1.
         11    1    3    3    0    0 -0.77809622299E+01 -0.17807878425E+01  0.71928390901E+01  0.10744836574E+02  0.51100000000E-03 0.  1.
        -11    1    3    3    0    0 -0.18395493250E+02  0.42071090986E+01  0.13375463559E+02  0.23130001396E+02  0.51100000000E-03 0. -1.
        -12    1    3    3    0    0  0.21720011297E+01 -0.12646331849E+02  0.10616579299E+02  0.16654100220E+02  0.00000000000E+00 0.  1.
</event>
<event>
 7    1  0.5408841E-013  0.5052886E+02  0.7816164E-02  0.1300439E+00
        -11   -1    0    0    0    0  0.00000000000E+00  0.00000000000E+00  0.45593999997E+02  0.45594000000E+02  0.51100000000E-03 0.  1.
         11   -1    0    0    0    0 -0.00000000000E+00 -0.00000000000E+00 -0.45593999997E+02  0.45594000000E+02  0.51100000000E-03 0. -1.
    9900012    2    1    2    0    0  0.17558466070E+02 -0.35323400283E+02  0.98551137747E+01  0.50528860734E+02  0.30000002688E+02 0.  0.
         12    1    1    2    0    0 -0.17558466070E+02  0.35323400283E+02 -0.98551137747E+01  0.40659139266E+02  0.00000000000E+00 0. -1.
         11    1    3    3    0    0  0.65981466426E+01 -0.18902170570E+02 -0.31914822196E+01  0.20273459261E+02  0.51100000000E-03 0. -1.
        -11    1    3    3    0    0  0.43196658840E+01 -0.16080245640E+02  0.12291330635E+01  0.16695645586E+02  0.51100000000E-03 0.  1.
        -12    1    3    3    0    0  0.66406535434E+01 -0.34098407371E+00  0.11817462931E+02  0.13559755888E+02  0.00000000000E+00 0.  1.
</event>
<event>
 7    1  0.5408841E-013  0.5052887E+02  0.7816164E-02  0.1300439E+00
        -11   -1    0    0    0    0  0.00000000000E+00  0.00000000000E+00  0.45593999997E+02  0.45594000000E+02  0.51100000000E-03 0.  1.
         11   -1    0    0    0    0 -0.00000000000E+00 -0.00000000000E+00 -0.45593999997E+02  0.45594000000E+02  0.51100000000E-03 0. -1.
    9900012    2    1    2    0    0 -0.75732214343E+01  0.26012642600E+02  0.30317548518E+02  0.50528868110E+02  0.30000025106E+02 0.  0.
         12    1    1    2    0    0  0.75732214343E+01 -0.26012642600E+02 -0.30317548518E+02  0.40659131890E+02  0.00000000000E+00 0. -1.
         11    1    3    3    0    0 -0.74253888781E+01  0.24467928805E+01  0.14052852373E+02  0.16081226802E+02  0.51100000000E-03 0. -1.
        -11    1    3    3    0    0 -0.35029116039E+01  0.48239436123E+01  0.14071032478E+02  0.15281844684E+02  0.51100000000E-03 0.  1.
        -12    1    3    3    0    0  0.33550790478E+01  0.18741906107E+02  0.21936636674E+01  0.19165796624E+02  0.00000000000E+00 0.  1.
</event>
<event>
 7    1  0.5408841E-013  0.5052886E+02  0.7816164E-02  0.1300439E+00
        -11   -1    0    0    0    0  0.00000000000E+00  0.00000000000E+00  0.45593999997E+02  0.45594000000E+02  0.51100000000E-03 0. -1.
         11   -1    0    0    0    0 -0.00000000000E+00 -0.00000000000E+00 -0.45593999997E+02  0.45594000000E+02  0.51100000000E-03 0.  1.
    9900012    2    1    2    0    0  0.41267675915E+01 -0.28822355495E+02 -0.28379692119E+02  0.50528864350E+02  0.30000013680E+02 0.  0.
         12    1    1    2    0    0 -0.41267675915E+01  0.28822355495E+02  0.28379692119E+02  0.40659135650E+02  0.00000000000E+00 0. -1.
         11    1    3    3    0    0 -0.28590851473E+00 -0.14101339924E+02 -0.21178439706E+02  0.25445153565E+02  0.51100000000E-03 0. -1.
        -11    1    3    3    0    0  0.49279593983E+01 -0.98140775493E+01 -0.13294285736E+02  0.17243518651E+02  0.51100000000E-03 0.  1.
         12    1    3    3    0    0 -0.51528329215E+00 -0.49069380216E+01  0.60930333233E+01  0.78401921340E+01  0.00000000000E+00 0. -1.
</event>
<event>
 7    1  0.5408841E-013  0.5052887E+02  0.7816164E-02  0.1300439E+00
        -11   -1    0    0    0    0  0.00000000000E+00  0.00000000000E+00  0.45593999997E+02  0.45594000000E+02  0.51100000000E-03 0.  1.
         11   -1    0    0    0    0 -0.00000000000E+00 -0.00000000000E+00 -0.45593999997E+02  0.45594000000E+02  0.51100000000E-03 0. -1.
    9900012    2    1    2    0    0  0.36779300990E+02  0.15615614035E+02  0.75233310850E+01  0.50528869493E+02  0.30000029310E+02 0.  0.
         12    1    1    2    0    0 -0.36779300990E+02 -0.15615614035E+02 -0.75233310850E+01  0.40659130507E+02  0.00000000000E+00 0. -1.
         11    1    3    3    0    0 -0.12893251606E+00  0.18251741955E+01  0.42874368478E+00  0.18792833330E+01  0.51100000000E-03 0. -1.
        -11    1    3    3    0    0  0.14570590649E+02  0.15359273374E+02 -0.68720156931E+01  0.22258346533E+02  0.51100000000E-03 0.  1.
        -12    1    3    3    0    0  0.22337642857E+02 -0.15688335350E+01  0.13966603093E+02  0.26391239626E+02  0.00000000000E+00 0.  1.
</event>
<event>
 7    1  0.5408841E-013  0.5052886E+02  0.7816164E-02  0.1300439E+00
        -11   -1    0    0    0    0  0.00000000000E+00  0.00000000000E+00  0.45593999997E+02  0.45594000000E+02  0.51100000000E-03 0. -1.
         11   -1    0    0    0    0 -0.00000000000E+00 -0.00000000000E+00 -0.45593999997E+02  0.45594000000E+02  0.51100000000E-03 0.  1.
    9900012    2    1    2    0    0  0.18828622852E+02 -0.28745843404E+02 -0.21733046834E+02  0.50528857410E+02  0.29999992582E+02 0.  0.
         12    1    1    2    0    0 -0.18828622852E+02  0.28745843404E+02  0.21733046834E+02  0.40659142590E+02  0.00000000000E+00 0. -1.
         11    1    3    3    0    0 -0.27741491750E+01 -0.13977699885E+02 -0.14074270940E+02  0.20028906623E+02  0.51100000000E-03 0. -1.
        -11    1    3    3    0    0  0.33017184873E+01 -0.77195639592E+01 -0.69104790181E+01  0.10874177358E+02  0.51100000000E-03 0.  1.
         12    1    3    3    0    0  0.18301053540E+02 -0.70485795594E+01 -0.74829687516E+00  0.19625773429E+02  0.00000000000E+00 0. -1.
</event>
<event>
 7    1  0.5408841E-013  0.5052887E+02  0.7816164E-02  0.1300439E+00
        -11   -1    0    0    0    0  0.00000000000E+00  0.00000000000E+00  0.45593999997E+02  0.45594000000E+02  0.51100000000E-03 0.  1.
         11   -1    0    0    0    0 -0.00000000000E+00 -0.00000000000E+00 -0.45593999997E+02  0.45594000000E+02  0.51100000000E-03 0. -1.
    9900012    2    1    2    0    0  0.26599298262E+02  0.30733136343E+02  0.10566501040E+01  0.50528870066E+02  0.30000031053E+02 0.  0.
         12    1    1    2    0    0 -0.26599298262E+02 -0.30733136343E+02 -0.10566501040E+01  0.40659129934E+02  0.00000000000E+00 0. -1.
         11    1    3    3    0    0 -0.43137540580E+00  0.11776742887E+01  0.61355614289E+01  0.62624368883E+01  0.51100000000E-03 0. -1.
        -11    1    3    3    0    0 -0.32275194247E+00  0.79201820223E+01  0.29862327265E+01  0.84705984583E+01  0.51100000000E-03 0.  1.
         12    1    3    3    0    0  0.27353425610E+02  0.21635280032E+02 -0.80651440515E+01  0.35795834720E+02  0.00000000000E+00 0. -1.
</event>
<event>
 7    1  0.5408841E-013  0.5052886E+02  0.7816164E-02  0.1300439E+00
        -11   -1    0    0    0    0  0.00000000000E+00  0.00000000000E+00  0.45593999997E+02  0.45594000000E+02  0.51100000000E-03 0.  1.
         11   -1    0    0    0    0 -0.00000000000E+00 -0.00000000000E+00 -0.45593999997E+02  0.45594000000E+02  0.51100000000E-03 0. -1.
    9900012    2    1    2    0    0  0.36708138045E+02 -0.17031649882E+02  0.39498333792E+01  0.50528859820E+02  0.29999999909E+02 0.  0.
         12    1    1    2    0    0 -0.36708138045E+02  0.17031649882E+02 -0.39498333792E+01  0.40659140180E+02  0.00000000000E+00 0. -1.
         11    1    3    3    0    0  0.28283790534E+01 -0.21205605644E+01 -0.54594273758E+01  0.65039874469E+01  0.51100000000E-03 0. -1.
        -11    1    3    3    0    0  0.70910115912E+01  0.40736620486E+01 -0.32980811394E+01  0.88178516281E+01  0.51100000000E-03 0.  1.
         12    1    3    3    0    0  0.26788747400E+02 -0.18984751366E+02  0.12707341894E+02  0.35207020745E+02  0.00000000000E+00 0. -1.
</event>
<event>
 7    1  0.5408841E-013  0.5052885E+02  0.7816164E-02  0.1300439E+00
        -11   -1    0    0    0    0  0.00000000000E+00  0.00000000000E+00  0.45593999997E+02  0.45594000000E+02  0.51100000000E-03 0. -1.
         11   -1    0    0    0    0 -0.00000000000E+00 -0.00000000000E+00 -0.45593999997E+02  0.45594000000E+02  0.51100000000E-03 0.  1.
    9900012    2    1    2    0    0  0.26341001669E+02  0.24649548868E+02 -0.18754131472E+02  0.50528854957E+02  0.29999985128E+02 0.  0.
         12    1    1    2    0    0 -0.26341001669E+02 -0.24649548868E+02  0.18754131472E+02  0.40659145043E+02  0.00000000000E+00 0. -1.
         11    1    3    3    0    0  0.82183205574E+01  0.16332428264E+02 -0.31062350453E+01  0.18545557479E+02  0.51100000000E-03 0. -1.
        -11    1    3    3    0    0  0.99392697866E+01  0.14529655298E+02 -0.93628783501E+01  0.19938993411E+02  0.51100000000E-03 0.  1.
         12    1    3    3    0    0  0.81834113254E+01 -0.62125346941E+01 -0.62850180767E+01  0.12044304067E+02  0.00000000000E+00 0. -1.
</event>
<event>
 7    1  0.5408841E-013  0.5052886E+02  0.7816164E-02  0.1300439E+00
        -11   -1    0    0    0    0  0.00000000000E+00  0.00000000000E+00  0.45593999997E+02  0.45594000000E+02  0.51100000000E-03 0.  1.
         11   -1    0    0    0    0 -0.00000000000E+00 -0.00000000000E+00 -0.45593999997E+02  0.45594000000E+02  0.51100000000E-03 0. -1.
    9900012    2    1    2    0    0 -0.33737648539E+02  0.15215362918E+02  0.16835371621E+02  0.50528856683E+02  0.29999990373E+02 0.  0.
         12    1    1    2    0    0  0.33737648539E+02 -0.15215362918E+02 -0.16835371621E+02  0.40659143317E+02  0.00000000000E+00 0. -1.
         11    1    3    3    0    0 -0.11439780325E+02 -0.54370826886E+01  0.72101747812E+01  0.14574534733E+02  0.51100000000E-03 0. -1.
        -11    1    3    3    0    0 -0.21709816798E+02  0.14691664116E+02  0.12803643076E+02  0.29173522519E+02  0.51100000000E-03 0.  1.
         12    1    3    3    0    0 -0.58805141610E+00  0.59607814910E+01 -0.31784462359E+01  0.67807994311E+01  0.00000000000E+00 0. -1.
</event>
<event>
 7    1  0.5408841E-013  0.5052887E+02  0.7816164E-02  0.1300439E+00
        -11   -1    0    0    0    0  0.00000000000E+00  0.00000000000E+00  0.45593999997E+02  0.45594000000E+02  0.51100000000E-03 0. -1.
         11   -1    0    0    0    0 -0.00000000000E+00 -0.00000000000E+00 -0.45593999997E+02  0.45594000000E+02  0.51100000000E-03 0.  1.
    9900012    2    1    2    0    0  0.38987729166E+02 -0.12542276190E+01  0.11469484910E+02  0.50528865767E+02  0.30000017987E+02 0.  0.
         12    1    1    2    0    0 -0.38987729166E+02  0.12542276190E+01 -0.11469484910E+02  0.40659134233E+02  0.00000000000E+00 0. -1.
         11    1    3    3    0    0  0.15276468632E+02  0.31181290563E+01  0.99497543933E+01  0.18495697755E+02  0.51100000000E-03 0. -1.
        -11    1    3    3    0    0  0.27182097771E+02 -0.42565173431E+01  0.39486705497E+01  0.27795258202E+02  0.51100000000E-03 0.  1.
         12    1    3    3    0    0 -0.34708372378E+01 -0.11583933223E+00 -0.24289400326E+01  0.42379098108E+01  0.00000000000E+00 0. -1.
</event>
<event>
 7    1  0.5408841E-013  0.5052885E+02  0.7816164E-02  0.1300439E+00
        -11   -1    0    0    0    0  0.00000000000E+00  0.00000000000E+00  0.45593999997E+02  0.45594000000E+02  0.51100000000E-03 0. -1.
         11   -1    0    0    0    0 -0.00000000000E+00 -0.00000000000E+00 -0.45593999997E+02  0.45594000000E+02  0.51100000000E-03 0.  1.
    9900012    2    1    2    0    0  0.57235756942E+00  0.64681884555E+00 -0.40649977370E+02  0.50528848165E+02  0.29999964482E+02 0.  0.
         12    1    1    2    0    0 -0.57235756942E+00 -0.64681884555E+00  0.40649977370E+02  0.40659151835E+02  0.00000000000E+00 0. -1.
         11    1    3    3    0    0 -0.27067631003E+01  0.28393147718E+01 -0.36480496298E+02  0.36690801099E+02  0.51100000000E-03 0.  1.
        -11    1    3    3    0    0 -0.35869653025E+01 -0.18461387960E+01 -0.55148058013E+01  0.68328348306E+01  0.51100000000E-03 0. -1.
         12    1    3    3    0    0  0.68660859722E+01 -0.34635713016E+00  0.13453247296E+01  0.70052122357E+01  0.00000000000E+00 0. -1.
</event>
<event>
 7    1  0.5408841E-013  0.5052888E+02  0.7816164E-02  0.1300439E+00
        -11   -1    0    0    0    0  0.00000000000E+00  0.00000000000E+00  0.45593999997E+02  0.45594000000E+02  0.51100000000E-03 0.  1.
         11   -1    0    0    0    0 -0.00000000000E+00 -0.00000000000E+00 -0.45593999997E+02  0.45594000000E+02  0.51100000000E-03 0. -1.
    9900012    2    1    2    0    0  0.29243657229E+02 -0.23384764154E+02  0.15846946478E+02  0.50528875620E+02  0.30000047935E+02 0.  0.
         12    1    1    2    0    0 -0.29243657229E+02  0.23384764154E+02 -0.15846946478E+02  0.40659124380E+02  0.00000000000E+00 0. -1.
         11    1    3    3    0    0  0.25072016248E+02 -0.20660777164E+02  0.34986428086E+01  0.32675896522E+02  0.51100000000E-03 0. -1.
        -11    1    3    3    0    0  0.42902364164E+01 -0.64781871343E+01  0.11694460267E+02  0.14040421584E+02  0.51100000000E-03 0.  1.
         12    1    3    3    0    0 -0.11859543508E+00  0.37542001447E+01  0.65384340209E+00  0.38125575140E+01  0.00000000000E+00 0. -1.
</event>
<event>
 7    1  0.5408841E-013  0.5052887E+02  0.7816164E-02  0.1300439E+00
        -11   -1    0    0    0    0  0.00000000000E+00  0.00000000000E+00  0.45593999997E+02  0.45594000000E+02  0.51100000000E-03 0. -1.
         11   -1    0    0    0    0 -0.00000000000E+00 -0.00000000000E+00 -0.45593999997E+02  0.45594000000E+02  0.51100000000E-03 0.  1.
    9900012    2    1    2    0    0 -0.21722031514E+02  0.22850665210E+01 -0.34294266786E+02  0.50528869211E+02  0.30000028453E+02 0.  0.
         12    1    1    2    0    0  0.21722031514E+02 -0.22850665210E+01  0.34294266786E+02  0.40659130789E+02  0.00000000000E+00 0. -1.
         11    1    3    3    0    0 -0.52520474134E+00 -0.38293286003E+00  0.31450580226E+01  0.32115211072E+01  0.51100000000E-03 0. -1.
        -11    1    3    3    0    0 -0.21637003311E+01 -0.49539719928E+01 -0.98764246187E+00  0.54953503548E+01  0.51100000000E-03 0.  1.
         12    1    3    3    0    0 -0.19033126442E+02  0.76219713739E+01 -0.36451682347E+02  0.41821997749E+02  0.00000000000E+00 0. -1.
</event>
<event>
 7    1  0.5408841E-013  0.5052886E+02  0.7816164E-02  0.1300439E+00
        -11   -1    0    0    0    0  0.00000000000E+00  0.00000000000E+00  0.45593999997E+02  0.45594000000E+02  0.51100000000E-03 0.  1.
         11   -1    0    0    0    0 -0.00000000000E+00 -0.00000000000E+00 -0.45593999997E+02  0.45594000000E+02  0.51100000000E-03 0. -1.
    9900012    2    1    2    0    0  0.12214014565E+02  0.32681423516E+02  0.20878406703E+02  0.50528862511E+02  0.30000008090E+02 0.  0.
         12    1    1    2    0    0 -0.12214014565E+02 -0.32681423516E+02 -0.20878406703E+02  0.40659137489E+02  0.00000000000E+00 0. -1.
         11    1    3    3    0    0 -0.25790400334E+01  0.39827697985E+00  0.36894087567E-01  0.26098723113E+01  0.51100000000E-03 0. -1.
        -11    1    3    3    0    0 -0.28112990696E+01  0.83498796190E+01  0.15359424539E+02  0.17706942552E+02  0.51100000000E-03 0.  1.
         12    1    3    3    0    0  0.17604353668E+02  0.23933266917E+02  0.54820880768E+01  0.30212047648E+02  0.00000000000E+00 0. -1.
</event>
<event>
 7    1  0.5408841E-013  0.5052886E+02  0.7816164E-02  0.1300439E+00
        -11   -1    0    0    0    0  0.00000000000E+00  0.00000000000E+00  0.45593999997E+02  0.45594000000E+02  0.51100000000E-03 0.  1.
         11   -1    0    0    0    0 -0.00000000000E+00 -0.00000000000E+00 -0.45593999997E+02  0.45594000000E+02  0.51100000000E-03 0. -1.
    9900012    2    1    2    0    0 -0.13819960795E+02 -0.10807976507E+02  0.36679179536E+02  0.50528857314E+02  0.29999992290E+02 0.  0.
         12    1    1    2    0    0  0.13819960795E+02  0.10807976507E+02 -0.36679179536E+02  0.40659142686E+02  0.00000000000E+00 0. -1.
         11    1    3    3    0    0  0.23871519243E+01  0.10386808972E+01  0.15938839253E+01  0.30525102038E+01  0.51100000000E-03 0. -1.
        -11    1    3    3    0    0  0.41204412399E+01 -0.50082187891E+01  0.20597806233E+02  0.21594673263E+02  0.51100000000E-03 0.  1.
        -12    1    3    3    0    0 -0.20327553959E+02 -0.68384386149E+01  0.14487489378E+02  0.25881673847E+02  0.00000000000E+00 0.  1.
</event>
<event>
 7    1  0.5408841E-013  0.5052886E+02  0.7816164E-02  0.1300439E+00
        -11   -1    0    0    0    0  0.00000000000E+00  0.00000000000E+00  0.45593999997E+02  0.45594000000E+02  0.51100000000E-03 0.  1.
         11   -1    0    0    0    0 -0.00000000000E+00 -0.00000000000E+00 -0.45593999997E+02  0.45594000000E+02  0.51100000000E-03 0. -1.
    9900012    2    1    2    0    0 -0.33971130708E+02 -0.82080729367E+01  0.20778734598E+02  0.50528855956E+02  0.29999988164E+02 0.  0.
         12    1    1    2    0    0  0.33971130708E+02  0.82080729367E+01 -0.20778734598E+02  0.40659144044E+02  0.00000000000E+00 0. -1.
         11    1    3    3    0    0 -0.17009613430E+02 -0.36367698450E+01  0.35938805037E+01  0.17761447612E+02  0.51100000000E-03 0. -1.
        -11    1    3    3    0    0 -0.20411880027E+02 -0.71236414470E+01  0.87875671962E+01  0.23336933200E+02  0.51100000000E-03 0.  1.
        -12    1    3    3    0    0  0.34503627493E+01  0.25523383553E+01  0.83972868980E+01  0.94304751434E+01  0.00000000000E+00 0.  1.
</event>
<event>
 7    1  0.5408841E-013  0.5052882E+02  0.7816164E-02  0.1300439E+00
        -11   -1    0    0    0    0  0.00000000000E+00  0.00000000000E+00  0.45593999997E+02  0.45594000000E+02  0.51100000000E-03 0.  1.
         11   -1    0    0    0    0 -0.00000000000E+00 -0.00000000000E+00 -0.45593999997E+02  0.45594000000E+02  0.51100000000E-03 0. -1.
    9900012    2    1    2    0    0 -0.22360683066E+02  0.20803972079E+02  0.26839590323E+02  0.50528818871E+02  0.29999875439E+02 0.  0.
         12    1    1    2    0    0  0.22360683066E+02 -0.20803972079E+02 -0.26839590323E+02  0.40659181129E+02  0.00000000000E+00 0. -1.
         11    1    3    3    0    0 -0.41356101973E+01  0.90259440721E+00  0.54550357550E+01  0.69047348767E+01  0.51100000000E-03 0. -1.
        -11    1    3    3    0    0 -0.22753526225E+02  0.22600383623E+02  0.21008925348E+02  0.38338951996E+02  0.51100000000E-03 0.  1.
         12    1    3    3    0    0  0.45284533566E+01 -0.26990059514E+01  0.37562921914E+00  0.52851319982E+01  0.00000000000E+00 0. -1.
</event>
<event>
 7    1  0.5408841E-013  0.5052884E+02  0.7816164E-02  0.1300439E+00
        -11   -1    0    0    0    0  0.00000000000E+00  0.00000000000E+00  0.45593999997E+02  0.45594000000E+02  0.51100000000E-03 0.  1.
         11   -1    0    0    0    0 -0.00000000000E+00 -0.00000000000E+00 -0.45593999997E+02  0.45594000000E+02  0.51100000000E-03 0. -1.
    9900012    2    1    2    0    0 -0.12939441754E+02  0.38305282141E+02  0.42945464646E+01  0.50528844547E+02  0.29999953485E+02 0.  0.
         12    1    1    2    0    0  0.12939441754E+02 -0.38305282141E+02 -0.42945464646E+01  0.40659155453E+02  0.00000000000E+00 0. -1.
         11    1    3    3    0    0  0.72177616006E+01  0.14490109035E+02  0.72037066774E+00  0.16204267232E+02  0.51100000000E-03 0. -1.
        -11    1    3    3    0    0 -0.53122503701E+01  0.21548005027E+01 -0.40054813294E+01  0.69933575729E+01  0.51100000000E-03 0.  1.
        -12    1    3    3    0    0 -0.14844952985E+02  0.21660372603E+02  0.75796571262E+01  0.27331219742E+02  0.00000000000E+00 0.  1.
</event>
<event>
 7    1  0.5408841E-013  0.5052886E+02  0.7816164E-02  0.1300439E+00
        -11   -1    0    0    0    0  0.00000000000E+00  0.00000000000E+00  0.45593999997E+02  0.45594000000E+02  0.51100000000E-03 0.  1.
         11   -1    0    0    0    0 -0.00000000000E+00 -0.00000000000E+00 -0.45593999997E+02  0.45594000000E+02  0.51100000000E-03 0. -1.
    9900012    2    1    2    0    0  0.99808157304E+01 -0.37518364789E+02  0.12079800863E+02  0.50528856281E+02  0.29999989150E+02 0.  0.
         12    1    1    2    0    0 -0.99808157304E+01  0.37518364789E+02 -0.12079800863E+02  0.40659143719E+02  0.00000000000E+00 0. -1.
         11    1    3    3    0    0 -0.83915843856E+01 -0.91782518001E+01  0.36435797185E+01  0.12958960916E+02  0.51100000000E-03 0. -1.
        -11    1    3    3    0    0  0.20752478314E+00 -0.12445735838E+02  0.35434351646E+01  0.12941999077E+02  0.51100000000E-03 0.  1.
        -12    1    3    3    0    0  0.18164875333E+02 -0.15894377152E+02  0.48927859801E+01  0.24627896287E+02  0.00000000000E+00 0.  1.
</event>
<event>
 7    1  0.5408841E-013  0.5052886E+02  0.7816164E-02  0.1300439E+00
        -11   -1    0    0    0    0  0.00000000000E+00  0.00000000000E+00  0.45593999997E+02  0.45594000000E+02  0.51100000000E-03 0.  1.
         11   -1    0    0    0    0 -0.00000000000E+00 -0.00000000000E+00 -0.45593999997E+02  0.45594000000E+02  0.51100000000E-03 0. -1.
    9900012    2    1    2    0    0  0.38280685954E+02 -0.12387204042E+02  0.58576097805E+01  0.50528864084E+02  0.30000012868E+02 0.  0.
         12    1    1    2    0    0 -0.38280685954E+02  0.12387204042E+02 -0.58576097805E+01  0.40659135916E+02  0.00000000000E+00 0. -1.
         11    1    3    3    0    0  0.19027480764E+02 -0.13836012749E+01 -0.82963896810E+01  0.20803592447E+02  0.51100000000E-03 0. -1.
        -11    1    3    3    0    0  0.83065908950E+01 -0.99061916223E+01  0.15899972810E+01  0.13025366650E+02  0.51100000000E-03 0.  1.
        -12    1    3    3    0    0  0.10946614295E+02 -0.10974111452E+01  0.12564002181E+02  0.16699904986E+02  0.00000000000E+00 0.  1.
</event>
<event>
 7    1  0.5408841E-013  0.5052884E+02  0.7816164E-02  0.1300439E+00
        -11   -1    0    0    0    0  0.00000000000E+00  0.00000000000E+00  0.45593999997E+02  0.45594000000E+02  0.51100000000E-03 0. -1.
         11   -1    0    0    0    0 -0.00000000000E+00 -0.00000000000E+00 -0.45593999997E+02  0.45594000000E+02  0.51100000000E-03 0.  1.
    9900012    2    1    2    0    0 -0.19966404658E+02  0.24148971720E+02 -0.25910179921E+02  0.50528836535E+02  0.29999929132E+02 0.  0.
         12    1    1    2    0    0  0.19966404658E+02 -0.24148971720E+02  0.25910179921E+02  0.40659163465E+02  0.00000000000E+00 0. -1.
         11    1    3    3    0    0 -0.22292331699E+01 -0.55025410615E+01 -0.30168620402E+01  0.66594966393E+01  0.51100000000E-03 0. -1.
        -11    1    3    3    0    0 -0.58681576727E+01  0.43246074600E+00 -0.36686704227E+01  0.69340781435E+01  0.51100000000E-03 0.  1.
        -12    1    3    3    0    0 -0.11869013815E+02  0.29219052036E+02 -0.19224647458E+02  0.36935261752E+02  0.00000000000E+00 0.  1.
</event>
<event>
 7    1  0.5408841E-013  0.5052886E+02  0.7816164E-02  0.1300439E+00
        -11   -1    0    0    0    0  0.00000000000E+00  0.00000000000E+00  0.45593999997E+02  0.45594000000E+02  0.51100000000E-03 0.  1.
         11   -1    0    0    0    0 -0.00000000000E+00 -0.00000000000E+00 -0.45593999997E+02  0.45594000000E+02  0.51100000000E-03 0. -1.
    9900012    2    1    2    0    0  0.14649623504E+02  0.37919224052E+02  0.82869557441E+00  0.50528858865E+02  0.29999997005E+02 0.  0.
         12    1    1    2    0    0 -0.14649623504E+02 -0.37919224052E+02 -0.82869557441E+00  0.40659141135E+02  0.00000000000E+00 0. -1.
         11    1    3    3    0    0  0.95460647336E+01  0.91874621782E-01  0.49204836453E+01  0.10739969851E+02  0.51100000000E-03 0. -1.
        -11    1    3    3    0    0  0.27840048421E+01  0.33183922149E+01 -0.28396924535E+01  0.51794076249E+01  0.51100000000E-03 0.  1.
        -12    1    3    3    0    0  0.23195539280E+01  0.34508957215E+02 -0.12520956174E+01  0.34609481388E+02  0.00000000000E+00 0.  1.
</event>
<event>
 7    1  0.5408841E-013  0.5052883E+02  0.7816164E-02  0.1300439E+00
        -11   -1    0    0    0    0  0.00000000000E+00  0.00000000000E+00  0.45593999997E+02  0.45594000000E+02  0.51100000000E-03 0. -1.
         11   -1    0    0    0    0 -0.00000000000E+00 -0.00000000000E+00 -0.45593999997E+02  0.45594000000E+02  0.51100000000E-03 0.  1.
    9900012    2    1    2    0    0 -0.34843735152E+02  0.20939086234E+02 -0.79794431983E+00  0.50528832192E+02  0.29999915931E+02 0.  0.
         12    1    1    2    0    0  0.34843735152E+02 -0.20939086234E+02  0.79794431983E+00  0.40659167808E+02  0.00000000000E+00 0. -1.
         11    1    3    3    0    0 -0.42989765278E+00  0.23758192697E+01  0.21146564617E+01  0.32095328953E+01  0.51100000000E-03 0.  1.
        -11    1    3    3    0    0 -0.20260767414E+02  0.51557999838E+01  0.10754563713E+02  0.23510457473E+02  0.51100000000E-03 0. -1.
        -12    1    3    3    0    0 -0.14153070086E+02  0.13407466980E+02 -0.13667164494E+02  0.23808841824E+02  0.00000000000E+00 0.  1.
</event>
<event>
 7    1  0.5408841E-013  0.5052885E+02  0.7816164E-02  0.1300439E+00
        -11   -1    0    0    0    0  0.00000000000E+00  0.00000000000E+00  0.45593999997E+02  0.45594000000E+02  0.51100000000E-03 0.  1.
         11   -1    0    0    0    0 -0.00000000000E+00 -0.00000000000E+00 -0.45593999997E+02  0.45594000000E+02  0.51100000000E-03 0. -1.
    9900012    2    1    2    0    0 -0.23674928922E+02 -0.27304168139E+02  0.18631866041E+02  0.50528852328E+02  0.29999977138E+02 0.  0.
         12    1    1    2    0    0  0.23674928922E+02  0.27304168139E+02 -0.18631866041E+02  0.40659147672E+02  0.00000000000E+00 0. -1.
         11    1    3    3    0    0  0.29063058308E+01 -0.28909388838E+01 -0.17412726454E+01  0.44537817524E+01  0.51100000000E-03 0. -1.
        -11    1    3    3    0    0  0.32325262247E+01 -0.38696254232E+01  0.34460896684E+01  0.61072711560E+01  0.51100000000E-03 0.  1.
        -12    1    3    3    0    0 -0.29813760978E+02 -0.20543603832E+02  0.16927049018E+02  0.39967799420E+02  0.00000000000E+00 0.  1.
</event>
<event>
 7    1  0.5408841E-013  0.5052886E+02  0.7816164E-02  0.1300439E+00
        -11   -1    0    0    0    0  0.00000000000E+00  0.00000000000E+00  0.45593999997E+02  0.45594000000E+02  0.51100000000E-03 0. -1.
         11   -1    0    0    0    0 -0.00000000000E+00 -0.00000000000E+00 -0.45593999997E+02  0.45594000000E+02  0.51100000000E-03 0.  1.
    9900012    2    1    2    0    0 -0.13201171607E+02 -0.29919446825E+02 -0.24160320089E+02  0.50528864533E+02  0.30000014235E+02 0.  0.
         12    1    1    2    0    0  0.13201171607E+02  0.29919446825E+02  0.24160320089E+02  0.40659135467E+02  0.00000000000E+00 0. -1.
         11    1    3    3    0    0  0.77922418507E+01 -0.91588984031E+01 -0.69589990433E+00  0.12045278326E+02  0.51100000000E-03 0. -1.
        -11    1    3    3    0    0 -0.19224568061E+01 -0.18448359247E+01  0.21819999887E+00  0.26733632864E+01  0.51100000000E-03 0.  1.
        -12    1    3    3    0    0 -0.19070956652E+02 -0.18915712497E+02 -0.23682620184E+02  0.35810222921E+02  0.00000000000E+00 0.  1.
</event>
<event>
 7    1  0.5408841E-013  0.5052886E+02  0.7816164E-02  0.1300439E+00
        -11   -1    0    0    0    0  0.00000000000E+00  0.00000000000E+00  0.45593999997E+02  0.45594000000E+02  0.51100000000E-03 0. -1.
         11   -1    0    0    0    0 -0.00000000000E+00 -0.00000000000E+00 -0.45593999997E+02  0.45594000000E+02  0.51100000000E-03 0.  1.
    9900012    2    1    2    0    0 -0.20709674897E+02  0.34772117435E+02  0.38954434996E+01  0.50528864921E+02  0.30000015415E+02 0.  0.
         12    1    1    2    0    0  0.20709674897E+02 -0.34772117435E+02 -0.38954434996E+01  0.40659135079E+02  0.00000000000E+00 0. -1.
         11    1    3    3    0    0  0.52370352486E+00  0.15273981670E+02  0.52246336660E+01  0.16151333649E+02  0.51100000000E-03 0. -1.
        -11    1    3    3    0    0 -0.12132268138E+02  0.67353240119E+01  0.81167570277E+01  0.16076015198E+02  0.51100000000E-03 0.  1.
        -12    1    3    3    0    0 -0.91011102835E+01  0.12762811754E+02 -0.94459471940E+01  0.18301516075E+02  0.00000000000E+00 0.  1.
</event>
<event>
 7    1  0.5408841E-013  0.5052886E+02  0.7816164E-02  0.1300439E+00
        -11   -1    0    0    0    0  0.00000000000E+00  0.00000000000E+00  0.45593999997E+02  0.45594000000E+02  0.51100000000E-03 0.  1.
         11   -1    0    0    0    0 -0.00000000000E+00 -0.00000000000E+00 -0.45593999997E+02  0.45594000000E+02  0.51100000000E-03 0. -1.
    9900012    2    1    2    0    0  0.12160803694E+02 -0.12998125397E+02  0.36555834853E+02  0.50528862379E+02  0.30000007687E+02 0.  0.
         12    1    1    2    0    0 -0.12160803694E+02  0.12998125397E+02 -0.36555834853E+02  0.40659137621E+02  0.00000000000E+00 0. -1.
         11    1    3    3    0    0 -0.53174263864E+01 -0.40964642295E+01  0.12830030543E+01  0.68338963745E+01  0.51100000000E-03 0. -1.
        -11    1    3    3    0    0  0.73027373292E+01 -0.23941159558E+00  0.16173122097E+01  0.74835145123E+01  0.51100000000E-03 0.  1.
        -12    1    3    3    0    0  0.10175492751E+02 -0.86622495722E+01  0.33655519589E+02  0.36211451492E+02  0.00000000000E+00 0.  1.
</event>
<event>
 7    1  0.5408841E-013  0.5052886E+02  0.7816164E-02  0.1300439E+00
        -11   -1    0    0    0    0  0.00000000000E+00  0.00000000000E+00  0.45593999997E+02  0.45594000000E+02  0.51100000000E-03 0. -1.
         11   -1    0    0    0    0 -0.00000000000E+00 -0.00000000000E+00 -0.45593999997E+02  0.45594000000E+02  0.51100000000E-03 0.  1.
    9900012    2    1    2    0    0 -0.30396637683E+02 -0.15261286118E+02 -0.22277867697E+02  0.50528858033E+02  0.29999994477E+02 0.  0.
         12    1    1    2    0    0  0.30396637683E+02  0.15261286118E+02  0.22277867697E+02  0.40659141967E+02  0.00000000000E+00 0. -1.
         11    1    3    3    0    0 -0.33025775768E+01 -0.92527652918E+01 -0.19897610009E+01  0.10023962954E+02  0.51100000000E-03 0.  1.
        -11    1    3    3    0    0  0.27719119493E+01  0.11268500176E+01  0.98410939379E+00  0.31498822799E+01  0.51100000000E-03 0. -1.
        -12    1    3    3    0    0 -0.29865972055E+02 -0.71353708438E+01 -0.21272216090E+02  0.37355012799E+02  0.00000000000E+00 0.  1.
</event>
<event>
 7    1  0.5408841E-013  0.5052888E+02  0.7816164E-02  0.1300439E+00
        -11   -1    0    0    0    0  0.00000000000E+00  0.00000000000E+00  0.45593999997E+02  0.45594000000E+02  0.51100000000E-03 0.  1.
         11   -1    0    0    0    0 -0.00000000000E+00 -0.00000000000E+00 -0.45593999997E+02  0.45594000000E+02  0.51100000000E-03 0. -1.
    9900012    2    1    2    0    0  0.13140275722E+02 -0.36057768665E+02  0.13428868253E+02  0.50528880116E+02  0.30000061601E+02 0.  0.
         12    1    1    2    0    0 -0.13140275722E+02  0.36057768665E+02 -0.13428868253E+02  0.40659119884E+02  0.00000000000E+00 0. -1.
         11    1    3    3    0    0  0.44760920444E+01  0.33655470455E+01  0.57448290091E+01  0.80228029709E+01  0.51100000000E-03 0. -1.
        -11    1    3    3    0    0  0.73602605849E+01 -0.24222443926E+02 -0.23395411206E+00  0.25317088308E+02  0.51100000000E-03 0.  1.
         12    1    3    3    0    0  0.13039230924E+01 -0.15200871785E+02  0.79179933560E+01  0.17188988837E+02  0.00000000000E+00 0. -1.
</event>
<event>
 7    1  0.5408841E-013  0.5052891E+02  0.7816164E-02  0.1300439E+00
        -11   -1    0    0    0    0  0.00000000000E+00  0.00000000000E+00  0.45593999997E+02  0.45594000000E+02  0.51100000000E-03 0. -1.
         11   -1    0    0    0    0 -0.00000000000E+00 -0.00000000000E+00 -0.45593999997E+02  0.45594000000E+02  0.51100000000E-03 0.  1.
    9900012    2    1    2    0    0  0.31585821741E+02 -0.23395005121E+02 -0.10400555508E+02  0.50528905635E+02  0.30000139169E+02 0.  0.
         12    1    1    2    0    0 -0.31585821741E+02  0.23395005121E+02  0.10400555508E+02  0.40659094365E+02  0.00000000000E+00 0. -1.
         11    1    3    3    0    0  0.18488620925E+02 -0.76553080211E+01  0.39046027187E+01  0.20388201668E+02  0.51100000000E-03 0. -1.
        -11    1    3    3    0    0  0.10619721184E+02 -0.19008513787E+02 -0.93189236665E+01  0.23684265092E+02  0.51100000000E-03 0.  1.
        -12    1    3    3    0    0  0.24774796320E+01  0.32688166862E+01 -0.49862345602E+01  0.64564388748E+01  0.00000000000E+00 0.  1.
</event>
<event>
 7    1  0.5408841E-013  0.5052886E+02  0.7816164E-02  0.1300439E+00
        -11   -1    0    0    0    0  0.00000000000E+00  0.00000000000E+00  0.45593999997E+02  0.45594000000E+02  0.51100000000E-03 0.  1.
         11   -1    0    0    0    0 -0.00000000000E+00 -0.00000000000E+00 -0.45593999997E+02  0.45594000000E+02  0.51100000000E-03 0. -1.
    9900012    2    1    2    0    0 -0.19554452269E+02  0.35602486193E+02 -0.18033895987E+01  0.50528857846E+02  0.29999993908E+02 0.  0.
         12    1    1    2    0    0  0.19554452269E+02 -0.35602486193E+02  0.18033895987E+01  0.40659142154E+02  0.00000000000E+00 0. -1.
         11    1    3    3    0    0 -0.31339549500E+01  0.12300166917E+02 -0.33791733503E+01  0.13135242389E+02  0.51100000000E-03 0. -1.
        -11    1    3    3    0    0 -0.19981061576E+02  0.23441218535E+02 -0.37045168826E+01  0.31023490998E+02  0.51100000000E-03 0.  1.
         12    1    3    3    0    0  0.35605642572E+01 -0.13889925941E+00  0.52803006342E+01  0.63701244589E+01  0.00000000000E+00 0. -1.
</event>
<event>
 7    1  0.5408841E-013  0.5052886E+02  0.7816164E-02  0.1300439E+00
        -11   -1    0    0    0    0  0.00000000000E+00  0.00000000000E+00  0.45593999997E+02  0.45594000000E+02  0.51100000000E-03 0.  1.
         11   -1    0    0    0    0 -0.00000000000E+00 -0.00000000000E+00 -0.45593999997E+02  0.45594000000E+02  0.51100000000E-03 0. -1.
    9900012    2    1    2    0    0  0.12981187441E+02 -0.33293864880E+02  0.19395187650E+02  0.50528856256E+02  0.29999989075E+02 0.  0.
         12    1    1    2    0    0 -0.12981187441E+02  0.33293864880E+02 -0.19395187650E+02  0.40659143744E+02  0.00000000000E+00 0. -1.
         11    1    3    3    0    0  0.84273101229E+00 -0.22494152813E+01  0.16843776626E+01  0.29338018062E+01  0.51100000000E-03 0. -1.
        -11    1    3    3    0    0  0.51634287932E+01 -0.31715715529E+02  0.22394076928E+02  0.39166851930E+02  0.51100000000E-03 0.  1.
         12    1    3    3    0    0  0.69750276354E+01  0.67126592979E+00 -0.46832669410E+01  0.84282025192E+01  0.00000000000E+00 0. -1.
</event>
<event>
 7    1  0.5408841E-013  0.5052886E+02  0.7816164E-02  0.1300439E+00
        -11   -1    0    0    0    0  0.00000000000E+00  0.00000000000E+00  0.45593999997E+02  0.45594000000E+02  0.51100000000E-03 0.  1.
         11   -1    0    0    0    0 -0.00000000000E+00 -0.00000000000E+00 -0.45593999997E+02  0.45594000000E+02  0.51100000000E-03 0. -1.
    9900012    2    1    2    0    0  0.11267719617E+02  0.23357150189E+02  0.31315297501E+02  0.50528858003E+02  0.29999994386E+02 0.  0.
         12    1    1    2    0    0 -0.11267719617E+02 -0.23357150189E+02 -0.31315297501E+02  0.40659141997E+02  0.00000000000E+00 0. -1.
         11    1    3    3    0    0  0.94789021329E+01  0.91135208786E+01  0.53490230062E+01  0.14195699906E+02  0.51100000000E-03 0. -1.
        -11    1    3    3    0    0  0.25915173928E+01  0.17120822179E+02  0.98070491701E+01  0.19900169049E+02  0.51100000000E-03 0.  1.
        -12    1    3    3    0    0 -0.80269990833E+00 -0.28771928683E+01  0.16159225325E+02  0.16432989048E+02  0.00000000000E+00 0.  1.
</event>
<event>
 7    1  0.5408841E-013  0.5052886E+02  0.7816164E-02  0.1300439E+00
        -11   -1    0    0    0    0  0.00000000000E+00  0.00000000000E+00  0.45593999997E+02  0.45594000000E+02  0.51100000000E-03 0.  1.
         11   -1    0    0    0    0 -0.00000000000E+00 -0.00000000000E+00 -0.45593999997E+02  0.45594000000E+02  0.51100000000E-03 0. -1.
    9900012    2    1    2    0    0 -0.29949073037E+02 -0.14464537590E+02  0.23387937948E+02  0.50528862467E+02  0.30000007955E+02 0.  0.
         12    1    1    2    0    0  0.29949073037E+02  0.14464537590E+02 -0.23387937948E+02  0.40659137533E+02  0.00000000000E+00 0. -1.
         11    1    3    3    0    0  0.70659060763E+00 -0.76358982239E+01  0.49830616380E+01  0.91453329913E+01  0.51100000000E-03 0. -1.
        -11    1    3    3    0    0 -0.44680650869E+01  0.52460642964E+01  0.83891007215E+01  0.10856417798E+02  0.51100000000E-03 0.  1.
        -12    1    3    3    0    0 -0.26187598558E+02 -0.12074703662E+02  0.10015775589E+02  0.30527111678E+02  0.00000000000E+00 0.  1.
</event>
<event>
 7    1  0.5408841E-013  0.5052886E+02  0.7816164E-02  0.1300439E+00
        -11   -1    0    0    0    0  0.00000000000E+00  0.00000000000E+00  0.45593999997E+02  0.45594000000E+02  0.51100000000E-03 0.  1.
         11   -1    0    0    0    0 -0.00000000000E+00 -0.00000000000E+00 -0.45593999997E+02  0.45594000000E+02  0.51100000000E-03 0. -1.
    9900012    2    1    2    0    0 -0.36790183358E+02  0.16491309613E+02  0.52616179803E+01  0.50528861937E+02  0.30000006343E+02 0.  0.
         12    1    1    2    0    0  0.36790183358E+02 -0.16491309613E+02 -0.52616179803E+01  0.40659138063E+02  0.00000000000E+00 0. -1.
         11    1    3    3    0    0 -0.16873637343E+02  0.99168321836E+00 -0.95573115834E+01  0.19417653765E+02  0.51100000000E-03 0. -1.
        -11    1    3    3    0    0 -0.40880893469E+01  0.89532635419E+01  0.29601647835E+01  0.10277936484E+02  0.51100000000E-03 0.  1.
        -12    1    3    3    0    0 -0.15828456669E+02  0.65463628524E+01  0.11858764780E+02  0.20833271688E+02  0.00000000000E+00 0.  1.
</event>
<event>
 7    1  0.5408841E-013  0.5052887E+02  0.7816164E-02  0.1300439E+00
        -11   -1    0    0    0    0  0.00000000000E+00  0.00000000000E+00  0.45593999997E+02  0.45594000000E+02  0.51100000000E-03 0. -1.
         11   -1    0    0    0    0 -0.00000000000E+00 -0.00000000000E+00 -0.45593999997E+02  0.45594000000E+02  0.51100000000E-03 0.  1.
    9900012    2    1    2    0    0  0.32173603189E+02 -0.13081746721E+02 -0.21139829341E+02  0.50528865430E+02  0.30000016961E+02 0.  0.
         12    1    1    2    0    0 -0.32173603189E+02  0.13081746721E+02  0.21139829341E+02  0.40659134570E+02  0.00000000000E+00 0. -1.
         11    1    3    3    0    0  0.10366636216E+02 -0.14720947046E+02 -0.10579236930E+02  0.20882856190E+02  0.51100000000E-03 0. -1.
        -11    1    3    3    0    0  0.18518714791E+02  0.21481459700E+01 -0.15118595555E+02  0.24002692774E+02  0.51100000000E-03 0.  1.
         12    1    3    3    0    0  0.32882521817E+01 -0.50894564457E+00  0.45580031429E+01  0.56433164656E+01  0.00000000000E+00 0. -1.
</event>
<event>
 7    1  0.5408841E-013  0.5052886E+02  0.7816164E-02  0.1300439E+00
        -11   -1    0    0    0    0  0.00000000000E+00  0.00000000000E+00  0.45593999997E+02  0.45594000000E+02  0.51100000000E-03 0. -1.
         11   -1    0    0    0    0 -0.00000000000E+00 -0.00000000000E+00 -0.45593999997E+02  0.45594000000E+02  0.51100000000E-03 0.  1.
    9900012    2    1    2    0    0 -0.25698931093E+01  0.66909429475E+00 -0.40572328958E+02  0.50528856934E+02  0.29999991136E+02 0.  0.
         12    1    1    2    0    0  0.25698931093E+01 -0.66909429475E+00  0.40572328958E+02  0.40659143066E+02  0.00000000000E+00 0. -1.
         11    1    3    3    0    0  0.89314711279E+01  0.87492807145E+01 -0.14433753246E+02  0.19095924240E+02  0.51100000000E-03 0.  1.
        -11    1    3    3    0    0  0.10901793311E+00 -0.48047810245E-01  0.91203946555E+00  0.91978788296E+00  0.51100000000E-03 0. -1.
        -12    1    3    3    0    0 -0.11610382170E+02 -0.80321386095E+01 -0.27050615178E+02  0.30513144811E+02  0.00000000000E+00 0.  1.
</event>
<event>
 7    1  0.5408841E-013  0.5052886E+02  0.7816164E-02  0.1300439E+00
        -11   -1    0    0    0    0  0.00000000000E+00  0.00000000000E+00  0.45593999997E+02  0.45594000000E+02  0.51100000000E-03 0. -1.
         11   -1    0    0    0    0 -0.00000000000E+00 -0.00000000000E+00 -0.45593999997E+02  0.45594000000E+02  0.51100000000E-03 0.  1.
    9900012    2    1    2    0    0  0.19262776304E+02 -0.22718253064E+02 -0.27676560814E+02  0.50528860908E+02  0.30000003217E+02 0.  0.
         12    1    1    2    0    0 -0.19262776304E+02  0.22718253064E+02  0.27676560814E+02  0.40659139092E+02  0.00000000000E+00 0. -1.
         11    1    3    3    0    0  0.12080620459E+02 -0.20339323966E+02 -0.23260780077E+02  0.33176699355E+02  0.51100000000E-03 0. -1.
        -11    1    3    3    0    0  0.68424990935E+01  0.40855334231E-01 -0.95020356006E+01  0.11709404076E+02  0.51100000000E-03 0.  1.
         12    1    3    3    0    0  0.33965675055E+00 -0.24197844325E+01  0.50862548633E+01  0.56427574769E+01  0.00000000000E+00 0. -1.
</event>
<event>
 7    1  0.5408841E-013  0.5052881E+02  0.7816164E-02  0.1300439E+00
        -11   -1    0    0    0    0  0.00000000000E+00  0.00000000000E+00  0.45593999997E+02  0.45594000000E+02  0.51100000000E-03 0.  1.
         11   -1    0    0    0    0 -0.00000000000E+00 -0.00000000000E+00 -0.45593999997E+02  0.45594000000E+02  0.51100000000E-03 0. -1.
    9900012    2    1    2    0    0 -0.36130964719E+02 -0.16445484372E+02  0.87903106763E+01  0.50528805104E+02  0.29999833594E+02 0.  0.
         12    1    1    2    0    0  0.36130964719E+02  0.16445484372E+02 -0.87903106763E+01  0.40659194896E+02  0.00000000000E+00 0. -1.
         11    1    3    3    0    0 -0.57907372947E+01 -0.10111164524E+02  0.69344740501E+01  0.13559322146E+02  0.51100000000E-03 0. -1.
        -11    1    3    3    0    0  0.24772720231E+01 -0.18577268275E+00  0.25685654878E+01  0.35733621552E+01  0.51100000000E-03 0.  1.
         12    1    3    3    0    0 -0.32817499448E+02 -0.61485471653E+01 -0.71272886167E+00  0.33396120803E+02  0.00000000000E+00 0. -1.
</event>
<event>
 7    1  0.5408841E-013  0.5052886E+02  0.7816164E-02  0.1300439E+00
        -11   -1    0    0    0    0  0.00000000000E+00  0.00000000000E+00  0.45593999997E+02  0.45594000000E+02  0.51100000000E-03 0. -1.
         11   -1    0    0    0    0 -0.00000000000E+00 -0.00000000000E+00 -0.45593999997E+02  0.45594000000E+02  0.51100000000E-03 0.  1.
    9900012    2    1    2    0    0 -0.32833886945E+02  0.23493141915E+02 -0.48139183285E+01  0.50528860085E+02  0.30000000715E+02 0.  0.
         12    1    1    2    0    0  0.32833886945E+02 -0.23493141915E+02  0.48139183285E+01  0.40659139915E+02  0.00000000000E+00 0. -1.
         11    1    3    3    0    0 -0.45273396612E+01  0.14165383457E+02 -0.26085825900E+01  0.15098330911E+02  0.51100000000E-03 0. -1.
        -11    1    3    3    0    0 -0.10855089079E+02  0.13091999299E+02 -0.40506675199E+01  0.17482600269E+02  0.51100000000E-03 0.  1.
         12    1    3    3    0    0 -0.17451458205E+02 -0.37642408419E+01  0.18453317814E+01  0.17947928905E+02  0.00000000000E+00 0. -1.
</event>
<event>
 7    1  0.5408841E-013  0.5052885E+02  0.7816164E-02  0.1300439E+00
        -11   -1    0    0    0    0  0.00000000000E+00  0.00000000000E+00  0.45593999997E+02  0.45594000000E+02  0.51100000000E-03 0. -1.
         11   -1    0    0    0    0 -0.00000000000E+00 -0.00000000000E+00 -0.45593999997E+02  0.45594000000E+02  0.51100000000E-03 0.  1.
    9900012    2    1    2    0    0  0.22380374984E+02  0.99693207692E+01 -0.32448389132E+02  0.50528849759E+02  0.29999969328E+02 0.  0.
         12    1    1    2    0    0 -0.22380374984E+02 -0.99693207692E+01  0.32448389132E+02  0.40659150241E+02  0.00000000000E+00 0. -1.
         11    1    3    3    0    0  0.92871066240E+01  0.14029590572E+02 -0.51601703791E+01  0.17598497654E+02  0.51100000000E-03 0. -1.
        -11    1    3    3    0    0  0.32531939233E+01 -0.61967061653E+01 -0.54092068191E+01  0.88454483591E+01  0.51100000000E-03 0.  1.
        -12    1    3    3    0    0  0.98400744369E+01  0.21364363619E+01 -0.21879011934E+02  0.24084903746E+02  0.00000000000E+00 0.  1.
</event>
<event>
 7    1  0.5408841E-013  0.5052885E+02  0.7816164E-02  0.1300439E+00
        -11   -1    0    0    0    0  0.00000000000E+00  0.00000000000E+00  0.45593999997E+02  0.45594000000E+02  0.51100000000E-03 0. -1.
         11   -1    0    0    0    0 -0.00000000000E+00 -0.00000000000E+00 -0.45593999997E+02  0.45594000000E+02  0.51100000000E-03 0.  1.
    9900012    2    1    2    0    0  0.29488670519E+02  0.27849655908E+02  0.28250823894E+01  0.50528854489E+02  0.29999983706E+02 0.  0.
         12    1    1    2    0    0 -0.29488670519E+02 -0.27849655908E+02 -0.28250823894E+01  0.40659145511E+02  0.00000000000E+00 0. -1.
         11    1    3    3    0    0  0.85584113474E+00 -0.45010543453E+01  0.35054687647E+01  0.57689050771E+01  0.51100000000E-03 0. -1.
        -11    1    3    3    0    0  0.21282775758E+02  0.15630820824E+02 -0.17545702174E+01  0.26464270640E+02  0.51100000000E-03 0.  1.
        -12    1    3    3    0    0  0.73500536264E+01  0.16719889429E+02  0.10741838422E+01  0.18295678773E+02  0.00000000000E+00 0.  1.
</event>
<event>
 7    1  0.5408841E-013  0.5052886E+02  0.7816164E-02  0.1300439E+00
        -11   -1    0    0    0    0  0.00000000000E+00  0.00000000000E+00  0.45593999997E+02  0.45594000000E+02  0.51100000000E-03 0.  1.
         11   -1    0    0    0    0 -0.00000000000E+00 -0.00000000000E+00 -0.45593999997E+02  0.45594000000E+02  0.51100000000E-03 0. -1.
    9900012    2    1    2    0    0  0.19870369871E+02  0.14006452316E+02  0.32590694449E+02  0.50528859946E+02  0.30000000292E+02 0.  0.
         12    1    1    2    0    0 -0.19870369871E+02 -0.14006452316E+02 -0.32590694449E+02  0.40659140054E+02  0.00000000000E+00 0. -1.
         11    1    3    3    0    0  0.28089573843E+01 -0.39865705378E+01  0.11225433977E+02  0.12239009538E+02  0.51100000000E-03 0. -1.
        -11    1    3    3    0    0  0.29427794281E+01  0.23994918732E+01  0.16186924609E+02  0.16626305680E+02  0.51100000000E-03 0.  1.
         12    1    3    3    0    0  0.14118633058E+02  0.15593530980E+02  0.51783358625E+01  0.21663544728E+02  0.00000000000E+00 0. -1.
</event>
<event>
 7    1  0.5408841E-013  0.5052875E+02  0.7816164E-02  0.1300439E+00
        -11   -1    0    0    0    0  0.00000000000E+00  0.00000000000E+00  0.45593999997E+02  0.45594000000E+02  0.51100000000E-03 0. -1.
         11   -1    0    0    0    0 -0.00000000000E+00 -0.00000000000E+00 -0.45593999997E+02  0.45594000000E+02  0.51100000000E-03 0.  1.
    9900012    2    1    2    0    0  0.63928803862E+01 -0.37688105518E+02 -0.13853230711E+02  0.50528754824E+02  0.29999680761E+02 0.  0.
         12    1    1    2    0    0 -0.63928803862E+01  0.37688105518E+02  0.13853230711E+02  0.40659245176E+02  0.00000000000E+00 0. -1.
         11    1    3    3    0    0 -0.40839498951E+01 -0.97864682350E+01  0.29165045713E+01  0.10998163776E+02  0.51100000000E-03 0. -1.
        -11    1    3    3    0    0  0.20149766345E+01 -0.21278554526E+02 -0.22855045434E+01  0.21495593614E+02  0.51100000000E-03 0.  1.
         12    1    3    3    0    0  0.84618536469E+01 -0.66230827570E+01 -0.14484230739E+02  0.18034997434E+02  0.00000000000E+00 0. -1.
</event>
<event>
 7    1  0.5408841E-013  0.5052887E+02  0.7816164E-02  0.1300439E+00
        -11   -1    0    0    0    0  0.00000000000E+00  0.00000000000E+00  0.45593999997E+02  0.45594000000E+02  0.51100000000E-03 0.  1.
         11   -1    0    0    0    0 -0.00000000000E+00 -0.00000000000E+00 -0.45593999997E+02  0.45594000000E+02  0.51100000000E-03 0. -1.
    9900012    2    1    2    0    0  0.35940101678E+01 -0.62954897844E+01  0.40007687076E+02  0.50528866637E+02  0.30000020628E+02 0.  0.
         12    1    1    2    0    0 -0.35940101678E+01  0.62954897844E+01 -0.40007687076E+02  0.40659133363E+02  0.00000000000E+00 0. -1.
         11    1    3    3    0    0 -0.18162984177E+01  0.14582634033E+01 -0.26191445995E+01  0.35050521808E+01  0.51100000000E-03 0. -1.
        -11    1    3    3    0    0 -0.39792718408E+01  0.33488621458E+01  0.91370079560E+01  0.10513533978E+02  0.51100000000E-03 0.  1.
        -12    1    3    3    0    0  0.93895804263E+01 -0.11102615333E+02  0.33489823719E+02  0.36510280478E+02  0.00000000000E+00 0.  1.
</event>
<event>
 7    1  0.5408841E-013  0.5052886E+02  0.7816164E-02  0.1300439E+00
        -11   -1    0    0    0    0  0.00000000000E+00  0.00000000000E+00  0.45593999997E+02  0.45594000000E+02  0.51100000000E-03 0. -1.
         11   -1    0    0    0    0 -0.00000000000E+00 -0.00000000000E+00 -0.45593999997E+02  0.45594000000E+02  0.51100000000E-03 0.  1.
    9900012    2    1    2    0    0  0.30404921897E+02  0.96522335718E+00 -0.26977304650E+02  0.50528857143E+02  0.29999991771E+02 0.  0.
         12    1    1    2    0    0 -0.30404921897E+02 -0.96522335718E+00  0.26977304650E+02  0.40659142857E+02  0.00000000000E+00 0. -1.
         11    1    3    3    0    0 -0.21474580485E+01 -0.23657275413E+01  0.12387711325E+01  0.34267764809E+01  0.51100000000E-03 0. -1.
        -11    1    3    3    0    0  0.10393526119E+02  0.80793319824E+01 -0.36101632340E+01  0.13650431103E+02  0.51100000000E-03 0.  1.
        -12    1    3    3    0    0  0.22158853827E+02 -0.47483810839E+01 -0.24605912549E+02  0.33451649559E+02  0.00000000000E+00 0.  1.
</event>
<event>
 7    1  0.7688901E-013  0.5052900E+02  0.7816164E-02  0.1300438E+00
        -11   -1    0    0    0    0  0.00000000000E+00  0.00000000000E+00  0.45593999997E+02  0.45594000000E+02  0.51100000000E-03 0. -1.
         11   -1    0    0    0    0 -0.00000000000E+00 -0.00000000000E+00 -0.45593999997E+02  0.45594000000E+02  0.51100000000E-03 0.  1.
    9900012    2    1    2    0    0  0.13165070769E+02  0.30304166950E+02 -0.23695841174E+02  0.50528997161E+02  0.30000417368E+02 0.  0.
         12    1    1    2    0    0 -0.13165070769E+02 -0.30304166950E+02  0.23695841174E+02  0.40659002839E+02  0.00000000000E+00 0. -1.
         11    1    3    3    0    0  0.89619916385E+01  0.13591710030E+02 -0.33676819213E+01  0.16625076164E+02  0.51100000000E-03 0. -1.
        -11    1    3    3    0    0  0.94680049764E+00  0.21351375449E+02 -0.17174508606E+02  0.27417903109E+02  0.51100000000E-03 0.  1.
         12    1    3    3    0    0  0.32562786330E+01 -0.46389185289E+01 -0.31536506460E+01  0.64860178886E+01  0.00000000000E+00 0. -1.
</event>
<event>
 7    1  0.5408841E-013  0.5052886E+02  0.7816164E-02  0.1300439E+00
        -11   -1    0    0    0    0  0.00000000000E+00  0.00000000000E+00  0.45593999997E+02  0.45594000000E+02  0.51100000000E-03 0.  1.
         11   -1    0    0    0    0 -0.00000000000E+00 -0.00000000000E+00 -0.45593999997E+02  0.45594000000E+02  0.51100000000E-03 0. -1.
    9900012    2    1    2    0    0 -0.90021020237E+01 -0.12580775000E+02  0.37601226711E+02  0.50528856002E+02  0.29999988304E+02 0.  0.
         12    1    1    2    0    0  0.90021020237E+01  0.12580775000E+02 -0.37601226711E+02  0.40659143998E+02  0.00000000000E+00 0. -1.
         11    1    3    3    0    0 -0.21572140733E+01 -0.64282972012E+01 -0.16135298356E+01  0.69699394729E+01  0.51100000000E-03 0. -1.
        -11    1    3    3    0    0  0.19794986204E+01 -0.58527929103E+00 -0.79429365711E+00  0.22117570643E+01  0.51100000000E-03 0.  1.
        -12    1    3    3    0    0 -0.88243865707E+01 -0.55671985082E+01  0.40009050204E+02  0.41347159465E+02  0.00000000000E+00 0.  1.
</event>
<event>
 7    1  0.5408841E-013  0.5052874E+02  0.7816164E-02  0.1300439E+00
        -11   -1    0    0    0    0  0.00000000000E+00  0.00000000000E+00  0.45593999997E+02  0.45594000000E+02  0.51100000000E-03 0.  1.
         11   -1    0    0    0    0 -0.00000000000E+00 -0.00000000000E+00 -0.45593999997E+02  0.45594000000E+02  0.51100000000E-03 0. -1.
    9900012    2    1    2    0    0 -0.27230509808E+02 -0.24911317822E+02  0.17061683682E+02  0.50528739430E+02  0.29999633970E+02 0.  0.
         12    1    1    2    0    0  0.27230509808E+02  0.24911317822E+02 -0.17061683682E+02  0.40659260570E+02  0.00000000000E+00 0. -1.
         11    1    3    3    0    0 -0.11255558497E+02 -0.19433640894E+02  0.49013269203E+01  0.22986452560E+02  0.51100000000E-03 0.  1.
        -11    1    3    3    0    0 -0.17472678404E+02 -0.92958421071E+01  0.12529573826E+02  0.23424290632E+02  0.51100000000E-03 0. -1.
         12    1    3    3    0    0  0.14977270930E+01  0.38181651785E+01 -0.36921706467E+00  0.41179962380E+01  0.00000000000E+00 0. -1.
</event>
<event>
 7    1  0.5408841E-013  0.5052886E+02  0.7816164E-02  0.1300439E+00
        -11   -1    0    0    0    0  0.00000000000E+00  0.00000000000E+00  0.45593999997E+02  0.45594000000E+02  0.51100000000E-03 0.  1.
         11   -1    0    0    0    0 -0.00000000000E+00 -0.00000000000E+00 -0.45593999997E+02  0.45594000000E+02  0.51100000000E-03 0. -1.
    9900012    2    1    2    0    0 -0.11831333469E+02 -0.17477354686E+02  0.34752371654E+02  0.50528859403E+02  0.29999998642E+02 0.  0.
         12    1    1    2    0    0  0.11831333469E+02  0.17477354686E+02 -0.34752371654E+02  0.40659140597E+02  0.00000000000E+00 0. -1.
         11    1    3    3    0    0 -0.48245081973E+00 -0.41898967863E+01  0.64157355311E+00  0.42661001815E+01  0.51100000000E-03 0. -1.
        -11    1    3    3    0    0 -0.33851495349E+01  0.27011778254E+01 -0.28690658765E+01  0.51949146560E+01  0.51100000000E-03 0.  1.
        -12    1    3    3    0    0 -0.79637331145E+01 -0.15988635725E+02  0.36979863978E+02  0.41067844566E+02  0.00000000000E+00 0.  1.
</event>
<event>
 7    1  0.5408841E-013  0.5052886E+02  0.7816164E-02  0.1300439E+00
        -11   -1    0    0    0    0  0.00000000000E+00  0.00000000000E+00  0.45593999997E+02  0.45594000000E+02  0.51100000000E-03 0.  1.
         11   -1    0    0    0    0 -0.00000000000E+00 -0.00000000000E+00 -0.45593999997E+02  0.45594000000E+02  0.51100000000E-03 0. -1.
    9900012    2    1    2    0    0 -0.12928805381E+02 -0.15445319154E+02  0.35319306281E+02  0.50528864637E+02  0.30000014550E+02 0.  0.
         12    1    1    2    0    0  0.12928805381E+02  0.15445319154E+02 -0.35319306281E+02  0.40659135363E+02  0.00000000000E+00 0. -1.
         11    1    3    3    0    0 -0.56625091068E+01  0.48573663842E+01  0.70534696793E+01  0.10266910555E+02  0.51100000000E-03 0. -1.
        -11    1    3    3    0    0 -0.46034129722E+01  0.25712538476E+01  0.29611607216E+01  0.60474151852E+01  0.51100000000E-03 0.  1.
        -12    1    3    3    0    0 -0.26628833016E+01 -0.22873939386E+02  0.25304675880E+02  0.34214538896E+02  0.00000000000E+00 0.  1.
</event>
<event>
 7    1  0.5408841E-013  0.5052888E+02  0.7816164E-02  0.1300439E+00
        -11   -1    0    0    0    0  0.00000000000E+00  0.00000000000E+00  0.45593999997E+02  0.45594000000E+02  0.51100000000E-03 0.  1.
         11   -1    0    0    0    0 -0.00000000000E+00 -0.00000000000E+00 -0.45593999997E+02  0.45594000000E+02  0.51100000000E-03 0. -1.
    9900012    2    1    2    0    0  0.38174323791E+02 -0.21865783477E+01  0.13824031995E+02  0.50528880698E+02  0.30000063370E+02 0.  0.
         12    1    1    2    0    0 -0.38174323791E+02  0.21865783477E+01 -0.13824031995E+02  0.40659119302E+02  0.00000000000E+00 0. -1.
         11    1    3    3    0    0  0.10698090274E+02 -0.33206830958E+01 -0.45651372751E+01  0.12096137827E+02  0.51100000000E-03 0. -1.
        -11    1    3    3    0    0  0.59273479747E+01  0.32364408922E+01 -0.35325228786E+01  0.76214645450E+01  0.51100000000E-03 0.  1.
        -12    1    3    3    0    0  0.21548885542E+02 -0.21023361442E+01  0.21921692149E+02  0.30811278326E+02  0.00000000000E+00 0.  1.
</event>
<event>
 7    1  0.5408841E-013  0.5052886E+02  0.7816164E-02  0.1300439E+00
        -11   -1    0    0    0    0  0.00000000000E+00  0.00000000000E+00  0.45593999997E+02  0.45594000000E+02  0.51100000000E-03 0. -1.
         11   -1    0    0    0    0 -0.00000000000E+00 -0.00000000000E+00 -0.45593999997E+02  0.45594000000E+02  0.51100000000E-03 0.  1.
    9900012    2    1    2    0    0  0.39247987559E+02 -0.95849684970E+01  0.45705057619E+01  0.50528859927E+02  0.30000000235E+02 0.  0.
         12    1    1    2    0    0 -0.39247987559E+02  0.95849684970E+01 -0.45705057619E+01  0.40659140073E+02  0.00000000000E+00 0. -1.
         11    1    3    3    0    0 -0.98043620806E+00  0.42106802382E+00 -0.21114941483E+01  0.23657897705E+01  0.51100000000E-03 0. -1.
        -11    1    3    3    0    0  0.12370356594E+02  0.20646229029E+01 -0.75430559566E+01  0.14635097657E+02  0.51100000000E-03 0.  1.
         12    1    3    3    0    0  0.27858067173E+02 -0.12070659424E+02  0.14225055867E+02  0.33527972500E+02  0.00000000000E+00 0. -1.
</event>
<event>
 7    1  0.5408841E-013  0.5052886E+02  0.7816164E-02  0.1300439E+00
        -11   -1    0    0    0    0  0.00000000000E+00  0.00000000000E+00  0.45593999997E+02  0.45594000000E+02  0.51100000000E-03 0. -1.
         11   -1    0    0    0    0 -0.00000000000E+00 -0.00000000000E+00 -0.45593999997E+02  0.45594000000E+02  0.51100000000E-03 0.  1.
    9900012    2    1    2    0    0  0.76878510128E+01  0.16136621419E+02 -0.36519471503E+02  0.50528863230E+02  0.30000010273E+02 0.  0.
         12    1    1    2    0    0 -0.76878510128E+01 -0.16136621419E+02  0.36519471503E+02  0.40659136770E+02  0.00000000000E+00 0. -1.
         11    1    3    3    0    0  0.63422290109E+01  0.93456542851E+01 -0.62781272467E+01  0.12922074324E+02  0.51100000000E-03 0. -1.
        -11    1    3    3    0    0  0.57932576129E+01  0.12940502485E+02 -0.15368868533E+02  0.20909819669E+02  0.51100000000E-03 0.  1.
         12    1    3    3    0    0 -0.44476356109E+01 -0.61495353508E+01 -0.14872475723E+02  0.16696969237E+02  0.00000000000E+00 0. -1.
</event>
<event>
 7    1  0.5408841E-013  0.5052886E+02  0.7816164E-02  0.1300439E+00
        -11   -1    0    0    0    0  0.00000000000E+00  0.00000000000E+00  0.45593999997E+02  0.45594000000E+02  0.51100000000E-03 0.  1.
         11   -1    0    0    0    0 -0.00000000000E+00 -0.00000000000E+00 -0.45593999997E+02  0.45594000000E+02  0.51100000000E-03 0. -1.
    9900012    2    1    2    0    0  0.32109250015E+02  0.24857836608E+02  0.20614728559E+01  0.50528860219E+02  0.30000001123E+02 0.  0.
         12    1    1    2    0    0 -0.32109250015E+02 -0.24857836608E+02 -0.20614728559E+01  0.40659139781E+02  0.00000000000E+00 0. -1.
         11    1    3    3    0    0  0.90493095407E+01  0.35342150694E+01  0.76231418808E+01  0.12348804465E+02  0.51100000000E-03 0. -1.
        -11    1    3    3    0    0  0.19127119753E+02  0.43659487009E+01  0.82829739271E+00  0.19636555068E+02  0.51100000000E-03 0.  1.
         12    1    3    3    0    0  0.39328207215E+01  0.16957672837E+02 -0.63899664175E+01  0.18543500686E+02  0.00000000000E+00 0. -1.
</event>
<event>
 7    1 -0.5408841E-013  0.5052886E+02  0.7816164E-02  0.1300439E+00
        -11   -1    0    0    0    0  0.00000000000E+00  0.00000000000E+00  0.45593999997E+02  0.45594000000E+02  0.51100000000E-03 0. -1.
         11   -1    0    0    0    0 -0.00000000000E+00 -0.00000000000E+00 -0.45593999997E+02  0.45594000000E+02  0.51100000000E-03 0.  1.
    9900012    2    1    2    0    0 -0.97726919703E+01  0.36817744163E+02 -0.14216667080E+02  0.50528863063E+02  0.30000009768E+02 0.  0.
         12    1    1    2    0    0  0.97726919703E+01 -0.36817744163E+02  0.14216667080E+02  0.40659136937E+02  0.00000000000E+00 0. -1.
         11    1    3    3    0    0  0.91742001526E+01  0.77953961471E+01 -0.72956858757E+01  0.14076973474E+02  0.51100000000E-03 0. -1.
        -11    1    3    3    0    0 -0.98274687399E+00  0.14282759942E+01  0.16869147908E+01  0.24189761277E+01  0.51100000000E-03 0.  1.
         12    1    3    3    0    0 -0.17964145249E+02  0.27594072021E+02 -0.86078959948E+01  0.34032913462E+02  0.00000000000E+00 0. -1.
</event>
<event>
 7    1  0.5408841E-013  0.5052886E+02  0.7816164E-02  0.1300439E+00
        -11   -1    0    0    0    0  0.00000000000E+00  0.00000000000E+00  0.45593999997E+02  0.45594000000E+02  0.51100000000E-03 0.  1.
         11   -1    0    0    0    0 -0.00000000000E+00 -0.00000000000E+00 -0.45593999997E+02  0.45594000000E+02  0.51100000000E-03 0. -1.
    9900012    2    1    2    0    0  0.10825110562E+02  0.23109742255E+02  0.31653164476E+02  0.50528855553E+02  0.29999986940E+02 0.  0.
         12    1    1    2    0    0 -0.10825110562E+02 -0.23109742255E+02 -0.31653164476E+02  0.40659144447E+02  0.00000000000E+00 0. -1.
         11    1    3    3    0    0 -0.21945458641E+01 -0.28840675547E+01  0.11060980717E+02  0.11639552049E+02  0.51100000000E-03 0. -1.
        -11    1    3    3    0    0 -0.21569885019E+01  0.55061792752E+01 -0.30750312989E+00  0.59215849267E+01  0.51100000000E-03 0.  1.
        -12    1    3    3    0    0  0.15176644928E+02  0.20487630534E+02  0.20899686889E+02  0.32967718578E+02  0.00000000000E+00 0.  1.
</event>
<event>
 7    1  0.5408841E-013  0.5052886E+02  0.7816164E-02  0.1300439E+00
        -11   -1    0    0    0    0  0.00000000000E+00  0.00000000000E+00  0.45593999997E+02  0.45594000000E+02  0.51100000000E-03 0.  1.
         11   -1    0    0    0    0 -0.00000000000E+00 -0.00000000000E+00 -0.45593999997E+02  0.45594000000E+02  0.51100000000E-03 0. -1.
    9900012    2    1    2    0    0  0.29340309853E+02  0.24180938005E+02  0.14408124870E+02  0.50528860716E+02  0.30000002631E+02 0.  0.
         12    1    1    2    0    0 -0.29340309853E+02 -0.24180938005E+02 -0.14408124870E+02  0.40659139284E+02  0.00000000000E+00 0. -1.
         11    1    3    3    0    0 -0.46645667278E+01  0.89350434841E+00  0.36658249660E+01  0.59995671278E+01  0.51100000000E-03 0. -1.
        -11    1    3    3    0    0  0.10614835408E+01 -0.81872225890E+00 -0.14021246046E+01  0.19398471879E+01  0.51100000000E-03 0.  1.
        -12    1    3    3    0    0  0.32943393040E+02  0.24106155915E+02  0.12144424509E+02  0.42589446400E+02  0.00000000000E+00 0.  1.
</event>
<event>
 7    1  0.5408841E-013  0.5052886E+02  0.7816164E-02  0.1300439E+00
        -11   -1    0    0    0    0  0.00000000000E+00  0.00000000000E+00  0.45593999997E+02  0.45594000000E+02  0.51100000000E-03 0.  1.
         11   -1    0    0    0    0 -0.00000000000E+00 -0.00000000000E+00 -0.45593999997E+02  0.45594000000E+02  0.51100000000E-03 0. -1.
    9900012    2    1    2    0    0  0.16802849987E+02  0.25294160187E+02  0.27037660554E+02  0.50528863321E+02  0.30000010551E+02 0.  0.
         12    1    1    2    0    0 -0.16802849987E+02 -0.25294160187E+02 -0.27037660554E+02  0.40659136679E+02  0.00000000000E+00 0. -1.
         11    1    3    3    0    0  0.23100626632E+02  0.11790664060E+02  0.19711574946E+02  0.32576139993E+02  0.51100000000E-03 0. -1.
        -11    1    3    3    0    0  0.70576629901E+00  0.62766282776E+01  0.31320762968E+01  0.70501114029E+01  0.51100000000E-03 0.  1.
         12    1    3    3    0    0 -0.70035429437E+01  0.72268678502E+01  0.41940093104E+01  0.10902611925E+02  0.00000000000E+00 0. -1.
</event>
<event>
 7    1  0.5408841E-013  0.5052886E+02  0.7816164E-02  0.1300439E+00
        -11   -1    0    0    0    0  0.00000000000E+00  0.00000000000E+00  0.45593999997E+02  0.45594000000E+02  0.51100000000E-03 0. -1.
         11   -1    0    0    0    0 -0.00000000000E+00 -0.00000000000E+00 -0.45593999997E+02  0.45594000000E+02  0.51100000000E-03 0.  1.
    9900012    2    1    2    0    0  0.57281492406E+01 -0.20483441256E+02 -0.34652308828E+02  0.50528861218E+02  0.30000004157E+02 0.  0.
         12    1    1    2    0    0 -0.57281492406E+01  0.20483441256E+02  0.34652308828E+02  0.40659138782E+02  0.00000000000E+00 0. -1.
         11    1    3    3    0    0  0.75692807602E+01 -0.20763270198E+02 -0.12547795640E+02  0.25413669083E+02  0.51100000000E-03 0. -1.
        -11    1    3    3    0    0  0.36720330014E+01 -0.37515006098E+00 -0.18797340012E+01  0.41422172937E+01  0.51100000000E-03 0.  1.
        -12    1    3    3    0    0 -0.55131645210E+01  0.65497900343E+00 -0.20224779187E+02  0.20972974841E+02  0.00000000000E+00 0.  1.
</event>
<event>
 7    1  0.5408841E-013  0.5052886E+02  0.7816164E-02  0.1300439E+00
        -11   -1    0    0    0    0  0.00000000000E+00  0.00000000000E+00  0.45593999997E+02  0.45594000000E+02  0.51100000000E-03 0. -1.
         11   -1    0    0    0    0 -0.00000000000E+00 -0.00000000000E+00 -0.45593999997E+02  0.45594000000E+02  0.51100000000E-03 0.  1.
    9900012    2    1    2    0    0  0.12911941043E+02 -0.27681569849E+02 -0.26836141373E+02  0.50528855707E+02  0.29999987408E+02 0.  0.
         12    1    1    2    0    0 -0.12911941043E+02  0.27681569849E+02  0.26836141373E+02  0.40659144293E+02  0.00000000000E+00 0. -1.
         11    1    3    3    0    0  0.37315541876E+01 -0.10048497566E+02  0.26505042105E+01  0.11041828328E+02  0.51100000000E-03 0. -1.
        -11    1    3    3    0    0  0.84977733815E+01 -0.52128068935E+01 -0.33085568894E+01  0.10503906754E+02  0.51100000000E-03 0.  1.
        -12    1    3    3    0    0  0.68261347433E+00 -0.12420265389E+02 -0.26178088695E+02  0.28983120626E+02  0.00000000000E+00 0.  1.
</event>
<event>
 7    1  0.5408841E-013  0.5052884E+02  0.7816164E-02  0.1300439E+00
        -11   -1    0    0    0    0  0.00000000000E+00  0.00000000000E+00  0.45593999997E+02  0.45594000000E+02  0.51100000000E-03 0. -1.
         11   -1    0    0    0    0 -0.00000000000E+00 -0.00000000000E+00 -0.45593999997E+02  0.45594000000E+02  0.51100000000E-03 0.  1.
    9900012    2    1    2    0    0  0.34975556343E+02  0.17631879276E+02 -0.10908461271E+02  0.50528840692E+02  0.29999941767E+02 0.  0.
         12    1    1    2    0    0 -0.34975556343E+02 -0.17631879276E+02  0.10908461271E+02  0.40659159308E+02  0.00000000000E+00 0. -1.
         11    1    3    3    0    0  0.18829023080E+02  0.76994699452E+01 -0.19718258752E+01  0.20437760276E+02  0.51100000000E-03 0.  1.
        -11    1    3    3    0    0  0.50116653584E+01  0.58129269205E+01  0.68847356498E+01  0.10310504075E+02  0.51100000000E-03 0. -1.
         12    1    3    3    0    0  0.11134867905E+02  0.41194824105E+01 -0.15821371046E+02  0.19780576341E+02  0.00000000000E+00 0. -1.
</event>
<event>
 7    1  0.5408841E-013  0.5052886E+02  0.7816164E-02  0.1300439E+00
        -11   -1    0    0    0    0  0.00000000000E+00  0.00000000000E+00  0.45593999997E+02  0.45594000000E+02  0.51100000000E-03 0. -1.
         11   -1    0    0    0    0 -0.00000000000E+00 -0.00000000000E+00 -0.45593999997E+02  0.45594000000E+02  0.51100000000E-03 0.  1.
    9900012    2    1    2    0    0  0.30560518745E+02  0.77780422344E+01 -0.25665587610E+02  0.50528860383E+02  0.30000001621E+02 0.  0.
         12    1    1    2    0    0 -0.30560518745E+02 -0.77780422344E+01  0.25665587610E+02  0.40659139617E+02  0.00000000000E+00 0. -1.
         11    1    3    3    0    0  0.65834464473E+01  0.10472377707E+02 -0.11755902037E+02  0.17064984469E+02  0.51100000000E-03 0. -1.
        -11    1    3    3    0    0  0.84319379280E+01  0.76087425935E+01 -0.80301995837E+01  0.13909516407E+02  0.51100000000E-03 0.  1.
         12    1    3    3    0    0  0.15545134370E+02 -0.10303078066E+02 -0.58794859899E+01  0.19554359507E+02  0.00000000000E+00 0. -1.
</event>
<event>
 7    1  0.5408841E-013  0.5052886E+02  0.7816164E-02  0.1300439E+00
        -11   -1    0    0    0    0  0.00000000000E+00  0.00000000000E+00  0.45593999997E+02  0.45594000000E+02  0.51100000000E-03 0.  1.
         11   -1    0    0    0    0 -0.00000000000E+00 -0.00000000000E+00 -0.45593999997E+02  0.45594000000E+02  0.51100000000E-03 0. -1.
    9900012    2    1    2    0    0 -0.44125182415E+01  0.19054222313E+02  0.35645924147E+02  0.50528860640E+02  0.30000002402E+02 0.  0.
         12    1    1    2    0    0  0.44125182415E+01 -0.19054222313E+02 -0.35645924147E+02  0.40659139360E+02  0.00000000000E+00 0. -1.
         11    1    3    3    0    0 -0.43077240647E+01  0.56870014549E+01  0.95733499463E+01  0.11939325844E+02  0.51100000000E-03 0. -1.
        -11    1    3    3    0    0 -0.84618889648E+01 -0.38235442669E+01  0.96064504195E+01  0.13360649144E+02  0.51100000000E-03 0.  1.
         12    1    3    3    0    0  0.83570947879E+01  0.17190765125E+02  0.16466123781E+02  0.25228885652E+02  0.00000000000E+00 0. -1.
</event>
<event>
 7    1  0.5408841E-013  0.5052886E+02  0.7816164E-02  0.1300439E+00
        -11   -1    0    0    0    0  0.00000000000E+00  0.00000000000E+00  0.45593999997E+02  0.45594000000E+02  0.51100000000E-03 0. -1.
         11   -1    0    0    0    0 -0.00000000000E+00 -0.00000000000E+00 -0.45593999997E+02  0.45594000000E+02  0.51100000000E-03 0.  1.
    9900012    2    1    2    0    0 -0.39374045373E+02  0.84500290856E+01  0.56077603807E+01  0.50528863055E+02  0.30000009743E+02 0.  0.
         12    1    1    2    0    0  0.39374045373E+02 -0.84500290856E+01 -0.56077603807E+01  0.40659136945E+02  0.00000000000E+00 0. -1.
         11    1    3    3    0    0 -0.10671122239E+02  0.80903345955E+00  0.49609006294E+01  0.11795673796E+02  0.51100000000E-03 0. -1.
        -11    1    3    3    0    0 -0.21652042536E+02  0.10988695379E+02  0.10252046422E+02  0.26356532933E+02  0.51100000000E-03 0.  1.
         12    1    3    3    0    0 -0.70508805979E+01 -0.33476997534E+01 -0.96051866711E+01  0.12376656327E+02  0.00000000000E+00 0. -1.
</event>
<event>
 7    1  0.5408841E-013  0.5052886E+02  0.7816164E-02  0.1300439E+00
        -11   -1    0    0    0    0  0.00000000000E+00  0.00000000000E+00  0.45593999997E+02  0.45594000000E+02  0.51100000000E-03 0.  1.
         11   -1    0    0    0    0 -0.00000000000E+00 -0.00000000000E+00 -0.45593999997E+02  0.45594000000E+02  0.51100000000E-03 0. -1.
    9900012    2    1    2    0    0  0.29157532693E+02 -0.19269222004E+02  0.20777408013E+02  0.50528864334E+02  0.30000013629E+02 0.  0.
         12    1    1    2    0    0 -0.29157532693E+02  0.19269222004E+02 -0.20777408013E+02  0.40659135666E+02  0.00000000000E+00 0. -1.
         11    1    3    3    0    0  0.90507923363E+01 -0.71411295922E+01 -0.42506802223E+00  0.11536605083E+02  0.51100000000E-03 0. -1.
        -11    1    3    3    0    0  0.24626092820E+02 -0.65143363481E+01  0.15673599724E+02  0.29908907606E+02  0.51100000000E-03 0.  1.
         12    1    3    3    0    0 -0.45193524632E+01 -0.56137560637E+01  0.55288763113E+01  0.90833516443E+01  0.00000000000E+00 0. -1.
</event>
<event>
 7    1  0.5408841E-013  0.5052892E+02  0.7816164E-02  0.1300439E+00
        -11   -1    0    0    0    0  0.00000000000E+00  0.00000000000E+00  0.45593999997E+02  0.45594000000E+02  0.51100000000E-03 0.  1.
         11   -1    0    0    0    0 -0.00000000000E+00 -0.00000000000E+00 -0.45593999997E+02  0.45594000000E+02  0.51100000000E-03 0. -1.
    9900012    2    1    2    0    0 -0.68141612008E+01  0.99319594436E+01  0.38834062702E+02  0.50528916916E+02  0.30000173458E+02 0.  0.
         12    1    1    2    0    0  0.68141612008E+01 -0.99319594436E+01 -0.38834062702E+02  0.40659083084E+02  0.00000000000E+00 0. -1.
         11    1    3    3    0    0 -0.54786434967E+01  0.42161518421E+01  0.80706241445E+01  0.10626685526E+02  0.51100000000E-03 0. -1.
        -11    1    3    3    0    0 -0.12829335345E+02  0.46716764672E+01  0.14050702020E+02  0.19591800170E+02  0.51100000000E-03 0.  1.
        -12    1    3    3    0    0  0.11493817640E+02  0.10441311343E+01  0.16712736538E+02  0.20310431220E+02  0.00000000000E+00 0.  1.
</event>
<event>
 7    1  0.5408841E-013  0.5052886E+02  0.7816164E-02  0.1300439E+00
        -11   -1    0    0    0    0  0.00000000000E+00  0.00000000000E+00  0.45593999997E+02  0.45594000000E+02  0.51100000000E-03 0. -1.
         11   -1    0    0    0    0 -0.00000000000E+00 -0.00000000000E+00 -0.45593999997E+02  0.45594000000E+02  0.51100000000E-03 0.  1.
    9900012    2    1    2    0    0  0.40989446386E+01  0.38037473250E+02 -0.13766448996E+02  0.50528857900E+02  0.29999994073E+02 0.  0.
         12    1    1    2    0    0 -0.40989446386E+01 -0.38037473250E+02  0.13766448996E+02  0.40659142100E+02  0.00000000000E+00 0. -1.
         11    1    3    3    0    0 -0.48040243605E+01  0.19746434610E+02  0.11209433971E+01  0.20353300573E+02  0.51100000000E-03 0. -1.
        -11    1    3    3    0    0 -0.51568936660E+00  0.12201618493E+02 -0.14493741085E+02  0.18952940676E+02  0.51100000000E-03 0.  1.
         12    1    3    3    0    0  0.94186583657E+01  0.60894201464E+01 -0.39365130762E+00  0.11222616650E+02  0.00000000000E+00 0. -1.
</event>
<event>
 7    1  0.5408841E-013  0.5052888E+02  0.7816164E-02  0.1300439E+00
        -11   -1    0    0    0    0  0.00000000000E+00  0.00000000000E+00  0.45593999997E+02  0.45594000000E+02  0.51100000000E-03 0.  1.
         11   -1    0    0    0    0 -0.00000000000E+00 -0.00000000000E+00 -0.45593999997E+02  0.45594000000E+02  0.51100000000E-03 0. -1.
    9900012    2    1    2    0    0  0.20482926819E+02 -0.31721751762E+02  0.15077948712E+02  0.50528876014E+02  0.30000049132E+02 0.  0.
         12    1    1    2    0    0 -0.20482926819E+02  0.31721751762E+02 -0.15077948712E+02  0.40659123986E+02  0.00000000000E+00 0. -1.
         11    1    3    3    0    0  0.77520136044E+01 -0.13454714266E+02  0.12377136406E+02  0.19857405590E+02  0.51100000000E-03 0. -1.
        -11    1    3    3    0    0  0.15205570684E+02 -0.19840036267E+02  0.65423439651E+01  0.25838705148E+02  0.51100000000E-03 0.  1.
         12    1    3    3    0    0 -0.24746574692E+01  0.15729987703E+01 -0.38415316592E+01  0.48327652757E+01  0.00000000000E+00 0. -1.
</event>
<event>
 7    1  0.5408841E-013  0.5052885E+02  0.7816164E-02  0.1300439E+00
        -11   -1    0    0    0    0  0.00000000000E+00  0.00000000000E+00  0.45593999997E+02  0.45594000000E+02  0.51100000000E-03 0.  1.
         11   -1    0    0    0    0 -0.00000000000E+00 -0.00000000000E+00 -0.45593999997E+02  0.45594000000E+02  0.51100000000E-03 0. -1.
    9900012    2    1    2    0    0 -0.36438356781E+02  0.10318277468E+02  0.14796803302E+02  0.50528854869E+02  0.29999984861E+02 0.  0.
         12    1    1    2    0    0  0.36438356781E+02 -0.10318277468E+02 -0.14796803302E+02  0.40659145131E+02  0.00000000000E+00 0. -1.
         11    1    3    3    0    0 -0.71574305418E+01  0.80436633169E+01  0.12352874511E+02  0.16386666545E+02  0.51100000000E-03 0. -1.
        -11    1    3    3    0    0 -0.10028507060E-01 -0.26676502072E+01 -0.29430507649E+01  0.39721538571E+01  0.51100000000E-03 0.  1.
        -12    1    3    3    0    0 -0.29270897732E+02  0.49422643583E+01  0.53869795564E+01  0.30170034467E+02  0.00000000000E+00 0.  1.
</event>
<event>
 7    1  0.5408841E-013  0.5052899E+02  0.7816164E-02  0.1300438E+00
        -11   -1    0    0    0    0  0.00000000000E+00  0.00000000000E+00  0.45593999997E+02  0.45594000000E+02  0.51100000000E-03 0.  1.
         11   -1    0    0    0    0 -0.00000000000E+00 -0.00000000000E+00 -0.45593999997E+02  0.45594000000E+02  0.51100000000E-03 0. -1.
    9900012    2    1    2    0    0 -0.27776478926E+02 -0.29647690638E+02 -0.16238195113E+01  0.50528989541E+02  0.30000394207E+02 0.  0.
         12    1    1    2    0    0  0.27776478926E+02  0.29647690638E+02  0.16238195113E+01  0.40659010459E+02  0.00000000000E+00 0. -1.
         11    1    3    3    0    0 -0.99489625946E+01 -0.26897304569E+02 -0.52804670755E+01  0.29160421509E+02  0.51100000000E-03 0. -1.
        -11    1    3    3    0    0 -0.69183523490E+00 -0.32970108192E+01  0.24811857425E+01  0.41839215198E+01  0.51100000000E-03 0.  1.
        -12    1    3    3    0    0 -0.17135681096E+02  0.54662475087E+00  0.11754618218E+01  0.17184646512E+02  0.00000000000E+00 0.  1.
</event>
<event>
 7    1  0.5408841E-013  0.5052886E+02  0.7816164E-02  0.1300439E+00
        -11   -1    0    0    0    0  0.00000000000E+00  0.00000000000E+00  0.45593999997E+02  0.45594000000E+02  0.51100000000E-03 0.  1.
         11   -1    0    0    0    0 -0.00000000000E+00 -0.00000000000E+00 -0.45593999997E+02  0.45594000000E+02  0.51100000000E-03 0. -1.
    9900012    2    1    2    0    0  0.32713536017E+02 -0.12606879306E+02  0.20592638368E+02  0.50528860812E+02  0.30000002924E+02 0.  0.
         12    1    1    2    0    0 -0.32713536017E+02  0.12606879306E+02 -0.20592638368E+02  0.40659139188E+02  0.00000000000E+00 0. -1.
         11    1    3    3    0    0  0.15555390580E+02  0.20011646813E+01 -0.11699930736E+00  0.15684021336E+02  0.51100000000E-03 0. -1.
        -11    1    3    3    0    0  0.20481144634E+01  0.18240050133E+01  0.94555143475E+01  0.98452282341E+01  0.51100000000E-03 0.  1.
        -12    1    3    3    0    0  0.15110030973E+02 -0.16432049000E+02  0.11254123328E+02  0.24999611242E+02  0.00000000000E+00 0.  1.
</event>
<event>
 7    1  0.5408841E-013  0.5052891E+02  0.7816164E-02  0.1300439E+00
        -11   -1    0    0    0    0  0.00000000000E+00  0.00000000000E+00  0.45593999997E+02  0.45594000000E+02  0.51100000000E-03 0. -1.
         11   -1    0    0    0    0 -0.00000000000E+00 -0.00000000000E+00 -0.45593999997E+02  0.45594000000E+02  0.51100000000E-03 0.  1.
    9900012    2    1    2    0    0  0.38279058143E+01 -0.65772985201E+01 -0.39940550071E+02  0.50528914192E+02  0.30000165177E+02 0.  0.
         12    1    1    2    0    0 -0.38279058143E+01  0.65772985201E+01  0.39940550071E+02  0.40659085808E+02  0.00000000000E+00 0. -1.
         11    1    3    3    0    0  0.34940577130E+01  0.53113568237E+01 -0.37393524500E+01  0.73757513256E+01  0.51100000000E-03 0. -1.
        -11    1    3    3    0    0 -0.12422050343E+01  0.56667071816E+01 -0.76752669895E+01  0.96210377429E+01  0.51100000000E-03 0.  1.
         12    1    3    3    0    0  0.15760531356E+01 -0.17555362525E+02 -0.28525930632E+02  0.33532125123E+02  0.00000000000E+00 0. -1.
</event>
<event>
 7    1  0.5408841E-013  0.5052885E+02  0.7816164E-02  0.1300439E+00
        -11   -1    0    0    0    0  0.00000000000E+00  0.00000000000E+00  0.45593999997E+02  0.45594000000E+02  0.51100000000E-03 0. -1.
         11   -1    0    0    0    0 -0.00000000000E+00 -0.00000000000E+00 -0.45593999997E+02  0.45594000000E+02  0.51100000000E-03 0.  1.
    9900012    2    1    2    0    0 -0.34398299393E+00 -0.40655187153E+02 -0.45179497852E+00  0.50528847458E+02  0.29999962333E+02 0.  0.
         12    1    1    2    0    0  0.34398299393E+00  0.40655187153E+02  0.45179497852E+00  0.40659152542E+02  0.00000000000E+00 0. -1.
         11    1    3    3    0    0  0.11688064717E+01 -0.18655770577E+02 -0.18594972587E+01  0.18784611115E+02  0.51100000000E-03 0.  1.
        -11    1    3    3    0    0  0.80292188812E+00  0.47465883594E+01 -0.44358608776E+00  0.48344134588E+01  0.51100000000E-03 0. -1.
         12    1    3    3    0    0 -0.23157113537E+01 -0.26746004935E+02  0.18512883680E+01  0.26909822884E+02  0.00000000000E+00 0. -1.
</event>
<event>
 7    1  0.5408841E-013  0.5052885E+02  0.7816164E-02  0.1300439E+00
        -11   -1    0    0    0    0  0.00000000000E+00  0.00000000000E+00  0.45593999997E+02  0.45594000000E+02  0.51100000000E-03 0. -1.
         11   -1    0    0    0    0 -0.00000000000E+00 -0.00000000000E+00 -0.45593999997E+02  0.45594000000E+02  0.51100000000E-03 0.  1.
    9900012    2    1    2    0    0 -0.10246996949E+02 -0.34827537675E+02  0.18308679537E+02  0.50528854985E+02  0.29999985212E+02 0.  0.
         12    1    1    2    0    0  0.10246996949E+02  0.34827537675E+02 -0.18308679537E+02  0.40659145015E+02  0.00000000000E+00 0. -1.
         11    1    3    3    0    0 -0.31275527627E+01 -0.25771742093E+00  0.47609061049E+00  0.31740616067E+01  0.51100000000E-03 0. -1.
        -11    1    3    3    0    0 -0.12149312614E+02 -0.72839729726E+01 -0.37145955123E+00  0.14170393139E+02  0.51100000000E-03 0.  1.
         12    1    3    3    0    0  0.50298684269E+01 -0.27285847281E+02  0.18204048478E+02  0.33184400239E+02  0.00000000000E+00 0. -1.
</event>
<event>
 7    1  0.5408841E-013  0.5052887E+02  0.7816164E-02  0.1300439E+00
        -11   -1    0    0    0    0  0.00000000000E+00  0.00000000000E+00  0.45593999997E+02  0.45594000000E+02  0.51100000000E-03 0. -1.
         11   -1    0    0    0    0 -0.00000000000E+00 -0.00000000000E+00 -0.45593999997E+02  0.45594000000E+02  0.51100000000E-03 0.  1.
    9900012    2    1    2    0    0 -0.25856994843E+02 -0.55114449366E+01 -0.30890207362E+02  0.50528866727E+02  0.30000020904E+02 0.  0.
         12    1    1    2    0    0  0.25856994843E+02  0.55114449366E+01  0.30890207362E+02  0.40659133273E+02  0.00000000000E+00 0. -1.
         11    1    3    3    0    0 -0.71454062927E+01  0.33744762972E+01 -0.40806933879E+01  0.88935920840E+01  0.51100000000E-03 0. -1.
        -11    1    3    3    0    0 -0.14400314523E+02 -0.76790498374E+00 -0.12519230601E+01  0.14475014613E+02  0.51100000000E-03 0.  1.
         12    1    3    3    0    0 -0.43112740275E+01 -0.81180162501E+01 -0.25557590914E+02  0.27160260031E+02  0.00000000000E+00 0. -1.
</event>
<event>
 7    1  0.5408841E-013  0.5052886E+02  0.7816164E-02  0.1300439E+00
        -11   -1    0    0    0    0  0.00000000000E+00  0.00000000000E+00  0.45593999997E+02  0.45594000000E+02  0.51100000000E-03 0.  1.
         11   -1    0    0    0    0 -0.00000000000E+00 -0.00000000000E+00 -0.45593999997E+02  0.45594000000E+02  0.51100000000E-03 0. -1.
    9900012    2    1    2    0    0  0.33519298495E+02  0.34126207329E+01  0.22759090797E+02  0.50528861228E+02  0.30000004187E+02 0.  0.
         12    1    1    2    0    0 -0.33519298495E+02 -0.34126207329E+01 -0.22759090797E+02  0.40659138772E+02  0.00000000000E+00 0. -1.
         11    1    3    3    0    0  0.52421639867E+01  0.84261122409E+00  0.83819172411E+01  0.99220367786E+01  0.51100000000E-03 0. -1.
        -11    1    3    3    0    0  0.80006640584E+01 -0.60029441060E+01  0.15630439612E+02  0.18556847955E+02  0.51100000000E-03 0.  1.
         12    1    3    3    0    0  0.20276470449E+02  0.85729536148E+01 -0.12532660562E+01  0.22049976494E+02  0.00000000000E+00 0. -1.
</event>
<event>
 7    1  0.5408841E-013  0.5052882E+02  0.7816164E-02  0.1300439E+00
        -11   -1    0    0    0    0  0.00000000000E+00  0.00000000000E+00  0.45593999997E+02  0.45594000000E+02  0.51100000000E-03 0.  1.
         11   -1    0    0    0    0 -0.00000000000E+00 -0.00000000000E+00 -0.45593999997E+02  0.45594000000E+02  0.51100000000E-03 0. -1.
    9900012    2    1    2    0    0 -0.33246257495E+02 -0.20687816600E+02  0.10948495410E+02  0.50528819674E+02  0.29999877880E+02 0.  0.
         12    1    1    2    0    0  0.33246257495E+02  0.20687816600E+02 -0.10948495410E+02  0.40659180326E+02  0.00000000000E+00 0. -1.
         11    1    3    3    0    0 -0.31075187484E+01  0.13925322644E+01 -0.24716621906E+01  0.42077230332E+01  0.51100000000E-03 0. -1.
        -11    1    3    3    0    0 -0.12805278943E+02  0.25342096191E+01 -0.69283436818E+00  0.13072008527E+02  0.51100000000E-03 0.  1.
        -12    1    3    3    0    0 -0.17333459803E+02 -0.24614558483E+02  0.14112991969E+02  0.33249088114E+02  0.00000000000E+00 0.  1.
</event>
<event>
 7    1  0.5408841E-013  0.5052886E+02  0.7816164E-02  0.1300439E+00
        -11   -1    0    0    0    0  0.00000000000E+00  0.00000000000E+00  0.45593999997E+02  0.45594000000E+02  0.51100000000E-03 0. -1.
         11   -1    0    0    0    0 -0.00000000000E+00 -0.00000000000E+00 -0.45593999997E+02  0.45594000000E+02  0.51100000000E-03 0.  1.
    9900012    2    1    2    0    0 -0.16598797669E+01 -0.38409073750E+02 -0.13234562447E+02  0.50528858465E+02  0.29999995791E+02 0.  0.
         12    1    1    2    0    0  0.16598797669E+01  0.38409073750E+02  0.13234562447E+02  0.40659141535E+02  0.00000000000E+00 0. -1.
         11    1    3    3    0    0 -0.66549692694E+01 -0.10899625484E+01  0.18163071234E+01  0.69839534765E+01  0.51100000000E-03 0. -1.
        -11    1    3    3    0    0  0.15187543495E+01 -0.23954685120E+01  0.29578187621E+01  0.40979966150E+01  0.51100000000E-03 0.  1.
         12    1    3    3    0    0  0.34763351530E+01 -0.34923642690E+02 -0.18008688333E+02  0.39446908374E+02  0.00000000000E+00 0. -1.
</event>
<event>
 7    1  0.5408841E-013  0.5052886E+02  0.7816164E-02  0.1300439E+00
        -11   -1    0    0    0    0  0.00000000000E+00  0.00000000000E+00  0.45593999997E+02  0.45594000000E+02  0.51100000000E-03 0.  1.
         11   -1    0    0    0    0 -0.00000000000E+00 -0.00000000000E+00 -0.45593999997E+02  0.45594000000E+02  0.51100000000E-03 0. -1.
    9900012    2    1    2    0    0 -0.84858705236E+01  0.24397124124E+02  0.31399618394E+02  0.50528859584E+02  0.29999999192E+02 0.  0.
         12    1    1    2    0    0  0.84858705236E+01 -0.24397124124E+02 -0.31399618394E+02  0.40659140416E+02  0.00000000000E+00 0. -1.
         11    1    3    3    0    0  0.57439192672E+01  0.63783465643E+01  0.63754190657E+01  0.10692141131E+02  0.51100000000E-03 0. -1.
        -11    1    3    3    0    0  0.35035784219E+01  0.97133911902E+01  0.39142366103E+01  0.11042928899E+02  0.51100000000E-03 0.  1.
        -12    1    3    3    0    0 -0.17733368213E+02  0.83053863700E+01  0.21109962718E+02  0.28793789554E+02  0.00000000000E+00 0.  1.
</event>
<event>
 7    1  0.5408841E-013  0.5052887E+02  0.7816164E-02  0.1300439E+00
        -11   -1    0    0    0    0  0.00000000000E+00  0.00000000000E+00  0.45593999997E+02  0.45594000000E+02  0.51100000000E-03 0. -1.
         11   -1    0    0    0    0 -0.00000000000E+00 -0.00000000000E+00 -0.45593999997E+02  0.45594000000E+02  0.51100000000E-03 0.  1.
    9900012    2    1    2    0    0 -0.32635752189E+02 -0.10971573270E+02 -0.21626310606E+02  0.50528867552E+02  0.30000023411E+02 0.  0.
         12    1    1    2    0    0  0.32635752189E+02  0.10971573270E+02  0.21626310606E+02  0.40659132448E+02  0.00000000000E+00 0. -1.
         11    1    3    3    0    0 -0.13893523098E+02 -0.10189393440E+02  0.27329965045E+01  0.17444855772E+02  0.51100000000E-03 0.  1.
        -11    1    3    3    0    0 -0.85812875980E+01  0.45046859929E+01 -0.58595603964E+01  0.11325420126E+02  0.51100000000E-03 0. -1.
        -12    1    3    3    0    0 -0.10160941493E+02 -0.52868658230E+01 -0.18499746714E+02  0.21758591654E+02  0.00000000000E+00 0.  1.
</event>
<event>
 7    1  0.5408841E-013  0.5052884E+02  0.7816164E-02  0.1300439E+00
        -11   -1    0    0    0    0  0.00000000000E+00  0.00000000000E+00  0.45593999997E+02  0.45594000000E+02  0.51100000000E-03 0.  1.
         11   -1    0    0    0    0 -0.00000000000E+00 -0.00000000000E+00 -0.45593999997E+02  0.45594000000E+02  0.51100000000E-03 0. -1.
    9900012    2    1    2    0    0 -0.15609305489E+02  0.32890437103E+02  0.18103482345E+02  0.50528839363E+02  0.29999937727E+02 0.  0.
         12    1    1    2    0    0  0.15609305489E+02 -0.32890437103E+02 -0.18103482345E+02  0.40659160637E+02  0.00000000000E+00 0. -1.
         11    1    3    3    0    0 -0.12732547565E+02  0.21987233418E+02  0.84628409933E+01  0.26780139634E+02  0.51100000000E-03 0. -1.
        -11    1    3    3    0    0 -0.96857185458E+01  0.10521368815E+02  0.90043358523E+01  0.16899420401E+02  0.51100000000E-03 0.  1.
         12    1    3    3    0    0  0.68089606225E+01  0.38183487124E+00  0.63630549979E+00  0.68492793283E+01  0.00000000000E+00 0. -1.
</event>
<event>
 7    1  0.5408841E-013  0.5052886E+02  0.7816164E-02  0.1300439E+00
        -11   -1    0    0    0    0  0.00000000000E+00  0.00000000000E+00  0.45593999997E+02  0.45594000000E+02  0.51100000000E-03 0.  1.
         11   -1    0    0    0    0 -0.00000000000E+00 -0.00000000000E+00 -0.45593999997E+02  0.45594000000E+02  0.51100000000E-03 0. -1.
    9900012    2    1    2    0    0 -0.96686417407E+01 -0.42261154759E+01  0.39266054519E+02  0.50528859299E+02  0.29999998324E+02 0.  0.
         12    1    1    2    0    0  0.96686417407E+01  0.42261154759E+01 -0.39266054519E+02  0.40659140701E+02  0.00000000000E+00 0. -1.
         11    1    3    3    0    0 -0.80743428718E+01 -0.66204352664E+01  0.21789327998E+02  0.24161953373E+02  0.51100000000E-03 0.  1.
        -11    1    3    3    0    0  0.35928567557E+01  0.59655044798E+01  0.18697330636E+02  0.19952093538E+02  0.51100000000E-03 0. -1.
         12    1    3    3    0    0 -0.51871556247E+01 -0.35711846893E+01 -0.12206041159E+01  0.64148123875E+01  0.00000000000E+00 0. -1.
</event>
<event>
 7    1  0.5408841E-013  0.5052886E+02  0.7816164E-02  0.1300439E+00
        -11   -1    0    0    0    0  0.00000000000E+00  0.00000000000E+00  0.45593999997E+02  0.45594000000E+02  0.51100000000E-03 0.  1.
         11   -1    0    0    0    0 -0.00000000000E+00 -0.00000000000E+00 -0.45593999997E+02  0.45594000000E+02  0.51100000000E-03 0. -1.
    9900012    2    1    2    0    0  0.18413802437E+01  0.40616606779E+02  0.25733153315E+00  0.50528860229E+02  0.30000001152E+02 0.  0.
         12    1    1    2    0    0 -0.18413802437E+01 -0.40616606779E+02 -0.25733153315E+00  0.40659139771E+02  0.00000000000E+00 0. -1.
         11    1    3    3    0    0  0.24703382478E+01  0.13706737626E+02 -0.23903743765E+01  0.14131210752E+02  0.51100000000E-03 0. -1.
        -11    1    3    3    0    0 -0.31435413369E+01  0.12199173907E+02 -0.10583178890E+02  0.16453126506E+02  0.51100000000E-03 0.  1.
        -12    1    3    3    0    0  0.25145833329E+01  0.14710695245E+02  0.13230884799E+02  0.19944522970E+02  0.00000000000E+00 0.  1.
</event>
<event>
 7    1  0.5408841E-013  0.5052887E+02  0.7816164E-02  0.1300439E+00
        -11   -1    0    0    0    0  0.00000000000E+00  0.00000000000E+00  0.45593999997E+02  0.45594000000E+02  0.51100000000E-03 0.  1.
         11   -1    0    0    0    0 -0.00000000000E+00 -0.00000000000E+00 -0.45593999997E+02  0.45594000000E+02  0.51100000000E-03 0. -1.
    9900012    2    1    2    0    0  0.12871131067E+02 -0.94332201110E+01  0.37396701363E+02  0.50528869052E+02  0.30000027971E+02 0.  0.
         12    1    1    2    0    0 -0.12871131067E+02  0.94332201110E+01 -0.37396701363E+02  0.40659130948E+02  0.00000000000E+00 0. -1.
         11    1    3    3    0    0  0.14444400186E+01 -0.47061895193E+01  0.19303282682E+01  0.52877967286E+01  0.51100000000E-03 0. -1.
        -11    1    3    3    0    0  0.13604963651E+02 -0.13061167312E+02  0.28438240103E+02  0.34123637379E+02  0.51100000000E-03 0.  1.
         12    1    3    3    0    0 -0.21782726035E+01  0.83341367204E+01  0.70281329913E+01  0.11117434945E+02  0.00000000000E+00 0. -1.
</event>
<event>
 7    1  0.5408841E-013  0.5052886E+02  0.7816164E-02  0.1300439E+00
        -11   -1    0    0    0    0  0.00000000000E+00  0.00000000000E+00  0.45593999997E+02  0.45594000000E+02  0.51100000000E-03 0. -1.
         11   -1    0    0    0    0 -0.00000000000E+00 -0.00000000000E+00 -0.45593999997E+02  0.45594000000E+02  0.51100000000E-03 0.  1.
    9900012    2    1    2    0    0  0.12516163304E+02 -0.35011857058E+02 -0.16452400047E+02  0.50528856554E+02  0.29999989980E+02 0.  0.
         12    1    1    2    0    0 -0.12516163304E+02  0.35011857058E+02  0.16452400047E+02  0.40659143446E+02  0.00000000000E+00 0. -1.
         11    1    3    3    0    0 -0.13943334441E+01 -0.10808531938E+02 -0.53219674732E-01  0.10898227425E+02  0.51100000000E-03 0. -1.
        -11    1    3    3    0    0  0.44040102846E+01 -0.71801701366E+01  0.56917253439E+01  0.10165917933E+02  0.51100000000E-03 0.  1.
        -12    1    3    3    0    0  0.95064864633E+01 -0.17023154983E+02 -0.22090905716E+02  0.29464711195E+02  0.00000000000E+00 0.  1.
</event>
<event>
 7    1  0.5408841E-013  0.5052889E+02  0.7816164E-02  0.1300439E+00
        -11   -1    0    0    0    0  0.00000000000E+00  0.00000000000E+00  0.45593999997E+02  0.45594000000E+02  0.51100000000E-03 0.  1.
         11   -1    0    0    0    0 -0.00000000000E+00 -0.00000000000E+00 -0.45593999997E+02  0.45594000000E+02  0.51100000000E-03 0. -1.
    9900012    2    1    2    0    0  0.18118566964E+02 -0.28236534062E+02  0.22969078693E+02  0.50528894001E+02  0.30000103804E+02 0.  0.
         12    1    1    2    0    0 -0.18118566964E+02  0.28236534062E+02 -0.22969078693E+02  0.40659105999E+02  0.00000000000E+00 0. -1.
         11    1    3    3    0    0  0.90114529790E+01 -0.10965056128E+02  0.16552256739E+02  0.21804035041E+02  0.51100000000E-03 0. -1.
        -11    1    3    3    0    0  0.20354292863E+01 -0.36872969150E+01  0.11770539060E+02  0.12501388761E+02  0.51100000000E-03 0.  1.
         12    1    3    3    0    0  0.70716846986E+01 -0.13584181019E+02 -0.53537171056E+01  0.16223470199E+02  0.00000000000E+00 0. -1.
</event>
<event>
 7    1  0.5408841E-013  0.5052886E+02  0.7816164E-02  0.1300439E+00
        -11   -1    0    0    0    0  0.00000000000E+00  0.00000000000E+00  0.45593999997E+02  0.45594000000E+02  0.51100000000E-03 0.  1.
         11   -1    0    0    0    0 -0.00000000000E+00 -0.00000000000E+00 -0.45593999997E+02  0.45594000000E+02  0.51100000000E-03 0. -1.
    9900012    2    1    2    0    0 -0.45992459695E+01  0.28518802770E+02  0.28612772621E+02  0.50528856723E+02  0.29999990496E+02 0.  0.
         12    1    1    2    0    0  0.45992459695E+01 -0.28518802770E+02 -0.28612772621E+02  0.40659143277E+02  0.00000000000E+00 0. -1.
         11    1    3    3    0    0 -0.30767815033E+01 -0.43437174117E+01  0.13950969351E+01  0.55027957523E+01  0.51100000000E-03 0. -1.
        -11    1    3    3    0    0 -0.76951625925E+01  0.13783332379E+02  0.11082957970E+02  0.19288020542E+02  0.51100000000E-03 0.  1.
        -12    1    3    3    0    0  0.61726981263E+01  0.19079187803E+02  0.16134717716E+02  0.25738040429E+02  0.00000000000E+00 0.  1.
</event>
<event>
 7    1  0.5408841E-013  0.5052883E+02  0.7816164E-02  0.1300439E+00
        -11   -1    0    0    0    0  0.00000000000E+00  0.00000000000E+00  0.45593999997E+02  0.45594000000E+02  0.51100000000E-03 0.  1.
         11   -1    0    0    0    0 -0.00000000000E+00 -0.00000000000E+00 -0.45593999997E+02  0.45594000000E+02  0.51100000000E-03 0. -1.
    9900012    2    1    2    0    0  0.52092991077E+01 -0.24898601289E+01  0.40247136777E+02  0.50528828595E+02  0.29999904996E+02 0.  0.
         12    1    1    2    0    0 -0.52092991077E+01  0.24898601289E+01 -0.40247136777E+02  0.40659171405E+02  0.00000000000E+00 0. -1.
         11    1    3    3    0    0  0.13676149640E+02 -0.30126754614E+01  0.19531094440E+02  0.24032830310E+02  0.51100000000E-03 0. -1.
        -11    1    3    3    0    0  0.11350998669E+01 -0.43409730657E+01  0.11434362546E+02  0.12283205850E+02  0.51100000000E-03 0.  1.
         12    1    3    3    0    0 -0.96019503993E+01  0.48637883982E+01  0.92816797913E+01  0.14212792435E+02  0.00000000000E+00 0. -1.
</event>
<event>
 7    1  0.5408841E-013  0.5052886E+02  0.7816164E-02  0.1300439E+00
        -11   -1    0    0    0    0  0.00000000000E+00  0.00000000000E+00  0.45593999997E+02  0.45594000000E+02  0.51100000000E-03 0.  1.
         11   -1    0    0    0    0 -0.00000000000E+00 -0.00000000000E+00 -0.45593999997E+02  0.45594000000E+02  0.51100000000E-03 0. -1.
    9900012    2    1    2    0    0  0.24915065316E+01 -0.10326477088E+02  0.39246935913E+02  0.50528859423E+02  0.29999998703E+02 0.  0.
         12    1    1    2    0    0 -0.24915065316E+01  0.10326477088E+02 -0.39246935913E+02  0.40659140577E+02  0.00000000000E+00 0. -1.
         11    1    3    3    0    0  0.66971031473E+01  0.12596112623E+01  0.59628943787E+01  0.90550494603E+01  0.51100000000E-03 0. -1.
        -11    1    3    3    0    0  0.59881398396E+01  0.95703496545E+00  0.18858771146E+02  0.19809769915E+02  0.51100000000E-03 0.  1.
        -12    1    3    3    0    0 -0.10193736455E+02 -0.12543123316E+02  0.14425270388E+02  0.21664040048E+02  0.00000000000E+00 0.  1.
</event>
<event>
 7    1  0.5408841E-013  0.5052886E+02  0.7816164E-02  0.1300439E+00
        -11   -1    0    0    0    0  0.00000000000E+00  0.00000000000E+00  0.45593999997E+02  0.45594000000E+02  0.51100000000E-03 0.  1.
         11   -1    0    0    0    0 -0.00000000000E+00 -0.00000000000E+00 -0.45593999997E+02  0.45594000000E+02  0.51100000000E-03 0. -1.
    9900012    2    1    2    0    0 -0.32879788497E+01  0.11033048510E+02  0.38995217840E+02  0.50528856149E+02  0.29999988750E+02 0.  0.
         12    1    1    2    0    0  0.32879788497E+01 -0.11033048510E+02 -0.38995217840E+02  0.40659143851E+02  0.00000000000E+00 0. -1.
         11    1    3    3    0    0 -0.36563244356E+00  0.14471558476E+02  0.25641575198E+02  0.29445713961E+02  0.51100000000E-03 0. -1.
        -11    1    3    3    0    0  0.17205113544E+01  0.56056844480E+01  0.68388504444E+01  0.90085366799E+01  0.51100000000E-03 0.  1.
         12    1    3    3    0    0 -0.46428577606E+01 -0.90441944143E+01  0.65147921973E+01  0.12074605508E+02  0.00000000000E+00 0. -1.
</event>
<event>
 7    1  0.5408841E-013  0.5052886E+02  0.7816164E-02  0.1300439E+00
        -11   -1    0    0    0    0  0.00000000000E+00  0.00000000000E+00  0.45593999997E+02  0.45594000000E+02  0.51100000000E-03 0.  1.
         11   -1    0    0    0    0 -0.00000000000E+00 -0.00000000000E+00 -0.45593999997E+02  0.45594000000E+02  0.51100000000E-03 0. -1.
    9900012    2    1    2    0    0 -0.19500285000E+01  0.29378251929E+02  0.28040702547E+02  0.50528864533E+02  0.30000014235E+02 0.  0.
         12    1    1    2    0    0  0.19500285000E+01 -0.29378251929E+02 -0.28040702547E+02  0.40659135467E+02  0.00000000000E+00 0. -1.
         11    1    3    3    0    0 -0.67860123654E+01  0.16644300855E+02  0.13087958634E+02  0.22234598630E+02  0.51100000000E-03 0. -1.
        -11    1    3    3    0    0  0.30276791106E+01  0.17927431093E+02  0.13381673136E+02  0.22574959636E+02  0.51100000000E-03 0.  1.
         12    1    3    3    0    0  0.18083047548E+01 -0.51934800184E+01  0.15710707773E+01  0.57193062670E+01  0.00000000000E+00 0. -1.
</event>
<event>
 7    1  0.5408841E-013  0.5052886E+02  0.7816164E-02  0.1300439E+00
        -11   -1    0    0    0    0  0.00000000000E+00  0.00000000000E+00  0.45593999997E+02  0.45594000000E+02  0.51100000000E-03 0.  1.
         11   -1    0    0    0    0 -0.00000000000E+00 -0.00000000000E+00 -0.45593999997E+02  0.45594000000E+02  0.51100000000E-03 0. -1.
    9900012    2    1    2    0    0 -0.12630930681E+02  0.23559173784E+02  0.30636428299E+02  0.50528858123E+02  0.29999994751E+02 0.  0.
         12    1    1    2    0    0  0.12630930681E+02 -0.23559173784E+02 -0.30636428299E+02  0.40659141877E+02  0.00000000000E+00 0. -1.
         11    1    3    3    0    0 -0.31780753599E+01 -0.15893378080E+01 -0.15297463825E+01  0.38686279115E+01  0.51100000000E-03 0. -1.
        -11    1    3    3    0    0 -0.23728309824E+01  0.21647088251E+01  0.18946465880E+02  0.19216785911E+02  0.51100000000E-03 0.  1.
         12    1    3    3    0    0 -0.70800243388E+01  0.22983802767E+02  0.13219708802E+02  0.27443444300E+02  0.00000000000E+00 0. -1.
</event>
<event>
 7    1  0.5408841E-013  0.5052886E+02  0.7816164E-02  0.1300439E+00
        -11   -1    0    0    0    0  0.00000000000E+00  0.00000000000E+00  0.45593999997E+02  0.45594000000E+02  0.51100000000E-03 0.  1.
         11   -1    0    0    0    0 -0.00000000000E+00 -0.00000000000E+00 -0.45593999997E+02  0.45594000000E+02  0.51100000000E-03 0. -1.
    9900012    2    1    2    0    0  0.10601155271E+02  0.32640671325E+01  0.39116833323E+02  0.50528864784E+02  0.30000014997E+02 0.  0.
         12    1    1    2    0    0 -0.10601155271E+02 -0.32640671325E+01 -0.39116833323E+02  0.40659135216E+02  0.00000000000E+00 0. -1.
         11    1    3    3    0    0  0.13835596359E+02  0.38828765089E+00  0.74648112366E+01  0.15725708282E+02  0.51100000000E-03 0. -1.
        -11    1    3    3    0    0 -0.59871322855E+01  0.15012252514E+00  0.48055751063E+01  0.76786614811E+01  0.51100000000E-03 0.  1.
        -12    1    3    3    0    0  0.27526911976E+01  0.27256569564E+01  0.26846446980E+02  0.27124495021E+02  0.00000000000E+00 0.  1.
</event>
<event>
 7    1  0.5408841E-013  0.5052887E+02  0.7816164E-02  0.1300439E+00
        -11   -1    0    0    0    0  0.00000000000E+00  0.00000000000E+00  0.45593999997E+02  0.45594000000E+02  0.51100000000E-03 0. -1.
         11   -1    0    0    0    0 -0.00000000000E+00 -0.00000000000E+00 -0.45593999997E+02  0.45594000000E+02  0.51100000000E-03 0.  1.
    9900012    2    1    2    0    0  0.34542326351E+02  0.38346045599E+01 -0.21101865969E+02  0.50528865120E+02  0.30000016017E+02 0.  0.
         12    1    1    2    0    0 -0.34542326351E+02 -0.38346045599E+01  0.21101865969E+02  0.40659134880E+02  0.00000000000E+00 0. -1.
         11    1    3    3    0    0  0.18493185370E+01  0.43503792299E+01  0.50159606543E+01  0.68924335356E+01  0.51100000000E-03 0. -1.
        -11    1    3    3    0    0  0.69342423423E+01  0.40781745818E+01 -0.25970211295E+01  0.84533865279E+01  0.51100000000E-03 0.  1.
        -12    1    3    3    0    0  0.25758765471E+02 -0.45939492518E+01 -0.23520805494E+02  0.35183045056E+02  0.00000000000E+00 0.  1.
</event>
<event>
 7    1  0.5408841E-013  0.5052884E+02  0.7816164E-02  0.1300439E+00
        -11   -1    0    0    0    0  0.00000000000E+00  0.00000000000E+00  0.45593999997E+02  0.45594000000E+02  0.51100000000E-03 0.  1.
         11   -1    0    0    0    0 -0.00000000000E+00 -0.00000000000E+00 -0.45593999997E+02  0.45594000000E+02  0.51100000000E-03 0. -1.
    9900012    2    1    2    0    0  0.14341973002E+02  0.29456266942E+02  0.24079103794E+02  0.50528842467E+02  0.29999947163E+02 0.  0.
         12    1    1    2    0    0 -0.14341973002E+02 -0.29456266942E+02 -0.24079103794E+02  0.40659157533E+02  0.00000000000E+00 0. -1.
         11    1    3    3    0    0 -0.12931508488E+01  0.10288307996E+02  0.75344493533E+01  0.12817544533E+02  0.51100000000E-03 0. -1.
        -11    1    3    3    0    0 -0.46360919080E+01  0.73355168567E+01  0.10210230019E+02  0.13399699737E+02  0.51100000000E-03 0.  1.
         12    1    3    3    0    0  0.20271215759E+02  0.11832442089E+02  0.63344244221E+01  0.24311598197E+02  0.00000000000E+00 0. -1.
</event>
<event>
 7    1  0.5408841E-013  0.5052885E+02  0.7816164E-02  0.1300439E+00
        -11   -1    0    0    0    0  0.00000000000E+00  0.00000000000E+00  0.45593999997E+02  0.45594000000E+02  0.51100000000E-03 0. -1.
         11   -1    0    0    0    0 -0.00000000000E+00 -0.00000000000E+00 -0.45593999997E+02  0.45594000000E+02  0.51100000000E-03 0.  1.
    9900012    2    1    2    0    0  0.11088027811E+02 -0.16002926228E+02 -0.35694934457E+02  0.50528851528E+02  0.29999974705E+02 0.  0.
         12    1    1    2    0    0 -0.11088027811E+02  0.16002926228E+02  0.35694934457E+02  0.40659148472E+02  0.00000000000E+00 0. -1.
         11    1    3    3    0    0 -0.19015396295E+01 -0.72119374250E+01 -0.24630605515E+02  0.25735085441E+02  0.51100000000E-03 0.  1.
        -11    1    3    3    0    0  0.30403856112E+01 -0.91836220649E+00 -0.11667697511E+02  0.12092249554E+02  0.51100000000E-03 0. -1.
        -12    1    3    3    0    0  0.99491818297E+01 -0.78726265961E+01  0.60336856913E+00  0.12701516533E+02  0.00000000000E+00 0.  1.
</event>
<event>
 7    1  0.5408841E-013  0.5052886E+02  0.7816164E-02  0.1300439E+00
        -11   -1    0    0    0    0  0.00000000000E+00  0.00000000000E+00  0.45593999997E+02  0.45594000000E+02  0.51100000000E-03 0. -1.
         11   -1    0    0    0    0 -0.00000000000E+00 -0.00000000000E+00 -0.45593999997E+02  0.45594000000E+02  0.51100000000E-03 0.  1.
    9900012    2    1    2    0    0 -0.24855766723E+02 -0.25495379743E+02  0.19630125587E+02  0.50528863780E+02  0.30000011945E+02 0.  0.
         12    1    1    2    0    0  0.24855766723E+02  0.25495379743E+02 -0.19630125587E+02  0.40659136220E+02  0.00000000000E+00 0. -1.
         11    1    3    3    0    0 -0.79259731047E+01 -0.75196775716E+00  0.10700368830E+02  0.13337331012E+02  0.51100000000E-03 0. -1.
        -11    1    3    3    0    0 -0.13129041256E+02 -0.18623936834E+02  0.15405097064E+02  0.27505267919E+02  0.51100000000E-03 0.  1.
        -12    1    3    3    0    0 -0.38007523624E+01 -0.61194751513E+01 -0.64753403060E+01  0.96862648491E+01  0.00000000000E+00 0.  1.
</event>
<event>
 7    1  0.5408841E-013  0.5052886E+02  0.7816164E-02  0.1300439E+00
        -11   -1    0    0    0    0  0.00000000000E+00  0.00000000000E+00  0.45593999997E+02  0.45594000000E+02  0.51100000000E-03 0.  1.
         11   -1    0    0    0    0 -0.00000000000E+00 -0.00000000000E+00 -0.45593999997E+02  0.45594000000E+02  0.51100000000E-03 0. -1.
    9900012    2    1    2    0    0 -0.37065466179E+02  0.11547708219E+02  0.12081685214E+02  0.50528862457E+02  0.30000007923E+02 0.  0.
         12    1    1    2    0    0  0.37065466179E+02 -0.11547708219E+02 -0.12081685214E+02  0.40659137543E+02  0.00000000000E+00 0. -1.
         11    1    3    3    0    0 -0.48592753161E+01 -0.20510339332E+01  0.14954769872E+01  0.54823123290E+01  0.51100000000E-03 0. -1.
        -11    1    3    3    0    0 -0.77683684603E+01  0.30969541430E+01 -0.87944924651E+01  0.12135970150E+02  0.51100000000E-03 0.  1.
        -12    1    3    3    0    0 -0.24437822403E+02  0.10501788009E+02  0.19380700692E+02  0.32910579978E+02  0.00000000000E+00 0.  1.
</event>
<event>
 7    1  0.5408841E-013  0.5052875E+02  0.7816164E-02  0.1300439E+00
        -11   -1    0    0    0    0  0.00000000000E+00  0.00000000000E+00  0.45593999997E+02  0.45594000000E+02  0.51100000000E-03 0.  1.
         11   -1    0    0    0    0 -0.00000000000E+00 -0.00000000000E+00 -0.45593999997E+02  0.45594000000E+02  0.51100000000E-03 0. -1.
    9900012    2    1    2    0    0  0.85823718037E+01 -0.24541410405E+02  0.31260785304E+02  0.50528749783E+02  0.29999665438E+02 0.  0.
         12    1    1    2    0    0 -0.85823718037E+01  0.24541410405E+02 -0.31260785304E+02  0.40659250217E+02  0.00000000000E+00 0. -1.
         11    1    3    3    0    0  0.73061999016E+01 -0.13737115970E+02  0.94627339253E+01  0.18210772794E+02  0.51100000000E-03 0. -1.
        -11    1    3    3    0    0  0.94040644877E+01 -0.10067897587E+02  0.19433008226E+02  0.23821015925E+02  0.51100000000E-03 0.  1.
         12    1    3    3    0    0 -0.81278925856E+01 -0.73639684773E+00  0.23650431522E+01  0.84969610634E+01  0.00000000000E+00 0. -1.
</event>
<event>
 7    1  0.5408841E-013  0.5052886E+02  0.7816164E-02  0.1300439E+00
        -11   -1    0    0    0    0  0.00000000000E+00  0.00000000000E+00  0.45593999997E+02  0.45594000000E+02  0.51100000000E-03 0.  1.
         11   -1    0    0    0    0 -0.00000000000E+00 -0.00000000000E+00 -0.45593999997E+02  0.45594000000E+02  0.51100000000E-03 0. -1.
    9900012    2    1    2    0    0 -0.26707955092E+02 -0.10474769685E+02  0.28811973552E+02  0.50528862219E+02  0.30000007201E+02 0.  0.
         12    1    1    2    0    0  0.26707955092E+02  0.10474769685E+02 -0.28811973552E+02  0.40659137781E+02  0.00000000000E+00 0. -1.
         11    1    3    3    0    0 -0.37447459026E+01 -0.87471064408E+01  0.44586109776E+01  0.10507816380E+02  0.51100000000E-03 0. -1.
        -11    1    3    3    0    0  0.33752014110E+01  0.17627322561E+01  0.79014164507E+01  0.87710656000E+01  0.51100000000E-03 0.  1.
        -12    1    3    3    0    0 -0.26338410600E+02 -0.34903954999E+01  0.16451946124E+02  0.31249980239E+02  0.00000000000E+00 0.  1.
</event>
<event>
 7    1  0.5408841E-013  0.5052886E+02  0.7816164E-02  0.1300439E+00
        -11   -1    0    0    0    0  0.00000000000E+00  0.00000000000E+00  0.45593999997E+02  0.45594000000E+02  0.51100000000E-03 0.  1.
         11   -1    0    0    0    0 -0.00000000000E+00 -0.00000000000E+00 -0.45593999997E+02  0.45594000000E+02  0.51100000000E-03 0. -1.
    9900012    2    1    2    0    0 -0.12018557893E+02 -0.30845881234E+02  0.23606179322E+02  0.50528858038E+02  0.29999994492E+02 0.  0.
         12    1    1    2    0    0  0.12018557893E+02  0.30845881234E+02 -0.23606179322E+02  0.40659141962E+02  0.00000000000E+00 0. -1.
         11    1    3    3    0    0 -0.77606230569E+01  0.20032101817E+00  0.48105865833E+01  0.91328605748E+01  0.51100000000E-03 0. -1.
        -11    1    3    3    0    0 -0.63204234743E+01 -0.18422066140E+02  0.10285407218E+01  0.19503286134E+02  0.51100000000E-03 0.  1.
        -12    1    3    3    0    0  0.20624886379E+01 -0.12624136112E+02  0.17767052017E+02  0.21892711329E+02  0.00000000000E+00 0.  1.
</event>
<event>
 7    1  0.5408841E-013  0.5052886E+02  0.7816164E-02  0.1300439E+00
        -11   -1    0    0    0    0  0.00000000000E+00  0.00000000000E+00  0.45593999997E+02  0.45594000000E+02  0.51100000000E-03 0.  1.
         11   -1    0    0    0    0 -0.00000000000E+00 -0.00000000000E+00 -0.45593999997E+02  0.45594000000E+02  0.51100000000E-03 0. -1.
    9900012    2    1    2    0    0  0.16803566823E+02  0.14638907970E+02  0.34007466680E+02  0.50528864809E+02  0.30000015073E+02 0.  0.
         12    1    1    2    0    0 -0.16803566823E+02 -0.14638907970E+02 -0.34007466680E+02  0.40659135191E+02  0.00000000000E+00 0. -1.
         11    1    3    3    0    0  0.47245717953E+01  0.87522819843E+01  0.94792459501E+01  0.13739727895E+02  0.51100000000E-03 0. -1.
        -11    1    3    3    0    0  0.11517417893E+02  0.10284192745E+02  0.42260862084E+01  0.16008602070E+02  0.51100000000E-03 0.  1.
         12    1    3    3    0    0  0.56157713436E+00 -0.43975667588E+01  0.20302134521E+02  0.20780534844E+02  0.00000000000E+00 0. -1.
</event>
<event>
 7    1  0.5408841E-013  0.5052886E+02  0.7816164E-02  0.1300439E+00
        -11   -1    0    0    0    0  0.00000000000E+00  0.00000000000E+00  0.45593999997E+02  0.45594000000E+02  0.51100000000E-03 0.  1.
         11   -1    0    0    0    0 -0.00000000000E+00 -0.00000000000E+00 -0.45593999997E+02  0.45594000000E+02  0.51100000000E-03 0. -1.
    9900012    2    1    2    0    0  0.33356703710E+02  0.23112214451E+02  0.25142672967E+01  0.50528859831E+02  0.29999999943E+02 0.  0.
         12    1    1    2    0    0 -0.33356703710E+02 -0.23112214451E+02 -0.25142672967E+01  0.40659140169E+02  0.00000000000E+00 0. -1.
         11    1    3    3    0    0  0.49788628082E+00  0.33397646746E+01  0.12496723633E+01  0.36004999802E+01  0.51100000000E-03 0. -1.
        -11    1    3    3    0    0  0.39113698229E+01  0.13233514947E+02 -0.78594182419E+01  0.15880654493E+02  0.51100000000E-03 0.  1.
        -12    1    3    3    0    0  0.28947447606E+02  0.65389348291E+01  0.91240131753E+01  0.31047705358E+02  0.00000000000E+00 0.  1.
</event>
<event>
 7    1  0.5408841E-013  0.5052890E+02  0.7816164E-02  0.1300439E+00
        -11   -1    0    0    0    0  0.00000000000E+00  0.00000000000E+00  0.45593999997E+02  0.45594000000E+02  0.51100000000E-03 0.  1.
         11   -1    0    0    0    0 -0.00000000000E+00 -0.00000000000E+00 -0.45593999997E+02  0.45594000000E+02  0.51100000000E-03 0. -1.
    9900012    2    1    2    0    0 -0.19187890310E+02 -0.77921654824E+01  0.34989559800E+02  0.50528901727E+02  0.30000127288E+02 0.  0.
         12    1    1    2    0    0  0.19187890310E+02  0.77921654824E+01 -0.34989559800E+02  0.40659098273E+02  0.00000000000E+00 0. -1.
         11    1    3    3    0    0 -0.61185634377E+01  0.28290648880E+01  0.63619163459E+01  0.92690024563E+01  0.51100000000E-03 0.  1.
        -11    1    3    3    0    0 -0.17673236162E+02 -0.29635878959E+00  0.21752611333E+02  0.28028685396E+02  0.51100000000E-03 0. -1.
         12    1    3    3    0    0  0.46039092905E+01 -0.10324871581E+02  0.68750321211E+01  0.13231213874E+02  0.00000000000E+00 0. -1.
</event>
<event>
 7    1  0.5408841E-013  0.5052879E+02  0.7816164E-02  0.1300439E+00
        -11   -1    0    0    0    0  0.00000000000E+00  0.00000000000E+00  0.45593999997E+02  0.45594000000E+02  0.51100000000E-03 0. -1.
         11   -1    0    0    0    0 -0.00000000000E+00 -0.00000000000E+00 -0.45593999997E+02  0.45594000000E+02  0.51100000000E-03 0.  1.
    9900012    2    1    2    0    0  0.23916057560E+02  0.86552225275E+01 -0.31721921865E+02  0.50528794240E+02  0.29999800571E+02 0.  0.
         12    1    1    2    0    0 -0.23916057560E+02 -0.86552225275E+01  0.31721921865E+02  0.40659205760E+02  0.00000000000E+00 0. -1.
         11    1    3    3    0    0 -0.45263443491E-01  0.30936111240E+01 -0.20001004540E+02  0.20238889827E+02  0.51100000000E-03 0. -1.
        -11    1    3    3    0    0  0.70065498675E+01  0.14461150356E+01 -0.10624072378E+02  0.12808352895E+02  0.51100000000E-03 0.  1.
         12    1    3    3    0    0  0.16954771136E+02  0.41154963679E+01 -0.10968449476E+01  0.17481551518E+02  0.00000000000E+00 0. -1.
</event>
<event>
 7    1  0.5408841E-013  0.5052886E+02  0.7816164E-02  0.1300439E+00
        -11   -1    0    0    0    0  0.00000000000E+00  0.00000000000E+00  0.45593999997E+02  0.45594000000E+02  0.51100000000E-03 0. -1.
         11   -1    0    0    0    0 -0.00000000000E+00 -0.00000000000E+00 -0.45593999997E+02  0.45594000000E+02  0.51100000000E-03 0.  1.
    9900012    2    1    2    0    0  0.35554928429E+02  0.16083800395E+02 -0.11415970108E+02  0.50528856572E+02  0.29999990038E+02 0.  0.
         12    1    1    2    0    0 -0.35554928429E+02 -0.16083800395E+02  0.11415970108E+02  0.40659143428E+02  0.00000000000E+00 0. -1.
         11    1    3    3    0    0  0.25293646050E+02  0.70026440209E+01 -0.17974335052E+02  0.31810097055E+02  0.51100000000E-03 0. -1.
        -11    1    3    3    0    0  0.88640734558E+01  0.26848461297E+01 -0.26075975487E+00  0.92654299890E+01  0.51100000000E-03 0.  1.
         12    1    3    3    0    0  0.13972089232E+01  0.63963102444E+01  0.68191246991E+01  0.94533295287E+01  0.00000000000E+00 0. -1.
</event>
<event>
 7    1  0.5408841E-013  0.5052885E+02  0.7816164E-02  0.1300439E+00
        -11   -1    0    0    0    0  0.00000000000E+00  0.00000000000E+00  0.45593999997E+02  0.45594000000E+02  0.51100000000E-03 0.  1.
         11   -1    0    0    0    0 -0.00000000000E+00 -0.00000000000E+00 -0.45593999997E+02  0.45594000000E+02  0.51100000000E-03 0. -1.
    9900012    2    1    2    0    0  0.88151487694E+01  0.18593109381E+02  0.35067871230E+02  0.50528853958E+02  0.29999982091E+02 0.  0.
         12    1    1    2    0    0 -0.88151487694E+01 -0.18593109381E+02 -0.35067871230E+02  0.40659146042E+02  0.00000000000E+00 0. -1.
         11    1    3    3    0    0 -0.27204295816E-01 -0.97254397727E+00 -0.10997429557E+01  0.14683380712E+01  0.51100000000E-03 0. -1.
        -11    1    3    3    0    0 -0.87373565364E+01  0.51324440816E+01  0.14147824425E+02  0.17402422754E+02  0.51100000000E-03 0.  1.
        -12    1    3    3    0    0  0.17579709602E+02  0.14433209277E+02  0.22019789761E+02  0.31658093133E+02  0.00000000000E+00 0.  1.
</event>
<event>
 7    1  0.5408841E-013  0.5052885E+02  0.7816164E-02  0.1300439E+00
        -11   -1    0    0    0    0  0.00000000000E+00  0.00000000000E+00  0.45593999997E+02  0.45594000000E+02  0.51100000000E-03 0.  1.
         11   -1    0    0    0    0 -0.00000000000E+00 -0.00000000000E+00 -0.45593999997E+02  0.45594000000E+02  0.51100000000E-03 0. -1.
    9900012    2    1    2    0    0  0.28258034697E+02  0.23480539028E+02  0.17415910997E+02  0.50528853503E+02  0.29999980709E+02 0.  0.
         12    1    1    2    0    0 -0.28258034697E+02 -0.23480539028E+02 -0.17415910997E+02  0.40659146497E+02  0.00000000000E+00 0. -1.
         11    1    3    3    0    0  0.30506773939E+01 -0.75646834737E+00  0.12237310416E+01  0.33728911701E+01  0.51100000000E-03 0. -1.
        -11    1    3    3    0    0  0.22493920469E+02  0.32451186520E+01  0.11520661931E+02  0.25480049151E+02  0.51100000000E-03 0.  1.
         12    1    3    3    0    0  0.27134368336E+01  0.20991888723E+02  0.46715180244E+01  0.21675913182E+02  0.00000000000E+00 0. -1.
</event>
<event>
 7    1  0.5408841E-013  0.5052884E+02  0.7816164E-02  0.1300439E+00
        -11   -1    0    0    0    0  0.00000000000E+00  0.00000000000E+00  0.45593999997E+02  0.45594000000E+02  0.51100000000E-03 0. -1.
         11   -1    0    0    0    0 -0.00000000000E+00 -0.00000000000E+00 -0.45593999997E+02  0.45594000000E+02  0.51100000000E-03 0.  1.
    9900012    2    1    2    0    0  0.50149056851E+01 -0.33379207054E+02  0.22668182223E+02  0.50528840788E+02  0.29999942058E+02 0.  0.
         12    1    1    2    0    0 -0.50149056851E+01  0.33379207054E+02 -0.22668182223E+02  0.40659159212E+02  0.00000000000E+00 0. -1.
         11    1    3    3    0    0  0.79094098454E+01 -0.58747167778E+01  0.13099713694E+02  0.16391264760E+02  0.51100000000E-03 0. -1.
        -11    1    3    3    0    0 -0.36558525031E+01 -0.68239835991E+00 -0.27370172604E+01  0.46175955639E+01  0.51100000000E-03 0.  1.
         12    1    3    3    0    0  0.76134834284E+00 -0.26822091916E+02  0.12305485790E+02  0.29519980464E+02  0.00000000000E+00 0. -1.
</event>
<event>
 7    1  0.5408841E-013  0.5052886E+02  0.7816164E-02  0.1300439E+00
        -11   -1    0    0    0    0  0.00000000000E+00  0.00000000000E+00  0.45593999997E+02  0.45594000000E+02  0.51100000000E-03 0. -1.
         11   -1    0    0    0    0 -0.00000000000E+00 -0.00000000000E+00 -0.45593999997E+02  0.45594000000E+02  0.51100000000E-03 0.  1.
    9900012    2    1    2    0    0  0.96903988230E+01  0.33424323107E+02 -0.21025612978E+02  0.50528860737E+02  0.30000002696E+02 0.  0.
         12    1    1    2    0    0 -0.96903988230E+01 -0.33424323107E+02  0.21025612978E+02  0.40659139263E+02  0.00000000000E+00 0. -1.
         11    1    3    3    0    0  0.15218172810E+01 -0.14989337940E+01  0.22806887876E+01  0.31247835065E+01  0.51100000000E-03 0. -1.
        -11    1    3    3    0    0 -0.27350985634E+01  0.27201542405E+02 -0.19267281445E+02  0.33445968485E+02  0.51100000000E-03 0.  1.
         12    1    3    3    0    0  0.10903680105E+02  0.77217144959E+01 -0.40390203201E+01  0.13958108745E+02  0.00000000000E+00 0. -1.
</event>
<event>
 7    1  0.5408841E-013  0.5052884E+02  0.7816164E-02  0.1300439E+00
        -11   -1    0    0    0    0  0.00000000000E+00  0.00000000000E+00  0.45593999997E+02  0.45594000000E+02  0.51100000000E-03 0.  1.
         11   -1    0    0    0    0 -0.00000000000E+00 -0.00000000000E+00 -0.45593999997E+02  0.45594000000E+02  0.51100000000E-03 0. -1.
    9900012    2    1    2    0    0 -0.32510807547E+02  0.70458844571E+01  0.23378843153E+02  0.50528838643E+02  0.29999935539E+02 0.  0.
         12    1    1    2    0    0  0.32510807547E+02 -0.70458844571E+01 -0.23378843153E+02  0.40659161357E+02  0.00000000000E+00 0. -1.
         11    1    3    3    0    0 -0.14648821984E+01  0.15673342644E+01 -0.35865636948E+01  0.41792171455E+01  0.51100000000E-03 0. -1.
        -11    1    3    3    0    0 -0.10073571640E+02 -0.65710075962E+01  0.15397963990E+02  0.19538482073E+02  0.51100000000E-03 0.  1.
         12    1    3    3    0    0 -0.20972353708E+02  0.12049557789E+02  0.11567442857E+02  0.26811139424E+02  0.00000000000E+00 0. -1.
</event>
<event>
 7    1  0.5408841E-013  0.5052889E+02  0.7816164E-02  0.1300439E+00
        -11   -1    0    0    0    0  0.00000000000E+00  0.00000000000E+00  0.45593999997E+02  0.45594000000E+02  0.51100000000E-03 0.  1.
         11   -1    0    0    0    0 -0.00000000000E+00 -0.00000000000E+00 -0.45593999997E+02  0.45594000000E+02  0.51100000000E-03 0. -1.
    9900012    2    1    2    0    0  0.52888290301E+01 -0.15319444174E+02  0.37289487834E+02  0.50528892960E+02  0.30000100642E+02 0.  0.
         12    1    1    2    0    0 -0.52888290301E+01  0.15319444174E+02 -0.37289487834E+02  0.40659107040E+02  0.00000000000E+00 0. -1.
         11    1    3    3    0    0  0.30761419599E+01 -0.87053956979E+00  0.12941050826E+01  0.34489413921E+01  0.51100000000E-03 0. -1.
        -11    1    3    3    0    0  0.39463510525E+01 -0.20581938434E+02  0.16816332026E+02  0.26869665041E+02  0.51100000000E-03 0.  1.
        -12    1    3    3    0    0 -0.17336639823E+01  0.61330338303E+01  0.19179050726E+02  0.20210286528E+02  0.00000000000E+00 0.  1.
</event>
<event>
 7    1  0.5408841E-013  0.5052886E+02  0.7816164E-02  0.1300439E+00
        -11   -1    0    0    0    0  0.00000000000E+00  0.00000000000E+00  0.45593999997E+02  0.45594000000E+02  0.51100000000E-03 0.  1.
         11   -1    0    0    0    0 -0.00000000000E+00 -0.00000000000E+00 -0.45593999997E+02  0.45594000000E+02  0.51100000000E-03 0. -1.
    9900012    2    1    2    0    0  0.21647004731E+02 -0.53359130405E+01  0.34001484912E+02  0.50528858863E+02  0.29999996999E+02 0.  0.
         12    1    1    2    0    0 -0.21647004731E+02  0.53359130405E+01 -0.34001484912E+02  0.40659141137E+02  0.00000000000E+00 0. -1.
         11    1    3    3    0    0  0.70338214700E+01  0.21344544990E+01  0.11312443422E+02  0.13490808609E+02  0.51100000000E-03 0.  1.
        -11    1    3    3    0    0  0.14372872649E+02  0.60226089846E+00  0.24818132862E+02  0.28685918242E+02  0.51100000000E-03 0. -1.
         12    1    3    3    0    0  0.24031061235E+00 -0.80726284379E+01 -0.21290913715E+01  0.83521320125E+01  0.00000000000E+00 0. -1.
</event>
<event>
 7    1  0.5408841E-013  0.5052886E+02  0.7816164E-02  0.1300439E+00
        -11   -1    0    0    0    0  0.00000000000E+00  0.00000000000E+00  0.45593999997E+02  0.45594000000E+02  0.51100000000E-03 0.  1.
         11   -1    0    0    0    0 -0.00000000000E+00 -0.00000000000E+00 -0.45593999997E+02  0.45594000000E+02  0.51100000000E-03 0. -1.
    9900012    2    1    2    0    0  0.13546829242E+02 -0.22716501963E+02  0.30880566585E+02  0.50528862816E+02  0.30000009015E+02 0.  0.
         12    1    1    2    0    0 -0.13546829242E+02  0.22716501963E+02 -0.30880566585E+02  0.40659137184E+02  0.00000000000E+00 0. -1.
         11    1    3    3    0    0 -0.20921056340E+01 -0.11911931209E+01  0.77088305819E+01  0.80760086823E+01  0.51100000000E-03 0. -1.
        -11    1    3    3    0    0 -0.32808870424E+01 -0.29922201566E+01  0.13575578225E+02  0.14283344344E+02  0.51100000000E-03 0.  1.
        -12    1    3    3    0    0  0.18919821919E+02 -0.18533088686E+02  0.95961577777E+01  0.28169509789E+02  0.00000000000E+00 0.  1.
</event>
<event>
 7    1  0.5408841E-013  0.5052886E+02  0.7816164E-02  0.1300439E+00
        -11   -1    0    0    0    0  0.00000000000E+00  0.00000000000E+00  0.45593999997E+02  0.45594000000E+02  0.51100000000E-03 0. -1.
         11   -1    0    0    0    0 -0.00000000000E+00 -0.00000000000E+00 -0.45593999997E+02  0.45594000000E+02  0.51100000000E-03 0.  1.
    9900012    2    1    2    0    0  0.26290080241E+02 -0.12667503780E+02 -0.28311336532E+02  0.50528858994E+02  0.29999997398E+02 0.  0.
         12    1    1    2    0    0 -0.26290080241E+02  0.12667503780E+02  0.28311336532E+02  0.40659141006E+02  0.00000000000E+00 0. -1.
         11    1    3    3    0    0  0.15396592327E+02 -0.10651552398E+01 -0.16198972305E+01  0.15518172517E+02  0.51100000000E-03 0. -1.
        -11    1    3    3    0    0  0.14578104751E+02 -0.11604619615E+02 -0.19752753216E+02  0.27154366029E+02  0.51100000000E-03 0.  1.
         12    1    3    3    0    0 -0.36846168371E+01  0.22710739449E-02 -0.69386860859E+01  0.78563204487E+01  0.00000000000E+00 0. -1.
</event>
<event>
 7    1  0.5408841E-013  0.5052885E+02  0.7816164E-02  0.1300439E+00
        -11   -1    0    0    0    0  0.00000000000E+00  0.00000000000E+00  0.45593999997E+02  0.45594000000E+02  0.51100000000E-03 0.  1.
         11   -1    0    0    0    0 -0.00000000000E+00 -0.00000000000E+00 -0.45593999997E+02  0.45594000000E+02  0.51100000000E-03 0. -1.
    9900012    2    1    2    0    0 -0.23978078576E+02  0.24126341286E+02  0.22274143981E+02  0.50528854828E+02  0.29999984734E+02 0.  0.
         12    1    1    2    0    0  0.23978078576E+02 -0.24126341286E+02 -0.22274143981E+02  0.40659145172E+02  0.00000000000E+00 0. -1.
         11    1    3    3    0    0 -0.46783325025E+01  0.12190163014E+02  0.12283038195E+02  0.17926513796E+02  0.51100000000E-03 0. -1.
        -11    1    3    3    0    0 -0.14949876652E+02  0.17152458681E+02  0.11719367380E+02  0.25593929413E+02  0.51100000000E-03 0.  1.
         12    1    3    3    0    0 -0.43498694215E+01 -0.52162804088E+01 -0.17282615943E+01  0.70084116193E+01  0.00000000000E+00 0. -1.
</event>
<event>
 7    1  0.5408841E-013  0.5052886E+02  0.7816164E-02  0.1300439E+00
        -11   -1    0    0    0    0  0.00000000000E+00  0.00000000000E+00  0.45593999997E+02  0.45594000000E+02  0.51100000000E-03 0.  1.
         11   -1    0    0    0    0 -0.00000000000E+00 -0.00000000000E+00 -0.45593999997E+02  0.45594000000E+02  0.51100000000E-03 0. -1.
    9900012    2    1    2    0    0  0.22037301977E+02  0.17193046579E+02  0.29528327813E+02  0.50528859914E+02  0.30000000194E+02 0.  0.
         12    1    1    2    0    0 -0.22037301977E+02 -0.17193046579E+02 -0.29528327813E+02  0.40659140086E+02  0.00000000000E+00 0. -1.
         11    1    3    3    0    0  0.20463382826E+02  0.11663054369E+02  0.91899812912E+01  0.25283050257E+02  0.51100000000E-03 0. -1.
        -11    1    3    3    0    0  0.66138744109E+01  0.58971398691E+01  0.81006937029E+01  0.12005866570E+02  0.51100000000E-03 0.  1.
         12    1    3    3    0    0 -0.50399552601E+01 -0.36714765911E+00  0.12237652819E+02  0.13239943087E+02  0.00000000000E+00 0. -1.
</event>
<event>
 7    1  0.5408841E-013  0.5052886E+02  0.7816164E-02  0.1300439E+00
        -11   -1    0    0    0    0  0.00000000000E+00  0.00000000000E+00  0.45593999997E+02  0.45594000000E+02  0.51100000000E-03 0. -1.
         11   -1    0    0    0    0 -0.00000000000E+00 -0.00000000000E+00 -0.45593999997E+02  0.45594000000E+02  0.51100000000E-03 0.  1.
    9900012    2    1    2    0    0  0.17265585626E+02 -0.16660747007E+02 -0.32825059184E+02  0.50528862671E+02  0.30000008576E+02 0.  0.
         12    1    1    2    0    0 -0.17265585626E+02  0.16660747007E+02  0.32825059184E+02  0.40659137329E+02  0.00000000000E+00 0. -1.
         11    1    3    3    0    0  0.18389784154E+02 -0.74302881075E+00 -0.18402936627E+02  0.26026992331E+02  0.51100000000E-03 0. -1.
        -11    1    3    3    0    0  0.48785332014E+01 -0.10667639239E+02 -0.73477775705E+01  0.13841547912E+02  0.51100000000E-03 0.  1.
        -12    1    3    3    0    0 -0.60027317291E+01 -0.52500789580E+01 -0.70743449868E+01  0.10660322428E+02  0.00000000000E+00 0.  1.
</event>
<event>
 7    1  0.5408841E-013  0.5052887E+02  0.7816164E-02  0.1300439E+00
        -11   -1    0    0    0    0  0.00000000000E+00  0.00000000000E+00  0.45593999997E+02  0.45594000000E+02  0.51100000000E-03 0. -1.
         11   -1    0    0    0    0 -0.00000000000E+00 -0.00000000000E+00 -0.45593999997E+02  0.45594000000E+02  0.51100000000E-03 0.  1.
    9900012    2    1    2    0    0 -0.28411522668E+02 -0.28984424250E+02  0.24194093252E+01  0.50528868050E+02  0.30000024925E+02 0.  0.
         12    1    1    2    0    0  0.28411522668E+02  0.28984424250E+02 -0.24194093252E+01  0.40659131950E+02  0.00000000000E+00 0. -1.
         11    1    3    3    0    0 -0.19426455531E+02 -0.16309087353E+02 -0.53328599094E+00  0.25370413852E+02  0.51100000000E-03 0. -1.
        -11    1    3    3    0    0 -0.86286560257E+01 -0.96807728030E+01 -0.70154845156E+01  0.14744086615E+02  0.51100000000E-03 0.  1.
         12    1    3    3    0    0 -0.35641111101E+00 -0.29945640943E+01  0.99681798318E+01  0.10414367583E+02  0.00000000000E+00 0. -1.
</event>
<event>
 7    1  0.5408841E-013  0.5052885E+02  0.7816164E-02  0.1300439E+00
        -11   -1    0    0    0    0  0.00000000000E+00  0.00000000000E+00  0.45593999997E+02  0.45594000000E+02  0.51100000000E-03 0.  1.
         11   -1    0    0    0    0 -0.00000000000E+00 -0.00000000000E+00 -0.45593999997E+02  0.45594000000E+02  0.51100000000E-03 0. -1.
    9900012    2    1    2    0    0 -0.13603402425E+02  0.38315958571E+02 -0.30960661640E-01  0.50528853461E+02  0.29999980579E+02 0.  0.
         12    1    1    2    0    0  0.13603402425E+02 -0.38315958571E+02  0.30960661640E-01  0.40659146539E+02  0.00000000000E+00 0. -1.
         11    1    3    3    0    0 -0.78340608829E+01  0.13734349196E+02 -0.10200379538E+02  0.18816285519E+02  0.51100000000E-03 0. -1.
        -11    1    3    3    0    0 -0.38911680652E+01  0.17015145766E+02 -0.16729453190E+01  0.17534398212E+02  0.51100000000E-03 0.  1.
        -12    1    3    3    0    0 -0.18781734768E+01  0.75664636090E+01  0.11842364195E+02  0.14178169730E+02  0.00000000000E+00 0.  1.
</event>
<event>
 7    1  0.5408841E-013  0.5052887E+02  0.7816164E-02  0.1300439E+00
        -11   -1    0    0    0    0  0.00000000000E+00  0.00000000000E+00  0.45593999997E+02  0.45594000000E+02  0.51100000000E-03 0.  1.
         11   -1    0    0    0    0 -0.00000000000E+00 -0.00000000000E+00 -0.45593999997E+02  0.45594000000E+02  0.51100000000E-03 0. -1.
    9900012    2    1    2    0    0 -0.19413148631E+02  0.13812374223E+02  0.32947117737E+02  0.50528873243E+02  0.30000040710E+02 0.  0.
         12    1    1    2    0    0  0.19413148631E+02 -0.13812374223E+02 -0.32947117737E+02  0.40659126757E+02  0.00000000000E+00 0. -1.
         11    1    3    3    0    0 -0.92913006274E+01  0.26798554990E+01  0.73393640656E+01  0.12139858236E+02  0.51100000000E-03 0. -1.
        -11    1    3    3    0    0 -0.14173195961E+01  0.10799748658E+01  0.25014963597E+02  0.25078348123E+02  0.51100000000E-03 0.  1.
        -12    1    3    3    0    0 -0.87045284080E+01  0.10052543858E+02  0.59279007367E+00  0.13310666884E+02  0.00000000000E+00 0.  1.
</event>
<event>
 7    1  0.5408841E-013  0.5052887E+02  0.7816164E-02  0.1300439E+00
        -11   -1    0    0    0    0  0.00000000000E+00  0.00000000000E+00  0.45593999997E+02  0.45594000000E+02  0.51100000000E-03 0. -1.
         11   -1    0    0    0    0 -0.00000000000E+00 -0.00000000000E+00 -0.45593999997E+02  0.45594000000E+02  0.51100000000E-03 0.  1.
    9900012    2    1    2    0    0 -0.16746331115E+02  0.36677537290E+02 -0.52425033970E+01  0.50528865856E+02  0.30000018256E+02 0.  0.
         12    1    1    2    0    0  0.16746331115E+02 -0.36677537290E+02  0.52425033970E+01  0.40659134144E+02  0.00000000000E+00 0. -1.
         11    1    3    3    0    0 -0.11445880919E+02  0.18204915531E+02 -0.11322051955E+02  0.24302592459E+02  0.51100000000E-03 0.  1.
        -11    1    3    3    0    0  0.20392309063E+01 -0.97049326069E+00  0.49177050085E+01  0.54114824835E+01  0.51100000000E-03 0. -1.
         12    1    3    3    0    0 -0.73396811019E+01  0.19443115020E+02  0.11618435492E+01  0.20814790914E+02  0.00000000000E+00 0. -1.
</event>
<event>
 7    1  0.5408841E-013  0.5052886E+02  0.7816164E-02  0.1300439E+00
        -11   -1    0    0    0    0  0.00000000000E+00  0.00000000000E+00  0.45593999997E+02  0.45594000000E+02  0.51100000000E-03 0.  1.
         11   -1    0    0    0    0 -0.00000000000E+00 -0.00000000000E+00 -0.45593999997E+02  0.45594000000E+02  0.51100000000E-03 0. -1.
    9900012    2    1    2    0    0 -0.23280572667E+02 -0.10839013601E+02  0.31522944062E+02  0.50528864718E+02  0.30000014797E+02 0.  0.
         12    1    1    2    0    0  0.23280572667E+02  0.10839013601E+02 -0.31522944062E+02  0.40659135282E+02  0.00000000000E+00 0. -1.
         11    1    3    3    0    0 -0.41381992113E-01  0.19283649015E+01 -0.60704523194E+00  0.20220800769E+01  0.51100000000E-03 0. -1.
        -11    1    3    3    0    0 -0.26449815895E+02 -0.12192871186E+02  0.18526999183E+02  0.34518235291E+02  0.51100000000E-03 0.  1.
         12    1    3    3    0    0  0.32106252202E+01 -0.57450731682E+00  0.13602990111E+02  0.13988549350E+02  0.00000000000E+00 0. -1.
</event>
<event>
 7    1  0.5408841E-013  0.5052886E+02  0.7816164E-02  0.1300439E+00
        -11   -1    0    0    0    0  0.00000000000E+00  0.00000000000E+00  0.45593999997E+02  0.45594000000E+02  0.51100000000E-03 0. -1.
         11   -1    0    0    0    0 -0.00000000000E+00 -0.00000000000E+00 -0.45593999997E+02  0.45594000000E+02  0.51100000000E-03 0.  1.
    9900012    2    1    2    0    0  0.12996748671E+02 -0.32960123629E+02 -0.19946934930E+02  0.50528862789E+02  0.30000008934E+02 0.  0.
         12    1    1    2    0    0 -0.12996748671E+02  0.32960123629E+02  0.19946934930E+02  0.40659137211E+02  0.00000000000E+00 0. -1.
         11    1    3    3    0    0  0.43108243235E+01 -0.96276076211E+01 -0.41925044427E+01  0.11351261103E+02  0.51100000000E-03 0. -1.
        -11    1    3    3    0    0  0.43879312264E+01 -0.19690463368E+02  0.22629815224E+01  0.20299984574E+02  0.51100000000E-03 0.  1.
         12    1    3    3    0    0  0.42979931211E+01 -0.36420526395E+01 -0.18017412010E+02  0.18877617112E+02  0.00000000000E+00 0. -1.
</event>
<event>
 7    1  0.5408841E-013  0.5052886E+02  0.7816164E-02  0.1300439E+00
        -11   -1    0    0    0    0  0.00000000000E+00  0.00000000000E+00  0.45593999997E+02  0.45594000000E+02  0.51100000000E-03 0.  1.
         11   -1    0    0    0    0 -0.00000000000E+00 -0.00000000000E+00 -0.45593999997E+02  0.45594000000E+02  0.51100000000E-03 0. -1.
    9900012    2    1    2    0    0  0.12338330279E+02 -0.76902187122E+01  0.37970935863E+02  0.50528857999E+02  0.29999994375E+02 0.  0.
         12    1    1    2    0    0 -0.12338330279E+02  0.76902187122E+01 -0.37970935863E+02  0.40659142001E+02  0.00000000000E+00 0. -1.
         11    1    3    3    0    0 -0.19437134857E+01  0.32411336582E+01  0.72196500333E+01  0.81490070787E+01  0.51100000000E-03 0.  1.
        -11    1    3    3    0    0  0.32094623222E+01  0.64016068590E+01  0.28280307692E+01  0.76992841919E+01  0.51100000000E-03 0. -1.
        -12    1    3    3    0    0  0.11072581443E+02 -0.17332959229E+02  0.27923255060E+02  0.34680566729E+02  0.00000000000E+00 0.  1.
</event>
<event>
 7    1  0.5408841E-013  0.5052874E+02  0.7816164E-02  0.1300439E+00
        -11   -1    0    0    0    0  0.00000000000E+00  0.00000000000E+00  0.45593999997E+02  0.45594000000E+02  0.51100000000E-03 0.  1.
         11   -1    0    0    0    0 -0.00000000000E+00 -0.00000000000E+00 -0.45593999997E+02  0.45594000000E+02  0.51100000000E-03 0. -1.
    9900012    2    1    2    0    0  0.55377927230E+01  0.24765964401E+02  0.31767209491E+02  0.50528736114E+02  0.29999623888E+02 0.  0.
         12    1    1    2    0    0 -0.55377927230E+01 -0.24765964401E+02 -0.31767209491E+02  0.40659263886E+02  0.00000000000E+00 0. -1.
         11    1    3    3    0    0 -0.61040853905E+01  0.73516794081E+01  0.87828727797E+01  0.12978671084E+02  0.51100000000E-03 0. -1.
        -11    1    3    3    0    0 -0.38907737536E+01 -0.51662275201E+00  0.94620167266E+01  0.10243767874E+02  0.51100000000E-03 0.  1.
         12    1    3    3    0    0  0.15532651867E+02  0.17930907745E+02  0.13522319985E+02  0.27306297155E+02  0.00000000000E+00 0. -1.
</event>
<event>
 7    1  0.5408841E-013  0.5052886E+02  0.7816164E-02  0.1300439E+00
        -11   -1    0    0    0    0  0.00000000000E+00  0.00000000000E+00  0.45593999997E+02  0.45594000000E+02  0.51100000000E-03 0.  1.
         11   -1    0    0    0    0 -0.00000000000E+00 -0.00000000000E+00 -0.45593999997E+02  0.45594000000E+02  0.51100000000E-03 0. -1.
    9900012    2    1    2    0    0 -0.33747636869E+02  0.79897088418E+01  0.21223276343E+02  0.50528857113E+02  0.29999991679E+02 0.  0.
         12    1    1    2    0    0  0.33747636869E+02 -0.79897088418E+01 -0.21223276343E+02  0.40659142887E+02  0.00000000000E+00 0. -1.
         11    1    3    3    0    0 -0.15661440932E+02  0.10912270376E+02 -0.19123692954E+01  0.19183730957E+02  0.51100000000E-03 0. -1.
        -11    1    3    3    0    0 -0.38318580274E+01  0.35847632388E+01  0.79431334568E+01  0.95198231493E+01  0.51100000000E-03 0.  1.
        -12    1    3    3    0    0 -0.14254337909E+02 -0.65073247733E+01  0.15192512182E+02  0.21825303007E+02  0.00000000000E+00 0.  1.
</event>
<event>
 7    1  0.5408841E-013  0.5052888E+02  0.7816164E-02  0.1300439E+00
        -11   -1    0    0    0    0  0.00000000000E+00  0.00000000000E+00  0.45593999997E+02  0.45594000000E+02  0.51100000000E-03 0.  1.
         11   -1    0    0    0    0 -0.00000000000E+00 -0.00000000000E+00 -0.45593999997E+02  0.45594000000E+02  0.51100000000E-03 0. -1.
    9900012    2    1    2    0    0 -0.35313970110E+02 -0.19369305744E+02  0.55603743909E+01  0.50528877367E+02  0.30000053243E+02 0.  0.
         12    1    1    2    0    0  0.35313970110E+02  0.19369305744E+02 -0.55603743909E+01  0.40659122633E+02  0.00000000000E+00 0. -1.
         11    1    3    3    0    0 -0.65467805842E+01 -0.82489048077E+01  0.20453742524E+01  0.10727922569E+02  0.51100000000E-03 0. -1.
        -11    1    3    3    0    0 -0.91162167865E+01 -0.16834743571E+02  0.25455639596E+01  0.19313049882E+02  0.51100000000E-03 0.  1.
         12    1    3    3    0    0 -0.19650972740E+02  0.57143426344E+01  0.96943617888E+00  0.20487904916E+02  0.00000000000E+00 0. -1.
</event>
<event>
 7    1  0.5408841E-013  0.5052887E+02  0.7816164E-02  0.1300439E+00
        -11   -1    0    0    0    0  0.00000000000E+00  0.00000000000E+00  0.45593999997E+02  0.45594000000E+02  0.51100000000E-03 0.  1.
         11   -1    0    0    0    0 -0.00000000000E+00 -0.00000000000E+00 -0.45593999997E+02  0.45594000000E+02  0.51100000000E-03 0. -1.
    9900012    2    1    2    0    0 -0.11982380516E+02  0.11373975803E+02  0.37151317836E+02  0.50528865905E+02  0.30000018405E+02 0.  0.
         12    1    1    2    0    0  0.11982380516E+02 -0.11373975803E+02 -0.37151317836E+02  0.40659134095E+02  0.00000000000E+00 0. -1.
         11    1    3    3    0    0  0.62804539330E+01 -0.63192433387E+00  0.10271137163E+02  0.12055691140E+02  0.51100000000E-03 0. -1.
        -11    1    3    3    0    0 -0.10704169945E+02  0.13022127495E+02  0.25730134371E+02  0.30760280781E+02  0.51100000000E-03 0.  1.
         12    1    3    3    0    0 -0.75586645041E+01 -0.10162273577E+01  0.11500463021E+01  0.77128939850E+01  0.00000000000E+00 0. -1.
</event>
<event>
 7    1  0.5408841E-013  0.5052887E+02  0.7816164E-02  0.1300439E+00
        -11   -1    0    0    0    0  0.00000000000E+00  0.00000000000E+00  0.45593999997E+02  0.45594000000E+02  0.51100000000E-03 0.  1.
         11   -1    0    0    0    0 -0.00000000000E+00 -0.00000000000E+00 -0.45593999997E+02  0.45594000000E+02  0.51100000000E-03 0. -1.
    9900012    2    1    2    0    0 -0.34196340526E+02  0.18846541831E+02  0.11339448709E+02  0.50528868906E+02  0.30000027526E+02 0.  0.
         12    1    1    2    0    0  0.34196340526E+02 -0.18846541831E+02 -0.11339448709E+02  0.40659131094E+02  0.00000000000E+00 0. -1.
         11    1    3    3    0    0  0.88535040645E+00  0.24585451869E+01  0.38130005281E+01  0.46224736956E+01  0.51100000000E-03 0. -1.
        -11    1    3    3    0    0 -0.39220568436E+01  0.13382819549E+02  0.14850084245E+01  0.14024537043E+02  0.51100000000E-03 0.  1.
         12    1    3    3    0    0 -0.31159634088E+02  0.30051770944E+01  0.60414397560E+01  0.31881858168E+02  0.00000000000E+00 0. -1.
</event>
<event>
 7    1  0.5408841E-013  0.5052886E+02  0.7816164E-02  0.1300439E+00
        -11   -1    0    0    0    0  0.00000000000E+00  0.00000000000E+00  0.45593999997E+02  0.45594000000E+02  0.51100000000E-03 0. -1.
         11   -1    0    0    0    0 -0.00000000000E+00 -0.00000000000E+00 -0.45593999997E+02  0.45594000000E+02  0.51100000000E-03 0.  1.
    9900012    2    1    2    0    0 -0.37214359261E+02 -0.14837423545E+02  0.69359766983E+01  0.50528862707E+02  0.30000008684E+02 0.  0.
         12    1    1    2    0    0  0.37214359261E+02  0.14837423545E+02 -0.69359766983E+01  0.40659137293E+02  0.00000000000E+00 0. -1.
         11    1    3    3    0    0 -0.14803478467E+01  0.38212697564E+01  0.21096059885E+01  0.46091181354E+01  0.51100000000E-03 0. -1.
        -11    1    3    3    0    0 -0.13760029852E+02  0.25848418354E+01 -0.31108995436E+01  0.14342159010E+02  0.51100000000E-03 0.  1.
         12    1    3    3    0    0 -0.21973981562E+02 -0.21243535137E+02  0.79372702535E+01  0.31577585561E+02  0.00000000000E+00 0. -1.
</event>
<event>
 7    1  0.5408841E-013  0.5052886E+02  0.7816164E-02  0.1300439E+00
        -11   -1    0    0    0    0  0.00000000000E+00  0.00000000000E+00  0.45593999997E+02  0.45594000000E+02  0.51100000000E-03 0.  1.
         11   -1    0    0    0    0 -0.00000000000E+00 -0.00000000000E+00 -0.45593999997E+02  0.45594000000E+02  0.51100000000E-03 0. -1.
    9900012    2    1    2    0    0 -0.38481954422E+02 -0.74042661281E+01  0.10838887769E+02  0.50528862514E+02  0.30000008096E+02 0.  0.
         12    1    1    2    0    0  0.38481954422E+02  0.74042661281E+01 -0.10838887769E+02  0.40659137486E+02  0.00000000000E+00 0. -1.
         11    1    3    3    0    0 -0.29266300128E+01 -0.57911247907E+01 -0.23369746390E+01  0.68966470330E+01  0.51100000000E-03 0. -1.
        -11    1    3    3    0    0 -0.34788944654E+02  0.21504701222E+01  0.58254496475E+01  0.35338803825E+02  0.51100000000E-03 0.  1.
         12    1    3    3    0    0 -0.76637975561E+00 -0.37636114596E+01  0.73504127605E+01  0.82934116561E+01  0.00000000000E+00 0. -1.
</event>
<event>
 7    1  0.5408841E-013  0.5052886E+02  0.7816164E-02  0.1300439E+00
        -11   -1    0    0    0    0  0.00000000000E+00  0.00000000000E+00  0.45593999997E+02  0.45594000000E+02  0.51100000000E-03 0.  1.
         11   -1    0    0    0    0 -0.00000000000E+00 -0.00000000000E+00 -0.45593999997E+02  0.45594000000E+02  0.51100000000E-03 0. -1.
    9900012    2    1    2    0    0 -0.21039344530E+02 -0.33590647205E+02  0.90653229175E+01  0.50528859852E+02  0.30000000007E+02 0.  0.
         12    1    1    2    0    0  0.21039344530E+02  0.33590647205E+02 -0.90653229175E+01  0.40659140148E+02  0.00000000000E+00 0. -1.
         11    1    3    3    0    0 -0.40608657855E+00 -0.36677114058E+01 -0.66021218358E+01  0.75634004430E+01  0.51100000000E-03 0. -1.
        -11    1    3    3    0    0 -0.52257241302E+00  0.16556277224E+01  0.29553851884E+01  0.34276065928E+01  0.51100000000E-03 0.  1.
        -12    1    3    3    0    0 -0.20110685539E+02 -0.31578563522E+02  0.12712059565E+02  0.39537852816E+02  0.00000000000E+00 0.  1.
</event>
<event>
 7    1  0.5408841E-013  0.5052886E+02  0.7816164E-02  0.1300439E+00
        -11   -1    0    0    0    0  0.00000000000E+00  0.00000000000E+00  0.45593999997E+02  0.45594000000E+02  0.51100000000E-03 0. -1.
         11   -1    0    0    0    0 -0.00000000000E+00 -0.00000000000E+00 -0.45593999997E+02  0.45594000000E+02  0.51100000000E-03 0.  1.
    9900012    2    1    2    0    0 -0.10480875099E+02 -0.22628557451E+02 -0.32113321876E+02  0.50528858382E+02  0.29999995539E+02 0.  0.
         12    1    1    2    0    0  0.10480875099E+02  0.22628557451E+02  0.32113321876E+02  0.40659141618E+02  0.00000000000E+00 0. -1.
         11    1    3    3    0    0 -0.16936744106E+02 -0.13029485146E+02 -0.12928410022E+02  0.24975279179E+02  0.51100000000E-03 0.  1.
        -11    1    3    3    0    0  0.11849507072E+01  0.29913025898E+01 -0.40641751460E+01  0.51835817000E+01  0.51100000000E-03 0. -1.
        -12    1    3    3    0    0  0.52709183000E+01 -0.12590374895E+02 -0.15120736708E+02  0.20369997504E+02  0.00000000000E+00 0.  1.
</event>
<event>
 7    1  0.5408841E-013  0.5052885E+02  0.7816164E-02  0.1300439E+00
        -11   -1    0    0    0    0  0.00000000000E+00  0.00000000000E+00  0.45593999997E+02  0.45594000000E+02  0.51100000000E-03 0.  1.
         11   -1    0    0    0    0 -0.00000000000E+00 -0.00000000000E+00 -0.45593999997E+02  0.45594000000E+02  0.51100000000E-03 0. -1.
    9900012    2    1    2    0    0 -0.72597246520E+01 -0.23967506712E+02  0.32031567948E+02  0.50528851887E+02  0.29999975797E+02 0.  0.
         12    1    1    2    0    0  0.72597246520E+01  0.23967506712E+02 -0.32031567948E+02  0.40659148113E+02  0.00000000000E+00 0. -1.
         11    1    3    3    0    0 -0.50008801096E+01  0.15371596537E+01 -0.15663552551E+01  0.54612389361E+01  0.51100000000E-03 0. -1.
        -11    1    3    3    0    0 -0.56850030390E+01 -0.16687091813E+01  0.58272278895E+01  0.83102608276E+01  0.51100000000E-03 0.  1.
         12    1    3    3    0    0  0.34261584965E+01 -0.23835957184E+02  0.27770695314E+02  0.36757352124E+02  0.00000000000E+00 0. -1.
</event>
<event>
 7    1  0.5408841E-013  0.5052886E+02  0.7816164E-02  0.1300439E+00
        -11   -1    0    0    0    0  0.00000000000E+00  0.00000000000E+00  0.45593999997E+02  0.45594000000E+02  0.51100000000E-03 0.  1.
         11   -1    0    0    0    0 -0.00000000000E+00 -0.00000000000E+00 -0.45593999997E+02  0.45594000000E+02  0.51100000000E-03 0. -1.
    9900012    2    1    2    0    0  0.22385559002E+01 -0.50115463367E+01  0.40286954013E+02  0.50528863353E+02  0.30000010649E+02 0.  0.
         12    1    1    2    0    0 -0.22385559002E+01  0.50115463367E+01 -0.40286954013E+02  0.40659136647E+02  0.00000000000E+00 0. -1.
         11    1    3    3    0    0 -0.33857446272E+01 -0.15421436449E+02  0.17426438030E+02  0.23515201711E+02  0.51100000000E-03 0. -1.
        -11    1    3    3    0    0  0.13107106383E+01  0.76130082874E+01  0.73101216501E+01  0.10635494176E+02  0.51100000000E-03 0.  1.
        -12    1    3    3    0    0  0.43135898891E+01  0.27968818245E+01  0.15550394333E+02  0.16378167467E+02  0.00000000000E+00 0.  1.
</event>
<event>
 7    1  0.5408841E-013  0.5052886E+02  0.7816164E-02  0.1300439E+00
        -11   -1    0    0    0    0  0.00000000000E+00  0.00000000000E+00  0.45593999997E+02  0.45594000000E+02  0.51100000000E-03 0.  1.
         11   -1    0    0    0    0 -0.00000000000E+00 -0.00000000000E+00 -0.45593999997E+02  0.45594000000E+02  0.51100000000E-03 0. -1.
    9900012    2    1    2    0    0  0.28734942410E+02  0.39771813883E+01  0.28489487751E+02  0.50528858353E+02  0.29999995451E+02 0.  0.
         12    1    1    2    0    0 -0.28734942410E+02 -0.39771813883E+01 -0.28489487751E+02  0.40659141647E+02  0.00000000000E+00 0. -1.
         11    1    3    3    0    0  0.17863846737E+02  0.58806842701E+01  0.87602694746E+01  0.20747091104E+02  0.51100000000E-03 0. -1.
        -11    1    3    3    0    0  0.15074521433E+02 -0.74844751188E+00  0.20394588698E+02  0.25372044036E+02  0.51100000000E-03 0.  1.
         12    1    3    3    0    0 -0.42034257600E+01 -0.11550553700E+01 -0.66537042200E+00  0.44097232142E+01  0.00000000000E+00 0. -1.
</event>
<event>
 7    1  0.5408841E-013  0.5052888E+02  0.7816164E-02  0.1300439E+00
        -11   -1    0    0    0    0  0.00000000000E+00  0.00000000000E+00  0.45593999997E+02  0.45594000000E+02  0.51100000000E-03 0.  1.
         11   -1    0    0    0    0 -0.00000000000E+00 -0.00000000000E+00 -0.45593999997E+02  0.45594000000E+02  0.51100000000E-03 0. -1.
    9900012    2    1    2    0    0  0.23498889889E+02  0.21273115190E+02  0.25464104087E+02  0.50528882291E+02  0.30000068211E+02 0.  0.
         12    1    1    2    0    0 -0.23498889889E+02 -0.21273115190E+02 -0.25464104087E+02  0.40659117709E+02  0.00000000000E+00 0. -1.
         11    1    3    3    0    0 -0.16172673560E+01  0.47308979399E+01  0.13226578841E+01  0.51716895845E+01  0.51100000000E-03 0. -1.
        -11    1    3    3    0    0  0.98877046672E+01  0.15057270481E+02  0.24060191953E+02  0.30056296096E+02  0.51100000000E-03 0.  1.
        -12    1    3    3    0    0  0.15228452578E+02  0.14849467693E+01  0.81254249945E-01  0.15300896611E+02  0.00000000000E+00 0.  1.
</event>
<event>
 7    1  0.5408841E-013  0.5052886E+02  0.7816164E-02  0.1300439E+00
        -11   -1    0    0    0    0  0.00000000000E+00  0.00000000000E+00  0.45593999997E+02  0.45594000000E+02  0.51100000000E-03 0.  1.
         11   -1    0    0    0    0 -0.00000000000E+00 -0.00000000000E+00 -0.45593999997E+02  0.45594000000E+02  0.51100000000E-03 0. -1.
    9900012    2    1    2    0    0 -0.11891526556E+02  0.39771596645E+01  0.38677377627E+02  0.50528859048E+02  0.29999997563E+02 0.  0.
         12    1    1    2    0    0  0.11891526556E+02 -0.39771596645E+01 -0.38677377627E+02  0.40659140952E+02  0.00000000000E+00 0. -1.
         11    1    3    3    0    0  0.24939433737E+00 -0.73647873951E+01  0.80958558438E+01  0.10947382016E+02  0.51100000000E-03 0. -1.
        -11    1    3    3    0    0 -0.27308773194E+01  0.67747676676E+01  0.46491287172E-01  0.73046101597E+01  0.51100000000E-03 0.  1.
        -12    1    3    3    0    0 -0.94100435738E+01  0.45671793920E+01  0.30535030496E+02  0.32276866872E+02  0.00000000000E+00 0.  1.
</event>
<event>
 7    1  0.5408841E-013  0.5052886E+02  0.7816164E-02  0.1300439E+00
        -11   -1    0    0    0    0  0.00000000000E+00  0.00000000000E+00  0.45593999997E+02  0.45594000000E+02  0.51100000000E-03 0.  1.
         11   -1    0    0    0    0 -0.00000000000E+00 -0.00000000000E+00 -0.45593999997E+02  0.45594000000E+02  0.51100000000E-03 0. -1.
    9900012    2    1    2    0    0  0.78144150553E+01  0.31797378723E+02  0.24104509444E+02  0.50528858939E+02  0.29999997231E+02 0.  0.
         12    1    1    2    0    0 -0.78144150553E+01 -0.31797378723E+02 -0.24104509444E+02  0.40659141061E+02  0.00000000000E+00 0. -1.
         11    1    3    3    0    0 -0.13684820618E+01  0.12649732554E+02  0.29595700923E+01  0.13063212937E+02  0.51100000000E-03 0. -1.
        -11    1    3    3    0    0 -0.23092390795E+01  0.16052358179E+02  0.41894652724E+01  0.16749997246E+02  0.51100000000E-03 0.  1.
         12    1    3    3    0    0  0.11492136197E+02  0.30952879897E+01  0.16955474079E+02  0.20715648755E+02  0.00000000000E+00 0. -1.
</event>
<event>
 7    1  0.5408841E-013  0.5052888E+02  0.7816164E-02  0.1300439E+00
        -11   -1    0    0    0    0  0.00000000000E+00  0.00000000000E+00  0.45593999997E+02  0.45594000000E+02  0.51100000000E-03 0.  1.
         11   -1    0    0    0    0 -0.00000000000E+00 -0.00000000000E+00 -0.45593999997E+02  0.45594000000E+02  0.51100000000E-03 0. -1.
    9900012    2    1    2    0    0 -0.38578169150E+02 -0.99048696138E+01  0.81720578637E+01  0.50528879169E+02  0.30000058722E+02 0.  0.
         12    1    1    2    0    0  0.38578169150E+02  0.99048696138E+01 -0.81720578637E+01  0.40659120831E+02  0.00000000000E+00 0. -1.
         11    1    3    3    0    0 -0.49769153329E+01 -0.31508231556E+01  0.55054874177E+01  0.80627392836E+01  0.51100000000E-03 0. -1.
        -11    1    3    3    0    0 -0.23509200238E+02 -0.12435066949E+02  0.10382356589E+02  0.28550073809E+02  0.51100000000E-03 0.  1.
         12    1    3    3    0    0 -0.10092053579E+02  0.56810204911E+01 -0.77157861428E+01  0.13916066077E+02  0.00000000000E+00 0. -1.
</event>
<event>
 7    1  0.5408841E-013  0.5052886E+02  0.7816164E-02  0.1300439E+00
        -11   -1    0    0    0    0  0.00000000000E+00  0.00000000000E+00  0.45593999997E+02  0.45594000000E+02  0.51100000000E-03 0. -1.
         11   -1    0    0    0    0 -0.00000000000E+00 -0.00000000000E+00 -0.45593999997E+02  0.45594000000E+02  0.51100000000E-03 0.  1.
    9900012    2    1    2    0    0 -0.16799628640E+01  0.19162067945E+02 -0.35821202600E+02  0.50528859836E+02  0.29999999957E+02 0.  0.
         12    1    1    2    0    0  0.16799628640E+01 -0.19162067945E+02  0.35821202600E+02  0.40659140164E+02  0.00000000000E+00 0. -1.
         11    1    3    3    0    0  0.40920010575E+01 -0.31676495514E+01 -0.45219775007E+01  0.68721726633E+01  0.51100000000E-03 0. -1.
        -11    1    3    3    0    0 -0.10266101520E+02  0.44189650071E+01 -0.16801892557E+02  0.20179784090E+02  0.51100000000E-03 0.  1.
        -12    1    3    3    0    0  0.44941375990E+01  0.17910752490E+02 -0.14497332542E+02  0.23476903083E+02  0.00000000000E+00 0.  1.
</event>
<event>
 7    1  0.5408841E-013  0.5052885E+02  0.7816164E-02  0.1300439E+00
        -11   -1    0    0    0    0  0.00000000000E+00  0.00000000000E+00  0.45593999997E+02  0.45594000000E+02  0.51100000000E-03 0.  1.
         11   -1    0    0    0    0 -0.00000000000E+00 -0.00000000000E+00 -0.45593999997E+02  0.45594000000E+02  0.51100000000E-03 0. -1.
    9900012    2    1    2    0    0 -0.11341297981E+02 -0.31561610134E+02  0.22987082781E+02  0.50528852826E+02  0.29999978649E+02 0.  0.
         12    1    1    2    0    0  0.11341297981E+02  0.31561610134E+02 -0.22987082781E+02  0.40659147174E+02  0.00000000000E+00 0. -1.
         11    1    3    3    0    0  0.14234597977E+01 -0.17208849531E+01 -0.33168418419E+01  0.39986401292E+01  0.51100000000E-03 0. -1.
        -11    1    3    3    0    0  0.41865301667E+01 -0.18288704225E+01  0.60137838662E-01  0.45689625387E+01  0.51100000000E-03 0.  1.
        -12    1    3    3    0    0 -0.16951287946E+02 -0.28011854758E+02  0.26243786784E+02  0.41961250158E+02  0.00000000000E+00 0.  1.
</event>
<event>
 7    1  0.5408841E-013  0.5052891E+02  0.7816164E-02  0.1300439E+00
        -11   -1    0    0    0    0  0.00000000000E+00  0.00000000000E+00  0.45593999997E+02  0.45594000000E+02  0.51100000000E-03 0.  1.
         11   -1    0    0    0    0 -0.00000000000E+00 -0.00000000000E+00 -0.45593999997E+02  0.45594000000E+02  0.51100000000E-03 0. -1.
    9900012    2    1    2    0    0 -0.33071587057E+02 -0.40964034634E+01  0.23294871292E+02  0.50528912206E+02  0.30000159139E+02 0.  0.
         12    1    1    2    0    0  0.33071587057E+02  0.40964034634E+01 -0.23294871292E+02  0.40659087794E+02  0.00000000000E+00 0. -1.
         11    1    3    3    0    0 -0.16016316722E+02  0.47685975858E+01  0.17942351291E+02  0.24519174015E+02  0.51100000000E-03 0. -1.
        -11    1    3    3    0    0 -0.12821008825E+02  0.24626611251E+01  0.47803074261E+01  0.13903032276E+02  0.51100000000E-03 0.  1.
         12    1    3    3    0    0 -0.42342615089E+01 -0.11327662174E+02  0.57221257461E+00  0.12106705914E+02  0.00000000000E+00 0. -1.
</event>
<event>
 7    1  0.5408841E-013  0.5052885E+02  0.7816164E-02  0.1300439E+00
        -11   -1    0    0    0    0  0.00000000000E+00  0.00000000000E+00  0.45593999997E+02  0.45594000000E+02  0.51100000000E-03 0. -1.
         11   -1    0    0    0    0 -0.00000000000E+00 -0.00000000000E+00 -0.45593999997E+02  0.45594000000E+02  0.51100000000E-03 0.  1.
    9900012    2    1    2    0    0  0.39457848235E+02 -0.33218326809E+01 -0.92309149707E+01  0.50528854032E+02  0.29999982314E+02 0.  0.
         12    1    1    2    0    0 -0.39457848235E+02  0.33218326809E+01  0.92309149707E+01  0.40659145968E+02  0.00000000000E+00 0. -1.
         11    1    3    3    0    0  0.25081231527E+01 -0.70049042981E+01 -0.51030128931E+00  0.74578665609E+01  0.51100000000E-03 0. -1.
        -11    1    3    3    0    0  0.27014159262E+02 -0.42385507419E+01 -0.12130354920E+02  0.29914471812E+02  0.51100000000E-03 0.  1.
         12    1    3    3    0    0  0.99355658204E+01  0.79216223591E+01  0.34097412387E+01  0.13156515659E+02  0.00000000000E+00 0. -1.
</event>
<event>
 7    1  0.5408841E-013  0.5052886E+02  0.7816164E-02  0.1300439E+00
        -11   -1    0    0    0    0  0.00000000000E+00  0.00000000000E+00  0.45593999997E+02  0.45594000000E+02  0.51100000000E-03 0.  1.
         11   -1    0    0    0    0 -0.00000000000E+00 -0.00000000000E+00 -0.45593999997E+02  0.45594000000E+02  0.51100000000E-03 0. -1.
    9900012    2    1    2    0    0  0.23621649100E+02 -0.27243243124E+02  0.18788002119E+02  0.50528860489E+02  0.30000001943E+02 0.  0.
         12    1    1    2    0    0 -0.23621649100E+02  0.27243243124E+02 -0.18788002119E+02  0.40659139511E+02  0.00000000000E+00 0. -1.
         11    1    3    3    0    0  0.22544791466E+01  0.30342359646E+01 -0.37451201763E+01  0.53212018856E+01  0.51100000000E-03 0. -1.
        -11    1    3    3    0    0  0.94157134734E+00 -0.26029653185E+01 -0.15932248353E+01  0.31937987865E+01  0.51100000000E-03 0.  1.
        -12    1    3    3    0    0  0.20425598606E+02 -0.27674513770E+02  0.24126347131E+02  0.42013859817E+02  0.00000000000E+00 0.  1.
</event>
<event>
 7    1  0.5408841E-013  0.5052886E+02  0.7816164E-02  0.1300439E+00
        -11   -1    0    0    0    0  0.00000000000E+00  0.00000000000E+00  0.45593999997E+02  0.45594000000E+02  0.51100000000E-03 0.  1.
         11   -1    0    0    0    0 -0.00000000000E+00 -0.00000000000E+00 -0.45593999997E+02  0.45594000000E+02  0.51100000000E-03 0. -1.
    9900012    2    1    2    0    0 -0.95178403977E+01  0.35585971771E+02  0.17210897711E+02  0.50528859911E+02  0.30000000187E+02 0.  0.
         12    1    1    2    0    0  0.95178403977E+01 -0.35585971771E+02 -0.17210897711E+02  0.40659140089E+02  0.00000000000E+00 0. -1.
         11    1    3    3    0    0 -0.61669694865E+01  0.85379672062E+01  0.27509211177E+01  0.10885585144E+02  0.51100000000E-03 0. -1.
        -11    1    3    3    0    0 -0.11590703339E+02  0.20710495320E+02  0.26043526000E+01  0.23875754920E+02  0.51100000000E-03 0.  1.
         12    1    3    3    0    0  0.82398324279E+01  0.63375092452E+01  0.11855623993E+02  0.15767519848E+02  0.00000000000E+00 0. -1.
</event>
<event>
 7    1  0.5408841E-013  0.5052886E+02  0.7816164E-02  0.1300439E+00
        -11   -1    0    0    0    0  0.00000000000E+00  0.00000000000E+00  0.45593999997E+02  0.45594000000E+02  0.51100000000E-03 0.  1.
         11   -1    0    0    0    0 -0.00000000000E+00 -0.00000000000E+00 -0.45593999997E+02  0.45594000000E+02  0.51100000000E-03 0. -1.
    9900012    2    1    2    0    0 -0.31382347257E+02  0.25583860933E+02  0.37121471864E+01  0.50528859621E+02  0.29999999305E+02 0.  0.
         12    1    1    2    0    0  0.31382347257E+02 -0.25583860933E+02 -0.37121471864E+01  0.40659140379E+02  0.00000000000E+00 0. -1.
         11    1    3    3    0    0 -0.95779383005E+01  0.66283317999E+01 -0.63639372844E+01  0.13272956813E+02  0.51100000000E-03 0. -1.
        -11    1    3    3    0    0 -0.13672250319E+02 -0.15648613078E+01  0.30953992031E+01  0.14105343533E+02  0.51100000000E-03 0.  1.
        -12    1    3    3    0    0 -0.81321586376E+01  0.20520390441E+02  0.69806852676E+01  0.23150559275E+02  0.00000000000E+00 0.  1.
</event>
<event>
 7    1  0.5408841E-013  0.5052884E+02  0.7816164E-02  0.1300439E+00
        -11   -1    0    0    0    0  0.00000000000E+00  0.00000000000E+00  0.45593999997E+02  0.45594000000E+02  0.51100000000E-03 0.  1.
         11   -1    0    0    0    0 -0.00000000000E+00 -0.00000000000E+00 -0.45593999997E+02  0.45594000000E+02  0.51100000000E-03 0. -1.
    9900012    2    1    2    0    0  0.31605520671E+02  0.25557758498E+02  0.10293600277E+01  0.50528836969E+02  0.29999930451E+02 0.  0.
         12    1    1    2    0    0 -0.31605520671E+02 -0.25557758498E+02 -0.10293600277E+01  0.40659163031E+02  0.00000000000E+00 0. -1.
         11    1    3    3    0    0 -0.21527848711E+01  0.10373242530E+01  0.33762926392E+01  0.41364086541E+01  0.51100000000E-03 0. -1.
        -11    1    3    3    0    0  0.10390841634E+02  0.78520810604E+00  0.60409095934E+01  0.12044863245E+02  0.51100000000E-03 0.  1.
         12    1    3    3    0    0  0.23367463908E+02  0.23735226139E+02 -0.83878422049E+01  0.34347565070E+02  0.00000000000E+00 0. -1.
</event>
<event>
 7    1  0.5408841E-013  0.5052886E+02  0.7816164E-02  0.1300439E+00
        -11   -1    0    0    0    0  0.00000000000E+00  0.00000000000E+00  0.45593999997E+02  0.45594000000E+02  0.51100000000E-03 0. -1.
         11   -1    0    0    0    0 -0.00000000000E+00 -0.00000000000E+00 -0.45593999997E+02  0.45594000000E+02  0.51100000000E-03 0.  1.
    9900012    2    1    2    0    0  0.34267331358E+01 -0.33717420698E+02  0.22462385978E+02  0.50528859055E+02  0.29999997585E+02 0.  0.
         12    1    1    2    0    0 -0.34267331358E+01  0.33717420698E+02 -0.22462385978E+02  0.40659140945E+02  0.00000000000E+00 0. -1.
         11    1    3    3    0    0  0.26181157336E+01 -0.12070829212E+02  0.18951000776E+02  0.22620784216E+02  0.51100000000E-03 0. -1.
        -11    1    3    3    0    0 -0.96689149692E-01 -0.12944748580E+02  0.10533878407E+02  0.16689471506E+02  0.51100000000E-03 0.  1.
         12    1    3    3    0    0  0.90530655189E+00 -0.87018429070E+01 -0.70224932061E+01  0.11218603334E+02  0.00000000000E+00 0. -1.
</event>
<event>
 7    1  0.5408841E-013  0.5052887E+02  0.7816164E-02  0.1300439E+00
        -11   -1    0    0    0    0  0.00000000000E+00  0.00000000000E+00  0.45593999997E+02  0.45594000000E+02  0.51100000000E-03 0. -1.
         11   -1    0    0    0    0 -0.00000000000E+00 -0.00000000000E+00 -0.45593999997E+02  0.45594000000E+02  0.51100000000E-03 0.  1.
    9900012    2    1    2    0    0  0.23157724578E+02 -0.26248738304E+02 -0.20685456299E+02  0.50528873442E+02  0.30000041314E+02 0.  0.
         12    1    1    2    0    0 -0.23157724578E+02  0.26248738304E+02  0.20685456299E+02  0.40659126558E+02  0.00000000000E+00 0. -1.
         11    1    3    3    0    0  0.38556269241E+01  0.34822269734E+01  0.14114601632E+01  0.53836775280E+01  0.51100000000E-03 0. -1.
        -11    1    3    3    0    0  0.16013570590E+02 -0.15328415494E+02 -0.53314706120E+01  0.22799547007E+02  0.51100000000E-03 0.  1.
         12    1    3    3    0    0  0.32885270639E+01 -0.14402549783E+02 -0.16765445850E+02  0.22345648907E+02  0.00000000000E+00 0. -1.
</event>
<event>
 7    1  0.5408841E-013  0.5052893E+02  0.7816164E-02  0.1300439E+00
        -11   -1    0    0    0    0  0.00000000000E+00  0.00000000000E+00  0.45593999997E+02  0.45594000000E+02  0.51100000000E-03 0. -1.
         11   -1    0    0    0    0 -0.00000000000E+00 -0.00000000000E+00 -0.45593999997E+02  0.45594000000E+02  0.51100000000E-03 0.  1.
    9900012    2    1    2    0    0 -0.39370248582E+02 -0.68713557719E+01  0.74785238035E+01  0.50528925713E+02  0.30000200197E+02 0.  0.
         12    1    1    2    0    0  0.39370248582E+02  0.68713557719E+01 -0.74785238035E+01  0.40659074287E+02  0.00000000000E+00 0. -1.
         11    1    3    3    0    0 -0.10470165144E+02  0.46001358213E+01  0.56048454578E+01  0.12735772477E+02  0.51100000000E-03 0. -1.
        -11    1    3    3    0    0  0.84910007676E+00 -0.70625577779E+01 -0.21965967538E+01  0.74448459263E+01  0.51100000000E-03 0.  1.
         12    1    3    3    0    0 -0.29749183515E+02 -0.44089338153E+01  0.40702750995E+01  0.30348307310E+02  0.00000000000E+00 0. -1.
</event>
<event>
 7    1  0.5408841E-013  0.5052885E+02  0.7816164E-02  0.1300439E+00
        -11   -1    0    0    0    0  0.00000000000E+00  0.00000000000E+00  0.45593999997E+02  0.45594000000E+02  0.51100000000E-03 0.  1.
         11   -1    0    0    0    0 -0.00000000000E+00 -0.00000000000E+00 -0.45593999997E+02  0.45594000000E+02  0.51100000000E-03 0. -1.
    9900012    2    1    2    0    0 -0.75596644914E+01 -0.13945652628E+02  0.37437099484E+02  0.50528853769E+02  0.29999981517E+02 0.  0.
         12    1    1    2    0    0  0.75596644914E+01  0.13945652628E+02 -0.37437099484E+02  0.40659146231E+02  0.00000000000E+00 0. -1.
         11    1    3    3    0    0  0.42487996657E+01 -0.43281611898E+01  0.13301444119E+02  0.14618949819E+02  0.51100000000E-03 0. -1.
        -11    1    3    3    0    0  0.60438823817E+01 -0.29807752903E+01  0.10536073605E+02  0.12506893413E+02  0.51100000000E-03 0.  1.
         12    1    3    3    0    0 -0.17852346539E+02 -0.66367161479E+01  0.13599581760E+02  0.23403010537E+02  0.00000000000E+00 0. -1.
</event>
<event>
 7    1  0.5408841E-013  0.5052887E+02  0.7816164E-02  0.1300439E+00
        -11   -1    0    0    0    0  0.00000000000E+00  0.00000000000E+00  0.45593999997E+02  0.45594000000E+02  0.51100000000E-03 0. -1.
         11   -1    0    0    0    0 -0.00000000000E+00 -0.00000000000E+00 -0.45593999997E+02  0.45594000000E+02  0.51100000000E-03 0.  1.
    9900012    2    1    2    0    0 -0.14490713647E+02 -0.21130844693E+02 -0.31570109236E+02  0.50528866013E+02  0.30000018732E+02 0.  0.
         12    1    1    2    0    0  0.14490713647E+02  0.21130844693E+02  0.31570109236E+02  0.40659133987E+02  0.00000000000E+00 0. -1.
         11    1    3    3    0    0 -0.12587026389E+02 -0.15720868523E+02 -0.38168710495E+01  0.20497498513E+02  0.51100000000E-03 0. -1.
        -11    1    3    3    0    0 -0.28906119352E+01  0.20571511066E+01 -0.55669231758E+01  0.66013742465E+01  0.51100000000E-03 0.  1.
        -12    1    3    3    0    0  0.98692467713E+00 -0.74671272767E+01 -0.22186315011E+02  0.23429993253E+02  0.00000000000E+00 0.  1.
</event>
<event>
 7    1  0.5408841E-013  0.5052887E+02  0.7816164E-02  0.1300439E+00
        -11   -1    0    0    0    0  0.00000000000E+00  0.00000000000E+00  0.45593999997E+02  0.45594000000E+02  0.51100000000E-03 0.  1.
         11   -1    0    0    0    0 -0.00000000000E+00 -0.00000000000E+00 -0.45593999997E+02  0.45594000000E+02  0.51100000000E-03 0. -1.
    9900012    2    1    2    0    0  0.32766212336E+02 -0.17007192685E+02  0.17038073529E+02  0.50528865437E+02  0.30000016982E+02 0.  0.
         12    1    1    2    0    0 -0.32766212336E+02  0.17007192685E+02 -0.17038073529E+02  0.40659134563E+02  0.00000000000E+00 0. -1.
         11    1    3    3    0    0 -0.22679194923E+01 -0.50746998529E+01  0.84422273520E+01  0.10107781178E+02  0.51100000000E-03 0. -1.
        -11    1    3    3    0    0  0.14257168703E+01  0.13179244546E+01 -0.19856608446E+01  0.27771285014E+01  0.51100000000E-03 0.  1.
        -12    1    3    3    0    0  0.33608414958E+02 -0.13250417286E+02  0.10581507022E+02  0.37643955758E+02  0.00000000000E+00 0.  1.
</event>
<event>
 7    1  0.5408841E-013  0.5052889E+02  0.7816164E-02  0.1300439E+00
        -11   -1    0    0    0    0  0.00000000000E+00  0.00000000000E+00  0.45593999997E+02  0.45594000000E+02  0.51100000000E-03 0.  1.
         11   -1    0    0    0    0 -0.00000000000E+00 -0.00000000000E+00 -0.45593999997E+02  0.45594000000E+02  0.51100000000E-03 0. -1.
    9900012    2    1    2    0    0  0.20987475488E+01  0.27809175903E+02  0.29587299839E+02  0.50528888875E+02  0.30000088225E+02 0.  0.
         12    1    1    2    0    0 -0.20987475488E+01 -0.27809175903E+02 -0.29587299839E+02  0.40659111125E+02  0.00000000000E+00 0. -1.
         11    1    3    3    0    0  0.95765172163E+01  0.91532383972E+01  0.20656841397E+01  0.13407404908E+02  0.51100000000E-03 0. -1.
        -11    1    3    3    0    0 -0.53035822272E+01  0.51473322901E+01  0.12434464948E+01  0.74946096357E+01  0.51100000000E-03 0.  1.
        -12    1    3    3    0    0 -0.21741874403E+01  0.13508605216E+02  0.26278169204E+02  0.29626874331E+02  0.00000000000E+00 0.  1.
</event>
<event>
 7    1  0.5408841E-013  0.5052885E+02  0.7816164E-02  0.1300439E+00
        -11   -1    0    0    0    0  0.00000000000E+00  0.00000000000E+00  0.45593999997E+02  0.45594000000E+02  0.51100000000E-03 0.  1.
         11   -1    0    0    0    0 -0.00000000000E+00 -0.00000000000E+00 -0.45593999997E+02  0.45594000000E+02  0.51100000000E-03 0. -1.
    9900012    2    1    2    0    0 -0.13577518652E+02 -0.34367099840E+02  0.16962306849E+02  0.50528850749E+02  0.29999972337E+02 0.  0.
         12    1    1    2    0    0  0.13577518652E+02  0.34367099840E+02 -0.16962306849E+02  0.40659149251E+02  0.00000000000E+00 0. -1.
         11    1    3    3    0    0 -0.33555637098E+00 -0.17759432403E+02  0.83986713742E+01  0.19648097070E+02  0.51100000000E-03 0. -1.
        -11    1    3    3    0    0  0.18774666269E+01 -0.13050456682E+02  0.78227472974E+01  0.15330840684E+02  0.51100000000E-03 0.  1.
        -12    1    3    3    0    0 -0.15119428908E+02 -0.35572107548E+01  0.74088817697E+00  0.15549912995E+02  0.00000000000E+00 0.  1.
</event>
<event>
 7    1  0.5408841E-013  0.5052886E+02  0.7816164E-02  0.1300439E+00
        -11   -1    0    0    0    0  0.00000000000E+00  0.00000000000E+00  0.45593999997E+02  0.45594000000E+02  0.51100000000E-03 0. -1.
         11   -1    0    0    0    0 -0.00000000000E+00 -0.00000000000E+00 -0.45593999997E+02  0.45594000000E+02  0.51100000000E-03 0.  1.
    9900012    2    1    2    0    0 -0.22865013420E+02 -0.31965190695E+02 -0.10420334718E+02  0.50528860431E+02  0.30000001766E+02 0.  0.
         12    1    1    2    0    0  0.22865013420E+02  0.31965190695E+02  0.10420334718E+02  0.40659139569E+02  0.00000000000E+00 0. -1.
         11    1    3    3    0    0 -0.16817775127E+01  0.13902553598E+01 -0.35006467298E+01  0.41250107098E+01  0.51100000000E-03 0. -1.
        -11    1    3    3    0    0  0.42471188561E+01 -0.68304977696E+01 -0.52794936946E+01  0.96211627307E+01  0.51100000000E-03 0.  1.
        -12    1    3    3    0    0 -0.25430354763E+02 -0.26524948285E+02 -0.16401942940E+01  0.36782686990E+02  0.00000000000E+00 0.  1.
</event>
<event>
 7    1  0.5408841E-013  0.5052886E+02  0.7816164E-02  0.1300439E+00
        -11   -1    0    0    0    0  0.00000000000E+00  0.00000000000E+00  0.45593999997E+02  0.45594000000E+02  0.51100000000E-03 0. -1.
         11   -1    0    0    0    0 -0.00000000000E+00 -0.00000000000E+00 -0.45593999997E+02  0.45594000000E+02  0.51100000000E-03 0.  1.
    9900012    2    1    2    0    0  0.33686158167E+02  0.70153264924E+01 -0.21660886042E+02  0.50528855371E+02  0.29999986386E+02 0.  0.
         12    1    1    2    0    0 -0.33686158167E+02 -0.70153264924E+01  0.21660886042E+02  0.40659144629E+02  0.00000000000E+00 0. -1.
         11    1    3    3    0    0  0.70135964459E+01 -0.22786366537E+01  0.48515486423E+01  0.88272444509E+01  0.51100000000E-03 0. -1.
        -11    1    3    3    0    0  0.10876218609E+01  0.36316982404E+01  0.77523795629E+00  0.38695151597E+01  0.51100000000E-03 0.  1.
        -12    1    3    3    0    0  0.25584939860E+02  0.56622649058E+01 -0.27287672641E+02  0.37832095761E+02  0.00000000000E+00 0.  1.
</event>
<event>
 7    1  0.5408841E-013  0.5052886E+02  0.7816164E-02  0.1300439E+00
        -11   -1    0    0    0    0  0.00000000000E+00  0.00000000000E+00  0.45593999997E+02  0.45594000000E+02  0.51100000000E-03 0.  1.
         11   -1    0    0    0    0 -0.00000000000E+00 -0.00000000000E+00 -0.45593999997E+02  0.45594000000E+02  0.51100000000E-03 0. -1.
    9900012    2    1    2    0    0  0.17193400333E+02 -0.36799790113E+02  0.18242551160E+01  0.50528862354E+02  0.30000007612E+02 0.  0.
         12    1    1    2    0    0 -0.17193400333E+02  0.36799790113E+02 -0.18242551160E+01  0.40659137646E+02  0.00000000000E+00 0. -1.
         11    1    3    3    0    0 -0.53432256832E+00 -0.56089654708E+01  0.27059036749E+01  0.62504327225E+01  0.51100000000E-03 0.  1.
        -11    1    3    3    0    0  0.17271322597E+02 -0.28098973496E+02 -0.10140562027E+02  0.34506258769E+02  0.51100000000E-03 0. -1.
         12    1    3    3    0    0  0.45640030370E+00 -0.30918511469E+01  0.92589134682E+01  0.97721708623E+01  0.00000000000E+00 0. -1.
</event>
<event>
 7    1  0.5408841E-013  0.5052887E+02  0.7816164E-02  0.1300439E+00
        -11   -1    0    0    0    0  0.00000000000E+00  0.00000000000E+00  0.45593999997E+02  0.45594000000E+02  0.51100000000E-03 0. -1.
         11   -1    0    0    0    0 -0.00000000000E+00 -0.00000000000E+00 -0.45593999997E+02  0.45594000000E+02  0.51100000000E-03 0.  1.
    9900012    2    1    2    0    0 -0.28526204698E+02  0.28515933768E+02 -0.51246690600E+01  0.50528867371E+02  0.30000022861E+02 0.  0.
         12    1    1    2    0    0  0.28526204698E+02 -0.28515933768E+02  0.51246690600E+01  0.40659132629E+02  0.00000000000E+00 0. -1.
         11    1    3    3    0    0 -0.21871434303E+02  0.47216110683E+01 -0.52428751411E+01  0.22981318273E+02  0.51100000000E-03 0. -1.
        -11    1    3    3    0    0  0.21680037529E+01  0.16814837303E+01  0.23804128631E+01  0.36323537090E+01  0.51100000000E-03 0.  1.
        -12    1    3    3    0    0 -0.88227741477E+01  0.22112838970E+02 -0.22622067820E+01  0.23915195389E+02  0.00000000000E+00 0.  1.
</event>
<event>
 7    1  0.5408841E-013  0.5052886E+02  0.7816164E-02  0.1300439E+00
        -11   -1    0    0    0    0  0.00000000000E+00  0.00000000000E+00  0.45593999997E+02  0.45594000000E+02  0.51100000000E-03 0.  1.
         11   -1    0    0    0    0 -0.00000000000E+00 -0.00000000000E+00 -0.45593999997E+02  0.45594000000E+02  0.51100000000E-03 0. -1.
    9900012    2    1    2    0    0 -0.36856628368E+02  0.92267917776E+01  0.14478280350E+02  0.50528863966E+02  0.30000012511E+02 0.  0.
         12    1    1    2    0    0  0.36856628368E+02 -0.92267917776E+01 -0.14478280350E+02  0.40659136034E+02  0.00000000000E+00 0. -1.
         11    1    3    3    0    0  0.19351858878E+01  0.42839922846E+01 -0.15592238743E+01  0.49526471372E+01  0.51100000000E-03 0.  1.
        -11    1    3    3    0    0  0.59324506994E+00 -0.15893502921E+01 -0.12131173483E+01  0.20855761856E+01  0.51100000000E-03 0. -1.
        -12    1    3    3    0    0 -0.39385059326E+02  0.65321497852E+01  0.17250621572E+02  0.43490640643E+02  0.00000000000E+00 0.  1.
</event>
<event>
 7    1  0.5408841E-013  0.5052888E+02  0.7816164E-02  0.1300439E+00
        -11   -1    0    0    0    0  0.00000000000E+00  0.00000000000E+00  0.45593999997E+02  0.45594000000E+02  0.51100000000E-03 0. -1.
         11   -1    0    0    0    0 -0.00000000000E+00 -0.00000000000E+00 -0.45593999997E+02  0.45594000000E+02  0.51100000000E-03 0.  1.
    9900012    2    1    2    0    0 -0.13655108158E+02  0.38256253683E+02 -0.17779438982E+01  0.50528880369E+02  0.30000062370E+02 0.  0.
         12    1    1    2    0    0  0.13655108158E+02 -0.38256253683E+02  0.17779438982E+01  0.40659119631E+02  0.00000000000E+00 0. -1.
         11    1    3    3    0    0 -0.20777217186E+00 -0.26565687202E+01 -0.93452466556E+00  0.28238029769E+01  0.51100000000E-03 0. -1.
        -11    1    3    3    0    0  0.26131343397E+01  0.57396192057E+01  0.56859014295E+01  0.84912410772E+01  0.51100000000E-03 0.  1.
        -12    1    3    3    0    0 -0.16060470326E+02  0.35173203197E+02 -0.65293206622E+01  0.39213836315E+02  0.00000000000E+00 0.  1.
</event>
<event>
 7    1  0.5408841E-013  0.5052886E+02  0.7816164E-02  0.1300439E+00
        -11   -1    0    0    0    0  0.00000000000E+00  0.00000000000E+00  0.45593999997E+02  0.45594000000E+02  0.51100000000E-03 0.  1.
         11   -1    0    0    0    0 -0.00000000000E+00 -0.00000000000E+00 -0.45593999997E+02  0.45594000000E+02  0.51100000000E-03 0. -1.
    9900012    2    1    2    0    0  0.32050021815E+02 -0.14615526605E+02  0.20306351741E+02  0.50528862806E+02  0.30000008985E+02 0.  0.
         12    1    1    2    0    0 -0.32050021815E+02  0.14615526605E+02 -0.20306351741E+02  0.40659137194E+02  0.00000000000E+00 0. -1.
         11    1    3    3    0    0 -0.22008583430E+01 -0.13993160710E+01  0.20534264968E+00  0.26161094735E+01  0.51100000000E-03 0. -1.
        -11    1    3    3    0    0  0.19371992087E+01 -0.10918766407E+02  0.55228858308E+01  0.12388481294E+02  0.51100000000E-03 0.  1.
        -12    1    3    3    0    0  0.32313680950E+02 -0.22974441275E+01  0.14578123261E+02  0.35524272038E+02  0.00000000000E+00 0.  1.
</event>
<event>
 7    1  0.5408841E-013  0.5052887E+02  0.7816164E-02  0.1300439E+00
        -11   -1    0    0    0    0  0.00000000000E+00  0.00000000000E+00  0.45593999997E+02  0.45594000000E+02  0.51100000000E-03 0. -1.
         11   -1    0    0    0    0 -0.00000000000E+00 -0.00000000000E+00 -0.45593999997E+02  0.45594000000E+02  0.51100000000E-03 0.  1.
    9900012    2    1    2    0    0  0.38720527348E+02 -0.30319258085E+01 -0.12028840169E+02  0.50528870545E+02  0.30000032510E+02 0.  0.
         12    1    1    2    0    0 -0.38720527348E+02  0.30319258085E+01  0.12028840169E+02  0.40659129455E+02  0.00000000000E+00 0. -1.
         11    1    3    3    0    0  0.32792348012E+00 -0.36023624425E+00  0.18172446054E+01  0.18814043100E+01  0.51100000000E-03 0. -1.
        -11    1    3    3    0    0  0.17035939019E+02 -0.99936875560E+01  0.36492338254E+01  0.20085166591E+02  0.51100000000E-03 0.  1.
         12    1    3    3    0    0  0.21356664849E+02  0.73219979917E+01 -0.17495318600E+02  0.28562299644E+02  0.00000000000E+00 0. -1.
</event>
<event>
 7    1  0.5408841E-013  0.5052886E+02  0.7816164E-02  0.1300439E+00
        -11   -1    0    0    0    0  0.00000000000E+00  0.00000000000E+00  0.45593999997E+02  0.45594000000E+02  0.51100000000E-03 0.  1.
         11   -1    0    0    0    0 -0.00000000000E+00 -0.00000000000E+00 -0.45593999997E+02  0.45594000000E+02  0.51100000000E-03 0. -1.
    9900012    2    1    2    0    0 -0.21684131554E+02 -0.33776576331E+02 -0.64890164535E+01  0.50528855833E+02  0.29999987789E+02 0.  0.
         12    1    1    2    0    0  0.21684131554E+02  0.33776576331E+02  0.64890164535E+01  0.40659144167E+02  0.00000000000E+00 0. -1.
         11    1    3    3    0    0 -0.52934948057E+01 -0.15907790040E+02 -0.14587695499E+02  0.22223405037E+02  0.51100000000E-03 0. -1.
        -11    1    3    3    0    0  0.45274265187E+00 -0.42903006154E+01 -0.15930049623E+01  0.45988390220E+01  0.51100000000E-03 0.  1.
         12    1    3    3    0    0 -0.16843379400E+02 -0.13578485676E+02  0.96916840080E+01  0.23706611773E+02  0.00000000000E+00 0. -1.
</event>
<event>
 7    1  0.5408841E-013  0.5052889E+02  0.7816164E-02  0.1300439E+00
        -11   -1    0    0    0    0  0.00000000000E+00  0.00000000000E+00  0.45593999997E+02  0.45594000000E+02  0.51100000000E-03 0. -1.
         11   -1    0    0    0    0 -0.00000000000E+00 -0.00000000000E+00 -0.45593999997E+02  0.45594000000E+02  0.51100000000E-03 0.  1.
    9900012    2    1    2    0    0  0.53604962463E+00  0.37901780839E+02 -0.14708194412E+02  0.50528888809E+02  0.30000088025E+02 0.  0.
         12    1    1    2    0    0 -0.53604962463E+00 -0.37901780839E+02  0.14708194412E+02  0.40659111191E+02  0.00000000000E+00 0. -1.
         11    1    3    3    0    0 -0.36189503260E+01 -0.26547363878E+01  0.64066616093E+00  0.45337490162E+01  0.51100000000E-03 0. -1.
        -11    1    3    3    0    0 -0.53836446641E+01  0.19618054854E+02 -0.68077140627E+01  0.21452195159E+02  0.51100000000E-03 0.  1.
        -12    1    3    3    0    0  0.95386446147E+01  0.20938462373E+02 -0.85411465098E+01  0.24542944635E+02  0.00000000000E+00 0.  1.
</event>
<event>
 7    1  0.5408841E-013  0.5052884E+02  0.7816164E-02  0.1300439E+00
        -11   -1    0    0    0    0  0.00000000000E+00  0.00000000000E+00  0.45593999997E+02  0.45594000000E+02  0.51100000000E-03 0.  1.
         11   -1    0    0    0    0 -0.00000000000E+00 -0.00000000000E+00 -0.45593999997E+02  0.45594000000E+02  0.51100000000E-03 0. -1.
    9900012    2    1    2    0    0 -0.23559835385E+02  0.27061454715E+02  0.19125355067E+02  0.50528838903E+02  0.29999936331E+02 0.  0.
         12    1    1    2    0    0  0.23559835385E+02 -0.27061454715E+02 -0.19125355067E+02  0.40659161097E+02  0.00000000000E+00 0. -1.
         11    1    3    3    0    0  0.28351834907E-01 -0.43597555440E+01  0.60107112478E+01  0.74254240415E+01  0.51100000000E-03 0. -1.
        -11    1    3    3    0    0 -0.15118322761E+01  0.18795685619E+00 -0.15195299131E+01  0.21517286141E+01  0.51100000000E-03 0.  1.
        -12    1    3    3    0    0 -0.22076354944E+02  0.31233253402E+02  0.14634173732E+02  0.40951686248E+02  0.00000000000E+00 0.  1.
</event>
<event>
 7    1  0.5408841E-013  0.5052886E+02  0.7816164E-02  0.1300439E+00
        -11   -1    0    0    0    0  0.00000000000E+00  0.00000000000E+00  0.45593999997E+02  0.45594000000E+02  0.51100000000E-03 0.  1.
         11   -1    0    0    0    0 -0.00000000000E+00 -0.00000000000E+00 -0.45593999997E+02  0.45594000000E+02  0.51100000000E-03 0. -1.
    9900012    2    1    2    0    0  0.83832605547E+01  0.58417468690E+01  0.39354293983E+02  0.50528861803E+02  0.30000005936E+02 0.  0.
         12    1    1    2    0    0 -0.83832605547E+01 -0.58417468690E+01 -0.39354293983E+02  0.40659138197E+02  0.00000000000E+00 0. -1.
         11    1    3    3    0    0  0.40994153306E+01 -0.26342347604E+01  0.72678336067E+01  0.87501888220E+01  0.51100000000E-03 0.  1.
        -11    1    3    3    0    0 -0.21197967200E+01  0.97050943077E+01  0.96409368177E+00  0.99805746600E+01  0.51100000000E-03 0. -1.
         12    1    3    3    0    0  0.64036419441E+01 -0.12291126784E+01  0.31122366695E+02  0.31798098321E+02  0.00000000000E+00 0. -1.
</event>
<event>
 7    1  0.5408841E-013  0.5052886E+02  0.7816164E-02  0.1300439E+00
        -11   -1    0    0    0    0  0.00000000000E+00  0.00000000000E+00  0.45593999997E+02  0.45594000000E+02  0.51100000000E-03 0. -1.
         11   -1    0    0    0    0 -0.00000000000E+00 -0.00000000000E+00 -0.45593999997E+02  0.45594000000E+02  0.51100000000E-03 0.  1.
    9900012    2    1    2    0    0 -0.26790855642E+02 -0.10745192553E+02 -0.28634885215E+02  0.50528858834E+02  0.29999996913E+02 0.  0.
         12    1    1    2    0    0  0.26790855642E+02  0.10745192553E+02  0.28634885215E+02  0.40659141166E+02  0.00000000000E+00 0. -1.
         11    1    3    3    0    0  0.26539942900E-02 -0.51183551720E+01 -0.48382318211E+00  0.51411722246E+01  0.51100000000E-03 0. -1.
        -11    1    3    3    0    0  0.13194291648E+01 -0.38954329187E+01 -0.12512786099E+02  0.13171374536E+02  0.51100000000E-03 0.  1.
         12    1    3    3    0    0 -0.28112938801E+02 -0.17314044627E+01 -0.15638275934E+02  0.32216312074E+02  0.00000000000E+00 0. -1.
</event>
<event>
 7    1  0.5408841E-013  0.5052887E+02  0.7816164E-02  0.1300439E+00
        -11   -1    0    0    0    0  0.00000000000E+00  0.00000000000E+00  0.45593999997E+02  0.45594000000E+02  0.51100000000E-03 0.  1.
         11   -1    0    0    0    0 -0.00000000000E+00 -0.00000000000E+00 -0.45593999997E+02  0.45594000000E+02  0.51100000000E-03 0. -1.
    9900012    2    1    2    0    0 -0.20613122835E+02 -0.15822058111E+02  0.31271818626E+02  0.50528868233E+02  0.30000025480E+02 0.  0.
         12    1    1    2    0    0  0.20613122835E+02  0.15822058111E+02 -0.31271818626E+02  0.40659131767E+02  0.00000000000E+00 0. -1.
         11    1    3    3    0    0 -0.21029801517E+01  0.57623824989E+01  0.88490954326E+01  0.10767268355E+02  0.51100000000E-03 0. -1.
        -11    1    3    3    0    0 -0.72763636476E+00 -0.90940057249E+01  0.13447864612E+02  0.16250398693E+02  0.51100000000E-03 0.  1.
         12    1    3    3    0    0 -0.17782506319E+02 -0.12490434885E+02  0.89748585817E+01  0.23511201185E+02  0.00000000000E+00 0. -1.
</event>
<event>
 7    1  0.5408841E-013  0.5052882E+02  0.7816164E-02  0.1300439E+00
        -11   -1    0    0    0    0  0.00000000000E+00  0.00000000000E+00  0.45593999997E+02  0.45594000000E+02  0.51100000000E-03 0. -1.
         11   -1    0    0    0    0 -0.00000000000E+00 -0.00000000000E+00 -0.45593999997E+02  0.45594000000E+02  0.51100000000E-03 0.  1.
    9900012    2    1    2    0    0  0.21264400782E+02  0.29528502229E+02 -0.18140064563E+02  0.50528817435E+02  0.29999871074E+02 0.  0.
         12    1    1    2    0    0 -0.21264400782E+02 -0.29528502229E+02  0.18140064563E+02  0.40659182565E+02  0.00000000000E+00 0. -1.
         11    1    3    3    0    0  0.68018669338E+01  0.25944039593E+02 -0.74296987157E+01  0.27830900228E+02  0.51100000000E-03 0. -1.
        -11    1    3    3    0    0  0.13627912245E+02  0.61861823071E+01 -0.40585442432E+01  0.15506792877E+02  0.51100000000E-03 0.  1.
        -12    1    3    3    0    0  0.83462160258E+00 -0.26017196712E+01 -0.66518216047E+01  0.71911243298E+01  0.00000000000E+00 0.  1.
</event>
<event>
 7    1  0.5408841E-013  0.5052887E+02  0.7816164E-02  0.1300439E+00
        -11   -1    0    0    0    0  0.00000000000E+00  0.00000000000E+00  0.45593999997E+02  0.45594000000E+02  0.51100000000E-03 0.  1.
         11   -1    0    0    0    0 -0.00000000000E+00 -0.00000000000E+00 -0.45593999997E+02  0.45594000000E+02  0.51100000000E-03 0. -1.
    9900012    2    1    2    0    0 -0.22945961088E+02 -0.23949451401E+02  0.23517468117E+02  0.50528872374E+02  0.30000038069E+02 0.  0.
         12    1    1    2    0    0  0.22945961088E+02  0.23949451401E+02 -0.23517468117E+02  0.40659127626E+02  0.00000000000E+00 0. -1.
         11    1    3    3    0    0 -0.98004816470E+01 -0.11874266499E+02  0.14924119604E+02  0.21442411050E+02  0.51100000000E-03 0. -1.
        -11    1    3    3    0    0 -0.18402098342E+02 -0.11480289575E+02  0.95699079869E+01  0.23706906405E+02  0.51100000000E-03 0.  1.
         12    1    3    3    0    0  0.52566189017E+01 -0.59489532643E+00 -0.97655947471E+00  0.53795549198E+01  0.00000000000E+00 0. -1.
</event>
<event>
 7    1  0.5408841E-013  0.5052888E+02  0.7816164E-02  0.1300439E+00
        -11   -1    0    0    0    0  0.00000000000E+00  0.00000000000E+00  0.45593999997E+02  0.45594000000E+02  0.51100000000E-03 0. -1.
         11   -1    0    0    0    0 -0.00000000000E+00 -0.00000000000E+00 -0.45593999997E+02  0.45594000000E+02  0.51100000000E-03 0.  1.
    9900012    2    1    2    0    0 -0.14364113735E+02 -0.19234927358E+02 -0.32815451416E+02  0.50528879923E+02  0.30000061013E+02 0.  0.
         12    1    1    2    0    0  0.14364113735E+02  0.19234927358E+02  0.32815451416E+02  0.40659120077E+02  0.00000000000E+00 0. -1.
         11    1    3    3    0    0 -0.57957489200E+01 -0.43536365983E+01  0.24628886891E+01  0.76557611071E+01  0.51100000000E-03 0. -1.
        -11    1    3    3    0    0 -0.21158157420E+01  0.35853982017E+01 -0.10559263475E+02  0.11350321665E+02  0.51100000000E-03 0.  1.
        -12    1    3    3    0    0 -0.64525490734E+01 -0.18466688961E+02 -0.24719076630E+02  0.31522797150E+02  0.00000000000E+00 0.  1.
</event>
<event>
 7    1  0.5408841E-013  0.5052887E+02  0.7816164E-02  0.1300439E+00
        -11   -1    0    0    0    0  0.00000000000E+00  0.00000000000E+00  0.45593999997E+02  0.45594000000E+02  0.51100000000E-03 0.  1.
         11   -1    0    0    0    0 -0.00000000000E+00 -0.00000000000E+00 -0.45593999997E+02  0.45594000000E+02  0.51100000000E-03 0. -1.
    9900012    2    1    2    0    0  0.10575710179E+02  0.37573704081E+02  0.11381403564E+02  0.50528865340E+02  0.30000016689E+02 0.  0.
         12    1    1    2    0    0 -0.10575710179E+02 -0.37573704081E+02 -0.11381403564E+02  0.40659134660E+02  0.00000000000E+00 0. -1.
         11    1    3    3    0    0 -0.69324004658E+01  0.29328232791E+01  0.30053131617E+01  0.81050315278E+01  0.51100000000E-03 0. -1.
        -11    1    3    3    0    0  0.67857857152E+01  0.23930078578E+02 -0.46522150501E+00  0.24877941632E+02  0.51100000000E-03 0.  1.
        -12    1    3    3    0    0  0.10722324930E+02  0.10710802224E+02  0.88413119075E+01  0.17545892181E+02  0.00000000000E+00 0.  1.
</event>
<event>
 7    1  0.5408841E-013  0.5052889E+02  0.7816164E-02  0.1300439E+00
        -11   -1    0    0    0    0  0.00000000000E+00  0.00000000000E+00  0.45593999997E+02  0.45594000000E+02  0.51100000000E-03 0.  1.
         11   -1    0    0    0    0 -0.00000000000E+00 -0.00000000000E+00 -0.45593999997E+02  0.45594000000E+02  0.51100000000E-03 0. -1.
    9900012    2    1    2    0    0 -0.29431394449E+02  0.16613967091E+02  0.22603805107E+02  0.50528894168E+02  0.30000104314E+02 0.  0.
         12    1    1    2    0    0  0.29431394449E+02 -0.16613967091E+02 -0.22603805107E+02  0.40659105832E+02  0.00000000000E+00 0. -1.
         11    1    3    3    0    0  0.41339858510E+01  0.17159650199E+01  0.64922998333E+00  0.45228171308E+01  0.51100000000E-03 0. -1.
        -11    1    3    3    0    0 -0.60638588052E+01 -0.81240441888E+00  0.10826336962E+02  0.12435431509E+02  0.51100000000E-03 0.  1.
        -12    1    3    3    0    0 -0.27501521494E+02  0.15710406490E+02  0.11128238162E+02  0.33570645528E+02  0.00000000000E+00 0.  1.
</event>
<event>
 7    1  0.5408841E-013  0.5052889E+02  0.7816164E-02  0.1300439E+00
        -11   -1    0    0    0    0  0.00000000000E+00  0.00000000000E+00  0.45593999997E+02  0.45594000000E+02  0.51100000000E-03 0.  1.
         11   -1    0    0    0    0 -0.00000000000E+00 -0.00000000000E+00 -0.45593999997E+02  0.45594000000E+02  0.51100000000E-03 0. -1.
    9900012    2    1    2    0    0 -0.30745742971E+02 -0.23717349243E+02  0.12056102948E+02  0.50528892973E+02  0.30000100680E+02 0.  0.
         12    1    1    2    0    0  0.30745742971E+02  0.23717349243E+02 -0.12056102948E+02  0.40659107027E+02  0.00000000000E+00 0. -1.
         11    1    3    3    0    0 -0.12868307517E+02 -0.90349880285E+00  0.81629569589E+01  0.15265762838E+02  0.51100000000E-03 0. -1.
        -11    1    3    3    0    0 -0.16728520245E+02 -0.53756694592E+01  0.20499791339E+01  0.17690212730E+02  0.51100000000E-03 0.  1.
         12    1    3    3    0    0 -0.11489152096E+01 -0.17438180981E+02  0.18431668548E+01  0.17572917405E+02  0.00000000000E+00 0. -1.
</event>
<event>
 7    1  0.5408841E-013  0.5052885E+02  0.7816164E-02  0.1300439E+00
        -11   -1    0    0    0    0  0.00000000000E+00  0.00000000000E+00  0.45593999997E+02  0.45594000000E+02  0.51100000000E-03 0. -1.
         11   -1    0    0    0    0 -0.00000000000E+00 -0.00000000000E+00 -0.45593999997E+02  0.45594000000E+02  0.51100000000E-03 0.  1.
    9900012    2    1    2    0    0 -0.38426899997E+02 -0.12254329599E+02 -0.51353303648E+01  0.50528845369E+02  0.29999955985E+02 0.  0.
         12    1    1    2    0    0  0.38426899997E+02  0.12254329599E+02  0.51353303648E+01  0.40659154631E+02  0.00000000000E+00 0. -1.
         11    1    3    3    0    0 -0.17279053391E+01  0.55413122503E+01 -0.53301892851E+00  0.58288856359E+01  0.51100000000E-03 0. -1.
        -11    1    3    3    0    0 -0.60531916239E+00 -0.39682081276E+01  0.33622889452E+01  0.52362271002E+01  0.51100000000E-03 0.  1.
        -12    1    3    3    0    0 -0.36093675496E+02 -0.13827433722E+02 -0.79646003814E+01  0.39463732633E+02  0.00000000000E+00 0.  1.
</event>
<event>
 7    1  0.5408841E-013  0.5052887E+02  0.7816164E-02  0.1300439E+00
        -11   -1    0    0    0    0  0.00000000000E+00  0.00000000000E+00  0.45593999997E+02  0.45594000000E+02  0.51100000000E-03 0.  1.
         11   -1    0    0    0    0 -0.00000000000E+00 -0.00000000000E+00 -0.45593999997E+02  0.45594000000E+02  0.51100000000E-03 0. -1.
    9900012    2    1    2    0    0  0.26433822990E+02 -0.15557818697E+02  0.26690306127E+02  0.50528866197E+02  0.30000019293E+02 0.  0.
         12    1    1    2    0    0 -0.26433822990E+02  0.15557818697E+02 -0.26690306127E+02  0.40659133803E+02  0.00000000000E+00 0. -1.
         11    1    3    3    0    0  0.62320848296E+01 -0.91261622772E+00  0.15885676636E+02  0.17088782056E+02  0.51100000000E-03 0. -1.
        -11    1    3    3    0    0  0.13542620709E+02 -0.11268163202E+02  0.16431440516E+02  0.24090793165E+02  0.51100000000E-03 0.  1.
        -12    1    3    3    0    0  0.66591174510E+01 -0.33770392672E+01 -0.56268110260E+01  0.93492909764E+01  0.00000000000E+00 0.  1.
</event>
<event>
 7    1  0.5408841E-013  0.5052886E+02  0.7816164E-02  0.1300439E+00
        -11   -1    0    0    0    0  0.00000000000E+00  0.00000000000E+00  0.45593999997E+02  0.45594000000E+02  0.51100000000E-03 0.  1.
         11   -1    0    0    0    0 -0.00000000000E+00 -0.00000000000E+00 -0.45593999997E+02  0.45594000000E+02  0.51100000000E-03 0. -1.
    9900012    2    1    2    0    0 -0.94396491878E+01  0.15554134380E+00  0.39547873957E+02  0.50528861982E+02  0.30000006480E+02 0.  0.
         12    1    1    2    0    0  0.94396491878E+01 -0.15554134380E+00 -0.39547873957E+02  0.40659138018E+02  0.00000000000E+00 0. -1.
         11    1    3    3    0    0 -0.69503987489E+01 -0.87090010445E+00 -0.16359000326E+01  0.71932384181E+01  0.51100000000E-03 0. -1.
        -11    1    3    3    0    0 -0.62689295283E+00 -0.40147257347E+01  0.37864235470E+01  0.55540994804E+01  0.51100000000E-03 0.  1.
         12    1    3    3    0    0 -0.18623574861E+01  0.50411671830E+01  0.37397350442E+02  0.37781524083E+02  0.00000000000E+00 0. -1.
</event>
<event>
 7    1  0.5408841E-013  0.5052886E+02  0.7816164E-02  0.1300439E+00
        -11   -1    0    0    0    0  0.00000000000E+00  0.00000000000E+00  0.45593999997E+02  0.45594000000E+02  0.51100000000E-03 0.  1.
         11   -1    0    0    0    0 -0.00000000000E+00 -0.00000000000E+00 -0.45593999997E+02  0.45594000000E+02  0.51100000000E-03 0. -1.
    9900012    2    1    2    0    0 -0.33331918578E+02 -0.23003580440E+02  0.36033593542E+01  0.50528859480E+02  0.29999998877E+02 0.  0.
         12    1    1    2    0    0  0.33331918578E+02  0.23003580440E+02 -0.36033593542E+01  0.40659140520E+02  0.00000000000E+00 0. -1.
         11    1    3    3    0    0  0.82605841422E-01  0.85241919672E+00 -0.92333417705E+00  0.12593603438E+01  0.51100000000E-03 0. -1.
        -11    1    3    3    0    0 -0.66643926265E+00 -0.10567323557E+02  0.86710870360E+01  0.13685767026E+02  0.51100000000E-03 0.  1.
        -12    1    3    3    0    0 -0.32748085157E+02 -0.13288676080E+02 -0.41443935048E+01  0.35583732111E+02  0.00000000000E+00 0.  1.
</event>
<event>
 7    1  0.5408841E-013  0.5052886E+02  0.7816164E-02  0.1300439E+00
        -11   -1    0    0    0    0  0.00000000000E+00  0.00000000000E+00  0.45593999997E+02  0.45594000000E+02  0.51100000000E-03 0.  1.
         11   -1    0    0    0    0 -0.00000000000E+00 -0.00000000000E+00 -0.45593999997E+02  0.45594000000E+02  0.51100000000E-03 0. -1.
    9900012    2    1    2    0    0 -0.37094828132E+02  0.38461913386E+01  0.16197112111E+02  0.50528857084E+02  0.29999991591E+02 0.  0.
         12    1    1    2    0    0  0.37094828132E+02 -0.38461913386E+01 -0.16197112111E+02  0.40659142916E+02  0.00000000000E+00 0. -1.
         11    1    3    3    0    0 -0.13721132189E+02  0.39532447314E+01  0.32973197994E+01  0.14655030896E+02  0.51100000000E-03 0. -1.
        -11    1    3    3    0    0 -0.24043346127E+02  0.24548982022E+01  0.17994823811E+02  0.30131755714E+02  0.51100000000E-03 0.  1.
        -12    1    3    3    0    0  0.66965018376E+00 -0.25619515950E+01 -0.50950314991E+01  0.57420704733E+01  0.00000000000E+00 0.  1.
</event>
<event>
 7    1  0.5408841E-013  0.5052885E+02  0.7816164E-02  0.1300439E+00
        -11   -1    0    0    0    0  0.00000000000E+00  0.00000000000E+00  0.45593999997E+02  0.45594000000E+02  0.51100000000E-03 0. -1.
         11   -1    0    0    0    0 -0.00000000000E+00 -0.00000000000E+00 -0.45593999997E+02  0.45594000000E+02  0.51100000000E-03 0.  1.
    9900012    2    1    2    0    0  0.35339299598E+02 -0.14668968560E+02 -0.13752139769E+02  0.50528854867E+02  0.29999984854E+02 0.  0.
         12    1    1    2    0    0 -0.35339299598E+02  0.14668968560E+02  0.13752139769E+02  0.40659145133E+02  0.00000000000E+00 0. -1.
         11    1    3    3    0    0  0.22994104638E+02 -0.53126066101E+01  0.54702683989E+00  0.23606182998E+02  0.51100000000E-03 0. -1.
        -11    1    3    3    0    0  0.42890713121E+01  0.14485207663E+01  0.26674058833E+01  0.52544647242E+01  0.51100000000E-03 0.  1.
        -12    1    3    3    0    0  0.80561236484E+01 -0.10804882716E+02 -0.16966572492E+02  0.21668207145E+02  0.00000000000E+00 0.  1.
</event>
<event>
 7    1  0.5408841E-013  0.5052886E+02  0.7816164E-02  0.1300439E+00
        -11   -1    0    0    0    0  0.00000000000E+00  0.00000000000E+00  0.45593999997E+02  0.45594000000E+02  0.51100000000E-03 0.  1.
         11   -1    0    0    0    0 -0.00000000000E+00 -0.00000000000E+00 -0.45593999997E+02  0.45594000000E+02  0.51100000000E-03 0. -1.
    9900012    2    1    2    0    0  0.14352680313E+02 -0.31826913168E+02  0.20837801242E+02  0.50528858413E+02  0.29999995632E+02 0.  0.
         12    1    1    2    0    0 -0.14352680313E+02  0.31826913168E+02 -0.20837801242E+02  0.40659141587E+02  0.00000000000E+00 0. -1.
         11    1    3    3    0    0 -0.25783495934E+00 -0.10129527033E+02 -0.17494146693E+00  0.10134318012E+02  0.51100000000E-03 0. -1.
        -11    1    3    3    0    0  0.18975786475E+02 -0.89171011830E+01  0.13560890643E+02  0.24969840231E+02  0.51100000000E-03 0.  1.
         12    1    3    3    0    0 -0.43652712033E+01 -0.12780284952E+02  0.74518520657E+01  0.15424700170E+02  0.00000000000E+00 0. -1.
</event>
<event>
 7    1  0.5408841E-013  0.5052885E+02  0.7816164E-02  0.1300439E+00
        -11   -1    0    0    0    0  0.00000000000E+00  0.00000000000E+00  0.45593999997E+02  0.45594000000E+02  0.51100000000E-03 0. -1.
         11   -1    0    0    0    0 -0.00000000000E+00 -0.00000000000E+00 -0.45593999997E+02  0.45594000000E+02  0.51100000000E-03 0.  1.
    9900012    2    1    2    0    0 -0.36849305532E+02 -0.82534471108E+01 -0.15072348286E+02  0.50528851088E+02  0.29999973367E+02 0.  0.
         12    1    1    2    0    0  0.36849305532E+02  0.82534471108E+01  0.15072348286E+02  0.40659148912E+02  0.00000000000E+00 0. -1.
         11    1    3    3    0    0 -0.16882455969E+02  0.42826017508E+01 -0.11113732423E+02  0.20660906223E+02  0.51100000000E-03 0. -1.
        -11    1    3    3    0    0 -0.15069860896E+02 -0.55233024791E+01 -0.10430862387E+02  0.19141851219E+02  0.51100000000E-03 0.  1.
         12    1    3    3    0    0 -0.48969886668E+01 -0.70127463825E+01  0.64722465246E+01  0.10726093646E+02  0.00000000000E+00 0. -1.
</event>
<event>
 7    1  0.5408841E-013  0.5052886E+02  0.7816164E-02  0.1300439E+00
        -11   -1    0    0    0    0  0.00000000000E+00  0.00000000000E+00  0.45593999997E+02  0.45594000000E+02  0.51100000000E-03 0.  1.
         11   -1    0    0    0    0 -0.00000000000E+00 -0.00000000000E+00 -0.45593999997E+02  0.45594000000E+02  0.51100000000E-03 0. -1.
    9900012    2    1    2    0    0 -0.36597326085E+01  0.19010066261E+02  0.35754571470E+02  0.50528860277E+02  0.30000001299E+02 0.  0.
         12    1    1    2    0    0  0.36597326085E+01 -0.19010066261E+02 -0.35754571470E+02  0.40659139723E+02  0.00000000000E+00 0. -1.
         11    1    3    3    0    0 -0.29594768777E+01  0.43597004544E+01  0.77306540574E+01  0.93556669382E+01  0.51100000000E-03 0. -1.
        -11    1    3    3    0    0  0.23789258006E+00  0.21965510576E+02  0.16426319046E+02  0.27429258200E+02  0.51100000000E-03 0.  1.
         12    1    3    3    0    0 -0.93814831090E+00 -0.73151447693E+01  0.11597598367E+02  0.13743935140E+02  0.00000000000E+00 0. -1.
</event>
<event>
 7    1  0.5408841E-013  0.5052887E+02  0.7816164E-02  0.1300439E+00
        -11   -1    0    0    0    0  0.00000000000E+00  0.00000000000E+00  0.45593999997E+02  0.45594000000E+02  0.51100000000E-03 0.  1.
         11   -1    0    0    0    0 -0.00000000000E+00 -0.00000000000E+00 -0.45593999997E+02  0.45594000000E+02  0.51100000000E-03 0. -1.
    9900012    2    1    2    0    0 -0.20630067909E+02 -0.23981184188E+02  0.25543453199E+02  0.50528869435E+02  0.30000029136E+02 0.  0.
         12    1    1    2    0    0  0.20630067909E+02  0.23981184188E+02 -0.25543453199E+02  0.40659130565E+02  0.00000000000E+00 0. -1.
         11    1    3    3    0    0  0.56611295073E+00 -0.13804107871E+01  0.65947334584E+01  0.67613998153E+01  0.51100000000E-03 0. -1.
        -11    1    3    3    0    0 -0.45153415481E+01 -0.42941927883E+01  0.17927864680E+02  0.18979903404E+02  0.51100000000E-03 0.  1.
         12    1    3    3    0    0 -0.16680839312E+02 -0.18306580612E+02  0.10208550605E+01  0.24787566216E+02  0.00000000000E+00 0. -1.
</event>
<event>
 7    1  0.5408841E-013  0.5052886E+02  0.7816164E-02  0.1300439E+00
        -11   -1    0    0    0    0  0.00000000000E+00  0.00000000000E+00  0.45593999997E+02  0.45594000000E+02  0.51100000000E-03 0. -1.
         11   -1    0    0    0    0 -0.00000000000E+00 -0.00000000000E+00 -0.45593999997E+02  0.45594000000E+02  0.51100000000E-03 0.  1.
    9900012    2    1    2    0    0  0.35343255229E+02 -0.19833288796E+02 -0.32650435465E+01  0.50528861494E+02  0.30000004999E+02 0.  0.
         12    1    1    2    0    0 -0.35343255229E+02  0.19833288796E+02  0.32650435465E+01  0.40659138506E+02  0.00000000000E+00 0. -1.
         11    1    3    3    0    0  0.29167912623E+01 -0.65850585856E+01  0.44420365525E+01  0.84618175848E+01  0.51100000000E-03 0.  1.
        -11    1    3    3    0    0 -0.29659318442E+01 -0.30408892636E+01  0.64665279218E+00  0.42967335632E+01  0.51100000000E-03 0. -1.
        -12    1    3    3    0    0  0.35392395811E+02 -0.10207340946E+02 -0.83537328912E+01  0.37770310346E+02  0.00000000000E+00 0.  1.
</event>
<event>
 7    1  0.5408841E-013  0.5052887E+02  0.7816164E-02  0.1300439E+00
        -11   -1    0    0    0    0  0.00000000000E+00  0.00000000000E+00  0.45593999997E+02  0.45594000000E+02  0.51100000000E-03 0. -1.
         11   -1    0    0    0    0 -0.00000000000E+00 -0.00000000000E+00 -0.45593999997E+02  0.45594000000E+02  0.51100000000E-03 0.  1.
    9900012    2    1    2    0    0 -0.15778835499E+01 -0.13780986219E+02 -0.38219883585E+02  0.50528870657E+02  0.30000032849E+02 0.  0.
         12    1    1    2    0    0  0.15778835499E+01  0.13780986219E+02  0.38219883585E+02  0.40659129343E+02  0.00000000000E+00 0. -1.
         11    1    3    3    0    0 -0.84568307531E+00  0.22932088411E+01  0.10408717721E+00  0.24463893914E+01  0.51100000000E-03 0.  1.
        -11    1    3    3    0    0 -0.81119647940E+01 -0.68273605697E+01 -0.32846664309E+01  0.11099813467E+02  0.51100000000E-03 0. -1.
        -12    1    3    3    0    0  0.73797643194E+01 -0.92468344906E+01 -0.35039304331E+02  0.36982667799E+02  0.00000000000E+00 0.  1.
</event>
<event>
 7    1  0.5408841E-013  0.5052885E+02  0.7816164E-02  0.1300439E+00
        -11   -1    0    0    0    0  0.00000000000E+00  0.00000000000E+00  0.45593999997E+02  0.45594000000E+02  0.51100000000E-03 0.  1.
         11   -1    0    0    0    0 -0.00000000000E+00 -0.00000000000E+00 -0.45593999997E+02  0.45594000000E+02  0.51100000000E-03 0. -1.
    9900012    2    1    2    0    0 -0.24515062098E+02  0.10299074858E+02  0.30758854017E+02  0.50528852037E+02  0.29999976253E+02 0.  0.
         12    1    1    2    0    0  0.24515062098E+02 -0.10299074858E+02 -0.30758854017E+02  0.40659147963E+02  0.00000000000E+00 0. -1.
         11    1    3    3    0    0 -0.14139618096E+02  0.48765104193E+01  0.14094387332E+02  0.20551421077E+02  0.51100000000E-03 0. -1.
        -11    1    3    3    0    0 -0.16209186976E+02  0.78537815410E+01  0.15005567895E+02  0.23443265452E+02  0.51100000000E-03 0.  1.
         12    1    3    3    0    0  0.58337429745E+01 -0.24312171026E+01  0.16588987902E+01  0.65341655082E+01  0.00000000000E+00 0. -1.
</event>
<event>
 7    1  0.5408841E-013  0.5052886E+02  0.7816164E-02  0.1300439E+00
        -11   -1    0    0    0    0  0.00000000000E+00  0.00000000000E+00  0.45593999997E+02  0.45594000000E+02  0.51100000000E-03 0.  1.
         11   -1    0    0    0    0 -0.00000000000E+00 -0.00000000000E+00 -0.45593999997E+02  0.45594000000E+02  0.51100000000E-03 0. -1.
    9900012    2    1    2    0    0 -0.81487762900E+01 -0.35775069692E+02  0.17518766623E+02  0.50528863875E+02  0.30000012233E+02 0.  0.
         12    1    1    2    0    0  0.81487762900E+01  0.35775069692E+02 -0.17518766623E+02  0.40659136125E+02  0.00000000000E+00 0. -1.
         11    1    3    3    0    0 -0.12103059637E+02 -0.76253745871E+01 -0.34404088777E+01  0.14712810869E+02  0.51100000000E-03 0. -1.
        -11    1    3    3    0    0  0.76502641539E+00 -0.12796870688E+02  0.12895956473E+02  0.18183807589E+02  0.51100000000E-03 0.  1.
        -12    1    3    3    0    0  0.31892569312E+01 -0.15352824417E+02  0.80632190271E+01  0.17632245417E+02  0.00000000000E+00 0.  1.
</event>
<event>
 7    1  0.5408841E-013  0.5052881E+02  0.7816164E-02  0.1300439E+00
        -11   -1    0    0    0    0  0.00000000000E+00  0.00000000000E+00  0.45593999997E+02  0.45594000000E+02  0.51100000000E-03 0.  1.
         11   -1    0    0    0    0 -0.00000000000E+00 -0.00000000000E+00 -0.45593999997E+02  0.45594000000E+02  0.51100000000E-03 0. -1.
    9900012    2    1    2    0    0 -0.28555771531E+02  0.28629262607E+02 -0.42548001190E+01  0.50528805601E+02  0.29999835104E+02 0.  0.
         12    1    1    2    0    0  0.28555771531E+02 -0.28629262607E+02  0.42548001190E+01  0.40659194399E+02  0.00000000000E+00 0. -1.
         11    1    3    3    0    0 -0.35846277749E+01  0.85291734141E+01  0.42613022764E+01  0.10186022421E+02  0.51100000000E-03 0. -1.
        -11    1    3    3    0    0 -0.16695128009E+02  0.98868900013E+01  0.64277481840E+01  0.20440005874E+02  0.51100000000E-03 0.  1.
         12    1    3    3    0    0 -0.82760157469E+01  0.10213199191E+02 -0.14943850579E+02  0.19902777306E+02  0.00000000000E+00 0. -1.
</event>
<event>
 7    1  0.5408841E-013  0.5052886E+02  0.7816164E-02  0.1300439E+00
        -11   -1    0    0    0    0  0.00000000000E+00  0.00000000000E+00  0.45593999997E+02  0.45594000000E+02  0.51100000000E-03 0. -1.
         11   -1    0    0    0    0 -0.00000000000E+00 -0.00000000000E+00 -0.45593999997E+02  0.45594000000E+02  0.51100000000E-03 0.  1.
    9900012    2    1    2    0    0 -0.26358456643E+02 -0.28859490282E+02 -0.11203910992E+02  0.50528855427E+02  0.29999986555E+02 0.  0.
         12    1    1    2    0    0  0.26358456643E+02  0.28859490282E+02  0.11203910992E+02  0.40659144573E+02  0.00000000000E+00 0. -1.
         11    1    3    3    0    0 -0.86381337796E+00 -0.70414998025E+01  0.11135336180E+01  0.71811454797E+01  0.51100000000E-03 0. -1.
        -11    1    3    3    0    0 -0.64182342471E+01 -0.10629423746E+02  0.67627150323E+01  0.14139048585E+02  0.51100000000E-03 0.  1.
         12    1    3    3    0    0 -0.19076409018E+02 -0.11188566733E+02 -0.19080159642E+02  0.29208661361E+02  0.00000000000E+00 0. -1.
</event>
<event>
 7    1  0.5408841E-013  0.5052886E+02  0.7816164E-02  0.1300439E+00
        -11   -1    0    0    0    0  0.00000000000E+00  0.00000000000E+00  0.45593999997E+02  0.45594000000E+02  0.51100000000E-03 0. -1.
         11   -1    0    0    0    0 -0.00000000000E+00 -0.00000000000E+00 -0.45593999997E+02  0.45594000000E+02  0.51100000000E-03 0.  1.
    9900012    2    1    2    0    0 -0.30637508427E+02 -0.15450393392E+02 -0.21812700506E+02  0.50528862258E+02  0.30000007319E+02 0.  0.
         12    1    1    2    0    0  0.30637508427E+02  0.15450393392E+02  0.21812700506E+02  0.40659137742E+02  0.00000000000E+00 0. -1.
         11    1    3    3    0    0 -0.31259546850E+01 -0.43324477186E+01 -0.15450891415E+01  0.55613844178E+01  0.51100000000E-03 0. -1.
        -11    1    3    3    0    0 -0.60926192557E+01 -0.16514666778E+02 -0.12350025721E+02  0.21502961744E+02  0.51100000000E-03 0.  1.
        -12    1    3    3    0    0 -0.21418934486E+02  0.53967211046E+01 -0.79175856434E+01  0.23464516096E+02  0.00000000000E+00 0.  1.
</event>
<event>
 7    1  0.5408841E-013  0.5052886E+02  0.7816164E-02  0.1300439E+00
        -11   -1    0    0    0    0  0.00000000000E+00  0.00000000000E+00  0.45593999997E+02  0.45594000000E+02  0.51100000000E-03 0.  1.
         11   -1    0    0    0    0 -0.00000000000E+00 -0.00000000000E+00 -0.45593999997E+02  0.45594000000E+02  0.51100000000E-03 0. -1.
    9900012    2    1    2    0    0  0.33340008298E+02  0.13318023076E+02  0.19085071563E+02  0.50528857750E+02  0.29999993616E+02 0.  0.
         12    1    1    2    0    0 -0.33340008298E+02 -0.13318023076E+02 -0.19085071563E+02  0.40659142250E+02  0.00000000000E+00 0. -1.
         11    1    3    3    0    0  0.12490757567E+02 -0.28205750867E+01  0.18354868799E+01  0.12936138557E+02  0.51100000000E-03 0. -1.
        -11    1    3    3    0    0  0.21342498759E+02  0.64557846412E+01  0.67396914303E+01  0.23293837156E+02  0.51100000000E-03 0.  1.
         12    1    3    3    0    0 -0.49324802801E+00  0.96828135219E+01  0.10509893252E+02  0.14298882036E+02  0.00000000000E+00 0. -1.
</event>
<event>
 7    1  0.5408841E-013  0.5052886E+02  0.7816164E-02  0.1300439E+00
        -11   -1    0    0    0    0  0.00000000000E+00  0.00000000000E+00  0.45593999997E+02  0.45594000000E+02  0.51100000000E-03 0. -1.
         11   -1    0    0    0    0 -0.00000000000E+00 -0.00000000000E+00 -0.45593999997E+02  0.45594000000E+02  0.51100000000E-03 0.  1.
    9900012    2    1    2    0    0 -0.13465083011E+02 -0.33406040153E+02 -0.18865141298E+02  0.50528861600E+02  0.30000005320E+02 0.  0.
         12    1    1    2    0    0  0.13465083011E+02  0.33406040153E+02  0.18865141298E+02  0.40659138400E+02  0.00000000000E+00 0. -1.
         11    1    3    3    0    0 -0.45079443868E+01 -0.31768976355E+01 -0.12431685055E+00  0.55163118224E+01  0.51100000000E-03 0. -1.
        -11    1    3    3    0    0 -0.14008493797E+02 -0.46024939833E+01 -0.79472996539E+01  0.16750534958E+02  0.51100000000E-03 0.  1.
         12    1    3    3    0    0  0.50513551731E+01 -0.25626648534E+02 -0.10793524794E+02  0.28262014820E+02  0.00000000000E+00 0. -1.
</event>
<event>
 7    1  0.5408841E-013  0.5052883E+02  0.7816164E-02  0.1300439E+00
        -11   -1    0    0    0    0  0.00000000000E+00  0.00000000000E+00  0.45593999997E+02  0.45594000000E+02  0.51100000000E-03 0. -1.
         11   -1    0    0    0    0 -0.00000000000E+00 -0.00000000000E+00 -0.45593999997E+02  0.45594000000E+02  0.51100000000E-03 0.  1.
    9900012    2    1    2    0    0 -0.40035019980E+02 -0.22899170055E+01 -0.67172359124E+01  0.50528833715E+02  0.29999920559E+02 0.  0.
         12    1    1    2    0    0  0.40035019980E+02  0.22899170055E+01  0.67172359124E+01  0.40659166285E+02  0.00000000000E+00 0. -1.
         11    1    3    3    0    0 -0.16350837992E+02 -0.78807141764E+01  0.28040689288E+01  0.18366228839E+02  0.51100000000E-03 0. -1.
        -11    1    3    3    0    0  0.12472115266E+01  0.32768678514E+01  0.25799350272E+01  0.43530982660E+01  0.51100000000E-03 0.  1.
        -12    1    3    3    0    0 -0.24931393515E+02  0.23139293195E+01 -0.12101239868E+02  0.27809506609E+02  0.00000000000E+00 0.  1.
</event>
<event>
 7    1  0.5408841E-013  0.5052886E+02  0.7816164E-02  0.1300439E+00
        -11   -1    0    0    0    0  0.00000000000E+00  0.00000000000E+00  0.45593999997E+02  0.45594000000E+02  0.51100000000E-03 0.  1.
         11   -1    0    0    0    0 -0.00000000000E+00 -0.00000000000E+00 -0.45593999997E+02  0.45594000000E+02  0.51100000000E-03 0. -1.
    9900012    2    1    2    0    0 -0.20731974860E+02  0.32924367334E+02 -0.11804107010E+02  0.50528859721E+02  0.29999999607E+02 0.  0.
         12    1    1    2    0    0  0.20731974860E+02 -0.32924367334E+02  0.11804107010E+02  0.40659140279E+02  0.00000000000E+00 0. -1.
         11    1    3    3    0    0 -0.51794729948E+01  0.93412940830E+01  0.54260631436E+01  0.11980353799E+02  0.51100000000E-03 0. -1.
        -11    1    3    3    0    0 -0.13092808146E+02  0.25932049107E+01 -0.64302717104E+01  0.14815354582E+02  0.51100000000E-03 0.  1.
         12    1    3    3    0    0 -0.24596937192E+01  0.20989868341E+02 -0.10799898443E+02  0.23733151340E+02  0.00000000000E+00 0. -1.
</event>
<event>
 7    1  0.5408841E-013  0.5052886E+02  0.7816164E-02  0.1300439E+00
        -11   -1    0    0    0    0  0.00000000000E+00  0.00000000000E+00  0.45593999997E+02  0.45594000000E+02  0.51100000000E-03 0. -1.
         11   -1    0    0    0    0 -0.00000000000E+00 -0.00000000000E+00 -0.45593999997E+02  0.45594000000E+02  0.51100000000E-03 0.  1.
    9900012    2    1    2    0    0 -0.39000874498E+02 -0.70602412510E+01 -0.90692188369E+01  0.50528856521E+02  0.29999989883E+02 0.  0.
         12    1    1    2    0    0  0.39000874498E+02  0.70602412510E+01  0.90692188369E+01  0.40659143479E+02  0.00000000000E+00 0. -1.
         11    1    3    3    0    0 -0.14362501222E+02 -0.71856705702E+01  0.10081849182E+02  0.18962040663E+02  0.51100000000E-03 0. -1.
        -11    1    3    3    0    0 -0.10184325833E+02  0.95328957745E+00 -0.52569543591E+01  0.11500644464E+02  0.51100000000E-03 0.  1.
        -12    1    3    3    0    0 -0.14454047442E+02 -0.82786025826E+00 -0.13894113659E+02  0.20066171395E+02  0.00000000000E+00 0.  1.
</event>
<event>
 7    1  0.5408841E-013  0.5052886E+02  0.7816164E-02  0.1300439E+00
        -11   -1    0    0    0    0  0.00000000000E+00  0.00000000000E+00  0.45593999997E+02  0.45594000000E+02  0.51100000000E-03 0.  1.
         11   -1    0    0    0    0 -0.00000000000E+00 -0.00000000000E+00 -0.45593999997E+02  0.45594000000E+02  0.51100000000E-03 0. -1.
    9900012    2    1    2    0    0 -0.14506506140E+01  0.20505542851E+02  0.35079677337E+02  0.50528862812E+02  0.30000009002E+02 0.  0.
         12    1    1    2    0    0  0.14506506140E+01 -0.20505542851E+02 -0.35079677337E+02  0.40659137188E+02  0.00000000000E+00 0. -1.
         11    1    3    3    0    0 -0.58688256282E+01  0.64652819485E+01  0.58056154963E+01  0.10485616648E+02  0.51100000000E-03 0. -1.
        -11    1    3    3    0    0 -0.26624038723E+00  0.19823175660E+02  0.20127102831E+02  0.28251184857E+02  0.51100000000E-03 0.  1.
         12    1    3    3    0    0  0.46844154014E+01 -0.57829147574E+01  0.91469590094E+01  0.11792061307E+02  0.00000000000E+00 0. -1.
</event>
<event>
 7    1  0.5408841E-013  0.5052887E+02  0.7816164E-02  0.1300439E+00
        -11   -1    0    0    0    0  0.00000000000E+00  0.00000000000E+00  0.45593999997E+02  0.45594000000E+02  0.51100000000E-03 0.  1.
         11   -1    0    0    0    0 -0.00000000000E+00 -0.00000000000E+00 -0.45593999997E+02  0.45594000000E+02  0.51100000000E-03 0. -1.
    9900012    2    1    2    0    0  0.74166011004E+01 -0.26942201553E+02  0.29534326928E+02  0.50528872323E+02  0.30000037913E+02 0.  0.
         12    1    1    2    0    0 -0.74166011004E+01  0.26942201553E+02 -0.29534326928E+02  0.40659127677E+02  0.00000000000E+00 0. -1.
         11    1    3    3    0    0 -0.25546439614E+01 -0.65994749980E+01 -0.14219370386E+01  0.72181147969E+01  0.51100000000E-03 0. -1.
        -11    1    3    3    0    0  0.12151543744E+01 -0.20986751602E+02  0.25177987518E+02  0.32800173760E+02  0.51100000000E-03 0.  1.
         12    1    3    3    0    0  0.87560906874E+01  0.64402504739E+00  0.57782764480E+01  0.10510583766E+02  0.00000000000E+00 0. -1.
</event>
<event>
 7    1  0.5408841E-013  0.5052886E+02  0.7816164E-02  0.1300439E+00
        -11   -1    0    0    0    0  0.00000000000E+00  0.00000000000E+00  0.45593999997E+02  0.45594000000E+02  0.51100000000E-03 0. -1.
         11   -1    0    0    0    0 -0.00000000000E+00 -0.00000000000E+00 -0.45593999997E+02  0.45594000000E+02  0.51100000000E-03 0.  1.
    9900012    2    1    2    0    0 -0.26430885560E+02 -0.17011136094E+02 -0.25791374085E+02  0.50528862775E+02  0.30000008890E+02 0.  0.
         12    1    1    2    0    0  0.26430885560E+02  0.17011136094E+02  0.25791374085E+02  0.40659137225E+02  0.00000000000E+00 0. -1.
         11    1    3    3    0    0 -0.38581441060E+01 -0.72830360597E+01 -0.49207069392E+01  0.95990232437E+01  0.51100000000E-03 0. -1.
        -11    1    3    3    0    0 -0.40460776502E+01 -0.15260694241E+02 -0.10807392377E+02  0.19132675279E+02  0.51100000000E-03 0.  1.
        -12    1    3    3    0    0 -0.18526663804E+02  0.55325942067E+01 -0.10063274769E+02  0.21797164252E+02  0.00000000000E+00 0.  1.
</event>
<event>
 7    1  0.5408841E-013  0.5052886E+02  0.7816164E-02  0.1300439E+00
        -11   -1    0    0    0    0  0.00000000000E+00  0.00000000000E+00  0.45593999997E+02  0.45594000000E+02  0.51100000000E-03 0. -1.
         11   -1    0    0    0    0 -0.00000000000E+00 -0.00000000000E+00 -0.45593999997E+02  0.45594000000E+02  0.51100000000E-03 0.  1.
    9900012    2    1    2    0    0  0.28448825782E+02  0.95540918311E+01 -0.27432630095E+02  0.50528861383E+02  0.30000004660E+02 0.  0.
         12    1    1    2    0    0 -0.28448825782E+02 -0.95540918311E+01  0.27432630095E+02  0.40659138617E+02  0.00000000000E+00 0. -1.
         11    1    3    3    0    0  0.20023746808E+02  0.16963525456E+01 -0.74401736329E+01  0.21428584464E+02  0.51100000000E-03 0. -1.
        -11    1    3    3    0    0  0.61973196209E+01 -0.45442726437E+01 -0.11761808800E+02  0.14049816044E+02  0.51100000000E-03 0.  1.
         12    1    3    3    0    0  0.22277593540E+01  0.12402011929E+02 -0.82306476622E+01  0.15050460876E+02  0.00000000000E+00 0. -1.
</event>
<event>
 7    1  0.5408841E-013  0.5052887E+02  0.7816164E-02  0.1300439E+00
        -11   -1    0    0    0    0  0.00000000000E+00  0.00000000000E+00  0.45593999997E+02  0.45594000000E+02  0.51100000000E-03 0. -1.
         11   -1    0    0    0    0 -0.00000000000E+00 -0.00000000000E+00 -0.45593999997E+02  0.45594000000E+02  0.51100000000E-03 0.  1.
    9900012    2    1    2    0    0  0.10831719427E+02 -0.39171335298E+02 -0.12023177698E+01  0.50528865444E+02  0.30000017005E+02 0.  0.
         12    1    1    2    0    0 -0.10831719427E+02  0.39171335298E+02  0.12023177698E+01  0.40659134556E+02  0.00000000000E+00 0. -1.
         11    1    3    3    0    0 -0.35337577004E+01 -0.83441845286E+01  0.38296791442E+01  0.98376471547E+01  0.51100000000E-03 0. -1.
        -11    1    3    3    0    0 -0.29668027586E+01 -0.19383875397E+02 -0.25004999188E+01  0.19768384965E+02  0.51100000000E-03 0.  1.
         12    1    3    3    0    0  0.17332279886E+02 -0.11443275373E+02 -0.25314969953E+01  0.20922833325E+02  0.00000000000E+00 0. -1.
</event>
<event>
 7    1  0.5408841E-013  0.5052887E+02  0.7816164E-02  0.1300439E+00
        -11   -1    0    0    0    0  0.00000000000E+00  0.00000000000E+00  0.45593999997E+02  0.45594000000E+02  0.51100000000E-03 0.  1.
         11   -1    0    0    0    0 -0.00000000000E+00 -0.00000000000E+00 -0.45593999997E+02  0.45594000000E+02  0.51100000000E-03 0. -1.
    9900012    2    1    2    0    0  0.18643845417E+02 -0.82465830261E+01  0.35179053905E+02  0.50528868956E+02  0.30000027679E+02 0.  0.
         12    1    1    2    0    0 -0.18643845417E+02  0.82465830261E+01 -0.35179053905E+02  0.40659131044E+02  0.00000000000E+00 0. -1.
         11    1    3    3    0    0  0.16914377079E+01  0.17185919250E+01  0.50738018171E+01  0.56176494074E+01  0.51100000000E-03 0. -1.
        -11    1    3    3    0    0  0.86034917035E+01 -0.10893663362E+02  0.33179278290E+02  0.35966046197E+02  0.51100000000E-03 0.  1.
        -12    1    3    3    0    0  0.83489160058E+01  0.92848841049E+00 -0.30740262020E+01  0.89451733517E+01  0.00000000000E+00 0.  1.
</event>
<event>
 7    1  0.5408841E-013  0.5052887E+02  0.7816164E-02  0.1300439E+00
        -11   -1    0    0    0    0  0.00000000000E+00  0.00000000000E+00  0.45593999997E+02  0.45594000000E+02  0.51100000000E-03 0.  1.
         11   -1    0    0    0    0 -0.00000000000E+00 -0.00000000000E+00 -0.45593999997E+02  0.45594000000E+02  0.51100000000E-03 0. -1.
    9900012    2    1    2    0    0  0.99967486063E+01  0.81006959294E+01  0.38569534053E+02  0.50528865549E+02  0.30000017323E+02 0.  0.
         12    1    1    2    0    0 -0.99967486063E+01 -0.81006959294E+01 -0.38569534053E+02  0.40659134451E+02  0.00000000000E+00 0. -1.
         11    1    3    3    0    0  0.65203253479E+01  0.40675445041E+01  0.10040046479E+02  0.12643658272E+02  0.51100000000E-03 0.  1.
        -11    1    3    3    0    0  0.48874548270E+01 -0.91051025328E+01  0.18880074945E+02  0.21523181387E+02  0.51100000000E-03 0. -1.
         12    1    3    3    0    0 -0.14110315685E+01  0.13138253958E+02  0.96494126286E+01  0.16362025890E+02  0.00000000000E+00 0. -1.
</event>
<event>
 7    1  0.5408841E-013  0.5052885E+02  0.7816164E-02  0.1300439E+00
        -11   -1    0    0    0    0  0.00000000000E+00  0.00000000000E+00  0.45593999997E+02  0.45594000000E+02  0.51100000000E-03 0. -1.
         11   -1    0    0    0    0 -0.00000000000E+00 -0.00000000000E+00 -0.45593999997E+02  0.45594000000E+02  0.51100000000E-03 0.  1.
    9900012    2    1    2    0    0 -0.68602391505E+01 -0.25089397626E+02 -0.31251007883E+02  0.50528852835E+02  0.29999978678E+02 0.  0.
         12    1    1    2    0    0  0.68602391505E+01  0.25089397626E+02  0.31251007883E+02  0.40659147165E+02  0.00000000000E+00 0. -1.
         11    1    3    3    0    0 -0.14581827826E+02 -0.13770265829E+02 -0.23210597618E+02  0.30675426090E+02  0.51100000000E-03 0. -1.
        -11    1    3    3    0    0 -0.22997494684E+01 -0.66698379128E+01 -0.24207968508E+01  0.74589438297E+01  0.51100000000E-03 0.  1.
        -12    1    3    3    0    0  0.10021338144E+02 -0.46492938842E+01 -0.56196134149E+01  0.12394482916E+02  0.00000000000E+00 0.  1.
</event>
<event>
 7    1  0.5408841E-013  0.5052886E+02  0.7816164E-02  0.1300439E+00
        -11   -1    0    0    0    0  0.00000000000E+00  0.00000000000E+00  0.45593999997E+02  0.45594000000E+02  0.51100000000E-03 0.  1.
         11   -1    0    0    0    0 -0.00000000000E+00 -0.00000000000E+00 -0.45593999997E+02  0.45594000000E+02  0.51100000000E-03 0. -1.
    9900012    2    1    2    0    0 -0.17544330259E+02 -0.32004104343E+02  0.17919256060E+02  0.50528856418E+02  0.29999989569E+02 0.  0.
         12    1    1    2    0    0  0.17544330259E+02  0.32004104343E+02 -0.17919256060E+02  0.40659143582E+02  0.00000000000E+00 0. -1.
         11    1    3    3    0    0  0.37222652520E+01 -0.16034710227E+02  0.41278578727E+01  0.16970751354E+02  0.51100000000E-03 0. -1.
        -11    1    3    3    0    0  0.35471752003E+00 -0.11071828041E+01 -0.24425328308E+01  0.27051146318E+01  0.51100000000E-03 0.  1.
        -12    1    3    3    0    0 -0.21621313031E+02 -0.14862211313E+02  0.16233931019E+02  0.30852990432E+02  0.00000000000E+00 0.  1.
</event>
<event>
 7    1  0.5408841E-013  0.5052887E+02  0.7816164E-02  0.1300439E+00
        -11   -1    0    0    0    0  0.00000000000E+00  0.00000000000E+00  0.45593999997E+02  0.45594000000E+02  0.51100000000E-03 0. -1.
         11   -1    0    0    0    0 -0.00000000000E+00 -0.00000000000E+00 -0.45593999997E+02  0.45594000000E+02  0.51100000000E-03 0.  1.
    9900012    2    1    2    0    0  0.26675486829E+02  0.18142778070E+02 -0.24747178994E+02  0.50528869884E+02  0.30000030499E+02 0.  0.
         12    1    1    2    0    0 -0.26675486829E+02 -0.18142778070E+02  0.24747178994E+02  0.40659130116E+02  0.00000000000E+00 0. -1.
         11    1    3    3    0    0  0.58695951698E+01  0.82650322852E+01 -0.13619787044E+02  0.16978265680E+02  0.51100000000E-03 0. -1.
        -11    1    3    3    0    0  0.42977208462E+01  0.78156975225E+01 -0.14067021150E+02  0.16656428685E+02  0.51100000000E-03 0.  1.
         12    1    3    3    0    0  0.16508170813E+02  0.20620482622E+01  0.29396292002E+01  0.16894175519E+02  0.00000000000E+00 0. -1.
</event>
<event>
 7    1  0.5408841E-013  0.5052886E+02  0.7816164E-02  0.1300439E+00
        -11   -1    0    0    0    0  0.00000000000E+00  0.00000000000E+00  0.45593999997E+02  0.45594000000E+02  0.51100000000E-03 0.  1.
         11   -1    0    0    0    0 -0.00000000000E+00 -0.00000000000E+00 -0.45593999997E+02  0.45594000000E+02  0.51100000000E-03 0. -1.
    9900012    2    1    2    0    0 -0.36454953707E+02 -0.32459147053E+01  0.17710625723E+02  0.50528857417E+02  0.29999992606E+02 0.  0.
         12    1    1    2    0    0  0.36454953707E+02  0.32459147053E+01 -0.17710625723E+02  0.40659142583E+02  0.00000000000E+00 0. -1.
         11    1    3    3    0    0 -0.18404599735E+02  0.38357668851E+01  0.11109906399E+02  0.21837408717E+02  0.51100000000E-03 0. -1.
        -11    1    3    3    0    0 -0.19235215521E+02 -0.37046854878E+01  0.11430806472E+02  0.22679981207E+02  0.51100000000E-03 0.  1.
         12    1    3    3    0    0  0.11848615498E+01 -0.33769961026E+01 -0.48300871472E+01  0.60114674930E+01  0.00000000000E+00 0. -1.
</event>
<event>
 7    1  0.5408841E-013  0.5052886E+02  0.7816164E-02  0.1300439E+00
        -11   -1    0    0    0    0  0.00000000000E+00  0.00000000000E+00  0.45593999997E+02  0.45594000000E+02  0.51100000000E-03 0. -1.
         11   -1    0    0    0    0 -0.00000000000E+00 -0.00000000000E+00 -0.45593999997E+02  0.45594000000E+02  0.51100000000E-03 0.  1.
    9900012    2    1    2    0    0  0.80398038745E+01 -0.39692876585E+02 -0.36058955636E+01  0.50528863502E+02  0.30000011102E+02 0.  0.
         12    1    1    2    0    0 -0.80398038745E+01  0.39692876585E+02  0.36058955636E+01  0.40659136498E+02  0.00000000000E+00 0. -1.
         11    1    3    3    0    0  0.81476758937E+01 -0.20007553079E+02  0.93103619115E+01  0.23523810105E+02  0.51100000000E-03 0. -1.
        -11    1    3    3    0    0  0.51167048734E+01 -0.99975340996E+01 -0.18229572231E+01  0.11377808670E+02  0.51100000000E-03 0.  1.
         12    1    3    3    0    0 -0.52245768926E+01 -0.96877894065E+01 -0.11093300252E+02  0.15627244727E+02  0.00000000000E+00 0. -1.
</event>
<event>
 7    1  0.5408841E-013  0.5052884E+02  0.7816164E-02  0.1300439E+00
        -11   -1    0    0    0    0  0.00000000000E+00  0.00000000000E+00  0.45593999997E+02  0.45594000000E+02  0.51100000000E-03 0. -1.
         11   -1    0    0    0    0 -0.00000000000E+00 -0.00000000000E+00 -0.45593999997E+02  0.45594000000E+02  0.51100000000E-03 0.  1.
    9900012    2    1    2    0    0  0.29221237710E+02  0.11506981194E+02 -0.25823944060E+02  0.50528838224E+02  0.29999934265E+02 0.  0.
         12    1    1    2    0    0 -0.29221237710E+02 -0.11506981194E+02  0.25823944060E+02  0.40659161776E+02  0.00000000000E+00 0. -1.
         11    1    3    3    0    0  0.14377333571E+02  0.49380330133E+01 -0.17237012483E+02  0.22982743314E+02  0.51100000000E-03 0.  1.
        -11    1    3    3    0    0  0.14864253931E+02 -0.31954561522E+01 -0.91857851521E+01  0.17763322721E+02  0.51100000000E-03 0. -1.
         12    1    3    3    0    0 -0.20349791389E-01  0.97644043332E+01  0.59885357530E+00  0.97827721890E+01  0.00000000000E+00 0. -1.
</event>
<event>
 7    1  0.5408841E-013  0.5052887E+02  0.7816164E-02  0.1300439E+00
        -11   -1    0    0    0    0  0.00000000000E+00  0.00000000000E+00  0.45593999997E+02  0.45594000000E+02  0.51100000000E-03 0.  1.
         11   -1    0    0    0    0 -0.00000000000E+00 -0.00000000000E+00 -0.45593999997E+02  0.45594000000E+02  0.51100000000E-03 0. -1.
    9900012    2    1    2    0    0  0.55320636167E+01 -0.38512893638E+02  0.11803301450E+02  0.50528872742E+02  0.30000039187E+02 0.  0.
         12    1    1    2    0    0 -0.55320636167E+01  0.38512893638E+02 -0.11803301450E+02  0.40659127258E+02  0.00000000000E+00 0. -1.
         11    1    3    3    0    0 -0.68101443054E+01 -0.32972651078E+01 -0.97111872803E+00  0.76284398468E+01  0.51100000000E-03 0. -1.
        -11    1    3    3    0    0  0.73380847527E+00 -0.25406242344E+02  0.10636961658E+02  0.27552868789E+02  0.51100000000E-03 0.  1.
        -12    1    3    3    0    0  0.11608399447E+02 -0.98093861865E+01  0.21374585199E+01  0.15347564106E+02  0.00000000000E+00 0.  1.
</event>
<event>
 7    1  0.5408841E-013  0.5052885E+02  0.7816164E-02  0.1300439E+00
        -11   -1    0    0    0    0  0.00000000000E+00  0.00000000000E+00  0.45593999997E+02  0.45594000000E+02  0.51100000000E-03 0.  1.
         11   -1    0    0    0    0 -0.00000000000E+00 -0.00000000000E+00 -0.45593999997E+02  0.45594000000E+02  0.51100000000E-03 0. -1.
    9900012    2    1    2    0    0 -0.34713954658E+02 -0.17103177075E+02  0.12473537458E+02  0.50528850344E+02  0.29999971105E+02 0.  0.
         12    1    1    2    0    0  0.34713954658E+02  0.17103177075E+02 -0.12473537458E+02  0.40659149656E+02  0.00000000000E+00 0. -1.
         11    1    3    3    0    0  0.21354453089E+01  0.91840153453E+00 -0.76876875607E-01  0.23258328317E+01  0.51100000000E-03 0. -1.
        -11    1    3    3    0    0 -0.94047021998E+01  0.14013714209E+01  0.11006918403E+02  0.14545257588E+02  0.51100000000E-03 0.  1.
        -12    1    3    3    0    0 -0.27444697767E+02 -0.19422950031E+02  0.15434959306E+01  0.33657759924E+02  0.00000000000E+00 0.  1.
</event>
<event>
 7    1  0.5408841E-013  0.5052886E+02  0.7816164E-02  0.1300439E+00
        -11   -1    0    0    0    0  0.00000000000E+00  0.00000000000E+00  0.45593999997E+02  0.45594000000E+02  0.51100000000E-03 0. -1.
         11   -1    0    0    0    0 -0.00000000000E+00 -0.00000000000E+00 -0.45593999997E+02  0.45594000000E+02  0.51100000000E-03 0.  1.
    9900012    2    1    2    0    0  0.13696967946E+01 -0.23781917685E+02 -0.32950112203E+02  0.50528861147E+02  0.30000003942E+02 0.  0.
         12    1    1    2    0    0 -0.13696967946E+01  0.23781917685E+02  0.32950112203E+02  0.40659138853E+02  0.00000000000E+00 0. -1.
         11    1    3    3    0    0  0.10004256181E+01 -0.60465772393E+00  0.33963642839E+01  0.35919010274E+01  0.51100000000E-03 0. -1.
        -11    1    3    3    0    0  0.86297524020E+01 -0.58168652398E+01 -0.11295109994E+02  0.15358647654E+02  0.51100000000E-03 0.  1.
         12    1    3    3    0    0 -0.82604812255E+01 -0.17360394722E+02 -0.25051366493E+02  0.31578312465E+02  0.00000000000E+00 0. -1.
</event>
<event>
 7    1  0.5408841E-013  0.5052871E+02  0.7816164E-02  0.1300439E+00
        -11   -1    0    0    0    0  0.00000000000E+00  0.00000000000E+00  0.45593999997E+02  0.45594000000E+02  0.51100000000E-03 0. -1.
         11   -1    0    0    0    0 -0.00000000000E+00 -0.00000000000E+00 -0.45593999997E+02  0.45594000000E+02  0.51100000000E-03 0.  1.
    9900012    2    1    2    0    0 -0.33039988221E+02  0.48941642614E+01 -0.23185856297E+02  0.50528713266E+02  0.29999554440E+02 0.  0.
         12    1    1    2    0    0  0.33039988221E+02 -0.48941642614E+01  0.23185856297E+02  0.40659286734E+02  0.00000000000E+00 0. -1.
         11    1    3    3    0    0  0.49817913975E+00  0.89957342372E+00  0.38059286335E-01  0.10290109671E+01  0.51100000000E-03 0. -1.
        -11    1    3    3    0    0 -0.21493981344E+02  0.81066819753E+01 -0.27720503987E+02  0.36001887009E+02  0.51100000000E-03 0.  1.
        -12    1    3    3    0    0 -0.12044186017E+02 -0.41120911377E+01  0.44965884031E+01  0.13497815290E+02  0.00000000000E+00 0.  1.
</event>
<event>
 7    1  0.5408841E-013  0.5052886E+02  0.7816164E-02  0.1300439E+00
        -11   -1    0    0    0    0  0.00000000000E+00  0.00000000000E+00  0.45593999997E+02  0.45594000000E+02  0.51100000000E-03 0. -1.
         11   -1    0    0    0    0 -0.00000000000E+00 -0.00000000000E+00 -0.45593999997E+02  0.45594000000E+02  0.51100000000E-03 0.  1.
    9900012    2    1    2    0    0 -0.23038641177E+02 -0.28327549837E+02 -0.17886769906E+02  0.50528860748E+02  0.30000002729E+02 0.  0.
         12    1    1    2    0    0  0.23038641177E+02  0.28327549837E+02  0.17886769906E+02  0.40659139252E+02  0.00000000000E+00 0. -1.
         11    1    3    3    0    0 -0.72079623318E+01 -0.12383194983E+02 -0.89526891384E+01  0.16895232524E+02  0.51100000000E-03 0. -1.
        -11    1    3    3    0    0 -0.15985237842E+02 -0.81192347172E+00 -0.92703724943E+01  0.18496671458E+02  0.51100000000E-03 0.  1.
         12    1    3    3    0    0  0.15455899661E+00 -0.15132431382E+02  0.33629172645E+00  0.15136956766E+02  0.00000000000E+00 0. -1.
</event>
<event>
 7    1  0.5408841E-013  0.5052890E+02  0.7816164E-02  0.1300439E+00
        -11   -1    0    0    0    0  0.00000000000E+00  0.00000000000E+00  0.45593999997E+02  0.45594000000E+02  0.51100000000E-03 0.  1.
         11   -1    0    0    0    0 -0.00000000000E+00 -0.00000000000E+00 -0.45593999997E+02  0.45594000000E+02  0.51100000000E-03 0. -1.
    9900012    2    1    2    0    0 -0.14377520455E+02  0.35321316616E+02  0.14101554442E+02  0.50528900901E+02  0.30000124777E+02 0.  0.
         12    1    1    2    0    0  0.14377520455E+02 -0.35321316616E+02 -0.14101554442E+02  0.40659099099E+02  0.00000000000E+00 0. -1.
         11    1    3    3    0    0 -0.10256422781E+02  0.60764668809E+01 -0.16686117406E+01  0.12037521482E+02  0.51100000000E-03 0. -1.
        -11    1    3    3    0    0 -0.96655522543E+01  0.14916894268E+02  0.20481351959E+01  0.17892218785E+02  0.51100000000E-03 0.  1.
        -12    1    3    3    0    0  0.55444545805E+01  0.14327955466E+02  0.13722030987E+02  0.20599160634E+02  0.00000000000E+00 0.  1.
</event>
<event>
 7    1  0.5408841E-013  0.5052886E+02  0.7816164E-02  0.1300439E+00
        -11   -1    0    0    0    0  0.00000000000E+00  0.00000000000E+00  0.45593999997E+02  0.45594000000E+02  0.51100000000E-03 0.  1.
         11   -1    0    0    0    0 -0.00000000000E+00 -0.00000000000E+00 -0.45593999997E+02  0.45594000000E+02  0.51100000000E-03 0. -1.
    9900012    2    1    2    0    0 -0.26996492332E+02  0.28396206906E+02  0.10863248943E+02  0.50528863973E+02  0.30000012532E+02 0.  0.
         12    1    1    2    0    0  0.26996492332E+02 -0.28396206906E+02 -0.10863248943E+02  0.40659136027E+02  0.00000000000E+00 0. -1.
         11    1    3    3    0    0 -0.41565006991E+01  0.10360060249E+02 -0.29146145363E+01  0.11536998075E+02  0.51100000000E-03 0.  1.
        -11    1    3    3    0    0 -0.11275005640E+01 -0.48037101541E+01  0.13417403168E+01  0.51134289968E+01  0.51100000000E-03 0. -1.
        -12    1    3    3    0    0 -0.21712491069E+02  0.22839856811E+02  0.12436123163E+02  0.33878436902E+02  0.00000000000E+00 0.  1.
</event>
<event>
 7    1  0.5408841E-013  0.5052891E+02  0.7816164E-02  0.1300439E+00
        -11   -1    0    0    0    0  0.00000000000E+00  0.00000000000E+00  0.45593999997E+02  0.45594000000E+02  0.51100000000E-03 0.  1.
         11   -1    0    0    0    0 -0.00000000000E+00 -0.00000000000E+00 -0.45593999997E+02  0.45594000000E+02  0.51100000000E-03 0. -1.
    9900012    2    1    2    0    0 -0.29513327147E+02 -0.24533281914E+02  0.13425480798E+02  0.50528905870E+02  0.30000139883E+02 0.  0.
         12    1    1    2    0    0  0.29513327147E+02  0.24533281914E+02 -0.13425480798E+02  0.40659094130E+02  0.00000000000E+00 0. -1.
         11    1    3    3    0    0 -0.46751510614E+01  0.29204544824E+01 -0.36826379244E+01  0.66293223013E+01  0.51100000000E-03 0. -1.
        -11    1    3    3    0    0 -0.81962832006E+01 -0.18249699607E+02  0.30203578757E+01  0.20232477753E+02  0.51100000000E-03 0.  1.
         12    1    3    3    0    0 -0.16641892885E+02 -0.92040367891E+01  0.14087760847E+02  0.23667105816E+02  0.00000000000E+00 0. -1.
</event>
<event>
 7    1  0.5408841E-013  0.5052882E+02  0.7816164E-02  0.1300439E+00
        -11   -1    0    0    0    0  0.00000000000E+00  0.00000000000E+00  0.45593999997E+02  0.45594000000E+02  0.51100000000E-03 0. -1.
         11   -1    0    0    0    0 -0.00000000000E+00 -0.00000000000E+00 -0.45593999997E+02  0.45594000000E+02  0.51100000000E-03 0.  1.
    9900012    2    1    2    0    0  0.30344876208E+02  0.10342511170E+02 -0.25007791423E+02  0.50528822915E+02  0.29999887733E+02 0.  0.
         12    1    1    2    0    0 -0.30344876208E+02 -0.10342511170E+02  0.25007791423E+02  0.40659177085E+02  0.00000000000E+00 0. -1.
         11    1    3    3    0    0 -0.30179587234E+00  0.85956699444E+00  0.23950062237E+01  0.25624190210E+01  0.51100000000E-03 0. -1.
        -11    1    3    3    0    0  0.64715832460E+00 -0.32710679046E+01  0.21490490854E+01  0.39670028190E+01  0.51100000000E-03 0.  1.
        -12    1    3    3    0    0  0.29999513755E+02  0.12754012080E+02 -0.29551846732E+02  0.43999401075E+02  0.00000000000E+00 0.  1.
</event>
<event>
 7    1  0.5408841E-013  0.5052887E+02  0.7816164E-02  0.1300439E+00
        -11   -1    0    0    0    0  0.00000000000E+00  0.00000000000E+00  0.45593999997E+02  0.45594000000E+02  0.51100000000E-03 0. -1.
         11   -1    0    0    0    0 -0.00000000000E+00 -0.00000000000E+00 -0.45593999997E+02  0.45594000000E+02  0.51100000000E-03 0.  1.
    9900012    2    1    2    0    0  0.25718886882E+02 -0.37897178778E+01 -0.31262459104E+02  0.50528874908E+02  0.30000045771E+02 0.  0.
         12    1    1    2    0    0 -0.25718886882E+02  0.37897178778E+01  0.31262459104E+02  0.40659125092E+02  0.00000000000E+00 0. -1.
         11    1    3    3    0    0  0.10881229728E+02  0.18482925290E+01 -0.97232050669E+01  0.14709114953E+02  0.51100000000E-03 0. -1.
        -11    1    3    3    0    0  0.20148135295E+02 -0.62028849628E+00 -0.10907214074E+02  0.22919411703E+02  0.51100000000E-03 0.  1.
         12    1    3    3    0    0 -0.53104781417E+01 -0.50177219105E+01 -0.10632039962E+02  0.12900348252E+02  0.00000000000E+00 0. -1.
</event>
<event>
 7    1  0.5408841E-013  0.5052883E+02  0.7816164E-02  0.1300439E+00
        -11   -1    0    0    0    0  0.00000000000E+00  0.00000000000E+00  0.45593999997E+02  0.45594000000E+02  0.51100000000E-03 0.  1.
         11   -1    0    0    0    0 -0.00000000000E+00 -0.00000000000E+00 -0.45593999997E+02  0.45594000000E+02  0.51100000000E-03 0. -1.
    9900012    2    1    2    0    0  0.27255900718E+02 -0.14608311502E+02  0.26398507755E+02  0.50528830055E+02  0.29999909436E+02 0.  0.
         12    1    1    2    0    0 -0.27255900718E+02  0.14608311502E+02 -0.26398507755E+02  0.40659169945E+02  0.00000000000E+00 0. -1.
         11    1    3    3    0    0  0.35335157083E+01 -0.11418904540E+02  0.12997933667E+02  0.17658521853E+02  0.51100000000E-03 0. -1.
        -11    1    3    3    0    0  0.10928857236E+02 -0.10045482563E+02  0.33560614173E+01  0.15218895785E+02  0.51100000000E-03 0.  1.
         12    1    3    3    0    0  0.12793527774E+02  0.68560756013E+01  0.10044512670E+02  0.17651412418E+02  0.00000000000E+00 0. -1.
</event>
<event>
 7    1  0.5408841E-013  0.5052884E+02  0.7816164E-02  0.1300439E+00
        -11   -1    0    0    0    0  0.00000000000E+00  0.00000000000E+00  0.45593999997E+02  0.45594000000E+02  0.51100000000E-03 0. -1.
         11   -1    0    0    0    0 -0.00000000000E+00 -0.00000000000E+00 -0.45593999997E+02  0.45594000000E+02  0.51100000000E-03 0.  1.
    9900012    2    1    2    0    0 -0.15359638883E+02 -0.26020506525E+02 -0.27206287779E+02  0.50528839149E+02  0.29999937077E+02 0.  0.
         12    1    1    2    0    0  0.15359638883E+02  0.26020506525E+02  0.27206287779E+02  0.40659160851E+02  0.00000000000E+00 0. -1.
         11    1    3    3    0    0  0.44699026899E+01 -0.85350321769E+00 -0.53125494386E+01  0.69951182691E+01  0.51100000000E-03 0.  1.
        -11    1    3    3    0    0 -0.26450930856E+01 -0.38791880036E+01 -0.14431386080E+02  0.15175952077E+02  0.51100000000E-03 0. -1.
        -12    1    3    3    0    0 -0.17184448487E+02 -0.21287815303E+02 -0.74623522606E+01  0.28357768803E+02  0.00000000000E+00 0.  1.
</event>
<event>
 7    1  0.5408841E-013  0.5052886E+02  0.7816164E-02  0.1300439E+00
        -11   -1    0    0    0    0  0.00000000000E+00  0.00000000000E+00  0.45593999997E+02  0.45594000000E+02  0.51100000000E-03 0.  1.
         11   -1    0    0    0    0 -0.00000000000E+00 -0.00000000000E+00 -0.45593999997E+02  0.45594000000E+02  0.51100000000E-03 0. -1.
    9900012    2    1    2    0    0 -0.25151279694E+02 -0.27514113275E+02  0.16234303795E+02  0.50528856880E+02  0.29999990973E+02 0.  0.
         12    1    1    2    0    0  0.25151279694E+02  0.27514113275E+02 -0.16234303795E+02  0.40659143120E+02  0.00000000000E+00 0. -1.
         11    1    3    3    0    0 -0.10444722508E+02  0.15841070534E+01  0.10000655707E+02  0.14546983820E+02  0.51100000000E-03 0. -1.
        -11    1    3    3    0    0 -0.69578675828E+01 -0.82568925015E+01  0.83452385642E+01  0.13646655342E+02  0.51100000000E-03 0.  1.
         12    1    3    3    0    0 -0.77486896032E+01 -0.20841327827E+02 -0.21115904766E+01  0.22335217718E+02  0.00000000000E+00 0. -1.
</event>
<event>
 7    1  0.5408841E-013  0.5052886E+02  0.7816164E-02  0.1300439E+00
        -11   -1    0    0    0    0  0.00000000000E+00  0.00000000000E+00  0.45593999997E+02  0.45594000000E+02  0.51100000000E-03 0.  1.
         11   -1    0    0    0    0 -0.00000000000E+00 -0.00000000000E+00 -0.45593999997E+02  0.45594000000E+02  0.51100000000E-03 0. -1.
    9900012    2    1    2    0    0  0.10408273760E+02 -0.88873722404E+01  0.38286397787E+02  0.50528858303E+02  0.29999995298E+02 0.  0.
         12    1    1    2    0    0 -0.10408273760E+02  0.88873722404E+01 -0.38286397787E+02  0.40659141697E+02  0.00000000000E+00 0. -1.
         11    1    3    3    0    0 -0.78045481431E+00  0.62738944735E+00 -0.66132197590E+00  0.12000309383E+01  0.51100000000E-03 0. -1.
        -11    1    3    3    0    0  0.19961097630E+01 -0.17053056205E+02  0.15924835879E+02  0.23417762023E+02  0.51100000000E-03 0.  1.
         12    1    3    3    0    0  0.91926188111E+01  0.75382945169E+01  0.23022883884E+02  0.25911065342E+02  0.00000000000E+00 0. -1.
</event>
<event>
 7    1  0.5408841E-013  0.5052886E+02  0.7816164E-02  0.1300439E+00
        -11   -1    0    0    0    0  0.00000000000E+00  0.00000000000E+00  0.45593999997E+02  0.45594000000E+02  0.51100000000E-03 0. -1.
         11   -1    0    0    0    0 -0.00000000000E+00 -0.00000000000E+00 -0.45593999997E+02  0.45594000000E+02  0.51100000000E-03 0.  1.
    9900012    2    1    2    0    0 -0.15332843232E+02  0.34572879490E+02 -0.14926002667E+02  0.50528860395E+02  0.30000001656E+02 0.  0.
         12    1    1    2    0    0  0.15332843232E+02 -0.34572879490E+02  0.14926002667E+02  0.40659139605E+02  0.00000000000E+00 0. -1.
         11    1    3    3    0    0  0.29067572510E+01 -0.18749616475E+01 -0.14248208716E+01  0.37409669436E+01  0.51100000000E-03 0. -1.
        -11    1    3    3    0    0 -0.17068354074E+00  0.41580554898E+01 -0.84814147818E+01  0.94473782230E+01  0.51100000000E-03 0.  1.
         12    1    3    3    0    0 -0.18068916942E+02  0.32289785648E+02 -0.50197670139E+01  0.37340515228E+02  0.00000000000E+00 0. -1.
</event>
<event>
 7    1  0.5408841E-013  0.5052886E+02  0.7816164E-02  0.1300439E+00
        -11   -1    0    0    0    0  0.00000000000E+00  0.00000000000E+00  0.45593999997E+02  0.45594000000E+02  0.51100000000E-03 0.  1.
         11   -1    0    0    0    0 -0.00000000000E+00 -0.00000000000E+00 -0.45593999997E+02  0.45594000000E+02  0.51100000000E-03 0. -1.
    9900012    2    1    2    0    0 -0.18674412854E+02  0.28019407729E+01  0.36008065898E+02  0.50528863545E+02  0.30000011232E+02 0.  0.
         12    1    1    2    0    0  0.18674412854E+02 -0.28019407729E+01 -0.36008065898E+02  0.40659136455E+02  0.00000000000E+00 0. -1.
         11    1    3    3    0    0 -0.45321139094E+01  0.43747374124E+01  0.26930709613E+02  0.27657575896E+02  0.51100000000E-03 0. -1.
        -11    1    3    3    0    0 -0.77261997619E+01 -0.73817047442E+01  0.93690062734E+01  0.14211333734E+02  0.51100000000E-03 0.  1.
        -12    1    3    3    0    0 -0.64160991828E+01  0.58089081047E+01 -0.29164998884E+00  0.86599539148E+01  0.00000000000E+00 0.  1.
</event>
<event>
 7    1  0.5408841E-013  0.5052887E+02  0.7816164E-02  0.1300439E+00
        -11   -1    0    0    0    0  0.00000000000E+00  0.00000000000E+00  0.45593999997E+02  0.45594000000E+02  0.51100000000E-03 0. -1.
         11   -1    0    0    0    0 -0.00000000000E+00 -0.00000000000E+00 -0.45593999997E+02  0.45594000000E+02  0.51100000000E-03 0.  1.
    9900012    2    1    2    0    0 -0.36815098834E+02  0.10965111843E+02  0.13325887302E+02  0.50528874920E+02  0.30000045806E+02 0.  0.
         12    1    1    2    0    0  0.36815098834E+02 -0.10965111843E+02 -0.13325887302E+02  0.40659125080E+02  0.00000000000E+00 0. -1.
         11    1    3    3    0    0 -0.11767286527E+02  0.54160752280E+01  0.10760889970E+02  0.16840417343E+02  0.51100000000E-03 0. -1.
        -11    1    3    3    0    0 -0.10963843900E+01 -0.19400568062E+01  0.77495010884E+01  0.80635380896E+01  0.51100000000E-03 0.  1.
        -12    1    3    3    0    0 -0.23951427917E+02  0.74890934208E+01 -0.51845037561E+01  0.25624919487E+02  0.00000000000E+00 0.  1.
</event>
<event>
 7    1  0.5408841E-013  0.5052886E+02  0.7816164E-02  0.1300439E+00
        -11   -1    0    0    0    0  0.00000000000E+00  0.00000000000E+00  0.45593999997E+02  0.45594000000E+02  0.51100000000E-03 0. -1.
         11   -1    0    0    0    0 -0.00000000000E+00 -0.00000000000E+00 -0.45593999997E+02  0.45594000000E+02  0.51100000000E-03 0.  1.
    9900012    2    1    2    0    0  0.39426531655E+02  0.27528136140E+01  0.95465466255E+01  0.50528856703E+02  0.29999990436E+02 0.  0.
         12    1    1    2    0    0 -0.39426531655E+02 -0.27528136140E+01 -0.95465466255E+01  0.40659143297E+02  0.00000000000E+00 0. -1.
         11    1    3    3    0    0  0.79026700558E+01 -0.52287929179E+01 -0.61540993048E+01  0.11298911802E+02  0.51100000000E-03 0. -1.
        -11    1    3    3    0    0  0.31751075557E+02  0.72235358682E+01  0.10860910404E+02  0.34325932537E+02  0.51100000000E-03 0.  1.
         12    1    3    3    0    0 -0.22721395733E+00  0.75807066371E+00  0.48397355262E+01  0.49040123651E+01  0.00000000000E+00 0. -1.
</event>
<event>
 7    1  0.5408841E-013  0.5052886E+02  0.7816164E-02  0.1300439E+00
        -11   -1    0    0    0    0  0.00000000000E+00  0.00000000000E+00  0.45593999997E+02  0.45594000000E+02  0.51100000000E-03 0.  1.
         11   -1    0    0    0    0 -0.00000000000E+00 -0.00000000000E+00 -0.45593999997E+02  0.45594000000E+02  0.51100000000E-03 0. -1.
    9900012    2    1    2    0    0  0.78239108360E+01 -0.32519467905E+02  0.23117878265E+02  0.50528859957E+02  0.30000000325E+02 0.  0.
         12    1    1    2    0    0 -0.78239108360E+01  0.32519467905E+02 -0.23117878265E+02  0.40659140043E+02  0.00000000000E+00 0. -1.
         11    1    3    3    0    0  0.78240479502E+00  0.10187398959E+00  0.74757703462E+01  0.75172919395E+01  0.51100000000E-03 0. -1.
        -11    1    3    3    0    0  0.37965557791E+01 -0.25180052567E+00  0.90517788381E+01  0.98189581771E+01  0.51100000000E-03 0.  1.
         12    1    3    3    0    0  0.32449502619E+01 -0.32369541369E+02  0.65903290810E+01  0.33192609840E+02  0.00000000000E+00 0. -1.
</event>
<event>
 7    1  0.5408841E-013  0.5052885E+02  0.7816164E-02  0.1300439E+00
        -11   -1    0    0    0    0  0.00000000000E+00  0.00000000000E+00  0.45593999997E+02  0.45594000000E+02  0.51100000000E-03 0. -1.
         11   -1    0    0    0    0 -0.00000000000E+00 -0.00000000000E+00 -0.45593999997E+02  0.45594000000E+02  0.51100000000E-03 0.  1.
    9900012    2    1    2    0    0  0.38513090752E+02  0.12494137016E+02 -0.37154785127E+01  0.50528850973E+02  0.29999973017E+02 0.  0.
         12    1    1    2    0    0 -0.38513090752E+02 -0.12494137016E+02  0.37154785127E+01  0.40659149027E+02  0.00000000000E+00 0. -1.
         11    1    3    3    0    0  0.23061548484E+02  0.88895663585E+01  0.52665653258E+01  0.25270459416E+02  0.51100000000E-03 0.  1.
        -11    1    3    3    0    0  0.17547141446E+02 -0.18127381301E+01 -0.54631159113E+01  0.18467101239E+02  0.51100000000E-03 0. -1.
         12    1    3    3    0    0 -0.20955991781E+01  0.54173087879E+01 -0.35189279272E+01  0.67912903175E+01  0.00000000000E+00 0. -1.
</event>
<event>
 7    1  0.5408841E-013  0.5052883E+02  0.7816164E-02  0.1300439E+00
        -11   -1    0    0    0    0  0.00000000000E+00  0.00000000000E+00  0.45593999997E+02  0.45594000000E+02  0.51100000000E-03 0.  1.
         11   -1    0    0    0    0 -0.00000000000E+00 -0.00000000000E+00 -0.45593999997E+02  0.45594000000E+02  0.51100000000E-03 0. -1.
    9900012    2    1    2    0    0 -0.14148462145E+02  0.22095767051E+02  0.31060684253E+02  0.50528831183E+02  0.29999912863E+02 0.  0.
         12    1    1    2    0    0  0.14148462145E+02 -0.22095767051E+02 -0.31060684253E+02  0.40659168817E+02  0.00000000000E+00 0. -1.
         11    1    3    3    0    0 -0.66295089720E+01  0.14962191181E+02  0.87705123639E+01  0.18567160298E+02  0.51100000000E-03 0. -1.
        -11    1    3    3    0    0 -0.92197273452E+01  0.94421706945E+01  0.45017070467E+01  0.13943576526E+02  0.51100000000E-03 0.  1.
         12    1    3    3    0    0  0.17007741716E+01 -0.23085948253E+01  0.17788464843E+02  0.18018094358E+02  0.00000000000E+00 0. -1.
</event>
<event>
 7    1  0.5408841E-013  0.5052884E+02  0.7816164E-02  0.1300439E+00
        -11   -1    0    0    0    0  0.00000000000E+00  0.00000000000E+00  0.45593999997E+02  0.45594000000E+02  0.51100000000E-03 0. -1.
         11   -1    0    0    0    0 -0.00000000000E+00 -0.00000000000E+00 -0.45593999997E+02  0.45594000000E+02  0.51100000000E-03 0.  1.
    9900012    2    1    2    0    0  0.32182098090E+02  0.24136202798E+02 -0.59095887672E+01  0.50528844052E+02  0.29999951981E+02 0.  0.
         12    1    1    2    0    0 -0.32182098090E+02 -0.24136202798E+02  0.59095887672E+01  0.40659155948E+02  0.00000000000E+00 0. -1.
         11    1    3    3    0    0  0.95981337929E+01 -0.67518765317E+00 -0.29350550326E+01  0.10059552623E+02  0.51100000000E-03 0. -1.
        -11    1    3    3    0    0  0.42490849877E+01  0.17799132945E+01 -0.92824046829E+01  0.10362714486E+02  0.51100000000E-03 0.  1.
         12    1    3    3    0    0  0.18334879310E+02  0.23031477156E+02  0.63078709483E+01  0.30106576943E+02  0.00000000000E+00 0. -1.
</event>
<event>
 7    1  0.5408841E-013  0.5052887E+02  0.7816164E-02  0.1300439E+00
        -11   -1    0    0    0    0  0.00000000000E+00  0.00000000000E+00  0.45593999997E+02  0.45594000000E+02  0.51100000000E-03 0.  1.
         11   -1    0    0    0    0 -0.00000000000E+00 -0.00000000000E+00 -0.45593999997E+02  0.45594000000E+02  0.51100000000E-03 0. -1.
    9900012    2    1    2    0    0  0.52777114878E+01  0.38123964773E+02  0.13110080403E+02  0.50528866503E+02  0.30000020223E+02 0.  0.
         12    1    1    2    0    0 -0.52777114878E+01 -0.38123964773E+02 -0.13110080403E+02  0.40659133497E+02  0.00000000000E+00 0. -1.
         11    1    3    3    0    0  0.68275457085E+01  0.13577814785E+02 -0.32135864571E+01  0.15533820293E+02  0.51100000000E-03 0. -1.
        -11    1    3    3    0    0  0.83741387270E+00  0.12022418259E+02 -0.24534283846E+01  0.12298744403E+02  0.51100000000E-03 0.  1.
         12    1    3    3    0    0 -0.23872480935E+01  0.12523731729E+02  0.18777095244E+02  0.22696301807E+02  0.00000000000E+00 0. -1.
</event>
<event>
 7    1  0.5408841E-013  0.5052885E+02  0.7816164E-02  0.1300439E+00
        -11   -1    0    0    0    0  0.00000000000E+00  0.00000000000E+00  0.45593999997E+02  0.45594000000E+02  0.51100000000E-03 0. -1.
         11   -1    0    0    0    0 -0.00000000000E+00 -0.00000000000E+00 -0.45593999997E+02  0.45594000000E+02  0.51100000000E-03 0.  1.
    9900012    2    1    2    0    0 -0.37251761228E+02 -0.11820387790E+02 -0.11213880905E+02  0.50528850881E+02  0.29999972739E+02 0.  0.
         12    1    1    2    0    0  0.37251761228E+02  0.11820387790E+02  0.11213880905E+02  0.40659149119E+02  0.00000000000E+00 0. -1.
         11    1    3    3    0    0 -0.33106797597E+01  0.66032713934E+01 -0.65016088662E+00  0.74152884641E+01  0.51100000000E-03 0. -1.
        -11    1    3    3    0    0 -0.70570680311E+01  0.24573016358E+01 -0.38913906228E+01  0.84251683523E+01  0.51100000000E-03 0.  1.
         12    1    3    3    0    0 -0.26884013437E+02 -0.20880960820E+02 -0.66723293959E+01  0.34688394065E+02  0.00000000000E+00 0. -1.
</event>
<event>
 7    1  0.5408841E-013  0.5052885E+02  0.7816164E-02  0.1300439E+00
        -11   -1    0    0    0    0  0.00000000000E+00  0.00000000000E+00  0.45593999997E+02  0.45594000000E+02  0.51100000000E-03 0.  1.
         11   -1    0    0    0    0 -0.00000000000E+00 -0.00000000000E+00 -0.45593999997E+02  0.45594000000E+02  0.51100000000E-03 0. -1.
    9900012    2    1    2    0    0 -0.38982094653E+02  0.72027478327E+01  0.90378590920E+01  0.50528853713E+02  0.29999981345E+02 0.  0.
         12    1    1    2    0    0  0.38982094653E+02 -0.72027478327E+01 -0.90378590920E+01  0.40659146287E+02  0.00000000000E+00 0. -1.
         11    1    3    3    0    0 -0.85882187546E+01  0.59163741080E+01  0.91967705060E+01  0.13904731999E+02  0.51100000000E-03 0. -1.
        -11    1    3    3    0    0 -0.32948261018E+02 -0.59157554828E+00  0.16113637590E+01  0.32992944081E+02  0.51100000000E-03 0.  1.
         12    1    3    3    0    0  0.25543851195E+01  0.18779492730E+01 -0.17702751730E+01  0.36311776325E+01  0.00000000000E+00 0. -1.
</event>
<event>
 7    1  0.5408841E-013  0.5052886E+02  0.7816164E-02  0.1300439E+00
        -11   -1    0    0    0    0  0.00000000000E+00  0.00000000000E+00  0.45593999997E+02  0.45594000000E+02  0.51100000000E-03 0. -1.
         11   -1    0    0    0    0 -0.00000000000E+00 -0.00000000000E+00 -0.45593999997E+02  0.45594000000E+02  0.51100000000E-03 0.  1.
    9900012    2    1    2    0    0 -0.35173384175E+02  0.13000363040E+02 -0.15715885008E+02  0.50528862834E+02  0.30000009069E+02 0.  0.
         12    1    1    2    0    0  0.35173384175E+02 -0.13000363040E+02  0.15715885008E+02  0.40659137166E+02  0.00000000000E+00 0. -1.
         11    1    3    3    0    0 -0.25522971012E+02  0.15877311094E+01 -0.44900579632E+01  0.25963504388E+02  0.51100000000E-03 0. -1.
        -11    1    3    3    0    0 -0.47348050177E+01 -0.34374875983E+01 -0.11626312468E+01  0.59654347052E+01  0.51100000000E-03 0.  1.
        -12    1    3    3    0    0 -0.49156081456E+01  0.14850119529E+02 -0.10063195798E+02  0.18599923740E+02  0.00000000000E+00 0.  1.
</event>
<event>
 7    1  0.5408841E-013  0.5052885E+02  0.7816164E-02  0.1300439E+00
        -11   -1    0    0    0    0  0.00000000000E+00  0.00000000000E+00  0.45593999997E+02  0.45594000000E+02  0.51100000000E-03 0. -1.
         11   -1    0    0    0    0 -0.00000000000E+00 -0.00000000000E+00 -0.45593999997E+02  0.45594000000E+02  0.51100000000E-03 0.  1.
    9900012    2    1    2    0    0  0.44060041043E+01 -0.13132559782E+02 -0.38226812640E+02  0.50528853388E+02  0.29999980359E+02 0.  0.
         12    1    1    2    0    0 -0.44060041043E+01  0.13132559782E+02  0.38226812640E+02  0.40659146612E+02  0.00000000000E+00 0. -1.
         11    1    3    3    0    0  0.30712227163E+01 -0.70067357773E+01 -0.10000224752E+02  0.12590919369E+02  0.51100000000E-03 0. -1.
        -11    1    3    3    0    0  0.39342131359E+01 -0.12743730247E+02 -0.27777710727E+02  0.30813664291E+02  0.51100000000E-03 0.  1.
         12    1    3    3    0    0 -0.25994317478E+01  0.66179062421E+01 -0.44887716174E+00  0.71242697273E+01  0.00000000000E+00 0. -1.
</event>
<event>
 7    1  0.5408841E-013  0.5052885E+02  0.7816164E-02  0.1300439E+00
        -11   -1    0    0    0    0  0.00000000000E+00  0.00000000000E+00  0.45593999997E+02  0.45594000000E+02  0.51100000000E-03 0.  1.
         11   -1    0    0    0    0 -0.00000000000E+00 -0.00000000000E+00 -0.45593999997E+02  0.45594000000E+02  0.51100000000E-03 0. -1.
    9900012    2    1    2    0    0  0.35624184651E+02 -0.71747113625E+01  0.18237537178E+02  0.50528846326E+02  0.29999958892E+02 0.  0.
         12    1    1    2    0    0 -0.35624184651E+02  0.71747113625E+01 -0.18237537178E+02  0.40659153674E+02  0.00000000000E+00 0. -1.
         11    1    3    3    0    0  0.23422775947E+02 -0.40127830856E+01  0.27593092764E+01  0.23923683853E+02  0.51100000000E-03 0. -1.
        -11    1    3    3    0    0  0.15362893909E+02 -0.54265404315E+01  0.79442259566E+01  0.18126681346E+02  0.51100000000E-03 0.  1.
         12    1    3    3    0    0 -0.31614852048E+01  0.22646121546E+01  0.75340019450E+01  0.84784811268E+01  0.00000000000E+00 0. -1.
</event>
<event>
 7    1  0.5408841E-013  0.5052886E+02  0.7816164E-02  0.1300439E+00
        -11   -1    0    0    0    0  0.00000000000E+00  0.00000000000E+00  0.45593999997E+02  0.45594000000E+02  0.51100000000E-03 0.  1.
         11   -1    0    0    0    0 -0.00000000000E+00 -0.00000000000E+00 -0.45593999997E+02  0.45594000000E+02  0.51100000000E-03 0. -1.
    9900012    2    1    2    0    0  0.14987631088E+01  0.22606176860E+02  0.33762109981E+02  0.50528860886E+02  0.30000003150E+02 0.  0.
         12    1    1    2    0    0 -0.14987631088E+01 -0.22606176860E+02 -0.33762109981E+02  0.40659139114E+02  0.00000000000E+00 0. -1.
         11    1    3    3    0    0  0.63990230639E+01  0.83943387132E+01  0.22324078454E+02  0.24693661083E+02  0.51100000000E-03 0. -1.
        -11    1    3    3    0    0  0.94333221349E+00  0.15935631011E+02  0.11612076134E+02  0.19740175374E+02  0.51100000000E-03 0.  1.
         12    1    3    3    0    0 -0.58435921685E+01 -0.17237928637E+01 -0.17404460755E+00  0.60950244294E+01  0.00000000000E+00 0. -1.
</event>
<event>
 7    1  0.5408841E-013  0.5052887E+02  0.7816164E-02  0.1300439E+00
        -11   -1    0    0    0    0  0.00000000000E+00  0.00000000000E+00  0.45593999997E+02  0.45594000000E+02  0.51100000000E-03 0.  1.
         11   -1    0    0    0    0 -0.00000000000E+00 -0.00000000000E+00 -0.45593999997E+02  0.45594000000E+02  0.51100000000E-03 0. -1.
    9900012    2    1    2    0    0  0.39159090217E+02  0.74395849243E+01  0.80239100427E+01  0.50528869379E+02  0.30000028965E+02 0.  0.
         12    1    1    2    0    0 -0.39159090217E+02 -0.74395849243E+01 -0.80239100427E+01  0.40659130621E+02  0.00000000000E+00 0. -1.
         11    1    3    3    0    0  0.11149106123E+02  0.58186046174E+00  0.60062313461E+01  0.12677379232E+02  0.51100000000E-03 0. -1.
        -11    1    3    3    0    0  0.31901709782E+02  0.92622185017E+01  0.19522808091E+01  0.33276405744E+02  0.51100000000E-03 0.  1.
         12    1    3    3    0    0 -0.38917256885E+01 -0.24044940391E+01  0.65397887583E-01  0.45750844038E+01  0.00000000000E+00 0. -1.
</event>
<event>
 7    1  0.5408841E-013  0.5052886E+02  0.7816164E-02  0.1300439E+00
        -11   -1    0    0    0    0  0.00000000000E+00  0.00000000000E+00  0.45593999997E+02  0.45594000000E+02  0.51100000000E-03 0. -1.
         11   -1    0    0    0    0 -0.00000000000E+00 -0.00000000000E+00 -0.45593999997E+02  0.45594000000E+02  0.51100000000E-03 0.  1.
    9900012    2    1    2    0    0  0.37039261341E+02  0.16752548673E+02 -0.78179013069E+00  0.50528856336E+02  0.29999989318E+02 0.  0.
         12    1    1    2    0    0 -0.37039261341E+02 -0.16752548673E+02  0.78179013069E+00  0.40659143664E+02  0.00000000000E+00 0. -1.
         11    1    3    3    0    0  0.12871699187E+02  0.10330938720E+01 -0.71323994468E+01  0.14751916656E+02  0.51100000000E-03 0. -1.
        -11    1    3    3    0    0  0.14720331456E+02  0.12690474718E+02 -0.56180000356E+01  0.20231120370E+02  0.51100000000E-03 0.  1.
         12    1    3    3    0    0  0.94472306981E+01  0.30289800826E+01  0.11968609352E+02  0.15545819310E+02  0.00000000000E+00 0. -1.
</event>
<event>
 7    1  0.5408841E-013  0.5052886E+02  0.7816164E-02  0.1300439E+00
        -11   -1    0    0    0    0  0.00000000000E+00  0.00000000000E+00  0.45593999997E+02  0.45594000000E+02  0.51100000000E-03 0.  1.
         11   -1    0    0    0    0 -0.00000000000E+00 -0.00000000000E+00 -0.45593999997E+02  0.45594000000E+02  0.51100000000E-03 0. -1.
    9900012    2    1    2    0    0 -0.38081971405E+02  0.12650706239E+02  0.65489647270E+01  0.50528857690E+02  0.29999993434E+02 0.  0.
         12    1    1    2    0    0  0.38081971405E+02 -0.12650706239E+02 -0.65489647270E+01  0.40659142310E+02  0.00000000000E+00 0. -1.
         11    1    3    3    0    0  0.71199620043E+00  0.34882286684E+01 -0.31529095140E+01  0.47555774095E+01  0.51100000000E-03 0. -1.
        -11    1    3    3    0    0 -0.11311101404E+02  0.62334410639E+01  0.12525079192E+02  0.17990953602E+02  0.51100000000E-03 0.  1.
         12    1    3    3    0    0 -0.27482866201E+02  0.29290365070E+01 -0.28232049508E+01  0.27782326679E+02  0.00000000000E+00 0. -1.
</event>
<event>
 7    1  0.5408841E-013  0.5052886E+02  0.7816164E-02  0.1300439E+00
        -11   -1    0    0    0    0  0.00000000000E+00  0.00000000000E+00  0.45593999997E+02  0.45594000000E+02  0.51100000000E-03 0.  1.
         11   -1    0    0    0    0 -0.00000000000E+00 -0.00000000000E+00 -0.45593999997E+02  0.45594000000E+02  0.51100000000E-03 0. -1.
    9900012    2    1    2    0    0  0.10878565873E+02  0.20555455907E+02  0.33351099565E+02  0.50528858282E+02  0.29999995235E+02 0.  0.
         12    1    1    2    0    0 -0.10878565873E+02 -0.20555455907E+02 -0.33351099565E+02  0.40659141718E+02  0.00000000000E+00 0. -1.
         11    1    3    3    0    0 -0.23068621372E+01 -0.10486978653E+00  0.33098490730E+00  0.23328441572E+01  0.51100000000E-03 0. -1.
        -11    1    3    3    0    0 -0.75116396709E+01  0.39736082400E+01  0.87646469382E+01  0.12207920757E+02  0.51100000000E-03 0.  1.
        -12    1    3    3    0    0  0.20697067681E+02  0.16686717454E+02  0.24255467720E+02  0.35988093368E+02  0.00000000000E+00 0.  1.
</event>
<event>
 7    1  0.5408841E-013  0.5052886E+02  0.7816164E-02  0.1300439E+00
        -11   -1    0    0    0    0  0.00000000000E+00  0.00000000000E+00  0.45593999997E+02  0.45594000000E+02  0.51100000000E-03 0. -1.
         11   -1    0    0    0    0 -0.00000000000E+00 -0.00000000000E+00 -0.45593999997E+02  0.45594000000E+02  0.51100000000E-03 0.  1.
    9900012    2    1    2    0    0  0.86484777233E+01 -0.39539944713E+02  0.38680877786E+01  0.50528862061E+02  0.30000006722E+02 0.  0.
         12    1    1    2    0    0 -0.86484777233E+01  0.39539944713E+02 -0.38680877786E+01  0.40659137939E+02  0.00000000000E+00 0. -1.
         11    1    3    3    0    0 -0.21588961068E+01 -0.36952549517E+01  0.60185262581E+00  0.43218015228E+01  0.51100000000E-03 0. -1.
        -11    1    3    3    0    0  0.48110163238E+01 -0.61174303886E+01 -0.10362344639E+02  0.12959437461E+02  0.51100000000E-03 0.  1.
         12    1    3    3    0    0  0.59963575063E+01 -0.29727259373E+02  0.13628579792E+02  0.33247623078E+02  0.00000000000E+00 0. -1.
</event>
<event>
 7    1  0.5408841E-013  0.5052885E+02  0.7816164E-02  0.1300439E+00
        -11   -1    0    0    0    0  0.00000000000E+00  0.00000000000E+00  0.45593999997E+02  0.45594000000E+02  0.51100000000E-03 0.  1.
         11   -1    0    0    0    0 -0.00000000000E+00 -0.00000000000E+00 -0.45593999997E+02  0.45594000000E+02  0.51100000000E-03 0. -1.
    9900012    2    1    2    0    0 -0.32882333327E+01  0.31482438506E+02  0.25518816628E+02  0.50528850786E+02  0.29999972449E+02 0.  0.
         12    1    1    2    0    0  0.32882333327E+01 -0.31482438506E+02 -0.25518816628E+02  0.40659149214E+02  0.00000000000E+00 0. -1.
         11    1    3    3    0    0 -0.97111421331E+01  0.32605037071E+02  0.18888448579E+02  0.38912314425E+02  0.51100000000E-03 0. -1.
        -11    1    3    3    0    0 -0.70917447968E+00  0.58894696368E+00  0.35390247074E+01  0.36571140410E+01  0.51100000000E-03 0.  1.
         12    1    3    3    0    0  0.71320832800E+01 -0.17115455289E+01  0.30913433414E+01  0.79594223198E+01  0.00000000000E+00 0. -1.
</event>
<event>
 7    1  0.5408841E-013  0.5052887E+02  0.7816164E-02  0.1300439E+00
        -11   -1    0    0    0    0  0.00000000000E+00  0.00000000000E+00  0.45593999997E+02  0.45594000000E+02  0.51100000000E-03 0.  1.
         11   -1    0    0    0    0 -0.00000000000E+00 -0.00000000000E+00 -0.45593999997E+02  0.45594000000E+02  0.51100000000E-03 0. -1.
    9900012    2    1    2    0    0  0.79562324552E+00 -0.13314869317E+02  0.38408937337E+02  0.50528865373E+02  0.30000016788E+02 0.  0.
         12    1    1    2    0    0 -0.79562324552E+00  0.13314869317E+02 -0.38408937337E+02  0.40659134627E+02  0.00000000000E+00 0. -1.
         11    1    3    3    0    0 -0.33768567394E+01 -0.48160244576E+01  0.12930025503E+02  0.14205027729E+02  0.51100000000E-03 0. -1.
        -11    1    3    3    0    0 -0.81530962156E+01 -0.52080855026E+01  0.20427856569E+02  0.22602974511E+02  0.51100000000E-03 0.  1.
         12    1    3    3    0    0  0.12325576201E+02 -0.32907593564E+01  0.50510552655E+01  0.13720863133E+02  0.00000000000E+00 0. -1.
</event>
<event>
 7    1  0.5408841E-013  0.5052887E+02  0.7816164E-02  0.1300439E+00
        -11   -1    0    0    0    0  0.00000000000E+00  0.00000000000E+00  0.45593999997E+02  0.45594000000E+02  0.51100000000E-03 0. -1.
         11   -1    0    0    0    0 -0.00000000000E+00 -0.00000000000E+00 -0.45593999997E+02  0.45594000000E+02  0.51100000000E-03 0.  1.
    9900012    2    1    2    0    0  0.26865730698E+02  0.24544026433E+02 -0.18138033195E+02  0.50528868582E+02  0.30000026543E+02 0.  0.
         12    1    1    2    0    0 -0.26865730698E+02 -0.24544026433E+02  0.18138033195E+02  0.40659131418E+02  0.00000000000E+00 0. -1.
         11    1    3    3    0    0  0.15823419860E+02  0.34849121502E+01 -0.64920881509E+01  0.17454868593E+02  0.51100000000E-03 0. -1.
        -11    1    3    3    0    0  0.16031006249E+02  0.20366417981E+02 -0.98162103167E+01  0.27715377103E+02  0.51100000000E-03 0.  1.
        -12    1    3    3    0    0 -0.49886954113E+01  0.69269630195E+00 -0.18297347271E+01  0.53586228870E+01  0.00000000000E+00 0.  1.
</event>
<event>
 7    1  0.5408841E-013  0.5052883E+02  0.7816164E-02  0.1300439E+00
        -11   -1    0    0    0    0  0.00000000000E+00  0.00000000000E+00  0.45593999997E+02  0.45594000000E+02  0.51100000000E-03 0.  1.
         11   -1    0    0    0    0 -0.00000000000E+00 -0.00000000000E+00 -0.45593999997E+02  0.45594000000E+02  0.51100000000E-03 0. -1.
    9900012    2    1    2    0    0 -0.70648627975E+01  0.18353247705E+02  0.35586711253E+02  0.50528831225E+02  0.29999912992E+02 0.  0.
         12    1    1    2    0    0  0.70648627975E+01 -0.18353247705E+02 -0.35586711253E+02  0.40659168775E+02  0.00000000000E+00 0. -1.
         11    1    3    3    0    0 -0.24905454896E+01  0.20753632814E+02  0.21332451075E+02  0.29866194283E+02  0.51100000000E-03 0.  1.
        -11    1    3    3    0    0 -0.39011739456E+01  0.56501009002E+01  0.69952025362E+01  0.98018190720E+01  0.51100000000E-03 0. -1.
         12    1    3    3    0    0 -0.67314336231E+00 -0.80504860092E+01  0.72590576413E+01  0.10860817870E+02  0.00000000000E+00 0. -1.
</event>
<event>
 7    1  0.5408841E-013  0.5052886E+02  0.7816164E-02  0.1300439E+00
        -11   -1    0    0    0    0  0.00000000000E+00  0.00000000000E+00  0.45593999997E+02  0.45594000000E+02  0.51100000000E-03 0.  1.
         11   -1    0    0    0    0 -0.00000000000E+00 -0.00000000000E+00 -0.45593999997E+02  0.45594000000E+02  0.51100000000E-03 0. -1.
    9900012    2    1    2    0    0  0.12787206018E+02 -0.36591250621E+02 -0.12277358059E+02  0.50528858584E+02  0.29999996153E+02 0.  0.
         12    1    1    2    0    0 -0.12787206018E+02  0.36591250621E+02  0.12277358059E+02  0.40659141416E+02  0.00000000000E+00 0. -1.
         11    1    3    3    0    0 -0.69948578512E+01 -0.12716908093E+02 -0.38755063231E+01  0.15022228108E+02  0.51100000000E-03 0. -1.
        -11    1    3    3    0    0 -0.75650312366E+00  0.39761226754E+00  0.19003221179E+01  0.20836546989E+01  0.51100000000E-03 0.  1.
        -12    1    3    3    0    0  0.20538566993E+02 -0.24271954795E+02 -0.10302173854E+02  0.33422975777E+02  0.00000000000E+00 0.  1.
</event>
<event>
 7    1  0.5408841E-013  0.5052888E+02  0.7816164E-02  0.1300439E+00
        -11   -1    0    0    0    0  0.00000000000E+00  0.00000000000E+00  0.45593999997E+02  0.45594000000E+02  0.51100000000E-03 0.  1.
         11   -1    0    0    0    0 -0.00000000000E+00 -0.00000000000E+00 -0.45593999997E+02  0.45594000000E+02  0.51100000000E-03 0. -1.
    9900012    2    1    2    0    0  0.38393687333E+02  0.12907523141E+01  0.13320020179E+02  0.50528877947E+02  0.30000055007E+02 0.  0.
         12    1    1    2    0    0 -0.38393687333E+02 -0.12907523141E+01 -0.13320020179E+02  0.40659122053E+02  0.00000000000E+00 0. -1.
         11    1    3    3    0    0 -0.71420175655E+00 -0.88648877317E-02  0.37443327157E+01  0.38118486961E+01  0.51100000000E-03 0. -1.
        -11    1    3    3    0    0  0.21458818338E+01  0.48660955885E+01  0.79283231117E+01  0.95468320790E+01  0.51100000000E-03 0.  1.
         12    1    3    3    0    0  0.36962007256E+02 -0.35664783866E+01  0.16473643513E+01  0.37170197172E+02  0.00000000000E+00 0. -1.
</event>
<event>
 7    1  0.5408841E-013  0.5052886E+02  0.7816164E-02  0.1300439E+00
        -11   -1    0    0    0    0  0.00000000000E+00  0.00000000000E+00  0.45593999997E+02  0.45594000000E+02  0.51100000000E-03 0.  1.
         11   -1    0    0    0    0 -0.00000000000E+00 -0.00000000000E+00 -0.45593999997E+02  0.45594000000E+02  0.51100000000E-03 0. -1.
    9900012    2    1    2    0    0  0.40230767536E+02  0.29802898542E+01  0.50763125593E+01  0.50528859166E+02  0.29999997922E+02 0.  0.
         12    1    1    2    0    0 -0.40230767536E+02 -0.29802898542E+01 -0.50763125593E+01  0.40659140834E+02  0.00000000000E+00 0. -1.
         11    1    3    3    0    0  0.85592229856E+01 -0.13610235925E+00 -0.93744771550E+01  0.12694866843E+02  0.51100000000E-03 0. -1.
        -11    1    3    3    0    0  0.19797061452E+02  0.30864259053E+01  0.12454160655E+01  0.20074878043E+02  0.51100000000E-03 0.  1.
         12    1    3    3    0    0  0.11874483098E+02  0.29966308140E-01  0.13205373649E+02  0.17759114280E+02  0.00000000000E+00 0. -1.
</event>
<event>
 7    1  0.5408841E-013  0.5052886E+02  0.7816164E-02  0.1300439E+00
        -11   -1    0    0    0    0  0.00000000000E+00  0.00000000000E+00  0.45593999997E+02  0.45594000000E+02  0.51100000000E-03 0. -1.
         11   -1    0    0    0    0 -0.00000000000E+00 -0.00000000000E+00 -0.45593999997E+02  0.45594000000E+02  0.51100000000E-03 0.  1.
    9900012    2    1    2    0    0  0.14603728648E+02 -0.18511690311E+02 -0.33124222607E+02  0.50528859676E+02  0.29999999470E+02 0.  0.
         12    1    1    2    0    0 -0.14603728648E+02  0.18511690311E+02  0.33124222607E+02  0.40659140324E+02  0.00000000000E+00 0. -1.
         11    1    3    3    0    0  0.66408057208E+01 -0.13746124745E+02 -0.50183187110E+01  0.16069840356E+02  0.51100000000E-03 0. -1.
        -11    1    3    3    0    0  0.97447330021E+01 -0.96902670022E+01 -0.14990102726E+02  0.20336279794E+02  0.51100000000E-03 0.  1.
         12    1    3    3    0    0 -0.17818100748E+01  0.49247014363E+01 -0.13115801170E+02  0.14122739526E+02  0.00000000000E+00 0. -1.
</event>
<event>
 7    1  0.5408841E-013  0.5052884E+02  0.7816164E-02  0.1300439E+00
        -11   -1    0    0    0    0  0.00000000000E+00  0.00000000000E+00  0.45593999997E+02  0.45594000000E+02  0.51100000000E-03 0. -1.
         11   -1    0    0    0    0 -0.00000000000E+00 -0.00000000000E+00 -0.45593999997E+02  0.45594000000E+02  0.51100000000E-03 0.  1.
    9900012    2    1    2    0    0 -0.38300829007E+02 -0.11332145603E+01 -0.13598876339E+02  0.50528842169E+02  0.29999946256E+02 0.  0.
         12    1    1    2    0    0  0.38300829007E+02  0.11332145603E+01  0.13598876339E+02  0.40659157831E+02  0.00000000000E+00 0. -1.
         11    1    3    3    0    0 -0.22884016727E+02 -0.94212585544E+01 -0.13123835813E+02  0.28012022437E+02  0.51100000000E-03 0. -1.
        -11    1    3    3    0    0  0.13695459060E+01  0.69783569864E+00  0.33639212401E+01  0.36984587360E+01  0.51100000000E-03 0.  1.
        -12    1    3    3    0    0 -0.16786358186E+02  0.75902082954E+01 -0.38389617669E+01  0.18818360996E+02  0.00000000000E+00 0.  1.
</event>
<event>
 7    1  0.5408841E-013  0.5052887E+02  0.7816164E-02  0.1300439E+00
        -11   -1    0    0    0    0  0.00000000000E+00  0.00000000000E+00  0.45593999997E+02  0.45594000000E+02  0.51100000000E-03 0.  1.
         11   -1    0    0    0    0 -0.00000000000E+00 -0.00000000000E+00 -0.45593999997E+02  0.45594000000E+02  0.51100000000E-03 0. -1.
    9900012    2    1    2    0    0 -0.20479861116E+02  0.33718701590E+02  0.98381388568E+01  0.50528874033E+02  0.30000043111E+02 0.  0.
         12    1    1    2    0    0  0.20479861116E+02 -0.33718701590E+02 -0.98381388568E+01  0.40659125967E+02  0.00000000000E+00 0. -1.
         11    1    3    3    0    0  0.18666556129E+01  0.15452382164E+01  0.31214890184E+01  0.39516905592E+01  0.51100000000E-03 0. -1.
        -11    1    3    3    0    0 -0.92424661803E+01 -0.13228089216E+01  0.49449675926E+01  0.10565306871E+02  0.51100000000E-03 0.  1.
         12    1    3    3    0    0 -0.13104050549E+02  0.33496272295E+02  0.17716822459E+01  0.36011876602E+02  0.00000000000E+00 0. -1.
</event>
<event>
 7    1  0.5408841E-013  0.5052886E+02  0.7816164E-02  0.1300439E+00
        -11   -1    0    0    0    0  0.00000000000E+00  0.00000000000E+00  0.45593999997E+02  0.45594000000E+02  0.51100000000E-03 0. -1.
         11   -1    0    0    0    0 -0.00000000000E+00 -0.00000000000E+00 -0.45593999997E+02  0.45594000000E+02  0.51100000000E-03 0.  1.
    9900012    2    1    2    0    0 -0.15730657725E+02 -0.25012901986E+02 -0.27929671562E+02  0.50528863121E+02  0.30000009941E+02 0.  0.
         12    1    1    2    0    0  0.15730657725E+02  0.25012901986E+02  0.27929671562E+02  0.40659136879E+02  0.00000000000E+00 0. -1.
         11    1    3    3    0    0 -0.31592824094E+00 -0.35417846585E+01 -0.17562927036E+02  0.17919276089E+02  0.51100000000E-03 0. -1.
        -11    1    3    3    0    0 -0.79198237718E+00 -0.10162268596E+02 -0.97627616061E+01  0.14114193337E+02  0.51100000000E-03 0.  1.
        -12    1    3    3    0    0 -0.14622747107E+02 -0.11308848731E+02 -0.60398292029E+00  0.18495393695E+02  0.00000000000E+00 0.  1.
</event>
<event>
 7    1  0.5408841E-013  0.5052883E+02  0.7816164E-02  0.1300439E+00
        -11   -1    0    0    0    0  0.00000000000E+00  0.00000000000E+00  0.45593999997E+02  0.45594000000E+02  0.51100000000E-03 0. -1.
         11   -1    0    0    0    0 -0.00000000000E+00 -0.00000000000E+00 -0.45593999997E+02  0.45594000000E+02  0.51100000000E-03 0.  1.
    9900012    2    1    2    0    0  0.36557136653E+02  0.16980790889E+02 -0.53288364041E+01  0.50528831331E+02  0.29999913313E+02 0.  0.
         12    1    1    2    0    0 -0.36557136653E+02 -0.16980790889E+02  0.53288364041E+01  0.40659168669E+02  0.00000000000E+00 0. -1.
         11    1    3    3    0    0 -0.16959861833E+01  0.12361320624E+01 -0.56471525884E+00  0.21733143340E+01  0.51100000000E-03 0. -1.
        -11    1    3    3    0    0  0.19157744272E+02  0.17520564598E+02  0.55970373519E+01  0.26557789381E+02  0.51100000000E-03 0.  1.
        -12    1    3    3    0    0  0.19095378564E+02 -0.17759057718E+01 -0.10361158497E+02  0.21797727615E+02  0.00000000000E+00 0.  1.
</event>
<event>
 7    1  0.5408841E-013  0.5052886E+02  0.7816164E-02  0.1300439E+00
        -11   -1    0    0    0    0  0.00000000000E+00  0.00000000000E+00  0.45593999997E+02  0.45594000000E+02  0.51100000000E-03 0. -1.
         11   -1    0    0    0    0 -0.00000000000E+00 -0.00000000000E+00 -0.45593999997E+02  0.45594000000E+02  0.51100000000E-03 0.  1.
    9900012    2    1    2    0    0  0.64608131647E+01  0.22750185896E+02 -0.33073445277E+02  0.50528857762E+02  0.29999993654E+02 0.  0.
         12    1    1    2    0    0 -0.64608131647E+01 -0.22750185896E+02  0.33073445277E+02  0.40659142238E+02  0.00000000000E+00 0. -1.
         11    1    3    3    0    0  0.20094589342E+01  0.20456798115E+02 -0.17642273038E+02  0.27088158160E+02  0.51100000000E-03 0. -1.
        -11    1    3    3    0    0  0.10281461023E+02  0.29002907237E+01 -0.13611822200E+02  0.17303231805E+02  0.51100000000E-03 0.  1.
         12    1    3    3    0    0 -0.58301067923E+01 -0.60690294235E+00 -0.18193500395E+01  0.61374677969E+01  0.00000000000E+00 0. -1.
</event>
<event>
 7    1  0.5408841E-013  0.5052885E+02  0.7816164E-02  0.1300439E+00
        -11   -1    0    0    0    0  0.00000000000E+00  0.00000000000E+00  0.45593999997E+02  0.45594000000E+02  0.51100000000E-03 0.  1.
         11   -1    0    0    0    0 -0.00000000000E+00 -0.00000000000E+00 -0.45593999997E+02  0.45594000000E+02  0.51100000000E-03 0. -1.
    9900012    2    1    2    0    0 -0.31503967940E+02  0.18077755378E+02  0.18271878672E+02  0.50528846226E+02  0.29999958588E+02 0.  0.
         12    1    1    2    0    0  0.31503967940E+02 -0.18077755378E+02 -0.18271878672E+02  0.40659153774E+02  0.00000000000E+00 0. -1.
         11    1    3    3    0    0 -0.33069706804E+01 -0.41514370517E+00  0.26131105853E+01  0.42351796384E+01  0.51100000000E-03 0. -1.
        -11    1    3    3    0    0 -0.21804435287E+02  0.24634275299E+02  0.17465503595E+02  0.37246808371E+02  0.51100000000E-03 0.  1.
         12    1    3    3    0    0 -0.63925619719E+01 -0.61413762160E+01 -0.18067355088E+01  0.90468582165E+01  0.00000000000E+00 0. -1.
</event>
<event>
 7    1  0.5408841E-013  0.5052871E+02  0.7816164E-02  0.1300439E+00
        -11   -1    0    0    0    0  0.00000000000E+00  0.00000000000E+00  0.45593999997E+02  0.45594000000E+02  0.51100000000E-03 0. -1.
         11   -1    0    0    0    0 -0.00000000000E+00 -0.00000000000E+00 -0.45593999997E+02  0.45594000000E+02  0.51100000000E-03 0.  1.
    9900012    2    1    2    0    0 -0.37068534646E+02 -0.14399868915E+02 -0.84702435621E+01  0.50528714326E+02  0.29999557661E+02 0.  0.
         12    1    1    2    0    0  0.37068534646E+02  0.14399868915E+02  0.84702435621E+01  0.40659285674E+02  0.00000000000E+00 0. -1.
         11    1    3    3    0    0 -0.82048823453E+01 -0.32622491808E+01  0.71993959879E+00  0.88589320634E+01  0.51100000000E-03 0.  1.
        -11    1    3    3    0    0 -0.30749714000E+02 -0.19224932058E+01 -0.95525148654E+01  0.32256649419E+02  0.51100000000E-03 0. -1.
         12    1    3    3    0    0  0.18860616996E+01 -0.92151265280E+01  0.36233170455E+00  0.94131328433E+01  0.00000000000E+00 0. -1.
</event>
<event>
 7    1  0.5408841E-013  0.5052889E+02  0.7816164E-02  0.1300439E+00
        -11   -1    0    0    0    0  0.00000000000E+00  0.00000000000E+00  0.45593999997E+02  0.45594000000E+02  0.51100000000E-03 0.  1.
         11   -1    0    0    0    0 -0.00000000000E+00 -0.00000000000E+00 -0.45593999997E+02  0.45594000000E+02  0.51100000000E-03 0. -1.
    9900012    2    1    2    0    0  0.84595147027E+01 -0.15098697223E+02  0.36791703426E+02  0.50528886781E+02  0.30000081858E+02 0.  0.
         12    1    1    2    0    0 -0.84595147027E+01  0.15098697223E+02 -0.36791703426E+02  0.40659113219E+02  0.00000000000E+00 0. -1.
         11    1    3    3    0    0 -0.28807324522E+01 -0.90848654738E+00  0.30261769766E+01  0.42757121772E+01  0.51100000000E-03 0. -1.
        -11    1    3    3    0    0 -0.64837656744E+01  0.86538302166E+00  0.14815915075E+02  0.16195661298E+02  0.51100000000E-03 0.  1.
         12    1    3    3    0    0  0.17824012829E+02 -0.15055593697E+02  0.18949611374E+02  0.30057513306E+02  0.00000000000E+00 0. -1.
</event>
<event>
 7    1  0.5408841E-013  0.5052884E+02  0.7816164E-02  0.1300439E+00
        -11   -1    0    0    0    0  0.00000000000E+00  0.00000000000E+00  0.45593999997E+02  0.45594000000E+02  0.51100000000E-03 0.  1.
         11   -1    0    0    0    0 -0.00000000000E+00 -0.00000000000E+00 -0.45593999997E+02  0.45594000000E+02  0.51100000000E-03 0. -1.
    9900012    2    1    2    0    0  0.20887050305E+02 -0.23043539773E+02  0.26189568233E+02  0.50528842607E+02  0.29999947587E+02 0.  0.
         12    1    1    2    0    0 -0.20887050305E+02  0.23043539773E+02 -0.26189568233E+02  0.40659157393E+02  0.00000000000E+00 0. -1.
         11    1    3    3    0    0  0.51920927510E+01 -0.92781590707E+00  0.51386787130E+01  0.73637414858E+01  0.51100000000E-03 0. -1.
        -11    1    3    3    0    0  0.23093102618E+02 -0.16904163159E+02  0.15457632687E+02  0.32526612630E+02  0.51100000000E-03 0.  1.
         12    1    3    3    0    0 -0.73981450634E+01 -0.52115607066E+01  0.55932568324E+01  0.10638488491E+02  0.00000000000E+00 0. -1.
</event>
<event>
 7    1  0.5408841E-013  0.5052886E+02  0.7816164E-02  0.1300439E+00
        -11   -1    0    0    0    0  0.00000000000E+00  0.00000000000E+00  0.45593999997E+02  0.45594000000E+02  0.51100000000E-03 0.  1.
         11   -1    0    0    0    0 -0.00000000000E+00 -0.00000000000E+00 -0.45593999997E+02  0.45594000000E+02  0.51100000000E-03 0. -1.
    9900012    2    1    2    0    0  0.16323344679E+02 -0.36698760479E+02 -0.63178093457E+01  0.50528864285E+02  0.30000013480E+02 0.  0.
         12    1    1    2    0    0 -0.16323344679E+02  0.36698760479E+02  0.63178093457E+01  0.40659135715E+02  0.00000000000E+00 0. -1.
         11    1    3    3    0    0 -0.21398326822E+01 -0.21687302243E+01  0.48223028467E+01  0.57041107720E+01  0.51100000000E-03 0. -1.
        -11    1    3    3    0    0 -0.18149538482E+01  0.10190660043E+01 -0.20081419428E+01  0.28922633552E+01  0.51100000000E-03 0.  1.
        -12    1    3    3    0    0  0.20278131210E+02 -0.35549096259E+02 -0.91319702497E+01  0.41932490157E+02  0.00000000000E+00 0.  1.
</event>
<event>
 7    1  0.5408841E-013  0.5052888E+02  0.7816164E-02  0.1300439E+00
        -11   -1    0    0    0    0  0.00000000000E+00  0.00000000000E+00  0.45593999997E+02  0.45594000000E+02  0.51100000000E-03 0. -1.
         11   -1    0    0    0    0 -0.00000000000E+00 -0.00000000000E+00 -0.45593999997E+02  0.45594000000E+02  0.51100000000E-03 0.  1.
    9900012    2    1    2    0    0  0.20063434976E+02 -0.25151872336E+02 -0.24859732726E+02  0.50528875364E+02  0.30000047155E+02 0.  0.
         12    1    1    2    0    0 -0.20063434976E+02  0.25151872336E+02  0.24859732726E+02  0.40659124636E+02  0.00000000000E+00 0. -1.
         11    1    3    3    0    0  0.96537086072E+01 -0.49456920764E+01  0.19770117933E+01  0.11025540163E+02  0.51100000000E-03 0. -1.
        -11    1    3    3    0    0  0.12987581842E+02 -0.68902462034E+01 -0.95529786586E+01  0.17533173596E+02  0.51100000000E-03 0.  1.
         12    1    3    3    0    0 -0.25778554735E+01 -0.13315934056E+02 -0.17283765860E+02  0.21970161605E+02  0.00000000000E+00 0. -1.
</event>
<event>
 7    1  0.5408841E-013  0.5052886E+02  0.7816164E-02  0.1300439E+00
        -11   -1    0    0    0    0  0.00000000000E+00  0.00000000000E+00  0.45593999997E+02  0.45594000000E+02  0.51100000000E-03 0.  1.
         11   -1    0    0    0    0 -0.00000000000E+00 -0.00000000000E+00 -0.45593999997E+02  0.45594000000E+02  0.51100000000E-03 0. -1.
    9900012    2    1    2    0    0 -0.32213426409E+02 -0.11270394044E+02  0.22100657737E+02  0.50528859634E+02  0.29999999342E+02 0.  0.
         12    1    1    2    0    0  0.32213426409E+02  0.11270394044E+02 -0.22100657737E+02  0.40659140366E+02  0.00000000000E+00 0. -1.
         11    1    3    3    0    0 -0.43442427868E+01 -0.10362599974E+02  0.10645300821E+01  0.11286680121E+02  0.51100000000E-03 0. -1.
        -11    1    3    3    0    0 -0.40640486709E+01 -0.43549695991E+01 -0.16470444297E+01  0.61802109530E+01  0.51100000000E-03 0.  1.
        -12    1    3    3    0    0 -0.23805134952E+02  0.34471755290E+01  0.22683172085E+02  0.33061968559E+02  0.00000000000E+00 0.  1.
</event>
<event>
 7    1  0.5408841E-013  0.5052887E+02  0.7816164E-02  0.1300439E+00
        -11   -1    0    0    0    0  0.00000000000E+00  0.00000000000E+00  0.45593999997E+02  0.45594000000E+02  0.51100000000E-03 0. -1.
         11   -1    0    0    0    0 -0.00000000000E+00 -0.00000000000E+00 -0.45593999997E+02  0.45594000000E+02  0.51100000000E-03 0.  1.
    9900012    2    1    2    0    0 -0.30876871641E+02 -0.26051866777E+02 -0.45917598231E+01  0.50528865440E+02  0.30000016992E+02 0.  0.
         12    1    1    2    0    0  0.30876871641E+02  0.26051866777E+02  0.45917598231E+01  0.40659134560E+02  0.00000000000E+00 0. -1.
         11    1    3    3    0    0 -0.47135806706E+01 -0.92090893476E+01  0.71815539032E+01  0.12593644670E+02  0.51100000000E-03 0. -1.
        -11    1    3    3    0    0 -0.10932637997E+02 -0.12014634216E+02  0.25914876795E+01  0.16449614511E+02  0.51100000000E-03 0.  1.
        -12    1    3    3    0    0 -0.15230652973E+02 -0.48281432135E+01 -0.14364801406E+02  0.21485606259E+02  0.00000000000E+00 0.  1.
</event>
<event>
 7    1  0.5408841E-013  0.5052885E+02  0.7816164E-02  0.1300439E+00
        -11   -1    0    0    0    0  0.00000000000E+00  0.00000000000E+00  0.45593999997E+02  0.45594000000E+02  0.51100000000E-03 0.  1.
         11   -1    0    0    0    0 -0.00000000000E+00 -0.00000000000E+00 -0.45593999997E+02  0.45594000000E+02  0.51100000000E-03 0. -1.
    9900012    2    1    2    0    0 -0.40012069398E+02 -0.23356144640E+01  0.68370763800E+01  0.50528850896E+02  0.29999972783E+02 0.  0.
         12    1    1    2    0    0  0.40012069398E+02  0.23356144640E+01 -0.68370763800E+01  0.40659149104E+02  0.00000000000E+00 0. -1.
         11    1    3    3    0    0 -0.42032124713E+01  0.78905977770E+01 -0.12022629536E+01  0.90207518992E+01  0.51100000000E-03 0. -1.
        -11    1    3    3    0    0 -0.40102531420E+01 -0.72347940334E+01  0.43805512331E+01  0.93602139043E+01  0.51100000000E-03 0.  1.
        -12    1    3    3    0    0 -0.31798603785E+02 -0.29914182076E+01  0.36587881004E+01  0.32147885092E+02  0.00000000000E+00 0.  1.
</event>
<event>
 7    1  0.5408841E-013  0.5052886E+02  0.7816164E-02  0.1300439E+00
        -11   -1    0    0    0    0  0.00000000000E+00  0.00000000000E+00  0.45593999997E+02  0.45594000000E+02  0.51100000000E-03 0.  1.
         11   -1    0    0    0    0 -0.00000000000E+00 -0.00000000000E+00 -0.45593999997E+02  0.45594000000E+02  0.51100000000E-03 0. -1.
    9900012    2    1    2    0    0 -0.17454732909E+02  0.36403292287E+02 -0.48267944813E+01  0.50528864062E+02  0.30000012803E+02 0.  0.
         12    1    1    2    0    0  0.17454732909E+02 -0.36403292287E+02  0.48267944813E+01  0.40659135938E+02  0.00000000000E+00 0. -1.
         11    1    3    3    0    0  0.18628950445E+01  0.24660209967E+01 -0.52167075407E+01  0.60634705680E+01  0.51100000000E-03 0. -1.
        -11    1    3    3    0    0 -0.47033179139E+01  0.99419053890E+01 -0.96482626836E+01  0.14630504271E+02  0.51100000000E-03 0.  1.
        -12    1    3    3    0    0 -0.14614310040E+02  0.23995365901E+02  0.10038175743E+02  0.29834889223E+02  0.00000000000E+00 0.  1.
</event>
<event>
 7    1  0.5408841E-013  0.5052887E+02  0.7816164E-02  0.1300439E+00
        -11   -1    0    0    0    0  0.00000000000E+00  0.00000000000E+00  0.45593999997E+02  0.45594000000E+02  0.51100000000E-03 0.  1.
         11   -1    0    0    0    0 -0.00000000000E+00 -0.00000000000E+00 -0.45593999997E+02  0.45594000000E+02  0.51100000000E-03 0. -1.
    9900012    2    1    2    0    0  0.25507726108E+01 -0.26175185789E+02  0.31008351967E+02  0.50528872074E+02  0.30000037157E+02 0.  0.
         12    1    1    2    0    0 -0.25507726108E+01  0.26175185789E+02 -0.31008351967E+02  0.40659127926E+02  0.00000000000E+00 0. -1.
         11    1    3    3    0    0  0.76916619228E+01 -0.19996726219E+01  0.85602611673E+01  0.11680685992E+02  0.51100000000E-03 0. -1.
        -11    1    3    3    0    0 -0.25938974481E+01 -0.82882070282E+01  0.20961647655E+02  0.22689498725E+02  0.51100000000E-03 0.  1.
         12    1    3    3    0    0 -0.25469918639E+01 -0.15887306139E+02  0.14864431448E+01  0.16158687358E+02  0.00000000000E+00 0. -1.
</event>
<event>
 7    1  0.5408841E-013  0.5052888E+02  0.7816164E-02  0.1300439E+00
        -11   -1    0    0    0    0  0.00000000000E+00  0.00000000000E+00  0.45593999997E+02  0.45594000000E+02  0.51100000000E-03 0.  1.
         11   -1    0    0    0    0 -0.00000000000E+00 -0.00000000000E+00 -0.45593999997E+02  0.45594000000E+02  0.51100000000E-03 0. -1.
    9900012    2    1    2    0    0 -0.26229377860E+01 -0.38845542844E+02  0.11717864556E+02  0.50528876163E+02  0.30000049584E+02 0.  0.
         12    1    1    2    0    0  0.26229377860E+01  0.38845542844E+02 -0.11717864556E+02  0.40659123837E+02  0.00000000000E+00 0. -1.
         11    1    3    3    0    0 -0.29226335123E+01 -0.12898386158E+01  0.52024748110E+01  0.61050155382E+01  0.51100000000E-03 0. -1.
        -11    1    3    3    0    0  0.63231160729E+01 -0.10470380520E+02  0.10837761551E+02  0.16342207341E+02  0.51100000000E-03 0.  1.
         12    1    3    3    0    0 -0.60234203467E+01 -0.27085323709E+02 -0.43223718061E+01  0.28081653283E+02  0.00000000000E+00 0. -1.
</event>
<event>
 7    1  0.5408841E-013  0.5052883E+02  0.7816164E-02  0.1300439E+00
        -11   -1    0    0    0    0  0.00000000000E+00  0.00000000000E+00  0.45593999997E+02  0.45594000000E+02  0.51100000000E-03 0.  1.
         11   -1    0    0    0    0 -0.00000000000E+00 -0.00000000000E+00 -0.45593999997E+02  0.45594000000E+02  0.51100000000E-03 0. -1.
    9900012    2    1    2    0    0 -0.38539261586E+02  0.32720252749E+01  0.12537429104E+02  0.50528831765E+02  0.29999914633E+02 0.  0.
         12    1    1    2    0    0  0.38539261586E+02 -0.32720252749E+01 -0.12537429104E+02  0.40659168235E+02  0.00000000000E+00 0. -1.
         11    1    3    3    0    0 -0.36772253537E+01  0.60896175717E+01 -0.41003545797E+00  0.71255566666E+01  0.51100000000E-03 0. -1.
        -11    1    3    3    0    0 -0.10765836234E+02 -0.47671518578E+01  0.15082750739E+02  0.19134219001E+02  0.51100000000E-03 0.  1.
         12    1    3    3    0    0 -0.24096199998E+02  0.19495595611E+01 -0.21352861765E+01  0.24269056098E+02  0.00000000000E+00 0. -1.
</event>
<event>
 7    1  0.5408841E-013  0.5052886E+02  0.7816164E-02  0.1300439E+00
        -11   -1    0    0    0    0  0.00000000000E+00  0.00000000000E+00  0.45593999997E+02  0.45594000000E+02  0.51100000000E-03 0.  1.
         11   -1    0    0    0    0 -0.00000000000E+00 -0.00000000000E+00 -0.45593999997E+02  0.45594000000E+02  0.51100000000E-03 0. -1.
    9900012    2    1    2    0    0  0.36074056064E+02 -0.11816836104E+02  0.14566765307E+02  0.50528858495E+02  0.29999995882E+02 0.  0.
         12    1    1    2    0    0 -0.36074056064E+02  0.11816836104E+02 -0.14566765307E+02  0.40659141505E+02  0.00000000000E+00 0. -1.
         11    1    3    3    0    0  0.32349334437E+01  0.88457093656E+00  0.13024865555E+01  0.35977397926E+01  0.51100000000E-03 0. -1.
        -11    1    3    3    0    0  0.17414688709E+02 -0.16374593909E+02  0.18507176856E+02  0.30231015596E+02  0.51100000000E-03 0.  1.
        -12    1    3    3    0    0  0.15424433911E+02  0.36731868681E+01 -0.52428981044E+01  0.16700103107E+02  0.00000000000E+00 0.  1.
</event>
<event>
 7    1  0.5408841E-013  0.5052886E+02  0.7816164E-02  0.1300439E+00
        -11   -1    0    0    0    0  0.00000000000E+00  0.00000000000E+00  0.45593999997E+02  0.45594000000E+02  0.51100000000E-03 0.  1.
         11   -1    0    0    0    0 -0.00000000000E+00 -0.00000000000E+00 -0.45593999997E+02  0.45594000000E+02  0.51100000000E-03 0. -1.
    9900012    2    1    2    0    0  0.36940312353E+02 -0.16677550960E+02 -0.32308091568E+01  0.50528861906E+02  0.30000006248E+02 0.  0.
         12    1    1    2    0    0 -0.36940312353E+02  0.16677550960E+02  0.32308091568E+01  0.40659138094E+02  0.00000000000E+00 0. -1.
         11    1    3    3    0    0  0.24536344419E+02 -0.13525763323E+02  0.18298987374E+01  0.28077161547E+02  0.51100000000E-03 0. -1.
        -11    1    3    3    0    0  0.70941908702E+01 -0.90220303500E+01  0.22282982585E+01  0.11691445126E+02  0.51100000000E-03 0.  1.
         12    1    3    3    0    0  0.53097770641E+01  0.58702427126E+01 -0.72890061527E+01  0.10760255233E+02  0.00000000000E+00 0. -1.
</event>
<event>
 7    1  0.5408841E-013  0.5052887E+02  0.7816164E-02  0.1300439E+00
        -11   -1    0    0    0    0  0.00000000000E+00  0.00000000000E+00  0.45593999997E+02  0.45594000000E+02  0.51100000000E-03 0.  1.
         11   -1    0    0    0    0 -0.00000000000E+00 -0.00000000000E+00 -0.45593999997E+02  0.45594000000E+02  0.51100000000E-03 0. -1.
    9900012    2    1    2    0    0  0.95624908527E+01  0.31750774990E+02  0.23528967012E+02  0.50528865326E+02  0.30000016646E+02 0.  0.
         12    1    1    2    0    0 -0.95624908527E+01 -0.31750774990E+02 -0.23528967012E+02  0.40659134674E+02  0.00000000000E+00 0. -1.
         11    1    3    3    0    0  0.72381805379E+01  0.77446906670E+01  0.18331348769E+02  0.21175689811E+02  0.51100000000E-03 0.  1.
        -11    1    3    3    0    0  0.91967953883E+00  0.24879794389E+02  0.79557491247E+01  0.26137022089E+02  0.51100000000E-03 0. -1.
         12    1    3    3    0    0  0.14046307759E+01 -0.87371006610E+00 -0.27581308819E+01  0.32161534258E+01  0.00000000000E+00 0. -1.
</event>
<event>
 7    1  0.5408841E-013  0.5052886E+02  0.7816164E-02  0.1300439E+00
        -11   -1    0    0    0    0  0.00000000000E+00  0.00000000000E+00  0.45593999997E+02  0.45594000000E+02  0.51100000000E-03 0.  1.
         11   -1    0    0    0    0 -0.00000000000E+00 -0.00000000000E+00 -0.45593999997E+02  0.45594000000E+02  0.51100000000E-03 0. -1.
    9900012    2    1    2    0    0 -0.25687095755E+02 -0.29592340604E+02 -0.10845840166E+02  0.50528858842E+02  0.29999996937E+02 0.  0.
         12    1    1    2    0    0  0.25687095755E+02  0.29592340604E+02  0.10845840166E+02  0.40659141158E+02  0.00000000000E+00 0. -1.
         11    1    3    3    0    0 -0.15334398135E+02 -0.21300694370E+02 -0.12447234990E+02  0.29048184212E+02  0.51100000000E-03 0. -1.
        -11    1    3    3    0    0 -0.10794725527E+02 -0.91535211789E+01 -0.48468287038E+01  0.14960106882E+02  0.51100000000E-03 0.  1.
         12    1    3    3    0    0  0.44202790662E+00  0.86187494506E+00  0.64482235284E+01  0.65205677485E+01  0.00000000000E+00 0. -1.
</event>
<event>
 7    1  0.5408841E-013  0.5052885E+02  0.7816164E-02  0.1300439E+00
        -11   -1    0    0    0    0  0.00000000000E+00  0.00000000000E+00  0.45593999997E+02  0.45594000000E+02  0.51100000000E-03 0.  1.
         11   -1    0    0    0    0 -0.00000000000E+00 -0.00000000000E+00 -0.45593999997E+02  0.45594000000E+02  0.51100000000E-03 0. -1.
    9900012    2    1    2    0    0  0.21210377921E+02  0.15753111736E+02  0.30905105476E+02  0.50528853361E+02  0.29999980276E+02 0.  0.
         12    1    1    2    0    0 -0.21210377921E+02 -0.15753111736E+02 -0.30905105476E+02  0.40659146639E+02  0.00000000000E+00 0. -1.
         11    1    3    3    0    0  0.14236315797E+02 -0.54995047899E+00  0.13752826807E+02  0.19801903405E+02  0.51100000000E-03 0. -1.
        -11    1    3    3    0    0 -0.16816351646E+01  0.61381167184E+01  0.16126228392E+02  0.17336655274E+02  0.51100000000E-03 0.  1.
         12    1    3    3    0    0  0.86556972886E+01  0.10164945497E+02  0.10260502767E+01  0.13390294682E+02  0.00000000000E+00 0. -1.
</event>
<event>
 7    1  0.5408841E-013  0.5052886E+02  0.7816164E-02  0.1300439E+00
        -11   -1    0    0    0    0  0.00000000000E+00  0.00000000000E+00  0.45593999997E+02  0.45594000000E+02  0.51100000000E-03 0.  1.
         11   -1    0    0    0    0 -0.00000000000E+00 -0.00000000000E+00 -0.45593999997E+02  0.45594000000E+02  0.51100000000E-03 0. -1.
    9900012    2    1    2    0    0 -0.20167249114E+02  0.32882428362E+02  0.12852768165E+02  0.50528859806E+02  0.29999999866E+02 0.  0.
         12    1    1    2    0    0  0.20167249114E+02 -0.32882428362E+02 -0.12852768165E+02  0.40659140194E+02  0.00000000000E+00 0. -1.
         11    1    3    3    0    0  0.83270992139E+00  0.93045305005E+00  0.86990823988E+01  0.87882412083E+01  0.51100000000E-03 0. -1.
        -11    1    3    3    0    0 -0.14900567462E+02  0.86826246778E+01 -0.43596377955E+00  0.17251230295E+02  0.51100000000E-03 0.  1.
        -12    1    3    3    0    0 -0.60993915728E+01  0.23269350635E+02  0.45896495453E+01  0.24489388303E+02  0.00000000000E+00 0.  1.
</event>
<event>
 7    1  0.5408841E-013  0.5052885E+02  0.7816164E-02  0.1300439E+00
        -11   -1    0    0    0    0  0.00000000000E+00  0.00000000000E+00  0.45593999997E+02  0.45594000000E+02  0.51100000000E-03 0.  1.
         11   -1    0    0    0    0 -0.00000000000E+00 -0.00000000000E+00 -0.45593999997E+02  0.45594000000E+02  0.51100000000E-03 0. -1.
    9900012    2    1    2    0    0 -0.72219250347E+01  0.35839977806E+02  0.17790612547E+02  0.50528854594E+02  0.29999984023E+02 0.  0.
         12    1    1    2    0    0  0.72219250347E+01 -0.35839977806E+02 -0.17790612547E+02  0.40659145406E+02  0.00000000000E+00 0. -1.
         11    1    3    3    0    0 -0.11040552487E+02  0.18392972052E+02  0.21468826985E+01  0.21559321087E+02  0.51100000000E-03 0. -1.
        -11    1    3    3    0    0 -0.15039284151E+01 -0.24673349112E+01  0.49889298380E+01  0.57653242260E+01  0.51100000000E-03 0.  1.
         12    1    3    3    0    0  0.53225558677E+01  0.19914340665E+02  0.10654800010E+02  0.23204209281E+02  0.00000000000E+00 0. -1.
</event>
<event>
 7    1  0.5408841E-013  0.5052886E+02  0.7816164E-02  0.1300439E+00
        -11   -1    0    0    0    0  0.00000000000E+00  0.00000000000E+00  0.45593999997E+02  0.45594000000E+02  0.51100000000E-03 0.  1.
         11   -1    0    0    0    0 -0.00000000000E+00 -0.00000000000E+00 -0.45593999997E+02  0.45594000000E+02  0.51100000000E-03 0. -1.
    9900012    2    1    2    0    0 -0.36881184906E+02  0.11778249925E+02 -0.12418401453E+02  0.50528859994E+02  0.30000000437E+02 0.  0.
         12    1    1    2    0    0  0.36881184906E+02 -0.11778249925E+02  0.12418401453E+02  0.40659140006E+02  0.00000000000E+00 0. -1.
         11    1    3    3    0    0 -0.16215848939E+02 -0.20921551495E+01 -0.10113160555E+02  0.19225162851E+02  0.51100000000E-03 0.  1.
        -11    1    3    3    0    0 -0.19562598801E+02  0.59807547528E+01 -0.75059793089E+01  0.21790007455E+02  0.51100000000E-03 0. -1.
         12    1    3    3    0    0 -0.11027371665E+01  0.78896503214E+01  0.52007384105E+01  0.95136896873E+01  0.00000000000E+00 0. -1.
</event>
<event>
 7    1  0.5408841E-013  0.5052886E+02  0.7816164E-02  0.1300439E+00
        -11   -1    0    0    0    0  0.00000000000E+00  0.00000000000E+00  0.45593999997E+02  0.45594000000E+02  0.51100000000E-03 0.  1.
         11   -1    0    0    0    0 -0.00000000000E+00 -0.00000000000E+00 -0.45593999997E+02  0.45594000000E+02  0.51100000000E-03 0. -1.
    9900012    2    1    2    0    0  0.99280830387E+00 -0.42536814602E+01  0.40423830791E+02  0.50528861174E+02  0.30000004023E+02 0.  0.
         12    1    1    2    0    0 -0.99280830387E+00  0.42536814602E+01 -0.40423830791E+02  0.40659138826E+02  0.00000000000E+00 0. -1.
         11    1    3    3    0    0  0.24214862882E+01 -0.35757697186E+01 -0.74079796331E+00  0.43816100703E+01  0.51100000000E-03 0. -1.
        -11    1    3    3    0    0 -0.65523582609E+01 -0.44787643300E+01  0.49038330036E+01  0.93295394897E+01  0.51100000000E-03 0.  1.
         12    1    3    3    0    0  0.51236802766E+01  0.38008525884E+01  0.36260795751E+02  0.36817711613E+02  0.00000000000E+00 0. -1.
</event>
<event>
 7    1  0.5408841E-013  0.5052887E+02  0.7816164E-02  0.1300439E+00
        -11   -1    0    0    0    0  0.00000000000E+00  0.00000000000E+00  0.45593999997E+02  0.45594000000E+02  0.51100000000E-03 0.  1.
         11   -1    0    0    0    0 -0.00000000000E+00 -0.00000000000E+00 -0.45593999997E+02  0.45594000000E+02  0.51100000000E-03 0. -1.
    9900012    2    1    2    0    0 -0.38359559915E+02  0.18917024545E+01  0.13346558768E+02  0.50528868111E+02  0.30000025109E+02 0.  0.
         12    1    1    2    0    0  0.38359559915E+02 -0.18917024545E+01 -0.13346558768E+02  0.40659131889E+02  0.00000000000E+00 0. -1.
         11    1    3    3    0    0 -0.86317351325E+01  0.39288130681E+01  0.11348477414E+02  0.14789535604E+02  0.51100000000E-03 0. -1.
        -11    1    3    3    0    0 -0.16403924203E+02  0.80022909152E+01  0.46803726910E+01  0.18842273693E+02  0.51100000000E-03 0.  1.
         12    1    3    3    0    0 -0.13323900579E+02 -0.10039401529E+02 -0.26822913368E+01  0.16897058813E+02  0.00000000000E+00 0. -1.
</event>
<event>
 7    1  0.5408841E-013  0.5052882E+02  0.7816164E-02  0.1300439E+00
        -11   -1    0    0    0    0  0.00000000000E+00  0.00000000000E+00  0.45593999997E+02  0.45594000000E+02  0.51100000000E-03 0.  1.
         11   -1    0    0    0    0 -0.00000000000E+00 -0.00000000000E+00 -0.45593999997E+02  0.45594000000E+02  0.51100000000E-03 0. -1.
    9900012    2    1    2    0    0 -0.90355702778E+01 -0.20381985982E+02  0.34001498862E+02  0.50528821360E+02  0.29999883007E+02 0.  0.
         12    1    1    2    0    0  0.90355702778E+01  0.20381985982E+02 -0.34001498862E+02  0.40659178640E+02  0.00000000000E+00 0. -1.
         11    1    3    3    0    0 -0.60986934254E+01 -0.28373722203E+00  0.58634264393E+01  0.84648885508E+01  0.51100000000E-03 0. -1.
        -11    1    3    3    0    0 -0.99887738353E+01 -0.13140710456E+02  0.27579752632E+02  0.32141820570E+02  0.51100000000E-03 0.  1.
        -12    1    3    3    0    0  0.70518969829E+01 -0.69575383041E+01  0.55831978987E+00  0.99221122398E+01  0.00000000000E+00 0.  1.
</event>
<event>
 7    1  0.5408841E-013  0.5052883E+02  0.7816164E-02  0.1300439E+00
        -11   -1    0    0    0    0  0.00000000000E+00  0.00000000000E+00  0.45593999997E+02  0.45594000000E+02  0.51100000000E-03 0.  1.
         11   -1    0    0    0    0 -0.00000000000E+00 -0.00000000000E+00 -0.45593999997E+02  0.45594000000E+02  0.51100000000E-03 0. -1.
    9900012    2    1    2    0    0 -0.38812661716E+02 -0.10384392815E+02  0.62377388468E+01  0.50528834864E+02  0.29999924054E+02 0.  0.
         12    1    1    2    0    0  0.38812661716E+02  0.10384392815E+02 -0.62377388468E+01  0.40659165136E+02  0.00000000000E+00 0. -1.
         11    1    3    3    0    0 -0.29076982696E+02 -0.19573306084E+02  0.47766710385E+01  0.35375158236E+02  0.51100000000E-03 0.  1.
        -11    1    3    3    0    0 -0.11803361166E+00 -0.10312381152E+01 -0.46591539868E-01  0.10390163697E+01  0.51100000000E-03 0. -1.
        -12    1    3    3    0    0 -0.96176454082E+01  0.10220151384E+02  0.15076593481E+01  0.14114660259E+02  0.00000000000E+00 0.  1.
</event>
<event>
 7    1  0.5408841E-013  0.5052886E+02  0.7816164E-02  0.1300439E+00
        -11   -1    0    0    0    0  0.00000000000E+00  0.00000000000E+00  0.45593999997E+02  0.45594000000E+02  0.51100000000E-03 0.  1.
         11   -1    0    0    0    0 -0.00000000000E+00 -0.00000000000E+00 -0.45593999997E+02  0.45594000000E+02  0.51100000000E-03 0. -1.
    9900012    2    1    2    0    0 -0.40656651410E+02 -0.38500390947E+00 -0.23309376520E+00  0.50528857552E+02  0.29999993015E+02 0.  0.
         12    1    1    2    0    0  0.40656651410E+02  0.38500390947E+00  0.23309376520E+00  0.40659142448E+02  0.00000000000E+00 0. -1.
         11    1    3    3    0    0 -0.18280637331E+02  0.53022566507E+01  0.24696778110E+01  0.19193617053E+02  0.51100000000E-03 0. -1.
        -11    1    3    3    0    0 -0.14471635902E+02 -0.78151414260E+01  0.76484608986E+01  0.18138457364E+02  0.51100000000E-03 0.  1.
         12    1    3    3    0    0 -0.79043781775E+01  0.21278808658E+01 -0.10351232475E+02  0.13196783135E+02  0.00000000000E+00 0. -1.
</event>
<event>
 7    1  0.5408841E-013  0.5052886E+02  0.7816164E-02  0.1300439E+00
        -11   -1    0    0    0    0  0.00000000000E+00  0.00000000000E+00  0.45593999997E+02  0.45594000000E+02  0.51100000000E-03 0.  1.
         11   -1    0    0    0    0 -0.00000000000E+00 -0.00000000000E+00 -0.45593999997E+02  0.45594000000E+02  0.51100000000E-03 0. -1.
    9900012    2    1    2    0    0 -0.19085299106E+02  0.19883659353E+02  0.29892427325E+02  0.50528858806E+02  0.29999996827E+02 0.  0.
         12    1    1    2    0    0  0.19085299106E+02 -0.19883659353E+02 -0.29892427325E+02  0.40659141194E+02  0.00000000000E+00 0. -1.
         11    1    3    3    0    0 -0.47196990588E+01 -0.22432860569E+01  0.60634801776E+01  0.80046039042E+01  0.51100000000E-03 0. -1.
        -11    1    3    3    0    0 -0.18563046317E+02  0.23718115288E+02  0.23142761216E+02  0.37983194684E+02  0.51100000000E-03 0.  1.
         12    1    3    3    0    0  0.41974462702E+01 -0.15911698782E+01  0.68618593182E+00  0.45410602182E+01  0.00000000000E+00 0. -1.
</event>
<event>
 7    1  0.5408841E-013  0.5052887E+02  0.7816164E-02  0.1300439E+00
        -11   -1    0    0    0    0  0.00000000000E+00  0.00000000000E+00  0.45593999997E+02  0.45594000000E+02  0.51100000000E-03 0. -1.
         11   -1    0    0    0    0 -0.00000000000E+00 -0.00000000000E+00 -0.45593999997E+02  0.45594000000E+02  0.51100000000E-03 0.  1.
    9900012    2    1    2    0    0 -0.35465053705E+01  0.24652745539E+02 -0.32137667031E+02  0.50528865661E+02  0.30000017665E+02 0.  0.
         12    1    1    2    0    0  0.35465053705E+01 -0.24652745539E+02  0.32137667031E+02  0.40659134339E+02  0.00000000000E+00 0. -1.
         11    1    3    3    0    0  0.18190724328E+01  0.51246056502E+01 -0.50134372240E+01  0.73962937101E+01  0.51100000000E-03 0. -1.
        -11    1    3    3    0    0  0.12462273078E+01  0.18471313081E+02 -0.30465445593E+02  0.35649486180E+02  0.51100000000E-03 0.  1.
         12    1    3    3    0    0 -0.66118051111E+01  0.10568268076E+01  0.33412157862E+01  0.74830857712E+01  0.00000000000E+00 0. -1.
</event>
<event>
 7    1  0.5408841E-013  0.5052886E+02  0.7816164E-02  0.1300439E+00
        -11   -1    0    0    0    0  0.00000000000E+00  0.00000000000E+00  0.45593999997E+02  0.45594000000E+02  0.51100000000E-03 0. -1.
         11   -1    0    0    0    0 -0.00000000000E+00 -0.00000000000E+00 -0.45593999997E+02  0.45594000000E+02  0.51100000000E-03 0.  1.
    9900012    2    1    2    0    0  0.22583737497E+02 -0.79442576959E+01 -0.32863794294E+02  0.50528863203E+02  0.30000010191E+02 0.  0.
         12    1    1    2    0    0 -0.22583737497E+02  0.79442576959E+01  0.32863794294E+02  0.40659136797E+02  0.00000000000E+00 0. -1.
         11    1    3    3    0    0  0.91671227941E+01 -0.10776317668E+02 -0.15135590385E+02  0.20718379748E+02  0.51100000000E-03 0. -1.
        -11    1    3    3    0    0  0.13655336133E+02 -0.44356614679E+01 -0.17362054190E+02  0.22529629902E+02  0.51100000000E-03 0.  1.
         12    1    3    3    0    0 -0.23872143000E+00  0.72677214398E+01 -0.36614971927E+00  0.72808535533E+01  0.00000000000E+00 0. -1.
</event>
<event>
 7    1  0.5408841E-013  0.5052886E+02  0.7816164E-02  0.1300439E+00
        -11   -1    0    0    0    0  0.00000000000E+00  0.00000000000E+00  0.45593999997E+02  0.45594000000E+02  0.51100000000E-03 0.  1.
         11   -1    0    0    0    0 -0.00000000000E+00 -0.00000000000E+00 -0.45593999997E+02  0.45594000000E+02  0.51100000000E-03 0. -1.
    9900012    2    1    2    0    0 -0.28352128039E+02 -0.29131536515E+02 -0.82210535954E+00  0.50528862758E+02  0.30000008839E+02 0.  0.
         12    1    1    2    0    0  0.28352128039E+02  0.29131536515E+02  0.82210535954E+00  0.40659137242E+02  0.00000000000E+00 0. -1.
         11    1    3    3    0    0 -0.11298835830E+02 -0.38085825900E+01  0.36516594152E+01  0.12470108628E+02  0.51100000000E-03 0. -1.
        -11    1    3    3    0    0 -0.20390778721E+02 -0.11263095513E+02 -0.18112879887E+01  0.23364972540E+02  0.51100000000E-03 0.  1.
         12    1    3    3    0    0  0.33374865111E+01 -0.14059858412E+02 -0.26624767860E+01  0.14693781590E+02  0.00000000000E+00 0. -1.
</event>
<event>
 7    1  0.5408841E-013  0.5052886E+02  0.7816164E-02  0.1300439E+00
        -11   -1    0    0    0    0  0.00000000000E+00  0.00000000000E+00  0.45593999997E+02  0.45594000000E+02  0.51100000000E-03 0.  1.
         11   -1    0    0    0    0 -0.00000000000E+00 -0.00000000000E+00 -0.45593999997E+02  0.45594000000E+02  0.51100000000E-03 0. -1.
    9900012    2    1    2    0    0  0.20951515588E+02  0.96956730724E+01  0.33469288028E+02  0.50528864214E+02  0.30000013264E+02 0.  0.
         12    1    1    2    0    0 -0.20951515588E+02 -0.96956730724E+01 -0.33469288028E+02  0.40659135786E+02  0.00000000000E+00 0. -1.
         11    1    3    3    0    0  0.71173298807E+01  0.10046373859E+02  0.28311206642E+02  0.30872486685E+02  0.51100000000E-03 0. -1.
        -11    1    3    3    0    0  0.44730174911E+01  0.58022216121E+01  0.41222947164E+01  0.84063651539E+01  0.51100000000E-03 0.  1.
         12    1    3    3    0    0  0.93611682161E+01 -0.61529223984E+01  0.10357866705E+01  0.11250012375E+02  0.00000000000E+00 0. -1.
</event>
<event>
 7    1  0.5408841E-013  0.5052886E+02  0.7816164E-02  0.1300439E+00
        -11   -1    0    0    0    0  0.00000000000E+00  0.00000000000E+00  0.45593999997E+02  0.45594000000E+02  0.51100000000E-03 0.  1.
         11   -1    0    0    0    0 -0.00000000000E+00 -0.00000000000E+00 -0.45593999997E+02  0.45594000000E+02  0.51100000000E-03 0. -1.
    9900012    2    1    2    0    0 -0.27895351445E+02 -0.86608952946E+01  0.28284344274E+02  0.50528857479E+02  0.29999992793E+02 0.  0.
         12    1    1    2    0    0  0.27895351445E+02  0.86608952946E+01 -0.28284344274E+02  0.40659142521E+02  0.00000000000E+00 0. -1.
         11    1    3    3    0    0  0.19988044114E+01 -0.11178783265E+01 -0.21513617641E+01  0.31421694304E+01  0.51100000000E-03 0. -1.
        -11    1    3    3    0    0 -0.92529118260E+01 -0.12040640331E+02  0.12196245104E+02  0.19476698686E+02  0.51100000000E-03 0.  1.
         12    1    3    3    0    0 -0.20641244030E+02  0.44976233626E+01  0.18239460935E+02  0.27909989362E+02  0.00000000000E+00 0. -1.
</event>
<event>
 7    1  0.5408841E-013  0.5052886E+02  0.7816164E-02  0.1300439E+00
        -11   -1    0    0    0    0  0.00000000000E+00  0.00000000000E+00  0.45593999997E+02  0.45594000000E+02  0.51100000000E-03 0. -1.
         11   -1    0    0    0    0 -0.00000000000E+00 -0.00000000000E+00 -0.45593999997E+02  0.45594000000E+02  0.51100000000E-03 0.  1.
    9900012    2    1    2    0    0  0.37332256166E+02  0.11418999713E+02 -0.11361099904E+02  0.50528862086E+02  0.30000006796E+02 0.  0.
         12    1    1    2    0    0 -0.37332256166E+02 -0.11418999713E+02  0.11361099904E+02  0.40659137914E+02  0.00000000000E+00 0. -1.
         11    1    3    3    0    0  0.28085579378E+02  0.14324845520E+02 -0.59501918613E+01  0.32084353688E+02  0.51100000000E-03 0. -1.
        -11    1    3    3    0    0  0.79392937334E+01  0.46693444114E+01 -0.30408458089E+00  0.92156188024E+01  0.51100000000E-03 0.  1.
        -12    1    3    3    0    0  0.13073830551E+01 -0.75751902180E+01 -0.51068234615E+01  0.92288895951E+01  0.00000000000E+00 0.  1.
</event>
<event>
 7    1  0.5408841E-013  0.5052887E+02  0.7816164E-02  0.1300439E+00
        -11   -1    0    0    0    0  0.00000000000E+00  0.00000000000E+00  0.45593999997E+02  0.45594000000E+02  0.51100000000E-03 0. -1.
         11   -1    0    0    0    0 -0.00000000000E+00 -0.00000000000E+00 -0.45593999997E+02  0.45594000000E+02  0.51100000000E-03 0.  1.
    9900012    2    1    2    0    0  0.15449168249E+02 -0.36396491363E+02  0.94754186037E+01  0.50528868912E+02  0.30000027544E+02 0.  0.
         12    1    1    2    0    0 -0.15449168249E+02  0.36396491363E+02 -0.94754186037E+01  0.40659131088E+02  0.00000000000E+00 0. -1.
         11    1    3    3    0    0  0.58454813924E+01  0.15330541988E+01 -0.93975921519E-01  0.60439010267E+01  0.51100000000E-03 0. -1.
        -11    1    3    3    0    0  0.74715798617E+01 -0.95638549123E+01 -0.42513758934E+01  0.12859472138E+02  0.51100000000E-03 0.  1.
         12    1    3    3    0    0  0.21321069945E+01 -0.28365690650E+02  0.13820770419E+02  0.31625495747E+02  0.00000000000E+00 0. -1.
</event>
<event>
 7    1  0.5408841E-013  0.5052885E+02  0.7816164E-02  0.1300439E+00
        -11   -1    0    0    0    0  0.00000000000E+00  0.00000000000E+00  0.45593999997E+02  0.45594000000E+02  0.51100000000E-03 0. -1.
         11   -1    0    0    0    0 -0.00000000000E+00 -0.00000000000E+00 -0.45593999997E+02  0.45594000000E+02  0.51100000000E-03 0.  1.
    9900012    2    1    2    0    0 -0.15534832183E+02  0.15618986525E+02 -0.34174296002E+02  0.50528852711E+02  0.29999978300E+02 0.  0.
         12    1    1    2    0    0  0.15534832183E+02 -0.15618986525E+02  0.34174296002E+02  0.40659147289E+02  0.00000000000E+00 0. -1.
         11    1    3    3    0    0  0.50169882054E+01 -0.26772052395E+01 -0.46295900258E+01  0.73328509200E+01  0.51100000000E-03 0. -1.
        -11    1    3    3    0    0 -0.35084231726E+01 -0.15270273524E+01 -0.10987976697E+00  0.38279132066E+01  0.51100000000E-03 0.  1.
        -12    1    3    3    0    0 -0.17043397216E+02  0.19823219117E+02 -0.29434826209E+02  0.39368088584E+02  0.00000000000E+00 0.  1.
</event>
<event>
 7    1  0.5408841E-013  0.5052887E+02  0.7816164E-02  0.1300439E+00
        -11   -1    0    0    0    0  0.00000000000E+00  0.00000000000E+00  0.45593999997E+02  0.45594000000E+02  0.51100000000E-03 0.  1.
         11   -1    0    0    0    0 -0.00000000000E+00 -0.00000000000E+00 -0.45593999997E+02  0.45594000000E+02  0.51100000000E-03 0. -1.
    9900012    2    1    2    0    0 -0.11433264826E+02 -0.34139540649E+02  0.18892771978E+02  0.50528872939E+02  0.30000039786E+02 0.  0.
         12    1    1    2    0    0  0.11433264826E+02  0.34139540649E+02 -0.18892771978E+02  0.40659127061E+02  0.00000000000E+00 0. -1.
         11    1    3    3    0    0 -0.85600679679E+01 -0.97093734514E+01  0.56460393859E+01  0.14121772461E+02  0.51100000000E-03 0. -1.
        -11    1    3    3    0    0 -0.45002726117E+00 -0.98456868709E+01 -0.64501202341E+01  0.11778969640E+02  0.51100000000E-03 0.  1.
        -12    1    3    3    0    0 -0.24231695973E+01 -0.14584480327E+02  0.19696852826E+02  0.24628130838E+02  0.00000000000E+00 0.  1.
</event>
<event>
 7    1  0.5408841E-013  0.5052886E+02  0.7816164E-02  0.1300439E+00
        -11   -1    0    0    0    0  0.00000000000E+00  0.00000000000E+00  0.45593999997E+02  0.45594000000E+02  0.51100000000E-03 0.  1.
         11   -1    0    0    0    0 -0.00000000000E+00 -0.00000000000E+00 -0.45593999997E+02  0.45594000000E+02  0.51100000000E-03 0. -1.
    9900012    2    1    2    0    0  0.18614500519E+02 -0.35640935457E+02  0.60323664923E+01  0.50528863815E+02  0.30000012053E+02 0.  0.
         12    1    1    2    0    0 -0.18614500519E+02  0.35640935457E+02 -0.60323664923E+01  0.40659136185E+02  0.00000000000E+00 0. -1.
         11    1    3    3    0    0 -0.13286825443E+01 -0.54102255483E+01 -0.34439231998E+01  0.65495454082E+01  0.51100000000E-03 0. -1.
        -11    1    3    3    0    0 -0.22386696581E+01  0.20164534493E+01 -0.14492431837E+01  0.33433564599E+01  0.51100000000E-03 0.  1.
        -12    1    3    3    0    0  0.22181852721E+02 -0.32247163358E+02  0.10925532876E+02  0.40635961947E+02  0.00000000000E+00 0.  1.
</event>
<event>
 7    1  0.5408841E-013  0.5052885E+02  0.7816164E-02  0.1300439E+00
        -11   -1    0    0    0    0  0.00000000000E+00  0.00000000000E+00  0.45593999997E+02  0.45594000000E+02  0.51100000000E-03 0.  1.
         11   -1    0    0    0    0 -0.00000000000E+00 -0.00000000000E+00 -0.45593999997E+02  0.45594000000E+02  0.51100000000E-03 0. -1.
    9900012    2    1    2    0    0  0.21992619970E+01 -0.37602102159E+02  0.15310502682E+02  0.50528851799E+02  0.29999975527E+02 0.  0.
         12    1    1    2    0    0 -0.21992619970E+01  0.37602102159E+02 -0.15310502682E+02  0.40659148201E+02  0.00000000000E+00 0. -1.
         11    1    3    3    0    0 -0.46839505909E+01 -0.26430228759E+02 -0.20240121585E+00  0.26842826824E+02  0.51100000000E-03 0. -1.
        -11    1    3    3    0    0  0.23199357030E+01 -0.23439605808E+01 -0.17751392770E+01  0.37453134160E+01  0.51100000000E-03 0.  1.
        -12    1    3    3    0    0  0.45632768849E+01 -0.88279128193E+01  0.17288043174E+02  0.19940711559E+02  0.00000000000E+00 0.  1.
</event>
<event>
 7    1  0.5408841E-013  0.5052886E+02  0.7816164E-02  0.1300439E+00
        -11   -1    0    0    0    0  0.00000000000E+00  0.00000000000E+00  0.45593999997E+02  0.45594000000E+02  0.51100000000E-03 0.  1.
         11   -1    0    0    0    0 -0.00000000000E+00 -0.00000000000E+00 -0.45593999997E+02  0.45594000000E+02  0.51100000000E-03 0. -1.
    9900012    2    1    2    0    0 -0.87252381313E+01  0.33425158401E+02  0.21442827959E+02  0.50528857542E+02  0.29999992984E+02 0.  0.
         12    1    1    2    0    0  0.87252381313E+01 -0.33425158401E+02 -0.21442827959E+02  0.40659142458E+02  0.00000000000E+00 0. -1.
         11    1    3    3    0    0 -0.66264925970E+01  0.56670255640E+01  0.11114145015E+02  0.14126209773E+02  0.51100000000E-03 0. -1.
        -11    1    3    3    0    0  0.23659231213E+01  0.29828401557E+02  0.96205344132E+01  0.31430650874E+02  0.51100000000E-03 0.  1.
         12    1    3    3    0    0 -0.44646686555E+01 -0.20702687206E+01  0.70814853057E+00  0.49719968947E+01  0.00000000000E+00 0. -1.
</event>
<event>
 7    1  0.5408841E-013  0.5052887E+02  0.7816164E-02  0.1300439E+00
        -11   -1    0    0    0    0  0.00000000000E+00  0.00000000000E+00  0.45593999997E+02  0.45594000000E+02  0.51100000000E-03 0.  1.
         11   -1    0    0    0    0 -0.00000000000E+00 -0.00000000000E+00 -0.45593999997E+02  0.45594000000E+02  0.51100000000E-03 0. -1.
    9900012    2    1    2    0    0 -0.93290672771E+01 -0.26843848623E+01  0.39483259905E+02  0.50528865342E+02  0.30000016695E+02 0.  0.
         12    1    1    2    0    0  0.93290672771E+01  0.26843848623E+01 -0.39483259905E+02  0.40659134658E+02  0.00000000000E+00 0. -1.
         11    1    3    3    0    0 -0.10796676131E+02 -0.19695797463E+01  0.82116955122E+01  0.13706910786E+02  0.51100000000E-03 0. -1.
        -11    1    3    3    0    0 -0.20626868924E+01  0.30679064186E+01 -0.12415035656E+01  0.38997510657E+01  0.51100000000E-03 0.  1.
        -12    1    3    3    0    0  0.35302957458E+01 -0.37827115346E+01  0.32513067959E+02  0.32922203491E+02  0.00000000000E+00 0.  1.
</event>
<event>
 7    1  0.5408841E-013  0.5052886E+02  0.7816164E-02  0.1300439E+00
        -11   -1    0    0    0    0  0.00000000000E+00  0.00000000000E+00  0.45593999997E+02  0.45594000000E+02  0.51100000000E-03 0.  1.
         11   -1    0    0    0    0 -0.00000000000E+00 -0.00000000000E+00 -0.45593999997E+02  0.45594000000E+02  0.51100000000E-03 0. -1.
    9900012    2    1    2    0    0  0.27295879974E+02  0.27976554393E+02 -0.11198791267E+02  0.50528860989E+02  0.30000003462E+02 0.  0.
         12    1    1    2    0    0 -0.27295879974E+02 -0.27976554393E+02  0.11198791267E+02  0.40659139011E+02  0.00000000000E+00 0. -1.
         11    1    3    3    0    0  0.97034498712E+01 -0.91296621091E+00 -0.47054129663E+00  0.97576562799E+01  0.51100000000E-03 0. -1.
        -11    1    3    3    0    0 -0.35955735743E+01  0.11468281371E+01 -0.34477517641E+01  0.51117860472E+01  0.51100000000E-03 0.  1.
        -12    1    3    3    0    0  0.21188003677E+02  0.27742692467E+02 -0.72804982063E+01  0.35659418662E+02  0.00000000000E+00 0.  1.
</event>
<event>
 7    1  0.5408841E-013  0.5052886E+02  0.7816164E-02  0.1300439E+00
        -11   -1    0    0    0    0  0.00000000000E+00  0.00000000000E+00  0.45593999997E+02  0.45594000000E+02  0.51100000000E-03 0. -1.
         11   -1    0    0    0    0 -0.00000000000E+00 -0.00000000000E+00 -0.45593999997E+02  0.45594000000E+02  0.51100000000E-03 0.  1.
    9900012    2    1    2    0    0  0.31929721651E+02 -0.24346469033E+02  0.63959433520E+01  0.50528858710E+02  0.29999996535E+02 0.  0.
         12    1    1    2    0    0 -0.31929721651E+02  0.24346469033E+02 -0.63959433520E+01  0.40659141290E+02  0.00000000000E+00 0. -1.
         11    1    3    3    0    0  0.10961778366E+02 -0.16214821264E+02 -0.18903064288E+01  0.19663526444E+02  0.51100000000E-03 0. -1.
        -11    1    3    3    0    0  0.18517259608E+02 -0.12625841786E+02  0.16340450523E+01  0.22471557304E+02  0.51100000000E-03 0.  1.
         12    1    3    3    0    0  0.24506836775E+01  0.44941940174E+01  0.66522047285E+01  0.83937749614E+01  0.00000000000E+00 0. -1.
</event>
<event>
 7    1  0.5408841E-013  0.5052886E+02  0.7816164E-02  0.1300439E+00
        -11   -1    0    0    0    0  0.00000000000E+00  0.00000000000E+00  0.45593999997E+02  0.45594000000E+02  0.51100000000E-03 0.  1.
         11   -1    0    0    0    0 -0.00000000000E+00 -0.00000000000E+00 -0.45593999997E+02  0.45594000000E+02  0.51100000000E-03 0. -1.
    9900012    2    1    2    0    0  0.14144785039E+02  0.37437220761E+02  0.71795211312E+01  0.50528856307E+02  0.29999989232E+02 0.  0.
         12    1    1    2    0    0 -0.14144785039E+02 -0.37437220761E+02 -0.71795211312E+01  0.40659143693E+02  0.00000000000E+00 0. -1.
         11    1    3    3    0    0  0.37756870546E+01  0.22526251447E+02  0.11175913078E+02  0.25428111420E+02  0.51100000000E-03 0. -1.
        -11    1    3    3    0    0  0.12734855030E+02  0.16680768158E+02 -0.11807785718E+01  0.21019486133E+02  0.51100000000E-03 0.  1.
         12    1    3    3    0    0 -0.23657570452E+01 -0.17697988440E+01 -0.28156133750E+01  0.40812587547E+01  0.00000000000E+00 0. -1.
</event>
<event>
 7    1  0.5408841E-013  0.5052891E+02  0.7816164E-02  0.1300439E+00
        -11   -1    0    0    0    0  0.00000000000E+00  0.00000000000E+00  0.45593999997E+02  0.45594000000E+02  0.51100000000E-03 0. -1.
         11   -1    0    0    0    0 -0.00000000000E+00 -0.00000000000E+00 -0.45593999997E+02  0.45594000000E+02  0.51100000000E-03 0.  1.
    9900012    2    1    2    0    0 -0.20127457476E+02 -0.35222665884E+02  0.27223634643E+01  0.50528905086E+02  0.30000137499E+02 0.  0.
         12    1    1    2    0    0  0.20127457476E+02  0.35222665884E+02 -0.27223634643E+01  0.40659094914E+02  0.00000000000E+00 0. -1.
         11    1    3    3    0    0 -0.27660341752E+01  0.11076228350E+01 -0.22573464278E+01  0.37380993244E+01  0.51100000000E-03 0. -1.
        -11    1    3    3    0    0  0.33640879883E+01 -0.19596803537E+02  0.24362653537E+01  0.20032153803E+02  0.51100000000E-03 0.  1.
         12    1    3    3    0    0 -0.20725511289E+02 -0.16733485182E+02  0.25434445384E+01  0.26758651958E+02  0.00000000000E+00 0. -1.
</event>
<event>
 7    1  0.5408841E-013  0.5052886E+02  0.7816164E-02  0.1300439E+00
        -11   -1    0    0    0    0  0.00000000000E+00  0.00000000000E+00  0.45593999997E+02  0.45594000000E+02  0.51100000000E-03 0.  1.
         11   -1    0    0    0    0 -0.00000000000E+00 -0.00000000000E+00 -0.45593999997E+02  0.45594000000E+02  0.51100000000E-03 0. -1.
    9900012    2    1    2    0    0 -0.10388941589E+02 -0.35690623967E+02  0.16474671418E+02  0.50528861484E+02  0.30000004967E+02 0.  0.
         12    1    1    2    0    0  0.10388941589E+02  0.35690623967E+02 -0.16474671418E+02  0.40659138516E+02  0.00000000000E+00 0. -1.
         11    1    3    3    0    0 -0.13578171109E+01 -0.24317597725E+02  0.36286928587E+01  0.24624309910E+02  0.51100000000E-03 0. -1.
        -11    1    3    3    0    0 -0.58426369064E+01 -0.15798688790E+02  0.81756523673E+01  0.18723681940E+02  0.51100000000E-03 0.  1.
         12    1    3    3    0    0 -0.31884875712E+01  0.44256625469E+01  0.46703261919E+01  0.71808696346E+01  0.00000000000E+00 0. -1.
</event>
<event>
 7    1  0.5408841E-013  0.5052887E+02  0.7816164E-02  0.1300439E+00
        -11   -1    0    0    0    0  0.00000000000E+00  0.00000000000E+00  0.45593999997E+02  0.45594000000E+02  0.51100000000E-03 0.  1.
         11   -1    0    0    0    0 -0.00000000000E+00 -0.00000000000E+00 -0.45593999997E+02  0.45594000000E+02  0.51100000000E-03 0. -1.
    9900012    2    1    2    0    0  0.39813001904E+02 -0.50205322069E+01  0.65486153593E+01  0.50528865389E+02  0.30000016835E+02 0.  0.
         12    1    1    2    0    0 -0.39813001904E+02  0.50205322069E+01 -0.65486153593E+01  0.40659134611E+02  0.00000000000E+00 0. -1.
         11    1    3    3    0    0  0.30577040450E+01  0.11523759984E+01 -0.26466685935E+01  0.42050421369E+01  0.51100000000E-03 0. -1.
        -11    1    3    3    0    0  0.26984107045E+02 -0.45177139193E+01 -0.61633774937E+01  0.28045302539E+02  0.51100000000E-03 0.  1.
         12    1    3    3    0    0  0.97711908133E+01 -0.16551942861E+01  0.15358661446E+02  0.18278520713E+02  0.00000000000E+00 0. -1.
</event>
<event>
 7    1  0.5408841E-013  0.5052886E+02  0.7816164E-02  0.1300439E+00
        -11   -1    0    0    0    0  0.00000000000E+00  0.00000000000E+00  0.45593999997E+02  0.45594000000E+02  0.51100000000E-03 0. -1.
         11   -1    0    0    0    0 -0.00000000000E+00 -0.00000000000E+00 -0.45593999997E+02  0.45594000000E+02  0.51100000000E-03 0.  1.
    9900012    2    1    2    0    0  0.33192981995E+02 -0.23372507189E+02 -0.22621884242E+01  0.50528860284E+02  0.30000001318E+02 0.  0.
         12    1    1    2    0    0 -0.33192981995E+02  0.23372507189E+02  0.22621884242E+01  0.40659139716E+02  0.00000000000E+00 0. -1.
         11    1    3    3    0    0  0.36782482982E+01 -0.98407090855E+01  0.39622900722E+01  0.11228036726E+02  0.51100000000E-03 0. -1.
        -11    1    3    3    0    0  0.28927548115E+02 -0.13469144492E+02  0.11233145683E+01  0.31929339629E+02  0.51100000000E-03 0.  1.
        -12    1    3    3    0    0  0.58718558174E+00 -0.62653611263E-01 -0.73477930647E+01  0.73714839282E+01  0.00000000000E+00 0.  1.
</event>
<event>
 7    1  0.5408841E-013  0.5052886E+02  0.7816164E-02  0.1300439E+00
        -11   -1    0    0    0    0  0.00000000000E+00  0.00000000000E+00  0.45593999997E+02  0.45594000000E+02  0.51100000000E-03 0.  1.
         11   -1    0    0    0    0 -0.00000000000E+00 -0.00000000000E+00 -0.45593999997E+02  0.45594000000E+02  0.51100000000E-03 0. -1.
    9900012    2    1    2    0    0 -0.11717001881E+02  0.36945881404E+01  0.38758578762E+02  0.50528861516E+02  0.30000005063E+02 0.  0.
         12    1    1    2    0    0  0.11717001881E+02 -0.36945881404E+01 -0.38758578762E+02  0.40659138484E+02  0.00000000000E+00 0. -1.
         11    1    3    3    0    0 -0.13880822490E+02 -0.50872303344E+00  0.10906651681E+02  0.17660438366E+02  0.51100000000E-03 0. -1.
        -11    1    3    3    0    0 -0.43036537916E+01  0.28320816679E+01  0.25239186274E+02  0.25759632112E+02  0.51100000000E-03 0.  1.
         12    1    3    3    0    0  0.64674744009E+01  0.13712295059E+01  0.26127408075E+01  0.71087910373E+01  0.00000000000E+00 0. -1.
</event>
<event>
 7    1  0.5408841E-013  0.5052887E+02  0.7816164E-02  0.1300439E+00
        -11   -1    0    0    0    0  0.00000000000E+00  0.00000000000E+00  0.45593999997E+02  0.45594000000E+02  0.51100000000E-03 0.  1.
         11   -1    0    0    0    0 -0.00000000000E+00 -0.00000000000E+00 -0.45593999997E+02  0.45594000000E+02  0.51100000000E-03 0. -1.
    9900012    2    1    2    0    0 -0.13807597034E+02 -0.51965829407E+01  0.37888131191E+02  0.50528871932E+02  0.30000036724E+02 0.  0.
         12    1    1    2    0    0  0.13807597034E+02  0.51965829407E+01 -0.37888131191E+02  0.40659128068E+02  0.00000000000E+00 0. -1.
         11    1    3    3    0    0  0.49368691003E+01 -0.86958762039E+01  0.24157320347E+02  0.26145115530E+02  0.51100000000E-03 0. -1.
        -11    1    3    3    0    0 -0.23834189727E+01 -0.16858473304E+01  0.27358283689E+01  0.40009404327E+01  0.51100000000E-03 0.  1.
         12    1    3    3    0    0 -0.16361047162E+02  0.51851405936E+01  0.10994982475E+02  0.20382815969E+02  0.00000000000E+00 0. -1.
</event>
<event>
 7    1  0.5408841E-013  0.5052886E+02  0.7816164E-02  0.1300439E+00
        -11   -1    0    0    0    0  0.00000000000E+00  0.00000000000E+00  0.45593999997E+02  0.45594000000E+02  0.51100000000E-03 0.  1.
         11   -1    0    0    0    0 -0.00000000000E+00 -0.00000000000E+00 -0.45593999997E+02  0.45594000000E+02  0.51100000000E-03 0. -1.
    9900012    2    1    2    0    0 -0.54318058414E+01  0.17109752682E+02  0.36481744901E+02  0.50528857578E+02  0.29999993093E+02 0.  0.
         12    1    1    2    0    0  0.54318058414E+01 -0.17109752682E+02 -0.36481744901E+02  0.40659142422E+02  0.00000000000E+00 0. -1.
         11    1    3    3    0    0  0.67028764753E+00  0.11858153620E+02  0.45349912647E+01  0.12713427502E+02  0.51100000000E-03 0. -1.
        -11    1    3    3    0    0 -0.34283077169E+01  0.10984280447E+02  0.10941577542E+02  0.15878470648E+02  0.51100000000E-03 0.  1.
         12    1    3    3    0    0 -0.26737857721E+01 -0.57326813851E+01  0.21005176094E+02  0.21936959428E+02  0.00000000000E+00 0. -1.
</event>
<event>
 7    1  0.5408841E-013  0.5052887E+02  0.7816164E-02  0.1300439E+00
        -11   -1    0    0    0    0  0.00000000000E+00  0.00000000000E+00  0.45593999997E+02  0.45594000000E+02  0.51100000000E-03 0. -1.
         11   -1    0    0    0    0 -0.00000000000E+00 -0.00000000000E+00 -0.45593999997E+02  0.45594000000E+02  0.51100000000E-03 0.  1.
    9900012    2    1    2    0    0 -0.73646587636E+01 -0.13853656710E+02 -0.37510041390E+02  0.50528865626E+02  0.30000017558E+02 0.  0.
         12    1    1    2    0    0  0.73646587636E+01  0.13853656710E+02  0.37510041390E+02  0.40659134374E+02  0.00000000000E+00 0. -1.
         11    1    3    3    0    0 -0.16690488825E+02 -0.58378574006E+01 -0.17340018390E+02  0.24765484738E+02  0.51100000000E-03 0. -1.
        -11    1    3    3    0    0 -0.68772915118E+00  0.18287531682E+01 -0.30345209299E+01  0.36091033610E+01  0.51100000000E-03 0.  1.
        -12    1    3    3    0    0  0.10013559213E+02 -0.98445524780E+01 -0.17135502069E+02  0.22154277528E+02  0.00000000000E+00 0.  1.
</event>
<event>
 7    1  0.5408841E-013  0.5052880E+02  0.7816164E-02  0.1300439E+00
        -11   -1    0    0    0    0  0.00000000000E+00  0.00000000000E+00  0.45593999997E+02  0.45594000000E+02  0.51100000000E-03 0.  1.
         11   -1    0    0    0    0 -0.00000000000E+00 -0.00000000000E+00 -0.45593999997E+02  0.45594000000E+02  0.51100000000E-03 0. -1.
    9900012    2    1    2    0    0 -0.34301701313E+02  0.75693704979E+01  0.20476039473E+02  0.50528803314E+02  0.29999828153E+02 0.  0.
         12    1    1    2    0    0  0.34301701313E+02 -0.75693704979E+01 -0.20476039473E+02  0.40659196686E+02  0.00000000000E+00 0. -1.
         11    1    3    3    0    0 -0.12783284523E+02  0.11403280284E+02  0.36453007143E+00  0.17134177741E+02  0.51100000000E-03 0. -1.
        -11    1    3    3    0    0 -0.19777530033E+01  0.48174332854E+01  0.50170355648E+01  0.72311697892E+01  0.51100000000E-03 0.  1.
        -12    1    3    3    0    0 -0.19540663786E+02 -0.86513430714E+01  0.15094473836E+02  0.26163455784E+02  0.00000000000E+00 0.  1.
</event>
<event>
 7    1  0.5408841E-013  0.5052886E+02  0.7816164E-02  0.1300439E+00
        -11   -1    0    0    0    0  0.00000000000E+00  0.00000000000E+00  0.45593999997E+02  0.45594000000E+02  0.51100000000E-03 0. -1.
         11   -1    0    0    0    0 -0.00000000000E+00 -0.00000000000E+00 -0.45593999997E+02  0.45594000000E+02  0.51100000000E-03 0.  1.
    9900012    2    1    2    0    0 -0.37669774002E+02 -0.11014787880E+02 -0.10622060640E+02  0.50528860835E+02  0.30000002994E+02 0.  0.
         12    1    1    2    0    0  0.37669774002E+02  0.11014787880E+02  0.10622060640E+02  0.40659139165E+02  0.00000000000E+00 0. -1.
         11    1    3    3    0    0  0.32205463400E+01 -0.21795222384E+01  0.27470792993E+01  0.47611638130E+01  0.51100000000E-03 0. -1.
        -11    1    3    3    0    0  0.56427870686E+00  0.78485607891E+00  0.39018874758E+00  0.10424284357E+01  0.51100000000E-03 0.  1.
        -12    1    3    3    0    0 -0.41454599049E+02 -0.96201217203E+01 -0.13759328686E+02  0.44725268586E+02  0.00000000000E+00 0.  1.
</event>
<event>
 7    1  0.5408841E-013  0.5052885E+02  0.7816164E-02  0.1300439E+00
        -11   -1    0    0    0    0  0.00000000000E+00  0.00000000000E+00  0.45593999997E+02  0.45594000000E+02  0.51100000000E-03 0. -1.
         11   -1    0    0    0    0 -0.00000000000E+00 -0.00000000000E+00 -0.45593999997E+02  0.45594000000E+02  0.51100000000E-03 0.  1.
    9900012    2    1    2    0    0  0.36180663636E+02  0.16191268626E+02 -0.90536545815E+01  0.50528852663E+02  0.29999978156E+02 0.  0.
         12    1    1    2    0    0 -0.36180663636E+02 -0.16191268626E+02  0.90536545815E+01  0.40659147337E+02  0.00000000000E+00 0. -1.
         11    1    3    3    0    0  0.86579386818E+01 -0.15205838045E+01  0.66286149413E-01  0.87907036942E+01  0.51100000000E-03 0. -1.
        -11    1    3    3    0    0  0.29057860724E+02  0.12578919173E+02 -0.59475321627E+00  0.31669262843E+02  0.51100000000E-03 0.  1.
         12    1    3    3    0    0 -0.15351357694E+01  0.51329332579E+01 -0.85251875146E+01  0.10068886126E+02  0.00000000000E+00 0. -1.
</event>
<event>
 7    1  0.5408841E-013  0.5052886E+02  0.7816164E-02  0.1300439E+00
        -11   -1    0    0    0    0  0.00000000000E+00  0.00000000000E+00  0.45593999997E+02  0.45594000000E+02  0.51100000000E-03 0.  1.
         11   -1    0    0    0    0 -0.00000000000E+00 -0.00000000000E+00 -0.45593999997E+02  0.45594000000E+02  0.51100000000E-03 0. -1.
    9900012    2    1    2    0    0  0.22886564650E+02 -0.28829392671E+02  0.17269532094E+02  0.50528862503E+02  0.30000008064E+02 0.  0.
         12    1    1    2    0    0 -0.22886564650E+02  0.28829392671E+02 -0.17269532094E+02  0.40659137497E+02  0.00000000000E+00 0. -1.
         11    1    3    3    0    0  0.45326388670E+01 -0.18609265935E+02  0.11516900049E+02  0.22349241167E+02  0.51100000000E-03 0. -1.
        -11    1    3    3    0    0  0.89775125346E+00  0.21269248069E+01  0.63842178333E+01  0.67888146279E+01  0.51100000000E-03 0.  1.
        -12    1    3    3    0    0  0.17456174530E+02 -0.12347051543E+02 -0.63158578801E+00  0.21390806708E+02  0.00000000000E+00 0.  1.
</event>
<event>
 7    1  0.5408841E-013  0.5052886E+02  0.7816164E-02  0.1300439E+00
        -11   -1    0    0    0    0  0.00000000000E+00  0.00000000000E+00  0.45593999997E+02  0.45594000000E+02  0.51100000000E-03 0.  1.
         11   -1    0    0    0    0 -0.00000000000E+00 -0.00000000000E+00 -0.45593999997E+02  0.45594000000E+02  0.51100000000E-03 0. -1.
    9900012    2    1    2    0    0 -0.18025800945E+02  0.20492798196E+02  0.30137709310E+02  0.50528858346E+02  0.29999995428E+02 0.  0.
         12    1    1    2    0    0  0.18025800945E+02 -0.20492798196E+02 -0.30137709310E+02  0.40659141654E+02  0.00000000000E+00 0. -1.
         11    1    3    3    0    0 -0.15574963463E+02  0.16076519493E+02  0.85217414150E+01  0.23951076028E+02  0.51100000000E-03 0. -1.
        -11    1    3    3    0    0 -0.59273660216E+01  0.81655138992E+01  0.11927369544E+02  0.15622785593E+02  0.51100000000E-03 0.  1.
         12    1    3    3    0    0  0.34765285395E+01 -0.37492351958E+01  0.96885983508E+01  0.10954996725E+02  0.00000000000E+00 0. -1.
</event>
<event>
 7    1  0.5408841E-013  0.5052886E+02  0.7816164E-02  0.1300439E+00
        -11   -1    0    0    0    0  0.00000000000E+00  0.00000000000E+00  0.45593999997E+02  0.45594000000E+02  0.51100000000E-03 0. -1.
         11   -1    0    0    0    0 -0.00000000000E+00 -0.00000000000E+00 -0.45593999997E+02  0.45594000000E+02  0.51100000000E-03 0.  1.
    9900012    2    1    2    0    0  0.19688964266E+02  0.24576563982E+02 -0.25719705239E+02  0.50528855290E+02  0.29999986138E+02 0.  0.
         12    1    1    2    0    0 -0.19688964266E+02 -0.24576563982E+02  0.25719705239E+02  0.40659144710E+02  0.00000000000E+00 0. -1.
         11    1    3    3    0    0  0.52495071466E+01  0.41587678838E+01 -0.44610672725E+01  0.80469744044E+01  0.51100000000E-03 0. -1.
        -11    1    3    3    0    0  0.52255398376E+01  0.25488478926E+02 -0.17296775713E+02  0.31243355692E+02  0.51100000000E-03 0.  1.
         12    1    3    3    0    0  0.92139172815E+01 -0.50706828279E+01 -0.39618622530E+01  0.11238525193E+02  0.00000000000E+00 0. -1.
</event>
<event>
 7    1  0.5408841E-013  0.5052884E+02  0.7816164E-02  0.1300439E+00
        -11   -1    0    0    0    0  0.00000000000E+00  0.00000000000E+00  0.45593999997E+02  0.45594000000E+02  0.51100000000E-03 0.  1.
         11   -1    0    0    0    0 -0.00000000000E+00 -0.00000000000E+00 -0.45593999997E+02  0.45594000000E+02  0.51100000000E-03 0. -1.
    9900012    2    1    2    0    0  0.38291384419E+00  0.31212787669E+02  0.26053453802E+02  0.50528841227E+02  0.29999943393E+02 0.  0.
         12    1    1    2    0    0 -0.38291384419E+00 -0.31212787669E+02 -0.26053453802E+02  0.40659158773E+02  0.00000000000E+00 0. -1.
         11    1    3    3    0    0  0.11369897435E+01  0.27230211758E+02  0.13625181746E+02  0.30470030455E+02  0.51100000000E-03 0. -1.
        -11    1    3    3    0    0 -0.78683970266E+01  0.24028476973E+01  0.48747700598E+01  0.95628830497E+01  0.51100000000E-03 0.  1.
         12    1    3    3    0    0  0.71143211273E+01  0.15797282139E+01  0.75535019966E+01  0.10495927722E+02  0.00000000000E+00 0. -1.
</event>
<event>
 7    1  0.5408841E-013  0.5052885E+02  0.7816164E-02  0.1300439E+00
        -11   -1    0    0    0    0  0.00000000000E+00  0.00000000000E+00  0.45593999997E+02  0.45594000000E+02  0.51100000000E-03 0. -1.
         11   -1    0    0    0    0 -0.00000000000E+00 -0.00000000000E+00 -0.45593999997E+02  0.45594000000E+02  0.51100000000E-03 0.  1.
    9900012    2    1    2    0    0  0.34118630992E+02  0.22113911583E+02 -0.24553681001E+00  0.50528851527E+02  0.29999974700E+02 0.  0.
         12    1    1    2    0    0 -0.34118630992E+02 -0.22113911583E+02  0.24553681001E+00  0.40659148473E+02  0.00000000000E+00 0. -1.
         11    1    3    3    0    0  0.12866030157E+02  0.41461946279E+01  0.62833105942E+01  0.14906564131E+02  0.51100000000E-03 0.  1.
        -11    1    3    3    0    0  0.53142591728E+01  0.71059711573E+01  0.76243808586E+01  0.11699032455E+02  0.51100000000E-03 0. -1.
        -12    1    3    3    0    0  0.15938341661E+02  0.10861745798E+02 -0.14153228263E+02  0.23923254941E+02  0.00000000000E+00 0.  1.
</event>
<event>
 7    1  0.5408841E-013  0.5052886E+02  0.7816164E-02  0.1300439E+00
        -11   -1    0    0    0    0  0.00000000000E+00  0.00000000000E+00  0.45593999997E+02  0.45594000000E+02  0.51100000000E-03 0. -1.
         11   -1    0    0    0    0 -0.00000000000E+00 -0.00000000000E+00 -0.45593999997E+02  0.45594000000E+02  0.51100000000E-03 0.  1.
    9900012    2    1    2    0    0  0.65469454160E+00  0.40652993587E+02  0.26644414098E+00  0.50528861974E+02  0.30000006457E+02 0.  0.
         12    1    1    2    0    0 -0.65469454160E+00 -0.40652993587E+02 -0.26644414098E+00  0.40659138026E+02  0.00000000000E+00 0. -1.
         11    1    3    3    0    0  0.13255270048E+01  0.51756528575E+01 -0.56879541303E+01  0.78036675218E+01  0.51100000000E-03 0. -1.
        -11    1    3    3    0    0  0.10358934460E+02  0.10837006664E+02 -0.37704709900E+00  0.14996346267E+02  0.51100000000E-03 0.  1.
         12    1    3    3    0    0 -0.11029766923E+02  0.24640334065E+02  0.63314453702E+01  0.27728848186E+02  0.00000000000E+00 0. -1.
</event>
<event>
 7    1  0.5408841E-013  0.5052886E+02  0.7816164E-02  0.1300439E+00
        -11   -1    0    0    0    0  0.00000000000E+00  0.00000000000E+00  0.45593999997E+02  0.45594000000E+02  0.51100000000E-03 0.  1.
         11   -1    0    0    0    0 -0.00000000000E+00 -0.00000000000E+00 -0.45593999997E+02  0.45594000000E+02  0.51100000000E-03 0. -1.
    9900012    2    1    2    0    0 -0.70433018396E+01 -0.25008080485E+02  0.31275445504E+02  0.50528859800E+02  0.29999999848E+02 0.  0.
         12    1    1    2    0    0  0.70433018396E+01  0.25008080485E+02 -0.31275445504E+02  0.40659140200E+02  0.00000000000E+00 0. -1.
         11    1    3    3    0    0 -0.83228733759E+01 -0.87278376065E+01  0.18572599510E+02  0.22144679346E+02  0.51100000000E-03 0. -1.
        -11    1    3    3    0    0 -0.16863508325E+01 -0.80009286560E+01  0.16798422975E+02  0.18682763532E+02  0.51100000000E-03 0.  1.
         12    1    3    3    0    0  0.29659223688E+01 -0.82793142222E+01 -0.40955769809E+01  0.97014169220E+01  0.00000000000E+00 0. -1.
</event>
<event>
 7    1  0.5408841E-013  0.5052888E+02  0.7816164E-02  0.1300439E+00
        -11   -1    0    0    0    0  0.00000000000E+00  0.00000000000E+00  0.45593999997E+02  0.45594000000E+02  0.51100000000E-03 0. -1.
         11   -1    0    0    0    0 -0.00000000000E+00 -0.00000000000E+00 -0.45593999997E+02  0.45594000000E+02  0.51100000000E-03 0.  1.
    9900012    2    1    2    0    0  0.25870085159E+02 -0.10097109238E+01 -0.31350971150E+02  0.50528877846E+02  0.30000054701E+02 0.  0.
         12    1    1    2    0    0 -0.25870085159E+02  0.10097109238E+01  0.31350971150E+02  0.40659122154E+02  0.00000000000E+00 0. -1.
         11    1    3    3    0    0 -0.14725687063E+01 -0.37997408834E+01  0.11518341345E+01  0.42347622732E+01  0.51100000000E-03 0. -1.
        -11    1    3    3    0    0  0.38286726643E+01 -0.66095825006E+01 -0.72373696622E+01  0.10522586901E+02  0.51100000000E-03 0.  1.
        -12    1    3    3    0    0  0.23513981201E+02  0.93996124603E+01 -0.25265435622E+02  0.35771528672E+02  0.00000000000E+00 0.  1.
</event>
<event>
 7    1  0.5408841E-013  0.5052886E+02  0.7816164E-02  0.1300439E+00
        -11   -1    0    0    0    0  0.00000000000E+00  0.00000000000E+00  0.45593999997E+02  0.45594000000E+02  0.51100000000E-03 0.  1.
         11   -1    0    0    0    0 -0.00000000000E+00 -0.00000000000E+00 -0.45593999997E+02  0.45594000000E+02  0.51100000000E-03 0. -1.
    9900012    2    1    2    0    0 -0.33757905645E+02 -0.22241212404E+02  0.43471997259E+01  0.50528857508E+02  0.29999992883E+02 0.  0.
         12    1    1    2    0    0  0.33757905645E+02  0.22241212404E+02 -0.43471997259E+01  0.40659142492E+02  0.00000000000E+00 0. -1.
         11    1    3    3    0    0 -0.11640475043E+02 -0.41116367336E+01 -0.46460512731E+01  0.13190603040E+02  0.51100000000E-03 0. -1.
        -11    1    3    3    0    0 -0.10317735522E+02 -0.20264313721E+02  0.68518147857E+00  0.22750111006E+02  0.51100000000E-03 0.  1.
         12    1    3    3    0    0 -0.11799695080E+02  0.21347380509E+01  0.83080695204E+01  0.14588143462E+02  0.00000000000E+00 0. -1.
</event>
<event>
 7    1  0.5408841E-013  0.5052886E+02  0.7816164E-02  0.1300439E+00
        -11   -1    0    0    0    0  0.00000000000E+00  0.00000000000E+00  0.45593999997E+02  0.45594000000E+02  0.51100000000E-03 0.  1.
         11   -1    0    0    0    0 -0.00000000000E+00 -0.00000000000E+00 -0.45593999997E+02  0.45594000000E+02  0.51100000000E-03 0. -1.
    9900012    2    1    2    0    0  0.25075559962E+02 -0.24317874984E+02  0.20809196110E+02  0.50528863340E+02  0.30000010609E+02 0.  0.
         12    1    1    2    0    0 -0.25075559962E+02  0.24317874984E+02 -0.20809196110E+02  0.40659136660E+02  0.00000000000E+00 0. -1.
         11    1    3    3    0    0  0.75546382291E+01 -0.20335687629E+01  0.16929062950E+01  0.80046169597E+01  0.51100000000E-03 0. -1.
        -11    1    3    3    0    0  0.23683885966E+02 -0.17748018500E+02  0.18374526673E+02  0.34835927515E+02  0.51100000000E-03 0.  1.
        -12    1    3    3    0    0 -0.61629642323E+01 -0.45362877217E+01  0.74176314133E+00  0.76883188657E+01  0.00000000000E+00 0.  1.
</event>
<event>
 7    1  0.5408841E-013  0.5052886E+02  0.7816164E-02  0.1300439E+00
        -11   -1    0    0    0    0  0.00000000000E+00  0.00000000000E+00  0.45593999997E+02  0.45594000000E+02  0.51100000000E-03 0. -1.
         11   -1    0    0    0    0 -0.00000000000E+00 -0.00000000000E+00 -0.45593999997E+02  0.45594000000E+02  0.51100000000E-03 0.  1.
    9900012    2    1    2    0    0  0.74348079837E+01  0.78703741099E+01 -0.39191155828E+02  0.50528857688E+02  0.29999993428E+02 0.  0.
         12    1    1    2    0    0 -0.74348079837E+01 -0.78703741099E+01  0.39191155828E+02  0.40659142312E+02  0.00000000000E+00 0. -1.
         11    1    3    3    0    0 -0.11859286377E+01 -0.69501024751E+01 -0.11824186681E+02  0.13766689583E+02  0.51100000000E-03 0. -1.
        -11    1    3    3    0    0  0.13931456077E+01 -0.40006519411E+01 -0.63961817517E+01  0.76718454038E+01  0.51100000000E-03 0.  1.
         12    1    3    3    0    0  0.72275910137E+01  0.18821128526E+02 -0.20970787396E+02  0.29090322701E+02  0.00000000000E+00 0. -1.
</event>
<event>
 7    1  0.5408841E-013  0.5052886E+02  0.7816164E-02  0.1300439E+00
        -11   -1    0    0    0    0  0.00000000000E+00  0.00000000000E+00  0.45593999997E+02  0.45594000000E+02  0.51100000000E-03 0.  1.
         11   -1    0    0    0    0 -0.00000000000E+00 -0.00000000000E+00 -0.45593999997E+02  0.45594000000E+02  0.51100000000E-03 0. -1.
    9900012    2    1    2    0    0 -0.61326321879E+01 -0.39866196103E+02  0.51227476223E+01  0.50528864342E+02  0.30000013654E+02 0.  0.
         12    1    1    2    0    0  0.61326321879E+01  0.39866196103E+02 -0.51227476223E+01  0.40659135658E+02  0.00000000000E+00 0. -1.
         11    1    3    3    0    0 -0.50193923062E+01 -0.92669723253E+01 -0.23626036593E+01  0.10800600516E+02  0.51100000000E-03 0. -1.
        -11    1    3    3    0    0 -0.27557152426E+01 -0.53765335435E+01 -0.80459517734E+01  0.10061730450E+02  0.51100000000E-03 0.  1.
        -12    1    3    3    0    0  0.16424753609E+01 -0.25222690234E+02  0.15531303055E+02  0.29666533376E+02  0.00000000000E+00 0.  1.
</event>
<event>
 7    1  0.5408841E-013  0.5052886E+02  0.7816164E-02  0.1300439E+00
        -11   -1    0    0    0    0  0.00000000000E+00  0.00000000000E+00  0.45593999997E+02  0.45594000000E+02  0.51100000000E-03 0.  1.
         11   -1    0    0    0    0 -0.00000000000E+00 -0.00000000000E+00 -0.45593999997E+02  0.45594000000E+02  0.51100000000E-03 0. -1.
    9900012    2    1    2    0    0 -0.29785849194E+02 -0.27671368570E+02  0.51422879851E+00  0.50528857338E+02  0.29999992366E+02 0.  0.
         12    1    1    2    0    0  0.29785849194E+02  0.27671368570E+02 -0.51422879851E+00  0.40659142662E+02  0.00000000000E+00 0. -1.
         11    1    3    3    0    0 -0.18062036505E+02 -0.71293760846E+01  0.51197746444E+01  0.20081764333E+02  0.51100000000E-03 0. -1.
        -11    1    3    3    0    0 -0.10070163104E+02 -0.20858232553E+02  0.23591930701E+01  0.23281749127E+02  0.51100000000E-03 0.  1.
         12    1    3    3    0    0 -0.16536495847E+01  0.31624006839E+00 -0.69647389159E+01  0.71653438785E+01  0.00000000000E+00 0. -1.
</event>
<event>
 7    1  0.5408841E-013  0.5052885E+02  0.7816164E-02  0.1300439E+00
        -11   -1    0    0    0    0  0.00000000000E+00  0.00000000000E+00  0.45593999997E+02  0.45594000000E+02  0.51100000000E-03 0. -1.
         11   -1    0    0    0    0 -0.00000000000E+00 -0.00000000000E+00 -0.45593999997E+02  0.45594000000E+02  0.51100000000E-03 0.  1.
    9900012    2    1    2    0    0 -0.23175816778E+02  0.27978195102E+02 -0.18255646786E+02  0.50528849442E+02  0.29999968364E+02 0.  0.
         12    1    1    2    0    0  0.23175816778E+02 -0.27978195102E+02  0.18255646786E+02  0.40659150558E+02  0.00000000000E+00 0. -1.
         11    1    3    3    0    0 -0.17992200505E+01  0.27518192779E+01  0.25803398251E+01  0.41794564243E+01  0.51100000000E-03 0. -1.
        -11    1    3    3    0    0 -0.14782749227E+01  0.10044594960E+02  0.41643067681E+01  0.10973633663E+02  0.51100000000E-03 0.  1.
        -12    1    3    3    0    0 -0.19898321805E+02  0.15181780865E+02 -0.25000293380E+02  0.35375759355E+02  0.00000000000E+00 0.  1.
</event>
<event>
 7    1  0.5408841E-013  0.5052893E+02  0.7816164E-02  0.1300439E+00
        -11   -1    0    0    0    0  0.00000000000E+00  0.00000000000E+00  0.45593999997E+02  0.45594000000E+02  0.51100000000E-03 0. -1.
         11   -1    0    0    0    0 -0.00000000000E+00 -0.00000000000E+00 -0.45593999997E+02  0.45594000000E+02  0.51100000000E-03 0.  1.
    9900012    2    1    2    0    0 -0.12513224251E+02 -0.36101034187E+01 -0.38516833695E+02  0.50528928371E+02  0.30000208275E+02 0.  0.
         12    1    1    2    0    0  0.12513224251E+02  0.36101034187E+01  0.38516833695E+02  0.40659071629E+02  0.00000000000E+00 0. -1.
         11    1    3    3    0    0 -0.14437701296E+02 -0.90557922364E+01 -0.16091360399E+02  0.23438994678E+02  0.51100000000E-03 0. -1.
        -11    1    3    3    0    0  0.27283089048E+00  0.10513534799E+01  0.19685389232E+01  0.22483163896E+01  0.51100000000E-03 0.  1.
        -12    1    3    3    0    0  0.16516461550E+01  0.43943353378E+01 -0.24394012219E+02  0.24841617303E+02  0.00000000000E+00 0.  1.
</event>
<event>
 7    1  0.5408841E-013  0.5052887E+02  0.7816164E-02  0.1300439E+00
        -11   -1    0    0    0    0  0.00000000000E+00  0.00000000000E+00  0.45593999997E+02  0.45594000000E+02  0.51100000000E-03 0.  1.
         11   -1    0    0    0    0 -0.00000000000E+00 -0.00000000000E+00 -0.45593999997E+02  0.45594000000E+02  0.51100000000E-03 0. -1.
    9900012    2    1    2    0    0 -0.21111015043E+02 -0.33793241627E+02  0.80936319123E+01  0.50528868021E+02  0.30000024836E+02 0.  0.
         12    1    1    2    0    0  0.21111015043E+02  0.33793241627E+02 -0.80936319123E+01  0.40659131979E+02  0.00000000000E+00 0. -1.
         11    1    3    3    0    0 -0.29911644484E+01 -0.89841492479E+01  0.22937785462E-01  0.94690299857E+01  0.51100000000E-03 0. -1.
        -11    1    3    3    0    0 -0.19282691245E+02 -0.29472195258E+02  0.56206497828E+01  0.35665447974E+02  0.51100000000E-03 0.  1.
        -12    1    3    3    0    0  0.11628406512E+01  0.46631028790E+01  0.24500443440E+01  0.53943900608E+01  0.00000000000E+00 0.  1.
</event>
<event>
 7    1  0.5408841E-013  0.5052888E+02  0.7816164E-02  0.1300439E+00
        -11   -1    0    0    0    0  0.00000000000E+00  0.00000000000E+00  0.45593999997E+02  0.45594000000E+02  0.51100000000E-03 0.  1.
         11   -1    0    0    0    0 -0.00000000000E+00 -0.00000000000E+00 -0.45593999997E+02  0.45594000000E+02  0.51100000000E-03 0. -1.
    9900012    2    1    2    0    0 -0.12995104052E+01  0.12698347607E+02  0.38603461768E+02  0.50528880240E+02  0.30000061976E+02 0.  0.
         12    1    1    2    0    0  0.12995104052E+01 -0.12698347607E+02 -0.38603461768E+02  0.40659119760E+02  0.00000000000E+00 0. -1.
         11    1    3    3    0    0 -0.38616829172E+01 -0.67148328421E+01  0.60091950365E+01  0.98036727964E+01  0.51100000000E-03 0. -1.
        -11    1    3    3    0    0  0.24177374858E+01 -0.17482633287E+01  0.63171555325E+01  0.69862961217E+01  0.51100000000E-03 0.  1.
         12    1    3    3    0    0  0.14443502626E+00  0.21161443777E+02  0.26277111199E+02  0.33738911322E+02  0.00000000000E+00 0. -1.
</event>
<event>
 7    1  0.5408841E-013  0.5052885E+02  0.7816164E-02  0.1300439E+00
        -11   -1    0    0    0    0  0.00000000000E+00  0.00000000000E+00  0.45593999997E+02  0.45594000000E+02  0.51100000000E-03 0. -1.
         11   -1    0    0    0    0 -0.00000000000E+00 -0.00000000000E+00 -0.45593999997E+02  0.45594000000E+02  0.51100000000E-03 0.  1.
    9900012    2    1    2    0    0  0.19764539632E+02 -0.18063318608E+02 -0.30598136232E+02  0.50528850391E+02  0.29999971249E+02 0.  0.
         12    1    1    2    0    0 -0.19764539632E+02  0.18063318608E+02  0.30598136232E+02  0.40659149609E+02  0.00000000000E+00 0. -1.
         11    1    3    3    0    0 -0.26913653642E+01 -0.24742618964E+01 -0.58071198559E+01  0.68620740843E+01  0.51100000000E-03 0. -1.
        -11    1    3    3    0    0  0.42119276601E+00 -0.63041148202E+01 -0.17597082402E+02  0.18696967036E+02  0.51100000000E-03 0.  1.
         12    1    3    3    0    0  0.22034712230E+02 -0.92849418916E+01 -0.71939339743E+01  0.24969809271E+02  0.00000000000E+00 0. -1.
</event>
<event>
 7    1  0.5408841E-013  0.5052886E+02  0.7816164E-02  0.1300439E+00
        -11   -1    0    0    0    0  0.00000000000E+00  0.00000000000E+00  0.45593999997E+02  0.45594000000E+02  0.51100000000E-03 0.  1.
         11   -1    0    0    0    0 -0.00000000000E+00 -0.00000000000E+00 -0.45593999997E+02  0.45594000000E+02  0.51100000000E-03 0. -1.
    9900012    2    1    2    0    0 -0.32825891651E+02 -0.22683295288E+02 -0.78163183855E+01  0.50528857352E+02  0.29999992406E+02 0.  0.
         12    1    1    2    0    0  0.32825891651E+02  0.22683295288E+02  0.78163183855E+01  0.40659142648E+02  0.00000000000E+00 0. -1.
         11    1    3    3    0    0 -0.12538739573E+02 -0.14591943142E+02 -0.94755648808E+01  0.21446004868E+02  0.51100000000E-03 0. -1.
        -11    1    3    3    0    0 -0.19885761372E+02 -0.23805450599E+01 -0.46530313691E+01  0.20561157587E+02  0.51100000000E-03 0.  1.
        -12    1    3    3    0    0 -0.40139070618E+00 -0.57108070864E+01  0.63122778644E+01  0.85216948968E+01  0.00000000000E+00 0.  1.
</event>
<event>
 7    1  0.5408841E-013  0.5052883E+02  0.7816164E-02  0.1300439E+00
        -11   -1    0    0    0    0  0.00000000000E+00  0.00000000000E+00  0.45593999997E+02  0.45594000000E+02  0.51100000000E-03 0. -1.
         11   -1    0    0    0    0 -0.00000000000E+00 -0.00000000000E+00 -0.45593999997E+02  0.45594000000E+02  0.51100000000E-03 0.  1.
    9900012    2    1    2    0    0  0.16949901897E+01 -0.13680965609E+02 -0.38250837044E+02  0.50528827033E+02  0.29999900251E+02 0.  0.
         12    1    1    2    0    0 -0.16949901897E+01  0.13680965609E+02  0.38250837044E+02  0.40659172967E+02  0.00000000000E+00 0. -1.
         11    1    3    3    0    0 -0.15766345993E+01  0.33225672405E+00 -0.92554118760E+01  0.93946165672E+01  0.51100000000E-03 0. -1.
        -11    1    3    3    0    0  0.54331098242E+01 -0.13456572100E+02 -0.33278166698E+02  0.36304743410E+02  0.51100000000E-03 0.  1.
         12    1    3    3    0    0 -0.21614850353E+01 -0.55665023235E+00  0.42827415292E+01  0.48294670560E+01  0.00000000000E+00 0. -1.
</event>
<event>
 7    1  0.5408841E-013  0.5052886E+02  0.7816164E-02  0.1300439E+00
        -11   -1    0    0    0    0  0.00000000000E+00  0.00000000000E+00  0.45593999997E+02  0.45594000000E+02  0.51100000000E-03 0.  1.
         11   -1    0    0    0    0 -0.00000000000E+00 -0.00000000000E+00 -0.45593999997E+02  0.45594000000E+02  0.51100000000E-03 0. -1.
    9900012    2    1    2    0    0  0.33797786165E+02  0.14006477217E+02  0.17739616531E+02  0.50528858982E+02  0.29999997361E+02 0.  0.
         12    1    1    2    0    0 -0.33797786165E+02 -0.14006477217E+02 -0.17739616531E+02  0.40659141018E+02  0.00000000000E+00 0. -1.
         11    1    3    3    0    0  0.11483126236E+02  0.14575824545E+02 -0.33937644166E+01  0.18863575655E+02  0.51100000000E-03 0. -1.
        -11    1    3    3    0    0  0.25295092507E+01  0.24580731311E+01  0.38377459582E+01  0.52123732472E+01  0.51100000000E-03 0.  1.
        -12    1    3    3    0    0  0.19785150678E+02 -0.30274204594E+01  0.17295634990E+02  0.26452910080E+02  0.00000000000E+00 0.  1.
</event>
<event>
 7    1  0.5408841E-013  0.5052886E+02  0.7816164E-02  0.1300439E+00
        -11   -1    0    0    0    0  0.00000000000E+00  0.00000000000E+00  0.45593999997E+02  0.45594000000E+02  0.51100000000E-03 0.  1.
         11   -1    0    0    0    0 -0.00000000000E+00 -0.00000000000E+00 -0.45593999997E+02  0.45594000000E+02  0.51100000000E-03 0. -1.
    9900012    2    1    2    0    0  0.40518315960E+02  0.28997891884E+01 -0.17387088918E+01  0.50528858172E+02  0.29999994900E+02 0.  0.
         12    1    1    2    0    0 -0.40518315960E+02 -0.28997891884E+01  0.17387088918E+01  0.40659141828E+02  0.00000000000E+00 0. -1.
         11    1    3    3    0    0  0.39211576063E+01 -0.41591662037E+01  0.26294947678E+01  0.62919300281E+01  0.51100000000E-03 0.  1.
        -11    1    3    3    0    0  0.22454904742E+02 -0.74979384125E+01 -0.34189554261E+01  0.23919261775E+02  0.51100000000E-03 0. -1.
         12    1    3    3    0    0  0.14142253612E+02  0.14556893805E+02 -0.94924823348E+00  0.20317666369E+02  0.00000000000E+00 0. -1.
</event>
<event>
 7    1  0.5408841E-013  0.5052886E+02  0.7816164E-02  0.1300439E+00
        -11   -1    0    0    0    0  0.00000000000E+00  0.00000000000E+00  0.45593999997E+02  0.45594000000E+02  0.51100000000E-03 0.  1.
         11   -1    0    0    0    0 -0.00000000000E+00 -0.00000000000E+00 -0.45593999997E+02  0.45594000000E+02  0.51100000000E-03 0. -1.
    9900012    2    1    2    0    0 -0.11231159582E+02  0.92347886150E+01  0.37970321996E+02  0.50528860575E+02  0.30000002204E+02 0.  0.
         12    1    1    2    0    0  0.11231159582E+02 -0.92347886150E+01 -0.37970321996E+02  0.40659139425E+02  0.00000000000E+00 0. -1.
         11    1    3    3    0    0 -0.11754176734E+02  0.22731317835E+01  0.54989973454E+01  0.13174474216E+02  0.51100000000E-03 0. -1.
        -11    1    3    3    0    0 -0.15923496391E+01 -0.55433647964E+01  0.94630670025E+01  0.11082152679E+02  0.51100000000E-03 0.  1.
        -12    1    3    3    0    0  0.21153667913E+01  0.12505021628E+02  0.23008257648E+02  0.26272233681E+02  0.00000000000E+00 0.  1.
</event>
<event>
 7    1  0.5408841E-013  0.5052886E+02  0.7816164E-02  0.1300439E+00
        -11   -1    0    0    0    0  0.00000000000E+00  0.00000000000E+00  0.45593999997E+02  0.45594000000E+02  0.51100000000E-03 0. -1.
         11   -1    0    0    0    0 -0.00000000000E+00 -0.00000000000E+00 -0.45593999997E+02  0.45594000000E+02  0.51100000000E-03 0.  1.
    9900012    2    1    2    0    0  0.24950914745E+02 -0.31822259024E+02  0.42380702967E+01  0.50528861349E+02  0.30000004557E+02 0.  0.
         12    1    1    2    0    0 -0.24950914745E+02  0.31822259024E+02 -0.42380702967E+01  0.40659138651E+02  0.00000000000E+00 0. -1.
         11    1    3    3    0    0  0.36848717554E+01 -0.73750491404E+01  0.62071287515E+01  0.10319790564E+02  0.51100000000E-03 0. -1.
        -11    1    3    3    0    0  0.12717666109E+02 -0.22006488757E+02 -0.10856503202E+02  0.27638528194E+02  0.51100000000E-03 0.  1.
         12    1    3    3    0    0  0.85483768808E+01 -0.24407211265E+01  0.88874447476E+01  0.12570542592E+02  0.00000000000E+00 0. -1.
</event>
<event>
 7    1  0.5408841E-013  0.5052886E+02  0.7816164E-02  0.1300439E+00
        -11   -1    0    0    0    0  0.00000000000E+00  0.00000000000E+00  0.45593999997E+02  0.45594000000E+02  0.51100000000E-03 0. -1.
         11   -1    0    0    0    0 -0.00000000000E+00 -0.00000000000E+00 -0.45593999997E+02  0.45594000000E+02  0.51100000000E-03 0.  1.
    9900012    2    1    2    0    0  0.11413627026E+02  0.86218941805E+01 -0.38059924599E+02  0.50528858326E+02  0.29999995369E+02 0.  0.
         12    1    1    2    0    0 -0.11413627026E+02 -0.86218941805E+01  0.38059924599E+02  0.40659141674E+02  0.00000000000E+00 0. -1.
         11    1    3    3    0    0 -0.19747089102E+01  0.68982993234E+01 -0.17626690806E+01  0.73887083705E+01  0.51100000000E-03 0. -1.
        -11    1    3    3    0    0 -0.17742117939E+01 -0.36071326936E+01 -0.69681673327E+00  0.40798023947E+01  0.51100000000E-03 0.  1.
         12    1    3    3    0    0  0.15162547730E+02  0.53307275507E+01 -0.35600438785E+02  0.39060347561E+02  0.00000000000E+00 0. -1.
</event>
<event>
 7    1  0.5408841E-013  0.5052896E+02  0.7816164E-02  0.1300438E+00
        -11   -1    0    0    0    0  0.00000000000E+00  0.00000000000E+00  0.45593999997E+02  0.45594000000E+02  0.51100000000E-03 0.  1.
         11   -1    0    0    0    0 -0.00000000000E+00 -0.00000000000E+00 -0.45593999997E+02  0.45594000000E+02  0.51100000000E-03 0. -1.
    9900012    2    1    2    0    0 -0.23564087881E+02 -0.15550645491E+02  0.29258654169E+02  0.50528958489E+02  0.30000299820E+02 0.  0.
         12    1    1    2    0    0  0.23564087881E+02  0.15550645491E+02 -0.29258654169E+02  0.40659041511E+02  0.00000000000E+00 0. -1.
         11    1    3    3    0    0 -0.14120634478E+02  0.26022779095E+01  0.14168037717E+02  0.20171699517E+02  0.51100000000E-03 0. -1.
        -11    1    3    3    0    0 -0.10580360124E+02 -0.67888559620E+01  0.14105003524E+02  0.18894012552E+02  0.51100000000E-03 0.  1.
         12    1    3    3    0    0  0.11369067216E+01 -0.11364067438E+02  0.98561292780E+00  0.11463246420E+02  0.00000000000E+00 0. -1.
</event>
<event>
 7    1  0.5408841E-013  0.5052886E+02  0.7816164E-02  0.1300439E+00
        -11   -1    0    0    0    0  0.00000000000E+00  0.00000000000E+00  0.45593999997E+02  0.45594000000E+02  0.51100000000E-03 0.  1.
         11   -1    0    0    0    0 -0.00000000000E+00 -0.00000000000E+00 -0.45593999997E+02  0.45594000000E+02  0.51100000000E-03 0. -1.
    9900012    2    1    2    0    0 -0.49851365444E+01 -0.24078181267E+02  0.32381398807E+02  0.50528863410E+02  0.30000010823E+02 0.  0.
         12    1    1    2    0    0  0.49851365444E+01  0.24078181267E+02 -0.32381398807E+02  0.40659136590E+02  0.00000000000E+00 0. -1.
         11    1    3    3    0    0 -0.45923855662E+01 -0.16747134435E+02  0.27283923432E+02  0.32341443924E+02  0.51100000000E-03 0. -1.
        -11    1    3    3    0    0 -0.31563897867E+01 -0.90224400474E+01  0.89905464695E+01  0.13122391054E+02  0.51100000000E-03 0.  1.
         12    1    3    3    0    0  0.27636388085E+01  0.16913932153E+01 -0.38930710946E+01  0.50650284324E+01  0.00000000000E+00 0. -1.
</event>
<event>
 7    1  0.5408841E-013  0.5052885E+02  0.7816164E-02  0.1300439E+00
        -11   -1    0    0    0    0  0.00000000000E+00  0.00000000000E+00  0.45593999997E+02  0.45594000000E+02  0.51100000000E-03 0. -1.
         11   -1    0    0    0    0 -0.00000000000E+00 -0.00000000000E+00 -0.45593999997E+02  0.45594000000E+02  0.51100000000E-03 0.  1.
    9900012    2    1    2    0    0  0.14392168805E+02 -0.28460596466E+02 -0.25219561352E+02  0.50528851596E+02  0.29999974912E+02 0.  0.
         12    1    1    2    0    0 -0.14392168805E+02  0.28460596466E+02  0.25219561352E+02  0.40659148404E+02  0.00000000000E+00 0. -1.
         11    1    3    3    0    0 -0.35513898766E+00  0.55164803311E+01 -0.15098677183E+01  0.57303908883E+01  0.51100000000E-03 0. -1.
        -11    1    3    3    0    0  0.47572828501E+00 -0.10635048578E+02 -0.63173759703E+01  0.12379007031E+02  0.51100000000E-03 0.  1.
        -12    1    3    3    0    0  0.14271579507E+02 -0.23342028220E+02 -0.17392317663E+02  0.32419453677E+02  0.00000000000E+00 0.  1.
</event>
<event>
 7    1  0.5408841E-013  0.5052886E+02  0.7816164E-02  0.1300439E+00
        -11   -1    0    0    0    0  0.00000000000E+00  0.00000000000E+00  0.45593999997E+02  0.45594000000E+02  0.51100000000E-03 0.  1.
         11   -1    0    0    0    0 -0.00000000000E+00 -0.00000000000E+00 -0.45593999997E+02  0.45594000000E+02  0.51100000000E-03 0. -1.
    9900012    2    1    2    0    0 -0.25776157302E+02 -0.26764336581E+02  0.16505322316E+02  0.50528860036E+02  0.30000000565E+02 0.  0.
         12    1    1    2    0    0  0.25776157302E+02  0.26764336581E+02 -0.16505322316E+02  0.40659139964E+02  0.00000000000E+00 0. -1.
         11    1    3    3    0    0 -0.38672271509E+01 -0.47814376804E+01 -0.25558791214E+01  0.66595878606E+01  0.51100000000E-03 0. -1.
        -11    1    3    3    0    0 -0.21747322796E+02 -0.73054772645E+01  0.48704983439E+01  0.23452884711E+02  0.51100000000E-03 0.  1.
         12    1    3    3    0    0 -0.16160735441E+00 -0.14677421636E+02  0.14190703094E+02  0.20416387465E+02  0.00000000000E+00 0. -1.
</event>
<event>
 7    1  0.5408841E-013  0.5052887E+02  0.7816164E-02  0.1300439E+00
        -11   -1    0    0    0    0  0.00000000000E+00  0.00000000000E+00  0.45593999997E+02  0.45594000000E+02  0.51100000000E-03 0.  1.
         11   -1    0    0    0    0 -0.00000000000E+00 -0.00000000000E+00 -0.45593999997E+02  0.45594000000E+02  0.51100000000E-03 0. -1.
    9900012    2    1    2    0    0 -0.34828273488E+02 -0.19284681399E+02  0.82618120567E+01  0.50528866841E+02  0.30000021249E+02 0.  0.
         12    1    1    2    0    0  0.34828273488E+02  0.19284681399E+02 -0.82618120567E+01  0.40659133159E+02  0.00000000000E+00 0. -1.
         11    1    3    3    0    0 -0.54637819603E+01 -0.14170759379E+02  0.11434386176E+01  0.15230587212E+02  0.51100000000E-03 0. -1.
        -11    1    3    3    0    0 -0.70690323050E+01 -0.76541884446E+01  0.75291692974E+01  0.12854812680E+02  0.51100000000E-03 0.  1.
         12    1    3    3    0    0 -0.22295459222E+02  0.25402664243E+01 -0.41079585827E+00  0.22443466949E+02  0.00000000000E+00 0. -1.
</event>
<event>
 7    1  0.5408841E-013  0.5052887E+02  0.7816164E-02  0.1300439E+00
        -11   -1    0    0    0    0  0.00000000000E+00  0.00000000000E+00  0.45593999997E+02  0.45594000000E+02  0.51100000000E-03 0.  1.
         11   -1    0    0    0    0 -0.00000000000E+00 -0.00000000000E+00 -0.45593999997E+02  0.45594000000E+02  0.51100000000E-03 0. -1.
    9900012    2    1    2    0    0  0.11470224477E+02 -0.18701338065E+02  0.34232426265E+02  0.50528866919E+02  0.30000021486E+02 0.  0.
         12    1    1    2    0    0 -0.11470224477E+02  0.18701338065E+02 -0.34232426265E+02  0.40659133081E+02  0.00000000000E+00 0. -1.
         11    1    3    3    0    0  0.84809719831E+01 -0.11328254981E+01  0.47437384882E+01  0.97833140853E+01  0.51100000000E-03 0. -1.
        -11    1    3    3    0    0  0.97696767834E+01 -0.18448337604E+01  0.57816150101E+01  0.11501176829E+02  0.51100000000E-03 0.  1.
        -12    1    3    3    0    0 -0.67804242894E+01 -0.15723678806E+02  0.23707072766E+02  0.29244376005E+02  0.00000000000E+00 0.  1.
</event>
<event>
 7    1  0.5408841E-013  0.5052888E+02  0.7816164E-02  0.1300439E+00
        -11   -1    0    0    0    0  0.00000000000E+00  0.00000000000E+00  0.45593999997E+02  0.45594000000E+02  0.51100000000E-03 0.  1.
         11   -1    0    0    0    0 -0.00000000000E+00 -0.00000000000E+00 -0.45593999997E+02  0.45594000000E+02  0.51100000000E-03 0. -1.
    9900012    2    1    2    0    0  0.15668759058E+02  0.12495927390E+02  0.35376628422E+02  0.50528879864E+02  0.30000060834E+02 0.  0.
         12    1    1    2    0    0 -0.15668759058E+02 -0.12495927390E+02 -0.35376628422E+02  0.40659120136E+02  0.00000000000E+00 0. -1.
         11    1    3    3    0    0 -0.75726260191E+00  0.65126913993E+01  0.25286632570E+02  0.26122832597E+02  0.51100000000E-03 0. -1.
        -11    1    3    3    0    0  0.58353357114E+00  0.55100634252E+01  0.57231754172E+01  0.79659304225E+01  0.51100000000E-03 0.  1.
         12    1    3    3    0    0  0.15842488089E+02  0.47317256586E+00  0.43668204342E+01  0.16440116844E+02  0.00000000000E+00 0. -1.
</event>
<event>
 7    1  0.5408841E-013  0.5052887E+02  0.7816164E-02  0.1300439E+00
        -11   -1    0    0    0    0  0.00000000000E+00  0.00000000000E+00  0.45593999997E+02  0.45594000000E+02  0.51100000000E-03 0. -1.
         11   -1    0    0    0    0 -0.00000000000E+00 -0.00000000000E+00 -0.45593999997E+02  0.45594000000E+02  0.51100000000E-03 0.  1.
    9900012    2    1    2    0    0 -0.37948197005E+02  0.12553249892E+02 -0.74508257916E+01  0.50528873795E+02  0.30000042388E+02 0.  0.
         12    1    1    2    0    0  0.37948197005E+02 -0.12553249892E+02  0.74508257916E+01  0.40659126205E+02  0.00000000000E+00 0. -1.
         11    1    3    3    0    0 -0.10164431019E+02  0.77336832368E+01 -0.12943867106E+02  0.18184312202E+02  0.51100000000E-03 0. -1.
        -11    1    3    3    0    0 -0.87103213228E+01  0.58055838545E+01 -0.37595314081E+01  0.11122435799E+02  0.51100000000E-03 0.  1.
         12    1    3    3    0    0 -0.19073444663E+02 -0.98601719893E+00  0.92525727227E+01  0.21222125794E+02  0.00000000000E+00 0. -1.
</event>
<event>
 7    1  0.5408841E-013  0.5052886E+02  0.7816164E-02  0.1300439E+00
        -11   -1    0    0    0    0  0.00000000000E+00  0.00000000000E+00  0.45593999997E+02  0.45594000000E+02  0.51100000000E-03 0. -1.
         11   -1    0    0    0    0 -0.00000000000E+00 -0.00000000000E+00 -0.45593999997E+02  0.45594000000E+02  0.51100000000E-03 0.  1.
    9900012    2    1    2    0    0  0.24608629592E+02  0.25407150453E+02 -0.20051386850E+02  0.50528855159E+02  0.29999985743E+02 0.  0.
         12    1    1    2    0    0 -0.24608629592E+02 -0.25407150453E+02  0.20051386850E+02  0.40659144841E+02  0.00000000000E+00 0. -1.
         11    1    3    3    0    0  0.14054121904E+02  0.17692542344E+02 -0.76605696049E+01  0.23858514707E+02  0.51100000000E-03 0. -1.
        -11    1    3    3    0    0  0.16927001722E+01  0.11845033240E+02 -0.15393866127E+01  0.12063985980E+02  0.51100000000E-03 0.  1.
        -12    1    3    3    0    0  0.88618075164E+01 -0.41304251304E+01 -0.10851430632E+02  0.14606354473E+02  0.00000000000E+00 0.  1.
</event>
<event>
 7    1  0.5408841E-013  0.5052885E+02  0.7816164E-02  0.1300439E+00
        -11   -1    0    0    0    0  0.00000000000E+00  0.00000000000E+00  0.45593999997E+02  0.45594000000E+02  0.51100000000E-03 0. -1.
         11   -1    0    0    0    0 -0.00000000000E+00 -0.00000000000E+00 -0.45593999997E+02  0.45594000000E+02  0.51100000000E-03 0.  1.
    9900012    2    1    2    0    0  0.40471347619E+02  0.28745841568E+01 -0.26406419852E+01  0.50528853399E+02  0.29999980392E+02 0.  0.
         12    1    1    2    0    0 -0.40471347619E+02 -0.28745841568E+01  0.26406419852E+01  0.40659146601E+02  0.00000000000E+00 0. -1.
         11    1    3    3    0    0  0.33491252890E+02  0.14528072160E+01  0.36127074499E+01  0.33716855197E+02  0.51100000000E-03 0. -1.
        -11    1    3    3    0    0  0.38364880972E+01 -0.62391916519E+01 -0.30032668081E+01  0.79161711181E+01  0.51100000000E-03 0.  1.
        -12    1    3    3    0    0  0.31436066318E+01  0.76609685926E+01 -0.32500826270E+01  0.88958270844E+01  0.00000000000E+00 0.  1.
</event>
<event>
 7    1  0.5408841E-013  0.5052886E+02  0.7816164E-02  0.1300439E+00
        -11   -1    0    0    0    0  0.00000000000E+00  0.00000000000E+00  0.45593999997E+02  0.45594000000E+02  0.51100000000E-03 0.  1.
         11   -1    0    0    0    0 -0.00000000000E+00 -0.00000000000E+00 -0.45593999997E+02  0.45594000000E+02  0.51100000000E-03 0. -1.
    9900012    2    1    2    0    0 -0.30273224513E+02 -0.77407613923E+01  0.26014956576E+02  0.50528862344E+02  0.30000007580E+02 0.  0.
         12    1    1    2    0    0  0.30273224513E+02  0.77407613923E+01 -0.26014956576E+02  0.40659137656E+02  0.00000000000E+00 0. -1.
         11    1    3    3    0    0 -0.27942074265E+02 -0.16029497922E+02  0.15322420775E+02  0.35671850198E+02  0.51100000000E-03 0. -1.
        -11    1    3    3    0    0 -0.72187705191E+00 -0.62408117989E+00  0.23779911322E+01  0.25623087018E+01  0.51100000000E-03 0.  1.
        -12    1    3    3    0    0 -0.16092731955E+01  0.89128177094E+01  0.83145446681E+01  0.12294703444E+02  0.00000000000E+00 0.  1.
</event>
<event>
 7    1  0.5408841E-013  0.5052875E+02  0.7816164E-02  0.1300439E+00
        -11   -1    0    0    0    0  0.00000000000E+00  0.00000000000E+00  0.45593999997E+02  0.45594000000E+02  0.51100000000E-03 0.  1.
         11   -1    0    0    0    0 -0.00000000000E+00 -0.00000000000E+00 -0.45593999997E+02  0.45594000000E+02  0.51100000000E-03 0. -1.
    9900012    2    1    2    0    0 -0.26160104401E+02 -0.25724966639E+02  0.17522822258E+02  0.50528754179E+02  0.29999678802E+02 0.  0.
         12    1    1    2    0    0  0.26160104401E+02  0.25724966639E+02 -0.17522822258E+02  0.40659245821E+02  0.00000000000E+00 0. -1.
         11    1    3    3    0    0 -0.47574964796E+01 -0.66370902673E+01  0.34884950574E+01  0.88799965088E+01  0.51100000000E-03 0. -1.
        -11    1    3    3    0    0 -0.21031660244E+02 -0.21582659744E+02  0.29481184422E+01  0.30279255883E+02  0.51100000000E-03 0.  1.
        -12    1    3    3    0    0 -0.37094767665E+00  0.24947833723E+01  0.11086208758E+02  0.11369501787E+02  0.00000000000E+00 0.  1.
</event>
<event>
 7    1  0.5408841E-013  0.5052886E+02  0.7816164E-02  0.1300439E+00
        -11   -1    0    0    0    0  0.00000000000E+00  0.00000000000E+00  0.45593999997E+02  0.45594000000E+02  0.51100000000E-03 0.  1.
         11   -1    0    0    0    0 -0.00000000000E+00 -0.00000000000E+00 -0.45593999997E+02  0.45594000000E+02  0.51100000000E-03 0. -1.
    9900012    2    1    2    0    0  0.76738257420E+01 -0.27557967699E+02  0.28893531718E+02  0.50528863753E+02  0.30000011864E+02 0.  0.
         12    1    1    2    0    0 -0.76738257420E+01  0.27557967699E+02 -0.28893531718E+02  0.40659136247E+02  0.00000000000E+00 0. -1.
         11    1    3    3    0    0  0.17268871642E+01  0.38485543629E+01  0.11988730650E+02  0.12709176717E+02  0.51100000000E-03 0. -1.
        -11    1    3    3    0    0 -0.96536613111E+00  0.56041179821E+00  0.72116188251E+00  0.13289348639E+01  0.51100000000E-03 0.  1.
         12    1    3    3    0    0  0.69123047089E+01 -0.31966933860E+02  0.16183639185E+02  0.36490752172E+02  0.00000000000E+00 0. -1.
</event>
<event>
 7    1  0.5408841E-013  0.5052887E+02  0.7816164E-02  0.1300439E+00
        -11   -1    0    0    0    0  0.00000000000E+00  0.00000000000E+00  0.45593999997E+02  0.45594000000E+02  0.51100000000E-03 0.  1.
         11   -1    0    0    0    0 -0.00000000000E+00 -0.00000000000E+00 -0.45593999997E+02  0.45594000000E+02  0.51100000000E-03 0. -1.
    9900012    2    1    2    0    0 -0.59497087648E+01  0.27979560612E+02  0.28894813838E+02  0.50528866793E+02  0.30000021103E+02 0.  0.
         12    1    1    2    0    0  0.59497087648E+01 -0.27979560612E+02 -0.28894813838E+02  0.40659133207E+02  0.00000000000E+00 0. -1.
         11    1    3    3    0    0 -0.58520351452E+01  0.87712059472E+01  0.36985711151E+01  0.11174068089E+02  0.51100000000E-03 0. -1.
        -11    1    3    3    0    0 -0.58464237124E+01 -0.13649917430E+01  0.14008896233E+02  0.15241162903E+02  0.51100000000E-03 0.  1.
        -12    1    3    3    0    0  0.57487500928E+01  0.20573346408E+02  0.11187346489E+02  0.24113635801E+02  0.00000000000E+00 0.  1.
</event>
<event>
 7    1  0.5408841E-013  0.5052884E+02  0.7816164E-02  0.1300439E+00
        -11   -1    0    0    0    0  0.00000000000E+00  0.00000000000E+00  0.45593999997E+02  0.45594000000E+02  0.51100000000E-03 0.  1.
         11   -1    0    0    0    0 -0.00000000000E+00 -0.00000000000E+00 -0.45593999997E+02  0.45594000000E+02  0.51100000000E-03 0. -1.
    9900012    2    1    2    0    0  0.24413193174E+02  0.80167162078E+01  0.31510249033E+02  0.50528837025E+02  0.29999930621E+02 0.  0.
         12    1    1    2    0    0 -0.24413193174E+02 -0.80167162078E+01 -0.31510249033E+02  0.40659162975E+02  0.00000000000E+00 0. -1.
         11    1    3    3    0    0  0.23412190821E+01 -0.89709921995E+01  0.13675262494E+02  0.16521888886E+02  0.51100000000E-03 0. -1.
        -11    1    3    3    0    0  0.85659167367E+00 -0.62887368492E+00  0.18483622159E+01  0.21320587584E+01  0.51100000000E-03 0.  1.
        -12    1    3    3    0    0  0.21215382419E+02  0.17616582092E+02  0.15986624323E+02  0.31874889381E+02  0.00000000000E+00 0.  1.
</event>
<event>
 7    1  0.5408841E-013  0.5052885E+02  0.7816164E-02  0.1300439E+00
        -11   -1    0    0    0    0  0.00000000000E+00  0.00000000000E+00  0.45593999997E+02  0.45594000000E+02  0.51100000000E-03 0. -1.
         11   -1    0    0    0    0 -0.00000000000E+00 -0.00000000000E+00 -0.45593999997E+02  0.45594000000E+02  0.51100000000E-03 0.  1.
    9900012    2    1    2    0    0  0.38021816828E+02  0.13944441453E+02 -0.36139134995E+01  0.50528851299E+02  0.29999974008E+02 0.  0.
         12    1    1    2    0    0 -0.38021816828E+02 -0.13944441453E+02  0.36139134995E+01  0.40659148701E+02  0.00000000000E+00 0. -1.
         11    1    3    3    0    0 -0.19363809792E+01  0.44459724875E+01 -0.27858937783E+01  0.55926243448E+01  0.51100000000E-03 0. -1.
        -11    1    3    3    0    0  0.21029562088E+02  0.44071543565E+00 -0.83693335827E+01  0.22638075373E+02  0.51100000000E-03 0.  1.
        -12    1    3    3    0    0  0.18928635719E+02  0.90577535295E+01  0.75413138615E+01  0.22298151581E+02  0.00000000000E+00 0.  1.
</event>
<event>
 7    1  0.5408841E-013  0.5052886E+02  0.7816164E-02  0.1300439E+00
        -11   -1    0    0    0    0  0.00000000000E+00  0.00000000000E+00  0.45593999997E+02  0.45594000000E+02  0.51100000000E-03 0.  1.
         11   -1    0    0    0    0 -0.00000000000E+00 -0.00000000000E+00 -0.45593999997E+02  0.45594000000E+02  0.51100000000E-03 0. -1.
    9900012    2    1    2    0    0 -0.14923808010E+02  0.37820898839E+02 -0.15899416385E+00  0.50528859408E+02  0.29999998657E+02 0.  0.
         12    1    1    2    0    0  0.14923808010E+02 -0.37820898839E+02  0.15899416385E+00  0.40659140592E+02  0.00000000000E+00 0. -1.
         11    1    3    3    0    0 -0.39752763382E-01 -0.25738626270E+01  0.32915899501E+01  0.41786258227E+01  0.51100000000E-03 0. -1.
        -11    1    3    3    0    0  0.20194367233E+01  0.50110231848E+00 -0.21670067322E+01  0.30041881851E+01  0.51100000000E-03 0.  1.
        -12    1    3    3    0    0 -0.16903491970E+02  0.39893659148E+02 -0.12835773817E+01  0.43346045400E+02  0.00000000000E+00 0.  1.
</event>
<event>
 7    1  0.5408841E-013  0.5052885E+02  0.7816164E-02  0.1300439E+00
        -11   -1    0    0    0    0  0.00000000000E+00  0.00000000000E+00  0.45593999997E+02  0.45594000000E+02  0.51100000000E-03 0.  1.
         11   -1    0    0    0    0 -0.00000000000E+00 -0.00000000000E+00 -0.45593999997E+02  0.45594000000E+02  0.51100000000E-03 0. -1.
    9900012    2    1    2    0    0  0.30418002433E+02 -0.26902633746E+02  0.20395280332E+01  0.50528852824E+02  0.29999978645E+02 0.  0.
         12    1    1    2    0    0 -0.30418002433E+02  0.26902633746E+02 -0.20395280332E+01  0.40659147176E+02  0.00000000000E+00 0. -1.
         11    1    3    3    0    0  0.57101657651E+01 -0.10565320334E+02 -0.10138763394E+02  0.15717077026E+02  0.51100000000E-03 0. -1.
        -11    1    3    3    0    0 -0.98808002941E+00  0.96084510161E+00 -0.31092489219E+00  0.14128694220E+01  0.51100000000E-03 0.  1.
        -12    1    3    3    0    0  0.25695916697E+02 -0.17298158513E+02  0.12489216319E+02  0.33398906376E+02  0.00000000000E+00 0.  1.
</event>
<event>
 7    1  0.5408841E-013  0.5052886E+02  0.7816164E-02  0.1300439E+00
        -11   -1    0    0    0    0  0.00000000000E+00  0.00000000000E+00  0.45593999997E+02  0.45594000000E+02  0.51100000000E-03 0.  1.
         11   -1    0    0    0    0 -0.00000000000E+00 -0.00000000000E+00 -0.45593999997E+02  0.45594000000E+02  0.51100000000E-03 0. -1.
    9900012    2    1    2    0    0  0.26981139667E+02  0.25665276716E+02  0.16324130577E+02  0.50528861227E+02  0.30000004186E+02 0.  0.
         12    1    1    2    0    0 -0.26981139667E+02 -0.25665276716E+02 -0.16324130577E+02  0.40659138773E+02  0.00000000000E+00 0. -1.
         11    1    3    3    0    0 -0.33075190501E+00  0.18402295680E+01 -0.28651573877E+00  0.18915425491E+01  0.51100000000E-03 0. -1.
        -11    1    3    3    0    0  0.15425746142E+02  0.83704112451E+01  0.22252475042E+02  0.28340608219E+02  0.51100000000E-03 0.  1.
        -12    1    3    3    0    0  0.11886145430E+02  0.15454635903E+02 -0.56418287263E+01  0.20296710459E+02  0.00000000000E+00 0.  1.
</event>
<event>
 7    1  0.5408841E-013  0.5052886E+02  0.7816164E-02  0.1300439E+00
        -11   -1    0    0    0    0  0.00000000000E+00  0.00000000000E+00  0.45593999997E+02  0.45594000000E+02  0.51100000000E-03 0.  1.
         11   -1    0    0    0    0 -0.00000000000E+00 -0.00000000000E+00 -0.45593999997E+02  0.45594000000E+02  0.51100000000E-03 0. -1.
    9900012    2    1    2    0    0  0.11087591758E+02  0.34933413017E+02  0.17603626463E+02  0.50528859568E+02  0.29999999143E+02 0.  0.
         12    1    1    2    0    0 -0.11087591758E+02 -0.34933413017E+02 -0.17603626463E+02  0.40659140432E+02  0.00000000000E+00 0. -1.
         11    1    3    3    0    0  0.67549413368E+01  0.17290418382E+02  0.12556932223E+02  0.22411254927E+02  0.51100000000E-03 0. -1.
        -11    1    3    3    0    0  0.39986680713E+01  0.11274111283E+02  0.13168808555E+02  0.17790796795E+02  0.51100000000E-03 0.  1.
         12    1    3    3    0    0  0.33398234989E+00  0.63688833519E+01 -0.81221143146E+01  0.10326807846E+02  0.00000000000E+00 0. -1.
</event>
<event>
 7    1  0.5408841E-013  0.5052886E+02  0.7816164E-02  0.1300439E+00
        -11   -1    0    0    0    0  0.00000000000E+00  0.00000000000E+00  0.45593999997E+02  0.45594000000E+02  0.51100000000E-03 0. -1.
         11   -1    0    0    0    0 -0.00000000000E+00 -0.00000000000E+00 -0.45593999997E+02  0.45594000000E+02  0.51100000000E-03 0.  1.
    9900012    2    1    2    0    0 -0.14797508542E+02  0.36541836638E+02 -0.99445381194E+01  0.50528856842E+02  0.29999990857E+02 0.  0.
         12    1    1    2    0    0  0.14797508542E+02 -0.36541836638E+02  0.99445381194E+01  0.40659143158E+02  0.00000000000E+00 0. -1.
         11    1    3    3    0    0 -0.47405035644E+01  0.85363188576E+01  0.79121233442E+01  0.12567529978E+02  0.51100000000E-03 0. -1.
        -11    1    3    3    0    0 -0.11495413384E+02  0.21360800481E+02 -0.71693155066E+01  0.25294809965E+02  0.51100000000E-03 0.  1.
        -12    1    3    3    0    0  0.14384084072E+01  0.66447172995E+01 -0.10687345957E+02  0.12666516898E+02  0.00000000000E+00 0.  1.
</event>
<event>
 7    1  0.5408841E-013  0.5052886E+02  0.7816164E-02  0.1300439E+00
        -11   -1    0    0    0    0  0.00000000000E+00  0.00000000000E+00  0.45593999997E+02  0.45594000000E+02  0.51100000000E-03 0. -1.
         11   -1    0    0    0    0 -0.00000000000E+00 -0.00000000000E+00 -0.45593999997E+02  0.45594000000E+02  0.51100000000E-03 0.  1.
    9900012    2    1    2    0    0  0.35777348370E+02  0.65270848362E+01 -0.18180867937E+02  0.50528862629E+02  0.30000008447E+02 0.  0.
         12    1    1    2    0    0 -0.35777348370E+02 -0.65270848362E+01  0.18180867937E+02  0.40659137371E+02  0.00000000000E+00 0. -1.
         11    1    3    3    0    0  0.39162437600E+01  0.53785112503E+01  0.38355195805E+01  0.76796197282E+01  0.51100000000E-03 0. -1.
        -11    1    3    3    0    0  0.12717713490E+02  0.79018990599E+01 -0.35069451111E+01  0.15377870771E+02  0.51100000000E-03 0.  1.
         12    1    3    3    0    0  0.19143391120E+02 -0.67533254740E+01 -0.18509442406E+02  0.27471372130E+02  0.00000000000E+00 0. -1.
</event>
<event>
 7    1  0.5408841E-013  0.5052885E+02  0.7816164E-02  0.1300439E+00
        -11   -1    0    0    0    0  0.00000000000E+00  0.00000000000E+00  0.45593999997E+02  0.45594000000E+02  0.51100000000E-03 0.  1.
         11   -1    0    0    0    0 -0.00000000000E+00 -0.00000000000E+00 -0.45593999997E+02  0.45594000000E+02  0.51100000000E-03 0. -1.
    9900012    2    1    2    0    0 -0.15434606476E+02 -0.97811833156E+01  0.36321730188E+02  0.50528847181E+02  0.29999961492E+02 0.  0.
         12    1    1    2    0    0  0.15434606476E+02  0.97811833156E+01 -0.36321730188E+02  0.40659152819E+02  0.00000000000E+00 0. -1.
         11    1    3    3    0    0 -0.69286006063E+01 -0.13873138958E+02  0.17358882052E+02  0.23276603645E+02  0.51100000000E-03 0. -1.
        -11    1    3    3    0    0 -0.48583195051E+01 -0.62466033327E+01  0.44988825069E+01  0.91029262154E+01  0.51100000000E-03 0.  1.
        -12    1    3    3    0    0 -0.36476863649E+01  0.10338558975E+02  0.14463965629E+02  0.18149317321E+02  0.00000000000E+00 0.  1.
</event>
<event>
 7    1  0.5408841E-013  0.5052887E+02  0.7816164E-02  0.1300439E+00
        -11   -1    0    0    0    0  0.00000000000E+00  0.00000000000E+00  0.45593999997E+02  0.45594000000E+02  0.51100000000E-03 0. -1.
         11   -1    0    0    0    0 -0.00000000000E+00 -0.00000000000E+00 -0.45593999997E+02  0.45594000000E+02  0.51100000000E-03 0.  1.
    9900012    2    1    2    0    0 -0.19541625743E+02  0.33289147686E+02 -0.12771921291E+02  0.50528874778E+02  0.30000045375E+02 0.  0.
         12    1    1    2    0    0  0.19541625743E+02 -0.33289147686E+02  0.12771921291E+02  0.40659125222E+02  0.00000000000E+00 0. -1.
         11    1    3    3    0    0  0.38951230207E+01  0.29981108124E+01 -0.21407157235E+01  0.53612793119E+01  0.51100000000E-03 0. -1.
        -11    1    3    3    0    0 -0.20774214234E+02  0.24706221404E+02 -0.16835130034E+02  0.36405864316E+02  0.51100000000E-03 0.  1.
         12    1    3    3    0    0 -0.26625345299E+01  0.55848154700E+01  0.62039244665E+01  0.87617311499E+01  0.00000000000E+00 0. -1.
</event>
<event>
 7    1  0.5408841E-013  0.5052886E+02  0.7816164E-02  0.1300439E+00
        -11   -1    0    0    0    0  0.00000000000E+00  0.00000000000E+00  0.45593999997E+02  0.45594000000E+02  0.51100000000E-03 0.  1.
         11   -1    0    0    0    0 -0.00000000000E+00 -0.00000000000E+00 -0.45593999997E+02  0.45594000000E+02  0.51100000000E-03 0. -1.
    9900012    2    1    2    0    0 -0.40340975780E+02 -0.43833690102E+01  0.25607564543E+01  0.50528859276E+02  0.29999998255E+02 0.  0.
         12    1    1    2    0    0  0.40340975780E+02  0.43833690102E+01 -0.25607564543E+01  0.40659140724E+02  0.00000000000E+00 0. -1.
         11    1    3    3    0    0 -0.50924224151E+01 -0.36820667734E+01 -0.13117559768E+01  0.64195861067E+01  0.51100000000E-03 0. -1.
        -11    1    3    3    0    0 -0.15752372004E+02 -0.56012995495E+01 -0.10187309686E+02  0.19577871674E+02  0.51100000000E-03 0.  1.
         12    1    3    3    0    0 -0.19496181362E+02  0.48999973127E+01  0.14059822117E+02  0.24531401495E+02  0.00000000000E+00 0. -1.
</event>
<event>
 7    1  0.5408841E-013  0.5052887E+02  0.7816164E-02  0.1300439E+00
        -11   -1    0    0    0    0  0.00000000000E+00  0.00000000000E+00  0.45593999997E+02  0.45594000000E+02  0.51100000000E-03 0. -1.
         11   -1    0    0    0    0 -0.00000000000E+00 -0.00000000000E+00 -0.45593999997E+02  0.45594000000E+02  0.51100000000E-03 0.  1.
    9900012    2    1    2    0    0 -0.21363907650E+02  0.32969550674E+02  0.10476484517E+02  0.50528873723E+02  0.30000042169E+02 0.  0.
         12    1    1    2    0    0  0.21363907650E+02 -0.32969550674E+02 -0.10476484517E+02  0.40659126277E+02  0.00000000000E+00 0. -1.
         11    1    3    3    0    0  0.25093922631E+01  0.47148061793E+01 -0.58763200201E+01  0.79408805606E+01  0.51100000000E-03 0.  1.
        -11    1    3    3    0    0 -0.14934024247E+02  0.10383073158E+02  0.27036121969E+01  0.18388659755E+02  0.51100000000E-03 0. -1.
        -12    1    3    3    0    0 -0.89392756666E+01  0.17871671337E+02  0.13649192340E+02  0.24199333407E+02  0.00000000000E+00 0.  1.
</event>
<event>
 7    1  0.5408841E-013  0.5052887E+02  0.7816164E-02  0.1300439E+00
        -11   -1    0    0    0    0  0.00000000000E+00  0.00000000000E+00  0.45593999997E+02  0.45594000000E+02  0.51100000000E-03 0. -1.
         11   -1    0    0    0    0 -0.00000000000E+00 -0.00000000000E+00 -0.45593999997E+02  0.45594000000E+02  0.51100000000E-03 0.  1.
    9900012    2    1    2    0    0  0.34211913542E+02  0.21730688045E+02 -0.32383801398E+01  0.50528868959E+02  0.30000027687E+02 0.  0.
         12    1    1    2    0    0 -0.34211913542E+02 -0.21730688045E+02  0.32383801398E+01  0.40659131041E+02  0.00000000000E+00 0. -1.
         11    1    3    3    0    0  0.11740651500E+01  0.87875260720E+00  0.54037158647E+01  0.55991767724E+01  0.51100000000E-03 0. -1.
        -11    1    3    3    0    0  0.45055505395E+01  0.12232332790E+02  0.21863398710E+01  0.13217792306E+02  0.51100000000E-03 0.  1.
        -12    1    3    3    0    0  0.28532297852E+02  0.86196026478E+01 -0.10828435875E+02  0.31711899881E+02  0.00000000000E+00 0.  1.
</event>
<event>
 7    1  0.5408841E-013  0.5052887E+02  0.7816164E-02  0.1300439E+00
        -11   -1    0    0    0    0  0.00000000000E+00  0.00000000000E+00  0.45593999997E+02  0.45594000000E+02  0.51100000000E-03 0.  1.
         11   -1    0    0    0    0 -0.00000000000E+00 -0.00000000000E+00 -0.45593999997E+02  0.45594000000E+02  0.51100000000E-03 0. -1.
    9900012    2    1    2    0    0  0.39911273723E+02  0.65028415035E+01  0.42388902318E+01  0.50528869313E+02  0.30000028765E+02 0.  0.
         12    1    1    2    0    0 -0.39911273723E+02 -0.65028415035E+01 -0.42388902318E+01  0.40659130687E+02  0.00000000000E+00 0. -1.
         11    1    3    3    0    0  0.87615474013E+01  0.56737540235E+00  0.40502714979E+01  0.96690913317E+01  0.51100000000E-03 0. -1.
        -11    1    3    3    0    0  0.11727181353E+02 -0.40939141005E+01  0.10892387973E+02  0.16520624418E+02  0.51100000000E-03 0.  1.
         12    1    3    3    0    0  0.19422544969E+02  0.10029380202E+02 -0.10703769239E+02  0.24339153564E+02  0.00000000000E+00 0. -1.
</event>
<event>
 7    1  0.5408841E-013  0.5052886E+02  0.7816164E-02  0.1300439E+00
        -11   -1    0    0    0    0  0.00000000000E+00  0.00000000000E+00  0.45593999997E+02  0.45594000000E+02  0.51100000000E-03 0.  1.
         11   -1    0    0    0    0 -0.00000000000E+00 -0.00000000000E+00 -0.45593999997E+02  0.45594000000E+02  0.51100000000E-03 0. -1.
    9900012    2    1    2    0    0 -0.31791372799E+01 -0.11071022897E+02  0.38993480264E+02  0.50528856318E+02  0.29999989264E+02 0.  0.
         12    1    1    2    0    0  0.31791372799E+01  0.11071022897E+02 -0.38993480264E+02  0.40659143682E+02  0.00000000000E+00 0. -1.
         11    1    3    3    0    0  0.20543213575E+01 -0.63914139457E+00  0.19644583308E+01  0.29133888784E+01  0.51100000000E-03 0. -1.
        -11    1    3    3    0    0  0.71223390614E+01 -0.14473262133E+02  0.14948560245E+02  0.21992327848E+02  0.51100000000E-03 0.  1.
         12    1    3    3    0    0 -0.12355797699E+02  0.40413806307E+01  0.22080461688E+02  0.25623139592E+02  0.00000000000E+00 0. -1.
</event>
<event>
 7    1  0.5408841E-013  0.5052886E+02  0.7816164E-02  0.1300439E+00
        -11   -1    0    0    0    0  0.00000000000E+00  0.00000000000E+00  0.45593999997E+02  0.45594000000E+02  0.51100000000E-03 0. -1.
         11   -1    0    0    0    0 -0.00000000000E+00 -0.00000000000E+00 -0.45593999997E+02  0.45594000000E+02  0.51100000000E-03 0.  1.
    9900012    2    1    2    0    0 -0.17493908856E+02  0.29902708491E+02 -0.21282787957E+02  0.50528857296E+02  0.29999992237E+02 0.  0.
         12    1    1    2    0    0  0.17493908856E+02 -0.29902708491E+02  0.21282787957E+02  0.40659142704E+02  0.00000000000E+00 0. -1.
         11    1    3    3    0    0  0.15941680240E+01 -0.65261738014E+00  0.22602527282E+00  0.17373453366E+01  0.51100000000E-03 0. -1.
        -11    1    3    3    0    0 -0.89040826157E+01  0.10106767795E+01  0.25901869690E+01  0.93280878842E+01  0.51100000000E-03 0.  1.
        -12    1    3    3    0    0 -0.10183994264E+02  0.29544649092E+02 -0.24099000199E+02  0.39463424075E+02  0.00000000000E+00 0.  1.
</event>
<event>
 7    1  0.5412335E-013  0.5052890E+02  0.7816164E-02  0.1300439E+00
        -11   -1    0    0    0    0  0.00000000000E+00  0.00000000000E+00  0.45593999997E+02  0.45594000000E+02  0.51100000000E-03 0. -1.
         11   -1    0    0    0    0 -0.00000000000E+00 -0.00000000000E+00 -0.45593999997E+02  0.45594000000E+02  0.51100000000E-03 0.  1.
    9900012    2    1    2    0    0 -0.34687362634E+02 -0.27782430913E+01 -0.21029281133E+02  0.50528899836E+02  0.30000121542E+02 0.  0.
         12    1    1    2    0    0  0.34687362634E+02  0.27782430913E+01  0.21029281133E+02  0.40659100164E+02  0.00000000000E+00 0. -1.
         11    1    3    3    0    0 -0.49230657189E+01 -0.21440316106E+01  0.31260561381E+01  0.62133465105E+01  0.51100000000E-03 0. -1.
        -11    1    3    3    0    0 -0.11047801049E+02  0.78451586870E+01 -0.13472097912E+01  0.13616732256E+02  0.51100000000E-03 0.  1.
        -12    1    3    3    0    0 -0.18716495866E+02 -0.84793701677E+01 -0.22808127480E+02  0.30698821070E+02  0.00000000000E+00 0.  1.
</event>
<event>
 7    1  0.5408841E-013  0.5052883E+02  0.7816164E-02  0.1300439E+00
        -11   -1    0    0    0    0  0.00000000000E+00  0.00000000000E+00  0.45593999997E+02  0.45594000000E+02  0.51100000000E-03 0.  1.
         11   -1    0    0    0    0 -0.00000000000E+00 -0.00000000000E+00 -0.45593999997E+02  0.45594000000E+02  0.51100000000E-03 0. -1.
    9900012    2    1    2    0    0  0.20890065521E+02  0.33417852713E+02  0.10001011205E+02  0.50528831999E+02  0.29999915343E+02 0.  0.
         12    1    1    2    0    0 -0.20890065521E+02 -0.33417852713E+02 -0.10001011205E+02  0.40659168001E+02  0.00000000000E+00 0. -1.
         11    1    3    3    0    0  0.79935443353E+01  0.25005640805E+01  0.12093155528E+02  0.14710335912E+02  0.51100000000E-03 0. -1.
        -11    1    3    3    0    0  0.12175413717E+02  0.14351101735E+02  0.14029382471E+01  0.18872282749E+02  0.51100000000E-03 0.  1.
        -12    1    3    3    0    0  0.72110746845E+00  0.16566186898E+02 -0.34950825694E+01  0.16946213338E+02  0.00000000000E+00 0.  1.
</event>
<event>
 7    1  0.5408841E-013  0.5052885E+02  0.7816164E-02  0.1300439E+00
        -11   -1    0    0    0    0  0.00000000000E+00  0.00000000000E+00  0.45593999997E+02  0.45594000000E+02  0.51100000000E-03 0.  1.
         11   -1    0    0    0    0 -0.00000000000E+00 -0.00000000000E+00 -0.45593999997E+02  0.45594000000E+02  0.51100000000E-03 0. -1.
    9900012    2    1    2    0    0 -0.27746475963E+02  0.75763791634E+01  0.28738442162E+02  0.50528849646E+02  0.29999968985E+02 0.  0.
         12    1    1    2    0    0  0.27746475963E+02 -0.75763791634E+01 -0.28738442162E+02  0.40659150354E+02  0.00000000000E+00 0. -1.
         11    1    3    3    0    0 -0.59962431915E+00 -0.46873013397E+01  0.27575609204E+01  0.54712416930E+01  0.51100000000E-03 0. -1.
        -11    1    3    3    0    0  0.98169618961E-01 -0.36237647456E+01  0.79278710616E+01  0.87173647415E+01  0.51100000000E-03 0.  1.
        -12    1    3    3    0    0 -0.27245021263E+02  0.15887445249E+02  0.18053010180E+02  0.36340243212E+02  0.00000000000E+00 0.  1.
</event>
<event>
 7    1  0.5408841E-013  0.5052886E+02  0.7816164E-02  0.1300439E+00
        -11   -1    0    0    0    0  0.00000000000E+00  0.00000000000E+00  0.45593999997E+02  0.45594000000E+02  0.51100000000E-03 0.  1.
         11   -1    0    0    0    0 -0.00000000000E+00 -0.00000000000E+00 -0.45593999997E+02  0.45594000000E+02  0.51100000000E-03 0. -1.
    9900012    2    1    2    0    0  0.90326602188E+01  0.34645886684E+02  0.19267572584E+02  0.50528858739E+02  0.29999996624E+02 0.  0.
         12    1    1    2    0    0 -0.90326602188E+01 -0.34645886684E+02 -0.19267572584E+02  0.40659141261E+02  0.00000000000E+00 0. -1.
         11    1    3    3    0    0  0.12723669421E+02  0.31126443930E+02  0.82758032605E+01  0.34629989823E+02  0.51100000000E-03 0. -1.
        -11    1    3    3    0    0 -0.42533074366E+01  0.60417826605E+01  0.39083568490E+01  0.83587687722E+01  0.51100000000E-03 0.  1.
        -12    1    3    3    0    0  0.56229823429E+00 -0.25223399060E+01  0.70834124746E+01  0.75401001446E+01  0.00000000000E+00 0.  1.
</event>
<event>
 7    1  0.5408841E-013  0.5052886E+02  0.7816164E-02  0.1300439E+00
        -11   -1    0    0    0    0  0.00000000000E+00  0.00000000000E+00  0.45593999997E+02  0.45594000000E+02  0.51100000000E-03 0.  1.
         11   -1    0    0    0    0 -0.00000000000E+00 -0.00000000000E+00 -0.45593999997E+02  0.45594000000E+02  0.51100000000E-03 0. -1.
    9900012    2    1    2    0    0 -0.10721919412E+02 -0.21359154746E+02  0.32893657853E+02  0.50528858663E+02  0.29999996391E+02 0.  0.
         12    1    1    2    0    0  0.10721919412E+02  0.21359154746E+02 -0.32893657853E+02  0.40659141337E+02  0.00000000000E+00 0. -1.
         11    1    3    3    0    0  0.25477913947E+01  0.45657370404E+01 -0.12912884290E+00  0.52300927556E+01  0.51100000000E-03 0. -1.
        -11    1    3    3    0    0 -0.95846478743E-01 -0.40908144471E+00 -0.81598462715E+00  0.91780463539E+00  0.51100000000E-03 0.  1.
        -12    1    3    3    0    0 -0.13173864328E+02 -0.25515810342E+02  0.33838771323E+02  0.44380961272E+02  0.00000000000E+00 0.  1.
</event>
<event>
 7    1  0.5408841E-013  0.5052887E+02  0.7816164E-02  0.1300439E+00
        -11   -1    0    0    0    0  0.00000000000E+00  0.00000000000E+00  0.45593999997E+02  0.45594000000E+02  0.51100000000E-03 0. -1.
         11   -1    0    0    0    0 -0.00000000000E+00 -0.00000000000E+00 -0.45593999997E+02  0.45594000000E+02  0.51100000000E-03 0.  1.
    9900012    2    1    2    0    0 -0.48616620140E+01  0.17099735146E+02 -0.36566762618E+02  0.50528870300E+02  0.30000031764E+02 0.  0.
         12    1    1    2    0    0  0.48616620140E+01 -0.17099735146E+02  0.36566762618E+02  0.40659129700E+02  0.00000000000E+00 0. -1.
         11    1    3    3    0    0 -0.13547843413E+01  0.15319399225E+01 -0.35010495717E+01  0.40545812240E+01  0.51100000000E-03 0. -1.
        -11    1    3    3    0    0 -0.76948470125E+00  0.23361876948E+02 -0.29058147428E+02  0.37292698125E+02  0.51100000000E-03 0.  1.
         12    1    3    3    0    0 -0.27373929714E+01 -0.77940817244E+01 -0.40075656179E+01  0.91815909508E+01  0.00000000000E+00 0. -1.
</event>
<event>
 7    1  0.5408841E-013  0.5052886E+02  0.7816164E-02  0.1300439E+00
        -11   -1    0    0    0    0  0.00000000000E+00  0.00000000000E+00  0.45593999997E+02  0.45594000000E+02  0.51100000000E-03 0.  1.
         11   -1    0    0    0    0 -0.00000000000E+00 -0.00000000000E+00 -0.45593999997E+02  0.45594000000E+02  0.51100000000E-03 0. -1.
    9900012    2    1    2    0    0 -0.16371531227E+02  0.23688803181E+02  0.28705034520E+02  0.50528862803E+02  0.30000008975E+02 0.  0.
         12    1    1    2    0    0  0.16371531227E+02 -0.23688803181E+02 -0.28705034520E+02  0.40659137197E+02  0.00000000000E+00 0. -1.
         11    1    3    3    0    0 -0.75280893766E+01 -0.36980602806E+00 -0.12126109393E+01  0.76340887938E+01  0.51100000000E-03 0. -1.
        -11    1    3    3    0    0 -0.37661585220E+01  0.88736071792E+01  0.80962048323E+00  0.96736931919E+01  0.51100000000E-03 0.  1.
        -12    1    3    3    0    0 -0.50772833281E+01  0.15185002030E+02  0.29108024976E+02  0.33221080817E+02  0.00000000000E+00 0.  1.
</event>
<event>
 7    1  0.5408841E-013  0.5052886E+02  0.7816164E-02  0.1300439E+00
        -11   -1    0    0    0    0  0.00000000000E+00  0.00000000000E+00  0.45593999997E+02  0.45594000000E+02  0.51100000000E-03 0.  1.
         11   -1    0    0    0    0 -0.00000000000E+00 -0.00000000000E+00 -0.45593999997E+02  0.45594000000E+02  0.51100000000E-03 0. -1.
    9900012    2    1    2    0    0  0.15749545405E+02  0.26703523446E+02  0.26306644125E+02  0.50528857485E+02  0.29999992812E+02 0.  0.
         12    1    1    2    0    0 -0.15749545405E+02 -0.26703523446E+02 -0.26306644125E+02  0.40659142515E+02  0.00000000000E+00 0. -1.
         11    1    3    3    0    0  0.12027016522E+02  0.59056274457E+01  0.12954917280E+02  0.18637474184E+02  0.51100000000E-03 0. -1.
        -11    1    3    3    0    0  0.59438081573E+01  0.11939059867E+02 -0.25263896979E+01  0.13573969614E+02  0.51100000000E-03 0.  1.
        -12    1    3    3    0    0 -0.22212792743E+01  0.88588361335E+01  0.15878116543E+02  0.18317413688E+02  0.00000000000E+00 0.  1.
</event>
<event>
 7    1  0.5408841E-013  0.5052885E+02  0.7816164E-02  0.1300439E+00
        -11   -1    0    0    0    0  0.00000000000E+00  0.00000000000E+00  0.45593999997E+02  0.45594000000E+02  0.51100000000E-03 0. -1.
         11   -1    0    0    0    0 -0.00000000000E+00 -0.00000000000E+00 -0.45593999997E+02  0.45594000000E+02  0.51100000000E-03 0.  1.
    9900012    2    1    2    0    0  0.32169428517E+01  0.27824089489E+02 -0.29472655301E+02  0.50528854809E+02  0.29999984678E+02 0.  0.
         12    1    1    2    0    0 -0.32169428517E+01 -0.27824089489E+02  0.29472655301E+02  0.40659145191E+02  0.00000000000E+00 0. -1.
         11    1    3    3    0    0  0.96441842253E+01  0.18226206711E+02 -0.23132846868E+02  0.30989248215E+02  0.51100000000E-03 0. -1.
        -11    1    3    3    0    0 -0.27726912641E+01  0.12456652014E+02 -0.74388751047E+01  0.14771352658E+02  0.51100000000E-03 0.  1.
         12    1    3    3    0    0 -0.36545501096E+01 -0.28587692365E+01  0.10990666723E+01  0.47682539363E+01  0.00000000000E+00 0. -1.
</event>
<event>
 7    1  0.5408841E-013  0.5052886E+02  0.7816164E-02  0.1300439E+00
        -11   -1    0    0    0    0  0.00000000000E+00  0.00000000000E+00  0.45593999997E+02  0.45594000000E+02  0.51100000000E-03 0.  1.
         11   -1    0    0    0    0 -0.00000000000E+00 -0.00000000000E+00 -0.45593999997E+02  0.45594000000E+02  0.51100000000E-03 0. -1.
    9900012    2    1    2    0    0  0.22303748648E+02  0.31246837088E+02  0.13391931208E+02  0.50528857692E+02  0.29999993440E+02 0.  0.
         12    1    1    2    0    0 -0.22303748648E+02 -0.31246837088E+02 -0.13391931208E+02  0.40659142308E+02  0.00000000000E+00 0. -1.
         11    1    3    3    0    0 -0.21429716485E+01 -0.19728674473E+00 -0.31258363749E+01  0.37950102569E+01  0.51100000000E-03 0. -1.
        -11    1    3    3    0    0  0.13909026232E+02  0.18929239858E+02  0.18966476100E+02  0.30191130291E+02  0.51100000000E-03 0.  1.
         12    1    3    3    0    0  0.10537694064E+02  0.12514883975E+02 -0.24487085171E+01  0.16542717144E+02  0.00000000000E+00 0. -1.
</event>
<event>
 7    1  0.5408841E-013  0.5052887E+02  0.7816164E-02  0.1300439E+00
        -11   -1    0    0    0    0  0.00000000000E+00  0.00000000000E+00  0.45593999997E+02  0.45594000000E+02  0.51100000000E-03 0.  1.
         11   -1    0    0    0    0 -0.00000000000E+00 -0.00000000000E+00 -0.45593999997E+02  0.45594000000E+02  0.51100000000E-03 0. -1.
    9900012    2    1    2    0    0 -0.17884693202E+02  0.36460329765E+02 -0.19867436234E+01  0.50528867598E+02  0.30000023549E+02 0.  0.
         12    1    1    2    0    0  0.17884693202E+02 -0.36460329765E+02  0.19867436234E+01  0.40659132402E+02  0.00000000000E+00 0. -1.
         11    1    3    3    0    0 -0.96692252092E+01  0.14775007286E+02 -0.76871293424E+01  0.19258419308E+02  0.51100000000E-03 0.  1.
        -11    1    3    3    0    0  0.24127129133E+01  0.13696053718E+02  0.10185799624E+02  0.17238143326E+02  0.51100000000E-03 0. -1.
         12    1    3    3    0    0 -0.10628180906E+02  0.79892687603E+01 -0.44854139055E+01  0.14032304964E+02  0.00000000000E+00 0. -1.
</event>
<event>
 7    1  0.5408841E-013  0.5052886E+02  0.7816164E-02  0.1300439E+00
        -11   -1    0    0    0    0  0.00000000000E+00  0.00000000000E+00  0.45593999997E+02  0.45594000000E+02  0.51100000000E-03 0.  1.
         11   -1    0    0    0    0 -0.00000000000E+00 -0.00000000000E+00 -0.45593999997E+02  0.45594000000E+02  0.51100000000E-03 0. -1.
    9900012    2    1    2    0    0  0.32103970522E+01 -0.17486604876E+02  0.36566068287E+02  0.50528863889E+02  0.30000012276E+02 0.  0.
         12    1    1    2    0    0 -0.32103970522E+01  0.17486604876E+02 -0.36566068287E+02  0.40659136111E+02  0.00000000000E+00 0. -1.
         11    1    3    3    0    0 -0.48411492599E+01 -0.55383734469E+01  0.17202704063E+01  0.75544448589E+01  0.51100000000E-03 0. -1.
        -11    1    3    3    0    0 -0.56261086827E+01 -0.17292395386E+01  0.24913555036E+01  0.63914177455E+01  0.51100000000E-03 0.  1.
         12    1    3    3    0    0  0.13677654995E+02 -0.10218991891E+02  0.32354442377E+02  0.36583001284E+02  0.00000000000E+00 0. -1.
</event>
<event>
 7    1  0.5408841E-013  0.5052886E+02  0.7816164E-02  0.1300439E+00
        -11   -1    0    0    0    0  0.00000000000E+00  0.00000000000E+00  0.45593999997E+02  0.45594000000E+02  0.51100000000E-03 0. -1.
         11   -1    0    0    0    0 -0.00000000000E+00 -0.00000000000E+00 -0.45593999997E+02  0.45594000000E+02  0.51100000000E-03 0.  1.
    9900012    2    1    2    0    0  0.21318781902E+02 -0.24157333299E+02  0.24801176814E+02  0.50528860987E+02  0.30000003456E+02 0.  0.
         12    1    1    2    0    0 -0.21318781902E+02  0.24157333299E+02 -0.24801176814E+02  0.40659139013E+02  0.00000000000E+00 0. -1.
         11    1    3    3    0    0  0.14101986099E+02 -0.14755371989E+02  0.80755615479E+01  0.21949981983E+02  0.51100000000E-03 0. -1.
        -11    1    3    3    0    0 -0.18320060753E+01 -0.74082050046E+01 -0.18217516433E+01  0.78457967703E+01  0.51100000000E-03 0.  1.
         12    1    3    3    0    0  0.90488018785E+01 -0.19937563056E+01  0.18547366909E+02  0.20733082234E+02  0.00000000000E+00 0. -1.
</event>
<event>
 7    1  0.5408841E-013  0.5052886E+02  0.7816164E-02  0.1300439E+00
        -11   -1    0    0    0    0  0.00000000000E+00  0.00000000000E+00  0.45593999997E+02  0.45594000000E+02  0.51100000000E-03 0.  1.
         11   -1    0    0    0    0 -0.00000000000E+00 -0.00000000000E+00 -0.45593999997E+02  0.45594000000E+02  0.51100000000E-03 0. -1.
    9900012    2    1    2    0    0  0.24350376519E+02  0.73645637818E+01  0.31717317960E+02  0.50528857180E+02  0.29999991884E+02 0.  0.
         12    1    1    2    0    0 -0.24350376519E+02 -0.73645637818E+01 -0.31717317960E+02  0.40659142820E+02  0.00000000000E+00 0. -1.
         11    1    3    3    0    0  0.17186318298E+02  0.28751151133E+01  0.46826108945E+01  0.18043355248E+02  0.51100000000E-03 0. -1.
        -11    1    3    3    0    0  0.89473333196E+01 -0.16595063200E+00  0.57781971702E+01  0.10652223991E+02  0.51100000000E-03 0.  1.
        -12    1    3    3    0    0 -0.17832750990E+01  0.46553993005E+01  0.21256509895E+02  0.21833277941E+02  0.00000000000E+00 0.  1.
</event>
<event>
 7    1  0.5408841E-013  0.5052887E+02  0.7816164E-02  0.1300439E+00
        -11   -1    0    0    0    0  0.00000000000E+00  0.00000000000E+00  0.45593999997E+02  0.45594000000E+02  0.51100000000E-03 0.  1.
         11   -1    0    0    0    0 -0.00000000000E+00 -0.00000000000E+00 -0.45593999997E+02  0.45594000000E+02  0.51100000000E-03 0. -1.
    9900012    2    1    2    0    0  0.11565608416E+02  0.31473000247E+02  0.22996779579E+02  0.50528869247E+02  0.30000028564E+02 0.  0.
         12    1    1    2    0    0 -0.11565608416E+02 -0.31473000247E+02 -0.22996779579E+02  0.40659130753E+02  0.00000000000E+00 0. -1.
         11    1    3    3    0    0 -0.50810210194E+00  0.18451309686E+01 -0.33061526089E+01  0.38201205965E+01  0.51100000000E-03 0. -1.
        -11    1    3    3    0    0  0.14795993177E+02  0.18416184066E+02  0.77526305009E+01  0.24863236507E+02  0.51100000000E-03 0.  1.
         12    1    3    3    0    0 -0.27222826584E+01  0.11211685212E+02  0.18550301687E+02  0.21845512144E+02  0.00000000000E+00 0. -1.
</event>
<event>
 7    1  0.5408841E-013  0.5052885E+02  0.7816164E-02  0.1300439E+00
        -11   -1    0    0    0    0  0.00000000000E+00  0.00000000000E+00  0.45593999997E+02  0.45594000000E+02  0.51100000000E-03 0.  1.
         11   -1    0    0    0    0 -0.00000000000E+00 -0.00000000000E+00 -0.45593999997E+02  0.45594000000E+02  0.51100000000E-03 0. -1.
    9900012    2    1    2    0    0 -0.10420977047E+02 -0.11665593460E+02  0.37529770053E+02  0.50528850062E+02  0.29999970249E+02 0.  0.
         12    1    1    2    0    0  0.10420977047E+02  0.11665593460E+02 -0.37529770053E+02  0.40659149938E+02  0.00000000000E+00 0. -1.
         11    1    3    3    0    0 -0.10240267148E+02  0.69855476353E+00  0.18759047569E+02  0.21383472963E+02  0.51100000000E-03 0.  1.
        -11    1    3    3    0    0  0.31473040781E+01 -0.17473144389E+00  0.15871467450E+02  0.16181456464E+02  0.51100000000E-03 0. -1.
         12    1    3    3    0    0 -0.33280139767E+01 -0.12189416780E+02  0.28992550351E+01  0.12963920635E+02  0.00000000000E+00 0. -1.
</event>
<event>
 7    1  0.5408841E-013  0.5052887E+02  0.7816164E-02  0.1300439E+00
        -11   -1    0    0    0    0  0.00000000000E+00  0.00000000000E+00  0.45593999997E+02  0.45594000000E+02  0.51100000000E-03 0.  1.
         11   -1    0    0    0    0 -0.00000000000E+00 -0.00000000000E+00 -0.45593999997E+02  0.45594000000E+02  0.51100000000E-03 0. -1.
    9900012    2    1    2    0    0 -0.32300206617E+02  0.47103212092E-01  0.24695336502E+02  0.50528865588E+02  0.30000017440E+02 0.  0.
         12    1    1    2    0    0  0.32300206617E+02 -0.47103212092E-01 -0.24695336502E+02  0.40659134412E+02  0.00000000000E+00 0. -1.
         11    1    3    3    0    0  0.18449418228E+01 -0.53553086631E+01  0.24760993813E+01  0.61817642800E+01  0.51100000000E-03 0. -1.
        -11    1    3    3    0    0 -0.10520620374E+02 -0.59958338847E+01  0.60899466855E+01  0.13554369329E+02  0.51100000000E-03 0.  1.
         12    1    3    3    0    0 -0.23624528066E+02  0.11398245760E+02  0.16129290436E+02  0.30792731979E+02  0.00000000000E+00 0. -1.
</event>
<event>
 7    1  0.5408841E-013  0.5052885E+02  0.7816164E-02  0.1300439E+00
        -11   -1    0    0    0    0  0.00000000000E+00  0.00000000000E+00  0.45593999997E+02  0.45594000000E+02  0.51100000000E-03 0. -1.
         11   -1    0    0    0    0 -0.00000000000E+00 -0.00000000000E+00 -0.45593999997E+02  0.45594000000E+02  0.51100000000E-03 0.  1.
    9900012    2    1    2    0    0 -0.79978446342E+01 -0.31685948084E+02  0.24190934305E+02  0.50528854321E+02  0.29999983195E+02 0.  0.
         12    1    1    2    0    0  0.79978446342E+01  0.31685948084E+02 -0.24190934305E+02  0.40659145679E+02  0.00000000000E+00 0. -1.
         11    1    3    3    0    0 -0.76904897644E+00  0.31622284514E+01  0.91997442479E+01  0.97584025125E+01  0.51100000000E-03 0. -1.
        -11    1    3    3    0    0 -0.86020501666E+01 -0.10738368203E+02  0.50790280699E+01  0.14666436007E+02  0.51100000000E-03 0.  1.
        -12    1    3    3    0    0  0.13732545088E+01 -0.24109808332E+02  0.99121619871E+01  0.26104015802E+02  0.00000000000E+00 0.  1.
</event>
<event>
 7    1  0.5408841E-013  0.5052886E+02  0.7816164E-02  0.1300439E+00
        -11   -1    0    0    0    0  0.00000000000E+00  0.00000000000E+00  0.45593999997E+02  0.45594000000E+02  0.51100000000E-03 0.  1.
         11   -1    0    0    0    0 -0.00000000000E+00 -0.00000000000E+00 -0.45593999997E+02  0.45594000000E+02  0.51100000000E-03 0. -1.
    9900012    2    1    2    0    0 -0.13066587185E+02  0.37342690584E+02 -0.93783656064E+01  0.50528856106E+02  0.29999988620E+02 0.  0.
         12    1    1    2    0    0  0.13066587185E+02 -0.37342690584E+02  0.93783656064E+01  0.40659143894E+02  0.00000000000E+00 0. -1.
         11    1    3    3    0    0 -0.53162113161E+01  0.26797984145E+02 -0.87693156769E-01  0.27320354085E+02  0.51100000000E-03 0. -1.
        -11    1    3    3    0    0 -0.20542406025E+00  0.13248380556E+02 -0.55982039949E+01  0.14384077122E+02  0.51100000000E-03 0.  1.
         12    1    3    3    0    0 -0.75449518082E+01 -0.27036741166E+01 -0.36924684548E+01  0.88244248995E+01  0.00000000000E+00 0. -1.
</event>
<event>
 7    1  0.5408841E-013  0.5052885E+02  0.7816164E-02  0.1300439E+00
        -11   -1    0    0    0    0  0.00000000000E+00  0.00000000000E+00  0.45593999997E+02  0.45594000000E+02  0.51100000000E-03 0. -1.
         11   -1    0    0    0    0 -0.00000000000E+00 -0.00000000000E+00 -0.45593999997E+02  0.45594000000E+02  0.51100000000E-03 0.  1.
    9900012    2    1    2    0    0  0.10738852830E+02 -0.21391302980E+02 -0.32867237637E+02  0.50528854495E+02  0.29999983723E+02 0.  0.
         12    1    1    2    0    0 -0.10738852830E+02  0.21391302980E+02  0.32867237637E+02  0.40659145505E+02  0.00000000000E+00 0. -1.
         11    1    3    3    0    0  0.86921392830E+01 -0.14583279433E+01 -0.18652949839E+01  0.90088473927E+01  0.51100000000E-03 0. -1.
        -11    1    3    3    0    0  0.91872641100E+01 -0.42383995157E+01 -0.14276123188E+02  0.17497929758E+02  0.51100000000E-03 0.  1.
         12    1    3    3    0    0 -0.71405505633E+01 -0.15694575521E+02 -0.16725819466E+02  0.24022077344E+02  0.00000000000E+00 0. -1.
</event>
<event>
 7    1  0.5408841E-013  0.5052886E+02  0.7816164E-02  0.1300439E+00
        -11   -1    0    0    0    0  0.00000000000E+00  0.00000000000E+00  0.45593999997E+02  0.45594000000E+02  0.51100000000E-03 0. -1.
         11   -1    0    0    0    0 -0.00000000000E+00 -0.00000000000E+00 -0.45593999997E+02  0.45594000000E+02  0.51100000000E-03 0.  1.
    9900012    2    1    2    0    0  0.15268423316E+02  0.18009080439E+02 -0.33101566194E+02  0.50528863102E+02  0.30000009884E+02 0.  0.
         12    1    1    2    0    0 -0.15268423316E+02 -0.18009080439E+02  0.33101566194E+02  0.40659136898E+02  0.00000000000E+00 0. -1.
         11    1    3    3    0    0  0.41491335376E+01 -0.35000712411E+01 -0.18363296079E+02  0.19148797637E+02  0.51100000000E-03 0. -1.
        -11    1    3    3    0    0  0.29347919317E+01 -0.13511241197E+01 -0.61109379462E+00  0.32881569239E+01  0.51100000000E-03 0.  1.
         12    1    3    3    0    0  0.81844978465E+01  0.22860275800E+02 -0.14127176320E+02  0.28091908540E+02  0.00000000000E+00 0. -1.
</event>
<event>
 7    1  0.5408841E-013  0.5052886E+02  0.7816164E-02  0.1300439E+00
        -11   -1    0    0    0    0  0.00000000000E+00  0.00000000000E+00  0.45593999997E+02  0.45594000000E+02  0.51100000000E-03 0.  1.
         11   -1    0    0    0    0 -0.00000000000E+00 -0.00000000000E+00 -0.45593999997E+02  0.45594000000E+02  0.51100000000E-03 0. -1.
    9900012    2    1    2    0    0  0.13377626171E+02 -0.27142258900E+02  0.27156996193E+02  0.50528861514E+02  0.30000005059E+02 0.  0.
         12    1    1    2    0    0 -0.13377626171E+02  0.27142258900E+02 -0.27156996193E+02  0.40659138486E+02  0.00000000000E+00 0. -1.
         11    1    3    3    0    0  0.95060925957E+00 -0.61155134512E+00 -0.14389572133E+01  0.18298227059E+01  0.51100000000E-03 0. -1.
        -11    1    3    3    0    0 -0.55635973873E+01  0.96418775011E+00  0.84305728556E+01  0.10146813926E+02  0.51100000000E-03 0.  1.
        -12    1    3    3    0    0  0.17990614299E+02 -0.27494895305E+02  0.20165380551E+02  0.38552224883E+02  0.00000000000E+00 0.  1.
</event>
<event>
 7    1  0.5408841E-013  0.5052881E+02  0.7816164E-02  0.1300439E+00
        -11   -1    0    0    0    0  0.00000000000E+00  0.00000000000E+00  0.45593999997E+02  0.45594000000E+02  0.51100000000E-03 0.  1.
         11   -1    0    0    0    0 -0.00000000000E+00 -0.00000000000E+00 -0.45593999997E+02  0.45594000000E+02  0.51100000000E-03 0. -1.
    9900012    2    1    2    0    0  0.18468515452E+02  0.23642546199E+02  0.27442920414E+02  0.50528807501E+02  0.29999840880E+02 0.  0.
         12    1    1    2    0    0 -0.18468515452E+02 -0.23642546199E+02 -0.27442920414E+02  0.40659192499E+02  0.00000000000E+00 0. -1.
         11    1    3    3    0    0  0.89584473035E+00  0.70378451886E+01  0.64663054273E+01  0.95993181435E+01  0.51100000000E-03 0. -1.
        -11    1    3    3    0    0  0.75813683885E+01  0.70641048429E+01  0.24560797650E+02  0.26657297413E+02  0.51100000000E-03 0.  1.
         12    1    3    3    0    0  0.99913023335E+01  0.95405961678E+01 -0.35841826634E+01  0.14272191945E+02  0.00000000000E+00 0. -1.
</event>
<event>
 7    1  0.5408841E-013  0.5052886E+02  0.7816164E-02  0.1300439E+00
        -11   -1    0    0    0    0  0.00000000000E+00  0.00000000000E+00  0.45593999997E+02  0.45594000000E+02  0.51100000000E-03 0.  1.
         11   -1    0    0    0    0 -0.00000000000E+00 -0.00000000000E+00 -0.45593999997E+02  0.45594000000E+02  0.51100000000E-03 0. -1.
    9900012    2    1    2    0    0  0.82322683413E+01  0.84079617334E+01  0.38919171274E+02  0.50528856437E+02  0.29999989627E+02 0.  0.
         12    1    1    2    0    0 -0.82322683413E+01 -0.84079617334E+01 -0.38919171274E+02  0.40659143563E+02  0.00000000000E+00 0. -1.
         11    1    3    3    0    0 -0.66187712320E+01 -0.40565547947E+01  0.83656948432E+01  0.11412651747E+02  0.51100000000E-03 0. -1.
        -11    1    3    3    0    0 -0.18172970125E+01 -0.16196155648E+01  0.18395076240E+01  0.30511492211E+01  0.51100000000E-03 0.  1.
         12    1    3    3    0    0  0.16668336586E+02  0.14084132093E+02  0.28713968807E+02  0.36065055469E+02  0.00000000000E+00 0. -1.
</event>
<event>
 7    1  0.5408841E-013  0.5052886E+02  0.7816164E-02  0.1300439E+00
        -11   -1    0    0    0    0  0.00000000000E+00  0.00000000000E+00  0.45593999997E+02  0.45594000000E+02  0.51100000000E-03 0.  1.
         11   -1    0    0    0    0 -0.00000000000E+00 -0.00000000000E+00 -0.45593999997E+02  0.45594000000E+02  0.51100000000E-03 0. -1.
    9900012    2    1    2    0    0  0.13341705345E+02 -0.30149831270E+02  0.23793954178E+02  0.50528859791E+02  0.29999999821E+02 0.  0.
         12    1    1    2    0    0 -0.13341705345E+02  0.30149831270E+02 -0.23793954178E+02  0.40659140209E+02  0.00000000000E+00 0. -1.
         11    1    3    3    0    0  0.76356668355E+01 -0.28098367800E+01 -0.15587464748E+01  0.82842188278E+01  0.51100000000E-03 0. -1.
        -11    1    3    3    0    0 -0.20817073029E+01  0.16274482663E+01 -0.44672037494E+00  0.26798605391E+01  0.51100000000E-03 0.  1.
        -12    1    3    3    0    0  0.77877458121E+01 -0.28967442756E+02  0.25799421027E+02  0.39564780424E+02  0.00000000000E+00 0.  1.
</event>
<event>
 7    1  0.5408841E-013  0.5052889E+02  0.7816164E-02  0.1300439E+00
        -11   -1    0    0    0    0  0.00000000000E+00  0.00000000000E+00  0.45593999997E+02  0.45594000000E+02  0.51100000000E-03 0.  1.
         11   -1    0    0    0    0 -0.00000000000E+00 -0.00000000000E+00 -0.45593999997E+02  0.45594000000E+02  0.51100000000E-03 0. -1.
    9900012    2    1    2    0    0 -0.12627935215E+02  0.21636949337E+02  0.32024069027E+02  0.50528888826E+02  0.30000088076E+02 0.  0.
         12    1    1    2    0    0  0.12627935215E+02 -0.21636949337E+02 -0.32024069027E+02  0.40659111174E+02  0.00000000000E+00 0. -1.
         11    1    3    3    0    0 -0.38625489217E+00 -0.34076627894E+01 -0.10244942124E+01  0.35792383520E+01  0.51100000000E-03 0. -1.
        -11    1    3    3    0    0 -0.53016552654E+01  0.61618605264E+00  0.84700810954E-01  0.53380153890E+01  0.51100000000E-03 0.  1.
        -12    1    3    3    0    0 -0.69400250571E+01  0.24428426074E+02  0.32963862429E+02  0.41611635085E+02  0.00000000000E+00 0.  1.
</event>
<event>
 7    1  0.5408841E-013  0.5052886E+02  0.7816164E-02  0.1300439E+00
        -11   -1    0    0    0    0  0.00000000000E+00  0.00000000000E+00  0.45593999997E+02  0.45594000000E+02  0.51100000000E-03 0.  1.
         11   -1    0    0    0    0 -0.00000000000E+00 -0.00000000000E+00 -0.45593999997E+02  0.45594000000E+02  0.51100000000E-03 0. -1.
    9900012    2    1    2    0    0 -0.38974990707E+02 -0.20876312861E+01  0.11391118234E+02  0.50528859827E+02  0.29999999931E+02 0.  0.
         12    1    1    2    0    0  0.38974990707E+02  0.20876312861E+01 -0.11391118234E+02  0.40659140173E+02  0.00000000000E+00 0. -1.
         11    1    3    3    0    0 -0.10945647860E+02  0.15156320903E+01 -0.27138259513E+01  0.11378453290E+02  0.51100000000E-03 0. -1.
        -11    1    3    3    0    0 -0.21938816299E+02 -0.61940356880E+01 -0.83319289783E+00  0.22811662574E+02  0.51100000000E-03 0.  1.
        -12    1    3    3    0    0 -0.60905265474E+01  0.25907723117E+01  0.14938137083E+02  0.16338743964E+02  0.00000000000E+00 0.  1.
</event>
<event>
 7    1  0.5408841E-013  0.5052885E+02  0.7816164E-02  0.1300439E+00
        -11   -1    0    0    0    0  0.00000000000E+00  0.00000000000E+00  0.45593999997E+02  0.45594000000E+02  0.51100000000E-03 0. -1.
         11   -1    0    0    0    0 -0.00000000000E+00 -0.00000000000E+00 -0.45593999997E+02  0.45594000000E+02  0.51100000000E-03 0.  1.
    9900012    2    1    2    0    0  0.23095753918E+02  0.28796167134E+02 -0.17045029762E+02  0.50528854285E+02  0.29999983085E+02 0.  0.
         12    1    1    2    0    0 -0.23095753918E+02 -0.28796167134E+02  0.17045029762E+02  0.40659145715E+02  0.00000000000E+00 0. -1.
         11    1    3    3    0    0  0.10138473531E+01  0.37469671096E+01  0.42292960546E+01  0.57406092320E+01  0.51100000000E-03 0. -1.
        -11    1    3    3    0    0 -0.25266067396E+01  0.82084563044E+01 -0.81924551574E+00  0.86274944216E+01  0.51100000000E-03 0.  1.
        -12    1    3    3    0    0  0.24608513305E+02  0.16840743720E+02 -0.20455080301E+02  0.36160750632E+02  0.00000000000E+00 0.  1.
</event>
<event>
 7    1  0.5408841E-013  0.5052883E+02  0.7816164E-02  0.1300439E+00
        -11   -1    0    0    0    0  0.00000000000E+00  0.00000000000E+00  0.45593999997E+02  0.45594000000E+02  0.51100000000E-03 0.  1.
         11   -1    0    0    0    0 -0.00000000000E+00 -0.00000000000E+00 -0.45593999997E+02  0.45594000000E+02  0.51100000000E-03 0. -1.
    9900012    2    1    2    0    0  0.38048793454E+02  0.10138250865E+01  0.14297899575E+02  0.50528825674E+02  0.29999896119E+02 0.  0.
         12    1    1    2    0    0 -0.38048793454E+02 -0.10138250865E+01 -0.14297899575E+02  0.40659174326E+02  0.00000000000E+00 0. -1.
         11    1    3    3    0    0  0.94513926154E+00  0.43616906835E+00 -0.32636559509E+01  0.34256360150E+01  0.51100000000E-03 0. -1.
        -11    1    3    3    0    0  0.10827154182E+02 -0.72562611918E+01 -0.23142487986E+01  0.13237686427E+02  0.51100000000E-03 0.  1.
        -12    1    3    3    0    0  0.26276500010E+02  0.78339172100E+01  0.19875804325E+02  0.33865503232E+02  0.00000000000E+00 0.  1.
</event>
<event>
 7    1  0.5408841E-013  0.5052887E+02  0.7816164E-02  0.1300439E+00
        -11   -1    0    0    0    0  0.00000000000E+00  0.00000000000E+00  0.45593999997E+02  0.45594000000E+02  0.51100000000E-03 0.  1.
         11   -1    0    0    0    0 -0.00000000000E+00 -0.00000000000E+00 -0.45593999997E+02  0.45594000000E+02  0.51100000000E-03 0. -1.
    9900012    2    1    2    0    0  0.16802723953E+02  0.76504096952E+01  0.36225747827E+02  0.50528866876E+02  0.30000021356E+02 0.  0.
         12    1    1    2    0    0 -0.16802723953E+02 -0.76504096952E+01 -0.36225747827E+02  0.40659133124E+02  0.00000000000E+00 0. -1.
         11    1    3    3    0    0 -0.29501792344E+01  0.24765347969E+01 -0.71340989714E+00  0.39173634064E+01  0.51100000000E-03 0. -1.
        -11    1    3    3    0    0  0.51064779637E+01  0.94393573195E+01  0.25110881841E+02  0.27308130124E+02  0.51100000000E-03 0.  1.
        -12    1    3    3    0    0  0.14646425224E+02 -0.42654824212E+01  0.11828275884E+02  0.19303373345E+02  0.00000000000E+00 0.  1.
</event>
<event>
 7    1  0.5408841E-013  0.5052887E+02  0.7816164E-02  0.1300439E+00
        -11   -1    0    0    0    0  0.00000000000E+00  0.00000000000E+00  0.45593999997E+02  0.45594000000E+02  0.51100000000E-03 0.  1.
         11   -1    0    0    0    0 -0.00000000000E+00 -0.00000000000E+00 -0.45593999997E+02  0.45594000000E+02  0.51100000000E-03 0. -1.
    9900012    2    1    2    0    0  0.51432695278E+01  0.36695787351E+02  0.16737119948E+02  0.50528865542E+02  0.30000017302E+02 0.  0.
         12    1    1    2    0    0 -0.51432695278E+01 -0.36695787351E+02 -0.16737119948E+02  0.40659134458E+02  0.00000000000E+00 0. -1.
         11    1    3    3    0    0 -0.16414535516E+01  0.27144358441E+02  0.80648096874E+01  0.28364620929E+02  0.51100000000E-03 0.  1.
        -11    1    3    3    0    0 -0.27242136916E+01 -0.11768367263E+01 -0.25859235735E+01  0.39361511540E+01  0.51100000000E-03 0. -1.
        -12    1    3    3    0    0  0.95089367711E+01  0.10728265636E+02  0.11258233834E+02  0.18228093459E+02  0.00000000000E+00 0.  1.
</event>
<event>
 7    1  0.5408841E-013  0.5052885E+02  0.7816164E-02  0.1300439E+00
        -11   -1    0    0    0    0  0.00000000000E+00  0.00000000000E+00  0.45593999997E+02  0.45594000000E+02  0.51100000000E-03 0. -1.
         11   -1    0    0    0    0 -0.00000000000E+00 -0.00000000000E+00 -0.45593999997E+02  0.45594000000E+02  0.51100000000E-03 0.  1.
    9900012    2    1    2    0    0 -0.28133620586E+02  0.54351802651E+01 -0.28846575836E+02  0.50528846920E+02  0.29999960697E+02 0.  0.
         12    1    1    2    0    0  0.28133620586E+02 -0.54351802651E+01  0.28846575836E+02  0.40659153080E+02  0.00000000000E+00 0. -1.
         11    1    3    3    0    0 -0.19908920989E+01 -0.43564547926E+01 -0.13759367230E+02  0.14569232531E+02  0.51100000000E-03 0. -1.
        -11    1    3    3    0    0 -0.16797657998E+02  0.44603187684E+01 -0.17785812904E+02  0.24867466671E+02  0.51100000000E-03 0.  1.
        -12    1    3    3    0    0 -0.93450704889E+01  0.53313162892E+01  0.26986042988E+01  0.11092147717E+02  0.00000000000E+00 0.  1.
</event>
<event>
 7    1  0.5408841E-013  0.5052886E+02  0.7816164E-02  0.1300439E+00
        -11   -1    0    0    0    0  0.00000000000E+00  0.00000000000E+00  0.45593999997E+02  0.45594000000E+02  0.51100000000E-03 0.  1.
         11   -1    0    0    0    0 -0.00000000000E+00 -0.00000000000E+00 -0.45593999997E+02  0.45594000000E+02  0.51100000000E-03 0. -1.
    9900012    2    1    2    0    0  0.40430028917E+02  0.32660616654E+01 -0.28126412522E+01  0.50528863907E+02  0.30000012332E+02 0.  0.
         12    1    1    2    0    0 -0.40430028917E+02 -0.32660616654E+01  0.28126412522E+01  0.40659136093E+02  0.00000000000E+00 0. -1.
         11    1    3    3    0    0  0.19571005922E+02 -0.55469157737E+01 -0.77899510580E+01  0.21782467380E+02  0.51100000000E-03 0. -1.
        -11    1    3    3    0    0  0.15745282600E+02  0.10371405698E+02 -0.30526188208E+01  0.19099697962E+02  0.51100000000E-03 0.  1.
         12    1    3    3    0    0  0.51137403947E+01 -0.15584282588E+01  0.80299286267E+01  0.96466985654E+01  0.00000000000E+00 0. -1.
</event>
<event>
 7    1  0.5408841E-013  0.5052887E+02  0.7816164E-02  0.1300439E+00
        -11   -1    0    0    0    0  0.00000000000E+00  0.00000000000E+00  0.45593999997E+02  0.45594000000E+02  0.51100000000E-03 0.  1.
         11   -1    0    0    0    0 -0.00000000000E+00 -0.00000000000E+00 -0.45593999997E+02  0.45594000000E+02  0.51100000000E-03 0. -1.
    9900012    2    1    2    0    0  0.22277541247E+02  0.33037271231E+02  0.80879577481E+01  0.50528865787E+02  0.30000018047E+02 0.  0.
         12    1    1    2    0    0 -0.22277541247E+02 -0.33037271231E+02 -0.80879577481E+01  0.40659134213E+02  0.00000000000E+00 0. -1.
         11    1    3    3    0    0  0.32987599085E+01  0.27370899070E+01 -0.38678630969E+01  0.57735468553E+01  0.51100000000E-03 0. -1.
        -11    1    3    3    0    0  0.20325994349E+02  0.22868906133E+02 -0.20785038901E-01  0.30596296284E+02  0.51100000000E-03 0.  1.
        -12    1    3    3    0    0 -0.13472130103E+01  0.74312751909E+01  0.11976605884E+02  0.14159022648E+02  0.00000000000E+00 0.  1.
</event>
<event>
 7    1  0.5408841E-013  0.5052884E+02  0.7816164E-02  0.1300439E+00
        -11   -1    0    0    0    0  0.00000000000E+00  0.00000000000E+00  0.45593999997E+02  0.45594000000E+02  0.51100000000E-03 0.  1.
         11   -1    0    0    0    0 -0.00000000000E+00 -0.00000000000E+00 -0.45593999997E+02  0.45594000000E+02  0.51100000000E-03 0. -1.
    9900012    2    1    2    0    0 -0.23071054812E+01  0.27820089718E+02  0.29561589220E+02  0.50528835168E+02  0.29999924976E+02 0.  0.
         12    1    1    2    0    0  0.23071054812E+01 -0.27820089718E+02 -0.29561589220E+02  0.40659164832E+02  0.00000000000E+00 0. -1.
         11    1    3    3    0    0 -0.51773515776E+01  0.43927137848E+01  0.27709432590E+01  0.73334187497E+01  0.51100000000E-03 0. -1.
        -11    1    3    3    0    0 -0.28838317910E+01  0.23589218535E+02  0.10618259429E+02  0.26029121200E+02  0.51100000000E-03 0.  1.
        -12    1    3    3    0    0  0.57540778874E+01 -0.16184260171E+00  0.16172386532E+02  0.17166295218E+02  0.00000000000E+00 0.  1.
</event>
<event>
 7    1  0.5408841E-013  0.5052886E+02  0.7816164E-02  0.1300439E+00
        -11   -1    0    0    0    0  0.00000000000E+00  0.00000000000E+00  0.45593999997E+02  0.45594000000E+02  0.51100000000E-03 0.  1.
         11   -1    0    0    0    0 -0.00000000000E+00 -0.00000000000E+00 -0.45593999997E+02  0.45594000000E+02  0.51100000000E-03 0. -1.
    9900012    2    1    2    0    0  0.14100979115E+02 -0.37834419038E+02 -0.47838158839E+01  0.50528858711E+02  0.29999996538E+02 0.  0.
         12    1    1    2    0    0 -0.14100979115E+02  0.37834419038E+02  0.47838158839E+01  0.40659141289E+02  0.00000000000E+00 0. -1.
         11    1    3    3    0    0  0.11186051097E+02 -0.19515616593E+02 -0.71634775339E+01  0.23607253986E+02  0.51100000000E-03 0. -1.
        -11    1    3    3    0    0  0.19850107272E+01 -0.21179411179E+02 -0.22602722138E+01  0.21391974108E+02  0.51100000000E-03 0.  1.
        -12    1    3    3    0    0  0.92991729159E+00  0.28606087340E+01  0.46399338638E+01  0.55296306168E+01  0.00000000000E+00 0.  1.
</event>
<event>
 7    1  0.5408841E-013  0.5052884E+02  0.7816164E-02  0.1300439E+00
        -11   -1    0    0    0    0  0.00000000000E+00  0.00000000000E+00  0.45593999997E+02  0.45594000000E+02  0.51100000000E-03 0.  1.
         11   -1    0    0    0    0 -0.00000000000E+00 -0.00000000000E+00 -0.45593999997E+02  0.45594000000E+02  0.51100000000E-03 0. -1.
    9900012    2    1    2    0    0 -0.39988907692E+02 -0.53254835574E+01 -0.50688797864E+01  0.50528842903E+02  0.29999948489E+02 0.  0.
         12    1    1    2    0    0  0.39988907692E+02  0.53254835574E+01  0.50688797864E+01  0.40659157097E+02  0.00000000000E+00 0. -1.
         11    1    3    3    0    0 -0.13179604310E+02 -0.70084742761E+00  0.97518476604E+01  0.16410109382E+02  0.51100000000E-03 0. -1.
        -11    1    3    3    0    0 -0.25492947923E+02 -0.69145400214E+01 -0.93082867148E+01  0.28006168237E+02  0.51100000000E-03 0.  1.
         12    1    3    3    0    0 -0.13163554590E+01  0.22899038916E+01 -0.55124407319E+01  0.61125652839E+01  0.00000000000E+00 0. -1.
</event>
<event>
 7    1  0.5408841E-013  0.5052886E+02  0.7816164E-02  0.1300439E+00
        -11   -1    0    0    0    0  0.00000000000E+00  0.00000000000E+00  0.45593999997E+02  0.45594000000E+02  0.51100000000E-03 0.  1.
         11   -1    0    0    0    0 -0.00000000000E+00 -0.00000000000E+00 -0.45593999997E+02  0.45594000000E+02  0.51100000000E-03 0. -1.
    9900012    2    1    2    0    0  0.36168734006E+02 -0.14939032255E+02  0.11036914512E+02  0.50528862204E+02  0.30000007156E+02 0.  0.
         12    1    1    2    0    0 -0.36168734006E+02  0.14939032255E+02 -0.11036914512E+02  0.40659137796E+02  0.00000000000E+00 0. -1.
         11    1    3    3    0    0  0.55005532103E+01 -0.61322348649E+01 -0.23269282867E+00  0.82410276223E+01  0.51100000000E-03 0. -1.
        -11    1    3    3    0    0  0.23287550309E+02 -0.89700436171E+01 -0.40503125188E+01  0.25281944420E+02  0.51100000000E-03 0.  1.
        -12    1    3    3    0    0  0.73806304874E+01  0.16324622691E+00  0.15319919859E+02  0.17005890162E+02  0.00000000000E+00 0.  1.
</event>
<event>
 7    1  0.5408841E-013  0.5052886E+02  0.7816164E-02  0.1300439E+00
        -11   -1    0    0    0    0  0.00000000000E+00  0.00000000000E+00  0.45593999997E+02  0.45594000000E+02  0.51100000000E-03 0.  1.
         11   -1    0    0    0    0 -0.00000000000E+00 -0.00000000000E+00 -0.45593999997E+02  0.45594000000E+02  0.51100000000E-03 0. -1.
    9900012    2    1    2    0    0 -0.17246930769E+02 -0.17844761269E+02  0.32206725030E+02  0.50528864952E+02  0.30000015507E+02 0.  0.
         12    1    1    2    0    0  0.17246930769E+02  0.17844761269E+02 -0.32206725030E+02  0.40659135048E+02  0.00000000000E+00 0. -1.
         11    1    3    3    0    0  0.16756709547E+01  0.46630333353E+01  0.64658588422E+00  0.49969817492E+01  0.51100000000E-03 0. -1.
        -11    1    3    3    0    0 -0.22149184413E+01  0.89512426584E+00  0.80264006517E+01  0.83743787134E+01  0.51100000000E-03 0.  1.
         12    1    3    3    0    0 -0.16707683282E+02 -0.23402918871E+02  0.23533738494E+02  0.37157504489E+02  0.00000000000E+00 0. -1.
</event>
<event>
 7    1  0.5408841E-013  0.5052884E+02  0.7816164E-02  0.1300439E+00
        -11   -1    0    0    0    0  0.00000000000E+00  0.00000000000E+00  0.45593999997E+02  0.45594000000E+02  0.51100000000E-03 0. -1.
         11   -1    0    0    0    0 -0.00000000000E+00 -0.00000000000E+00 -0.45593999997E+02  0.45594000000E+02  0.51100000000E-03 0.  1.
    9900012    2    1    2    0    0  0.19979670797E+02 -0.31447729940E+02 -0.16279445453E+02  0.50528839804E+02  0.29999939069E+02 0.  0.
         12    1    1    2    0    0 -0.19979670797E+02  0.31447729940E+02  0.16279445453E+02  0.40659160196E+02  0.00000000000E+00 0. -1.
         11    1    3    3    0    0 -0.16668458106E+01  0.12081452450E-01  0.23771477837E+01  0.29033347662E+01  0.51100000000E-03 0. -1.
        -11    1    3    3    0    0 -0.38007687832E+01 -0.55993405129E+01 -0.64420114256E+01  0.93433382146E+01  0.51100000000E-03 0.  1.
        -12    1    3    3    0    0  0.25447285391E+02 -0.25860470879E+02 -0.12214581812E+02  0.38282166824E+02  0.00000000000E+00 0.  1.
</event>
<event>
 7    1  0.5408841E-013  0.5052886E+02  0.7816164E-02  0.1300439E+00
        -11   -1    0    0    0    0  0.00000000000E+00  0.00000000000E+00  0.45593999997E+02  0.45594000000E+02  0.51100000000E-03 0.  1.
         11   -1    0    0    0    0 -0.00000000000E+00 -0.00000000000E+00 -0.45593999997E+02  0.45594000000E+02  0.51100000000E-03 0. -1.
    9900012    2    1    2    0    0 -0.19857046734E+01 -0.12536916182E+02  0.38627044673E+02  0.50528857479E+02  0.29999992793E+02 0.  0.
         12    1    1    2    0    0  0.19857046734E+01  0.12536916182E+02 -0.38627044673E+02  0.40659142521E+02  0.00000000000E+00 0. -1.
         11    1    3    3    0    0 -0.44479157047E+01 -0.18051642269E+02  0.15781764611E+02  0.24386673353E+02  0.51100000000E-03 0. -1.
        -11    1    3    3    0    0 -0.36140751452E+01 -0.82996508295E+00  0.47400624274E+01  0.60181868757E+01  0.51100000000E-03 0.  1.
         12    1    3    3    0    0  0.60762861765E+01  0.63446911702E+01  0.18105217634E+02  0.20123997250E+02  0.00000000000E+00 0. -1.
</event>
<event>
 7    1  0.5408841E-013  0.5052886E+02  0.7816164E-02  0.1300439E+00
        -11   -1    0    0    0    0  0.00000000000E+00  0.00000000000E+00  0.45593999997E+02  0.45594000000E+02  0.51100000000E-03 0. -1.
         11   -1    0    0    0    0 -0.00000000000E+00 -0.00000000000E+00 -0.45593999997E+02  0.45594000000E+02  0.51100000000E-03 0.  1.
    9900012    2    1    2    0    0  0.72884177171E+01  0.29113606182E+02 -0.27430684237E+02  0.50528861599E+02  0.30000005318E+02 0.  0.
         12    1    1    2    0    0 -0.72884177171E+01 -0.29113606182E+02  0.27430684237E+02  0.40659138401E+02  0.00000000000E+00 0. -1.
         11    1    3    3    0    0  0.33045919628E+01  0.49594995747E+01 -0.16633694376E+01  0.61873873500E+01  0.51100000000E-03 0. -1.
        -11    1    3    3    0    0  0.23289774620E+01  0.18704077295E+01  0.52935566216E+01  0.60781825458E+01  0.51100000000E-03 0.  1.
        -12    1    3    3    0    0  0.16548482923E+01  0.22283698878E+02 -0.31060871421E+02  0.38263291704E+02  0.00000000000E+00 0.  1.
</event>
<event>
 7    1  0.5408841E-013  0.5052888E+02  0.7816164E-02  0.1300439E+00
        -11   -1    0    0    0    0  0.00000000000E+00  0.00000000000E+00  0.45593999997E+02  0.45594000000E+02  0.51100000000E-03 0. -1.
         11   -1    0    0    0    0 -0.00000000000E+00 -0.00000000000E+00 -0.45593999997E+02  0.45594000000E+02  0.51100000000E-03 0.  1.
    9900012    2    1    2    0    0  0.28467984325E+02 -0.10106462124E+02 -0.27213923890E+02  0.50528876034E+02  0.30000049193E+02 0.  0.
         12    1    1    2    0    0 -0.28467984325E+02  0.10106462124E+02  0.27213923890E+02  0.40659123966E+02  0.00000000000E+00 0. -1.
         11    1    3    3    0    0 -0.78979820954E-01  0.32708607020E+01 -0.10584319014E+02  0.11078473577E+02  0.51100000000E-03 0. -1.
        -11    1    3    3    0    0  0.61664385849E+01 -0.11696782436E+02 -0.46987696872E+01  0.14032751726E+02  0.51100000000E-03 0.  1.
        -12    1    3    3    0    0  0.22380525561E+02 -0.16805403907E+01 -0.11930835189E+02  0.25417650731E+02  0.00000000000E+00 0.  1.
</event>
<event>
 7    1  0.5408841E-013  0.5052886E+02  0.7816164E-02  0.1300439E+00
        -11   -1    0    0    0    0  0.00000000000E+00  0.00000000000E+00  0.45593999997E+02  0.45594000000E+02  0.51100000000E-03 0.  1.
         11   -1    0    0    0    0 -0.00000000000E+00 -0.00000000000E+00 -0.45593999997E+02  0.45594000000E+02  0.51100000000E-03 0. -1.
    9900012    2    1    2    0    0 -0.91156786336E+01 -0.17720297102E+02  0.35440952103E+02  0.50528860654E+02  0.30000002445E+02 0.  0.
         12    1    1    2    0    0  0.91156786336E+01  0.17720297102E+02 -0.35440952103E+02  0.40659139346E+02  0.00000000000E+00 0. -1.
         11    1    3    3    0    0  0.37504636470E+01 -0.62222779875E+01  0.35441833838E+01  0.80835609134E+01  0.51100000000E-03 0. -1.
        -11    1    3    3    0    0 -0.69252757105E+01 -0.14399356135E+02  0.32071731184E+02  0.35831506278E+02  0.51100000000E-03 0.  1.
        -12    1    3    3    0    0 -0.59408665701E+01  0.29013370201E+01 -0.17496246407E+00  0.66137934631E+01  0.00000000000E+00 0.  1.
</event>
<event>
 7    1  0.5408841E-013  0.5052885E+02  0.7816164E-02  0.1300439E+00
        -11   -1    0    0    0    0  0.00000000000E+00  0.00000000000E+00  0.45593999997E+02  0.45594000000E+02  0.51100000000E-03 0.  1.
         11   -1    0    0    0    0 -0.00000000000E+00 -0.00000000000E+00 -0.45593999997E+02  0.45594000000E+02  0.51100000000E-03 0. -1.
    9900012    2    1    2    0    0 -0.23823131968E+02 -0.32809418173E+02 -0.30276857556E+01  0.50528850739E+02  0.29999972305E+02 0.  0.
         12    1    1    2    0    0  0.23823131968E+02  0.32809418173E+02  0.30276857556E+01  0.40659149261E+02  0.00000000000E+00 0. -1.
         11    1    3    3    0    0  0.58080775352E+01 -0.33196758310E+01 -0.24185299505E+01  0.71135996275E+01  0.51100000000E-03 0. -1.
        -11    1    3    3    0    0 -0.40227041065E+01 -0.66420020522E+01  0.40887583557E+01  0.87758922476E+01  0.51100000000E-03 0.  1.
         12    1    3    3    0    0 -0.25608505396E+02 -0.22847740290E+02 -0.46979141608E+01  0.34639358863E+02  0.00000000000E+00 0. -1.
</event>
<event>
 7    1  0.5408841E-013  0.5052886E+02  0.7816164E-02  0.1300439E+00
        -11   -1    0    0    0    0  0.00000000000E+00  0.00000000000E+00  0.45593999997E+02  0.45594000000E+02  0.51100000000E-03 0.  1.
         11   -1    0    0    0    0 -0.00000000000E+00 -0.00000000000E+00 -0.45593999997E+02  0.45594000000E+02  0.51100000000E-03 0. -1.
    9900012    2    1    2    0    0  0.90320889884E+01  0.17921165900E+01  0.39602721624E+02  0.50528857444E+02  0.29999992686E+02 0.  0.
         12    1    1    2    0    0 -0.90320889884E+01 -0.17921165900E+01 -0.39602721624E+02  0.40659142556E+02  0.00000000000E+00 0. -1.
         11    1    3    3    0    0 -0.13623150698E+01  0.24330451970E+01  0.38013593545E+01  0.47144399968E+01  0.51100000000E-03 0. -1.
        -11    1    3    3    0    0  0.14595595892E+02  0.96104685147E+01  0.20832753650E+02  0.27191839758E+02  0.51100000000E-03 0.  1.
        -12    1    3    3    0    0 -0.42011918340E+01 -0.10251397122E+02  0.14968608619E+02  0.18622577689E+02  0.00000000000E+00 0.  1.
</event>
<event>
 7    1  0.5408841E-013  0.5052886E+02  0.7816164E-02  0.1300439E+00
        -11   -1    0    0    0    0  0.00000000000E+00  0.00000000000E+00  0.45593999997E+02  0.45594000000E+02  0.51100000000E-03 0. -1.
         11   -1    0    0    0    0 -0.00000000000E+00 -0.00000000000E+00 -0.45593999997E+02  0.45594000000E+02  0.51100000000E-03 0.  1.
    9900012    2    1    2    0    0 -0.14385268190E+02 -0.23424911535E+02 -0.29958356685E+02  0.50528861340E+02  0.30000004529E+02 0.  0.
         12    1    1    2    0    0  0.14385268190E+02  0.23424911535E+02  0.29958356685E+02  0.40659138660E+02  0.00000000000E+00 0. -1.
         11    1    3    3    0    0 -0.31916958002E+01 -0.57066264579E+01  0.35461515354E+01  0.74382591097E+01  0.51100000000E-03 0. -1.
        -11    1    3    3    0    0 -0.13557242675E+01 -0.50677253440E+00  0.19747136539E+01  0.24483261562E+01  0.51100000000E-03 0.  1.
        -12    1    3    3    0    0 -0.98378481226E+01 -0.17211512542E+02 -0.35479221874E+02  0.40642276074E+02  0.00000000000E+00 0.  1.
</event>
<event>
 7    1  0.5408841E-013  0.5052885E+02  0.7816164E-02  0.1300439E+00
        -11   -1    0    0    0    0  0.00000000000E+00  0.00000000000E+00  0.45593999997E+02  0.45594000000E+02  0.51100000000E-03 0. -1.
         11   -1    0    0    0    0 -0.00000000000E+00 -0.00000000000E+00 -0.45593999997E+02  0.45594000000E+02  0.51100000000E-03 0.  1.
    9900012    2    1    2    0    0 -0.11939633651E+02  0.38011323955E+02 -0.81086962167E+01  0.50528849063E+02  0.29999967213E+02 0.  0.
         12    1    1    2    0    0  0.11939633651E+02 -0.38011323955E+02  0.81086962167E+01  0.40659150937E+02  0.00000000000E+00 0. -1.
         11    1    3    3    0    0  0.32264953561E+01  0.13434918010E+01  0.99656591572E+00  0.36343343803E+01  0.51100000000E-03 0. -1.
        -11    1    3    3    0    0 -0.13946982275E+00 -0.32502649754E+01  0.12027383224E+00  0.32554785052E+01  0.51100000000E-03 0.  1.
        -12    1    3    3    0    0 -0.15026659185E+02  0.39918097130E+02 -0.92255359646E+01  0.43639036178E+02  0.00000000000E+00 0.  1.
</event>
<event>
 7    1  0.5408841E-013  0.5052886E+02  0.7816164E-02  0.1300439E+00
        -11   -1    0    0    0    0  0.00000000000E+00  0.00000000000E+00  0.45593999997E+02  0.45594000000E+02  0.51100000000E-03 0.  1.
         11   -1    0    0    0    0 -0.00000000000E+00 -0.00000000000E+00 -0.45593999997E+02  0.45594000000E+02  0.51100000000E-03 0. -1.
    9900012    2    1    2    0    0 -0.22135783236E+02  0.30952117993E+02  0.14322675537E+02  0.50528861516E+02  0.30000005064E+02 0.  0.
         12    1    1    2    0    0  0.22135783236E+02 -0.30952117993E+02 -0.14322675537E+02  0.40659138484E+02  0.00000000000E+00 0. -1.
         11    1    3    3    0    0 -0.10060515254E+02  0.69170605663E+01  0.69361256466E+01  0.14041706922E+02  0.51100000000E-03 0. -1.
        -11    1    3    3    0    0 -0.17357720577E+02  0.11142136558E+02  0.89152834005E+01  0.22470423874E+02  0.51100000000E-03 0.  1.
         12    1    3    3    0    0  0.52824525940E+01  0.12892920869E+02 -0.15287335097E+01  0.14016730720E+02  0.00000000000E+00 0. -1.
</event>
<event>
 7    1  0.5408841E-013  0.5052886E+02  0.7816164E-02  0.1300439E+00
        -11   -1    0    0    0    0  0.00000000000E+00  0.00000000000E+00  0.45593999997E+02  0.45594000000E+02  0.51100000000E-03 0.  1.
         11   -1    0    0    0    0 -0.00000000000E+00 -0.00000000000E+00 -0.45593999997E+02  0.45594000000E+02  0.51100000000E-03 0. -1.
    9900012    2    1    2    0    0 -0.24764988051E+02 -0.11605634313E+02  0.30086051427E+02  0.50528857468E+02  0.29999992760E+02 0.  0.
         12    1    1    2    0    0  0.24764988051E+02  0.11605634313E+02 -0.30086051427E+02  0.40659142532E+02  0.00000000000E+00 0. -1.
         11    1    3    3    0    0 -0.14068835631E+02 -0.40742071913E+01  0.29808164879E+01  0.14947125725E+02  0.51100000000E-03 0. -1.
        -11    1    3    3    0    0 -0.89789727399E+01 -0.13736321254E+02  0.21486306112E+02  0.27036453607E+02  0.51100000000E-03 0.  1.
        -12    1    3    3    0    0 -0.17171796797E+01  0.62048941323E+01  0.56189288270E+01  0.85452781352E+01  0.00000000000E+00 0.  1.
</event>
<event>
 7    1  0.5408841E-013  0.5052889E+02  0.7816164E-02  0.1300439E+00
        -11   -1    0    0    0    0  0.00000000000E+00  0.00000000000E+00  0.45593999997E+02  0.45594000000E+02  0.51100000000E-03 0.  1.
         11   -1    0    0    0    0 -0.00000000000E+00 -0.00000000000E+00 -0.45593999997E+02  0.45594000000E+02  0.51100000000E-03 0. -1.
    9900012    2    1    2    0    0 -0.28336827756E+02  0.27561111917E+02  0.95169781177E+01  0.50528885771E+02  0.30000078791E+02 0.  0.
         12    1    1    2    0    0  0.28336827756E+02 -0.27561111917E+02 -0.95169781177E+01  0.40659114229E+02  0.00000000000E+00 0. -1.
         11    1    3    3    0    0 -0.12544247144E+02  0.82203787061E+01  0.18339735360E+02  0.23691320264E+02  0.51100000000E-03 0. -1.
        -11    1    3    3    0    0 -0.19206941296E+01  0.46322672825E+01 -0.76352307994E+00  0.50724682227E+01  0.51100000000E-03 0.  1.
         12    1    3    3    0    0 -0.13871886482E+02  0.14708465928E+02 -0.80592341627E+01  0.21765097285E+02  0.00000000000E+00 0. -1.
</event>
<event>
 7    1  0.5408841E-013  0.5052886E+02  0.7816164E-02  0.1300439E+00
        -11   -1    0    0    0    0  0.00000000000E+00  0.00000000000E+00  0.45593999997E+02  0.45594000000E+02  0.51100000000E-03 0. -1.
         11   -1    0    0    0    0 -0.00000000000E+00 -0.00000000000E+00 -0.45593999997E+02  0.45594000000E+02  0.51100000000E-03 0.  1.
    9900012    2    1    2    0    0  0.93368529687E+01 -0.38560652392E+02  0.88918571693E+01  0.50528857607E+02  0.29999993181E+02 0.  0.
         12    1    1    2    0    0 -0.93368529687E+01  0.38560652392E+02 -0.88918571693E+01  0.40659142393E+02  0.00000000000E+00 0. -1.
         11    1    3    3    0    0  0.30667793577E+00 -0.37066396268E+01  0.90380381846E+01  0.97734007984E+01  0.51100000000E-03 0.  1.
        -11    1    3    3    0    0 -0.54805925118E+01 -0.67459646554E+01 -0.24750529274E+01  0.90371909721E+01  0.51100000000E-03 0. -1.
        -12    1    3    3    0    0  0.14510767545E+02 -0.28108048110E+02  0.23288719121E+01  0.31718265836E+02  0.00000000000E+00 0.  1.
</event>
<event>
 7    1  0.5408841E-013  0.5052886E+02  0.7816164E-02  0.1300439E+00
        -11   -1    0    0    0    0  0.00000000000E+00  0.00000000000E+00  0.45593999997E+02  0.45594000000E+02  0.51100000000E-03 0. -1.
         11   -1    0    0    0    0 -0.00000000000E+00 -0.00000000000E+00 -0.45593999997E+02  0.45594000000E+02  0.51100000000E-03 0.  1.
    9900012    2    1    2    0    0 -0.27672525569E+02 -0.52373656324E+01 -0.29325187289E+02  0.50528864745E+02  0.30000014880E+02 0.  0.
         12    1    1    2    0    0  0.27672525569E+02  0.52373656324E+01  0.29325187289E+02  0.40659135255E+02  0.00000000000E+00 0. -1.
         11    1    3    3    0    0 -0.22422711990E+01 -0.43391699356E+01 -0.13566293645E+02  0.14418755126E+02  0.51100000000E-03 0. -1.
        -11    1    3    3    0    0 -0.22040357386E+02 -0.84236129687E+01 -0.14672606377E+02  0.27785247656E+02  0.51100000000E-03 0.  1.
         12    1    3    3    0    0 -0.33898969831E+01  0.75254172720E+01 -0.10862872673E+01  0.83248619628E+01  0.00000000000E+00 0. -1.
</event>
<event>
 7    1  0.5408841E-013  0.5052885E+02  0.7816164E-02  0.1300439E+00
        -11   -1    0    0    0    0  0.00000000000E+00  0.00000000000E+00  0.45593999997E+02  0.45594000000E+02  0.51100000000E-03 0.  1.
         11   -1    0    0    0    0 -0.00000000000E+00 -0.00000000000E+00 -0.45593999997E+02  0.45594000000E+02  0.51100000000E-03 0. -1.
    9900012    2    1    2    0    0 -0.11010798432E+02  0.14846269739E+02  0.36214871118E+02  0.50528852230E+02  0.29999976838E+02 0.  0.
         12    1    1    2    0    0  0.11010798432E+02 -0.14846269739E+02 -0.36214871118E+02  0.40659147770E+02  0.00000000000E+00 0. -1.
         11    1    3    3    0    0  0.37231094539E+01  0.24012600675E+01  0.80004176771E+01  0.91451778105E+01  0.51100000000E-03 0. -1.
        -11    1    3    3    0    0 -0.25693296548E+01  0.51668627018E+01 -0.34274046297E+01  0.67115592683E+01  0.51100000000E-03 0.  1.
        -12    1    3    3    0    0 -0.12164578232E+02  0.72781469697E+01  0.31641858071E+02  0.34672115151E+02  0.00000000000E+00 0.  1.
</event>
<event>
 7    1  0.5408841E-013  0.5052886E+02  0.7816164E-02  0.1300439E+00
        -11   -1    0    0    0    0  0.00000000000E+00  0.00000000000E+00  0.45593999997E+02  0.45594000000E+02  0.51100000000E-03 0.  1.
         11   -1    0    0    0    0 -0.00000000000E+00 -0.00000000000E+00 -0.45593999997E+02  0.45594000000E+02  0.51100000000E-03 0. -1.
    9900012    2    1    2    0    0 -0.13654485893E+02  0.36219331749E+02  0.12445121737E+02  0.50528855489E+02  0.29999986745E+02 0.  0.
         12    1    1    2    0    0  0.13654485893E+02 -0.36219331749E+02 -0.12445121737E+02  0.40659144511E+02  0.00000000000E+00 0. -1.
         11    1    3    3    0    0  0.37139395295E+01 -0.10025117270E+01 -0.38988457167E+01  0.54771684998E+01  0.51100000000E-03 0. -1.
        -11    1    3    3    0    0 -0.16867935453E+01  0.12995766287E+02  0.44762852599E+01  0.13848189189E+02  0.51100000000E-03 0.  1.
        -12    1    3    3    0    0 -0.15681631877E+02  0.24226077189E+02  0.11867682193E+02  0.31203497800E+02  0.00000000000E+00 0.  1.
</event>
<event>
 7    1  0.5408841E-013  0.5052885E+02  0.7816164E-02  0.1300439E+00
        -11   -1    0    0    0    0  0.00000000000E+00  0.00000000000E+00  0.45593999997E+02  0.45594000000E+02  0.51100000000E-03 0.  1.
         11   -1    0    0    0    0 -0.00000000000E+00 -0.00000000000E+00 -0.45593999997E+02  0.45594000000E+02  0.51100000000E-03 0. -1.
    9900012    2    1    2    0    0 -0.35865916199E+02  0.10447154670E+02  0.16051773618E+02  0.50528850700E+02  0.29999972187E+02 0.  0.
         12    1    1    2    0    0  0.35865916199E+02 -0.10447154670E+02 -0.16051773618E+02  0.40659149300E+02  0.00000000000E+00 0. -1.
         11    1    3    3    0    0 -0.60600599417E+01 -0.77930890433E+01 -0.29347280307E+01  0.10298989864E+02  0.51100000000E-03 0. -1.
        -11    1    3    3    0    0 -0.16162385270E+02  0.81250820493E+01  0.67983866487E+01  0.19325054132E+02  0.51100000000E-03 0.  1.
        -12    1    3    3    0    0 -0.13643470988E+02  0.10115161664E+02  0.12188115000E+02  0.20904806704E+02  0.00000000000E+00 0.  1.
</event>
<event>
 7    1  0.5408841E-013  0.5052886E+02  0.7816164E-02  0.1300439E+00
        -11   -1    0    0    0    0  0.00000000000E+00  0.00000000000E+00  0.45593999997E+02  0.45594000000E+02  0.51100000000E-03 0.  1.
         11   -1    0    0    0    0 -0.00000000000E+00 -0.00000000000E+00 -0.45593999997E+02  0.45594000000E+02  0.51100000000E-03 0. -1.
    9900012    2    1    2    0    0  0.88095812559E+00 -0.28470789205E+02  0.29013853540E+02  0.50528860530E+02  0.30000002068E+02 0.  0.
         12    1    1    2    0    0 -0.88095812559E+00  0.28470789205E+02 -0.29013853540E+02  0.40659139470E+02  0.00000000000E+00 0. -1.
         11    1    3    3    0    0  0.69616875561E+01 -0.86625728766E+01 -0.18176925464E+01  0.11260962167E+02  0.51100000000E-03 0. -1.
        -11    1    3    3    0    0  0.41368508895E+00 -0.15533121842E+02  0.14841259960E+02  0.21487484892E+02  0.51100000000E-03 0.  1.
        -12    1    3    3    0    0 -0.64944145195E+01 -0.42750944861E+01  0.15990286126E+02  0.17780413472E+02  0.00000000000E+00 0.  1.
</event>
<event>
 7    1  0.5408841E-013  0.5052887E+02  0.7816164E-02  0.1300439E+00
        -11   -1    0    0    0    0  0.00000000000E+00  0.00000000000E+00  0.45593999997E+02  0.45594000000E+02  0.51100000000E-03 0.  1.
         11   -1    0    0    0    0 -0.00000000000E+00 -0.00000000000E+00 -0.45593999997E+02  0.45594000000E+02  0.51100000000E-03 0. -1.
    9900012    2    1    2    0    0 -0.34167569936E+01  0.73279714421E+01  0.39847096493E+02  0.50528874422E+02  0.30000044293E+02 0.  0.
         12    1    1    2    0    0  0.34167569936E+01 -0.73279714421E+01 -0.39847096493E+02  0.40659125578E+02  0.00000000000E+00 0. -1.
         11    1    3    3    0    0 -0.80484618155E+01  0.13497329252E+01  0.22652332821E+02  0.24077535153E+02  0.51100000000E-03 0. -1.
        -11    1    3    3    0    0 -0.39578595259E+01  0.75014042098E+01  0.15346274804E+02  0.17534077329E+02  0.51100000000E-03 0.  1.
        -12    1    3    3    0    0  0.85895643478E+01 -0.15231656929E+01  0.18484888684E+01  0.89172619402E+01  0.00000000000E+00 0.  1.
</event>
<event>
 7    1  0.5408841E-013  0.5052875E+02  0.7816164E-02  0.1300439E+00
        -11   -1    0    0    0    0  0.00000000000E+00  0.00000000000E+00  0.45593999997E+02  0.45594000000E+02  0.51100000000E-03 0.  1.
         11   -1    0    0    0    0 -0.00000000000E+00 -0.00000000000E+00 -0.45593999997E+02  0.45594000000E+02  0.51100000000E-03 0. -1.
    9900012    2    1    2    0    0 -0.79594593266E+01  0.24788491274E+02  0.31230632692E+02  0.50528748768E+02  0.29999662354E+02 0.  0.
         12    1    1    2    0    0  0.79594593266E+01 -0.24788491274E+02 -0.31230632692E+02  0.40659251232E+02  0.00000000000E+00 0. -1.
         11    1    3    3    0    0 -0.60593674846E+00  0.51449797771E+00 -0.33077168326E+01  0.34018904182E+01  0.51100000000E-03 0. -1.
        -11    1    3    3    0    0 -0.20033353976E+01 -0.32671405074E+01  0.59027466755E+01  0.70377537885E+01  0.51100000000E-03 0.  1.
        -12    1    3    3    0    0 -0.53501871805E+01  0.27541133803E+02  0.28635602849E+02  0.40089104562E+02  0.00000000000E+00 0.  1.
</event>
<event>
 7    1  0.5408841E-013  0.5052887E+02  0.7816164E-02  0.1300439E+00
        -11   -1    0    0    0    0  0.00000000000E+00  0.00000000000E+00  0.45593999997E+02  0.45594000000E+02  0.51100000000E-03 0. -1.
         11   -1    0    0    0    0 -0.00000000000E+00 -0.00000000000E+00 -0.45593999997E+02  0.45594000000E+02  0.51100000000E-03 0.  1.
    9900012    2    1    2    0    0 -0.56268328175E+01 -0.40243408138E+02  0.14042493942E+01  0.50528867416E+02  0.30000022998E+02 0.  0.
         12    1    1    2    0    0  0.56268328175E+01  0.40243408138E+02 -0.14042493942E+01  0.40659132584E+02  0.00000000000E+00 0. -1.
         11    1    3    3    0    0 -0.11624812331E+01 -0.81446637788E+01 -0.93053401737E+01  0.12420799761E+02  0.51100000000E-03 0. -1.
        -11    1    3    3    0    0 -0.17515656984E+01 -0.31717474347E+02  0.55228497290E+01  0.32242332898E+02  0.51100000000E-03 0.  1.
         12    1    3    3    0    0 -0.27127858860E+01 -0.38127001221E+00  0.51867398389E+01  0.58657347572E+01  0.00000000000E+00 0. -1.
</event>
<event>
 7    1  0.5408841E-013  0.5052889E+02  0.7816164E-02  0.1300439E+00
        -11   -1    0    0    0    0  0.00000000000E+00  0.00000000000E+00  0.45593999997E+02  0.45594000000E+02  0.51100000000E-03 0. -1.
         11   -1    0    0    0    0 -0.00000000000E+00 -0.00000000000E+00 -0.45593999997E+02  0.45594000000E+02  0.51100000000E-03 0.  1.
    9900012    2    1    2    0    0  0.23962068875E+02  0.10717339271E+02  0.31050295689E+02  0.50528893170E+02  0.30000101280E+02 0.  0.
         12    1    1    2    0    0 -0.23962068875E+02 -0.10717339271E+02 -0.31050295689E+02  0.40659106830E+02  0.00000000000E+00 0. -1.
         11    1    3    3    0    0 -0.61137936025E+00  0.14087421166E+01  0.15342989000E+02  0.15419651448E+02  0.51100000000E-03 0. -1.
        -11    1    3    3    0    0  0.17381709796E+02 -0.21323858462E+01  0.11521394461E+02  0.20962190616E+02  0.51100000000E-03 0.  1.
        -12    1    3    3    0    0  0.71917384396E+01  0.11440983001E+02  0.41859122274E+01  0.14147051106E+02  0.00000000000E+00 0.  1.
</event>
<event>
 7    1  0.5408841E-013  0.5052885E+02  0.7816164E-02  0.1300439E+00
        -11   -1    0    0    0    0  0.00000000000E+00  0.00000000000E+00  0.45593999997E+02  0.45594000000E+02  0.51100000000E-03 0.  1.
         11   -1    0    0    0    0 -0.00000000000E+00 -0.00000000000E+00 -0.45593999997E+02  0.45594000000E+02  0.51100000000E-03 0. -1.
    9900012    2    1    2    0    0  0.27076168543E+02 -0.28086245449E+02 -0.11454725336E+02  0.50528845816E+02  0.29999957343E+02 0.  0.
         12    1    1    2    0    0 -0.27076168543E+02  0.28086245449E+02  0.11454725336E+02  0.40659154184E+02  0.00000000000E+00 0. -1.
         11    1    3    3    0    0  0.57555108573E+01 -0.10443458594E+02 -0.87337035047E+01  0.14780707351E+02  0.51100000000E-03 0. -1.
        -11    1    3    3    0    0 -0.26668555857E+01  0.24838027829E+01 -0.25272670151E+01  0.44349153099E+01  0.51100000000E-03 0.  1.
        -12    1    3    3    0    0  0.23987513272E+02 -0.20126589639E+02 -0.19375481621E+00  0.31313223155E+02  0.00000000000E+00 0.  1.
</event>
<event>
 7    1  0.5408841E-013  0.5052885E+02  0.7816164E-02  0.1300439E+00
        -11   -1    0    0    0    0  0.00000000000E+00  0.00000000000E+00  0.45593999997E+02  0.45594000000E+02  0.51100000000E-03 0. -1.
         11   -1    0    0    0    0 -0.00000000000E+00 -0.00000000000E+00 -0.45593999997E+02  0.45594000000E+02  0.51100000000E-03 0.  1.
    9900012    2    1    2    0    0 -0.56408291682E+01 -0.11300721637E+02 -0.38647657963E+02  0.50528846920E+02  0.29999960697E+02 0.  0.
         12    1    1    2    0    0  0.56408291682E+01  0.11300721637E+02  0.38647657963E+02  0.40659153080E+02  0.00000000000E+00 0. -1.
         11    1    3    3    0    0  0.80685598337E+01 -0.33894374271E+01 -0.84313858622E+01  0.12152292446E+02  0.51100000000E-03 0. -1.
        -11    1    3    3    0    0  0.19904165263E+01  0.30146675844E+01 -0.95831136004E+01  0.10241388828E+02  0.51100000000E-03 0.  1.
         12    1    3    3    0    0 -0.15699805528E+02 -0.10925951794E+02 -0.20633158500E+02  0.28135165646E+02  0.00000000000E+00 0. -1.
</event>
<event>
 7    1  0.5408841E-013  0.5052887E+02  0.7816164E-02  0.1300439E+00
        -11   -1    0    0    0    0  0.00000000000E+00  0.00000000000E+00  0.45593999997E+02  0.45594000000E+02  0.51100000000E-03 0.  1.
         11   -1    0    0    0    0 -0.00000000000E+00 -0.00000000000E+00 -0.45593999997E+02  0.45594000000E+02  0.51100000000E-03 0. -1.
    9900012    2    1    2    0    0 -0.10602903835E+02  0.77348468697E+01  0.38482666163E+02  0.50528867928E+02  0.30000024553E+02 0.  0.
         12    1    1    2    0    0  0.10602903835E+02 -0.77348468697E+01 -0.38482666163E+02  0.40659132072E+02  0.00000000000E+00 0. -1.
         11    1    3    3    0    0  0.31455623999E+01  0.12236213299E+02  0.83308638875E+01  0.15133498343E+02  0.51100000000E-03 0. -1.
        -11    1    3    3    0    0 -0.25357076468E-01  0.24535336832E+01  0.84112059121E+01  0.87617838180E+01  0.51100000000E-03 0.  1.
         12    1    3    3    0    0 -0.13723109158E+02 -0.69549001128E+01  0.21740596364E+02  0.26633585767E+02  0.00000000000E+00 0. -1.
</event>
<event>
 7    1  0.5408841E-013  0.5052886E+02  0.7816164E-02  0.1300439E+00
        -11   -1    0    0    0    0  0.00000000000E+00  0.00000000000E+00  0.45593999997E+02  0.45594000000E+02  0.51100000000E-03 0.  1.
         11   -1    0    0    0    0 -0.00000000000E+00 -0.00000000000E+00 -0.45593999997E+02  0.45594000000E+02  0.51100000000E-03 0. -1.
    9900012    2    1    2    0    0 -0.12906038959E+02  0.11032794125E+02  0.36944250712E+02  0.50528855291E+02  0.29999986142E+02 0.  0.
         12    1    1    2    0    0  0.12906038959E+02 -0.11032794125E+02 -0.36944250712E+02  0.40659144709E+02  0.00000000000E+00 0. -1.
         11    1    3    3    0    0 -0.24082813877E+01 -0.27740439117E+01  0.10280095379E+02  0.10916753187E+02  0.51100000000E-03 0. -1.
        -11    1    3    3    0    0 -0.20834272107E+01 -0.21156821283E+01  0.20293238659E+02  0.20509322645E+02  0.51100000000E-03 0.  1.
        -12    1    3    3    0    0 -0.84143303603E+01  0.15922520165E+02  0.63709166734E+01  0.19102779459E+02  0.00000000000E+00 0.  1.
</event>
<event>
 7    1  0.5408841E-013  0.5052886E+02  0.7816164E-02  0.1300439E+00
        -11   -1    0    0    0    0  0.00000000000E+00  0.00000000000E+00  0.45593999997E+02  0.45594000000E+02  0.51100000000E-03 0.  1.
         11   -1    0    0    0    0 -0.00000000000E+00 -0.00000000000E+00 -0.45593999997E+02  0.45594000000E+02  0.51100000000E-03 0. -1.
    9900012    2    1    2    0    0 -0.13618352293E+02 -0.26202441210E+02  0.27948853088E+02  0.50528857935E+02  0.29999994178E+02 0.  0.
         12    1    1    2    0    0  0.13618352293E+02  0.26202441210E+02 -0.27948853088E+02  0.40659142065E+02  0.00000000000E+00 0. -1.
         11    1    3    3    0    0 -0.22820867563E+01 -0.59826466275E+01  0.91136506138E+01  0.11138160010E+02  0.51100000000E-03 0. -1.
        -11    1    3    3    0    0 -0.10233113142E+02 -0.70081136715E+00  0.16868106194E+02  0.19741852699E+02  0.51100000000E-03 0.  1.
         12    1    3    3    0    0 -0.11031523951E+01 -0.19518983215E+02  0.19670962808E+01  0.19648845226E+02  0.00000000000E+00 0. -1.
</event>
<event>
 7    1  0.5408841E-013  0.5052886E+02  0.7816164E-02  0.1300439E+00
        -11   -1    0    0    0    0  0.00000000000E+00  0.00000000000E+00  0.45593999997E+02  0.45594000000E+02  0.51100000000E-03 0.  1.
         11   -1    0    0    0    0 -0.00000000000E+00 -0.00000000000E+00 -0.45593999997E+02  0.45594000000E+02  0.51100000000E-03 0. -1.
    9900012    2    1    2    0    0  0.19437478747E+02 -0.51372487482E+01  0.35340608473E+02  0.50528861888E+02  0.30000006196E+02 0.  0.
         12    1    1    2    0    0 -0.19437478747E+02  0.51372487482E+01 -0.35340608473E+02  0.40659138112E+02  0.00000000000E+00 0. -1.
         11    1    3    3    0    0  0.51882354397E+01  0.70057280179E+01  0.14872760704E+02  0.17239403217E+02  0.51100000000E-03 0. -1.
        -11    1    3    3    0    0  0.69006870508E+01  0.42902375213E+01  0.48899792345E+01  0.94835392621E+01  0.51100000000E-03 0.  1.
        -12    1    3    3    0    0  0.73485562567E+01 -0.16433214287E+02  0.15577868534E+02  0.23805919410E+02  0.00000000000E+00 0.  1.
</event>
<event>
 7    1  0.5408841E-013  0.5052886E+02  0.7816164E-02  0.1300439E+00
        -11   -1    0    0    0    0  0.00000000000E+00  0.00000000000E+00  0.45593999997E+02  0.45594000000E+02  0.51100000000E-03 0. -1.
         11   -1    0    0    0    0 -0.00000000000E+00 -0.00000000000E+00 -0.45593999997E+02  0.45594000000E+02  0.51100000000E-03 0.  1.
    9900012    2    1    2    0    0 -0.35956653565E+02 -0.16054015219E+02 -0.10126851900E+02  0.50528862409E+02  0.30000007779E+02 0.  0.
         12    1    1    2    0    0  0.35956653565E+02  0.16054015219E+02  0.10126851900E+02  0.40659137591E+02  0.00000000000E+00 0. -1.
         11    1    3    3    0    0 -0.23434804356E+02 -0.74333324768E+01 -0.11168836333E+02  0.27003470003E+02  0.51100000000E-03 0. -1.
        -11    1    3    3    0    0 -0.12349099847E+02 -0.29555404516E+00 -0.49071418610E+01  0.13291638753E+02  0.51100000000E-03 0.  1.
         12    1    3    3    0    0 -0.17274936165E+00 -0.83251286971E+01  0.59491262944E+01  0.10233753653E+02  0.00000000000E+00 0. -1.
</event>
<event>
 7    1  0.5408841E-013  0.5052886E+02  0.7816164E-02  0.1300439E+00
        -11   -1    0    0    0    0  0.00000000000E+00  0.00000000000E+00  0.45593999997E+02  0.45594000000E+02  0.51100000000E-03 0.  1.
         11   -1    0    0    0    0 -0.00000000000E+00 -0.00000000000E+00 -0.45593999997E+02  0.45594000000E+02  0.51100000000E-03 0. -1.
    9900012    2    1    2    0    0  0.13821334296E+02 -0.11083695028E+02  0.36596287510E+02  0.50528857895E+02  0.29999994057E+02 0.  0.
         12    1    1    2    0    0 -0.13821334296E+02  0.11083695028E+02 -0.36596287510E+02  0.40659142105E+02  0.00000000000E+00 0. -1.
         11    1    3    3    0    0 -0.13860502578E+01 -0.47750761658E+01  0.34683260260E+01  0.60623240915E+01  0.51100000000E-03 0. -1.
        -11    1    3    3    0    0 -0.46785300215E+01 -0.46151559599E+01  0.18751590300E+02  0.19869837613E+02  0.51100000000E-03 0.  1.
        -12    1    3    3    0    0  0.19885914575E+02 -0.16934629023E+01  0.14376371184E+02  0.24596696191E+02  0.00000000000E+00 0.  1.
</event>
<event>
 7    1  0.5408841E-013  0.5052887E+02  0.7816164E-02  0.1300439E+00
        -11   -1    0    0    0    0  0.00000000000E+00  0.00000000000E+00  0.45593999997E+02  0.45594000000E+02  0.51100000000E-03 0. -1.
         11   -1    0    0    0    0 -0.00000000000E+00 -0.00000000000E+00 -0.45593999997E+02  0.45594000000E+02  0.51100000000E-03 0.  1.
    9900012    2    1    2    0    0 -0.22235806117E+02 -0.33926298596E+02 -0.27821112858E+01  0.50528868759E+02  0.30000027079E+02 0.  0.
         12    1    1    2    0    0  0.22235806117E+02  0.33926298596E+02  0.27821112858E+01  0.40659131241E+02  0.00000000000E+00 0. -1.
         11    1    3    3    0    0  0.32288917561E+01 -0.57020970040E+01 -0.33250650935E+01  0.73481773490E+01  0.51100000000E-03 0. -1.
        -11    1    3    3    0    0  0.27648270515E+01 -0.63069897406E+00 -0.22305679217E+01  0.36079749632E+01  0.51100000000E-03 0.  1.
         12    1    3    3    0    0 -0.28229524925E+02 -0.27593502618E+02  0.27735217294E+01  0.39572716447E+02  0.00000000000E+00 0. -1.
</event>
<event>
 7    1  0.5408841E-013  0.5052885E+02  0.7816164E-02  0.1300439E+00
        -11   -1    0    0    0    0  0.00000000000E+00  0.00000000000E+00  0.45593999997E+02  0.45594000000E+02  0.51100000000E-03 0. -1.
         11   -1    0    0    0    0 -0.00000000000E+00 -0.00000000000E+00 -0.45593999997E+02  0.45594000000E+02  0.51100000000E-03 0.  1.
    9900012    2    1    2    0    0 -0.30056589555E+02 -0.17116882465E+02 -0.21372413895E+02  0.50528851993E+02  0.29999976118E+02 0.  0.
         12    1    1    2    0    0  0.30056589555E+02  0.17116882465E+02  0.21372413895E+02  0.40659148007E+02  0.00000000000E+00 0. -1.
         11    1    3    3    0    0  0.32412251624E+01 -0.39735260635E+01 -0.19940605635E+01  0.55018840157E+01  0.51100000000E-03 0. -1.
        -11    1    3    3    0    0  0.18047550696E+01  0.15154410839E+01 -0.48467030123E-01  0.23571278824E+01  0.51100000000E-03 0.  1.
        -12    1    3    3    0    0 -0.35102569786E+02 -0.14658797485E+02 -0.19329886301E+02  0.42669840095E+02  0.00000000000E+00 0.  1.
</event>
<event>
 7    1  0.5408841E-013  0.5052885E+02  0.7816164E-02  0.1300439E+00
        -11   -1    0    0    0    0  0.00000000000E+00  0.00000000000E+00  0.45593999997E+02  0.45594000000E+02  0.51100000000E-03 0. -1.
         11   -1    0    0    0    0 -0.00000000000E+00 -0.00000000000E+00 -0.45593999997E+02  0.45594000000E+02  0.51100000000E-03 0.  1.
    9900012    2    1    2    0    0  0.22809350370E+02  0.87420926299E+01 -0.32503467895E+02  0.50528854989E+02  0.29999985224E+02 0.  0.
         12    1    1    2    0    0 -0.22809350370E+02 -0.87420926299E+01  0.32503467895E+02  0.40659145011E+02  0.00000000000E+00 0. -1.
         11    1    3    3    0    0  0.18230059646E+01  0.63516338298E+01 -0.39216880670E+01  0.76841551657E+01  0.51100000000E-03 0. -1.
        -11    1    3    3    0    0 -0.38687459952E+01  0.53948619637E+01 -0.82733239422E+01  0.10607526596E+02  0.51100000000E-03 0.  1.
        -12    1    3    3    0    0  0.24855090401E+02 -0.30044031636E+01 -0.20308455885E+02  0.32237173227E+02  0.00000000000E+00 0.  1.
</event>
<event>
 7    1  0.5408841E-013  0.5052887E+02  0.7816164E-02  0.1300439E+00
        -11   -1    0    0    0    0  0.00000000000E+00  0.00000000000E+00  0.45593999997E+02  0.45594000000E+02  0.51100000000E-03 0.  1.
         11   -1    0    0    0    0 -0.00000000000E+00 -0.00000000000E+00 -0.45593999997E+02  0.45594000000E+02  0.51100000000E-03 0. -1.
    9900012    2    1    2    0    0 -0.20651182001E+02  0.59054736690E+01  0.34522731208E+02  0.50528869324E+02  0.30000028797E+02 0.  0.
         12    1    1    2    0    0  0.20651182001E+02 -0.59054736690E+01 -0.34522731208E+02  0.40659130676E+02  0.00000000000E+00 0. -1.
         11    1    3    3    0    0 -0.94604894558E+01 -0.56772926597E+01  0.98643352117E+01  0.14799919666E+02  0.51100000000E-03 0. -1.
        -11    1    3    3    0    0 -0.14639247874E+02  0.98133421430E+00  0.13080761464E+02  0.19656472621E+02  0.51100000000E-03 0.  1.
         12    1    3    3    0    0  0.34485553292E+01  0.10601432114E+02  0.11577634532E+02  0.16072477036E+02  0.00000000000E+00 0. -1.
</event>
<event>
 7    1  0.5408841E-013  0.5052886E+02  0.7816164E-02  0.1300439E+00
        -11   -1    0    0    0    0  0.00000000000E+00  0.00000000000E+00  0.45593999997E+02  0.45594000000E+02  0.51100000000E-03 0.  1.
         11   -1    0    0    0    0 -0.00000000000E+00 -0.00000000000E+00 -0.45593999997E+02  0.45594000000E+02  0.51100000000E-03 0. -1.
    9900012    2    1    2    0    0  0.74867770959E+01  0.23891516073E+02  0.32036063154E+02  0.50528859405E+02  0.29999998648E+02 0.  0.
         12    1    1    2    0    0 -0.74867770959E+01 -0.23891516073E+02 -0.32036063154E+02  0.40659140595E+02  0.00000000000E+00 0. -1.
         11    1    3    3    0    0  0.14128278513E+02  0.13152499405E+02  0.17509135584E+02  0.26060819701E+02  0.51100000000E-03 0. -1.
        -11    1    3    3    0    0  0.38432617411E+01  0.36651262218E+01  0.14078854601E+00  0.53125919011E+01  0.51100000000E-03 0.  1.
         12    1    3    3    0    0 -0.10484763158E+02  0.70738904459E+01  0.14386139024E+02  0.19155447803E+02  0.00000000000E+00 0. -1.
</event>
<event>
 7    1  0.5408841E-013  0.5052885E+02  0.7816164E-02  0.1300439E+00
        -11   -1    0    0    0    0  0.00000000000E+00  0.00000000000E+00  0.45593999997E+02  0.45594000000E+02  0.51100000000E-03 0.  1.
         11   -1    0    0    0    0 -0.00000000000E+00 -0.00000000000E+00 -0.45593999997E+02  0.45594000000E+02  0.51100000000E-03 0. -1.
    9900012    2    1    2    0    0 -0.44721304832E+01  0.26438202239E+02  0.30564492190E+02  0.50528847629E+02  0.29999962852E+02 0.  0.
         12    1    1    2    0    0  0.44721304832E+01 -0.26438202239E+02 -0.30564492190E+02  0.40659152371E+02  0.00000000000E+00 0. -1.
         11    1    3    3    0    0  0.34788833232E-01  0.14351550485E+02  0.74371172473E+01  0.16164124622E+02  0.51100000000E-03 0. -1.
        -11    1    3    3    0    0  0.49856901832E+01  0.12281818157E+02  0.55161719517E+01  0.14357169537E+02  0.51100000000E-03 0.  1.
        -12    1    3    3    0    0 -0.94926094997E+01 -0.19516640331E+00  0.17611202991E+02  0.20007553470E+02  0.00000000000E+00 0.  1.
</event>
<event>
 7    1  0.5408841E-013  0.5052888E+02  0.7816164E-02  0.1300439E+00
        -11   -1    0    0    0    0  0.00000000000E+00  0.00000000000E+00  0.45593999997E+02  0.45594000000E+02  0.51100000000E-03 0. -1.
         11   -1    0    0    0    0 -0.00000000000E+00 -0.00000000000E+00 -0.45593999997E+02  0.45594000000E+02  0.51100000000E-03 0.  1.
    9900012    2    1    2    0    0  0.32844553191E+02  0.34399043530E+01  0.23718485626E+02  0.50528878309E+02  0.30000056109E+02 0.  0.
         12    1    1    2    0    0 -0.32844553191E+02 -0.34399043530E+01 -0.23718485626E+02  0.40659121691E+02  0.00000000000E+00 0. -1.
         11    1    3    3    0    0  0.45141295646E+01 -0.37680033905E+01 -0.28171356817E+01  0.65200819770E+01  0.51100000000E-03 0. -1.
        -11    1    3    3    0    0  0.25611948884E+01  0.32223047095E+01 -0.26312609342E+01  0.48853353275E+01  0.51100000000E-03 0.  1.
         12    1    3    3    0    0  0.25769228738E+02  0.39856030341E+01  0.29166882242E+02  0.39123461005E+02  0.00000000000E+00 0. -1.
</event>
<event>
 7    1  0.5408841E-013  0.5052887E+02  0.7816164E-02  0.1300439E+00
        -11   -1    0    0    0    0  0.00000000000E+00  0.00000000000E+00  0.45593999997E+02  0.45594000000E+02  0.51100000000E-03 0.  1.
         11   -1    0    0    0    0 -0.00000000000E+00 -0.00000000000E+00 -0.45593999997E+02  0.45594000000E+02  0.51100000000E-03 0. -1.
    9900012    2    1    2    0    0 -0.29893516035E+02 -0.20392319785E+02 -0.18539044035E+02  0.50528866206E+02  0.30000019321E+02 0.  0.
         12    1    1    2    0    0  0.29893516035E+02  0.20392319785E+02  0.18539044035E+02  0.40659133794E+02  0.00000000000E+00 0. -1.
         11    1    3    3    0    0 -0.14102479054E+01  0.31486498717E+01  0.31199930722E+01  0.46515752386E+01  0.51100000000E-03 0. -1.
        -11    1    3    3    0    0  0.25240892994E+00 -0.61290664958E+00  0.20356723452E+01  0.21408706143E+01  0.51100000000E-03 0.  1.
        -12    1    3    3    0    0 -0.28735677059E+02 -0.22928063007E+02 -0.23694709452E+02  0.43736420353E+02  0.00000000000E+00 0.  1.
</event>
<event>
 7    1  0.5408841E-013  0.5052886E+02  0.7816164E-02  0.1300439E+00
        -11   -1    0    0    0    0  0.00000000000E+00  0.00000000000E+00  0.45593999997E+02  0.45594000000E+02  0.51100000000E-03 0. -1.
         11   -1    0    0    0    0 -0.00000000000E+00 -0.00000000000E+00 -0.45593999997E+02  0.45594000000E+02  0.51100000000E-03 0.  1.
    9900012    2    1    2    0    0  0.33058157376E+02 -0.22719829722E+02 -0.66432889833E+01  0.50528859328E+02  0.29999998412E+02 0.  0.
         12    1    1    2    0    0 -0.33058157376E+02  0.22719829722E+02  0.66432889833E+01  0.40659140672E+02  0.00000000000E+00 0. -1.
         11    1    3    3    0    0  0.14614530097E+02  0.11463175123E+01  0.46527216939E+01  0.15380063499E+02  0.51100000000E-03 0. -1.
        -11    1    3    3    0    0  0.48533687987E+01  0.67763609629E+00 -0.35272469561E+01  0.60378680613E+01  0.51100000000E-03 0.  1.
        -12    1    3    3    0    0  0.13590258480E+02 -0.24543783330E+02 -0.77687637212E+01  0.29110927767E+02  0.00000000000E+00 0.  1.
</event>
<event>
 7    1  0.5408841E-013  0.5052886E+02  0.7816164E-02  0.1300439E+00
        -11   -1    0    0    0    0  0.00000000000E+00  0.00000000000E+00  0.45593999997E+02  0.45594000000E+02  0.51100000000E-03 0.  1.
         11   -1    0    0    0    0 -0.00000000000E+00 -0.00000000000E+00 -0.45593999997E+02  0.45594000000E+02  0.51100000000E-03 0. -1.
    9900012    2    1    2    0    0 -0.26396106343E+02 -0.30739043498E+02 -0.33944326831E+01  0.50528863284E+02  0.30000010438E+02 0.  0.
         12    1    1    2    0    0  0.26396106343E+02  0.30739043498E+02  0.33944326831E+01  0.40659136716E+02  0.00000000000E+00 0. -1.
         11    1    3    3    0    0  0.40501897351E+00  0.34849868563E+01  0.28453971697E+01  0.45172402053E+01  0.51100000000E-03 0. -1.
        -11    1    3    3    0    0 -0.73534099394E+00 -0.33943145324E+01  0.30073487920E+01  0.45941532996E+01  0.51100000000E-03 0.  1.
        -12    1    3    3    0    0 -0.26065784322E+02 -0.30829715822E+02 -0.92471786449E+01  0.41417469779E+02  0.00000000000E+00 0.  1.
</event>
<event>
 7    1  0.5408841E-013  0.5052889E+02  0.7816164E-02  0.1300439E+00
        -11   -1    0    0    0    0  0.00000000000E+00  0.00000000000E+00  0.45593999997E+02  0.45594000000E+02  0.51100000000E-03 0. -1.
         11   -1    0    0    0    0 -0.00000000000E+00 -0.00000000000E+00 -0.45593999997E+02  0.45594000000E+02  0.51100000000E-03 0.  1.
    9900012    2    1    2    0    0 -0.91332878909E+01  0.35899357118E+02 -0.16762526402E+02  0.50528891789E+02  0.30000097080E+02 0.  0.
         12    1    1    2    0    0  0.91332878909E+01 -0.35899357118E+02  0.16762526402E+02  0.40659108211E+02  0.00000000000E+00 0. -1.
         11    1    3    3    0    0 -0.33852806640E+01  0.45800570466E+00 -0.97615876978E+01  0.10342073730E+02  0.51100000000E-03 0. -1.
        -11    1    3    3    0    0 -0.10550472590E+02  0.20166458740E+02 -0.80478890122E+01  0.24140568506E+02  0.51100000000E-03 0.  1.
         12    1    3    3    0    0  0.48024653636E+01  0.15274892673E+02  0.10469503075E+01  0.16046249552E+02  0.00000000000E+00 0. -1.
</event>
<event>
 7    1  0.5408841E-013  0.5052886E+02  0.7816164E-02  0.1300439E+00
        -11   -1    0    0    0    0  0.00000000000E+00  0.00000000000E+00  0.45593999997E+02  0.45594000000E+02  0.51100000000E-03 0. -1.
         11   -1    0    0    0    0 -0.00000000000E+00 -0.00000000000E+00 -0.45593999997E+02  0.45594000000E+02  0.51100000000E-03 0.  1.
    9900012    2    1    2    0    0 -0.33593801004E+02 -0.17908994024E+02 -0.14279010431E+02  0.50528859924E+02  0.30000000224E+02 0.  0.
         12    1    1    2    0    0  0.33593801004E+02  0.17908994024E+02  0.14279010431E+02  0.40659140076E+02  0.00000000000E+00 0. -1.
         11    1    3    3    0    0 -0.15734333977E+01  0.38914597042E+01 -0.24658584426E+01  0.48682244614E+01  0.51100000000E-03 0. -1.
        -11    1    3    3    0    0 -0.19611447916E+02 -0.13237947597E+02 -0.17623635223E+02  0.29503299217E+02  0.51100000000E-03 0.  1.
         12    1    3    3    0    0 -0.12408919690E+02 -0.85625061318E+01  0.58104832341E+01  0.16157336245E+02  0.00000000000E+00 0. -1.
</event>
<event>
 7    1  0.5408841E-013  0.5052886E+02  0.7816164E-02  0.1300439E+00
        -11   -1    0    0    0    0  0.00000000000E+00  0.00000000000E+00  0.45593999997E+02  0.45594000000E+02  0.51100000000E-03 0.  1.
         11   -1    0    0    0    0 -0.00000000000E+00 -0.00000000000E+00 -0.45593999997E+02  0.45594000000E+02  0.51100000000E-03 0. -1.
    9900012    2    1    2    0    0  0.24728709012E+02 -0.19087873088E+02  0.26025177543E+02  0.50528858167E+02  0.29999994885E+02 0.  0.
         12    1    1    2    0    0 -0.24728709012E+02  0.19087873088E+02 -0.26025177543E+02  0.40659141833E+02  0.00000000000E+00 0. -1.
         11    1    3    3    0    0  0.13353071941E+02 -0.45169952057E+01  0.11708905531E+01  0.14144919968E+02  0.51100000000E-03 0. -1.
        -11    1    3    3    0    0 -0.21504904073E+01  0.34298429857E+01  0.40962863591E+01  0.57591660938E+01  0.51100000000E-03 0.  1.
        -12    1    3    3    0    0  0.13526127478E+02 -0.18000720868E+02  0.20758000631E+02  0.30624772106E+02  0.00000000000E+00 0.  1.
</event>
<event>
 7    1  0.5408841E-013  0.5052890E+02  0.7816164E-02  0.1300439E+00
        -11   -1    0    0    0    0  0.00000000000E+00  0.00000000000E+00  0.45593999997E+02  0.45594000000E+02  0.51100000000E-03 0. -1.
         11   -1    0    0    0    0 -0.00000000000E+00 -0.00000000000E+00 -0.45593999997E+02  0.45594000000E+02  0.51100000000E-03 0.  1.
    9900012    2    1    2    0    0 -0.33628037928E+02 -0.17526676323E+02  0.14667422151E+02  0.50528897816E+02  0.30000115402E+02 0.  0.
         12    1    1    2    0    0  0.33628037928E+02  0.17526676323E+02 -0.14667422151E+02  0.40659102184E+02  0.00000000000E+00 0. -1.
         11    1    3    3    0    0 -0.28133613056E+02 -0.10016400805E+02  0.18694161211E+02  0.35232089526E+02  0.51100000000E-03 0. -1.
        -11    1    3    3    0    0 -0.74443913121E+01 -0.11196471740E+01 -0.63678001773E-01  0.75283880712E+01  0.51100000000E-03 0.  1.
         12    1    3    3    0    0  0.19499664402E+01 -0.63906283441E+01 -0.39630610583E+01  0.77684202192E+01  0.00000000000E+00 0. -1.
</event>
<event>
 7    1  0.5408841E-013  0.5052889E+02  0.7816164E-02  0.1300439E+00
        -11   -1    0    0    0    0  0.00000000000E+00  0.00000000000E+00  0.45593999997E+02  0.45594000000E+02  0.51100000000E-03 0.  1.
         11   -1    0    0    0    0 -0.00000000000E+00 -0.00000000000E+00 -0.45593999997E+02  0.45594000000E+02  0.51100000000E-03 0. -1.
    9900012    2    1    2    0    0 -0.30816653571E+02  0.56136598302E+01  0.25922646506E+02  0.50528893813E+02  0.30000103235E+02 0.  0.
         12    1    1    2    0    0  0.30816653571E+02 -0.56136598302E+01 -0.25922646506E+02  0.40659106187E+02  0.00000000000E+00 0. -1.
         11    1    3    3    0    0 -0.10945560879E+01  0.36264128377E+01  0.17286101902E+01  0.41637743154E+01  0.51100000000E-03 0. -1.
        -11    1    3    3    0    0  0.84966264229E-01  0.89112370476E+01  0.46004738296E+01  0.10029044057E+02  0.51100000000E-03 0.  1.
         12    1    3    3    0    0 -0.29807063747E+02 -0.69239900550E+01  0.19593562487E+02  0.36336075441E+02  0.00000000000E+00 0. -1.
</event>
<event>
 7    1  0.5408841E-013  0.5052885E+02  0.7816164E-02  0.1300439E+00
        -11   -1    0    0    0    0  0.00000000000E+00  0.00000000000E+00  0.45593999997E+02  0.45594000000E+02  0.51100000000E-03 0.  1.
         11   -1    0    0    0    0 -0.00000000000E+00 -0.00000000000E+00 -0.45593999997E+02  0.45594000000E+02  0.51100000000E-03 0. -1.
    9900012    2    1    2    0    0  0.27818782977E+01 -0.17646293423E+02  0.36524454765E+02  0.50528852022E+02  0.29999976205E+02 0.  0.
         12    1    1    2    0    0 -0.27818782977E+01  0.17646293423E+02 -0.36524454765E+02  0.40659147978E+02  0.00000000000E+00 0. -1.
         11    1    3    3    0    0 -0.61075183776E+01 -0.43272095335E+00  0.28861869950E+01  0.67689810006E+01  0.51100000000E-03 0. -1.
        -11    1    3    3    0    0 -0.71690147532E+00  0.38607520627E+01  0.96363891073E+01  0.10405736375E+02  0.51100000000E-03 0.  1.
        -12    1    3    3    0    0  0.96062981506E+01 -0.21074324533E+02  0.24001878663E+02  0.33354134646E+02  0.00000000000E+00 0.  1.
</event>
<event>
 7    1  0.5408841E-013  0.5052887E+02  0.7816164E-02  0.1300439E+00
        -11   -1    0    0    0    0  0.00000000000E+00  0.00000000000E+00  0.45593999997E+02  0.45594000000E+02  0.51100000000E-03 0. -1.
         11   -1    0    0    0    0 -0.00000000000E+00 -0.00000000000E+00 -0.45593999997E+02  0.45594000000E+02  0.51100000000E-03 0.  1.
    9900012    2    1    2    0    0  0.37878650669E+02 -0.12606024620E+02  0.77111084129E+01  0.50528865403E+02  0.30000016878E+02 0.  0.
         12    1    1    2    0    0 -0.37878650669E+02  0.12606024620E+02 -0.77111084129E+01  0.40659134597E+02  0.00000000000E+00 0. -1.
         11    1    3    3    0    0  0.71769109599E+01  0.30492116920E+01  0.87763729430E+00  0.78470370427E+01  0.51100000000E-03 0. -1.
        -11    1    3    3    0    0  0.31522141773E+02 -0.58027685019E+01  0.34713802649E+01  0.32239231154E+02  0.51100000000E-03 0.  1.
         12    1    3    3    0    0 -0.82040206304E+00 -0.98524678100E+01  0.33620908537E+01  0.10442597206E+02  0.00000000000E+00 0. -1.
</event>
<event>
 7    1  0.5408841E-013  0.5052886E+02  0.7816164E-02  0.1300439E+00
        -11   -1    0    0    0    0  0.00000000000E+00  0.00000000000E+00  0.45593999997E+02  0.45594000000E+02  0.51100000000E-03 0.  1.
         11   -1    0    0    0    0 -0.00000000000E+00 -0.00000000000E+00 -0.45593999997E+02  0.45594000000E+02  0.51100000000E-03 0. -1.
    9900012    2    1    2    0    0 -0.12726917115E+02 -0.24806562310E+02  0.29594351928E+02  0.50528860573E+02  0.30000002198E+02 0.  0.
         12    1    1    2    0    0  0.12726917115E+02  0.24806562310E+02 -0.29594351928E+02  0.40659139427E+02  0.00000000000E+00 0. -1.
         11    1    3    3    0    0 -0.13871153163E+02 -0.18530648448E+02  0.30195807420E+02  0.38047084093E+02  0.51100000000E-03 0. -1.
        -11    1    3    3    0    0 -0.32008658076E+00 -0.58642328336E+01  0.43457742208E+01  0.73059863116E+01  0.51100000000E-03 0.  1.
         12    1    3    3    0    0  0.14643226283E+01 -0.41168102811E+00 -0.49472297134E+01  0.51757901683E+01  0.00000000000E+00 0. -1.
</event>
<event>
 7    1  0.5408841E-013  0.5052886E+02  0.7816164E-02  0.1300439E+00
        -11   -1    0    0    0    0  0.00000000000E+00  0.00000000000E+00  0.45593999997E+02  0.45594000000E+02  0.51100000000E-03 0.  1.
         11   -1    0    0    0    0 -0.00000000000E+00 -0.00000000000E+00 -0.45593999997E+02  0.45594000000E+02  0.51100000000E-03 0. -1.
    9900012    2    1    2    0    0  0.28765307843E+02 -0.23680218768E+02  0.16277900829E+02  0.50528858942E+02  0.29999997240E+02 0.  0.
         12    1    1    2    0    0 -0.28765307843E+02  0.23680218768E+02 -0.16277900829E+02  0.40659141058E+02  0.00000000000E+00 0. -1.
         11    1    3    3    0    0 -0.16882106350E+01  0.26259922853E+01 -0.11477279274E+01  0.33261344361E+01  0.51100000000E-03 0. -1.
        -11    1    3    3    0    0  0.15429526328E+00 -0.67034036268E+01 -0.83705140812E+00  0.67572244696E+01  0.51100000000E-03 0.  1.
        -12    1    3    3    0    0  0.30299223215E+02 -0.19602807426E+02  0.18262680164E+02  0.40445500036E+02  0.00000000000E+00 0.  1.
</event>
<event>
 7    1  0.5408841E-013  0.5052874E+02  0.7816164E-02  0.1300439E+00
        -11   -1    0    0    0    0  0.00000000000E+00  0.00000000000E+00  0.45593999997E+02  0.45594000000E+02  0.51100000000E-03 0.  1.
         11   -1    0    0    0    0 -0.00000000000E+00 -0.00000000000E+00 -0.45593999997E+02  0.45594000000E+02  0.51100000000E-03 0. -1.
    9900012    2    1    2    0    0 -0.28695345018E+02 -0.57324812140E+00  0.28799715610E+02  0.50528744494E+02  0.29999649362E+02 0.  0.
         12    1    1    2    0    0  0.28695345018E+02  0.57324812140E+00 -0.28799715610E+02  0.40659255506E+02  0.00000000000E+00 0. -1.
         11    1    3    3    0    0 -0.77345985057E+00  0.50001883608E+01  0.24224079382E+01  0.56096509931E+01  0.51100000000E-03 0. -1.
        -11    1    3    3    0    0 -0.80379752795E+01  0.28034170249E+00  0.22417412804E+02  0.23816549606E+02  0.51100000000E-03 0.  1.
         12    1    3    3    0    0 -0.19883909888E+02 -0.58537781847E+01  0.39598948678E+01  0.21102543895E+02  0.00000000000E+00 0. -1.
</event>
<event>
 7    1  0.5408841E-013  0.5052887E+02  0.7816164E-02  0.1300439E+00
        -11   -1    0    0    0    0  0.00000000000E+00  0.00000000000E+00  0.45593999997E+02  0.45594000000E+02  0.51100000000E-03 0.  1.
         11   -1    0    0    0    0 -0.00000000000E+00 -0.00000000000E+00 -0.45593999997E+02  0.45594000000E+02  0.51100000000E-03 0. -1.
    9900012    2    1    2    0    0  0.11190915219E+02  0.39032983537E+02 -0.20867330568E+01  0.50528870126E+02  0.30000031236E+02 0.  0.
         12    1    1    2    0    0 -0.11190915219E+02 -0.39032983537E+02  0.20867330568E+01  0.40659129874E+02  0.00000000000E+00 0. -1.
         11    1    3    3    0    0 -0.19536462204E+01  0.96942688913E+01  0.37415116431E+01  0.10573291471E+02  0.51100000000E-03 0. -1.
        -11    1    3    3    0    0  0.68840325352E+01  0.28436255978E+02 -0.11522460985E+02  0.31444835274E+02  0.51100000000E-03 0.  1.
         12    1    3    3    0    0  0.62605289041E+01  0.90245866760E+00  0.56942162849E+01  0.85107433815E+01  0.00000000000E+00 0. -1.
</event>
<event>
 7    1  0.5408841E-013  0.5052887E+02  0.7816164E-02  0.1300439E+00
        -11   -1    0    0    0    0  0.00000000000E+00  0.00000000000E+00  0.45593999997E+02  0.45594000000E+02  0.51100000000E-03 0.  1.
         11   -1    0    0    0    0 -0.00000000000E+00 -0.00000000000E+00 -0.45593999997E+02  0.45594000000E+02  0.51100000000E-03 0. -1.
    9900012    2    1    2    0    0  0.24035572998E+02 -0.32243361192E+02 -0.59851396225E+01  0.50528868104E+02  0.30000025088E+02 0.  0.
         12    1    1    2    0    0 -0.24035572998E+02  0.32243361192E+02  0.59851396225E+01  0.40659131896E+02  0.00000000000E+00 0. -1.
         11    1    3    3    0    0  0.36766141836E+01 -0.12915091086E+02 -0.10639046522E+02  0.17132027924E+02  0.51100000000E-03 0. -1.
        -11    1    3    3    0    0  0.90960335802E+01 -0.52710412168E+01 -0.63567734345E+01  0.12285368174E+02  0.51100000000E-03 0.  1.
         12    1    3    3    0    0  0.11262925234E+02 -0.14057228889E+02  0.11010680334E+02  0.21111472006E+02  0.00000000000E+00 0. -1.
</event>
<event>
 7    1  0.5408841E-013  0.5052879E+02  0.7816164E-02  0.1300439E+00
        -11   -1    0    0    0    0  0.00000000000E+00  0.00000000000E+00  0.45593999997E+02  0.45594000000E+02  0.51100000000E-03 0.  1.
         11   -1    0    0    0    0 -0.00000000000E+00 -0.00000000000E+00 -0.45593999997E+02  0.45594000000E+02  0.51100000000E-03 0. -1.
    9900012    2    1    2    0    0  0.11403645129E+02  0.52106931666E+01  0.38677864506E+02  0.50528786428E+02  0.29999776827E+02 0.  0.
         12    1    1    2    0    0 -0.11403645129E+02 -0.52106931666E+01 -0.38677864506E+02  0.40659213572E+02  0.00000000000E+00 0. -1.
         11    1    3    3    0    0  0.50014157030E+01  0.10266555892E+02  0.28540459705E+02  0.30740432159E+02  0.51100000000E-03 0. -1.
        -11    1    3    3    0    0 -0.31718923495E+01  0.21031736779E+01  0.60627493266E+01  0.71582938088E+01  0.51100000000E-03 0.  1.
        -12    1    3    3    0    0  0.95741217751E+01 -0.71590364037E+01  0.40746554751E+01  0.12630060460E+02  0.00000000000E+00 0.  1.
</event>
<event>
 7    1  0.5408841E-013  0.5052886E+02  0.7816164E-02  0.1300439E+00
        -11   -1    0    0    0    0  0.00000000000E+00  0.00000000000E+00  0.45593999997E+02  0.45594000000E+02  0.51100000000E-03 0.  1.
         11   -1    0    0    0    0 -0.00000000000E+00 -0.00000000000E+00 -0.45593999997E+02  0.45594000000E+02  0.51100000000E-03 0. -1.
    9900012    2    1    2    0    0  0.22811276419E+02 -0.33649900411E+02  0.70397743447E+00  0.50528859407E+02  0.29999998653E+02 0.  0.
         12    1    1    2    0    0 -0.22811276419E+02  0.33649900411E+02 -0.70397743447E+00  0.40659140593E+02  0.00000000000E+00 0. -1.
         11    1    3    3    0    0  0.16002304371E+02 -0.30590914705E+02  0.24594285851E+01  0.34611076216E+02  0.51100000000E-03 0. -1.
        -11    1    3    3    0    0  0.79083638524E+01 -0.77079415888E+01 -0.11882457182E+01  0.11107047785E+02  0.51100000000E-03 0.  1.
        -12    1    3    3    0    0 -0.10993918040E+01  0.46489558824E+01 -0.56720543249E+00  0.48107354051E+01  0.00000000000E+00 0.  1.
</event>
<event>
 7    1  0.5408841E-013  0.5052885E+02  0.7816164E-02  0.1300439E+00
        -11   -1    0    0    0    0  0.00000000000E+00  0.00000000000E+00  0.45593999997E+02  0.45594000000E+02  0.51100000000E-03 0.  1.
         11   -1    0    0    0    0 -0.00000000000E+00 -0.00000000000E+00 -0.45593999997E+02  0.45594000000E+02  0.51100000000E-03 0. -1.
    9900012    2    1    2    0    0  0.93356496507E+01 -0.10455965697E+02  0.38166537799E+02  0.50528853666E+02  0.29999981204E+02 0.  0.
         12    1    1    2    0    0 -0.93356496507E+01  0.10455965697E+02 -0.38166537799E+02  0.40659146334E+02  0.00000000000E+00 0. -1.
         11    1    3    3    0    0 -0.36987003585E+00 -0.81691986202E+01  0.19178277970E+02  0.20848955755E+02  0.51100000000E-03 0. -1.
        -11    1    3    3    0    0  0.25934547523E+01 -0.51207350024E+01  0.20994870023E+02  0.21765396897E+02  0.51100000000E-03 0.  1.
        -12    1    3    3    0    0  0.71120649342E+01  0.28339679255E+01 -0.20066101944E+01  0.79145010142E+01  0.00000000000E+00 0.  1.
</event>
<event>
 7    1  0.5408841E-013  0.5052886E+02  0.7816164E-02  0.1300439E+00
        -11   -1    0    0    0    0  0.00000000000E+00  0.00000000000E+00  0.45593999997E+02  0.45594000000E+02  0.51100000000E-03 0. -1.
         11   -1    0    0    0    0 -0.00000000000E+00 -0.00000000000E+00 -0.45593999997E+02  0.45594000000E+02  0.51100000000E-03 0.  1.
    9900012    2    1    2    0    0  0.35807269443E+02  0.97732822144E+00 -0.19236684281E+02  0.50528859115E+02  0.29999997765E+02 0.  0.
         12    1    1    2    0    0 -0.35807269443E+02 -0.97732822144E+00  0.19236684281E+02  0.40659140885E+02  0.00000000000E+00 0. -1.
         11    1    3    3    0    0  0.25384720678E+02  0.99992966017E+00 -0.21918339342E+02  0.33552906029E+02  0.51100000000E-03 0. -1.
        -11    1    3    3    0    0  0.79514625437E+00  0.18944074325E+01 -0.44105406768E+01  0.48655838713E+01  0.51100000000E-03 0.  1.
         12    1    3    3    0    0  0.96274025103E+01 -0.19170088712E+01  0.70921957380E+01  0.12110369214E+02  0.00000000000E+00 0. -1.
</event>
<event>
 7    1  0.5408841E-013  0.5052886E+02  0.7816164E-02  0.1300439E+00
        -11   -1    0    0    0    0  0.00000000000E+00  0.00000000000E+00  0.45593999997E+02  0.45594000000E+02  0.51100000000E-03 0.  1.
         11   -1    0    0    0    0 -0.00000000000E+00 -0.00000000000E+00 -0.45593999997E+02  0.45594000000E+02  0.51100000000E-03 0. -1.
    9900012    2    1    2    0    0 -0.34195368083E+02  0.15919804051E+02  0.15179010273E+02  0.50528859426E+02  0.29999998710E+02 0.  0.
         12    1    1    2    0    0  0.34195368083E+02 -0.15919804051E+02 -0.15179010273E+02  0.40659140574E+02  0.00000000000E+00 0. -1.
         11    1    3    3    0    0 -0.30236983862E+01  0.79917449867E+01  0.13351407597E+02  0.15851524373E+02  0.51100000000E-03 0. -1.
        -11    1    3    3    0    0 -0.10324190082E+02  0.31085329218E+00  0.62119686440E+01  0.12052969979E+02  0.51100000000E-03 0.  1.
         12    1    3    3    0    0 -0.20847479615E+02  0.76172057718E+01 -0.43843659675E+01  0.22624365074E+02  0.00000000000E+00 0. -1.
</event>
<event>
 7    1  0.5408841E-013  0.5052886E+02  0.7816164E-02  0.1300439E+00
        -11   -1    0    0    0    0  0.00000000000E+00  0.00000000000E+00  0.45593999997E+02  0.45594000000E+02  0.51100000000E-03 0.  1.
         11   -1    0    0    0    0 -0.00000000000E+00 -0.00000000000E+00 -0.45593999997E+02  0.45594000000E+02  0.51100000000E-03 0. -1.
    9900012    2    1    2    0    0 -0.35980218699E+02 -0.15476838206E+02  0.10911308932E+02  0.50528864236E+02  0.30000013331E+02 0.  0.
         12    1    1    2    0    0  0.35980218699E+02  0.15476838206E+02 -0.10911308932E+02  0.40659135764E+02  0.00000000000E+00 0. -1.
         11    1    3    3    0    0 -0.50302578471E+01 -0.96149329680E+01 -0.32338451508E-01  0.10851335218E+02  0.51100000000E-03 0. -1.
        -11    1    3    3    0    0 -0.21533530113E+02 -0.13886247983E+02  0.89813691201E+01  0.27151165605E+02  0.51100000000E-03 0.  1.
        -12    1    3    3    0    0 -0.94164307388E+01  0.80243427450E+01  0.19622782637E+01  0.12526363412E+02  0.00000000000E+00 0.  1.
</event>
<event>
 7    1  0.5408841E-013  0.5052886E+02  0.7816164E-02  0.1300439E+00
        -11   -1    0    0    0    0  0.00000000000E+00  0.00000000000E+00  0.45593999997E+02  0.45594000000E+02  0.51100000000E-03 0.  1.
         11   -1    0    0    0    0 -0.00000000000E+00 -0.00000000000E+00 -0.45593999997E+02  0.45594000000E+02  0.51100000000E-03 0. -1.
    9900012    2    1    2    0    0 -0.30304604639E+01  0.39892010326E+02  0.72532301534E+01  0.50528861715E+02  0.30000005668E+02 0.  0.
         12    1    1    2    0    0  0.30304604639E+01 -0.39892010326E+02 -0.72532301534E+01  0.40659138285E+02  0.00000000000E+00 0. -1.
         11    1    3    3    0    0  0.23932667675E+01  0.31443239678E+01 -0.32338954655E+01  0.51061315276E+01  0.51100000000E-03 0. -1.
        -11    1    3    3    0    0 -0.13867215746E+02  0.29692249500E+02  0.10524558255E+02  0.34419408473E+02  0.51100000000E-03 0.  1.
         12    1    3    3    0    0  0.84434885143E+01  0.70554368580E+01 -0.37432635676E-01  0.11003321714E+02  0.00000000000E+00 0. -1.
</event>
<event>
 7    1  0.5408841E-013  0.5052887E+02  0.7816164E-02  0.1300439E+00
        -11   -1    0    0    0    0  0.00000000000E+00  0.00000000000E+00  0.45593999997E+02  0.45594000000E+02  0.51100000000E-03 0.  1.
         11   -1    0    0    0    0 -0.00000000000E+00 -0.00000000000E+00 -0.45593999997E+02  0.45594000000E+02  0.51100000000E-03 0. -1.
    9900012    2    1    2    0    0 -0.87313547143E+01  0.38168985553E+02  0.10957055115E+02  0.50528867322E+02  0.30000022713E+02 0.  0.
         12    1    1    2    0    0  0.87313547143E+01 -0.38168985553E+02 -0.10957055115E+02  0.40659132678E+02  0.00000000000E+00 0. -1.
         11    1    3    3    0    0 -0.40077140097E+01  0.22503148626E+01  0.25569348015E+01  0.52596201768E+01  0.51100000000E-03 0. -1.
        -11    1    3    3    0    0 -0.13639466464E+02  0.22376892455E+02 -0.15401690709E+01  0.26251332964E+02  0.51100000000E-03 0.  1.
        -12    1    3    3    0    0  0.89158257596E+01  0.13541778235E+02  0.99402893847E+01  0.19017914181E+02  0.00000000000E+00 0.  1.
</event>
<event>
 7    1  0.5408841E-013  0.5052885E+02  0.7816164E-02  0.1300439E+00
        -11   -1    0    0    0    0  0.00000000000E+00  0.00000000000E+00  0.45593999997E+02  0.45594000000E+02  0.51100000000E-03 0.  1.
         11   -1    0    0    0    0 -0.00000000000E+00 -0.00000000000E+00 -0.45593999997E+02  0.45594000000E+02  0.51100000000E-03 0. -1.
    9900012    2    1    2    0    0  0.14925975782E+02 -0.64059911187E+01  0.37273916174E+02  0.50528852171E+02  0.29999976659E+02 0.  0.
         12    1    1    2    0    0 -0.14925975782E+02  0.64059911187E+01 -0.37273916174E+02  0.40659147829E+02  0.00000000000E+00 0. -1.
         11    1    3    3    0    0  0.33796109732E+01 -0.32931167767E+01  0.94969100020E+01  0.10604606937E+02  0.51100000000E-03 0. -1.
        -11    1    3    3    0    0  0.13150440068E+02 -0.11097679489E+02  0.26621241000E+02  0.31698312836E+02  0.51100000000E-03 0.  1.
         12    1    3    3    0    0 -0.16040752599E+01  0.79848051474E+01  0.11557651718E+01  0.82259323978E+01  0.00000000000E+00 0. -1.
</event>
<event>
 7    1  0.5408841E-013  0.5052886E+02  0.7816164E-02  0.1300439E+00
        -11   -1    0    0    0    0  0.00000000000E+00  0.00000000000E+00  0.45593999997E+02  0.45594000000E+02  0.51100000000E-03 0.  1.
         11   -1    0    0    0    0 -0.00000000000E+00 -0.00000000000E+00 -0.45593999997E+02  0.45594000000E+02  0.51100000000E-03 0. -1.
    9900012    2    1    2    0    0 -0.22282955149E+02  0.24045327738E+02  0.24051141224E+02  0.50528864860E+02  0.30000015227E+02 0.  0.
         12    1    1    2    0    0  0.22282955149E+02 -0.24045327738E+02 -0.24051141224E+02  0.40659135140E+02  0.00000000000E+00 0. -1.
         11    1    3    3    0    0  0.25622206481E+01 -0.94118753672E+00  0.33868988382E+01  0.43499301868E+01  0.51100000000E-03 0. -1.
        -11    1    3    3    0    0 -0.49851898033E+01  0.49413363027E+01  0.16141029723E+02  0.17601186398E+02  0.51100000000E-03 0.  1.
         12    1    3    3    0    0 -0.19859985994E+02  0.20045178972E+02  0.45232126628E+01  0.28577748275E+02  0.00000000000E+00 0. -1.
</event>
<event>
 7    1  0.5408841E-013  0.5052885E+02  0.7816164E-02  0.1300439E+00
        -11   -1    0    0    0    0  0.00000000000E+00  0.00000000000E+00  0.45593999997E+02  0.45594000000E+02  0.51100000000E-03 0.  1.
         11   -1    0    0    0    0 -0.00000000000E+00 -0.00000000000E+00 -0.45593999997E+02  0.45594000000E+02  0.51100000000E-03 0. -1.
    9900012    2    1    2    0    0 -0.10326378023E+02 -0.19954649091E+02  0.33887228206E+02  0.50528851719E+02  0.29999975285E+02 0.  0.
         12    1    1    2    0    0  0.10326378023E+02  0.19954649091E+02 -0.33887228206E+02  0.40659148281E+02  0.00000000000E+00 0. -1.
         11    1    3    3    0    0 -0.13090106346E+02 -0.91395279727E+01  0.14217548466E+02  0.21378038740E+02  0.51100000000E-03 0.  1.
        -11    1    3    3    0    0  0.82687717919E+00 -0.14182000691E+02  0.68801558696E+01  0.15784467508E+02  0.51100000000E-03 0. -1.
         12    1    3    3    0    0  0.19368511442E+01  0.33668795723E+01  0.12789523871E+02  0.13366345471E+02  0.00000000000E+00 0. -1.
</event>
<event>
 7    1  0.5408841E-013  0.5052886E+02  0.7816164E-02  0.1300439E+00
        -11   -1    0    0    0    0  0.00000000000E+00  0.00000000000E+00  0.45593999997E+02  0.45594000000E+02  0.51100000000E-03 0. -1.
         11   -1    0    0    0    0 -0.00000000000E+00 -0.00000000000E+00 -0.45593999997E+02  0.45594000000E+02  0.51100000000E-03 0.  1.
    9900012    2    1    2    0    0 -0.22505872525E+02  0.26013819204E+01 -0.33762172832E+02  0.50528858342E+02  0.29999995417E+02 0.  0.
         12    1    1    2    0    0  0.22505872525E+02 -0.26013819204E+01  0.33762172832E+02  0.40659141658E+02  0.00000000000E+00 0. -1.
         11    1    3    3    0    0 -0.17836334608E+02 -0.61642322037E+01 -0.10677941973E+02  0.21682966493E+02  0.51100000000E-03 0. -1.
        -11    1    3    3    0    0 -0.82422526766E+01  0.55956258034E+01 -0.21692899969E+02  0.23871063374E+02  0.51100000000E-03 0.  1.
        -12    1    3    3    0    0  0.35727147596E+01  0.31699883207E+01 -0.13913308907E+01  0.49748284748E+01  0.00000000000E+00 0.  1.
</event>
<event>
 7    1  0.5408841E-013  0.5052886E+02  0.7816164E-02  0.1300439E+00
        -11   -1    0    0    0    0  0.00000000000E+00  0.00000000000E+00  0.45593999997E+02  0.45594000000E+02  0.51100000000E-03 0.  1.
         11   -1    0    0    0    0 -0.00000000000E+00 -0.00000000000E+00 -0.45593999997E+02  0.45594000000E+02  0.51100000000E-03 0. -1.
    9900012    2    1    2    0    0 -0.19068487770E+02 -0.33250495896E+01  0.35756151664E+02  0.50528861268E+02  0.30000004310E+02 0.  0.
         12    1    1    2    0    0  0.19068487770E+02  0.33250495896E+01 -0.35756151664E+02  0.40659138732E+02  0.00000000000E+00 0. -1.
         11    1    3    3    0    0 -0.11553968840E+02  0.41976065873E+00  0.11469054824E+02  0.16285257560E+02  0.51100000000E-03 0. -1.
        -11    1    3    3    0    0 -0.86050565814E+01 -0.11515003774E+02  0.21607365406E+02  0.25952274481E+02  0.51100000000E-03 0.  1.
         12    1    3    3    0    0  0.10905376510E+01  0.77701935256E+01  0.26797314335E+01  0.82913292269E+01  0.00000000000E+00 0. -1.
</event>
<event>
 7    1  0.5408841E-013  0.5052886E+02  0.7816164E-02  0.1300439E+00
        -11   -1    0    0    0    0  0.00000000000E+00  0.00000000000E+00  0.45593999997E+02  0.45594000000E+02  0.51100000000E-03 0. -1.
         11   -1    0    0    0    0 -0.00000000000E+00 -0.00000000000E+00 -0.45593999997E+02  0.45594000000E+02  0.51100000000E-03 0.  1.
    9900012    2    1    2    0    0 -0.25509890156E+02 -0.31534840917E+02 -0.28222084638E+01  0.50528861445E+02  0.30000004849E+02 0.  0.
         12    1    1    2    0    0  0.25509890156E+02  0.31534840917E+02  0.28222084638E+01  0.40659138555E+02  0.00000000000E+00 0. -1.
         11    1    3    3    0    0 -0.84756187516E+01 -0.37028773420E+01  0.25084747584E+01  0.95833115209E+01  0.51100000000E-03 0.  1.
        -11    1    3    3    0    0 -0.91878060869E+01 -0.85981938766E+01  0.92061239377E+01  0.15591582243E+02  0.51100000000E-03 0. -1.
         12    1    3    3    0    0 -0.78464653169E+01 -0.19233769698E+02 -0.14536807160E+02  0.25353967681E+02  0.00000000000E+00 0. -1.
</event>
<event>
 7    1  0.5408841E-013  0.5052885E+02  0.7816164E-02  0.1300439E+00
        -11   -1    0    0    0    0  0.00000000000E+00  0.00000000000E+00  0.45593999997E+02  0.45594000000E+02  0.51100000000E-03 0. -1.
         11   -1    0    0    0    0 -0.00000000000E+00 -0.00000000000E+00 -0.45593999997E+02  0.45594000000E+02  0.51100000000E-03 0.  1.
    9900012    2    1    2    0    0  0.49750333247E+01 -0.69914150572E+01 -0.39743369744E+02  0.50528852448E+02  0.29999977500E+02 0.  0.
         12    1    1    2    0    0 -0.49750333247E+01  0.69914150572E+01  0.39743369744E+02  0.40659147552E+02  0.00000000000E+00 0. -1.
         11    1    3    3    0    0  0.39059486515E+01 -0.57578739919E+01 -0.23410933206E+02  0.24422967502E+02  0.51100000000E-03 0. -1.
        -11    1    3    3    0    0  0.53379129898E+00 -0.81694969308E+01 -0.17245029423E+02  0.19089700189E+02  0.51100000000E-03 0.  1.
         12    1    3    3    0    0  0.53529337421E+00  0.69359558655E+01  0.91259288509E+00  0.70161847565E+01  0.00000000000E+00 0. -1.
</event>
<event>
 7    1  0.5408841E-013  0.5052886E+02  0.7816164E-02  0.1300439E+00
        -11   -1    0    0    0    0  0.00000000000E+00  0.00000000000E+00  0.45593999997E+02  0.45594000000E+02  0.51100000000E-03 0.  1.
         11   -1    0    0    0    0 -0.00000000000E+00 -0.00000000000E+00 -0.45593999997E+02  0.45594000000E+02  0.51100000000E-03 0. -1.
    9900012    2    1    2    0    0  0.83936451866E+01  0.36975769598E+02  0.14680083607E+02  0.50528859925E+02  0.30000000228E+02 0.  0.
         12    1    1    2    0    0 -0.83936451866E+01 -0.36975769598E+02 -0.14680083607E+02  0.40659140075E+02  0.00000000000E+00 0. -1.
         11    1    3    3    0    0  0.77112083827E+01  0.27674136878E+02  0.31874620405E+01  0.28904679572E+02  0.51100000000E-03 0. -1.
        -11    1    3    3    0    0  0.60250338357E+01  0.10976779016E+02  0.64317205367E+01  0.14076851197E+02  0.51100000000E-03 0.  1.
         12    1    3    3    0    0 -0.53425970317E+01 -0.16751462955E+01  0.50609010300E+01  0.75473291561E+01  0.00000000000E+00 0. -1.
</event>
<event>
 7    1  0.5408841E-013  0.5052886E+02  0.7816164E-02  0.1300439E+00
        -11   -1    0    0    0    0  0.00000000000E+00  0.00000000000E+00  0.45593999997E+02  0.45594000000E+02  0.51100000000E-03 0.  1.
         11   -1    0    0    0    0 -0.00000000000E+00 -0.00000000000E+00 -0.45593999997E+02  0.45594000000E+02  0.51100000000E-03 0. -1.
    9900012    2    1    2    0    0 -0.13996865096E+02  0.30440081284E+02  0.23035941900E+02  0.50528863262E+02  0.30000010371E+02 0.  0.
         12    1    1    2    0    0  0.13996865096E+02 -0.30440081284E+02 -0.23035941900E+02  0.40659136738E+02  0.00000000000E+00 0. -1.
         11    1    3    3    0    0  0.77454609106E+01  0.87318946265E+01  0.70110559576E+01  0.13615911809E+02  0.51100000000E-03 0. -1.
        -11    1    3    3    0    0 -0.14953130921E+01  0.86209496368E+01  0.18400530902E+01  0.89410586353E+01  0.51100000000E-03 0.  1.
        -12    1    3    3    0    0 -0.20247012914E+02  0.13087237020E+02  0.14184832852E+02  0.27971892818E+02  0.00000000000E+00 0.  1.
</event>
<event>
 7    1  0.5408841E-013  0.5052886E+02  0.7816164E-02  0.1300439E+00
        -11   -1    0    0    0    0  0.00000000000E+00  0.00000000000E+00  0.45593999997E+02  0.45594000000E+02  0.51100000000E-03 0.  1.
         11   -1    0    0    0    0 -0.00000000000E+00 -0.00000000000E+00 -0.45593999997E+02  0.45594000000E+02  0.51100000000E-03 0. -1.
    9900012    2    1    2    0    0  0.21174269629E+02 -0.15190715357E+01  0.34677203320E+02  0.50528859542E+02  0.29999999065E+02 0.  0.
         12    1    1    2    0    0 -0.21174269629E+02  0.15190715357E+01 -0.34677203320E+02  0.40659140458E+02  0.00000000000E+00 0. -1.
         11    1    3    3    0    0  0.89602352628E+01  0.45091751336E+01  0.19456488117E+02  0.21890029841E+02  0.51100000000E-03 0. -1.
        -11    1    3    3    0    0  0.80218445471E+01  0.13123490790E+01  0.17991896437E+02  0.19742861690E+02  0.51100000000E-03 0.  1.
        -12    1    3    3    0    0  0.41921898193E+01 -0.73405957484E+01 -0.27711812342E+01  0.88959680112E+01  0.00000000000E+00 0.  1.
</event>
<event>
 7    1  0.5408841E-013  0.5052884E+02  0.7816164E-02  0.1300439E+00
        -11   -1    0    0    0    0  0.00000000000E+00  0.00000000000E+00  0.45593999997E+02  0.45594000000E+02  0.51100000000E-03 0.  1.
         11   -1    0    0    0    0 -0.00000000000E+00 -0.00000000000E+00 -0.45593999997E+02  0.45594000000E+02  0.51100000000E-03 0. -1.
    9900012    2    1    2    0    0 -0.18983077672E+02  0.33987855319E+02  0.11731814002E+02  0.50528843505E+02  0.29999950318E+02 0.  0.
         12    1    1    2    0    0  0.18983077672E+02 -0.33987855319E+02 -0.11731814002E+02  0.40659156495E+02  0.00000000000E+00 0. -1.
         11    1    3    3    0    0 -0.55778982654E+01  0.76121575270E+00  0.18085400842E+01  0.59129701486E+01  0.51100000000E-03 0.  1.
        -11    1    3    3    0    0 -0.40733533208E+01  0.46657513383E+01 -0.76222702159E+01  0.98214279172E+01  0.51100000000E-03 0. -1.
         12    1    3    3    0    0 -0.93318260858E+01  0.28560888228E+02  0.17545544134E+02  0.34794445439E+02  0.00000000000E+00 0. -1.
</event>
<event>
 7    1  0.5408841E-013  0.5052885E+02  0.7816164E-02  0.1300439E+00
        -11   -1    0    0    0    0  0.00000000000E+00  0.00000000000E+00  0.45593999997E+02  0.45594000000E+02  0.51100000000E-03 0.  1.
         11   -1    0    0    0    0 -0.00000000000E+00 -0.00000000000E+00 -0.45593999997E+02  0.45594000000E+02  0.51100000000E-03 0. -1.
    9900012    2    1    2    0    0  0.28738300950E+02 -0.13150360021E+02  0.25580154744E+02  0.50528853097E+02  0.29999979472E+02 0.  0.
         12    1    1    2    0    0 -0.28738300950E+02  0.13150360021E+02 -0.25580154744E+02  0.40659146903E+02  0.00000000000E+00 0. -1.
         11    1    3    3    0    0  0.58270387157E+00 -0.62756997758E+01 -0.44516070150E+01  0.77162657261E+01  0.51100000000E-03 0. -1.
        -11    1    3    3    0    0  0.11083179731E+02 -0.63518628736E+01  0.85659650627E+01  0.15380467893E+02  0.51100000000E-03 0.  1.
        -12    1    3    3    0    0  0.17072417348E+02 -0.52279737178E+00  0.21465796696E+02  0.27432119477E+02  0.00000000000E+00 0.  1.
</event>
<event>
 7    1  0.5408841E-013  0.5052886E+02  0.7816164E-02  0.1300439E+00
        -11   -1    0    0    0    0  0.00000000000E+00  0.00000000000E+00  0.45593999997E+02  0.45594000000E+02  0.51100000000E-03 0.  1.
         11   -1    0    0    0    0 -0.00000000000E+00 -0.00000000000E+00 -0.45593999997E+02  0.45594000000E+02  0.51100000000E-03 0. -1.
    9900012    2    1    2    0    0 -0.29322397908E+02  0.28160781277E+02 -0.57687253663E+00  0.50528863227E+02  0.30000010263E+02 0.  0.
         12    1    1    2    0    0  0.29322397908E+02 -0.28160781277E+02  0.57687253663E+00  0.40659136773E+02  0.00000000000E+00 0. -1.
         11    1    3    3    0    0 -0.17740241299E+01  0.67128284628E+01  0.10903177830E+01  0.70283725509E+01  0.51100000000E-03 0.  1.
        -11    1    3    3    0    0 -0.16915824799E+02  0.96072906558E+01 -0.13491863451E+02  0.23674364659E+02  0.51100000000E-03 0. -1.
         12    1    3    3    0    0 -0.10632548980E+02  0.11840662159E+02  0.11824673131E+02  0.19826126016E+02  0.00000000000E+00 0. -1.
</event>
<event>
 7    1  0.5408841E-013  0.5052887E+02  0.7816164E-02  0.1300439E+00
        -11   -1    0    0    0    0  0.00000000000E+00  0.00000000000E+00  0.45593999997E+02  0.45594000000E+02  0.51100000000E-03 0. -1.
         11   -1    0    0    0    0 -0.00000000000E+00 -0.00000000000E+00 -0.45593999997E+02  0.45594000000E+02  0.51100000000E-03 0.  1.
    9900012    2    1    2    0    0  0.51477368325E+01 -0.36279750865E+02 -0.17619469287E+02  0.50528865537E+02  0.30000017287E+02 0.  0.
         12    1    1    2    0    0 -0.51477368325E+01  0.36279750865E+02  0.17619469287E+02  0.40659134463E+02  0.00000000000E+00 0. -1.
         11    1    3    3    0    0 -0.24200291360E+01 -0.34492329669E+00  0.33781651848E+01  0.41698337349E+01  0.51100000000E-03 0. -1.
        -11    1    3    3    0    0 -0.47205904182E+01 -0.31106098899E+01 -0.31396982554E+00  0.56620177584E+01  0.51100000000E-03 0.  1.
         12    1    3    3    0    0  0.12288356387E+02 -0.32824217678E+02 -0.20683664647E+02  0.40697014044E+02  0.00000000000E+00 0. -1.
</event>
<event>
 7    1  0.5408841E-013  0.5052886E+02  0.7816164E-02  0.1300439E+00
        -11   -1    0    0    0    0  0.00000000000E+00  0.00000000000E+00  0.45593999997E+02  0.45594000000E+02  0.51100000000E-03 0. -1.
         11   -1    0    0    0    0 -0.00000000000E+00 -0.00000000000E+00 -0.45593999997E+02  0.45594000000E+02  0.51100000000E-03 0.  1.
    9900012    2    1    2    0    0 -0.30768825714E+02  0.74287325710E+01 -0.25519782687E+02  0.50528855742E+02  0.29999987513E+02 0.  0.
         12    1    1    2    0    0  0.30768825714E+02 -0.74287325710E+01  0.25519782687E+02  0.40659144258E+02  0.00000000000E+00 0. -1.
         11    1    3    3    0    0 -0.19841545222E+02  0.48050936077E+01 -0.18562104271E+02  0.27592164768E+02  0.51100000000E-03 0. -1.
        -11    1    3    3    0    0 -0.79009076555E+01  0.95634658248E+01 -0.87201012494E+01  0.15163257777E+02  0.51100000000E-03 0.  1.
         12    1    3    3    0    0 -0.30263728360E+01 -0.69398268615E+01  0.17624228335E+01  0.77734331961E+01  0.00000000000E+00 0. -1.
</event>
<event>
 7    1  0.5408841E-013  0.5052888E+02  0.7816164E-02  0.1300439E+00
        -11   -1    0    0    0    0  0.00000000000E+00  0.00000000000E+00  0.45593999997E+02  0.45594000000E+02  0.51100000000E-03 0. -1.
         11   -1    0    0    0    0 -0.00000000000E+00 -0.00000000000E+00 -0.45593999997E+02  0.45594000000E+02  0.51100000000E-03 0.  1.
    9900012    2    1    2    0    0  0.20334626901E+02 -0.24702630354E+02 -0.25088789082E+02  0.50528876360E+02  0.30000050184E+02 0.  0.
         12    1    1    2    0    0 -0.20334626901E+02  0.24702630354E+02  0.25088789082E+02  0.40659123640E+02  0.00000000000E+00 0. -1.
         11    1    3    3    0    0  0.61548894858E+01 -0.13691327349E+02 -0.85600578312E+01  0.17280326950E+02  0.51100000000E-03 0. -1.
        -11    1    3    3    0    0  0.18169754340E+02 -0.14244152415E+02 -0.15992057970E+02  0.28085258930E+02  0.51100000000E-03 0.  1.
         12    1    3    3    0    0 -0.39900169250E+01  0.32328494103E+01 -0.53667328079E+00  0.51632904801E+01  0.00000000000E+00 0. -1.
</event>
<event>
 7    1  0.5408841E-013  0.5052886E+02  0.7816164E-02  0.1300439E+00
        -11   -1    0    0    0    0  0.00000000000E+00  0.00000000000E+00  0.45593999997E+02  0.45594000000E+02  0.51100000000E-03 0.  1.
         11   -1    0    0    0    0 -0.00000000000E+00 -0.00000000000E+00 -0.45593999997E+02  0.45594000000E+02  0.51100000000E-03 0. -1.
    9900012    2    1    2    0    0 -0.21458245013E+02 -0.96302034375E+00  0.34522189981E+02  0.50528864640E+02  0.30000014558E+02 0.  0.
         12    1    1    2    0    0  0.21458245013E+02  0.96302034375E+00 -0.34522189981E+02  0.40659135360E+02  0.00000000000E+00 0. -1.
         11    1    3    3    0    0  0.38032064067E+01  0.59673139655E+01  0.12433685352E+02  0.14306283466E+02  0.51100000000E-03 0. -1.
        -11    1    3    3    0    0 -0.42994310668E+01 -0.54899454010E+01  0.93050169028E+01  0.11627895245E+02  0.51100000000E-03 0.  1.
        -12    1    3    3    0    0 -0.20962020353E+02 -0.14403889083E+01  0.12783487726E+02  0.24594685928E+02  0.00000000000E+00 0.  1.
</event>
<event>
 7    1  0.5408841E-013  0.5052886E+02  0.7816164E-02  0.1300439E+00
        -11   -1    0    0    0    0  0.00000000000E+00  0.00000000000E+00  0.45593999997E+02  0.45594000000E+02  0.51100000000E-03 0.  1.
         11   -1    0    0    0    0 -0.00000000000E+00 -0.00000000000E+00 -0.45593999997E+02  0.45594000000E+02  0.51100000000E-03 0. -1.
    9900012    2    1    2    0    0 -0.29071468412E+02 -0.90371467452E+01  0.26950801097E+02  0.50528856173E+02  0.29999988825E+02 0.  0.
         12    1    1    2    0    0  0.29071468412E+02  0.90371467452E+01 -0.26950801097E+02  0.40659143827E+02  0.00000000000E+00 0. -1.
         11    1    3    3    0    0 -0.12331866218E+02 -0.10625804274E+02  0.93819292505E+01  0.18788380388E+02  0.51100000000E-03 0. -1.
        -11    1    3    3    0    0 -0.81257415758E+01 -0.81156341897E+01  0.14334535712E+02  0.18367637540E+02  0.51100000000E-03 0.  1.
         12    1    3    3    0    0 -0.86138606183E+01  0.97042917182E+01  0.32343361342E+01  0.13372838245E+02  0.00000000000E+00 0. -1.
</event>
<event>
 7    1  0.5408841E-013  0.5052886E+02  0.7816164E-02  0.1300439E+00
        -11   -1    0    0    0    0  0.00000000000E+00  0.00000000000E+00  0.45593999997E+02  0.45594000000E+02  0.51100000000E-03 0.  1.
         11   -1    0    0    0    0 -0.00000000000E+00 -0.00000000000E+00 -0.45593999997E+02  0.45594000000E+02  0.51100000000E-03 0. -1.
    9900012    2    1    2    0    0 -0.39097140488E+02  0.24263706416E+01  0.10894588010E+02  0.50528859370E+02  0.29999998541E+02 0.  0.
         12    1    1    2    0    0  0.39097140488E+02 -0.24263706416E+01 -0.10894588010E+02  0.40659140630E+02  0.00000000000E+00 0. -1.
         11    1    3    3    0    0 -0.10978926306E+01 -0.69380848919E+01  0.20001607654E+01  0.73036315313E+01  0.51100000000E-03 0. -1.
        -11    1    3    3    0    0 -0.19792584374E+02  0.12932264276E+02  0.64869188076E+01  0.24516728399E+02  0.51100000000E-03 0.  1.
         12    1    3    3    0    0 -0.18206663484E+02 -0.35678087420E+01  0.24075084366E+01  0.18708499440E+02  0.00000000000E+00 0. -1.
</event>
<event>
 7    1  0.5408841E-013  0.5052885E+02  0.7816164E-02  0.1300439E+00
        -11   -1    0    0    0    0  0.00000000000E+00  0.00000000000E+00  0.45593999997E+02  0.45594000000E+02  0.51100000000E-03 0. -1.
         11   -1    0    0    0    0 -0.00000000000E+00 -0.00000000000E+00 -0.45593999997E+02  0.45594000000E+02  0.51100000000E-03 0.  1.
    9900012    2    1    2    0    0 -0.22016579219E+01  0.40167102956E+02 -0.59095450260E+01  0.50528853675E+02  0.29999981231E+02 0.  0.
         12    1    1    2    0    0  0.22016579219E+01 -0.40167102956E+02  0.59095450260E+01  0.40659146325E+02  0.00000000000E+00 0. -1.
         11    1    3    3    0    0  0.19612404816E+01 -0.73771894821E-01  0.12739237215E+01  0.23398265809E+01  0.51100000000E-03 0. -1.
        -11    1    3    3    0    0  0.58472988450E+01  0.98969661314E+01  0.67502470457E+01  0.13330666819E+02  0.51100000000E-03 0.  1.
         12    1    3    3    0    0 -0.10010197249E+02  0.30343908719E+02 -0.13933715793E+02  0.34858360276E+02  0.00000000000E+00 0. -1.
</event>
<event>
 7    1  0.5408841E-013  0.5052886E+02  0.7816164E-02  0.1300439E+00
        -11   -1    0    0    0    0  0.00000000000E+00  0.00000000000E+00  0.45593999997E+02  0.45594000000E+02  0.51100000000E-03 0. -1.
         11   -1    0    0    0    0 -0.00000000000E+00 -0.00000000000E+00 -0.45593999997E+02  0.45594000000E+02  0.51100000000E-03 0.  1.
    9900012    2    1    2    0    0 -0.86195365613E+01  0.35469423226E+02 -0.17910591355E+02  0.50528859857E+02  0.30000000021E+02 0.  0.
         12    1    1    2    0    0  0.86195365613E+01 -0.35469423226E+02  0.17910591355E+02  0.40659140143E+02  0.00000000000E+00 0. -1.
         11    1    3    3    0    0 -0.61192817588E+00 -0.38966111934E+00  0.21014177342E+01  0.22231168739E+01  0.51100000000E-03 0. -1.
        -11    1    3    3    0    0 -0.95949884546E+01  0.37999008771E+02 -0.13806591320E+02  0.41552502152E+02  0.51100000000E-03 0.  1.
         12    1    3    3    0    0  0.15873800693E+01 -0.21399244256E+01 -0.62054177689E+01  0.67532408307E+01  0.00000000000E+00 0. -1.
</event>
<event>
 7    1  0.5408841E-013  0.5052886E+02  0.7816164E-02  0.1300439E+00
        -11   -1    0    0    0    0  0.00000000000E+00  0.00000000000E+00  0.45593999997E+02  0.45594000000E+02  0.51100000000E-03 0.  1.
         11   -1    0    0    0    0 -0.00000000000E+00 -0.00000000000E+00 -0.45593999997E+02  0.45594000000E+02  0.51100000000E-03 0. -1.
    9900012    2    1    2    0    0 -0.13154197407E+02 -0.33940349519E+02  0.18115894764E+02  0.50528857387E+02  0.29999992514E+02 0.  0.
         12    1    1    2    0    0  0.13154197407E+02  0.33940349519E+02 -0.18115894764E+02  0.40659142613E+02  0.00000000000E+00 0. -1.
         11    1    3    3    0    0 -0.13197741502E+02 -0.66953054205E+01  0.28020774581E+00  0.14801554380E+02  0.51100000000E-03 0. -1.
        -11    1    3    3    0    0  0.37325418242E+01 -0.83403087908E+01  0.12962052570E+02  0.15858985664E+02  0.51100000000E-03 0.  1.
        -12    1    3    3    0    0 -0.36889977295E+01 -0.18904735308E+02  0.48736344478E+01  0.19868317343E+02  0.00000000000E+00 0.  1.
</event>
<event>
 7    1  0.5408841E-013  0.5052883E+02  0.7816164E-02  0.1300439E+00
        -11   -1    0    0    0    0  0.00000000000E+00  0.00000000000E+00  0.45593999997E+02  0.45594000000E+02  0.51100000000E-03 0. -1.
         11   -1    0    0    0    0 -0.00000000000E+00 -0.00000000000E+00 -0.45593999997E+02  0.45594000000E+02  0.51100000000E-03 0.  1.
    9900012    2    1    2    0    0 -0.33819698893E+02  0.15893500381E+02  0.16024744245E+02  0.50528833559E+02  0.29999920085E+02 0.  0.
         12    1    1    2    0    0  0.33819698893E+02 -0.15893500381E+02 -0.16024744245E+02  0.40659166441E+02  0.00000000000E+00 0. -1.
         11    1    3    3    0    0  0.34616372825E+00  0.20117303371E+01  0.85588673011E+01  0.87989259580E+01  0.51100000000E-03 0. -1.
        -11    1    3    3    0    0 -0.22990975404E+01 -0.32886353081E+01  0.34826202869E+01  0.53131549962E+01  0.51100000000E-03 0.  1.
        -12    1    3    3    0    0 -0.31866765081E+02  0.17170405352E+02  0.39832566566E+01  0.36416752605E+02  0.00000000000E+00 0.  1.
</event>
<event>
 7    1  0.5408841E-013  0.5052884E+02  0.7816164E-02  0.1300439E+00
        -11   -1    0    0    0    0  0.00000000000E+00  0.00000000000E+00  0.45593999997E+02  0.45594000000E+02  0.51100000000E-03 0. -1.
         11   -1    0    0    0    0 -0.00000000000E+00 -0.00000000000E+00 -0.45593999997E+02  0.45594000000E+02  0.51100000000E-03 0.  1.
    9900012    2    1    2    0    0 -0.31270124126E+02 -0.16932291626E+01 -0.25932206165E+02  0.50528843535E+02  0.29999950409E+02 0.  0.
         12    1    1    2    0    0  0.31270124126E+02  0.16932291626E+01  0.25932206165E+02  0.40659156465E+02  0.00000000000E+00 0. -1.
         11    1    3    3    0    0  0.38215111324E+01 -0.94087108190E+00 -0.18690933522E+01  0.43569135805E+01  0.51100000000E-03 0. -1.
        -11    1    3    3    0    0 -0.12911876177E+02 -0.81489906682E+01 -0.51959007934E+01  0.16128235509E+02  0.51100000000E-03 0.  1.
        -12    1    3    3    0    0 -0.22179759081E+02  0.73966325875E+01 -0.18867212019E+02  0.30043694445E+02  0.00000000000E+00 0.  1.
</event>
<event>
 7    1  0.5408841E-013  0.5052886E+02  0.7816164E-02  0.1300439E+00
        -11   -1    0    0    0    0  0.00000000000E+00  0.00000000000E+00  0.45593999997E+02  0.45594000000E+02  0.51100000000E-03 0.  1.
         11   -1    0    0    0    0 -0.00000000000E+00 -0.00000000000E+00 -0.45593999997E+02  0.45594000000E+02  0.51100000000E-03 0. -1.
    9900012    2    1    2    0    0 -0.28197194569E+02 -0.11589021884E+02  0.26903132794E+02  0.50528858790E+02  0.29999996779E+02 0.  0.
         12    1    1    2    0    0  0.28197194569E+02  0.11589021884E+02 -0.26903132794E+02  0.40659141210E+02  0.00000000000E+00 0. -1.
         11    1    3    3    0    0 -0.66200338929E+01 -0.58078487053E+01  0.15613383846E+02  0.17925783406E+02  0.51100000000E-03 0. -1.
        -11    1    3    3    0    0 -0.16213322681E+02 -0.10080359289E+02  0.15457126594E+02  0.24564369289E+02  0.51100000000E-03 0.  1.
         12    1    3    3    0    0 -0.53638379946E+01  0.42991861109E+01 -0.41673776456E+01  0.80387060955E+01  0.00000000000E+00 0. -1.
</event>
<event>
 7    1  0.5408841E-013  0.5052885E+02  0.7816164E-02  0.1300439E+00
        -11   -1    0    0    0    0  0.00000000000E+00  0.00000000000E+00  0.45593999997E+02  0.45594000000E+02  0.51100000000E-03 0.  1.
         11   -1    0    0    0    0 -0.00000000000E+00 -0.00000000000E+00 -0.45593999997E+02  0.45594000000E+02  0.51100000000E-03 0. -1.
    9900012    2    1    2    0    0  0.16384237876E+02  0.30241844746E+02  0.21683028919E+02  0.50528853827E+02  0.29999981693E+02 0.  0.
         12    1    1    2    0    0 -0.16384237876E+02 -0.30241844746E+02 -0.21683028919E+02  0.40659146173E+02  0.00000000000E+00 0. -1.
         11    1    3    3    0    0  0.50565143266E+01  0.13106436677E+02  0.14484412903E+01  0.14122499847E+02  0.51100000000E-03 0. -1.
        -11    1    3    3    0    0  0.49429186942E+01  0.21045457685E+02  0.10245940801E+02  0.23923273972E+02  0.51100000000E-03 0.  1.
         12    1    3    3    0    0  0.63848048553E+01 -0.39100496157E+01  0.99886468278E+01  0.12483080008E+02  0.00000000000E+00 0. -1.
</event>
<event>
 7    1  0.5408841E-013  0.5052885E+02  0.7816164E-02  0.1300439E+00
        -11   -1    0    0    0    0  0.00000000000E+00  0.00000000000E+00  0.45593999997E+02  0.45594000000E+02  0.51100000000E-03 0.  1.
         11   -1    0    0    0    0 -0.00000000000E+00 -0.00000000000E+00 -0.45593999997E+02  0.45594000000E+02  0.51100000000E-03 0. -1.
    9900012    2    1    2    0    0  0.88979072955E+01  0.29929685300E+01  0.39560529257E+02  0.50528854781E+02  0.29999984592E+02 0.  0.
         12    1    1    2    0    0 -0.88979072955E+01 -0.29929685300E+01 -0.39560529257E+02  0.40659145219E+02  0.00000000000E+00 0. -1.
         11    1    3    3    0    0  0.18219924348E+01 -0.25353995652E+01  0.25597555575E+02  0.25787259627E+02  0.51100000000E-03 0. -1.
        -11    1    3    3    0    0  0.95545523420E+01  0.10814777985E+02  0.11278484186E+02  0.18315378760E+02  0.51100000000E-03 0.  1.
         12    1    3    3    0    0 -0.24786374813E+01 -0.52864098899E+01  0.26844894956E+01  0.64262163938E+01  0.00000000000E+00 0. -1.
</event>
<event>
 7    1  0.5408841E-013  0.5052885E+02  0.7816164E-02  0.1300439E+00
        -11   -1    0    0    0    0  0.00000000000E+00  0.00000000000E+00  0.45593999997E+02  0.45594000000E+02  0.51100000000E-03 0.  1.
         11   -1    0    0    0    0 -0.00000000000E+00 -0.00000000000E+00 -0.45593999997E+02  0.45594000000E+02  0.51100000000E-03 0. -1.
    9900012    2    1    2    0    0 -0.30299219035E+02 -0.77111097821E+01  0.25993510669E+02  0.50528849921E+02  0.29999969820E+02 0.  0.
         12    1    1    2    0    0  0.30299219035E+02  0.77111097821E+01 -0.25993510669E+02  0.40659150079E+02  0.00000000000E+00 0. -1.
         11    1    3    3    0    0 -0.89611509135E+00 -0.46241436007E+01  0.41397721178E+01  0.62708404337E+01  0.51100000000E-03 0. -1.
        -11    1    3    3    0    0 -0.45488956383E+01  0.79314600668E+01  0.12540860762E+02  0.15520106290E+02  0.51100000000E-03 0.  1.
        -12    1    3    3    0    0 -0.24854208306E+02 -0.11018426248E+02  0.93128777889E+01  0.28737903198E+02  0.00000000000E+00 0.  1.
</event>
<event>
 7    1  0.5408841E-013  0.5052889E+02  0.7816164E-02  0.1300439E+00
        -11   -1    0    0    0    0  0.00000000000E+00  0.00000000000E+00  0.45593999997E+02  0.45594000000E+02  0.51100000000E-03 0.  1.
         11   -1    0    0    0    0 -0.00000000000E+00 -0.00000000000E+00 -0.45593999997E+02  0.45594000000E+02  0.51100000000E-03 0. -1.
    9900012    2    1    2    0    0 -0.37897224617E+01 -0.21989178277E+02  0.33989372760E+02  0.50528887636E+02  0.30000084458E+02 0.  0.
         12    1    1    2    0    0  0.37897224617E+01  0.21989178277E+02 -0.33989372760E+02  0.40659112364E+02  0.00000000000E+00 0. -1.
         11    1    3    3    0    0  0.50391273805E+01 -0.51811480403E+00  0.71314504688E+01  0.87475044303E+01  0.51100000000E-03 0. -1.
        -11    1    3    3    0    0  0.74165890775E+01 -0.65412738664E+01  0.72246452372E+01  0.12247022348E+02  0.51100000000E-03 0.  1.
         12    1    3    3    0    0 -0.16245438920E+02 -0.14929789606E+02  0.19633277054E+02  0.29534360857E+02  0.00000000000E+00 0. -1.
</event>
<event>
 7    1  0.5408841E-013  0.5052885E+02  0.7816164E-02  0.1300439E+00
        -11   -1    0    0    0    0  0.00000000000E+00  0.00000000000E+00  0.45593999997E+02  0.45594000000E+02  0.51100000000E-03 0.  1.
         11   -1    0    0    0    0 -0.00000000000E+00 -0.00000000000E+00 -0.45593999997E+02  0.45594000000E+02  0.51100000000E-03 0. -1.
    9900012    2    1    2    0    0  0.36845411452E+02  0.60823937665E+01  0.16080618031E+02  0.50528854223E+02  0.29999982897E+02 0.  0.
         12    1    1    2    0    0 -0.36845411452E+02 -0.60823937665E+01 -0.16080618031E+02  0.40659145777E+02  0.00000000000E+00 0. -1.
         11    1    3    3    0    0  0.11326351315E+02  0.77996065295E+01  0.38692134611E+01  0.14286038961E+02  0.51100000000E-03 0.  1.
        -11    1    3    3    0    0  0.16209429487E+02 -0.37889621787E+01  0.18447384617E+02  0.24847692813E+02  0.51100000000E-03 0. -1.
         12    1    3    3    0    0  0.93096306500E+01  0.20717494158E+01 -0.62359800463E+01  0.11395122449E+02  0.00000000000E+00 0. -1.
</event>
<event>
 7    1  0.5408841E-013  0.5052886E+02  0.7816164E-02  0.1300439E+00
        -11   -1    0    0    0    0  0.00000000000E+00  0.00000000000E+00  0.45593999997E+02  0.45594000000E+02  0.51100000000E-03 0.  1.
         11   -1    0    0    0    0 -0.00000000000E+00 -0.00000000000E+00 -0.45593999997E+02  0.45594000000E+02  0.51100000000E-03 0. -1.
    9900012    2    1    2    0    0  0.36767460453E+02 -0.62903432208E+01  0.16178727441E+02  0.50528858499E+02  0.29999995893E+02 0.  0.
         12    1    1    2    0    0 -0.36767460453E+02  0.62903432208E+01 -0.16178727441E+02  0.40659141501E+02  0.00000000000E+00 0. -1.
         11    1    3    3    0    0  0.10118709034E+02 -0.11056093775E+02  0.57972169444E+01  0.16069636170E+02  0.51100000000E-03 0. -1.
        -11    1    3    3    0    0 -0.17090332750E+00 -0.40289758570E+01  0.36582409572E+01  0.54446837893E+01  0.51100000000E-03 0.  1.
         12    1    3    3    0    0  0.26819654746E+02  0.87947264107E+01  0.67232695398E+01  0.29014538540E+02  0.00000000000E+00 0. -1.
</event>
<event>
 7    1  0.5408841E-013  0.5052887E+02  0.7816164E-02  0.1300439E+00
        -11   -1    0    0    0    0  0.00000000000E+00  0.00000000000E+00  0.45593999997E+02  0.45594000000E+02  0.51100000000E-03 0. -1.
         11   -1    0    0    0    0 -0.00000000000E+00 -0.00000000000E+00 -0.45593999997E+02  0.45594000000E+02  0.51100000000E-03 0.  1.
    9900012    2    1    2    0    0 -0.29360328308E+02 -0.26808980179E+02 -0.85096932456E+01  0.50528866024E+02  0.30000018766E+02 0.  0.
         12    1    1    2    0    0  0.29360328308E+02  0.26808980179E+02  0.85096932456E+01  0.40659133976E+02  0.00000000000E+00 0. -1.
         11    1    3    3    0    0 -0.18179352577E+02 -0.10606589360E+02 -0.21073746333E+01  0.21152532380E+02  0.51100000000E-03 0. -1.
        -11    1    3    3    0    0 -0.16584506721E+02 -0.72628094630E+01 -0.53427784358E+01  0.18876958074E+02  0.51100000000E-03 0.  1.
         12    1    3    3    0    0  0.54035309900E+01 -0.89395813555E+01 -0.10595401764E+01  0.10499375570E+02  0.00000000000E+00 0. -1.
</event>
<event>
 7    1  0.5408841E-013  0.5052874E+02  0.7816164E-02  0.1300439E+00
        -11   -1    0    0    0    0  0.00000000000E+00  0.00000000000E+00  0.45593999997E+02  0.45594000000E+02  0.51100000000E-03 0.  1.
         11   -1    0    0    0    0 -0.00000000000E+00 -0.00000000000E+00 -0.45593999997E+02  0.45594000000E+02  0.51100000000E-03 0. -1.
    9900012    2    1    2    0    0 -0.99973375503E+01  0.27531264014E+02  0.28200321593E+02  0.50528740363E+02  0.29999636804E+02 0.  0.
         12    1    1    2    0    0  0.99973375503E+01 -0.27531264014E+02 -0.28200321593E+02  0.40659259637E+02  0.00000000000E+00 0. -1.
         11    1    3    3    0    0 -0.70006616234E+01  0.10874153853E+01  0.40078511152E+01  0.81396932503E+01  0.51100000000E-03 0. -1.
        -11    1    3    3    0    0 -0.11163081328E+02  0.64025591555E+01  0.11748770808E+02  0.17425290937E+02  0.51100000000E-03 0.  1.
        -12    1    3    3    0    0  0.81664054007E+01  0.20041289473E+02  0.12443699670E+02  0.24963756176E+02  0.00000000000E+00 0.  1.
</event>
<event>
 7    1  0.5408841E-013  0.5052888E+02  0.7816164E-02  0.1300439E+00
        -11   -1    0    0    0    0  0.00000000000E+00  0.00000000000E+00  0.45593999997E+02  0.45594000000E+02  0.51100000000E-03 0.  1.
         11   -1    0    0    0    0 -0.00000000000E+00 -0.00000000000E+00 -0.45593999997E+02  0.45594000000E+02  0.51100000000E-03 0. -1.
    9900012    2    1    2    0    0  0.20702795088E+02  0.13716195094E+02  0.32193540664E+02  0.50528883030E+02  0.30000070458E+02 0.  0.
         12    1    1    2    0    0 -0.20702795088E+02 -0.13716195094E+02 -0.32193540664E+02  0.40659116970E+02  0.00000000000E+00 0. -1.
         11    1    3    3    0    0  0.40920348220E+01 -0.31453935192E+01  0.12512853384E+02  0.13535499601E+02  0.51100000000E-03 0. -1.
        -11    1    3    3    0    0  0.13404208521E+02  0.71465815465E+01  0.21775793425E+02  0.26550548270E+02  0.51100000000E-03 0.  1.
         12    1    3    3    0    0  0.32065517448E+01  0.97150070668E+01 -0.20951061456E+01  0.10442835159E+02  0.00000000000E+00 0. -1.
</event>
<event>
 7    1  0.5408841E-013  0.5052887E+02  0.7816164E-02  0.1300439E+00
        -11   -1    0    0    0    0  0.00000000000E+00  0.00000000000E+00  0.45593999997E+02  0.45594000000E+02  0.51100000000E-03 0. -1.
         11   -1    0    0    0    0 -0.00000000000E+00 -0.00000000000E+00 -0.45593999997E+02  0.45594000000E+02  0.51100000000E-03 0.  1.
    9900012    2    1    2    0    0 -0.34880451134E+02  0.44240327336E+01 -0.20419268981E+02  0.50528874546E+02  0.30000044671E+02 0.  0.
         12    1    1    2    0    0  0.34880451134E+02 -0.44240327336E+01  0.20419268981E+02  0.40659125454E+02  0.00000000000E+00 0. -1.
         11    1    3    3    0    0 -0.10562303891E+02  0.95457943046E+01  0.18637009649E+01  0.14358197448E+02  0.51100000000E-03 0. -1.
        -11    1    3    3    0    0 -0.66762340256E+01  0.46255816924E+01 -0.84776909729E+01  0.11740500468E+02  0.51100000000E-03 0.  1.
        -12    1    3    3    0    0 -0.17641913217E+02 -0.97473432634E+01 -0.13805278973E+02  0.24430176630E+02  0.00000000000E+00 0.  1.
</event>
<event>
 7    1  0.5408841E-013  0.5052886E+02  0.7816164E-02  0.1300439E+00
        -11   -1    0    0    0    0  0.00000000000E+00  0.00000000000E+00  0.45593999997E+02  0.45594000000E+02  0.51100000000E-03 0.  1.
         11   -1    0    0    0    0 -0.00000000000E+00 -0.00000000000E+00 -0.45593999997E+02  0.45594000000E+02  0.51100000000E-03 0. -1.
    9900012    2    1    2    0    0 -0.39923060735E+02 -0.51838840900E+01  0.56958323409E+01  0.50528856640E+02  0.29999990242E+02 0.  0.
         12    1    1    2    0    0  0.39923060735E+02  0.51838840900E+01 -0.56958323409E+01  0.40659143360E+02  0.00000000000E+00 0. -1.
         11    1    3    3    0    0 -0.12095081256E+02  0.21240211479E+01  0.10155726985E+02  0.15935534107E+02  0.51100000000E-03 0. -1.
        -11    1    3    3    0    0 -0.19564974663E+02 -0.43552663936E+01  0.60167799425E+01  0.20927451351E+02  0.51100000000E-03 0.  1.
         12    1    3    3    0    0 -0.82630048167E+01 -0.29526388444E+01 -0.10476674587E+02  0.13665871181E+02  0.00000000000E+00 0. -1.
</event>
<event>
 7    1  0.5408841E-013  0.5052886E+02  0.7816164E-02  0.1300439E+00
        -11   -1    0    0    0    0  0.00000000000E+00  0.00000000000E+00  0.45593999997E+02  0.45594000000E+02  0.51100000000E-03 0. -1.
         11   -1    0    0    0    0 -0.00000000000E+00 -0.00000000000E+00 -0.45593999997E+02  0.45594000000E+02  0.51100000000E-03 0.  1.
    9900012    2    1    2    0    0  0.33541071686E+02 -0.22663357890E+02 -0.38124024346E+01  0.50528859662E+02  0.29999999428E+02 0.  0.
         12    1    1    2    0    0 -0.33541071686E+02  0.22663357890E+02  0.38124024346E+01  0.40659140338E+02  0.00000000000E+00 0. -1.
         11    1    3    3    0    0  0.31983094384E+02 -0.18459865340E+02  0.61522857957E+01  0.37437088235E+02  0.51100000000E-03 0. -1.
        -11    1    3    3    0    0  0.24417043950E+01 -0.89639426579E+00 -0.48646087107E-01  0.26015014387E+01  0.51100000000E-03 0.  1.
        -12    1    3    3    0    0 -0.88372709315E+00 -0.33070982844E+01 -0.99160421431E+01  0.10490269988E+02  0.00000000000E+00 0.  1.
</event>
<event>
 7    1  0.5408841E-013  0.5052885E+02  0.7816164E-02  0.1300439E+00
        -11   -1    0    0    0    0  0.00000000000E+00  0.00000000000E+00  0.45593999997E+02  0.45594000000E+02  0.51100000000E-03 0.  1.
         11   -1    0    0    0    0 -0.00000000000E+00 -0.00000000000E+00 -0.45593999997E+02  0.45594000000E+02  0.51100000000E-03 0. -1.
    9900012    2    1    2    0    0 -0.14911593166E+02  0.36954724523E+02  0.80721265134E+01  0.50528849717E+02  0.29999969200E+02 0.  0.
         12    1    1    2    0    0  0.14911593166E+02 -0.36954724523E+02 -0.80721265134E+01  0.40659150283E+02  0.00000000000E+00 0. -1.
         11    1    3    3    0    0 -0.19552736338E+02  0.13411908691E+02  0.28599258975E+01  0.23882377801E+02  0.51100000000E-03 0. -1.
        -11    1    3    3    0    0  0.19162059370E+01  0.13091808823E+01 -0.20522290626E+01  0.30979742029E+01  0.51100000000E-03 0.  1.
        -12    1    3    3    0    0  0.27249372350E+01  0.22233634949E+02  0.72644296785E+01  0.23548497713E+02  0.00000000000E+00 0.  1.
</event>
<event>
 7    1  0.5408841E-013  0.5052886E+02  0.7816164E-02  0.1300439E+00
        -11   -1    0    0    0    0  0.00000000000E+00  0.00000000000E+00  0.45593999997E+02  0.45594000000E+02  0.51100000000E-03 0. -1.
         11   -1    0    0    0    0 -0.00000000000E+00 -0.00000000000E+00 -0.45593999997E+02  0.45594000000E+02  0.51100000000E-03 0.  1.
    9900012    2    1    2    0    0  0.48618175210E+01 -0.50026923076E+01 -0.40056227086E+02  0.50528861687E+02  0.30000005585E+02 0.  0.
         12    1    1    2    0    0 -0.48618175210E+01  0.50026923076E+01  0.40056227086E+02  0.40659138313E+02  0.00000000000E+00 0. -1.
         11    1    3    3    0    0  0.20191975978E+01  0.99224698579E+01 -0.17871526392E+02  0.20540789246E+02  0.51100000000E-03 0. -1.
        -11    1    3    3    0    0  0.55716254845E+01 -0.82177828392E+01 -0.20154938888E+02  0.22467677387E+02  0.51100000000E-03 0.  1.
        -12    1    3    3    0    0 -0.27290055613E+01 -0.67073793263E+01 -0.20297618066E+01  0.75203950542E+01  0.00000000000E+00 0.  1.
</event>
<event>
 7    1  0.5408841E-013  0.5052887E+02  0.7816164E-02  0.1300439E+00
        -11   -1    0    0    0    0  0.00000000000E+00  0.00000000000E+00  0.45593999997E+02  0.45594000000E+02  0.51100000000E-03 0. -1.
         11   -1    0    0    0    0 -0.00000000000E+00 -0.00000000000E+00 -0.45593999997E+02  0.45594000000E+02  0.51100000000E-03 0.  1.
    9900012    2    1    2    0    0 -0.16216810786E+02  0.36718749938E+02 -0.64740361546E+01  0.50528871957E+02  0.30000036801E+02 0.  0.
         12    1    1    2    0    0  0.16216810786E+02 -0.36718749938E+02  0.64740361546E+01  0.40659128043E+02  0.00000000000E+00 0. -1.
         11    1    3    3    0    0  0.57144179555E+00 -0.34224087190E+01 -0.20400049826E+01  0.40250525159E+01  0.51100000000E-03 0. -1.
        -11    1    3    3    0    0 -0.13107785003E+01  0.62836713501E+01 -0.66087278850E+01  0.92129230124E+01  0.51100000000E-03 0.  1.
         12    1    3    3    0    0 -0.15477474081E+02  0.33857487307E+02  0.21746967130E+01  0.37290896429E+02  0.00000000000E+00 0. -1.
</event>
<event>
 7    1  0.5408841E-013  0.5052886E+02  0.7816164E-02  0.1300439E+00
        -11   -1    0    0    0    0  0.00000000000E+00  0.00000000000E+00  0.45593999997E+02  0.45594000000E+02  0.51100000000E-03 0.  1.
         11   -1    0    0    0    0 -0.00000000000E+00 -0.00000000000E+00 -0.45593999997E+02  0.45594000000E+02  0.51100000000E-03 0. -1.
    9900012    2    1    2    0    0 -0.36024993979E+02 -0.18834799367E+02  0.78471205433E+00  0.50528860420E+02  0.30000001732E+02 0.  0.
         12    1    1    2    0    0  0.36024993979E+02  0.18834799367E+02 -0.78471205433E+00  0.40659139580E+02  0.00000000000E+00 0. -1.
         11    1    3    3    0    0 -0.17187051541E+02 -0.15938369228E+02 -0.26495129158E+01  0.23589113449E+02  0.51100000000E-03 0. -1.
        -11    1    3    3    0    0 -0.17465466886E+02 -0.35352162406E+01  0.98410589349E+01  0.20356491069E+02  0.51100000000E-03 0.  1.
         12    1    3    3    0    0 -0.13724755516E+01  0.63878610167E+00 -0.64068339648E+01  0.65832559023E+01  0.00000000000E+00 0. -1.
</event>
<event>
 7    1  0.5408841E-013  0.5052886E+02  0.7816164E-02  0.1300439E+00
        -11   -1    0    0    0    0  0.00000000000E+00  0.00000000000E+00  0.45593999997E+02  0.45594000000E+02  0.51100000000E-03 0. -1.
         11   -1    0    0    0    0 -0.00000000000E+00 -0.00000000000E+00 -0.45593999997E+02  0.45594000000E+02  0.51100000000E-03 0.  1.
    9900012    2    1    2    0    0 -0.34852030261E+02  0.19453045447E+02 -0.77511563152E+01  0.50528863085E+02  0.30000009832E+02 0.  0.
         12    1    1    2    0    0  0.34852030261E+02 -0.19453045447E+02  0.77511563152E+01  0.40659136915E+02  0.00000000000E+00 0. -1.
         11    1    3    3    0    0 -0.76859923011E+01 -0.38296469958E+01 -0.19955031657E+01  0.88160482593E+01  0.51100000000E-03 0. -1.
        -11    1    3    3    0    0 -0.77124061137E+01  0.25556037256E+01 -0.10093648979E+02  0.12957394354E+02  0.51100000000E-03 0.  1.
        -12    1    3    3    0    0 -0.19453631846E+02  0.20727088717E+02  0.43379958295E+01  0.28755420472E+02  0.00000000000E+00 0.  1.
</event>
<event>
 7    1  0.5408841E-013  0.5052885E+02  0.7816164E-02  0.1300439E+00
        -11   -1    0    0    0    0  0.00000000000E+00  0.00000000000E+00  0.45593999997E+02  0.45594000000E+02  0.51100000000E-03 0.  1.
         11   -1    0    0    0    0 -0.00000000000E+00 -0.00000000000E+00 -0.45593999997E+02  0.45594000000E+02  0.51100000000E-03 0. -1.
    9900012    2    1    2    0    0 -0.14619517212E+02  0.36208081554E+02 -0.11331874696E+02  0.50528845589E+02  0.29999956652E+02 0.  0.
         12    1    1    2    0    0  0.14619517212E+02 -0.36208081554E+02  0.11331874696E+02  0.40659154411E+02  0.00000000000E+00 0. -1.
         11    1    3    3    0    0  0.22579709863E+01  0.54151279658E+01  0.42275089948E+01  0.72314505062E+01  0.51100000000E-03 0. -1.
        -11    1    3    3    0    0 -0.22080979384E+01  0.42315040916E+00  0.37954247143E+01  0.44113492038E+01  0.51100000000E-03 0.  1.
        -12    1    3    3    0    0 -0.14669390260E+02  0.30369803179E+02 -0.19354808405E+02  0.38886045879E+02  0.00000000000E+00 0.  1.
</event>
<event>
 7    1  0.5408841E-013  0.5052886E+02  0.7816164E-02  0.1300439E+00
        -11   -1    0    0    0    0  0.00000000000E+00  0.00000000000E+00  0.45593999997E+02  0.45594000000E+02  0.51100000000E-03 0.  1.
         11   -1    0    0    0    0 -0.00000000000E+00 -0.00000000000E+00 -0.45593999997E+02  0.45594000000E+02  0.51100000000E-03 0. -1.
    9900012    2    1    2    0    0  0.21005025946E+02 -0.23497385941E+02  0.25687101362E+02  0.50528862805E+02  0.30000008983E+02 0.  0.
         12    1    1    2    0    0 -0.21005025946E+02  0.23497385941E+02 -0.25687101362E+02  0.40659137195E+02  0.00000000000E+00 0. -1.
         11    1    3    3    0    0  0.55731632063E+01 -0.62176895743E+01  0.11609526994E+02  0.14300382129E+02  0.51100000000E-03 0.  1.
        -11    1    3    3    0    0  0.10870797131E+02 -0.42687370464E+01  0.18387796482E+02  0.21783190904E+02  0.51100000000E-03 0. -1.
        -12    1    3    3    0    0  0.45610656082E+01 -0.13010959321E+02 -0.43102221138E+01  0.14445289772E+02  0.00000000000E+00 0.  1.
</event>
<event>
 7    1  0.5408841E-013  0.5052888E+02  0.7816164E-02  0.1300439E+00
        -11   -1    0    0    0    0  0.00000000000E+00  0.00000000000E+00  0.45593999997E+02  0.45594000000E+02  0.51100000000E-03 0.  1.
         11   -1    0    0    0    0 -0.00000000000E+00 -0.00000000000E+00 -0.45593999997E+02  0.45594000000E+02  0.51100000000E-03 0. -1.
    9900012    2    1    2    0    0 -0.30043149697E+02  0.10000775952E+02  0.25506030859E+02  0.50528880807E+02  0.30000063701E+02 0.  0.
         12    1    1    2    0    0  0.30043149697E+02 -0.10000775952E+02 -0.25506030859E+02  0.40659119193E+02  0.00000000000E+00 0. -1.
         11    1    3    3    0    0 -0.89314539284E+01 -0.81350391850E+00  0.11566697279E+01  0.90427066204E+01  0.51100000000E-03 0. -1.
        -11    1    3    3    0    0 -0.10708133681E+02 -0.12783340639E+01 -0.17229988964E+01  0.10920942742E+02  0.51100000000E-03 0.  1.
        -12    1    3    3    0    0 -0.10403562087E+02  0.12092613935E+02  0.26072360027E+02  0.30565231445E+02  0.00000000000E+00 0.  1.
</event>
<event>
 7    1  0.5408841E-013  0.5052886E+02  0.7816164E-02  0.1300439E+00
        -11   -1    0    0    0    0  0.00000000000E+00  0.00000000000E+00  0.45593999997E+02  0.45594000000E+02  0.51100000000E-03 0. -1.
         11   -1    0    0    0    0 -0.00000000000E+00 -0.00000000000E+00 -0.45593999997E+02  0.45594000000E+02  0.51100000000E-03 0.  1.
    9900012    2    1    2    0    0  0.31380010397E+02 -0.25166610330E+02  0.59247038788E+01  0.50528862724E+02  0.30000008735E+02 0.  0.
         12    1    1    2    0    0 -0.31380010397E+02  0.25166610330E+02 -0.59247038788E+01  0.40659137276E+02  0.00000000000E+00 0. -1.
         11    1    3    3    0    0  0.91090049079E+01 -0.74107996602E+00 -0.61022179653E+01  0.10989096154E+02  0.51100000000E-03 0. -1.
        -11    1    3    3    0    0  0.16238772434E+02 -0.75244336139E+01 -0.70747548106E-01  0.17897481299E+02  0.51100000000E-03 0.  1.
         12    1    3    3    0    0  0.60322330543E+01 -0.16901096750E+02  0.12097669392E+02  0.21642285270E+02  0.00000000000E+00 0. -1.
</event>
<event>
 7    1  0.5408841E-013  0.5052885E+02  0.7816164E-02  0.1300439E+00
        -11   -1    0    0    0    0  0.00000000000E+00  0.00000000000E+00  0.45593999997E+02  0.45594000000E+02  0.51100000000E-03 0.  1.
         11   -1    0    0    0    0 -0.00000000000E+00 -0.00000000000E+00 -0.45593999997E+02  0.45594000000E+02  0.51100000000E-03 0. -1.
    9900012    2    1    2    0    0  0.17214945195E+02 -0.32329403280E+02  0.17652803260E+02  0.50528854443E+02  0.29999983565E+02 0.  0.
         12    1    1    2    0    0 -0.17214945195E+02  0.32329403280E+02 -0.17652803260E+02  0.40659145557E+02  0.00000000000E+00 0. -1.
         11    1    3    3    0    0  0.97270995511E+01 -0.93892938767E+01 -0.18864411550E+01  0.13650419982E+02  0.51100000000E-03 0. -1.
        -11    1    3    3    0    0 -0.56099666953E+01 -0.35953194648E+01  0.39561096888E+00  0.66749199753E+01  0.51100000000E-03 0.  1.
         12    1    3    3    0    0  0.13097812339E+02 -0.19344789938E+02  0.19143633446E+02  0.30203514486E+02  0.00000000000E+00 0. -1.
</event>
<event>
 7    1  0.5408841E-013  0.5052885E+02  0.7816164E-02  0.1300439E+00
        -11   -1    0    0    0    0  0.00000000000E+00  0.00000000000E+00  0.45593999997E+02  0.45594000000E+02  0.51100000000E-03 0. -1.
         11   -1    0    0    0    0 -0.00000000000E+00 -0.00000000000E+00 -0.45593999997E+02  0.45594000000E+02  0.51100000000E-03 0.  1.
    9900012    2    1    2    0    0 -0.89864681154E+01 -0.32387874209E+02 -0.22878704519E+02  0.50528854345E+02  0.29999983266E+02 0.  0.
         12    1    1    2    0    0  0.89864681154E+01  0.32387874209E+02  0.22878704519E+02  0.40659145655E+02  0.00000000000E+00 0. -1.
         11    1    3    3    0    0 -0.70140878171E+00 -0.33696543977E+01  0.20472487183E+00  0.34479642651E+01  0.51100000000E-03 0. -1.
        -11    1    3    3    0    0 -0.74848496421E+01 -0.17662724005E+02  0.22428489032E+01  0.19313859400E+02  0.51100000000E-03 0.  1.
         12    1    3    3    0    0 -0.80020969154E+00 -0.11355495806E+02 -0.25326278294E+02  0.27767030680E+02  0.00000000000E+00 0. -1.
</event>
<event>
 7    1  0.5408841E-013  0.5052886E+02  0.7816164E-02  0.1300439E+00
        -11   -1    0    0    0    0  0.00000000000E+00  0.00000000000E+00  0.45593999997E+02  0.45594000000E+02  0.51100000000E-03 0.  1.
         11   -1    0    0    0    0 -0.00000000000E+00 -0.00000000000E+00 -0.45593999997E+02  0.45594000000E+02  0.51100000000E-03 0. -1.
    9900012    2    1    2    0    0 -0.11341360756E+02  0.34862444939E+02  0.17582647421E+02  0.50528855626E+02  0.29999987160E+02 0.  0.
         12    1    1    2    0    0  0.11341360756E+02 -0.34862444939E+02 -0.17582647421E+02  0.40659144374E+02  0.00000000000E+00 0. -1.
         11    1    3    3    0    0  0.25187228525E+01  0.30774104674E+01  0.10894395540E+01  0.41232631247E+01  0.51100000000E-03 0. -1.
        -11    1    3    3    0    0 -0.57463941779E+00 -0.30188736948E+01 -0.30563885551E+01  0.43342035147E+01  0.51100000000E-03 0.  1.
        -12    1    3    3    0    0 -0.13285444191E+02  0.34803908166E+02  0.19549596422E+02  0.42071388987E+02  0.00000000000E+00 0.  1.
</event>
<event>
 7    1  0.5408841E-013  0.5052886E+02  0.7816164E-02  0.1300439E+00
        -11   -1    0    0    0    0  0.00000000000E+00  0.00000000000E+00  0.45593999997E+02  0.45594000000E+02  0.51100000000E-03 0.  1.
         11   -1    0    0    0    0 -0.00000000000E+00 -0.00000000000E+00 -0.45593999997E+02  0.45594000000E+02  0.51100000000E-03 0. -1.
    9900012    2    1    2    0    0 -0.38876995023E+02 -0.67947943950E+00  0.11886273906E+02  0.50528856604E+02  0.29999990134E+02 0.  0.
         12    1    1    2    0    0  0.38876995023E+02  0.67947943950E+00 -0.11886273906E+02  0.40659143396E+02  0.00000000000E+00 0. -1.
         11    1    3    3    0    0 -0.49629470877E+01 -0.82703667376E+01  0.30455602095E+01  0.10114605629E+02  0.51100000000E-03 0. -1.
        -11    1    3    3    0    0 -0.21995253436E+02  0.11879494419E+02  0.54315080036E-01  0.24998330179E+02  0.51100000000E-03 0.  1.
         12    1    3    3    0    0 -0.11918794499E+02 -0.42886071211E+01  0.87863986164E+01  0.15415920796E+02  0.00000000000E+00 0. -1.
</event>
<event>
 7    1  0.5408841E-013  0.5052886E+02  0.7816164E-02  0.1300439E+00
        -11   -1    0    0    0    0  0.00000000000E+00  0.00000000000E+00  0.45593999997E+02  0.45594000000E+02  0.51100000000E-03 0.  1.
         11   -1    0    0    0    0 -0.00000000000E+00 -0.00000000000E+00 -0.45593999997E+02  0.45594000000E+02  0.51100000000E-03 0. -1.
    9900012    2    1    2    0    0  0.32455499527E+02 -0.32662337517E+01  0.24272156677E+02  0.50528864221E+02  0.30000013287E+02 0.  0.
         12    1    1    2    0    0 -0.32455499527E+02  0.32662337517E+01 -0.24272156677E+02  0.40659135779E+02  0.00000000000E+00 0. -1.
         11    1    3    3    0    0  0.80126848742E+00  0.60220066942E+00  0.13108670049E+01  0.16501664767E+01  0.51100000000E-03 0. -1.
        -11    1    3    3    0    0  0.36787703257E+02 -0.43963685512E+01  0.23197838903E+02  0.43712731525E+02  0.51100000000E-03 0.  1.
         12    1    3    3    0    0 -0.51334722166E+01  0.52793413010E+00 -0.23654923070E+00  0.51659662197E+01  0.00000000000E+00 0. -1.
</event>
<event>
 7    1  0.5408841E-013  0.5052886E+02  0.7816164E-02  0.1300439E+00
        -11   -1    0    0    0    0  0.00000000000E+00  0.00000000000E+00  0.45593999997E+02  0.45594000000E+02  0.51100000000E-03 0.  1.
         11   -1    0    0    0    0 -0.00000000000E+00 -0.00000000000E+00 -0.45593999997E+02  0.45594000000E+02  0.51100000000E-03 0. -1.
    9900012    2    1    2    0    0 -0.34190996657E+02  0.16327722715E+02 -0.14749458471E+02  0.50528864413E+02  0.30000013871E+02 0.  0.
         12    1    1    2    0    0  0.34190996657E+02 -0.16327722715E+02  0.14749458471E+02  0.40659135587E+02  0.00000000000E+00 0. -1.
         11    1    3    3    0    0 -0.12762634264E+00  0.43239446753E+01 -0.87045958987E+01  0.97202251033E+01  0.51100000000E-03 0. -1.
        -11    1    3    3    0    0 -0.28480439323E+02  0.17587082950E+01 -0.26510824174E+01  0.28657576959E+02  0.51100000000E-03 0.  1.
         12    1    3    3    0    0 -0.55829309910E+01  0.10245069744E+02 -0.33937801548E+01  0.12151062351E+02  0.00000000000E+00 0. -1.
</event>
<event>
 7    1  0.5408841E-013  0.5052881E+02  0.7816164E-02  0.1300439E+00
        -11   -1    0    0    0    0  0.00000000000E+00  0.00000000000E+00  0.45593999997E+02  0.45594000000E+02  0.51100000000E-03 0. -1.
         11   -1    0    0    0    0 -0.00000000000E+00 -0.00000000000E+00 -0.45593999997E+02  0.45594000000E+02  0.51100000000E-03 0.  1.
    9900012    2    1    2    0    0 -0.17982045601E+02  0.28127392239E+02 -0.23209174838E+02  0.50528807253E+02  0.29999840127E+02 0.  0.
         12    1    1    2    0    0  0.17982045601E+02 -0.28127392239E+02  0.23209174838E+02  0.40659192747E+02  0.00000000000E+00 0. -1.
         11    1    3    3    0    0 -0.85789820851E+01  0.37563068272E+01  0.93270516806E+00  0.94116265219E+01  0.51100000000E-03 0. -1.
        -11    1    3    3    0    0 -0.85598999136E+01  0.96907965553E+01 -0.22978751818E+02  0.26366768095E+02  0.51100000000E-03 0.  1.
         12    1    3    3    0    0 -0.84316360263E+00  0.14680288856E+02 -0.11631281882E+01  0.14750412636E+02  0.00000000000E+00 0. -1.
</event>
<event>
 7    1  0.5408841E-013  0.5052888E+02  0.7816164E-02  0.1300439E+00
        -11   -1    0    0    0    0  0.00000000000E+00  0.00000000000E+00  0.45593999997E+02  0.45594000000E+02  0.51100000000E-03 0. -1.
         11   -1    0    0    0    0 -0.00000000000E+00 -0.00000000000E+00 -0.45593999997E+02  0.45594000000E+02  0.51100000000E-03 0.  1.
    9900012    2    1    2    0    0  0.40578075105E+02 -0.67952305704E+00  0.24743529015E+01  0.50528876140E+02  0.30000049515E+02 0.  0.
         12    1    1    2    0    0 -0.40578075105E+02  0.67952305704E+00 -0.24743529015E+01  0.40659123860E+02  0.00000000000E+00 0. -1.
         11    1    3    3    0    0  0.10359910954E+02  0.64163977949E+00  0.12050399171E+02  0.15904451484E+02  0.51100000000E-03 0. -1.
        -11    1    3    3    0    0 -0.15352474016E-01 -0.69039008581E+00 -0.37690859424E+01  0.38318250575E+01  0.51100000000E-03 0.  1.
        -12    1    3    3    0    0  0.30233516625E+02 -0.63077275072E+00 -0.58069603269E+01  0.30792599598E+02  0.00000000000E+00 0.  1.
</event>
<event>
 7    1  0.5408841E-013  0.5052886E+02  0.7816164E-02  0.1300439E+00
        -11   -1    0    0    0    0  0.00000000000E+00  0.00000000000E+00  0.45593999997E+02  0.45594000000E+02  0.51100000000E-03 0.  1.
         11   -1    0    0    0    0 -0.00000000000E+00 -0.00000000000E+00 -0.45593999997E+02  0.45594000000E+02  0.51100000000E-03 0. -1.
    9900012    2    1    2    0    0 -0.14064500400E+02  0.21184186631E+02  0.31726736641E+02  0.50528858929E+02  0.29999997202E+02 0.  0.
         12    1    1    2    0    0  0.14064500400E+02 -0.21184186631E+02 -0.31726736641E+02  0.40659141071E+02  0.00000000000E+00 0. -1.
         11    1    3    3    0    0 -0.69280052795E+01  0.12015281877E+02  0.12374631231E+02  0.18587516082E+02  0.51100000000E-03 0. -1.
        -11    1    3    3    0    0 -0.11266672614E+01  0.15814192173E+02  0.15553199788E+02  0.22209459181E+02  0.51100000000E-03 0.  1.
         12    1    3    3    0    0 -0.60098278591E+01 -0.66452874188E+01  0.37989056222E+01  0.97318836667E+01  0.00000000000E+00 0. -1.
</event>
<event>
 7    1  0.5408841E-013  0.5052887E+02  0.7816164E-02  0.1300439E+00
        -11   -1    0    0    0    0  0.00000000000E+00  0.00000000000E+00  0.45593999997E+02  0.45594000000E+02  0.51100000000E-03 0.  1.
         11   -1    0    0    0    0 -0.00000000000E+00 -0.00000000000E+00 -0.45593999997E+02  0.45594000000E+02  0.51100000000E-03 0. -1.
    9900012    2    1    2    0    0 -0.13368438120E+02 -0.21143799061E+02  0.32052913900E+02  0.50528872292E+02  0.30000037818E+02 0.  0.
         12    1    1    2    0    0  0.13368438120E+02  0.21143799061E+02 -0.32052913900E+02  0.40659127708E+02  0.00000000000E+00 0. -1.
         11    1    3    3    0    0  0.36625083102E+01 -0.10386674691E+02  0.78176000957E+01  0.13505993106E+02  0.51100000000E-03 0. -1.
        -11    1    3    3    0    0 -0.35327273521E+01 -0.12005622866E+02  0.18427534882E+02  0.22275304376E+02  0.51100000000E-03 0.  1.
         12    1    3    3    0    0 -0.13498219078E+02  0.12484984955E+01  0.58077789224E+01  0.14747574810E+02  0.00000000000E+00 0. -1.
</event>
<event>
 7    1  0.5408841E-013  0.5052886E+02  0.7816164E-02  0.1300439E+00
        -11   -1    0    0    0    0  0.00000000000E+00  0.00000000000E+00  0.45593999997E+02  0.45594000000E+02  0.51100000000E-03 0. -1.
         11   -1    0    0    0    0 -0.00000000000E+00 -0.00000000000E+00 -0.45593999997E+02  0.45594000000E+02  0.51100000000E-03 0.  1.
    9900012    2    1    2    0    0  0.10826016371E+02  0.32374047391E+02 -0.22088107256E+02  0.50528855185E+02  0.29999985821E+02 0.  0.
         12    1    1    2    0    0 -0.10826016371E+02 -0.32374047391E+02  0.22088107256E+02  0.40659144815E+02  0.00000000000E+00 0. -1.
         11    1    3    3    0    0  0.95465280122E+01  0.11559697709E+02  0.29332568553E+01  0.15276347870E+02  0.51100000000E-03 0. -1.
        -11    1    3    3    0    0  0.15905350176E+01 -0.13459559046E+01 -0.39277832592E+00  0.21203004537E+01  0.51100000000E-03 0.  1.
        -12    1    3    3    0    0 -0.31104665908E+00  0.22160305586E+02 -0.24628585786E+02  0.33132206861E+02  0.00000000000E+00 0.  1.
</event>
<event>
 7    1  0.5408841E-013  0.5052887E+02  0.7816164E-02  0.1300439E+00
        -11   -1    0    0    0    0  0.00000000000E+00  0.00000000000E+00  0.45593999997E+02  0.45594000000E+02  0.51100000000E-03 0.  1.
         11   -1    0    0    0    0 -0.00000000000E+00 -0.00000000000E+00 -0.45593999997E+02  0.45594000000E+02  0.51100000000E-03 0. -1.
    9900012    2    1    2    0    0 -0.30283863592E+02 -0.18642128855E+02  0.19711008311E+02  0.50528865591E+02  0.30000017450E+02 0.  0.
         12    1    1    2    0    0  0.30283863592E+02  0.18642128855E+02 -0.19711008311E+02  0.40659134409E+02  0.00000000000E+00 0. -1.
         11    1    3    3    0    0 -0.12454887635E+02 -0.16818004872E+02  0.56839639157E+01  0.21685870052E+02  0.51100000000E-03 0. -1.
        -11    1    3    3    0    0 -0.20570440980E+02 -0.13992332201E+01  0.78324522726E+01  0.22055570828E+02  0.51100000000E-03 0.  1.
        -12    1    3    3    0    0  0.27414650232E+01 -0.42489076356E+00  0.61945921224E+01  0.67874247102E+01  0.00000000000E+00 0.  1.
</event>
<event>
 7    1  0.5408841E-013  0.5052886E+02  0.7816164E-02  0.1300439E+00
        -11   -1    0    0    0    0  0.00000000000E+00  0.00000000000E+00  0.45593999997E+02  0.45594000000E+02  0.51100000000E-03 0.  1.
         11   -1    0    0    0    0 -0.00000000000E+00 -0.00000000000E+00 -0.45593999997E+02  0.45594000000E+02  0.51100000000E-03 0. -1.
    9900012    2    1    2    0    0  0.93857399570E+01 -0.21887211245E+02  0.32954873879E+02  0.50528857818E+02  0.29999993823E+02 0.  0.
         12    1    1    2    0    0 -0.93857399570E+01  0.21887211245E+02 -0.32954873879E+02  0.40659142182E+02  0.00000000000E+00 0. -1.
         11    1    3    3    0    0  0.76228501015E+01 -0.79138357515E+01  0.17303335345E+02  0.20497367008E+02  0.51100000000E-03 0. -1.
        -11    1    3    3    0    0 -0.30619417915E+01 -0.18588385151E+02  0.12772977370E+02  0.22760766709E+02  0.51100000000E-03 0.  1.
         12    1    3    3    0    0  0.48248316470E+01  0.46150096572E+01  0.28785611646E+01  0.72707240999E+01  0.00000000000E+00 0. -1.
</event>
<event>
 7    1  0.5408841E-013  0.5052887E+02  0.7816164E-02  0.1300439E+00
        -11   -1    0    0    0    0  0.00000000000E+00  0.00000000000E+00  0.45593999997E+02  0.45594000000E+02  0.51100000000E-03 0.  1.
         11   -1    0    0    0    0 -0.00000000000E+00 -0.00000000000E+00 -0.45593999997E+02  0.45594000000E+02  0.51100000000E-03 0. -1.
    9900012    2    1    2    0    0 -0.31001747531E+02 -0.13518340684E+02  0.22567915563E+02  0.50528871902E+02  0.30000036633E+02 0.  0.
         12    1    1    2    0    0  0.31001747531E+02  0.13518340684E+02 -0.22567915563E+02  0.40659128098E+02  0.00000000000E+00 0. -1.
         11    1    3    3    0    0 -0.39483956388E+01 -0.11710556124E+02  0.10380987774E+02  0.16139760230E+02  0.51100000000E-03 0. -1.
        -11    1    3    3    0    0 -0.27275476022E+01  0.59511684464E+01  0.34677769364E+01  0.74081980901E+01  0.51100000000E-03 0.  1.
        -12    1    3    3    0    0 -0.24325804290E+02 -0.77589530061E+01  0.87191508530E+01  0.26980913582E+02  0.00000000000E+00 0.  1.
</event>
<event>
 7    1  0.5408841E-013  0.5052886E+02  0.7816164E-02  0.1300439E+00
        -11   -1    0    0    0    0  0.00000000000E+00  0.00000000000E+00  0.45593999997E+02  0.45594000000E+02  0.51100000000E-03 0. -1.
         11   -1    0    0    0    0 -0.00000000000E+00 -0.00000000000E+00 -0.45593999997E+02  0.45594000000E+02  0.51100000000E-03 0.  1.
    9900012    2    1    2    0    0  0.23712071136E+02 -0.32616489544E+02 -0.52027008352E+01  0.50528858301E+02  0.29999995291E+02 0.  0.
         12    1    1    2    0    0 -0.23712071136E+02  0.32616489544E+02  0.52027008352E+01  0.40659141699E+02  0.00000000000E+00 0. -1.
         11    1    3    3    0    0  0.14149634155E+02 -0.22071833187E+00  0.19456086907E+01  0.14284476075E+02  0.51100000000E-03 0. -1.
        -11    1    3    3    0    0  0.42975600404E+01 -0.33181079396E+01  0.11520462982E+01  0.55503219307E+01  0.51100000000E-03 0.  1.
        -12    1    3    3    0    0  0.52648769406E+01 -0.29077663273E+02 -0.83003558241E+01  0.30694060295E+02  0.00000000000E+00 0.  1.
</event>
<event>
 7    1  0.5408841E-013  0.5052885E+02  0.7816164E-02  0.1300439E+00
        -11   -1    0    0    0    0  0.00000000000E+00  0.00000000000E+00  0.45593999997E+02  0.45594000000E+02  0.51100000000E-03 0.  1.
         11   -1    0    0    0    0 -0.00000000000E+00 -0.00000000000E+00 -0.45593999997E+02  0.45594000000E+02  0.51100000000E-03 0. -1.
    9900012    2    1    2    0    0  0.12688737481E+02 -0.22696252605E+02  0.31257676221E+02  0.50528852641E+02  0.29999978088E+02 0.  0.
         12    1    1    2    0    0 -0.12688737481E+02  0.22696252605E+02 -0.31257676221E+02  0.40659147359E+02  0.00000000000E+00 0. -1.
         11    1    3    3    0    0  0.79300216530E+01 -0.19184338778E+02  0.17303013796E+02  0.27024403499E+02  0.51100000000E-03 0. -1.
        -11    1    3    3    0    0  0.66425592380E+01 -0.69021727758E+01  0.16347358806E+02  0.18947287997E+02  0.51100000000E-03 0.  1.
         12    1    3    3    0    0 -0.18838434097E+01  0.33902589484E+01 -0.23926963814E+01  0.45571611452E+01  0.00000000000E+00 0. -1.
</event>
<event>
 7    1  0.5408841E-013  0.5052885E+02  0.7816164E-02  0.1300439E+00
        -11   -1    0    0    0    0  0.00000000000E+00  0.00000000000E+00  0.45593999997E+02  0.45594000000E+02  0.51100000000E-03 0.  1.
         11   -1    0    0    0    0 -0.00000000000E+00 -0.00000000000E+00 -0.45593999997E+02  0.45594000000E+02  0.51100000000E-03 0. -1.
    9900012    2    1    2    0    0 -0.16347275733E+02 -0.30628518125E+02  0.21161921279E+02  0.50528850247E+02  0.29999970810E+02 0.  0.
         12    1    1    2    0    0  0.16347275733E+02  0.30628518125E+02 -0.21161921279E+02  0.40659149753E+02  0.00000000000E+00 0. -1.
         11    1    3    3    0    0  0.25089874560E+01  0.70388337766E+00 -0.29502079051E+01  0.39362668619E+01  0.51100000000E-03 0. -1.
        -11    1    3    3    0    0  0.19430584156E+01 -0.50623007389E+01  0.19640906130E+00  0.54259507515E+01  0.51100000000E-03 0.  1.
        -12    1    3    3    0    0 -0.20799321605E+02 -0.26270100764E+02  0.23915720123E+02  0.41166632633E+02  0.00000000000E+00 0.  1.
</event>
<event>
 7    1  0.5408841E-013  0.5052887E+02  0.7816164E-02  0.1300439E+00
        -11   -1    0    0    0    0  0.00000000000E+00  0.00000000000E+00  0.45593999997E+02  0.45594000000E+02  0.51100000000E-03 0. -1.
         11   -1    0    0    0    0 -0.00000000000E+00 -0.00000000000E+00 -0.45593999997E+02  0.45594000000E+02  0.51100000000E-03 0.  1.
    9900012    2    1    2    0    0 -0.25434377587E+01 -0.26077514165E+02 -0.31091139454E+02  0.50528870973E+02  0.30000033810E+02 0.  0.
         12    1    1    2    0    0  0.25434377587E+01  0.26077514165E+02  0.31091139454E+02  0.40659129027E+02  0.00000000000E+00 0. -1.
         11    1    3    3    0    0  0.24059499813E+01 -0.34195218513E+01 -0.79241070701E+01  0.89595311330E+01  0.51100000000E-03 0. -1.
        -11    1    3    3    0    0  0.86612685398E+01 -0.18198621339E+02 -0.12577105340E+02  0.23756914159E+02  0.51100000000E-03 0.  1.
         12    1    3    3    0    0 -0.13610656280E+02 -0.44593709755E+01 -0.10589927044E+02  0.17812425681E+02  0.00000000000E+00 0. -1.
</event>
<event>
 7    1  0.5408841E-013  0.5052885E+02  0.7816164E-02  0.1300439E+00
        -11   -1    0    0    0    0  0.00000000000E+00  0.00000000000E+00  0.45593999997E+02  0.45594000000E+02  0.51100000000E-03 0.  1.
         11   -1    0    0    0    0 -0.00000000000E+00 -0.00000000000E+00 -0.45593999997E+02  0.45594000000E+02  0.51100000000E-03 0. -1.
    9900012    2    1    2    0    0  0.10981348411E+02  0.38355480828E+02 -0.78379658222E+01  0.50528848131E+02  0.29999964379E+02 0.  0.
         12    1    1    2    0    0 -0.10981348411E+02 -0.38355480828E+02  0.78379658222E+01  0.40659151869E+02  0.00000000000E+00 0. -1.
         11    1    3    3    0    0 -0.43525187457E+01  0.28688673370E+01  0.32058348170E+01  0.61198199617E+01  0.51100000000E-03 0. -1.
        -11    1    3    3    0    0  0.16601416416E+02  0.36822094753E+02 -0.12249546175E+02  0.42208116171E+02  0.51100000000E-03 0.  1.
         12    1    3    3    0    0 -0.12675492595E+01 -0.13354812617E+01  0.12057455358E+01  0.22009119979E+01  0.00000000000E+00 0. -1.
</event>
<event>
 7    1  0.5408841E-013  0.5052885E+02  0.7816164E-02  0.1300439E+00
        -11   -1    0    0    0    0  0.00000000000E+00  0.00000000000E+00  0.45593999997E+02  0.45594000000E+02  0.51100000000E-03 0.  1.
         11   -1    0    0    0    0 -0.00000000000E+00 -0.00000000000E+00 -0.45593999997E+02  0.45594000000E+02  0.51100000000E-03 0. -1.
    9900012    2    1    2    0    0 -0.28989840618E+02  0.25844675269E+02 -0.12033623152E+02  0.50528853612E+02  0.29999981040E+02 0.  0.
         12    1    1    2    0    0  0.28989840618E+02 -0.25844675269E+02  0.12033623152E+02  0.40659146388E+02  0.00000000000E+00 0. -1.
         11    1    3    3    0    0 -0.32277200145E+01 -0.49044765718E+01 -0.37977380244E+01  0.69924874901E+01  0.51100000000E-03 0. -1.
        -11    1    3    3    0    0 -0.12732909356E+02  0.61185039076E+01  0.10492271023E+01  0.14165590299E+02  0.51100000000E-03 0.  1.
        -12    1    3    3    0    0 -0.13029211247E+02  0.24630647933E+02 -0.92851122304E+01  0.29370775823E+02  0.00000000000E+00 0.  1.
</event>
<event>
 7    1  0.5408841E-013  0.5052885E+02  0.7816164E-02  0.1300439E+00
        -11   -1    0    0    0    0  0.00000000000E+00  0.00000000000E+00  0.45593999997E+02  0.45594000000E+02  0.51100000000E-03 0.  1.
         11   -1    0    0    0    0 -0.00000000000E+00 -0.00000000000E+00 -0.45593999997E+02  0.45594000000E+02  0.51100000000E-03 0. -1.
    9900012    2    1    2    0    0 -0.54264519590E+01 -0.43021335709E+01  0.40065090196E+02  0.50528853593E+02  0.29999980983E+02 0.  0.
         12    1    1    2    0    0  0.54264519590E+01  0.43021335709E+01 -0.40065090196E+02  0.40659146407E+02  0.00000000000E+00 0. -1.
         11    1    3    3    0    0 -0.23963486000E+01 -0.72500212363E+01  0.20935789929E+02  0.22284806366E+02  0.51100000000E-03 0. -1.
        -11    1    3    3    0    0  0.67912445640E+00  0.28460236164E-01  0.22457877599E+02  0.22468161619E+02  0.51100000000E-03 0.  1.
         12    1    3    3    0    0 -0.37092278153E+01  0.29194274293E+01 -0.33285773330E+01  0.57758856085E+01  0.00000000000E+00 0. -1.
</event>
<event>
 7    1  0.5408841E-013  0.5052886E+02  0.7816164E-02  0.1300439E+00
        -11   -1    0    0    0    0  0.00000000000E+00  0.00000000000E+00  0.45593999997E+02  0.45594000000E+02  0.51100000000E-03 0.  1.
         11   -1    0    0    0    0 -0.00000000000E+00 -0.00000000000E+00 -0.45593999997E+02  0.45594000000E+02  0.51100000000E-03 0. -1.
    9900012    2    1    2    0    0 -0.62345672912E+01 -0.10313887469E+02  0.38831941120E+02  0.50528858897E+02  0.29999997105E+02 0.  0.
         12    1    1    2    0    0  0.62345672912E+01  0.10313887469E+02 -0.38831941120E+02  0.40659141103E+02  0.00000000000E+00 0. -1.
         11    1    3    3    0    0 -0.54666620002E+00 -0.24556005716E+01  0.30924325547E+02  0.31026484314E+02  0.51100000000E-03 0. -1.
        -11    1    3    3    0    0 -0.13938238184E+01  0.26114015259E+01  0.76287049240E+01  0.81828663587E+01  0.51100000000E-03 0.  1.
         12    1    3    3    0    0 -0.42940772728E+01 -0.10469688423E+02  0.27891064974E+00  0.11319508225E+02  0.00000000000E+00 0. -1.
</event>
<event>
 7    1  0.5408841E-013  0.5052886E+02  0.7816164E-02  0.1300439E+00
        -11   -1    0    0    0    0  0.00000000000E+00  0.00000000000E+00  0.45593999997E+02  0.45594000000E+02  0.51100000000E-03 0.  1.
         11   -1    0    0    0    0 -0.00000000000E+00 -0.00000000000E+00 -0.45593999997E+02  0.45594000000E+02  0.51100000000E-03 0. -1.
    9900012    2    1    2    0    0 -0.10601375524E+02 -0.27243573046E+02  0.28258873370E+02  0.50528863765E+02  0.30000011899E+02 0.  0.
         12    1    1    2    0    0  0.10601375524E+02  0.27243573046E+02 -0.28258873370E+02  0.40659136235E+02  0.00000000000E+00 0. -1.
         11    1    3    3    0    0 -0.14191087656E+01 -0.11065441183E+02  0.47175460957E+01  0.12112518305E+02  0.51100000000E-03 0. -1.
        -11    1    3    3    0    0 -0.12666307860E+02 -0.19848452546E+02  0.23625449725E+02  0.33355034077E+02  0.51100000000E-03 0.  1.
         12    1    3    3    0    0  0.34840411024E+01  0.36703206841E+01 -0.84122450460E-01  0.50613113828E+01  0.00000000000E+00 0. -1.
</event>
<event>
 7    1  0.5408841E-013  0.5052887E+02  0.7816164E-02  0.1300439E+00
        -11   -1    0    0    0    0  0.00000000000E+00  0.00000000000E+00  0.45593999997E+02  0.45594000000E+02  0.51100000000E-03 0. -1.
         11   -1    0    0    0    0 -0.00000000000E+00 -0.00000000000E+00 -0.45593999997E+02  0.45594000000E+02  0.51100000000E-03 0.  1.
    9900012    2    1    2    0    0  0.33116627684E+02 -0.14975928424E+02 -0.18225690579E+02  0.50528865007E+02  0.30000015674E+02 0.  0.
         12    1    1    2    0    0 -0.33116627684E+02  0.14975928424E+02  0.18225690579E+02  0.40659134993E+02  0.00000000000E+00 0. -1.
         11    1    3    3    0    0  0.27334613078E+01 -0.10507329560E+02 -0.91749966938E+01  0.14214652644E+02  0.51100000000E-03 0. -1.
        -11    1    3    3    0    0  0.31782278121E+02 -0.63729354669E+01 -0.97505914952E+01  0.33849690454E+02  0.51100000000E-03 0.  1.
         12    1    3    3    0    0 -0.13991117449E+01  0.19043366029E+01  0.69989761007E+00  0.24645219083E+01  0.00000000000E+00 0. -1.
</event>
<event>
 7    1  0.5408841E-013  0.5052886E+02  0.7816164E-02  0.1300439E+00
        -11   -1    0    0    0    0  0.00000000000E+00  0.00000000000E+00  0.45593999997E+02  0.45594000000E+02  0.51100000000E-03 0.  1.
         11   -1    0    0    0    0 -0.00000000000E+00 -0.00000000000E+00 -0.45593999997E+02  0.45594000000E+02  0.51100000000E-03 0. -1.
    9900012    2    1    2    0    0  0.39292051514E+02 -0.16211798701E+01  0.10328206028E+02  0.50528863559E+02  0.30000011274E+02 0.  0.
         12    1    1    2    0    0 -0.39292051514E+02  0.16211798701E+01 -0.10328206028E+02  0.40659136441E+02  0.00000000000E+00 0. -1.
         11    1    3    3    0    0  0.14854192694E+02 -0.84431444619E+01  0.52736003472E+00  0.17094204804E+02  0.51100000000E-03 0. -1.
        -11    1    3    3    0    0  0.27502153316E+02  0.80631723017E+01  0.87915312123E+01  0.29977895288E+02  0.51100000000E-03 0.  1.
         12    1    3    3    0    0 -0.30642944965E+01 -0.12412077099E+01  0.10093147805E+01  0.34567634670E+01  0.00000000000E+00 0. -1.
</event>
<event>
 7    1  0.5408841E-013  0.5052886E+02  0.7816164E-02  0.1300439E+00
        -11   -1    0    0    0    0  0.00000000000E+00  0.00000000000E+00  0.45593999997E+02  0.45594000000E+02  0.51100000000E-03 0. -1.
         11   -1    0    0    0    0 -0.00000000000E+00 -0.00000000000E+00 -0.45593999997E+02  0.45594000000E+02  0.51100000000E-03 0.  1.
    9900012    2    1    2    0    0  0.31894140182E+02  0.16805671309E+02 -0.18801571725E+02  0.50528857542E+02  0.29999992985E+02 0.  0.
         12    1    1    2    0    0 -0.31894140182E+02 -0.16805671309E+02  0.18801571725E+02  0.40659142458E+02  0.00000000000E+00 0. -1.
         11    1    3    3    0    0 -0.20190540713E+01  0.52125138209E+01  0.27665026162E+00  0.55967325560E+01  0.51100000000E-03 0. -1.
        -11    1    3    3    0    0  0.19734289475E+02  0.15812158510E+02 -0.82503458207E+01  0.26599525263E+02  0.51100000000E-03 0.  1.
         12    1    3    3    0    0  0.14178904778E+02 -0.42190010217E+01 -0.10827876166E+02  0.18332599723E+02  0.00000000000E+00 0. -1.
</event>
<event>
 7    1  0.5408841E-013  0.5052886E+02  0.7816164E-02  0.1300439E+00
        -11   -1    0    0    0    0  0.00000000000E+00  0.00000000000E+00  0.45593999997E+02  0.45594000000E+02  0.51100000000E-03 0.  1.
         11   -1    0    0    0    0 -0.00000000000E+00 -0.00000000000E+00 -0.45593999997E+02  0.45594000000E+02  0.51100000000E-03 0. -1.
    9900012    2    1    2    0    0  0.11262418926E+02  0.37816349819E+02 -0.98105642474E+01  0.50528861242E+02  0.30000004231E+02 0.  0.
         12    1    1    2    0    0 -0.11262418926E+02 -0.37816349819E+02  0.98105642474E+01  0.40659138758E+02  0.00000000000E+00 0. -1.
         11    1    3    3    0    0  0.97530335848E+01  0.13596460734E+00 -0.16931384537E+01  0.98998418455E+01  0.51100000000E-03 0. -1.
        -11    1    3    3    0    0  0.47789530612E+01  0.74636254158E+01 -0.47354150794E+01  0.10048296022E+02  0.51100000000E-03 0.  1.
        -12    1    3    3    0    0 -0.32695677197E+01  0.30216759796E+02 -0.33820107144E+01  0.30580723374E+02  0.00000000000E+00 0.  1.
</event>
<event>
 7    1  0.5408841E-013  0.5052886E+02  0.7816164E-02  0.1300439E+00
        -11   -1    0    0    0    0  0.00000000000E+00  0.00000000000E+00  0.45593999997E+02  0.45594000000E+02  0.51100000000E-03 0.  1.
         11   -1    0    0    0    0 -0.00000000000E+00 -0.00000000000E+00 -0.45593999997E+02  0.45594000000E+02  0.51100000000E-03 0. -1.
    9900012    2    1    2    0    0 -0.39182580415E+01 -0.40189511747E+02  0.47556051694E+01  0.50528863498E+02  0.30000011090E+02 0.  0.
         12    1    1    2    0    0  0.39182580415E+01  0.40189511747E+02 -0.47556051694E+01  0.40659136502E+02  0.00000000000E+00 0. -1.
         11    1    3    3    0    0  0.82629746673E+01 -0.82616610531E+01  0.49885397628E+01  0.12705011725E+02  0.51100000000E-03 0. -1.
        -11    1    3    3    0    0  0.23949412167E+01 -0.14785439857E+02  0.23978509457E+01  0.15168871567E+02  0.51100000000E-03 0.  1.
         12    1    3    3    0    0 -0.14576173926E+02 -0.17142410837E+02 -0.26307855392E+01  0.22654980207E+02  0.00000000000E+00 0. -1.
</event>
<event>
 7    1  0.5408841E-013  0.5052886E+02  0.7816164E-02  0.1300439E+00
        -11   -1    0    0    0    0  0.00000000000E+00  0.00000000000E+00  0.45593999997E+02  0.45594000000E+02  0.51100000000E-03 0.  1.
         11   -1    0    0    0    0 -0.00000000000E+00 -0.00000000000E+00 -0.45593999997E+02  0.45594000000E+02  0.51100000000E-03 0. -1.
    9900012    2    1    2    0    0  0.36752116217E+02  0.37797644457E+01 -0.16975310618E+02  0.50528857900E+02  0.29999994073E+02 0.  0.
         12    1    1    2    0    0 -0.36752116217E+02 -0.37797644457E+01  0.16975310618E+02  0.40659142100E+02  0.00000000000E+00 0. -1.
         11    1    3    3    0    0  0.84744230240E+01 -0.38412598173E+00 -0.47577044973E+01  0.97262094726E+01  0.51100000000E-03 0. -1.
        -11    1    3    3    0    0  0.16403702552E+02 -0.10829689939E+02 -0.44115014878E+01  0.20145098343E+02  0.51100000000E-03 0.  1.
         12    1    3    3    0    0  0.11873990641E+02  0.14993580367E+02 -0.78061046333E+01  0.20657550085E+02  0.00000000000E+00 0. -1.
</event>
<event>
 7    1  0.5408841E-013  0.5052886E+02  0.7816164E-02  0.1300439E+00
        -11   -1    0    0    0    0  0.00000000000E+00  0.00000000000E+00  0.45593999997E+02  0.45594000000E+02  0.51100000000E-03 0. -1.
         11   -1    0    0    0    0 -0.00000000000E+00 -0.00000000000E+00 -0.45593999997E+02  0.45594000000E+02  0.51100000000E-03 0.  1.
    9900012    2    1    2    0    0 -0.39606462926E+02 -0.82278365043E+01 -0.40983539787E+01  0.50528859522E+02  0.29999999003E+02 0.  0.
         12    1    1    2    0    0  0.39606462926E+02  0.82278365043E+01  0.40983539787E+01  0.40659140478E+02  0.00000000000E+00 0. -1.
         11    1    3    3    0    0 -0.60775158347E+01 -0.97705883911E+00  0.73117282299E+00  0.61988270386E+01  0.51100000000E-03 0. -1.
        -11    1    3    3    0    0 -0.38237732696E+02 -0.85213500560E+01 -0.39524658788E+01  0.39374605970E+02  0.51100000000E-03 0.  1.
         12    1    3    3    0    0  0.47087856043E+01  0.12705723908E+01 -0.87706092295E+00  0.49554265135E+01  0.00000000000E+00 0. -1.
</event>
<event>
 7    1  0.5408841E-013  0.5052885E+02  0.7816164E-02  0.1300439E+00
        -11   -1    0    0    0    0  0.00000000000E+00  0.00000000000E+00  0.45593999997E+02  0.45594000000E+02  0.51100000000E-03 0.  1.
         11   -1    0    0    0    0 -0.00000000000E+00 -0.00000000000E+00 -0.45593999997E+02  0.45594000000E+02  0.51100000000E-03 0. -1.
    9900012    2    1    2    0    0 -0.16135057287E+02  0.25702040509E+02  0.27059772192E+02  0.50528853046E+02  0.29999979317E+02 0.  0.
         12    1    1    2    0    0  0.16135057287E+02 -0.25702040509E+02 -0.27059772192E+02  0.40659146954E+02  0.00000000000E+00 0. -1.
         11    1    3    3    0    0 -0.37390204027E+01 -0.22585660683E+01 -0.93858244140E+00  0.44679225057E+01  0.51100000000E-03 0. -1.
        -11    1    3    3    0    0 -0.47141819741E+01  0.70828851945E+01 -0.19746182378E+01  0.87344084980E+01  0.51100000000E-03 0.  1.
        -12    1    3    3    0    0 -0.76818549101E+01  0.20877721383E+02  0.29972972871E+02  0.37326522042E+02  0.00000000000E+00 0.  1.
</event>
<event>
 7    1  0.5408841E-013  0.5052888E+02  0.7816164E-02  0.1300439E+00
        -11   -1    0    0    0    0  0.00000000000E+00  0.00000000000E+00  0.45593999997E+02  0.45594000000E+02  0.51100000000E-03 0. -1.
         11   -1    0    0    0    0 -0.00000000000E+00 -0.00000000000E+00 -0.45593999997E+02  0.45594000000E+02  0.51100000000E-03 0.  1.
    9900012    2    1    2    0    0  0.26302862122E+02  0.25188536934E+02 -0.18079304473E+02  0.50528878035E+02  0.30000055276E+02 0.  0.
         12    1    1    2    0    0 -0.26302862122E+02 -0.25188536934E+02  0.18079304473E+02  0.40659121965E+02  0.00000000000E+00 0. -1.
         11    1    3    3    0    0  0.20316035989E+01 -0.26566735805E+01  0.83857176888E-01  0.33454984657E+01  0.51100000000E-03 0. -1.
        -11    1    3    3    0    0  0.19436138972E+02  0.91406875190E+01 -0.12631929314E+01  0.21515374110E+02  0.51100000000E-03 0.  1.
        -12    1    3    3    0    0  0.48351195515E+01  0.18704522996E+02 -0.16899968719E+02  0.25668005460E+02  0.00000000000E+00 0.  1.
</event>
<event>
 7    1  0.5408841E-013  0.5052886E+02  0.7816164E-02  0.1300439E+00
        -11   -1    0    0    0    0  0.00000000000E+00  0.00000000000E+00  0.45593999997E+02  0.45594000000E+02  0.51100000000E-03 0.  1.
         11   -1    0    0    0    0 -0.00000000000E+00 -0.00000000000E+00 -0.45593999997E+02  0.45594000000E+02  0.51100000000E-03 0. -1.
    9900012    2    1    2    0    0  0.40426393762E+02  0.64968055322E+00  0.42953318429E+01  0.50528864826E+02  0.30000015125E+02 0.  0.
         12    1    1    2    0    0 -0.40426393762E+02 -0.64968055322E+00 -0.42953318429E+01  0.40659135174E+02  0.00000000000E+00 0. -1.
         11    1    3    3    0    0  0.11853175176E+02  0.43479343258E+01  0.27962457325E+01  0.12931406927E+02  0.51100000000E-03 0. -1.
        -11    1    3    3    0    0  0.20854683260E+02  0.89475291857E+01  0.19381826284E+01  0.22775702944E+02  0.51100000000E-03 0.  1.
         12    1    3    3    0    0  0.77185353262E+01 -0.12645782958E+02 -0.43909651803E+00  0.14821754956E+02  0.00000000000E+00 0. -1.
</event>
<event>
 7    1  0.5408841E-013  0.5052885E+02  0.7816164E-02  0.1300439E+00
        -11   -1    0    0    0    0  0.00000000000E+00  0.00000000000E+00  0.45593999997E+02  0.45594000000E+02  0.51100000000E-03 0. -1.
         11   -1    0    0    0    0 -0.00000000000E+00 -0.00000000000E+00 -0.45593999997E+02  0.45594000000E+02  0.51100000000E-03 0.  1.
    9900012    2    1    2    0    0 -0.17465632085E+01 -0.40295545216E+02  0.51366540636E+01  0.50528847743E+02  0.29999963199E+02 0.  0.
         12    1    1    2    0    0  0.17465632085E+01  0.40295545216E+02 -0.51366540636E+01  0.40659152257E+02  0.00000000000E+00 0. -1.
         11    1    3    3    0    0  0.71373316322E+01  0.11966956251E+00  0.19897237002E+01  0.74104537174E+01  0.51100000000E-03 0. -1.
        -11    1    3    3    0    0 -0.88715181688E+01 -0.15022661326E+02  0.31338489806E+01  0.17725834187E+02  0.51100000000E-03 0.  1.
        -12    1    3    3    0    0 -0.12376671913E-01 -0.25392553453E+02  0.13081382693E-01  0.25392559838E+02  0.00000000000E+00 0.  1.
</event>
<event>
 7    1  0.5408841E-013  0.5052886E+02  0.7816164E-02  0.1300439E+00
        -11   -1    0    0    0    0  0.00000000000E+00  0.00000000000E+00  0.45593999997E+02  0.45594000000E+02  0.51100000000E-03 0. -1.
         11   -1    0    0    0    0 -0.00000000000E+00 -0.00000000000E+00 -0.45593999997E+02  0.45594000000E+02  0.51100000000E-03 0.  1.
    9900012    2    1    2    0    0  0.28666935819E+02 -0.22199654107E+02 -0.18399658456E+02  0.50528864704E+02  0.30000014754E+02 0.  0.
         12    1    1    2    0    0 -0.28666935819E+02  0.22199654107E+02  0.18399658456E+02  0.40659135296E+02  0.00000000000E+00 0. -1.
         11    1    3    3    0    0  0.32255853870E+01 -0.12783132025E+02 -0.71514782714E+00  0.13203192877E+02  0.51100000000E-03 0. -1.
        -11    1    3    3    0    0  0.35215569003E+01  0.49514063489E+01 -0.75115907392E+00  0.61222567775E+01  0.51100000000E-03 0.  1.
        -12    1    3    3    0    0  0.21919793532E+02 -0.14367928431E+02 -0.16933351555E+02  0.31203415050E+02  0.00000000000E+00 0.  1.
</event>
<event>
 7    1  0.5408841E-013  0.5052887E+02  0.7816164E-02  0.1300439E+00
        -11   -1    0    0    0    0  0.00000000000E+00  0.00000000000E+00  0.45593999997E+02  0.45594000000E+02  0.51100000000E-03 0. -1.
         11   -1    0    0    0    0 -0.00000000000E+00 -0.00000000000E+00 -0.45593999997E+02  0.45594000000E+02  0.51100000000E-03 0.  1.
    9900012    2    1    2    0    0 -0.25316759335E+01  0.27000084653E+02 -0.30294406049E+02  0.50528868281E+02  0.30000025626E+02 0.  0.
         12    1    1    2    0    0  0.25316759335E+01 -0.27000084653E+02  0.30294406049E+02  0.40659131719E+02  0.00000000000E+00 0. -1.
         11    1    3    3    0    0 -0.26063703148E+01  0.23031544013E+01 -0.43890024429E+01  0.56000918849E+01  0.51100000000E-03 0. -1.
        -11    1    3    3    0    0  0.65296983721E-01  0.27438977140E+02 -0.29577964334E+02  0.40345479357E+02  0.51100000000E-03 0.  1.
         12    1    3    3    0    0  0.93973975399E-02 -0.27420468885E+01  0.36725607273E+01  0.45832970387E+01  0.00000000000E+00 0. -1.
</event>
<event>
 7    1  0.5408841E-013  0.5052886E+02  0.7816164E-02  0.1300439E+00
        -11   -1    0    0    0    0  0.00000000000E+00  0.00000000000E+00  0.45593999997E+02  0.45594000000E+02  0.51100000000E-03 0.  1.
         11   -1    0    0    0    0 -0.00000000000E+00 -0.00000000000E+00 -0.45593999997E+02  0.45594000000E+02  0.51100000000E-03 0. -1.
    9900012    2    1    2    0    0 -0.27057806536E+02 -0.17689218905E+02  0.24660330910E+02  0.50528864734E+02  0.30000014844E+02 0.  0.
         12    1    1    2    0    0  0.27057806536E+02  0.17689218905E+02 -0.24660330910E+02  0.40659135266E+02  0.00000000000E+00 0. -1.
         11    1    3    3    0    0 -0.56531030478E+01 -0.95821023381E+01  0.50923152126E+01  0.12235437621E+02  0.51100000000E-03 0. -1.
        -11    1    3    3    0    0 -0.11667542238E+02 -0.15700311254E+02  0.16448914922E+02  0.25557740857E+02  0.51100000000E-03 0.  1.
        -12    1    3    3    0    0 -0.97371612505E+01  0.75931946863E+01  0.31191007749E+01  0.12735686256E+02  0.00000000000E+00 0.  1.
</event>
<event>
 7    1  0.5408841E-013  0.5052886E+02  0.7816164E-02  0.1300439E+00
        -11   -1    0    0    0    0  0.00000000000E+00  0.00000000000E+00  0.45593999997E+02  0.45594000000E+02  0.51100000000E-03 0.  1.
         11   -1    0    0    0    0 -0.00000000000E+00 -0.00000000000E+00 -0.45593999997E+02  0.45594000000E+02  0.51100000000E-03 0. -1.
    9900012    2    1    2    0    0  0.50641230169E+01 -0.16276751596E+02  0.36913244040E+02  0.50528861175E+02  0.30000004027E+02 0.  0.
         12    1    1    2    0    0 -0.50641230169E+01  0.16276751596E+02 -0.36913244040E+02  0.40659138825E+02  0.00000000000E+00 0. -1.
         11    1    3    3    0    0  0.39384253552E+01  0.19990232022E+01  0.96599898586E+01  0.10621802689E+02  0.51100000000E-03 0. -1.
        -11    1    3    3    0    0  0.34139707285E+01  0.41326890369E+01  0.12497728371E+01  0.55042026867E+01  0.51100000000E-03 0.  1.
        -12    1    3    3    0    0 -0.22882730668E+01 -0.22408463835E+02  0.26003481344E+02  0.34402855799E+02  0.00000000000E+00 0.  1.
</event>
<event>
 7    1  0.5408841E-013  0.5052887E+02  0.7816164E-02  0.1300439E+00
        -11   -1    0    0    0    0  0.00000000000E+00  0.00000000000E+00  0.45593999997E+02  0.45594000000E+02  0.51100000000E-03 0. -1.
         11   -1    0    0    0    0 -0.00000000000E+00 -0.00000000000E+00 -0.45593999997E+02  0.45594000000E+02  0.51100000000E-03 0.  1.
    9900012    2    1    2    0    0 -0.27072774923E+02 -0.18627910414E+02  0.23942242977E+02  0.50528865882E+02  0.30000018335E+02 0.  0.
         12    1    1    2    0    0  0.27072774923E+02  0.18627910414E+02 -0.23942242977E+02  0.40659134118E+02  0.00000000000E+00 0. -1.
         11    1    3    3    0    0 -0.22122794157E+00  0.15561593607E+01  0.24219233014E+01  0.28872628036E+01  0.51100000000E-03 0. -1.
        -11    1    3    3    0    0  0.22684596550E+01  0.25871197373E+01 -0.18508615195E+01  0.39070175796E+01  0.51100000000E-03 0.  1.
         12    1    3    3    0    0 -0.29120006637E+02 -0.22771189512E+02  0.23371181195E+02  0.43734585499E+02  0.00000000000E+00 0. -1.
</event>
<event>
 7    1  0.5408841E-013  0.5052888E+02  0.7816164E-02  0.1300439E+00
        -11   -1    0    0    0    0  0.00000000000E+00  0.00000000000E+00  0.45593999997E+02  0.45594000000E+02  0.51100000000E-03 0.  1.
         11   -1    0    0    0    0 -0.00000000000E+00 -0.00000000000E+00 -0.45593999997E+02  0.45594000000E+02  0.51100000000E-03 0. -1.
    9900012    2    1    2    0    0  0.33111185909E+02 -0.21273895949E+02  0.10209559622E+02  0.50528875700E+02  0.30000048177E+02 0.  0.
         12    1    1    2    0    0 -0.33111185909E+02  0.21273895949E+02 -0.10209559622E+02  0.40659124300E+02  0.00000000000E+00 0. -1.
         11    1    3    3    0    0  0.14417845711E+02 -0.12651678204E+02 -0.30004904286E+01  0.19414998825E+02  0.51100000000E-03 0.  1.
        -11    1    3    3    0    0  0.13083980817E+01  0.27856508493E+01 -0.33372135419E+01  0.45396861874E+01  0.51100000000E-03 0. -1.
        -12    1    3    3    0    0  0.17384942117E+02 -0.11407868595E+02  0.16547263592E+02  0.26574190687E+02  0.00000000000E+00 0.  1.
</event>
<event>
 7    1  0.5408841E-013  0.5052880E+02  0.7816164E-02  0.1300439E+00
        -11   -1    0    0    0    0  0.00000000000E+00  0.00000000000E+00  0.45593999997E+02  0.45594000000E+02  0.51100000000E-03 0.  1.
         11   -1    0    0    0    0 -0.00000000000E+00 -0.00000000000E+00 -0.45593999997E+02  0.45594000000E+02  0.51100000000E-03 0. -1.
    9900012    2    1    2    0    0 -0.15951325108E+02 -0.16510224571E+02  0.33557985869E+02  0.50528798045E+02  0.29999812136E+02 0.  0.
         12    1    1    2    0    0  0.15951325108E+02  0.16510224571E+02 -0.33557985869E+02  0.40659201955E+02  0.00000000000E+00 0. -1.
         11    1    3    3    0    0 -0.36763232988E+01  0.87017423915E+00  0.46769447969E+01  0.60121850518E+01  0.51100000000E-03 0. -1.
        -11    1    3    3    0    0 -0.17243214322E+02 -0.15252312936E+02  0.31083708820E+02  0.38680207397E+02  0.51100000000E-03 0.  1.
         12    1    3    3    0    0  0.49682125135E+01 -0.21280858743E+01 -0.22026677478E+01  0.58364055955E+01  0.00000000000E+00 0. -1.
</event>
<event>
 7    1  0.5408841E-013  0.5052886E+02  0.7816164E-02  0.1300439E+00
        -11   -1    0    0    0    0  0.00000000000E+00  0.00000000000E+00  0.45593999997E+02  0.45594000000E+02  0.51100000000E-03 0. -1.
         11   -1    0    0    0    0 -0.00000000000E+00 -0.00000000000E+00 -0.45593999997E+02  0.45594000000E+02  0.51100000000E-03 0.  1.
    9900012    2    1    2    0    0 -0.30367744779E+02 -0.14708741915E+02  0.22685207568E+02  0.50528860141E+02  0.30000000884E+02 0.  0.
         12    1    1    2    0    0  0.30367744779E+02  0.14708741915E+02 -0.22685207568E+02  0.40659139859E+02  0.00000000000E+00 0. -1.
         11    1    3    3    0    0 -0.92333881882E+01  0.29262164727E+00  0.32304760640E+01  0.97865755361E+01  0.51100000000E-03 0. -1.
        -11    1    3    3    0    0 -0.11827146100E+02  0.46422018080E+01  0.19943644333E+01  0.12861139617E+02  0.51100000000E-03 0.  1.
         12    1    3    3    0    0 -0.93072104903E+01 -0.19643565371E+02  0.17460367071E+02  0.27881144988E+02  0.00000000000E+00 0. -1.
</event>
<event>
 7    1  0.5408841E-013  0.5052886E+02  0.7816164E-02  0.1300439E+00
        -11   -1    0    0    0    0  0.00000000000E+00  0.00000000000E+00  0.45593999997E+02  0.45594000000E+02  0.51100000000E-03 0.  1.
         11   -1    0    0    0    0 -0.00000000000E+00 -0.00000000000E+00 -0.45593999997E+02  0.45594000000E+02  0.51100000000E-03 0. -1.
    9900012    2    1    2    0    0 -0.41689131078E+01 -0.16481913713E+02  0.36934167062E+02  0.50528855731E+02  0.29999987480E+02 0.  0.
         12    1    1    2    0    0  0.41689131078E+01  0.16481913713E+02 -0.36934167062E+02  0.40659144269E+02  0.00000000000E+00 0. -1.
         11    1    3    3    0    0  0.12658796355E+01  0.12694930391E+01 -0.28062893845E+01  0.33300636929E+01  0.51100000000E-03 0. -1.
        -11    1    3    3    0    0 -0.14194204134E+01 -0.57427159647E+00 -0.16227515435E+01  0.22311129531E+01  0.51100000000E-03 0.  1.
        -12    1    3    3    0    0 -0.40153723300E+01 -0.17177135155E+02  0.41363207990E+02  0.44967679085E+02  0.00000000000E+00 0.  1.
</event>
<event>
 7    1  0.5408841E-013  0.5052886E+02  0.7816164E-02  0.1300439E+00
        -11   -1    0    0    0    0  0.00000000000E+00  0.00000000000E+00  0.45593999997E+02  0.45594000000E+02  0.51100000000E-03 0.  1.
         11   -1    0    0    0    0 -0.00000000000E+00 -0.00000000000E+00 -0.45593999997E+02  0.45594000000E+02  0.51100000000E-03 0. -1.
    9900012    2    1    2    0    0 -0.63689913136E+01  0.30662029901E+02  0.25931471441E+02  0.50528864014E+02  0.30000012658E+02 0.  0.
         12    1    1    2    0    0  0.63689913136E+01 -0.30662029901E+02 -0.25931471441E+02  0.40659135986E+02  0.00000000000E+00 0. -1.
         11    1    3    3    0    0 -0.30212158146E+00 -0.28384362365E+01 -0.88056799511E+00  0.29872057133E+01  0.51100000000E-03 0. -1.
        -11    1    3    3    0    0  0.51646053710E+01  0.19712646754E+01  0.58532443942E+01  0.80510560337E+01  0.51100000000E-03 0.  1.
        -12    1    3    3    0    0 -0.11231475103E+02  0.31529201462E+02  0.20958795042E+02  0.39490602267E+02  0.00000000000E+00 0.  1.
</event>
<event>
 7    1  0.5408841E-013  0.5052886E+02  0.7816164E-02  0.1300439E+00
        -11   -1    0    0    0    0  0.00000000000E+00  0.00000000000E+00  0.45593999997E+02  0.45594000000E+02  0.51100000000E-03 0.  1.
         11   -1    0    0    0    0 -0.00000000000E+00 -0.00000000000E+00 -0.45593999997E+02  0.45594000000E+02  0.51100000000E-03 0. -1.
    9900012    2    1    2    0    0  0.76997492836E+01  0.34489964233E+02  0.20107761111E+02  0.50528857993E+02  0.29999994356E+02 0.  0.
         12    1    1    2    0    0 -0.76997492836E+01 -0.34489964233E+02 -0.20107761111E+02  0.40659142007E+02  0.00000000000E+00 0. -1.
         11    1    3    3    0    0  0.78520291483E+01  0.13602639113E+02  0.13453915789E+01  0.15763763236E+02  0.51100000000E-03 0. -1.
        -11    1    3    3    0    0  0.97756794290E+01  0.14410018962E+02  0.11248925219E+02  0.20730433513E+02  0.51100000000E-03 0.  1.
        -12    1    3    3    0    0 -0.99279592937E+01  0.64773061583E+01  0.75134443129E+01  0.14034661245E+02  0.00000000000E+00 0.  1.
</event>
<event>
 7    1  0.5408841E-013  0.5052886E+02  0.7816164E-02  0.1300439E+00
        -11   -1    0    0    0    0  0.00000000000E+00  0.00000000000E+00  0.45593999997E+02  0.45594000000E+02  0.51100000000E-03 0.  1.
         11   -1    0    0    0    0 -0.00000000000E+00 -0.00000000000E+00 -0.45593999997E+02  0.45594000000E+02  0.51100000000E-03 0. -1.
    9900012    2    1    2    0    0  0.33617603019E+01 -0.13320838515E+02  0.38267731130E+02  0.50528863058E+02  0.30000009751E+02 0.  0.
         12    1    1    2    0    0 -0.33617603019E+01  0.13320838515E+02 -0.38267731130E+02  0.40659136942E+02  0.00000000000E+00 0. -1.
         11    1    3    3    0    0  0.24481656877E+01 -0.14078941699E+02  0.14377238983E+02  0.20271041307E+02  0.51100000000E-03 0. -1.
        -11    1    3    3    0    0 -0.65976236310E+01 -0.37128106123E+01  0.18497816380E+02  0.19987066101E+02  0.51100000000E-03 0.  1.
         12    1    3    3    0    0  0.75112182452E+01  0.44709137972E+01  0.53926757661E+01  0.10270755650E+02  0.00000000000E+00 0. -1.
</event>
<event>
 7    1  0.5408841E-013  0.5052886E+02  0.7816164E-02  0.1300439E+00
        -11   -1    0    0    0    0  0.00000000000E+00  0.00000000000E+00  0.45593999997E+02  0.45594000000E+02  0.51100000000E-03 0.  1.
         11   -1    0    0    0    0 -0.00000000000E+00 -0.00000000000E+00 -0.45593999997E+02  0.45594000000E+02  0.51100000000E-03 0. -1.
    9900012    2    1    2    0    0 -0.74105677856E+01 -0.26149695211E+02  0.30239750551E+02  0.50528860954E+02  0.30000003356E+02 0.  0.
         12    1    1    2    0    0  0.74105677856E+01  0.26149695211E+02 -0.30239750551E+02  0.40659139046E+02  0.00000000000E+00 0. -1.
         11    1    3    3    0    0 -0.57969517656E+01 -0.82255776491E+01  0.86756636003E+01  0.13286531398E+02  0.51100000000E-03 0. -1.
        -11    1    3    3    0    0 -0.89380543351E+01 -0.15746386539E+02  0.46675078719E+01  0.18698212062E+02  0.51100000000E-03 0.  1.
         12    1    3    3    0    0  0.73244383151E+01 -0.21777310234E+01  0.16896579079E+02  0.18544117494E+02  0.00000000000E+00 0. -1.
</event>
<event>
 7    1  0.5408841E-013  0.5052887E+02  0.7816164E-02  0.1300439E+00
        -11   -1    0    0    0    0  0.00000000000E+00  0.00000000000E+00  0.45593999997E+02  0.45594000000E+02  0.51100000000E-03 0. -1.
         11   -1    0    0    0    0 -0.00000000000E+00 -0.00000000000E+00 -0.45593999997E+02  0.45594000000E+02  0.51100000000E-03 0.  1.
    9900012    2    1    2    0    0  0.26849418571E+02 -0.17619369018E+02 -0.24936549917E+02  0.50528868628E+02  0.30000026681E+02 0.  0.
         12    1    1    2    0    0 -0.26849418571E+02  0.17619369018E+02  0.24936549917E+02  0.40659131372E+02  0.00000000000E+00 0. -1.
         11    1    3    3    0    0  0.69563397081E+01 -0.10900904808E+01 -0.86421822692E+01  0.11147478371E+02  0.51100000000E-03 0. -1.
        -11    1    3    3    0    0  0.24944810506E+02 -0.84768433645E+01 -0.11870206508E+02  0.28896405441E+02  0.51100000000E-03 0.  1.
         12    1    3    3    0    0 -0.50517316431E+01 -0.80524351726E+01 -0.44241611402E+01  0.10484984816E+02  0.00000000000E+00 0. -1.
</event>
<event>
 7    1  0.5408841E-013  0.5052885E+02  0.7816164E-02  0.1300439E+00
        -11   -1    0    0    0    0  0.00000000000E+00  0.00000000000E+00  0.45593999997E+02  0.45594000000E+02  0.51100000000E-03 0. -1.
         11   -1    0    0    0    0 -0.00000000000E+00 -0.00000000000E+00 -0.45593999997E+02  0.45594000000E+02  0.51100000000E-03 0.  1.
    9900012    2    1    2    0    0 -0.24488465586E+02  0.20574852849E+02  0.25102930110E+02  0.50528848304E+02  0.29999964905E+02 0.  0.
         12    1    1    2    0    0  0.24488465586E+02 -0.20574852849E+02 -0.25102930110E+02  0.40659151696E+02  0.00000000000E+00 0. -1.
         11    1    3    3    0    0 -0.16800203683E+02  0.11341736703E+02  0.17710478390E+02  0.26917334198E+02  0.51100000000E-03 0. -1.
        -11    1    3    3    0    0 -0.56278705978E+01  0.13340152772E+02  0.10654544267E+02  0.17976426710E+02  0.51100000000E-03 0.  1.
         12    1    3    3    0    0 -0.20603913052E+01 -0.41070366261E+01 -0.32620925473E+01  0.56350873965E+01  0.00000000000E+00 0. -1.
</event>
<event>
 7    1  0.5408841E-013  0.5052885E+02  0.7816164E-02  0.1300439E+00
        -11   -1    0    0    0    0  0.00000000000E+00  0.00000000000E+00  0.45593999997E+02  0.45594000000E+02  0.51100000000E-03 0. -1.
         11   -1    0    0    0    0 -0.00000000000E+00 -0.00000000000E+00 -0.45593999997E+02  0.45594000000E+02  0.51100000000E-03 0.  1.
    9900012    2    1    2    0    0  0.36233232783E+02 -0.85585453582E+01 -0.16342301102E+02  0.50528847748E+02  0.29999963215E+02 0.  0.
         12    1    1    2    0    0 -0.36233232783E+02  0.85585453582E+01  0.16342301102E+02  0.40659152252E+02  0.00000000000E+00 0. -1.
         11    1    3    3    0    0  0.28386821591E+02 -0.14360347881E+02 -0.79107616894E+01  0.32781265718E+02  0.51100000000E-03 0. -1.
        -11    1    3    3    0    0  0.59429702012E+01 -0.27434690514E+01 -0.18719328929E+01  0.68080577454E+01  0.51100000000E-03 0.  1.
        -12    1    3    3    0    0  0.19034409911E+01  0.85452715744E+01 -0.65596065193E+01  0.10939524285E+02  0.00000000000E+00 0.  1.
</event>
<event>
 7    1  0.5408841E-013  0.5052883E+02  0.7816164E-02  0.1300439E+00
        -11   -1    0    0    0    0  0.00000000000E+00  0.00000000000E+00  0.45593999997E+02  0.45594000000E+02  0.51100000000E-03 0.  1.
         11   -1    0    0    0    0 -0.00000000000E+00 -0.00000000000E+00 -0.45593999997E+02  0.45594000000E+02  0.51100000000E-03 0. -1.
    9900012    2    1    2    0    0  0.17752334115E+02  0.19014669621E+01  0.36529533479E+02  0.50528834252E+02  0.29999922192E+02 0.  0.
         12    1    1    2    0    0 -0.17752334115E+02 -0.19014669621E+01 -0.36529533479E+02  0.40659165748E+02  0.00000000000E+00 0. -1.
         11    1    3    3    0    0  0.11271366564E+02  0.35030651124E+01  0.26712050684E+02  0.29203575490E+02  0.51100000000E-03 0. -1.
        -11    1    3    3    0    0 -0.14935830331E+01  0.65418312300E+01  0.73306734366E+00  0.67500914150E+01  0.51100000000E-03 0.  1.
         12    1    3    3    0    0  0.79745505842E+01 -0.81434293803E+01  0.90844154515E+01  0.14575167347E+02  0.00000000000E+00 0. -1.
</event>
<event>
 7    1  0.5408841E-013  0.5052886E+02  0.7816164E-02  0.1300439E+00
        -11   -1    0    0    0    0  0.00000000000E+00  0.00000000000E+00  0.45593999997E+02  0.45594000000E+02  0.51100000000E-03 0.  1.
         11   -1    0    0    0    0 -0.00000000000E+00 -0.00000000000E+00 -0.45593999997E+02  0.45594000000E+02  0.51100000000E-03 0. -1.
    9900012    2    1    2    0    0  0.26227849188E+02  0.54901239822E+01  0.30579800753E+02  0.50528858980E+02  0.29999997355E+02 0.  0.
         12    1    1    2    0    0 -0.26227849188E+02 -0.54901239822E+01 -0.30579800753E+02  0.40659141020E+02  0.00000000000E+00 0. -1.
         11    1    3    3    0    0  0.12821073841E+02 -0.59290852950E+01  0.19947375077E+02  0.24442417221E+02  0.51100000000E-03 0. -1.
        -11    1    3    3    0    0  0.15989328100E+02  0.11536682932E+02  0.12080375155E+02  0.23123346001E+02  0.51100000000E-03 0.  1.
        -12    1    3    3    0    0 -0.25825527522E+01 -0.11747365495E+00 -0.14479494784E+01  0.29630957577E+01  0.00000000000E+00 0.  1.
</event>
<event>
 7    1  0.5408841E-013  0.5052886E+02  0.7816164E-02  0.1300439E+00
        -11   -1    0    0    0    0  0.00000000000E+00  0.00000000000E+00  0.45593999997E+02  0.45594000000E+02  0.51100000000E-03 0. -1.
         11   -1    0    0    0    0 -0.00000000000E+00 -0.00000000000E+00 -0.45593999997E+02  0.45594000000E+02  0.51100000000E-03 0.  1.
    9900012    2    1    2    0    0  0.78197042030E+01  0.16921133216E+02 -0.36134376617E+02  0.50528859617E+02  0.29999999293E+02 0.  0.
         12    1    1    2    0    0 -0.78197042030E+01 -0.16921133216E+02  0.36134376617E+02  0.40659140383E+02  0.00000000000E+00 0. -1.
         11    1    3    3    0    0  0.10818694168E+02  0.12669023620E+02 -0.11661193250E+02  0.20335479617E+02  0.51100000000E-03 0. -1.
        -11    1    3    3    0    0  0.12072119334E+01  0.99123474417E+01 -0.10205702461E+02  0.14278247632E+02  0.51100000000E-03 0.  1.
        -12    1    3    3    0    0 -0.42062018983E+01 -0.56602378458E+01 -0.14267480906E+02  0.15915132368E+02  0.00000000000E+00 0.  1.
</event>
<event>
 7    1  0.5408841E-013  0.5052886E+02  0.7816164E-02  0.1300439E+00
        -11   -1    0    0    0    0  0.00000000000E+00  0.00000000000E+00  0.45593999997E+02  0.45594000000E+02  0.51100000000E-03 0. -1.
         11   -1    0    0    0    0 -0.00000000000E+00 -0.00000000000E+00 -0.45593999997E+02  0.45594000000E+02  0.51100000000E-03 0.  1.
    9900012    2    1    2    0    0 -0.36358086302E+02 -0.18197883237E+02 -0.30353522207E+00  0.50528861697E+02  0.30000005615E+02 0.  0.
         12    1    1    2    0    0  0.36358086302E+02  0.18197883237E+02  0.30353522207E+00  0.40659138303E+02  0.00000000000E+00 0. -1.
         11    1    3    3    0    0  0.36596768415E+00  0.24208127088E+01 -0.17219745983E+01  0.29932362578E+01  0.51100000000E-03 0. -1.
        -11    1    3    3    0    0 -0.10717972971E+02 -0.17850787721E+02  0.41818279442E+01  0.21237072587E+02  0.51100000000E-03 0.  1.
         12    1    3    3    0    0 -0.26006081016E+02 -0.27679082247E+01 -0.27633885680E+01  0.26298552852E+02  0.00000000000E+00 0. -1.
</event>
<event>
 7    1  0.5408841E-013  0.5052886E+02  0.7816164E-02  0.1300439E+00
        -11   -1    0    0    0    0  0.00000000000E+00  0.00000000000E+00  0.45593999997E+02  0.45594000000E+02  0.51100000000E-03 0.  1.
         11   -1    0    0    0    0 -0.00000000000E+00 -0.00000000000E+00 -0.45593999997E+02  0.45594000000E+02  0.51100000000E-03 0. -1.
    9900012    2    1    2    0    0 -0.41145944857E+01  0.28522011413E+02  0.28683284875E+02  0.50528857682E+02  0.29999993409E+02 0.  0.
         12    1    1    2    0    0  0.41145944857E+01 -0.28522011413E+02 -0.28683284875E+02  0.40659142318E+02  0.00000000000E+00 0. -1.
         11    1    3    3    0    0  0.62547566855E+01  0.14257608421E+02  0.52249756145E+01  0.16422598744E+02  0.51100000000E-03 0. -1.
        -11    1    3    3    0    0  0.95850965398E+00  0.13299987983E+02  0.11532095752E+02  0.17629454155E+02  0.51100000000E-03 0.  1.
        -12    1    3    3    0    0 -0.11327860825E+02  0.96441500913E+00  0.11926213509E+02  0.16476804782E+02  0.00000000000E+00 0.  1.
</event>
<event>
 7    1  0.5408841E-013  0.5052888E+02  0.7816164E-02  0.1300439E+00
        -11   -1    0    0    0    0  0.00000000000E+00  0.00000000000E+00  0.45593999997E+02  0.45594000000E+02  0.51100000000E-03 0.  1.
         11   -1    0    0    0    0 -0.00000000000E+00 -0.00000000000E+00 -0.45593999997E+02  0.45594000000E+02  0.51100000000E-03 0. -1.
    9900012    2    1    2    0    0  0.19787578734E+02 -0.17284847324E+02  0.31029815692E+02  0.50528884404E+02  0.30000074635E+02 0.  0.
         12    1    1    2    0    0 -0.19787578734E+02  0.17284847324E+02 -0.31029815692E+02  0.40659115596E+02  0.00000000000E+00 0. -1.
         11    1    3    3    0    0  0.39028941712E+01  0.14403313563E+00  0.11986181779E+02  0.12606422267E+02  0.51100000000E-03 0. -1.
        -11    1    3    3    0    0  0.16607024766E+02 -0.72113770595E+01  0.20749964420E+02  0.27538305219E+02  0.51100000000E-03 0.  1.
         12    1    3    3    0    0 -0.72234020239E+00 -0.10217503400E+02 -0.17063305079E+01  0.10384156918E+02  0.00000000000E+00 0. -1.
</event>
<event>
 7    1  0.5408841E-013  0.5052885E+02  0.7816164E-02  0.1300439E+00
        -11   -1    0    0    0    0  0.00000000000E+00  0.00000000000E+00  0.45593999997E+02  0.45594000000E+02  0.51100000000E-03 0.  1.
         11   -1    0    0    0    0 -0.00000000000E+00 -0.00000000000E+00 -0.45593999997E+02  0.45594000000E+02  0.51100000000E-03 0. -1.
    9900012    2    1    2    0    0 -0.54285040021E+01  0.39298456150E+02  0.89066770525E+01  0.50528853335E+02  0.29999980196E+02 0.  0.
         12    1    1    2    0    0  0.54285040021E+01 -0.39298456150E+02 -0.89066770525E+01  0.40659146665E+02  0.00000000000E+00 0. -1.
         11    1    3    3    0    0 -0.46066170781E+01  0.14541577676E+01  0.10566724816E+01  0.49449016888E+01  0.51100000000E-03 0. -1.
        -11    1    3    3    0    0 -0.44171946140E+00  0.93564873852E+01  0.13605439144E+02  0.16518079393E+02  0.51100000000E-03 0.  1.
         12    1    3    3    0    0 -0.38016746261E+00  0.28487810997E+02 -0.57554345730E+01  0.29065872253E+02  0.00000000000E+00 0. -1.
</event>
<event>
 7    1  0.5408841E-013  0.5052887E+02  0.7816164E-02  0.1300439E+00
        -11   -1    0    0    0    0  0.00000000000E+00  0.00000000000E+00  0.45593999997E+02  0.45594000000E+02  0.51100000000E-03 0.  1.
         11   -1    0    0    0    0 -0.00000000000E+00 -0.00000000000E+00 -0.45593999997E+02  0.45594000000E+02  0.51100000000E-03 0. -1.
    9900012    2    1    2    0    0  0.20055589095E+02 -0.15322204787E+02  0.31877395867E+02  0.50528868421E+02  0.30000026052E+02 0.  0.
         12    1    1    2    0    0 -0.20055589095E+02  0.15322204787E+02 -0.31877395867E+02  0.40659131579E+02  0.00000000000E+00 0. -1.
         11    1    3    3    0    0  0.10004349687E+01  0.73034643611E+00 -0.35545237066E+01  0.37641619367E+01  0.51100000000E-03 0. -1.
        -11    1    3    3    0    0  0.17275833840E+02 -0.32687794043E+01  0.19379217198E+02  0.26166646960E+02  0.51100000000E-03 0.  1.
         12    1    3    3    0    0  0.17793202866E+01 -0.12783771819E+02  0.16052702375E+02  0.20598059524E+02  0.00000000000E+00 0. -1.
</event>
<event>
 7    1  0.5408841E-013  0.5052886E+02  0.7816164E-02  0.1300439E+00
        -11   -1    0    0    0    0  0.00000000000E+00  0.00000000000E+00  0.45593999997E+02  0.45594000000E+02  0.51100000000E-03 0. -1.
         11   -1    0    0    0    0 -0.00000000000E+00 -0.00000000000E+00 -0.45593999997E+02  0.45594000000E+02  0.51100000000E-03 0.  1.
    9900012    2    1    2    0    0  0.11227759386E+02 -0.38984320594E+02 -0.27066717936E+01  0.50528857053E+02  0.29999991497E+02 0.  0.
         12    1    1    2    0    0 -0.11227759386E+02  0.38984320594E+02  0.27066717936E+01  0.40659142947E+02  0.00000000000E+00 0. -1.
         11    1    3    3    0    0  0.75071731224E+01 -0.11349241141E+02  0.82037477284E+01  0.15889128353E+02  0.51100000000E-03 0. -1.
        -11    1    3    3    0    0  0.95326281122E+01 -0.81459480397E+01 -0.42326784405E+01  0.13234161675E+02  0.51100000000E-03 0.  1.
        -12    1    3    3    0    0 -0.58120418485E+01 -0.19489131413E+02 -0.66777410816E+01  0.21405567025E+02  0.00000000000E+00 0.  1.
</event>
<event>
 7    1  0.5408841E-013  0.5052894E+02  0.7816164E-02  0.1300439E+00
        -11   -1    0    0    0    0  0.00000000000E+00  0.00000000000E+00  0.45593999997E+02  0.45594000000E+02  0.51100000000E-03 0.  1.
         11   -1    0    0    0    0 -0.00000000000E+00 -0.00000000000E+00 -0.45593999997E+02  0.45594000000E+02  0.51100000000E-03 0. -1.
    9900012    2    1    2    0    0  0.12575076376E+02  0.18422745455E+01  0.38621659088E+02  0.50528941082E+02  0.30000246912E+02 0.  0.
         12    1    1    2    0    0 -0.12575076376E+02 -0.18422745455E+01 -0.38621659088E+02  0.40659058918E+02  0.00000000000E+00 0. -1.
         11    1    3    3    0    0  0.11356081604E+02 -0.41205220969E+01  0.12285787943E+02  0.17230202477E+02  0.51100000000E-03 0. -1.
        -11    1    3    3    0    0  0.64997877999E+01 -0.40381217217E+01  0.16966840343E+02  0.18612558663E+02  0.51100000000E-03 0.  1.
         12    1    3    3    0    0 -0.52807930278E+01  0.10000918364E+02  0.93690308028E+01  0.14686179943E+02  0.00000000000E+00 0. -1.
</event>
<event>
 7    1  0.5408841E-013  0.5052886E+02  0.7816164E-02  0.1300439E+00
        -11   -1    0    0    0    0  0.00000000000E+00  0.00000000000E+00  0.45593999997E+02  0.45594000000E+02  0.51100000000E-03 0.  1.
         11   -1    0    0    0    0 -0.00000000000E+00 -0.00000000000E+00 -0.45593999997E+02  0.45594000000E+02  0.51100000000E-03 0. -1.
    9900012    2    1    2    0    0 -0.11900531880E+02  0.37881196925E+02  0.87497271864E+01  0.50528862462E+02  0.30000007940E+02 0.  0.
         12    1    1    2    0    0  0.11900531880E+02 -0.37881196925E+02 -0.87497271864E+01  0.40659137538E+02  0.00000000000E+00 0. -1.
         11    1    3    3    0    0 -0.86296943765E+01  0.24136530610E+01 -0.41692340580E+01  0.98833121484E+01  0.51100000000E-03 0. -1.
        -11    1    3    3    0    0 -0.13703773364E+01 -0.11489635915E+01  0.56821277114E-01  0.17892122002E+01  0.51100000000E-03 0.  1.
        -12    1    3    3    0    0 -0.19004601671E+01  0.36616507455E+02  0.12862139967E+02  0.38856338114E+02  0.00000000000E+00 0.  1.
</event>
<event>
 7    1  0.5408841E-013  0.5052886E+02  0.7816164E-02  0.1300439E+00
        -11   -1    0    0    0    0  0.00000000000E+00  0.00000000000E+00  0.45593999997E+02  0.45594000000E+02  0.51100000000E-03 0.  1.
         11   -1    0    0    0    0 -0.00000000000E+00 -0.00000000000E+00 -0.45593999997E+02  0.45594000000E+02  0.51100000000E-03 0. -1.
    9900012    2    1    2    0    0 -0.37847251906E+02 -0.11116921782E+00  0.14857273125E+02  0.50528863264E+02  0.30000010377E+02 0.  0.
         12    1    1    2    0    0  0.37847251906E+02  0.11116921782E+00 -0.14857273125E+02  0.40659136736E+02  0.00000000000E+00 0. -1.
         11    1    3    3    0    0 -0.63819382294E+00  0.43745993324E+01  0.45855543545E+00  0.44446241712E+01  0.51100000000E-03 0. -1.
        -11    1    3    3    0    0 -0.18627211591E+02 -0.29692143443E+01 -0.46532459201E+01  0.19427865126E+02  0.51100000000E-03 0.  1.
        -12    1    3    3    0    0 -0.18581846491E+02 -0.15165542059E+01  0.19051963610E+02  0.26656373967E+02  0.00000000000E+00 0.  1.
</event>
<event>
 7    1  0.5408841E-013  0.5052886E+02  0.7816164E-02  0.1300439E+00
        -11   -1    0    0    0    0  0.00000000000E+00  0.00000000000E+00  0.45593999997E+02  0.45594000000E+02  0.51100000000E-03 0.  1.
         11   -1    0    0    0    0 -0.00000000000E+00 -0.00000000000E+00 -0.45593999997E+02  0.45594000000E+02  0.51100000000E-03 0. -1.
    9900012    2    1    2    0    0 -0.11605609217E+02 -0.38533265912E+02  0.58019566647E+01  0.50528862671E+02  0.30000008576E+02 0.  0.
         12    1    1    2    0    0  0.11605609217E+02  0.38533265912E+02 -0.58019566647E+01  0.40659137329E+02  0.00000000000E+00 0. -1.
         11    1    3    3    0    0  0.21529764922E+01 -0.16055936426E+02 -0.89707536604E+01  0.18517635481E+02  0.51100000000E-03 0. -1.
        -11    1    3    3    0    0 -0.40954531935E+01 -0.21520870193E+01  0.66163594786E+01  0.80734396888E+01  0.51100000000E-03 0.  1.
        -12    1    3    3    0    0 -0.96631325162E+01 -0.20325242467E+02  0.81563508465E+01  0.23937787502E+02  0.00000000000E+00 0.  1.
</event>
<event>
 7    1  0.5408841E-013  0.5052888E+02  0.7816164E-02  0.1300439E+00
        -11   -1    0    0    0    0  0.00000000000E+00  0.00000000000E+00  0.45593999997E+02  0.45594000000E+02  0.51100000000E-03 0. -1.
         11   -1    0    0    0    0 -0.00000000000E+00 -0.00000000000E+00 -0.45593999997E+02  0.45594000000E+02  0.51100000000E-03 0.  1.
    9900012    2    1    2    0    0 -0.24673014934E+02  0.29590937181E+02 -0.12991647929E+02  0.50528878698E+02  0.30000057290E+02 0.  0.
         12    1    1    2    0    0  0.24673014934E+02 -0.29590937181E+02  0.12991647929E+02  0.40659121302E+02  0.00000000000E+00 0. -1.
         11    1    3    3    0    0  0.25646357310E+01  0.57422570303E+01  0.72790304307E-01  0.62893696762E+01  0.51100000000E-03 0. -1.
        -11    1    3    3    0    0 -0.95489503277E+01  0.20260760917E+02 -0.13561279843E+02  0.26183758259E+02  0.51100000000E-03 0.  1.
         12    1    3    3    0    0 -0.17688700337E+02  0.35879192334E+01  0.49684160977E+00  0.18055750763E+02  0.00000000000E+00 0. -1.
</event>
<event>
 7    1  0.5408841E-013  0.5052886E+02  0.7816164E-02  0.1300439E+00
        -11   -1    0    0    0    0  0.00000000000E+00  0.00000000000E+00  0.45593999997E+02  0.45594000000E+02  0.51100000000E-03 0.  1.
         11   -1    0    0    0    0 -0.00000000000E+00 -0.00000000000E+00 -0.45593999997E+02  0.45594000000E+02  0.51100000000E-03 0. -1.
    9900012    2    1    2    0    0  0.28054376256E+02  0.21319857336E+02  0.20287457407E+02  0.50528864839E+02  0.30000015166E+02 0.  0.
         12    1    1    2    0    0 -0.28054376256E+02 -0.21319857336E+02 -0.20287457407E+02  0.40659135161E+02  0.00000000000E+00 0. -1.
         11    1    3    3    0    0  0.29162450318E+01 -0.51758769677E+01 -0.23125321875E+01  0.63751072815E+01  0.51100000000E-03 0. -1.
        -11    1    3    3    0    0  0.72191338226E+01  0.43065620563E+01  0.97448154296E+01  0.12869490973E+02  0.51100000000E-03 0.  1.
        -12    1    3    3    0    0  0.17918997402E+02  0.22189172248E+02  0.12855174165E+02  0.31284266585E+02  0.00000000000E+00 0.  1.
</event>
<event>
 7    1  0.5408841E-013  0.5052886E+02  0.7816164E-02  0.1300439E+00
        -11   -1    0    0    0    0  0.00000000000E+00  0.00000000000E+00  0.45593999997E+02  0.45594000000E+02  0.51100000000E-03 0.  1.
         11   -1    0    0    0    0 -0.00000000000E+00 -0.00000000000E+00 -0.45593999997E+02  0.45594000000E+02  0.51100000000E-03 0. -1.
    9900012    2    1    2    0    0 -0.31638180482E+02  0.18893564218E+02  0.17182084946E+02  0.50528864788E+02  0.30000015010E+02 0.  0.
         12    1    1    2    0    0  0.31638180482E+02 -0.18893564218E+02 -0.17182084946E+02  0.40659135212E+02  0.00000000000E+00 0. -1.
         11    1    3    3    0    0  0.23200280121E+00 -0.66965207953E-01 -0.13259651967E+01  0.13477735726E+01  0.51100000000E-03 0. -1.
        -11    1    3    3    0    0 -0.31623317772E+01  0.12300624672E+02  0.14762137314E+02  0.19473736363E+02  0.51100000000E-03 0.  1.
        -12    1    3    3    0    0 -0.28707851506E+02  0.66599047534E+01  0.37459128288E+01  0.29707354853E+02  0.00000000000E+00 0.  1.
</event>
<event>
 7    1  0.5408841E-013  0.5052890E+02  0.7816164E-02  0.1300439E+00
        -11   -1    0    0    0    0  0.00000000000E+00  0.00000000000E+00  0.45593999997E+02  0.45594000000E+02  0.51100000000E-03 0. -1.
         11   -1    0    0    0    0 -0.00000000000E+00 -0.00000000000E+00 -0.45593999997E+02  0.45594000000E+02  0.51100000000E-03 0.  1.
    9900012    2    1    2    0    0  0.30988477529E+01  0.40059599312E+02 -0.62280126480E+01  0.50528898978E+02  0.30000118932E+02 0.  0.
         12    1    1    2    0    0 -0.30988477529E+01 -0.40059599312E+02  0.62280126480E+01  0.40659101022E+02  0.00000000000E+00 0. -1.
         11    1    3    3    0    0 -0.55261646126E+01  0.59437951000E+01 -0.32160529852E+00  0.81222303430E+01  0.51100000000E-03 0. -1.
        -11    1    3    3    0    0 -0.40710118533E+01  0.27213772332E+02 -0.45790413464E+01  0.27894984530E+02  0.51100000000E-03 0.  1.
         12    1    3    3    0    0  0.12696024219E+02  0.69020318802E+01 -0.13273660031E+01  0.14511684104E+02  0.00000000000E+00 0. -1.
</event>
<event>
 7    1  0.5408841E-013  0.5052885E+02  0.7816164E-02  0.1300439E+00
        -11   -1    0    0    0    0  0.00000000000E+00  0.00000000000E+00  0.45593999997E+02  0.45594000000E+02  0.51100000000E-03 0. -1.
         11   -1    0    0    0    0 -0.00000000000E+00 -0.00000000000E+00 -0.45593999997E+02  0.45594000000E+02  0.51100000000E-03 0.  1.
    9900012    2    1    2    0    0 -0.38690585365E+02 -0.81396108377E+01  0.94843029724E+01  0.50528847729E+02  0.29999963158E+02 0.  0.
         12    1    1    2    0    0  0.38690585365E+02  0.81396108377E+01 -0.94843029724E+01  0.40659152271E+02  0.00000000000E+00 0. -1.
         11    1    3    3    0    0 -0.61061658638E+01 -0.28114758999E+01 -0.48750110539E+00  0.67399789229E+01  0.51100000000E-03 0. -1.
        -11    1    3    3    0    0 -0.31831837849E+02 -0.13394871091E+02  0.79450918075E+01  0.35437451326E+02  0.51100000000E-03 0.  1.
         12    1    3    3    0    0 -0.75258165287E+00  0.80667361534E+01  0.20267122702E+01  0.83514174808E+01  0.00000000000E+00 0. -1.
</event>
<event>
 7    1  0.5408841E-013  0.5052886E+02  0.7816164E-02  0.1300439E+00
        -11   -1    0    0    0    0  0.00000000000E+00  0.00000000000E+00  0.45593999997E+02  0.45594000000E+02  0.51100000000E-03 0.  1.
         11   -1    0    0    0    0 -0.00000000000E+00 -0.00000000000E+00 -0.45593999997E+02  0.45594000000E+02  0.51100000000E-03 0. -1.
    9900012    2    1    2    0    0 -0.33975482688E+01 -0.40394449350E+02  0.31480783035E+01  0.50528864870E+02  0.30000015258E+02 0.  0.
         12    1    1    2    0    0  0.33975482688E+01  0.40394449350E+02 -0.31480783035E+01  0.40659135130E+02  0.00000000000E+00 0. -1.
         11    1    3    3    0    0 -0.46948217968E+01 -0.21792020667E+02 -0.87653674092E+01  0.23953396054E+02  0.51100000000E-03 0. -1.
        -11    1    3    3    0    0 -0.14208335206E+01 -0.13721822060E+02  0.42610185802E+00  0.13801765524E+02  0.51100000000E-03 0.  1.
        -12    1    3    3    0    0  0.27181070486E+01 -0.48806066237E+01  0.11487343855E+02  0.12773703291E+02  0.00000000000E+00 0.  1.
</event>
<event>
 7    1  0.5408841E-013  0.5052886E+02  0.7816164E-02  0.1300439E+00
        -11   -1    0    0    0    0  0.00000000000E+00  0.00000000000E+00  0.45593999997E+02  0.45594000000E+02  0.51100000000E-03 0.  1.
         11   -1    0    0    0    0 -0.00000000000E+00 -0.00000000000E+00 -0.45593999997E+02  0.45594000000E+02  0.51100000000E-03 0. -1.
    9900012    2    1    2    0    0  0.97373430080E+01 -0.25100502375E+02  0.30468254318E+02  0.50528860935E+02  0.30000003298E+02 0.  0.
         12    1    1    2    0    0 -0.97373430080E+01  0.25100502375E+02 -0.30468254318E+02  0.40659139065E+02  0.00000000000E+00 0. -1.
         11    1    3    3    0    0 -0.12667386444E+01  0.23834585984E+01  0.64219737504E+01  0.69661502134E+01  0.51100000000E-03 0. -1.
        -11    1    3    3    0    0 -0.19925811837E+01 -0.14900600015E+02  0.21913880655E+01  0.15192117775E+02  0.51100000000E-03 0.  1.
        -12    1    3    3    0    0  0.12996662836E+02 -0.12583360959E+02  0.21854892502E+02  0.28370592947E+02  0.00000000000E+00 0.  1.
</event>
<event>
 7    1  0.5408841E-013  0.5052886E+02  0.7816164E-02  0.1300439E+00
        -11   -1    0    0    0    0  0.00000000000E+00  0.00000000000E+00  0.45593999997E+02  0.45594000000E+02  0.51100000000E-03 0.  1.
         11   -1    0    0    0    0 -0.00000000000E+00 -0.00000000000E+00 -0.45593999997E+02  0.45594000000E+02  0.51100000000E-03 0. -1.
    9900012    2    1    2    0    0  0.19599348697E+02  0.42692206621E+01  0.35366721409E+02  0.50528859606E+02  0.29999999258E+02 0.  0.
         12    1    1    2    0    0 -0.19599348697E+02 -0.42692206621E+01 -0.35366721409E+02  0.40659140394E+02  0.00000000000E+00 0. -1.
         11    1    3    3    0    0  0.56319315575E+01 -0.64905853955E+01  0.17916804587E+01  0.87781815299E+01  0.51100000000E-03 0. -1.
        -11    1    3    3    0    0  0.15052551937E+00 -0.39003806600E+01  0.22449330519E+01  0.45028159960E+01  0.51100000000E-03 0.  1.
        -12    1    3    3    0    0  0.13816891620E+02  0.14660186718E+02  0.31330107898E+02  0.37247862080E+02  0.00000000000E+00 0.  1.
</event>
<event>
 7    1  0.5408841E-013  0.5052886E+02  0.7816164E-02  0.1300439E+00
        -11   -1    0    0    0    0  0.00000000000E+00  0.00000000000E+00  0.45593999997E+02  0.45594000000E+02  0.51100000000E-03 0. -1.
         11   -1    0    0    0    0 -0.00000000000E+00 -0.00000000000E+00 -0.45593999997E+02  0.45594000000E+02  0.51100000000E-03 0.  1.
    9900012    2    1    2    0    0  0.91811122898E+01 -0.26109904963E+02 -0.29784986066E+02  0.50528863819E+02  0.30000012063E+02 0.  0.
         12    1    1    2    0    0 -0.91811122898E+01  0.26109904963E+02  0.29784986066E+02  0.40659136181E+02  0.00000000000E+00 0. -1.
         11    1    3    3    0    0  0.56010924532E+01 -0.90314370307E+00 -0.64578380122E+01  0.85960210138E+01  0.51100000000E-03 0. -1.
        -11    1    3    3    0    0  0.13772122719E+02 -0.15983169473E+02 -0.14298922886E+02  0.25487100003E+02  0.51100000000E-03 0.  1.
         12    1    3    3    0    0 -0.10192102883E+02 -0.92235917873E+01 -0.90282251675E+01  0.16445742802E+02  0.00000000000E+00 0. -1.
</event>
<event>
 7    1  0.5408841E-013  0.5052886E+02  0.7816164E-02  0.1300439E+00
        -11   -1    0    0    0    0  0.00000000000E+00  0.00000000000E+00  0.45593999997E+02  0.45594000000E+02  0.51100000000E-03 0. -1.
         11   -1    0    0    0    0 -0.00000000000E+00 -0.00000000000E+00 -0.45593999997E+02  0.45594000000E+02  0.51100000000E-03 0.  1.
    9900012    2    1    2    0    0  0.36182727880E+02  0.18525651943E+02 -0.88094200334E+00  0.50528860368E+02  0.30000001575E+02 0.  0.
         12    1    1    2    0    0 -0.36182727880E+02 -0.18525651943E+02  0.88094200334E+00  0.40659139632E+02  0.00000000000E+00 0. -1.
         11    1    3    3    0    0 -0.16711327651E+01 -0.39289837836E+01 -0.37198573991E+00  0.42857872022E+01  0.51100000000E-03 0. -1.
        -11    1    3    3    0    0  0.14266374677E+02  0.94274489911E+00  0.45443070236E+00  0.14304709780E+02  0.51100000000E-03 0.  1.
        -12    1    3    3    0    0  0.23587485968E+02  0.21511890828E+02 -0.96338696579E+00  0.31938363385E+02  0.00000000000E+00 0.  1.
</event>
<event>
 7    1  0.5408841E-013  0.5052887E+02  0.7816164E-02  0.1300439E+00
        -11   -1    0    0    0    0  0.00000000000E+00  0.00000000000E+00  0.45593999997E+02  0.45594000000E+02  0.51100000000E-03 0. -1.
         11   -1    0    0    0    0 -0.00000000000E+00 -0.00000000000E+00 -0.45593999997E+02  0.45594000000E+02  0.51100000000E-03 0.  1.
    9900012    2    1    2    0    0 -0.95311413964E+01 -0.18000979356E+02 -0.35189306106E+02  0.50528865992E+02  0.30000018669E+02 0.  0.
         12    1    1    2    0    0  0.95311413964E+01  0.18000979356E+02  0.35189306106E+02  0.40659134008E+02  0.00000000000E+00 0. -1.
         11    1    3    3    0    0  0.66669035740E+00 -0.11611139274E+00  0.24076967347E+01  0.25009921463E+01  0.51100000000E-03 0. -1.
        -11    1    3    3    0    0 -0.13354493804E+02 -0.18031531368E+01 -0.17867778482E+02  0.22379708982E+02  0.51100000000E-03 0.  1.
        -12    1    3    3    0    0  0.31566620503E+01 -0.16081714826E+02 -0.19729224359E+02  0.25648164863E+02  0.00000000000E+00 0.  1.
</event>
<event>
 7    1  0.5408841E-013  0.5052888E+02  0.7816164E-02  0.1300439E+00
        -11   -1    0    0    0    0  0.00000000000E+00  0.00000000000E+00  0.45593999997E+02  0.45594000000E+02  0.51100000000E-03 0.  1.
         11   -1    0    0    0    0 -0.00000000000E+00 -0.00000000000E+00 -0.45593999997E+02  0.45594000000E+02  0.51100000000E-03 0. -1.
    9900012    2    1    2    0    0  0.33751050617E+02  0.22353778506E+02 -0.37867678609E+01  0.50528875045E+02  0.30000046186E+02 0.  0.
         12    1    1    2    0    0 -0.33751050617E+02 -0.22353778506E+02  0.37867678609E+01  0.40659124955E+02  0.00000000000E+00 0. -1.
         11    1    3    3    0    0  0.10771031034E+02  0.49229880875E+01 -0.68089367397E+00  0.11862315866E+02  0.51100000000E-03 0. -1.
        -11    1    3    3    0    0  0.20461589171E+02  0.20892004647E+02  0.48402437478E+01  0.29640857770E+02  0.51100000000E-03 0.  1.
         12    1    3    3    0    0  0.25184304125E+01 -0.34612142284E+01 -0.79461179347E+01  0.90257014082E+01  0.00000000000E+00 0. -1.
</event>
<event>
 7    1  0.5408841E-013  0.5052886E+02  0.7816164E-02  0.1300439E+00
        -11   -1    0    0    0    0  0.00000000000E+00  0.00000000000E+00  0.45593999997E+02  0.45594000000E+02  0.51100000000E-03 0. -1.
         11   -1    0    0    0    0 -0.00000000000E+00 -0.00000000000E+00 -0.45593999997E+02  0.45594000000E+02  0.51100000000E-03 0.  1.
    9900012    2    1    2    0    0 -0.35165151335E+02  0.23753112509E+01 -0.20271546349E+02  0.50528861257E+02  0.30000004276E+02 0.  0.
         12    1    1    2    0    0  0.35165151335E+02 -0.23753112509E+01  0.20271546349E+02  0.40659138743E+02  0.00000000000E+00 0. -1.
         11    1    3    3    0    0 -0.18204515845E+01  0.65057277418E+01 -0.50107724788E+01  0.84110866430E+01  0.51100000000E-03 0. -1.
        -11    1    3    3    0    0 -0.16751028688E+02 -0.90019401607E+00 -0.18426530907E+02  0.24918755043E+02  0.51100000000E-03 0.  1.
         12    1    3    3    0    0 -0.16593671063E+02 -0.32302224748E+01  0.31657570369E+01  0.17199019571E+02  0.00000000000E+00 0. -1.
</event>
<event>
 7    1  0.5408841E-013  0.5052886E+02  0.7816164E-02  0.1300439E+00
        -11   -1    0    0    0    0  0.00000000000E+00  0.00000000000E+00  0.45593999997E+02  0.45594000000E+02  0.51100000000E-03 0.  1.
         11   -1    0    0    0    0 -0.00000000000E+00 -0.00000000000E+00 -0.45593999997E+02  0.45594000000E+02  0.51100000000E-03 0. -1.
    9900012    2    1    2    0    0 -0.35241105337E+02 -0.49734543633E-01  0.20278754977E+02  0.50528857334E+02  0.29999992353E+02 0.  0.
         12    1    1    2    0    0  0.35241105337E+02  0.49734543633E-01 -0.20278754977E+02  0.40659142666E+02  0.00000000000E+00 0. -1.
         11    1    3    3    0    0 -0.20351242037E+02  0.10068006149E+01  0.16364717539E+02  0.26134090386E+02  0.51100000000E-03 0. -1.
        -11    1    3    3    0    0 -0.19333872644E+02 -0.17989470923E+01  0.42486357011E+01  0.19876764013E+02  0.51100000000E-03 0.  1.
         12    1    3    3    0    0  0.44440093436E+01  0.74241193383E+00 -0.33459826249E+00  0.45180029352E+01  0.00000000000E+00 0. -1.
</event>
<event>
 7    1  0.5408841E-013  0.5052887E+02  0.7816164E-02  0.1300439E+00
        -11   -1    0    0    0    0  0.00000000000E+00  0.00000000000E+00  0.45593999997E+02  0.45594000000E+02  0.51100000000E-03 0.  1.
         11   -1    0    0    0    0 -0.00000000000E+00 -0.00000000000E+00 -0.45593999997E+02  0.45594000000E+02  0.51100000000E-03 0. -1.
    9900012    2    1    2    0    0 -0.11442010097E+02  0.38768975472E+02 -0.43831728278E+01  0.50528865008E+02  0.30000015680E+02 0.  0.
         12    1    1    2    0    0  0.11442010097E+02 -0.38768975472E+02  0.43831728278E+01  0.40659134992E+02  0.00000000000E+00 0. -1.
         11    1    3    3    0    0 -0.24134503453E+00  0.39951481351E+01  0.46682905817E+01  0.61491782592E+01  0.51100000000E-03 0. -1.
        -11    1    3    3    0    0 -0.12537812316E+01  0.27315810643E+02  0.24357345831E+01  0.27452837406E+02  0.51100000000E-03 0.  1.
         12    1    3    3    0    0 -0.99468838308E+01  0.74580166945E+01 -0.11487197993E+02  0.16926849343E+02  0.00000000000E+00 0. -1.
</event>
<event>
 7    1  0.5408841E-013  0.5052884E+02  0.7816164E-02  0.1300439E+00
        -11   -1    0    0    0    0  0.00000000000E+00  0.00000000000E+00  0.45593999997E+02  0.45594000000E+02  0.51100000000E-03 0.  1.
         11   -1    0    0    0    0 -0.00000000000E+00 -0.00000000000E+00 -0.45593999997E+02  0.45594000000E+02  0.51100000000E-03 0. -1.
    9900012    2    1    2    0    0 -0.79276843934E+01  0.37448189265E+02  0.13709567898E+02  0.50528839765E+02  0.29999938950E+02 0.  0.
         12    1    1    2    0    0  0.79276843934E+01 -0.37448189265E+02 -0.13709567898E+02  0.40659160235E+02  0.00000000000E+00 0. -1.
         11    1    3    3    0    0 -0.35995186911E+00  0.31235247345E+01 -0.45458370182E+01  0.55272603134E+01  0.51100000000E-03 0. -1.
        -11    1    3    3    0    0 -0.13255068789E+02  0.24590271609E+02  0.64351443509E+01  0.28666869195E+02  0.51100000000E-03 0.  1.
         12    1    3    3    0    0  0.56873362645E+01  0.97343929216E+01  0.11820260565E+02  0.16334710256E+02  0.00000000000E+00 0. -1.
</event>
<event>
 7    1  0.5408841E-013  0.5052886E+02  0.7816164E-02  0.1300439E+00
        -11   -1    0    0    0    0  0.00000000000E+00  0.00000000000E+00  0.45593999997E+02  0.45594000000E+02  0.51100000000E-03 0.  1.
         11   -1    0    0    0    0 -0.00000000000E+00 -0.00000000000E+00 -0.45593999997E+02  0.45594000000E+02  0.51100000000E-03 0. -1.
    9900012    2    1    2    0    0 -0.31768977385E+02  0.50286934322E+01  0.24871872859E+02  0.50528859069E+02  0.29999997626E+02 0.  0.
         12    1    1    2    0    0  0.31768977385E+02 -0.50286934322E+01 -0.24871872859E+02  0.40659140931E+02  0.00000000000E+00 0. -1.
         11    1    3    3    0    0 -0.54837932853E+01  0.51402595833E+01  0.22024707280E+01  0.78323135119E+01  0.51100000000E-03 0. -1.
        -11    1    3    3    0    0 -0.16343758188E+02  0.98440007378E+01  0.42994297586E+01  0.19557808638E+02  0.51100000000E-03 0.  1.
         12    1    3    3    0    0 -0.99414259119E+01 -0.99555668888E+01  0.18369972372E+02  0.23138736919E+02  0.00000000000E+00 0. -1.
</event>
<event>
 7    1  0.5408841E-013  0.5052886E+02  0.7816164E-02  0.1300439E+00
        -11   -1    0    0    0    0  0.00000000000E+00  0.00000000000E+00  0.45593999997E+02  0.45594000000E+02  0.51100000000E-03 0. -1.
         11   -1    0    0    0    0 -0.00000000000E+00 -0.00000000000E+00 -0.45593999997E+02  0.45594000000E+02  0.51100000000E-03 0.  1.
    9900012    2    1    2    0    0  0.34015997309E+02 -0.18259227648E+02  0.12754525199E+02  0.50528863508E+02  0.30000011120E+02 0.  0.
         12    1    1    2    0    0 -0.34015997309E+02  0.18259227648E+02 -0.12754525199E+02  0.40659136492E+02  0.00000000000E+00 0. -1.
         11    1    3    3    0    0  0.11147270439E+02 -0.84755530419E+01  0.26999721295E+00  0.14006053561E+02  0.51100000000E-03 0. -1.
        -11    1    3    3    0    0  0.14583121766E+02 -0.15153496457E+01 -0.49922078327E+01  0.15488249233E+02  0.51100000000E-03 0.  1.
         12    1    3    3    0    0  0.82856051039E+01 -0.82683249605E+01  0.17476735818E+02  0.21034560715E+02  0.00000000000E+00 0. -1.
</event>
<event>
 7    1  0.5408841E-013  0.5052886E+02  0.7816164E-02  0.1300439E+00
        -11   -1    0    0    0    0  0.00000000000E+00  0.00000000000E+00  0.45593999997E+02  0.45594000000E+02  0.51100000000E-03 0. -1.
         11   -1    0    0    0    0 -0.00000000000E+00 -0.00000000000E+00 -0.45593999997E+02  0.45594000000E+02  0.51100000000E-03 0.  1.
    9900012    2    1    2    0    0 -0.11855450646E+02 -0.37533939532E+02 -0.10189060469E+02  0.50528864741E+02  0.30000014866E+02 0.  0.
         12    1    1    2    0    0  0.11855450646E+02  0.37533939532E+02  0.10189060469E+02  0.40659135259E+02  0.00000000000E+00 0. -1.
         11    1    3    3    0    0 -0.16265399599E+02 -0.27233484925E+02 -0.64689245963E+01  0.32373954206E+02  0.51100000000E-03 0. -1.
        -11    1    3    3    0    0 -0.46523139495E+01 -0.53969490358E+01  0.20615216485E+00  0.71283646762E+01  0.51100000000E-03 0.  1.
         12    1    3    3    0    0  0.90622629030E+01 -0.49035055713E+01 -0.39262880375E+01  0.11026545858E+02  0.00000000000E+00 0. -1.
</event>
<event>
 7    1  0.5408841E-013  0.5052885E+02  0.7816164E-02  0.1300439E+00
        -11   -1    0    0    0    0  0.00000000000E+00  0.00000000000E+00  0.45593999997E+02  0.45594000000E+02  0.51100000000E-03 0.  1.
         11   -1    0    0    0    0 -0.00000000000E+00 -0.00000000000E+00 -0.45593999997E+02  0.45594000000E+02  0.51100000000E-03 0. -1.
    9900012    2    1    2    0    0 -0.82827077942E+01  0.30194432989E+02  0.25939535273E+02  0.50528849466E+02  0.29999968438E+02 0.  0.
         12    1    1    2    0    0  0.82827077942E+01 -0.30194432989E+02 -0.25939535273E+02  0.40659150534E+02  0.00000000000E+00 0. -1.
         11    1    3    3    0    0  0.25090753530E+01 -0.18807670609E+01  0.36199302772E+01  0.47892211619E+01  0.51100000000E-03 0. -1.
        -11    1    3    3    0    0 -0.57263112845E+01 -0.49422076561E+00 -0.31340951541E+00  0.57561376702E+01  0.51100000000E-03 0.  1.
        -12    1    3    3    0    0 -0.50654718627E+01  0.32569420816E+02  0.22633014511E+02  0.39983490634E+02  0.00000000000E+00 0.  1.
</event>
<event>
 7    1  0.5408841E-013  0.5052886E+02  0.7816164E-02  0.1300439E+00
        -11   -1    0    0    0    0  0.00000000000E+00  0.00000000000E+00  0.45593999997E+02  0.45594000000E+02  0.51100000000E-03 0.  1.
         11   -1    0    0    0    0 -0.00000000000E+00 -0.00000000000E+00 -0.45593999997E+02  0.45594000000E+02  0.51100000000E-03 0. -1.
    9900012    2    1    2    0    0 -0.15376002466E+02 -0.35222643694E+02  0.13270640367E+02  0.50528856178E+02  0.29999988838E+02 0.  0.
         12    1    1    2    0    0  0.15376002466E+02  0.35222643694E+02 -0.13270640367E+02  0.40659143822E+02  0.00000000000E+00 0. -1.
         11    1    3    3    0    0 -0.86904269919E+01 -0.14793776187E+02 -0.41421261860E+01  0.17650397864E+02  0.51100000000E-03 0. -1.
        -11    1    3    3    0    0 -0.91419947933E+01 -0.17697763207E+02  0.58716430500E+01  0.20766874673E+02  0.51100000000E-03 0.  1.
         12    1    3    3    0    0  0.24564193192E+01 -0.27311043000E+01  0.11541123503E+02  0.12111583640E+02  0.00000000000E+00 0. -1.
</event>
<event>
 7    1  0.5408841E-013  0.5052877E+02  0.7816164E-02  0.1300439E+00
        -11   -1    0    0    0    0  0.00000000000E+00  0.00000000000E+00  0.45593999997E+02  0.45594000000E+02  0.51100000000E-03 0.  1.
         11   -1    0    0    0    0 -0.00000000000E+00 -0.00000000000E+00 -0.45593999997E+02  0.45594000000E+02  0.51100000000E-03 0. -1.
    9900012    2    1    2    0    0 -0.25854307693E+01  0.73720123926E+01  0.39901649995E+02  0.50528773602E+02  0.29999737839E+02 0.  0.
         12    1    1    2    0    0  0.25854307693E+01 -0.73720123926E+01 -0.39901649995E+02  0.40659226398E+02  0.00000000000E+00 0. -1.
         11    1    3    3    0    0  0.22166299270E+01  0.67672339852E+01  0.47749780890E+01  0.85737576392E+01  0.51100000000E-03 0. -1.
        -11    1    3    3    0    0  0.19526311848E+01  0.10069263190E+02  0.10277731392E+02  0.14520144371E+02  0.51100000000E-03 0.  1.
        -12    1    3    3    0    0 -0.67546918811E+01 -0.94644847823E+01  0.24848940514E+02  0.27434871592E+02  0.00000000000E+00 0.  1.
</event>
<event>
 7    1  0.5408841E-013  0.5052885E+02  0.7816164E-02  0.1300439E+00
        -11   -1    0    0    0    0  0.00000000000E+00  0.00000000000E+00  0.45593999997E+02  0.45594000000E+02  0.51100000000E-03 0. -1.
         11   -1    0    0    0    0 -0.00000000000E+00 -0.00000000000E+00 -0.45593999997E+02  0.45594000000E+02  0.51100000000E-03 0.  1.
    9900012    2    1    2    0    0  0.36639985557E+02  0.92743307635E+00 -0.17601636291E+02  0.50528852520E+02  0.29999977719E+02 0.  0.
         12    1    1    2    0    0 -0.36639985557E+02 -0.92743307635E+00  0.17601636291E+02  0.40659147480E+02  0.00000000000E+00 0. -1.
         11    1    3    3    0    0  0.28055074504E+01 -0.20719445521E+01 -0.57776761586E+01  0.67487308686E+01  0.51100000000E-03 0. -1.
        -11    1    3    3    0    0  0.30076405840E+02  0.22393620404E+01 -0.18998916140E+02  0.35644968023E+02  0.51100000000E-03 0.  1.
         12    1    3    3    0    0  0.37580722660E+01  0.76001558807E+00  0.71749560073E+01  0.81351536284E+01  0.00000000000E+00 0. -1.
</event>
<event>
 7    1  0.5469615E-013  0.5052885E+02  0.7816164E-02  0.1300439E+00
        -11   -1    0    0    0    0  0.00000000000E+00  0.00000000000E+00  0.45593999997E+02  0.45594000000E+02  0.51100000000E-03 0.  1.
         11   -1    0    0    0    0 -0.00000000000E+00 -0.00000000000E+00 -0.45593999997E+02  0.45594000000E+02  0.51100000000E-03 0. -1.
    9900012    2    1    2    0    0  0.10537718368E+02  0.27204141786E+02  0.28320617674E+02  0.50528853131E+02  0.29999979576E+02 0.  0.
         12    1    1    2    0    0 -0.10537718368E+02 -0.27204141786E+02 -0.28320617674E+02  0.40659146869E+02  0.00000000000E+00 0. -1.
         11    1    3    3    0    0  0.53138384906E+01  0.87971954072E+01  0.17386503466E+02  0.20196980704E+02  0.51100000000E-03 0. -1.
        -11    1    3    3    0    0 -0.61854079537E-01  0.12503383245E+02  0.16460584466E+02  0.20670976265E+02  0.51100000000E-03 0.  1.
         12    1    3    3    0    0  0.52857339574E+01  0.59035631330E+01 -0.55264702581E+01  0.96608961618E+01  0.00000000000E+00 0. -1.
</event>
<event>
 7    1  0.5408841E-013  0.5052898E+02  0.7816164E-02  0.1300438E+00
        -11   -1    0    0    0    0  0.00000000000E+00  0.00000000000E+00  0.45593999997E+02  0.45594000000E+02  0.51100000000E-03 0.  1.
         11   -1    0    0    0    0 -0.00000000000E+00 -0.00000000000E+00 -0.45593999997E+02  0.45594000000E+02  0.51100000000E-03 0. -1.
    9900012    2    1    2    0    0 -0.16129270198E+02  0.26780606247E+02  0.25996189685E+02  0.50528977554E+02  0.30000357772E+02 0.  0.
         12    1    1    2    0    0  0.16129270198E+02 -0.26780606247E+02 -0.25996189685E+02  0.40659022446E+02  0.00000000000E+00 0. -1.
         11    1    3    3    0    0  0.10691111000E+01  0.97464125942E+00  0.60057382010E+01  0.61775250488E+01  0.51100000000E-03 0. -1.
        -11    1    3    3    0    0  0.13513950609E+01  0.56614385485E+01  0.15557603684E+02  0.16610755181E+02  0.51100000000E-03 0.  1.
         12    1    3    3    0    0 -0.18549776359E+02  0.20144526440E+02  0.44328478007E+01  0.27740697325E+02  0.00000000000E+00 0. -1.
</event>
<event>
 7    1  0.5408841E-013  0.5052886E+02  0.7816164E-02  0.1300439E+00
        -11   -1    0    0    0    0  0.00000000000E+00  0.00000000000E+00  0.45593999997E+02  0.45594000000E+02  0.51100000000E-03 0.  1.
         11   -1    0    0    0    0 -0.00000000000E+00 -0.00000000000E+00 -0.45593999997E+02  0.45594000000E+02  0.51100000000E-03 0. -1.
    9900012    2    1    2    0    0 -0.27956332598E+02  0.12784171870E+02  0.26611534376E+02  0.50528863947E+02  0.30000012454E+02 0.  0.
         12    1    1    2    0    0  0.27956332598E+02 -0.12784171870E+02 -0.26611534376E+02  0.40659136053E+02  0.00000000000E+00 0. -1.
         11    1    3    3    0    0 -0.38077042652E+01 -0.37009516665E+01  0.82583304756E+00  0.53737933987E+01  0.51100000000E-03 0. -1.
        -11    1    3    3    0    0 -0.10352616201E+01 -0.49531471954E+01  0.12634830790E+01  0.52155367426E+01  0.51100000000E-03 0.  1.
        -12    1    3    3    0    0 -0.23113366712E+02  0.21438270732E+02  0.24522218250E+02  0.39939533806E+02  0.00000000000E+00 0.  1.
</event>
<event>
 7    1  0.5408841E-013  0.5052886E+02  0.7816164E-02  0.1300439E+00
        -11   -1    0    0    0    0  0.00000000000E+00  0.00000000000E+00  0.45593999997E+02  0.45594000000E+02  0.51100000000E-03 0.  1.
         11   -1    0    0    0    0 -0.00000000000E+00 -0.00000000000E+00 -0.45593999997E+02  0.45594000000E+02  0.51100000000E-03 0. -1.
    9900012    2    1    2    0    0  0.13780706858E+02  0.20228090368E+02  0.32466628125E+02  0.50528862488E+02  0.30000008017E+02 0.  0.
         12    1    1    2    0    0 -0.13780706858E+02 -0.20228090368E+02 -0.32466628125E+02  0.40659137512E+02  0.00000000000E+00 0. -1.
         11    1    3    3    0    0  0.67962823861E+01  0.26292174754E+01 -0.42330479535E+00  0.72994127171E+01  0.51100000000E-03 0. -1.
        -11    1    3    3    0    0 -0.72790210277E+01  0.65513883530E+01  0.90674944328E+01  0.13346321292E+02  0.51100000000E-03 0.  1.
         12    1    3    3    0    0  0.14263445499E+02  0.11047484540E+02  0.23822438488E+02  0.29883128479E+02  0.00000000000E+00 0. -1.
</event>
<event>
 7    1  0.5408841E-013  0.5052886E+02  0.7816164E-02  0.1300439E+00
        -11   -1    0    0    0    0  0.00000000000E+00  0.00000000000E+00  0.45593999997E+02  0.45594000000E+02  0.51100000000E-03 0.  1.
         11   -1    0    0    0    0 -0.00000000000E+00 -0.00000000000E+00 -0.45593999997E+02  0.45594000000E+02  0.51100000000E-03 0. -1.
    9900012    2    1    2    0    0  0.36821730927E+02 -0.74749303524E+01  0.15538698927E+02  0.50528860602E+02  0.30000002285E+02 0.  0.
         12    1    1    2    0    0 -0.36821730927E+02  0.74749303524E+01 -0.15538698927E+02  0.40659139398E+02  0.00000000000E+00 0. -1.
         11    1    3    3    0    0  0.29981178772E+02 -0.21861664975E+01  0.12917301878E+02  0.32718604686E+02  0.51100000000E-03 0. -1.
        -11    1    3    3    0    0  0.60910162048E+01 -0.69952811554E+01  0.79178861197E+01  0.12195382639E+02  0.51100000000E-03 0.  1.
        -12    1    3    3    0    0  0.74953595017E+00  0.17065173006E+01 -0.52964890706E+01  0.56148732766E+01  0.00000000000E+00 0.  1.
</event>
<event>
 7    1  0.5408841E-013  0.5052886E+02  0.7816164E-02  0.1300439E+00
        -11   -1    0    0    0    0  0.00000000000E+00  0.00000000000E+00  0.45593999997E+02  0.45594000000E+02  0.51100000000E-03 0. -1.
         11   -1    0    0    0    0 -0.00000000000E+00 -0.00000000000E+00 -0.45593999997E+02  0.45594000000E+02  0.51100000000E-03 0.  1.
    9900012    2    1    2    0    0  0.28313293319E+02 -0.16873380558E+02 -0.23807815398E+02  0.50528860510E+02  0.30000002007E+02 0.  0.
         12    1    1    2    0    0 -0.28313293319E+02  0.16873380558E+02  0.23807815398E+02  0.40659139490E+02  0.00000000000E+00 0. -1.
         11    1    3    3    0    0  0.14879321391E+02 -0.21867155656E+02 -0.10507851557E+02  0.28460176496E+02  0.51100000000E-03 0. -1.
        -11    1    3    3    0    0  0.54926467276E+01  0.28940087728E+01 -0.12320387235E+02  0.13796245748E+02  0.51100000000E-03 0.  1.
        -12    1    3    3    0    0  0.79413252000E+01  0.20997663253E+01 -0.97957660597E+00  0.82724382669E+01  0.00000000000E+00 0.  1.
</event>
<event>
 7    1  0.5408841E-013  0.5052884E+02  0.7816164E-02  0.1300439E+00
        -11   -1    0    0    0    0  0.00000000000E+00  0.00000000000E+00  0.45593999997E+02  0.45594000000E+02  0.51100000000E-03 0.  1.
         11   -1    0    0    0    0 -0.00000000000E+00 -0.00000000000E+00 -0.45593999997E+02  0.45594000000E+02  0.51100000000E-03 0. -1.
    9900012    2    1    2    0    0  0.21709395853E+02  0.33706694307E+02  0.67622472569E+01  0.50528842392E+02  0.29999946935E+02 0.  0.
         12    1    1    2    0    0 -0.21709395853E+02 -0.33706694307E+02 -0.67622472569E+01  0.40659157608E+02  0.00000000000E+00 0. -1.
         11    1    3    3    0    0  0.15495487144E+01  0.16010395399E+02  0.33291585145E+01  0.16426112100E+02  0.51100000000E-03 0. -1.
        -11    1    3    3    0    0 -0.16573153419E+01  0.10929313573E+02  0.41879402652E+00  0.11062186855E+02  0.51100000000E-03 0.  1.
        -12    1    3    3    0    0  0.21817162480E+02  0.67669853352E+01  0.30142947158E+01  0.23040543437E+02  0.00000000000E+00 0.  1.
</event>
<event>
 7    1  0.5408841E-013  0.5052886E+02  0.7816164E-02  0.1300439E+00
        -11   -1    0    0    0    0  0.00000000000E+00  0.00000000000E+00  0.45593999997E+02  0.45594000000E+02  0.51100000000E-03 0.  1.
         11   -1    0    0    0    0 -0.00000000000E+00 -0.00000000000E+00 -0.45593999997E+02  0.45594000000E+02  0.51100000000E-03 0. -1.
    9900012    2    1    2    0    0 -0.20075755691E+02 -0.37045975803E+01  0.35162563221E+02  0.50528857583E+02  0.29999993110E+02 0.  0.
         12    1    1    2    0    0  0.20075755691E+02  0.37045975803E+01 -0.35162563221E+02  0.40659142417E+02  0.00000000000E+00 0. -1.
         11    1    3    3    0    0 -0.14977324509E+01 -0.10316666437E+01 -0.10738075824E+01  0.21120136229E+01  0.51100000000E-03 0. -1.
        -11    1    3    3    0    0 -0.15081531273E+01  0.10214528719E+02  0.83894392980E+01  0.13303902239E+02  0.51100000000E-03 0.  1.
        -12    1    3    3    0    0 -0.17069870112E+02 -0.12887459655E+02  0.27846931506E+02  0.35112941721E+02  0.00000000000E+00 0.  1.
</event>
<event>
 7    1  0.5408841E-013  0.5052883E+02  0.7816164E-02  0.1300439E+00
        -11   -1    0    0    0    0  0.00000000000E+00  0.00000000000E+00  0.45593999997E+02  0.45594000000E+02  0.51100000000E-03 0.  1.
         11   -1    0    0    0    0 -0.00000000000E+00 -0.00000000000E+00 -0.45593999997E+02  0.45594000000E+02  0.51100000000E-03 0. -1.
    9900012    2    1    2    0    0  0.23609563162E+02 -0.93745764807E-01  0.33102081429E+02  0.50528830605E+02  0.29999911106E+02 0.  0.
         12    1    1    2    0    0 -0.23609563162E+02  0.93745764807E-01 -0.33102081429E+02  0.40659169395E+02  0.00000000000E+00 0. -1.
         11    1    3    3    0    0 -0.11956721107E+01 -0.38456452732E+00  0.17865740978E+01  0.21838884908E+01  0.51100000000E-03 0. -1.
        -11    1    3    3    0    0  0.20513907831E+02 -0.11730321603E+02  0.23768350727E+02  0.33516493789E+02  0.51100000000E-03 0.  1.
        -12    1    3    3    0    0  0.42913274424E+01  0.12021140365E+02  0.75471566042E+01  0.14828448325E+02  0.00000000000E+00 0.  1.
</event>
<event>
 7    1  0.5408841E-013  0.5052889E+02  0.7816164E-02  0.1300439E+00
        -11   -1    0    0    0    0  0.00000000000E+00  0.00000000000E+00  0.45593999997E+02  0.45594000000E+02  0.51100000000E-03 0. -1.
         11   -1    0    0    0    0 -0.00000000000E+00 -0.00000000000E+00 -0.45593999997E+02  0.45594000000E+02  0.51100000000E-03 0.  1.
    9900012    2    1    2    0    0  0.25449136036E+02 -0.18527284707E+02 -0.25734117730E+02  0.50528885168E+02  0.30000076956E+02 0.  0.
         12    1    1    2    0    0 -0.25449136036E+02  0.18527284707E+02  0.25734117730E+02  0.40659114832E+02  0.00000000000E+00 0. -1.
         11    1    3    3    0    0 -0.28551438512E+00  0.23025188997E+00  0.69043894420E+00  0.78181877295E+00  0.51100000000E-03 0. -1.
        -11    1    3    3    0    0  0.21244473940E+02 -0.13381704652E+02 -0.29864313604E+01  0.25284708124E+02  0.51100000000E-03 0.  1.
         12    1    3    3    0    0  0.44901764809E+01 -0.53758319443E+01 -0.23438125314E+02  0.24462358271E+02  0.00000000000E+00 0. -1.
</event>
<event>
 7    1  0.5408841E-013  0.5052885E+02  0.7816164E-02  0.1300439E+00
        -11   -1    0    0    0    0  0.00000000000E+00  0.00000000000E+00  0.45593999997E+02  0.45594000000E+02  0.51100000000E-03 0.  1.
         11   -1    0    0    0    0 -0.00000000000E+00 -0.00000000000E+00 -0.45593999997E+02  0.45594000000E+02  0.51100000000E-03 0. -1.
    9900012    2    1    2    0    0 -0.30424498843E+02 -0.20761996442E+01  0.26892482311E+02  0.50528851710E+02  0.29999975259E+02 0.  0.
         12    1    1    2    0    0  0.30424498843E+02  0.20761996442E+01 -0.26892482311E+02  0.40659148290E+02  0.00000000000E+00 0. -1.
         11    1    3    3    0    0  0.19601589810E+01 -0.25222942895E+01 -0.49223718600E+00  0.32321029411E+01  0.51100000000E-03 0. -1.
        -11    1    3    3    0    0 -0.20622988299E+02 -0.84638640136E+01  0.98271282660E+01  0.24362206194E+02  0.51100000000E-03 0.  1.
        -12    1    3    3    0    0 -0.11761669525E+02  0.89099586589E+01  0.17557591231E+02  0.22934542575E+02  0.00000000000E+00 0.  1.
</event>
<event>
 7    1  0.5408841E-013  0.5052885E+02  0.7816164E-02  0.1300439E+00
        -11   -1    0    0    0    0  0.00000000000E+00  0.00000000000E+00  0.45593999997E+02  0.45594000000E+02  0.51100000000E-03 0.  1.
         11   -1    0    0    0    0 -0.00000000000E+00 -0.00000000000E+00 -0.45593999997E+02  0.45594000000E+02  0.51100000000E-03 0. -1.
    9900012    2    1    2    0    0  0.34944523886E+02 -0.26395318230E+01  0.20617462269E+02  0.50528848161E+02  0.29999964469E+02 0.  0.
         12    1    1    2    0    0 -0.34944523886E+02  0.26395318230E+01 -0.20617462269E+02  0.40659151839E+02  0.00000000000E+00 0. -1.
         11    1    3    3    0    0  0.66653817920E+01  0.10280711078E+02  0.21961992476E+01  0.12447635362E+02  0.51100000000E-03 0. -1.
        -11    1    3    3    0    0  0.19422130610E+00  0.10498280315E+01  0.28864134627E+01  0.30775385863E+01  0.51100000000E-03 0.  1.
        -12    1    3    3    0    0  0.28084920788E+02 -0.13970070933E+02  0.15534849559E+02  0.35003674212E+02  0.00000000000E+00 0.  1.
</event>
<event>
 7    1  0.5408841E-013  0.5052889E+02  0.7816164E-02  0.1300439E+00
        -11   -1    0    0    0    0  0.00000000000E+00  0.00000000000E+00  0.45593999997E+02  0.45594000000E+02  0.51100000000E-03 0. -1.
         11   -1    0    0    0    0 -0.00000000000E+00 -0.00000000000E+00 -0.45593999997E+02  0.45594000000E+02  0.51100000000E-03 0.  1.
    9900012    2    1    2    0    0  0.14174840786E+01 -0.32468595777E+02  0.24432445254E+02  0.50528888426E+02  0.30000086860E+02 0.  0.
         12    1    1    2    0    0 -0.14174840786E+01  0.32468595777E+02 -0.24432445254E+02  0.40659111574E+02  0.00000000000E+00 0. -1.
         11    1    3    3    0    0 -0.19915239263E+01  0.23124428106E+01  0.42374056552E+01  0.52219887255E+01  0.51100000000E-03 0.  1.
        -11    1    3    3    0    0  0.41242279172E+00 -0.33950896921E+01  0.12352860415E+02  0.12817561674E+02  0.51100000000E-03 0. -1.
        -12    1    3    3    0    0  0.29965852131E+01 -0.31385948896E+02  0.78421791841E+01  0.32489338026E+02  0.00000000000E+00 0.  1.
</event>
<event>
 7    1  0.5408841E-013  0.5052886E+02  0.7816164E-02  0.1300439E+00
        -11   -1    0    0    0    0  0.00000000000E+00  0.00000000000E+00  0.45593999997E+02  0.45594000000E+02  0.51100000000E-03 0.  1.
         11   -1    0    0    0    0 -0.00000000000E+00 -0.00000000000E+00 -0.45593999997E+02  0.45594000000E+02  0.51100000000E-03 0. -1.
    9900012    2    1    2    0    0 -0.34695794388E+02 -0.93584708245E+01  0.19020686935E+02  0.50528860119E+02  0.30000000818E+02 0.  0.
         12    1    1    2    0    0  0.34695794388E+02  0.93584708245E+01 -0.19020686935E+02  0.40659139881E+02  0.00000000000E+00 0. -1.
         11    1    3    3    0    0 -0.21298832371E+02  0.15056609148E+01  0.17529467393E+01  0.21423820800E+02  0.51100000000E-03 0. -1.
        -11    1    3    3    0    0 -0.10994615914E+02 -0.54580181369E+01  0.16261242144E+01  0.12382076615E+02  0.51100000000E-03 0.  1.
         12    1    3    3    0    0 -0.24023461025E+01 -0.54061136025E+01  0.15641615981E+02  0.16722962704E+02  0.00000000000E+00 0. -1.
</event>
<event>
 7    1  0.5408841E-013  0.5052887E+02  0.7816164E-02  0.1300439E+00
        -11   -1    0    0    0    0  0.00000000000E+00  0.00000000000E+00  0.45593999997E+02  0.45594000000E+02  0.51100000000E-03 0. -1.
         11   -1    0    0    0    0 -0.00000000000E+00 -0.00000000000E+00 -0.45593999997E+02  0.45594000000E+02  0.51100000000E-03 0.  1.
    9900012    2    1    2    0    0  0.29449680596E+02 -0.60259980085E+01 -0.27378253645E+02  0.50528866809E+02  0.30000021152E+02 0.  0.
         12    1    1    2    0    0 -0.29449680596E+02  0.60259980085E+01  0.27378253645E+02  0.40659133191E+02  0.00000000000E+00 0. -1.
         11    1    3    3    0    0  0.80394468931E+01 -0.19793083207E+01 -0.49416749293E+01  0.96421221287E+01  0.51100000000E-03 0. -1.
        -11    1    3    3    0    0  0.13602931410E+02  0.47920750435E+01  0.11993055612E+01  0.14472113192E+02  0.51100000000E-03 0.  1.
         12    1    3    3    0    0  0.78073022932E+01 -0.88387647313E+01 -0.23635884277E+02  0.26414631488E+02  0.00000000000E+00 0. -1.
</event>
<event>
 7    1  0.5408841E-013  0.5052888E+02  0.7816164E-02  0.1300439E+00
        -11   -1    0    0    0    0  0.00000000000E+00  0.00000000000E+00  0.45593999997E+02  0.45594000000E+02  0.51100000000E-03 0.  1.
         11   -1    0    0    0    0 -0.00000000000E+00 -0.00000000000E+00 -0.45593999997E+02  0.45594000000E+02  0.51100000000E-03 0. -1.
    9900012    2    1    2    0    0 -0.78888948118E+01 -0.25698507457E+02  0.30504360941E+02  0.50528880687E+02  0.30000063337E+02 0.  0.
         12    1    1    2    0    0  0.78888948118E+01  0.25698507457E+02 -0.30504360941E+02  0.40659119313E+02  0.00000000000E+00 0. -1.
         11    1    3    3    0    0 -0.61247045357E+01 -0.11663704590E+02  0.86360888775E+01  0.15752334487E+02  0.51100000000E-03 0. -1.
        -11    1    3    3    0    0 -0.32210078657E+01 -0.16037774423E+02  0.25550830944E+02  0.30338590315E+02  0.51100000000E-03 0.  1.
         12    1    3    3    0    0  0.14568175896E+01  0.20029715560E+01 -0.36825588799E+01  0.44379558862E+01  0.00000000000E+00 0. -1.
</event>
<event>
 7    1  0.5408841E-013  0.5052886E+02  0.7816164E-02  0.1300439E+00
        -11   -1    0    0    0    0  0.00000000000E+00  0.00000000000E+00  0.45593999997E+02  0.45594000000E+02  0.51100000000E-03 0.  1.
         11   -1    0    0    0    0 -0.00000000000E+00 -0.00000000000E+00 -0.45593999997E+02  0.45594000000E+02  0.51100000000E-03 0. -1.
    9900012    2    1    2    0    0  0.21940167268E+02 -0.22906725107E+02  0.25437703209E+02  0.50528859091E+02  0.29999997694E+02 0.  0.
         12    1    1    2    0    0 -0.21940167268E+02  0.22906725107E+02 -0.25437703209E+02  0.40659140909E+02  0.00000000000E+00 0. -1.
         11    1    3    3    0    0 -0.56638803226E+01 -0.33849977220E+01  0.93537743725E+01  0.11446870540E+02  0.51100000000E-03 0. -1.
        -11    1    3    3    0    0  0.87061634179E+01 -0.12956654719E+02  0.73089289157E+01  0.17236375058E+02  0.51100000000E-03 0.  1.
        -12    1    3    3    0    0  0.18897884172E+02 -0.65650726660E+01  0.87749999208E+01  0.21845613494E+02  0.00000000000E+00 0.  1.
</event>
<event>
 7    1  0.5408841E-013  0.5052886E+02  0.7816164E-02  0.1300439E+00
        -11   -1    0    0    0    0  0.00000000000E+00  0.00000000000E+00  0.45593999997E+02  0.45594000000E+02  0.51100000000E-03 0.  1.
         11   -1    0    0    0    0 -0.00000000000E+00 -0.00000000000E+00 -0.45593999997E+02  0.45594000000E+02  0.51100000000E-03 0. -1.
    9900012    2    1    2    0    0  0.14605391209E+02 -0.34221378953E+02  0.16393453297E+02  0.50528861534E+02  0.30000005119E+02 0.  0.
         12    1    1    2    0    0 -0.14605391209E+02  0.34221378953E+02 -0.16393453297E+02  0.40659138466E+02  0.00000000000E+00 0. -1.
         11    1    3    3    0    0 -0.70939800411E+01 -0.37196093674E+01  0.42667535135E+01  0.90755293221E+01  0.51100000000E-03 0. -1.
        -11    1    3    3    0    0  0.19569116227E+01 -0.78457187064E+01  0.75367518399E+01  0.11053842485E+02  0.51100000000E-03 0.  1.
        -12    1    3    3    0    0  0.19742459627E+02 -0.22656050879E+02  0.45899479441E+01  0.30399489727E+02  0.00000000000E+00 0.  1.
</event>
<event>
 7    1  0.5408841E-013  0.5052886E+02  0.7816164E-02  0.1300439E+00
        -11   -1    0    0    0    0  0.00000000000E+00  0.00000000000E+00  0.45593999997E+02  0.45594000000E+02  0.51100000000E-03 0.  1.
         11   -1    0    0    0    0 -0.00000000000E+00 -0.00000000000E+00 -0.45593999997E+02  0.45594000000E+02  0.51100000000E-03 0. -1.
    9900012    2    1    2    0    0 -0.16799270464E+01 -0.34875817396E+02  0.20833168969E+02  0.50528859291E+02  0.29999998302E+02 0.  0.
         12    1    1    2    0    0  0.16799270464E+01  0.34875817396E+02 -0.20833168969E+02  0.40659140709E+02  0.00000000000E+00 0. -1.
         11    1    3    3    0    0 -0.58237600419E+01 -0.17799794030E+02 -0.15034902716E+01  0.18788542567E+02  0.51100000000E-03 0. -1.
        -11    1    3    3    0    0 -0.55836736840E+00 -0.76583039192E+01  0.73911580204E+00  0.77141224690E+01  0.51100000000E-03 0.  1.
         12    1    3    3    0    0  0.47022003639E+01 -0.94177194465E+01  0.21597543438E+02  0.24026194255E+02  0.00000000000E+00 0. -1.
</event>
<event>
 7    1  0.5408841E-013  0.5052886E+02  0.7816164E-02  0.1300439E+00
        -11   -1    0    0    0    0  0.00000000000E+00  0.00000000000E+00  0.45593999997E+02  0.45594000000E+02  0.51100000000E-03 0.  1.
         11   -1    0    0    0    0 -0.00000000000E+00 -0.00000000000E+00 -0.45593999997E+02  0.45594000000E+02  0.51100000000E-03 0. -1.
    9900012    2    1    2    0    0  0.37250522513E+02 -0.12235782734E+02  0.10763361879E+02  0.50528858770E+02  0.29999996716E+02 0.  0.
         12    1    1    2    0    0 -0.37250522513E+02  0.12235782734E+02 -0.10763361879E+02  0.40659141230E+02  0.00000000000E+00 0. -1.
         11    1    3    3    0    0  0.28797047265E+02 -0.12939088416E+02  0.13226845613E+01  0.31598092267E+02  0.51100000000E-03 0. -1.
        -11    1    3    3    0    0  0.89817254590E+01 -0.51889842268E+01  0.48936683760E+01  0.11469304249E+02  0.51100000000E-03 0.  1.
         12    1    3    3    0    0 -0.52825021039E+00  0.58922899080E+01  0.45470089417E+01  0.74614622535E+01  0.00000000000E+00 0. -1.
</event>
<event>
 7    1  0.5408841E-013  0.5052884E+02  0.7816164E-02  0.1300439E+00
        -11   -1    0    0    0    0  0.00000000000E+00  0.00000000000E+00  0.45593999997E+02  0.45594000000E+02  0.51100000000E-03 0.  1.
         11   -1    0    0    0    0 -0.00000000000E+00 -0.00000000000E+00 -0.45593999997E+02  0.45594000000E+02  0.51100000000E-03 0. -1.
    9900012    2    1    2    0    0 -0.10164902412E+02 -0.39340588462E+02 -0.14696608917E+01  0.50528843040E+02  0.29999948903E+02 0.  0.
         12    1    1    2    0    0  0.10164902412E+02  0.39340588462E+02  0.14696608917E+01  0.40659156960E+02  0.00000000000E+00 0. -1.
         11    1    3    3    0    0 -0.80604428901E+01 -0.17404346708E+02  0.39918563364E+00  0.19184404431E+02  0.51100000000E-03 0. -1.
        -11    1    3    3    0    0 -0.84499146374E+01 -0.17231730665E+02  0.60859950380E+01  0.20133875309E+02  0.51100000000E-03 0.  1.
         12    1    3    3    0    0  0.63454551157E+01 -0.47045110892E+01 -0.79548415633E+01  0.11210563300E+02  0.00000000000E+00 0. -1.
</event>
<event>
 7    1  0.5408841E-013  0.5052884E+02  0.7816164E-02  0.1300439E+00
        -11   -1    0    0    0    0  0.00000000000E+00  0.00000000000E+00  0.45593999997E+02  0.45594000000E+02  0.51100000000E-03 0.  1.
         11   -1    0    0    0    0 -0.00000000000E+00 -0.00000000000E+00 -0.45593999997E+02  0.45594000000E+02  0.51100000000E-03 0. -1.
    9900012    2    1    2    0    0  0.39921489338E+02 -0.72031580144E+01 -0.27488779149E+01  0.50528842038E+02  0.29999945860E+02 0.  0.
         12    1    1    2    0    0 -0.39921489338E+02  0.72031580144E+01  0.27488779149E+01  0.40659157962E+02  0.00000000000E+00 0. -1.
         11    1    3    3    0    0  0.10690578321E+02 -0.17063359807E+01  0.43945027005E+01  0.11683822216E+02  0.51100000000E-03 0. -1.
        -11    1    3    3    0    0  0.32088177479E+02 -0.38527992383E+01 -0.15540430938E+01  0.32355992429E+02  0.51100000000E-03 0.  1.
         12    1    3    3    0    0 -0.28572664617E+01 -0.16440227954E+01 -0.55893375216E+01  0.64890273936E+01  0.00000000000E+00 0. -1.
</event>
<event>
 7    1  0.5408841E-013  0.5052887E+02  0.7816164E-02  0.1300439E+00
        -11   -1    0    0    0    0  0.00000000000E+00  0.00000000000E+00  0.45593999997E+02  0.45594000000E+02  0.51100000000E-03 0. -1.
         11   -1    0    0    0    0 -0.00000000000E+00 -0.00000000000E+00 -0.45593999997E+02  0.45594000000E+02  0.51100000000E-03 0.  1.
    9900012    2    1    2    0    0  0.20087874130E+02 -0.39316608592E+01 -0.35130962373E+02  0.50528866199E+02  0.30000019299E+02 0.  0.
         12    1    1    2    0    0 -0.20087874130E+02  0.39316608592E+01  0.35130962373E+02  0.40659133801E+02  0.00000000000E+00 0. -1.
         11    1    3    3    0    0  0.35961684047E+01 -0.38050274684E+01 -0.32935079630E+01  0.61852935415E+01  0.51100000000E-03 0. -1.
        -11    1    3    3    0    0  0.67557319475E+01 -0.11613097940E+02 -0.66317568403E+01  0.14982795365E+02  0.51100000000E-03 0.  1.
        -12    1    3    3    0    0  0.97359737778E+01  0.11486464549E+02 -0.25205697570E+02  0.29360777292E+02  0.00000000000E+00 0.  1.
</event>
<event>
 7    1  0.5408841E-013  0.5052885E+02  0.7816164E-02  0.1300439E+00
        -11   -1    0    0    0    0  0.00000000000E+00  0.00000000000E+00  0.45593999997E+02  0.45594000000E+02  0.51100000000E-03 0.  1.
         11   -1    0    0    0    0 -0.00000000000E+00 -0.00000000000E+00 -0.45593999997E+02  0.45594000000E+02  0.51100000000E-03 0. -1.
    9900012    2    1    2    0    0 -0.14241241762E+02 -0.30075930328E+02  0.23362186022E+02  0.50528852348E+02  0.29999977198E+02 0.  0.
         12    1    1    2    0    0  0.14241241762E+02  0.30075930328E+02 -0.23362186022E+02  0.40659147652E+02  0.00000000000E+00 0. -1.
         11    1    3    3    0    0  0.16339705750E+01 -0.25905816496E+02  0.17163755487E+02  0.31118735367E+02  0.51100000000E-03 0. -1.
        -11    1    3    3    0    0 -0.28703558283E+01 -0.36238043457E+01  0.41911563890E+01  0.62399272957E+01  0.51100000000E-03 0.  1.
         12    1    3    3    0    0 -0.13004856509E+02 -0.54630948689E+00  0.20072741460E+01  0.13170189686E+02  0.00000000000E+00 0. -1.
</event>
<event>
 7    1  0.5408841E-013  0.5052886E+02  0.7816164E-02  0.1300439E+00
        -11   -1    0    0    0    0  0.00000000000E+00  0.00000000000E+00  0.45593999997E+02  0.45594000000E+02  0.51100000000E-03 0.  1.
         11   -1    0    0    0    0 -0.00000000000E+00 -0.00000000000E+00 -0.45593999997E+02  0.45594000000E+02  0.51100000000E-03 0. -1.
    9900012    2    1    2    0    0  0.14751366194E+02  0.21463920530E+02  0.31222790873E+02  0.50528863770E+02  0.30000011914E+02 0.  0.
         12    1    1    2    0    0 -0.14751366194E+02 -0.21463920530E+02 -0.31222790873E+02  0.40659136230E+02  0.00000000000E+00 0. -1.
         11    1    3    3    0    0 -0.22654080298E+01  0.81110656749E+00  0.66331883777E+00  0.24959886913E+01  0.51100000000E-03 0. -1.
        -11    1    3    3    0    0 -0.29788696465E+01  0.11150292038E+02  0.17092230417E+01  0.11667224201E+02  0.51100000000E-03 0.  1.
        -12    1    3    3    0    0  0.19995643870E+02  0.95025219245E+01  0.28850248994E+02  0.36365650877E+02  0.00000000000E+00 0.  1.
</event>
<event>
 7    1  0.5408841E-013  0.5052882E+02  0.7816164E-02  0.1300439E+00
        -11   -1    0    0    0    0  0.00000000000E+00  0.00000000000E+00  0.45593999997E+02  0.45594000000E+02  0.51100000000E-03 0.  1.
         11   -1    0    0    0    0 -0.00000000000E+00 -0.00000000000E+00 -0.45593999997E+02  0.45594000000E+02  0.51100000000E-03 0. -1.
    9900012    2    1    2    0    0  0.36555984734E+02  0.15700046545E+02  0.83867197505E+01  0.50528824534E+02  0.29999892653E+02 0.  0.
         12    1    1    2    0    0 -0.36555984734E+02 -0.15700046545E+02 -0.83867197505E+01  0.40659175466E+02  0.00000000000E+00 0. -1.
         11    1    3    3    0    0  0.11585709818E+02  0.53139914480E+01  0.11879291485E+02  0.17423683409E+02  0.51100000000E-03 0. -1.
        -11    1    3    3    0    0  0.63651939653E+01 -0.11095659313E+01  0.64066755244E+01  0.90990286464E+01  0.51100000000E-03 0.  1.
        -12    1    3    3    0    0  0.18605080951E+02  0.11495621028E+02 -0.98992472589E+01  0.24006112478E+02  0.00000000000E+00 0.  1.
</event>
<event>
 7    1  0.5408841E-013  0.5052878E+02  0.7816164E-02  0.1300439E+00
        -11   -1    0    0    0    0  0.00000000000E+00  0.00000000000E+00  0.45593999997E+02  0.45594000000E+02  0.51100000000E-03 0.  1.
         11   -1    0    0    0    0 -0.00000000000E+00 -0.00000000000E+00 -0.45593999997E+02  0.45594000000E+02  0.51100000000E-03 0. -1.
    9900012    2    1    2    0    0 -0.24307715029E+02  0.26462948853E+02  0.19026815696E+02  0.50528777339E+02  0.29999749198E+02 0.  0.
         12    1    1    2    0    0  0.24307715029E+02 -0.26462948853E+02 -0.19026815696E+02  0.40659222661E+02  0.00000000000E+00 0. -1.
         11    1    3    3    0    0 -0.12143959309E+01  0.13397397970E+00 -0.57048071834E+00  0.13483897861E+01  0.51100000000E-03 0. -1.
        -11    1    3    3    0    0  0.45060204690E+01 -0.44612410346E+00  0.76934337458E+01  0.89270471179E+01  0.51100000000E-03 0.  1.
         12    1    3    3    0    0 -0.27599339567E+02  0.26775098977E+02  0.11903862668E+02  0.40253340435E+02  0.00000000000E+00 0. -1.
</event>
<event>
 7    1  0.5408841E-013  0.5052886E+02  0.7816164E-02  0.1300439E+00
        -11   -1    0    0    0    0  0.00000000000E+00  0.00000000000E+00  0.45593999997E+02  0.45594000000E+02  0.51100000000E-03 0.  1.
         11   -1    0    0    0    0 -0.00000000000E+00 -0.00000000000E+00 -0.45593999997E+02  0.45594000000E+02  0.51100000000E-03 0. -1.
    9900012    2    1    2    0    0  0.21416413222E+02  0.22445131889E+02  0.26281532374E+02  0.50528860256E+02  0.30000001233E+02 0.  0.
         12    1    1    2    0    0 -0.21416413222E+02 -0.22445131889E+02 -0.26281532374E+02  0.40659139744E+02  0.00000000000E+00 0. -1.
         11    1    3    3    0    0 -0.49657608389E+01  0.97994070555E+00  0.29497442746E+01  0.58583321895E+01  0.51100000000E-03 0. -1.
        -11    1    3    3    0    0 -0.43280541619E+00  0.52120493385E+01  0.85079757538E+01  0.99869129626E+01  0.51100000000E-03 0.  1.
        -12    1    3    3    0    0  0.26814979477E+02  0.16253141845E+02  0.14823812346E+02  0.34683615104E+02  0.00000000000E+00 0.  1.
</event>
<event>
 7    1  0.5408841E-013  0.5052886E+02  0.7816164E-02  0.1300439E+00
        -11   -1    0    0    0    0  0.00000000000E+00  0.00000000000E+00  0.45593999997E+02  0.45594000000E+02  0.51100000000E-03 0.  1.
         11   -1    0    0    0    0 -0.00000000000E+00 -0.00000000000E+00 -0.45593999997E+02  0.45594000000E+02  0.51100000000E-03 0. -1.
    9900012    2    1    2    0    0 -0.24715961361E+02 -0.14892430956E+02  0.28644418064E+02  0.50528856723E+02  0.29999990496E+02 0.  0.
         12    1    1    2    0    0  0.24715961361E+02  0.14892430956E+02 -0.28644418064E+02  0.40659143277E+02  0.00000000000E+00 0. -1.
         11    1    3    3    0    0  0.26848848807E+01 -0.15545631491E+00 -0.73556230170E+00  0.27881581105E+01  0.51100000000E-03 0. -1.
        -11    1    3    3    0    0 -0.52266189921E+00 -0.18219820494E+01  0.14113033399E+02  0.14239750912E+02  0.51100000000E-03 0.  1.
         12    1    3    3    0    0 -0.26878184342E+02 -0.12914992592E+02  0.15266946967E+02  0.33500947701E+02  0.00000000000E+00 0. -1.
</event>
<event>
 7    1  0.5408841E-013  0.5052894E+02  0.7816164E-02  0.1300438E+00
        -11   -1    0    0    0    0  0.00000000000E+00  0.00000000000E+00  0.45593999997E+02  0.45594000000E+02  0.51100000000E-03 0.  1.
         11   -1    0    0    0    0 -0.00000000000E+00 -0.00000000000E+00 -0.45593999997E+02  0.45594000000E+02  0.51100000000E-03 0. -1.
    9900012    2    1    2    0    0  0.14749598945E+02 -0.36772285062E+02  0.91327599475E+01  0.50528942928E+02  0.30000252523E+02 0.  0.
         12    1    1    2    0    0 -0.14749598945E+02  0.36772285062E+02 -0.91327599475E+01  0.40659057072E+02  0.00000000000E+00 0. -1.
         11    1    3    3    0    0 -0.76015918525E+01 -0.15995270935E+02  0.46899196083E+00  0.17715892433E+02  0.51100000000E-03 0. -1.
        -11    1    3    3    0    0 -0.30130103234E+00 -0.25526425082E+01  0.86187010406E+00  0.27110120664E+01  0.51100000000E-03 0.  1.
        -12    1    3    3    0    0  0.22652491830E+02 -0.18224371619E+02  0.78018978826E+01  0.30102038429E+02  0.00000000000E+00 0.  1.
</event>
<event>
 7    1  0.5408841E-013  0.5052887E+02  0.7816164E-02  0.1300439E+00
        -11   -1    0    0    0    0  0.00000000000E+00  0.00000000000E+00  0.45593999997E+02  0.45594000000E+02  0.51100000000E-03 0.  1.
         11   -1    0    0    0    0 -0.00000000000E+00 -0.00000000000E+00 -0.45593999997E+02  0.45594000000E+02  0.51100000000E-03 0. -1.
    9900012    2    1    2    0    0  0.21228489548E+02  0.33266867648E+02  0.97893721100E+01  0.50528867472E+02  0.30000023169E+02 0.  0.
         12    1    1    2    0    0 -0.21228489548E+02 -0.33266867648E+02 -0.97893721100E+01  0.40659132528E+02  0.00000000000E+00 0. -1.
         11    1    3    3    0    0  0.49311358951E+01  0.78742419626E+01  0.14178611216E+01  0.93984104040E+01  0.51100000000E-03 0.  1.
        -11    1    3    3    0    0  0.23289986478E+02  0.21600370839E+02  0.93586030918E+01  0.33114693757E+02  0.51100000000E-03 0. -1.
         12    1    3    3    0    0 -0.69926328249E+01  0.37922548463E+01 -0.98709210344E+00  0.80157633113E+01  0.00000000000E+00 0. -1.
</event>
<event>
 7    1  0.5408841E-013  0.5052886E+02  0.7816164E-02  0.1300439E+00
        -11   -1    0    0    0    0  0.00000000000E+00  0.00000000000E+00  0.45593999997E+02  0.45594000000E+02  0.51100000000E-03 0.  1.
         11   -1    0    0    0    0 -0.00000000000E+00 -0.00000000000E+00 -0.45593999997E+02  0.45594000000E+02  0.51100000000E-03 0. -1.
    9900012    2    1    2    0    0  0.21431179110E+02  0.34542517662E+02  0.82769663136E+00  0.50528855319E+02  0.29999986228E+02 0.  0.
         12    1    1    2    0    0 -0.21431179110E+02 -0.34542517662E+02 -0.82769663136E+00  0.40659144681E+02  0.00000000000E+00 0. -1.
         11    1    3    3    0    0  0.37372523517E-01 -0.87528916348E+00 -0.10460318220E+01  0.13644451836E+01  0.51100000000E-03 0. -1.
        -11    1    3    3    0    0  0.89041766868E+00 -0.43184864064E+01 -0.34953534107E-01  0.44094660083E+01  0.51100000000E-03 0.  1.
        -12    1    3    3    0    0  0.20503388917E+02  0.39736293232E+02  0.19086819874E+01  0.44754944127E+02  0.00000000000E+00 0.  1.
</event>
<event>
 7    1  0.5408841E-013  0.5052885E+02  0.7816164E-02  0.1300439E+00
        -11   -1    0    0    0    0  0.00000000000E+00  0.00000000000E+00  0.45593999997E+02  0.45594000000E+02  0.51100000000E-03 0. -1.
         11   -1    0    0    0    0 -0.00000000000E+00 -0.00000000000E+00 -0.45593999997E+02  0.45594000000E+02  0.51100000000E-03 0.  1.
    9900012    2    1    2    0    0  0.38594199862E+02  0.93485610348E+01 -0.87326101453E+01  0.50528851750E+02  0.29999975380E+02 0.  0.
         12    1    1    2    0    0 -0.38594199862E+02 -0.93485610348E+01  0.87326101453E+01  0.40659148250E+02  0.00000000000E+00 0. -1.
         11    1    3    3    0    0  0.20639914442E+02  0.12909479545E+02 -0.32470064095E+01  0.24560207271E+02  0.51100000000E-03 0.  1.
        -11    1    3    3    0    0  0.17466853036E+02  0.29080194595E+01 -0.74200688487E+01  0.19199087326E+02  0.51100000000E-03 0. -1.
         12    1    3    3    0    0  0.48743238372E+00 -0.64689379695E+01  0.19344651129E+01  0.67695571535E+01  0.00000000000E+00 0. -1.
</event>
<event>
 7    1  0.5408841E-013  0.5052886E+02  0.7816164E-02  0.1300439E+00
        -11   -1    0    0    0    0  0.00000000000E+00  0.00000000000E+00  0.45593999997E+02  0.45594000000E+02  0.51100000000E-03 0.  1.
         11   -1    0    0    0    0 -0.00000000000E+00 -0.00000000000E+00 -0.45593999997E+02  0.45594000000E+02  0.51100000000E-03 0. -1.
    9900012    2    1    2    0    0  0.22741893520E+02  0.13471912649E+02  0.30894656220E+02  0.50528856696E+02  0.29999990412E+02 0.  0.
         12    1    1    2    0    0 -0.22741893520E+02 -0.13471912649E+02 -0.30894656220E+02  0.40659143304E+02  0.00000000000E+00 0. -1.
         11    1    3    3    0    0 -0.39945014246E+01  0.21853108381E+01  0.19950999390E+01  0.49711215151E+01  0.51100000000E-03 0. -1.
        -11    1    3    3    0    0  0.31539706495E+01  0.89816703390E+01  0.15898468489E+02  0.18530494691E+02  0.51100000000E-03 0.  1.
        -12    1    3    3    0    0  0.23582424295E+02  0.23049314722E+01  0.13001087792E+02  0.27027240490E+02  0.00000000000E+00 0.  1.
</event>
<event>
 7    1  0.5408841E-013  0.5052886E+02  0.7816164E-02  0.1300439E+00
        -11   -1    0    0    0    0  0.00000000000E+00  0.00000000000E+00  0.45593999997E+02  0.45594000000E+02  0.51100000000E-03 0. -1.
         11   -1    0    0    0    0 -0.00000000000E+00 -0.00000000000E+00 -0.45593999997E+02  0.45594000000E+02  0.51100000000E-03 0.  1.
    9900012    2    1    2    0    0 -0.30592614553E+02 -0.94270941926E+01 -0.25067657593E+02  0.50528860471E+02  0.30000001886E+02 0.  0.
         12    1    1    2    0    0  0.30592614553E+02  0.94270941926E+01  0.25067657593E+02  0.40659139529E+02  0.00000000000E+00 0. -1.
         11    1    3    3    0    0 -0.33782431705E+01  0.83264284110E+01 -0.41258544646E+01  0.98875989161E+01  0.51100000000E-03 0. -1.
        -11    1    3    3    0    0 -0.52545098567E+01 -0.47978855861E+01 -0.11358115048E+02  0.13402848862E+02  0.51100000000E-03 0.  1.
         12    1    3    3    0    0 -0.21959861526E+02 -0.12955637017E+02 -0.95836880803E+01  0.27238412692E+02  0.00000000000E+00 0. -1.
</event>
<event>
 7    1  0.5408841E-013  0.5052882E+02  0.7816164E-02  0.1300439E+00
        -11   -1    0    0    0    0  0.00000000000E+00  0.00000000000E+00  0.45593999997E+02  0.45594000000E+02  0.51100000000E-03 0. -1.
         11   -1    0    0    0    0 -0.00000000000E+00 -0.00000000000E+00 -0.45593999997E+02  0.45594000000E+02  0.51100000000E-03 0.  1.
    9900012    2    1    2    0    0 -0.33735962122E+02 -0.57767532402E+01  0.21947279806E+02  0.50528817652E+02  0.29999871735E+02 0.  0.
         12    1    1    2    0    0  0.33735962122E+02  0.57767532402E+01 -0.21947279806E+02  0.40659182348E+02  0.00000000000E+00 0. -1.
         11    1    3    3    0    0 -0.34111188679E+01  0.31908353698E+01  0.29581525613E+01  0.55288180587E+01  0.51100000000E-03 0. -1.
        -11    1    3    3    0    0 -0.17094682177E+01  0.68985127375E+01  0.74728351012E+01  0.10312857232E+02  0.51100000000E-03 0.  1.
        -12    1    3    3    0    0 -0.28615375037E+02 -0.15866101348E+02  0.11516292143E+02  0.34687142361E+02  0.00000000000E+00 0.  1.
</event>
<event>
 7    1  0.5408841E-013  0.5052885E+02  0.7816164E-02  0.1300439E+00
        -11   -1    0    0    0    0  0.00000000000E+00  0.00000000000E+00  0.45593999997E+02  0.45594000000E+02  0.51100000000E-03 0.  1.
         11   -1    0    0    0    0 -0.00000000000E+00 -0.00000000000E+00 -0.45593999997E+02  0.45594000000E+02  0.51100000000E-03 0. -1.
    9900012    2    1    2    0    0 -0.25616820490E+02 -0.31559749963E+02 -0.96269895501E+00  0.50528854669E+02  0.29999984252E+02 0.  0.
         12    1    1    2    0    0  0.25616820490E+02  0.31559749963E+02  0.96269895501E+00  0.40659145331E+02  0.00000000000E+00 0. -1.
         11    1    3    3    0    0 -0.14295887755E+02 -0.30122340630E+02  0.41321407158E+01  0.33597654663E+02  0.51100000000E-03 0. -1.
        -11    1    3    3    0    0 -0.27160676270E+01 -0.57716804706E+01 -0.97657013750E+00  0.64531394145E+01  0.51100000000E-03 0.  1.
         12    1    3    3    0    0 -0.86048651076E+01  0.43342711367E+01 -0.41182695333E+01  0.10478060591E+02  0.00000000000E+00 0. -1.
</event>
<event>
 7    1  0.5408841E-013  0.5052889E+02  0.7816164E-02  0.1300439E+00
        -11   -1    0    0    0    0  0.00000000000E+00  0.00000000000E+00  0.45593999997E+02  0.45594000000E+02  0.51100000000E-03 0. -1.
         11   -1    0    0    0    0 -0.00000000000E+00 -0.00000000000E+00 -0.45593999997E+02  0.45594000000E+02  0.51100000000E-03 0.  1.
    9900012    2    1    2    0    0 -0.38690184848E+02  0.53665239135E+01 -0.11288627421E+02  0.50528891654E+02  0.30000096670E+02 0.  0.
         12    1    1    2    0    0  0.38690184848E+02 -0.53665239135E+01  0.11288627421E+02  0.40659108346E+02  0.00000000000E+00 0. -1.
         11    1    3    3    0    0 -0.84328657545E+01  0.19029959515E+01  0.37132077790E+01  0.94086412779E+01  0.51100000000E-03 0. -1.
        -11    1    3    3    0    0 -0.30798433577E+02 -0.28512113643E+01 -0.85812309970E+01  0.32098449226E+02  0.51100000000E-03 0.  1.
         12    1    3    3    0    0  0.54111448383E+00  0.63147393263E+01 -0.64206042031E+01  0.90218011493E+01  0.00000000000E+00 0. -1.
</event>
<event>
 7    1  0.5408841E-013  0.5052884E+02  0.7816164E-02  0.1300439E+00
        -11   -1    0    0    0    0  0.00000000000E+00  0.00000000000E+00  0.45593999997E+02  0.45594000000E+02  0.51100000000E-03 0.  1.
         11   -1    0    0    0    0 -0.00000000000E+00 -0.00000000000E+00 -0.45593999997E+02  0.45594000000E+02  0.51100000000E-03 0. -1.
    9900012    2    1    2    0    0 -0.25113137426E+02 -0.23130136799E+02  0.22079268205E+02  0.50528843784E+02  0.29999951167E+02 0.  0.
         12    1    1    2    0    0  0.25113137426E+02  0.23130136799E+02 -0.22079268205E+02  0.40659156216E+02  0.00000000000E+00 0. -1.
         11    1    3    3    0    0 -0.62721392184E+01 -0.14461310174E+01  0.21716838663E+01  0.67931757206E+01  0.51100000000E-03 0. -1.
        -11    1    3    3    0    0 -0.16284813685E+02 -0.10635290919E+01  0.15474547977E+02  0.22489728461E+02  0.51100000000E-03 0.  1.
         12    1    3    3    0    0 -0.25561845224E+01 -0.20620476690E+02  0.44330363616E+01  0.21245939603E+02  0.00000000000E+00 0. -1.
</event>
<event>
 7    1  0.5408841E-013  0.5052891E+02  0.7816164E-02  0.1300439E+00
        -11   -1    0    0    0    0  0.00000000000E+00  0.00000000000E+00  0.45593999997E+02  0.45594000000E+02  0.51100000000E-03 0.  1.
         11   -1    0    0    0    0 -0.00000000000E+00 -0.00000000000E+00 -0.45593999997E+02  0.45594000000E+02  0.51100000000E-03 0. -1.
    9900012    2    1    2    0    0 -0.79356092548E+01  0.14107794190E+02  0.37298228013E+02  0.50528910437E+02  0.30000153764E+02 0.  0.
         12    1    1    2    0    0  0.79356092548E+01 -0.14107794190E+02 -0.37298228013E+02  0.40659089563E+02  0.00000000000E+00 0. -1.
         11    1    3    3    0    0  0.10265315961E+00  0.98384564831E+01  0.59058782530E+01  0.11475415541E+02  0.51100000000E-03 0.  1.
        -11    1    3    3    0    0 -0.12974454084E+02 -0.34459594084E+01  0.22998846687E+02  0.26630021484E+02  0.51100000000E-03 0. -1.
         12    1    3    3    0    0  0.49361916701E+01  0.77152971156E+01  0.83935030734E+01  0.12423473412E+02  0.00000000000E+00 0. -1.
</event>
<event>
 7    1  0.5408841E-013  0.5052886E+02  0.7816164E-02  0.1300439E+00
        -11   -1    0    0    0    0  0.00000000000E+00  0.00000000000E+00  0.45593999997E+02  0.45594000000E+02  0.51100000000E-03 0.  1.
         11   -1    0    0    0    0 -0.00000000000E+00 -0.00000000000E+00 -0.45593999997E+02  0.45594000000E+02  0.51100000000E-03 0. -1.
    9900012    2    1    2    0    0 -0.28714487169E+02  0.28700334990E+02 -0.22213665397E+01  0.50528862390E+02  0.30000007720E+02 0.  0.
         12    1    1    2    0    0  0.28714487169E+02 -0.28700334990E+02  0.22213665397E+01  0.40659137610E+02  0.00000000000E+00 0. -1.
         11    1    3    3    0    0 -0.11365373007E+02  0.93147825452E+01 -0.93676914119E+01  0.17426718570E+02  0.51100000000E-03 0. -1.
        -11    1    3    3    0    0 -0.77301669932E+01  0.38619231188E+01 -0.60693726844E+01  0.10559697768E+02  0.51100000000E-03 0.  1.
        -12    1    3    3    0    0 -0.96189471684E+01  0.15523629326E+02  0.13215697557E+02  0.22542446052E+02  0.00000000000E+00 0.  1.
</event>
<event>
 7    1  0.5408841E-013  0.5052884E+02  0.7816164E-02  0.1300439E+00
        -11   -1    0    0    0    0  0.00000000000E+00  0.00000000000E+00  0.45593999997E+02  0.45594000000E+02  0.51100000000E-03 0.  1.
         11   -1    0    0    0    0 -0.00000000000E+00 -0.00000000000E+00 -0.45593999997E+02  0.45594000000E+02  0.51100000000E-03 0. -1.
    9900012    2    1    2    0    0  0.14675479270E+02 -0.72805566192E+01  0.37212781212E+02  0.50528840121E+02  0.29999940032E+02 0.  0.
         12    1    1    2    0    0 -0.14675479270E+02  0.72805566192E+01 -0.37212781212E+02  0.40659159879E+02  0.00000000000E+00 0. -1.
         11    1    3    3    0    0  0.11578053199E+02  0.39199077549E+01  0.58826555736E+01  0.13565494076E+02  0.51100000000E-03 0. -1.
        -11    1    3    3    0    0  0.82141878537E+01 -0.48602475601E+01  0.87121706186E+01  0.12922724387E+02  0.51100000000E-03 0.  1.
         12    1    3    3    0    0 -0.51167617821E+01 -0.63402168140E+01  0.22617955020E+02  0.24040621657E+02  0.00000000000E+00 0. -1.
</event>
<event>
 7    1  0.5408841E-013  0.5052885E+02  0.7816164E-02  0.1300439E+00
        -11   -1    0    0    0    0  0.00000000000E+00  0.00000000000E+00  0.45593999997E+02  0.45594000000E+02  0.51100000000E-03 0.  1.
         11   -1    0    0    0    0 -0.00000000000E+00 -0.00000000000E+00 -0.45593999997E+02  0.45594000000E+02  0.51100000000E-03 0. -1.
    9900012    2    1    2    0    0 -0.20511583184E+02 -0.31350123640E+02 -0.15799083082E+02  0.50528851913E+02  0.29999975874E+02 0.  0.
         12    1    1    2    0    0  0.20511583184E+02  0.31350123640E+02  0.15799083082E+02  0.40659148087E+02  0.00000000000E+00 0. -1.
         11    1    3    3    0    0 -0.26849792531E+01 -0.79202533747E+01  0.59941365501E+01  0.10289275988E+02  0.51100000000E-03 0. -1.
        -11    1    3    3    0    0 -0.79166011051E+01  0.48531269188E+00 -0.47298684704E+01  0.92347039733E+01  0.51100000000E-03 0.  1.
        -12    1    3    3    0    0 -0.99100028260E+01 -0.23915182957E+02 -0.17063351162E+02  0.31004871952E+02  0.00000000000E+00 0.  1.
</event>
<event>
 7    1  0.5408841E-013  0.5052884E+02  0.7816164E-02  0.1300439E+00
        -11   -1    0    0    0    0  0.00000000000E+00  0.00000000000E+00  0.45593999997E+02  0.45594000000E+02  0.51100000000E-03 0.  1.
         11   -1    0    0    0    0 -0.00000000000E+00 -0.00000000000E+00 -0.45593999997E+02  0.45594000000E+02  0.51100000000E-03 0. -1.
    9900012    2    1    2    0    0  0.27736164830E+02  0.12987052899E+02  0.26743384332E+02  0.50528843737E+02  0.29999951024E+02 0.  0.
         12    1    1    2    0    0 -0.27736164830E+02 -0.12987052899E+02 -0.26743384332E+02  0.40659156263E+02  0.00000000000E+00 0. -1.
         11    1    3    3    0    0  0.16982279406E+02 -0.14697793148E+01  0.36971897525E+01  0.17442112182E+02  0.51100000000E-03 0. -1.
        -11    1    3    3    0    0  0.33163708931E+01  0.83707056759E+00 -0.17445459578E+01  0.38395890269E+01  0.51100000000E-03 0.  1.
        -12    1    3    3    0    0  0.74375145313E+01  0.13619761646E+02  0.24790740537E+02  0.29247142528E+02  0.00000000000E+00 0.  1.
</event>
<event>
 7    1  0.5408841E-013  0.5052886E+02  0.7816164E-02  0.1300439E+00
        -11   -1    0    0    0    0  0.00000000000E+00  0.00000000000E+00  0.45593999997E+02  0.45594000000E+02  0.51100000000E-03 0.  1.
         11   -1    0    0    0    0 -0.00000000000E+00 -0.00000000000E+00 -0.45593999997E+02  0.45594000000E+02  0.51100000000E-03 0. -1.
    9900012    2    1    2    0    0  0.41811895098E+01  0.33663860633E+02  0.22414897594E+02  0.50528862127E+02  0.30000006923E+02 0.  0.
         12    1    1    2    0    0 -0.41811895098E+01 -0.33663860633E+02 -0.22414897594E+02  0.40659137873E+02  0.00000000000E+00 0. -1.
         11    1    3    3    0    0  0.38878443005E+01  0.91244519947E+01  0.74178002803E+01  0.12385262160E+02  0.51100000000E-03 0. -1.
        -11    1    3    3    0    0  0.70506899286E+01  0.26943004821E+02  0.12729851272E+02  0.30621672895E+02  0.51100000000E-03 0.  1.
         12    1    3    3    0    0 -0.67573447193E+01 -0.24035961831E+01  0.22672460414E+01  0.75219270722E+01  0.00000000000E+00 0. -1.
</event>
<event>
 7    1  0.5408841E-013  0.5052885E+02  0.7816164E-02  0.1300439E+00
        -11   -1    0    0    0    0  0.00000000000E+00  0.00000000000E+00  0.45593999997E+02  0.45594000000E+02  0.51100000000E-03 0.  1.
         11   -1    0    0    0    0 -0.00000000000E+00 -0.00000000000E+00 -0.45593999997E+02  0.45594000000E+02  0.51100000000E-03 0. -1.
    9900012    2    1    2    0    0  0.18735011443E+02  0.34965607601E+02  0.89202976767E+01  0.50528854912E+02  0.29999984990E+02 0.  0.
         12    1    1    2    0    0 -0.18735011443E+02 -0.34965607601E+02 -0.89202976767E+01  0.40659145088E+02  0.00000000000E+00 0. -1.
         11    1    3    3    0    0  0.35824344833E+01  0.34149580986E+01  0.90025136333E+01  0.10273316291E+02  0.51100000000E-03 0. -1.
        -11    1    3    3    0    0  0.33483802830E+01  0.10390139330E+02  0.92319790996E+01  0.14296715853E+02  0.51100000000E-03 0.  1.
        -12    1    3    3    0    0  0.11804196677E+02  0.21160510172E+02 -0.93141950563E+01  0.25958822768E+02  0.00000000000E+00 0.  1.
</event>
<event>
 7    1  0.5408841E-013  0.5052886E+02  0.7816164E-02  0.1300439E+00
        -11   -1    0    0    0    0  0.00000000000E+00  0.00000000000E+00  0.45593999997E+02  0.45594000000E+02  0.51100000000E-03 0. -1.
         11   -1    0    0    0    0 -0.00000000000E+00 -0.00000000000E+00 -0.45593999997E+02  0.45594000000E+02  0.51100000000E-03 0.  1.
    9900012    2    1    2    0    0  0.19786742898E+01 -0.19762492432E+02 -0.35478080792E+02  0.50528862334E+02  0.30000007550E+02 0.  0.
         12    1    1    2    0    0 -0.19786742898E+01  0.19762492432E+02  0.35478080792E+02  0.40659137666E+02  0.00000000000E+00 0. -1.
         11    1    3    3    0    0  0.33549665087E+01  0.52964886448E+01 -0.28001318369E+01  0.68665370315E+01  0.51100000000E-03 0. -1.
        -11    1    3    3    0    0  0.55262770680E+01 -0.16921093707E+02 -0.24154766105E+02  0.30005264144E+02  0.51100000000E-03 0.  1.
        -12    1    3    3    0    0 -0.69025692869E+01 -0.81378873692E+01 -0.85231828499E+01  0.13657061159E+02  0.00000000000E+00 0.  1.
</event>
<event>
 7    1  0.5408841E-013  0.5052886E+02  0.7816164E-02  0.1300439E+00
        -11   -1    0    0    0    0  0.00000000000E+00  0.00000000000E+00  0.45593999997E+02  0.45594000000E+02  0.51100000000E-03 0.  1.
         11   -1    0    0    0    0 -0.00000000000E+00 -0.00000000000E+00 -0.45593999997E+02  0.45594000000E+02  0.51100000000E-03 0. -1.
    9900012    2    1    2    0    0  0.96735597816E+01 -0.12498943194E+02  0.37461502526E+02  0.50528861897E+02  0.30000006222E+02 0.  0.
         12    1    1    2    0    0 -0.96735597816E+01  0.12498943194E+02 -0.37461502526E+02  0.40659138103E+02  0.00000000000E+00 0. -1.
         11    1    3    3    0    0  0.32636645266E+01  0.17528809920E+01  0.24714730435E+02  0.24990838295E+02  0.51100000000E-03 0. -1.
        -11    1    3    3    0    0  0.56287554028E+01 -0.99968811952E+01  0.16304919428E+02  0.19936672712E+02  0.51100000000E-03 0.  1.
         12    1    3    3    0    0  0.78113985218E+00 -0.42549429904E+01 -0.35581473376E+01  0.56013508903E+01  0.00000000000E+00 0. -1.
</event>
<event>
 7    1  0.5408841E-013  0.5052886E+02  0.7816164E-02  0.1300439E+00
        -11   -1    0    0    0    0  0.00000000000E+00  0.00000000000E+00  0.45593999997E+02  0.45594000000E+02  0.51100000000E-03 0.  1.
         11   -1    0    0    0    0 -0.00000000000E+00 -0.00000000000E+00 -0.45593999997E+02  0.45594000000E+02  0.51100000000E-03 0. -1.
    9900012    2    1    2    0    0  0.18666198403E+02  0.31800976152E+02  0.17129998331E+02  0.50528857241E+02  0.29999992071E+02 0.  0.
         12    1    1    2    0    0 -0.18666198403E+02 -0.31800976152E+02 -0.17129998331E+02  0.40659142759E+02  0.00000000000E+00 0. -1.
         11    1    3    3    0    0 -0.16983249704E+01  0.91049167783E+01 -0.46226695745E+01  0.10351468084E+02  0.51100000000E-03 0. -1.
        -11    1    3    3    0    0  0.14738406648E+02  0.70831763457E+01  0.63699817172E+01  0.17549036583E+02  0.51100000000E-03 0.  1.
        -12    1    3    3    0    0  0.56261167261E+01  0.15612883028E+02  0.15382686188E+02  0.22628352574E+02  0.00000000000E+00 0.  1.
</event>
<event>
 7    1  0.5408841E-013  0.5052886E+02  0.7816164E-02  0.1300439E+00
        -11   -1    0    0    0    0  0.00000000000E+00  0.00000000000E+00  0.45593999997E+02  0.45594000000E+02  0.51100000000E-03 0. -1.
         11   -1    0    0    0    0 -0.00000000000E+00 -0.00000000000E+00 -0.45593999997E+02  0.45594000000E+02  0.51100000000E-03 0.  1.
    9900012    2    1    2    0    0  0.17057646526E+02  0.36830684405E+02 -0.23880844458E+01  0.50528861224E+02  0.30000004176E+02 0.  0.
         12    1    1    2    0    0 -0.17057646526E+02 -0.36830684405E+02  0.23880844458E+01  0.40659138776E+02  0.00000000000E+00 0. -1.
         11    1    3    3    0    0  0.13724303828E+02  0.12999877871E+02 -0.35858550968E+00  0.18907192389E+02  0.51100000000E-03 0. -1.
        -11    1    3    3    0    0  0.38279248991E+01  0.16534331673E+02  0.83579432136E+01  0.18918042920E+02  0.51100000000E-03 0.  1.
        -12    1    3    3    0    0 -0.49458220177E+00  0.72964748608E+01 -0.10387442150E+02  0.12703625914E+02  0.00000000000E+00 0.  1.
</event>
<event>
 7    1  0.5408841E-013  0.5052886E+02  0.7816164E-02  0.1300439E+00
        -11   -1    0    0    0    0  0.00000000000E+00  0.00000000000E+00  0.45593999997E+02  0.45594000000E+02  0.51100000000E-03 0. -1.
         11   -1    0    0    0    0 -0.00000000000E+00 -0.00000000000E+00 -0.45593999997E+02  0.45594000000E+02  0.51100000000E-03 0.  1.
    9900012    2    1    2    0    0  0.38898339528E+02  0.96195382715E+01 -0.68955927924E+01  0.50528861611E+02  0.30000005352E+02 0.  0.
         12    1    1    2    0    0 -0.38898339528E+02 -0.96195382715E+01  0.68955927924E+01  0.40659138389E+02  0.00000000000E+00 0. -1.
         11    1    3    3    0    0  0.25986900162E+01  0.90582703915E+00  0.52619886800E+01  0.59382015421E+01  0.51100000000E-03 0. -1.
        -11    1    3    3    0    0 -0.14647795814E+01 -0.30118866370E+01 -0.11992438035E+01  0.35574184878E+01  0.51100000000E-03 0.  1.
        -12    1    3    3    0    0  0.37764429093E+02  0.11725597869E+02 -0.10958337669E+02  0.41033241581E+02  0.00000000000E+00 0.  1.
</event>
<event>
 7    1  0.5408841E-013  0.5052884E+02  0.7816164E-02  0.1300439E+00
        -11   -1    0    0    0    0  0.00000000000E+00  0.00000000000E+00  0.45593999997E+02  0.45594000000E+02  0.51100000000E-03 0.  1.
         11   -1    0    0    0    0 -0.00000000000E+00 -0.00000000000E+00 -0.45593999997E+02  0.45594000000E+02  0.51100000000E-03 0. -1.
    9900012    2    1    2    0    0 -0.30538295937E+02  0.21332446689E+02  0.16294359605E+02  0.50528844138E+02  0.29999952242E+02 0.  0.
         12    1    1    2    0    0  0.30538295937E+02 -0.21332446689E+02 -0.16294359605E+02  0.40659155862E+02  0.00000000000E+00 0. -1.
         11    1    3    3    0    0  0.94854231205E-01 -0.10722080845E+01  0.57844928952E+01  0.58837900895E+01  0.51100000000E-03 0. -1.
        -11    1    3    3    0    0  0.19261030539E+01 -0.17367666415E+01  0.18811988745E+01  0.32039258431E+01  0.51100000000E-03 0.  1.
         12    1    3    3    0    0 -0.32559253222E+02  0.24141421415E+02  0.86286678352E+01  0.41441128205E+02  0.00000000000E+00 0. -1.
</event>
<event>
 7    1  0.5408841E-013  0.5052886E+02  0.7816164E-02  0.1300439E+00
        -11   -1    0    0    0    0  0.00000000000E+00  0.00000000000E+00  0.45593999997E+02  0.45594000000E+02  0.51100000000E-03 0. -1.
         11   -1    0    0    0    0 -0.00000000000E+00 -0.00000000000E+00 -0.45593999997E+02  0.45594000000E+02  0.51100000000E-03 0.  1.
    9900012    2    1    2    0    0 -0.16672059408E+02 -0.26620249468E+02 -0.25818020921E+02  0.50528862639E+02  0.30000008479E+02 0.  0.
         12    1    1    2    0    0  0.16672059408E+02  0.26620249468E+02  0.25818020921E+02  0.40659137361E+02  0.00000000000E+00 0. -1.
         11    1    3    3    0    0 -0.56183123707E+00 -0.15249632266E+02 -0.18590365127E+02  0.24051374481E+02  0.51100000000E-03 0. -1.
        -11    1    3    3    0    0  0.14183045815E+01 -0.72723512094E+01 -0.12799845022E+01  0.75191116886E+01  0.51100000000E-03 0.  1.
         12    1    3    3    0    0 -0.17528532752E+02 -0.40982659924E+01 -0.59476712918E+01  0.18958376470E+02  0.00000000000E+00 0. -1.
</event>
<event>
 7    1  0.5408841E-013  0.5052888E+02  0.7816164E-02  0.1300439E+00
        -11   -1    0    0    0    0  0.00000000000E+00  0.00000000000E+00  0.45593999997E+02  0.45594000000E+02  0.51100000000E-03 0.  1.
         11   -1    0    0    0    0 -0.00000000000E+00 -0.00000000000E+00 -0.45593999997E+02  0.45594000000E+02  0.51100000000E-03 0. -1.
    9900012    2    1    2    0    0 -0.17898163923E+02 -0.41162090821E+00  0.36505486386E+02  0.50528877532E+02  0.30000053747E+02 0.  0.
         12    1    1    2    0    0  0.17898163923E+02  0.41162090821E+00 -0.36505486386E+02  0.40659122468E+02  0.00000000000E+00 0. -1.
         11    1    3    3    0    0 -0.34934564292E+01  0.34999366263E+01  0.11643046919E+02  0.12649677310E+02  0.51100000000E-03 0. -1.
        -11    1    3    3    0    0 -0.17626406447E+02 -0.64732274779E+00  0.27438646609E+02  0.32618837486E+02  0.51100000000E-03 0.  1.
         12    1    3    3    0    0  0.32216989527E+01 -0.32642347867E+01 -0.25762071422E+01  0.52603627369E+01  0.00000000000E+00 0. -1.
</event>
<event>
 7    1  0.5408841E-013  0.5052885E+02  0.7816164E-02  0.1300439E+00
        -11   -1    0    0    0    0  0.00000000000E+00  0.00000000000E+00  0.45593999997E+02  0.45594000000E+02  0.51100000000E-03 0. -1.
         11   -1    0    0    0    0 -0.00000000000E+00 -0.00000000000E+00 -0.45593999997E+02  0.45594000000E+02  0.51100000000E-03 0.  1.
    9900012    2    1    2    0    0 -0.18288812463E+02 -0.12721350075E+02 -0.34012538233E+02  0.50528853844E+02  0.29999981745E+02 0.  0.
         12    1    1    2    0    0  0.18288812463E+02  0.12721350075E+02  0.34012538233E+02  0.40659146156E+02  0.00000000000E+00 0. -1.
         11    1    3    3    0    0 -0.72152217770E-01 -0.43264419278E+01  0.10911706356E+01  0.44625059456E+01  0.51100000000E-03 0. -1.
        -11    1    3    3    0    0 -0.21824340587E+02 -0.23084649004E+01 -0.30682366207E+02  0.37723181846E+02  0.51100000000E-03 0.  1.
         12    1    3    3    0    0  0.36076803417E+01 -0.60864432471E+01 -0.44213426615E+01  0.83431660525E+01  0.00000000000E+00 0. -1.
</event>
<event>
 7    1  0.5408841E-013  0.5052886E+02  0.7816164E-02  0.1300439E+00
        -11   -1    0    0    0    0  0.00000000000E+00  0.00000000000E+00  0.45593999997E+02  0.45594000000E+02  0.51100000000E-03 0.  1.
         11   -1    0    0    0    0 -0.00000000000E+00 -0.00000000000E+00 -0.45593999997E+02  0.45594000000E+02  0.51100000000E-03 0. -1.
    9900012    2    1    2    0    0  0.17971455929E+02 -0.19246921238E+02  0.30979804182E+02  0.50528862374E+02  0.30000007672E+02 0.  0.
         12    1    1    2    0    0 -0.17971455929E+02  0.19246921238E+02 -0.30979804182E+02  0.40659137626E+02  0.00000000000E+00 0. -1.
         11    1    3    3    0    0  0.15723589138E+02 -0.80828025234E+01  0.19138600765E+02  0.26054730693E+02  0.51100000000E-03 0.  1.
        -11    1    3    3    0    0  0.91952362104E+01 -0.13010871075E+01  0.41902919654E+01  0.10188412224E+02  0.51100000000E-03 0. -1.
        -12    1    3    3    0    0 -0.69473694199E+01 -0.98630316075E+01  0.76509114519E+01  0.14285719457E+02  0.00000000000E+00 0.  1.
</event>
<event>
 7    1  0.5408841E-013  0.5052885E+02  0.7816164E-02  0.1300439E+00
        -11   -1    0    0    0    0  0.00000000000E+00  0.00000000000E+00  0.45593999997E+02  0.45594000000E+02  0.51100000000E-03 0.  1.
         11   -1    0    0    0    0 -0.00000000000E+00 -0.00000000000E+00 -0.45593999997E+02  0.45594000000E+02  0.51100000000E-03 0. -1.
    9900012    2    1    2    0    0  0.36149425155E+01  0.21799912189E+02  0.34130087773E+02  0.50528845161E+02  0.29999955352E+02 0.  0.
         12    1    1    2    0    0 -0.36149425155E+01 -0.21799912189E+02 -0.34130087773E+02  0.40659154839E+02  0.00000000000E+00 0. -1.
         11    1    3    3    0    0  0.58052545827E+01  0.10385222839E+02  0.70213026687E+01  0.13814938495E+02  0.51100000000E-03 0. -1.
        -11    1    3    3    0    0  0.24900069919E+01  0.17073364595E+02  0.20865144570E+02  0.27074973160E+02  0.51100000000E-03 0.  1.
         12    1    3    3    0    0 -0.46803190590E+01 -0.56586752452E+01  0.62436405333E+01  0.96389335060E+01  0.00000000000E+00 0. -1.
</event>
<event>
 7    1  0.5408841E-013  0.5052886E+02  0.7816164E-02  0.1300439E+00
        -11   -1    0    0    0    0  0.00000000000E+00  0.00000000000E+00  0.45593999997E+02  0.45594000000E+02  0.51100000000E-03 0.  1.
         11   -1    0    0    0    0 -0.00000000000E+00 -0.00000000000E+00 -0.45593999997E+02  0.45594000000E+02  0.51100000000E-03 0. -1.
    9900012    2    1    2    0    0 -0.30401868703E+02 -0.73493737942E+01  0.25978424335E+02  0.50528862691E+02  0.30000008637E+02 0.  0.
         12    1    1    2    0    0  0.30401868703E+02  0.73493737942E+01 -0.25978424335E+02  0.40659137309E+02  0.00000000000E+00 0. -1.
         11    1    3    3    0    0  0.42643975313E+00  0.47105607131E+01 -0.67305152656E+00  0.47774712676E+01  0.51100000000E-03 0. -1.
        -11    1    3    3    0    0 -0.44226854529E+00 -0.51115123889E+01  0.67285739387E+00  0.51745432361E+01  0.51100000000E-03 0.  1.
         12    1    3    3    0    0 -0.30386039910E+02 -0.69484221184E+01  0.25978618467E+02  0.40576848188E+02  0.00000000000E+00 0. -1.
</event>
<event>
 7    1  0.5408841E-013  0.5052887E+02  0.7816164E-02  0.1300439E+00
        -11   -1    0    0    0    0  0.00000000000E+00  0.00000000000E+00  0.45593999997E+02  0.45594000000E+02  0.51100000000E-03 0.  1.
         11   -1    0    0    0    0 -0.00000000000E+00 -0.00000000000E+00 -0.45593999997E+02  0.45594000000E+02  0.51100000000E-03 0. -1.
    9900012    2    1    2    0    0 -0.73427188316E+01  0.18637130337E+02  0.35382293109E+02  0.50528870488E+02  0.30000032336E+02 0.  0.
         12    1    1    2    0    0  0.73427188316E+01 -0.18637130337E+02 -0.35382293109E+02  0.40659129512E+02  0.00000000000E+00 0. -1.
         11    1    3    3    0    0  0.30143523386E+01 -0.14018825136E+01  0.20396868362E+01  0.39002457940E+01  0.51100000000E-03 0. -1.
        -11    1    3    3    0    0 -0.62335996625E+00  0.48917643165E+01  0.27141076738E+02  0.27585430621E+02  0.51100000000E-03 0.  1.
        -12    1    3    3    0    0 -0.97337112039E+01  0.15147248534E+02  0.62015295345E+01  0.19043194074E+02  0.00000000000E+00 0.  1.
</event>
<event>
 7    1  0.5408841E-013  0.5052885E+02  0.7816164E-02  0.1300439E+00
        -11   -1    0    0    0    0  0.00000000000E+00  0.00000000000E+00  0.45593999997E+02  0.45594000000E+02  0.51100000000E-03 0.  1.
         11   -1    0    0    0    0 -0.00000000000E+00 -0.00000000000E+00 -0.45593999997E+02  0.45594000000E+02  0.51100000000E-03 0. -1.
    9900012    2    1    2    0    0  0.20456956802E+02  0.78846982584E+01  0.34241945441E+02  0.50528851266E+02  0.29999973908E+02 0.  0.
         12    1    1    2    0    0 -0.20456956802E+02 -0.78846982584E+01 -0.34241945441E+02  0.40659148734E+02  0.00000000000E+00 0. -1.
         11    1    3    3    0    0 -0.62038704168E+00  0.24985791889E+01  0.33035754326E+00  0.25955566671E+01  0.51100000000E-03 0. -1.
        -11    1    3    3    0    0 -0.11348227611E+00  0.46515127312E+01  0.24143788540E+02  0.24588045353E+02  0.51100000000E-03 0.  1.
         12    1    3    3    0    0  0.21190826119E+02  0.73460633834E+00  0.97677993569E+01  0.23345249246E+02  0.00000000000E+00 0. -1.
</event>
<event>
 7    1  0.5408841E-013  0.5052886E+02  0.7816164E-02  0.1300439E+00
        -11   -1    0    0    0    0  0.00000000000E+00  0.00000000000E+00  0.45593999997E+02  0.45594000000E+02  0.51100000000E-03 0.  1.
         11   -1    0    0    0    0 -0.00000000000E+00 -0.00000000000E+00 -0.45593999997E+02  0.45594000000E+02  0.51100000000E-03 0. -1.
    9900012    2    1    2    0    0 -0.10081507630E+02 -0.60902244308E+01  0.38915782064E+02  0.50528859288E+02  0.29999998293E+02 0.  0.
         12    1    1    2    0    0  0.10081507630E+02  0.60902244308E+01 -0.38915782064E+02  0.40659140712E+02  0.00000000000E+00 0. -1.
         11    1    3    3    0    0  0.81512518622E+00  0.78787656126E+00 -0.78491536167E+00  0.13788658133E+01  0.51100000000E-03 0. -1.
        -11    1    3    3    0    0  0.76941146111E+01  0.99281719125E+00  0.57730568361E+01  0.96702260117E+01  0.51100000000E-03 0.  1.
        -12    1    3    3    0    0 -0.18590747427E+02 -0.78709181833E+01  0.33927640590E+02  0.39479767463E+02  0.00000000000E+00 0.  1.
</event>
<event>
 7    1  0.5408841E-013  0.5052886E+02  0.7816164E-02  0.1300439E+00
        -11   -1    0    0    0    0  0.00000000000E+00  0.00000000000E+00  0.45593999997E+02  0.45594000000E+02  0.51100000000E-03 0.  1.
         11   -1    0    0    0    0 -0.00000000000E+00 -0.00000000000E+00 -0.45593999997E+02  0.45594000000E+02  0.51100000000E-03 0. -1.
    9900012    2    1    2    0    0  0.57964176474E+01  0.39815880343E+02  0.58534485572E+01  0.50528860253E+02  0.30000001224E+02 0.  0.
         12    1    1    2    0    0 -0.57964176474E+01 -0.39815880343E+02 -0.58534485572E+01  0.40659139747E+02  0.00000000000E+00 0. -1.
         11    1    3    3    0    0  0.74786954568E+01  0.13178776202E+02 -0.77069227956E+00  0.15172507860E+02  0.51100000000E-03 0. -1.
        -11    1    3    3    0    0  0.84559254164E+01  0.21872754236E+02  0.55857443712E+01  0.24106442976E+02  0.51100000000E-03 0.  1.
         12    1    3    3    0    0 -0.10138203226E+02  0.47643499050E+01  0.10383964656E+01  0.11249909417E+02  0.00000000000E+00 0. -1.
</event>
<event>
 7    1  0.5408841E-013  0.5052886E+02  0.7816164E-02  0.1300439E+00
        -11   -1    0    0    0    0  0.00000000000E+00  0.00000000000E+00  0.45593999997E+02  0.45594000000E+02  0.51100000000E-03 0.  1.
         11   -1    0    0    0    0 -0.00000000000E+00 -0.00000000000E+00 -0.45593999997E+02  0.45594000000E+02  0.51100000000E-03 0. -1.
    9900012    2    1    2    0    0  0.16311364672E+02  0.20834969387E+02  0.30870841144E+02  0.50528863268E+02  0.30000010390E+02 0.  0.
         12    1    1    2    0    0 -0.16311364672E+02 -0.20834969387E+02 -0.30870841144E+02  0.40659136732E+02  0.00000000000E+00 0. -1.
         11    1    3    3    0    0  0.38661357312E+00  0.64032968761E+01  0.10105282703E+02  0.11969478673E+02  0.51100000000E-03 0.  1.
        -11    1    3    3    0    0 -0.59050811389E+01  0.31369259272E+01  0.92579447043E+01  0.11420150084E+02  0.51100000000E-03 0. -1.
        -12    1    3    3    0    0  0.21829832238E+02  0.11294746584E+02  0.11507613736E+02  0.27139234511E+02  0.00000000000E+00 0.  1.
</event>
<event>
 7    1  0.5408841E-013  0.5052886E+02  0.7816164E-02  0.1300439E+00
        -11   -1    0    0    0    0  0.00000000000E+00  0.00000000000E+00  0.45593999997E+02  0.45594000000E+02  0.51100000000E-03 0.  1.
         11   -1    0    0    0    0 -0.00000000000E+00 -0.00000000000E+00 -0.45593999997E+02  0.45594000000E+02  0.51100000000E-03 0. -1.
    9900012    2    1    2    0    0  0.28415882907E+02 -0.81469097583E+00  0.29069569893E+02  0.50528855684E+02  0.29999987336E+02 0.  0.
         12    1    1    2    0    0 -0.28415882907E+02  0.81469097583E+00 -0.29069569893E+02  0.40659144316E+02  0.00000000000E+00 0. -1.
         11    1    3    3    0    0  0.31525235598E+02 -0.27751829249E+00  0.17915870258E+02  0.36261493396E+02  0.51100000000E-03 0. -1.
        -11    1    3    3    0    0  0.25871241891E+01 -0.78661149320E+00  0.60012578043E+01  0.65823297324E+01  0.51100000000E-03 0.  1.
         12    1    3    3    0    0 -0.56964768801E+01  0.24943880986E+00  0.51524418305E+01  0.76850325557E+01  0.00000000000E+00 0. -1.
</event>
<event>
 7    1  0.5408841E-013  0.5052886E+02  0.7816164E-02  0.1300439E+00
        -11   -1    0    0    0    0  0.00000000000E+00  0.00000000000E+00  0.45593999997E+02  0.45594000000E+02  0.51100000000E-03 0. -1.
         11   -1    0    0    0    0 -0.00000000000E+00 -0.00000000000E+00 -0.45593999997E+02  0.45594000000E+02  0.51100000000E-03 0.  1.
    9900012    2    1    2    0    0  0.32765935812E+02 -0.21256767752E+02  0.11300840055E+02  0.50528859443E+02  0.29999998762E+02 0.  0.
         12    1    1    2    0    0 -0.32765935812E+02  0.21256767752E+02 -0.11300840055E+02  0.40659140557E+02  0.00000000000E+00 0. -1.
         11    1    3    3    0    0  0.20651826691E+02 -0.25295363262E+02  0.32044300173E+01  0.32811914303E+02  0.51100000000E-03 0.  1.
        -11    1    3    3    0    0  0.52865945624E+01  0.43769281546E+01 -0.32410787726E+00  0.68709990769E+01  0.51100000000E-03 0. -1.
        -12    1    3    3    0    0  0.68275145585E+01 -0.33833264462E+00  0.84205179154E+01  0.10845946062E+02  0.00000000000E+00 0.  1.
</event>
<event>
 7    1  0.5408841E-013  0.5052886E+02  0.7816164E-02  0.1300439E+00
        -11   -1    0    0    0    0  0.00000000000E+00  0.00000000000E+00  0.45593999997E+02  0.45594000000E+02  0.51100000000E-03 0.  1.
         11   -1    0    0    0    0 -0.00000000000E+00 -0.00000000000E+00 -0.45593999997E+02  0.45594000000E+02  0.51100000000E-03 0. -1.
    9900012    2    1    2    0    0 -0.38798223870E+02  0.89976105082E+01  0.81796256547E+01  0.50528862697E+02  0.30000008654E+02 0.  0.
         12    1    1    2    0    0  0.38798223870E+02 -0.89976105082E+01 -0.81796256547E+01  0.40659137303E+02  0.00000000000E+00 0. -1.
         11    1    3    3    0    0 -0.87292929126E+01 -0.23104284678E+01  0.99841939422E+01  0.13461900438E+02  0.51100000000E-03 0. -1.
        -11    1    3    3    0    0 -0.28795454774E+02  0.12238561938E+02  0.35461199106E+01  0.31488657968E+02  0.51100000000E-03 0.  1.
         12    1    3    3    0    0 -0.12734761836E+01 -0.93052296199E+00 -0.53506881981E+01  0.55783042913E+01  0.00000000000E+00 0. -1.
</event>
<event>
 7    1  0.5408841E-013  0.5052885E+02  0.7816164E-02  0.1300439E+00
        -11   -1    0    0    0    0  0.00000000000E+00  0.00000000000E+00  0.45593999997E+02  0.45594000000E+02  0.51100000000E-03 0.  1.
         11   -1    0    0    0    0 -0.00000000000E+00 -0.00000000000E+00 -0.45593999997E+02  0.45594000000E+02  0.51100000000E-03 0. -1.
    9900012    2    1    2    0    0 -0.24307234357E+01  0.30371800547E+02  0.26922325246E+02  0.50528852424E+02  0.29999977429E+02 0.  0.
         12    1    1    2    0    0  0.24307234357E+01 -0.30371800547E+02 -0.26922325246E+02  0.40659147576E+02  0.00000000000E+00 0. -1.
         11    1    3    3    0    0 -0.46254452416E+01  0.18842653610E+02  0.16040319466E+02  0.25174037967E+02  0.51100000000E-03 0. -1.
        -11    1    3    3    0    0 -0.91418780050E+00  0.10329732193E+02  0.16107653065E+02  0.19157129066E+02  0.51100000000E-03 0.  1.
         12    1    3    3    0    0  0.31089096064E+01  0.11994147438E+01 -0.52256472845E+01  0.61976853914E+01  0.00000000000E+00 0. -1.
</event>
<event>
 7    1  0.5408841E-013  0.5052886E+02  0.7816164E-02  0.1300439E+00
        -11   -1    0    0    0    0  0.00000000000E+00  0.00000000000E+00  0.45593999997E+02  0.45594000000E+02  0.51100000000E-03 0. -1.
         11   -1    0    0    0    0 -0.00000000000E+00 -0.00000000000E+00 -0.45593999997E+02  0.45594000000E+02  0.51100000000E-03 0.  1.
    9900012    2    1    2    0    0 -0.34821436488E+02  0.60390441969E+00 -0.20982574592E+02  0.50528861099E+02  0.30000003797E+02 0.  0.
         12    1    1    2    0    0  0.34821436488E+02 -0.60390441969E+00  0.20982574592E+02  0.40659138901E+02  0.00000000000E+00 0. -1.
         11    1    3    3    0    0 -0.20905374387E+01  0.10181439708E+02 -0.71416311174E+01  0.12610906256E+02  0.51100000000E-03 0. -1.
        -11    1    3    3    0    0 -0.38836187485E+01 -0.31591093334E+01 -0.49897216656E+01  0.70682238876E+01  0.51100000000E-03 0.  1.
        -12    1    3    3    0    0 -0.28847280301E+02 -0.64184259554E+01 -0.88512218086E+01  0.30849730956E+02  0.00000000000E+00 0.  1.
</event>
<event>
 7    1  0.5408841E-013  0.5052887E+02  0.7816164E-02  0.1300439E+00
        -11   -1    0    0    0    0  0.00000000000E+00  0.00000000000E+00  0.45593999997E+02  0.45594000000E+02  0.51100000000E-03 0. -1.
         11   -1    0    0    0    0 -0.00000000000E+00 -0.00000000000E+00 -0.45593999997E+02  0.45594000000E+02  0.51100000000E-03 0.  1.
    9900012    2    1    2    0    0 -0.45057841316E+01 -0.39309717975E+02  0.93599594311E+01  0.50528869925E+02  0.30000030623E+02 0.  0.
         12    1    1    2    0    0  0.45057841316E+01  0.39309717975E+02 -0.93599594311E+01  0.40659130075E+02  0.00000000000E+00 0. -1.
         11    1    3    3    0    0  0.49273770967E+01 -0.87911529274E+01 -0.13083567689E+01  0.10162441269E+02  0.51100000000E-03 0. -1.
        -11    1    3    3    0    0 -0.15924534315E+00 -0.18626925766E+02 -0.43012932965E+01  0.19117762601E+02  0.51100000000E-03 0.  1.
         12    1    3    3    0    0 -0.92739158851E+01 -0.11891639282E+02  0.14969609497E+02  0.21248666055E+02  0.00000000000E+00 0. -1.
</event>
<event>
 7    1  0.5408841E-013  0.5052886E+02  0.7816164E-02  0.1300439E+00
        -11   -1    0    0    0    0  0.00000000000E+00  0.00000000000E+00  0.45593999997E+02  0.45594000000E+02  0.51100000000E-03 0.  1.
         11   -1    0    0    0    0 -0.00000000000E+00 -0.00000000000E+00 -0.45593999997E+02  0.45594000000E+02  0.51100000000E-03 0. -1.
    9900012    2    1    2    0    0 -0.16263013720E+02  0.37207419341E+02  0.20707979370E+01  0.50528857444E+02  0.29999992688E+02 0.  0.
         12    1    1    2    0    0  0.16263013720E+02 -0.37207419341E+02 -0.20707979370E+01  0.40659142556E+02  0.00000000000E+00 0. -1.
         11    1    3    3    0    0 -0.13383652619E+01 -0.19541442667E+01 -0.16986866868E+00  0.23746067075E+01  0.51100000000E-03 0. -1.
        -11    1    3    3    0    0 -0.21195991026E+02  0.26235767136E+02  0.11913158116E+01  0.33749144381E+02  0.51100000000E-03 0.  1.
         12    1    3    3    0    0  0.62713425687E+01  0.12925796472E+02  0.10493507941E+01  0.14405106356E+02  0.00000000000E+00 0. -1.
</event>
<event>
 7    1  0.5408841E-013  0.5052886E+02  0.7816164E-02  0.1300439E+00
        -11   -1    0    0    0    0  0.00000000000E+00  0.00000000000E+00  0.45593999997E+02  0.45594000000E+02  0.51100000000E-03 0.  1.
         11   -1    0    0    0    0 -0.00000000000E+00 -0.00000000000E+00 -0.45593999997E+02  0.45594000000E+02  0.51100000000E-03 0. -1.
    9900012    2    1    2    0    0 -0.34320870869E+02  0.10616402013E+02  0.19040370232E+02  0.50528857516E+02  0.29999992907E+02 0.  0.
         12    1    1    2    0    0  0.34320870869E+02 -0.10616402013E+02 -0.19040370232E+02  0.40659142484E+02  0.00000000000E+00 0. -1.
         11    1    3    3    0    0 -0.92082770907E+00  0.75645721344E+00 -0.15869322075E+01  0.19845667734E+01  0.51100000000E-03 0. -1.
        -11    1    3    3    0    0 -0.27209083219E+02  0.18756616194E+02  0.14448367958E+02  0.36067994089E+02  0.51100000000E-03 0.  1.
         12    1    3    3    0    0 -0.61909599409E+01 -0.88966713939E+01  0.61789344816E+01  0.12476296654E+02  0.00000000000E+00 0. -1.
</event>
<event>
 7    1  0.5408841E-013  0.5052887E+02  0.7816164E-02  0.1300439E+00
        -11   -1    0    0    0    0  0.00000000000E+00  0.00000000000E+00  0.45593999997E+02  0.45594000000E+02  0.51100000000E-03 0. -1.
         11   -1    0    0    0    0 -0.00000000000E+00 -0.00000000000E+00 -0.45593999997E+02  0.45594000000E+02  0.51100000000E-03 0.  1.
    9900012    2    1    2    0    0  0.33202508519E+02  0.40757678646E+01 -0.23111606847E+02  0.50528870315E+02  0.30000031809E+02 0.  0.
         12    1    1    2    0    0 -0.33202508519E+02 -0.40757678646E+01  0.23111606847E+02  0.40659129685E+02  0.00000000000E+00 0. -1.
         11    1    3    3    0    0 -0.15138676609E+01  0.21624421036E+01  0.67681068366E+00  0.27250732300E+01  0.51100000000E-03 0. -1.
        -11    1    3    3    0    0  0.13095067921E+01  0.59845411488E+01 -0.93615128268E+01  0.11187826575E+02  0.51100000000E-03 0.  1.
        -12    1    3    3    0    0  0.33406869388E+02 -0.40712153878E+01 -0.14426904704E+02  0.36615970510E+02  0.00000000000E+00 0.  1.
</event>
<event>
 7    1  0.5408841E-013  0.5052885E+02  0.7816164E-02  0.1300439E+00
        -11   -1    0    0    0    0  0.00000000000E+00  0.00000000000E+00  0.45593999997E+02  0.45594000000E+02  0.51100000000E-03 0.  1.
         11   -1    0    0    0    0 -0.00000000000E+00 -0.00000000000E+00 -0.45593999997E+02  0.45594000000E+02  0.51100000000E-03 0. -1.
    9900012    2    1    2    0    0  0.16172175583E+02 -0.11304252640E+02  0.35550541417E+02  0.50528851142E+02  0.29999973530E+02 0.  0.
         12    1    1    2    0    0 -0.16172175583E+02  0.11304252640E+02 -0.35550541417E+02  0.40659148858E+02  0.00000000000E+00 0. -1.
         11    1    3    3    0    0  0.14391236055E+01  0.26570887258E+01  0.59551957941E+01  0.66779903007E+01  0.51100000000E-03 0. -1.
        -11    1    3    3    0    0  0.88548945501E+01 -0.16428623320E+01  0.28803711707E+02  0.30178833021E+02  0.51100000000E-03 0.  1.
        -12    1    3    3    0    0  0.58781574276E+01 -0.12318479034E+02  0.79163391577E+00  0.13672027820E+02  0.00000000000E+00 0.  1.
</event>
<event>
 7    1  0.5408841E-013  0.5052885E+02  0.7816164E-02  0.1300439E+00
        -11   -1    0    0    0    0  0.00000000000E+00  0.00000000000E+00  0.45593999997E+02  0.45594000000E+02  0.51100000000E-03 0. -1.
         11   -1    0    0    0    0 -0.00000000000E+00 -0.00000000000E+00 -0.45593999997E+02  0.45594000000E+02  0.51100000000E-03 0.  1.
    9900012    2    1    2    0    0  0.10379029660E+02  0.18627616005E+02 -0.34618692120E+02  0.50528853688E+02  0.29999981270E+02 0.  0.
         12    1    1    2    0    0 -0.10379029660E+02 -0.18627616005E+02  0.34618692120E+02  0.40659146312E+02  0.00000000000E+00 0. -1.
         11    1    3    3    0    0  0.14967149638E+01 -0.74749948448E+01 -0.49642726821E+01  0.90972362361E+01  0.51100000000E-03 0. -1.
        -11    1    3    3    0    0  0.17281740560E+01  0.13637810587E+02 -0.19398350050E+02  0.23775458946E+02  0.51100000000E-03 0.  1.
        -12    1    3    3    0    0  0.71541406398E+01  0.12464800263E+02 -0.10256069388E+02  0.17656158506E+02  0.00000000000E+00 0.  1.
</event>
<event>
 7    1  0.5408841E-013  0.5052889E+02  0.7816164E-02  0.1300439E+00
        -11   -1    0    0    0    0  0.00000000000E+00  0.00000000000E+00  0.45593999997E+02  0.45594000000E+02  0.51100000000E-03 0.  1.
         11   -1    0    0    0    0 -0.00000000000E+00 -0.00000000000E+00 -0.45593999997E+02  0.45594000000E+02  0.51100000000E-03 0. -1.
    9900012    2    1    2    0    0 -0.14430574743E+02  0.29008668483E+02  0.24564583588E+02  0.50528891532E+02  0.30000096299E+02 0.  0.
         12    1    1    2    0    0  0.14430574743E+02 -0.29008668483E+02 -0.24564583588E+02  0.40659108468E+02  0.00000000000E+00 0. -1.
         11    1    3    3    0    0  0.61493943157E+00  0.35809788525E+01 -0.30264385650E+01  0.47287303471E+01  0.51100000000E-03 0. -1.
        -11    1    3    3    0    0  0.29545232790E+01  0.60545634482E+01 -0.10493744626E+01  0.68182206901E+01  0.51100000000E-03 0.  1.
         12    1    3    3    0    0 -0.18000037453E+02  0.19373126183E+02  0.28640396616E+02  0.38981940494E+02  0.00000000000E+00 0. -1.
</event>
<event>
 7    1  0.5408841E-013  0.5052886E+02  0.7816164E-02  0.1300439E+00
        -11   -1    0    0    0    0  0.00000000000E+00  0.00000000000E+00  0.45593999997E+02  0.45594000000E+02  0.51100000000E-03 0. -1.
         11   -1    0    0    0    0 -0.00000000000E+00 -0.00000000000E+00 -0.45593999997E+02  0.45594000000E+02  0.51100000000E-03 0.  1.
    9900012    2    1    2    0    0 -0.23248924965E+02 -0.33355177611E+02 -0.29215821311E+00  0.50528859061E+02  0.29999997602E+02 0.  0.
         12    1    1    2    0    0  0.23248924965E+02  0.33355177611E+02  0.29215821311E+00  0.40659140939E+02  0.00000000000E+00 0. -1.
         11    1    3    3    0    0 -0.11790638767E+02 -0.17761331782E+02  0.87267587018E+01  0.23035632983E+02  0.51100000000E-03 0. -1.
        -11    1    3    3    0    0 -0.41166568527E+01 -0.15107390050E+02  0.24846507900E+00  0.15660199006E+02  0.51100000000E-03 0.  1.
        -12    1    3    3    0    0 -0.73416293454E+01 -0.48645577895E+00 -0.92673819939E+01  0.11833027072E+02  0.00000000000E+00 0.  1.
</event>
<event>
 7    1  0.5408841E-013  0.5052886E+02  0.7816164E-02  0.1300439E+00
        -11   -1    0    0    0    0  0.00000000000E+00  0.00000000000E+00  0.45593999997E+02  0.45594000000E+02  0.51100000000E-03 0. -1.
         11   -1    0    0    0    0 -0.00000000000E+00 -0.00000000000E+00 -0.45593999997E+02  0.45594000000E+02  0.51100000000E-03 0.  1.
    9900012    2    1    2    0    0 -0.20929403259E+02 -0.25010845233E+02 -0.24281336210E+02  0.50528860951E+02  0.30000003347E+02 0.  0.
         12    1    1    2    0    0  0.20929403259E+02  0.25010845233E+02  0.24281336210E+02  0.40659139049E+02  0.00000000000E+00 0. -1.
         11    1    3    3    0    0 -0.32455938158E+01 -0.10993655201E+02 -0.13845934284E+02  0.17975100287E+02  0.51100000000E-03 0. -1.
        -11    1    3    3    0    0 -0.18891658159E+02 -0.17640268288E+02 -0.11910939313E+02  0.28459520179E+02  0.51100000000E-03 0.  1.
        -12    1    3    3    0    0  0.12078487154E+01  0.36230782559E+01  0.14755373865E+01  0.40942404847E+01  0.00000000000E+00 0.  1.
</event>
<event>
 7    1  0.5408841E-013  0.5052886E+02  0.7816164E-02  0.1300439E+00
        -11   -1    0    0    0    0  0.00000000000E+00  0.00000000000E+00  0.45593999997E+02  0.45594000000E+02  0.51100000000E-03 0. -1.
         11   -1    0    0    0    0 -0.00000000000E+00 -0.00000000000E+00 -0.45593999997E+02  0.45594000000E+02  0.51100000000E-03 0.  1.
    9900012    2    1    2    0    0  0.81076707764E+01 -0.23787906840E+02 -0.31961962754E+02  0.50528857113E+02  0.29999991680E+02 0.  0.
         12    1    1    2    0    0 -0.81076707764E+01  0.23787906840E+02  0.31961962754E+02  0.40659142887E+02  0.00000000000E+00 0. -1.
         11    1    3    3    0    0  0.43058449109E+01 -0.19202367282E+01 -0.21217632878E+02  0.21735122606E+02  0.51100000000E-03 0. -1.
        -11    1    3    3    0    0  0.36458147111E+00 -0.14225463599E+02 -0.13849658029E+02  0.19857234501E+02  0.51100000000E-03 0.  1.
         12    1    3    3    0    0  0.34372443944E+01 -0.76422065129E+01  0.31053281530E+01  0.89365000056E+01  0.00000000000E+00 0. -1.
</event>
<event>
 7    1  0.5408841E-013  0.5052886E+02  0.7816164E-02  0.1300439E+00
        -11   -1    0    0    0    0  0.00000000000E+00  0.00000000000E+00  0.45593999997E+02  0.45594000000E+02  0.51100000000E-03 0. -1.
         11   -1    0    0    0    0 -0.00000000000E+00 -0.00000000000E+00 -0.45593999997E+02  0.45594000000E+02  0.51100000000E-03 0.  1.
    9900012    2    1    2    0    0  0.22026280370E+02 -0.25740674811E+02 -0.22481686449E+02  0.50528860901E+02  0.30000003196E+02 0.  0.
         12    1    1    2    0    0 -0.22026280370E+02  0.25740674811E+02  0.22481686449E+02  0.40659139099E+02  0.00000000000E+00 0. -1.
         11    1    3    3    0    0  0.16695790565E+02 -0.18927840863E+02 -0.85935182265E+00  0.25253733747E+02  0.51100000000E-03 0. -1.
        -11    1    3    3    0    0  0.13952813418E+01  0.25572488263E+01 -0.52863322609E+01  0.60358628725E+01  0.51100000000E-03 0.  1.
        -12    1    3    3    0    0  0.39352084630E+01 -0.93700827738E+01 -0.16336002365E+02  0.19239264282E+02  0.00000000000E+00 0.  1.
</event>
<event>
 7    1  0.5408841E-013  0.5052886E+02  0.7816164E-02  0.1300439E+00
        -11   -1    0    0    0    0  0.00000000000E+00  0.00000000000E+00  0.45593999997E+02  0.45594000000E+02  0.51100000000E-03 0.  1.
         11   -1    0    0    0    0 -0.00000000000E+00 -0.00000000000E+00 -0.45593999997E+02  0.45594000000E+02  0.51100000000E-03 0. -1.
    9900012    2    1    2    0    0  0.16826415702E+02 -0.17888292397E+02  0.32404419834E+02  0.50528859637E+02  0.29999999354E+02 0.  0.
         12    1    1    2    0    0 -0.16826415702E+02  0.17888292397E+02 -0.32404419834E+02  0.40659140363E+02  0.00000000000E+00 0. -1.
         11    1    3    3    0    0  0.28185605420E+01  0.64410647866E+00  0.32350320607E+01  0.43387313099E+01  0.51100000000E-03 0. -1.
        -11    1    3    3    0    0  0.79180710946E+01 -0.25347083074E+02  0.23304980979E+02  0.35331184653E+02  0.51100000000E-03 0.  1.
         12    1    3    3    0    0  0.60897840656E+01  0.68146841989E+01  0.58644067935E+01  0.10858943675E+02  0.00000000000E+00 0. -1.
</event>
<event>
 7    1  0.5408841E-013  0.5052886E+02  0.7816164E-02  0.1300439E+00
        -11   -1    0    0    0    0  0.00000000000E+00  0.00000000000E+00  0.45593999997E+02  0.45594000000E+02  0.51100000000E-03 0.  1.
         11   -1    0    0    0    0 -0.00000000000E+00 -0.00000000000E+00 -0.45593999997E+02  0.45594000000E+02  0.51100000000E-03 0. -1.
    9900012    2    1    2    0    0  0.31649379107E+02  0.91671972255E+00  0.25507687554E+02  0.50528859610E+02  0.29999999271E+02 0.  0.
         12    1    1    2    0    0 -0.31649379107E+02 -0.91671972255E+00 -0.25507687554E+02  0.40659140390E+02  0.00000000000E+00 0. -1.
         11    1    3    3    0    0  0.94761646601E+01 -0.22541215290E+00  0.30768264937E+01  0.99657096505E+01  0.51100000000E-03 0. -1.
        -11    1    3    3    0    0  0.14613124361E+02  0.11779407203E+02  0.62658903972E+01  0.19787855376E+02  0.51100000000E-03 0.  1.
        -12    1    3    3    0    0  0.75600900853E+01 -0.10637275328E+02  0.16164970663E+02  0.20775294584E+02  0.00000000000E+00 0.  1.
</event>
<event>
 7    1  0.5408841E-013  0.5052887E+02  0.7816164E-02  0.1300439E+00
        -11   -1    0    0    0    0  0.00000000000E+00  0.00000000000E+00  0.45593999997E+02  0.45594000000E+02  0.51100000000E-03 0.  1.
         11   -1    0    0    0    0 -0.00000000000E+00 -0.00000000000E+00 -0.45593999997E+02  0.45594000000E+02  0.51100000000E-03 0. -1.
    9900012    2    1    2    0    0  0.28782907698E+01 -0.58574796825E+01  0.40131911389E+02  0.50528868950E+02  0.30000027660E+02 0.  0.
         12    1    1    2    0    0 -0.28782907698E+01  0.58574796825E+01 -0.40131911389E+02  0.40659131050E+02  0.00000000000E+00 0. -1.
         11    1    3    3    0    0  0.85755869338E+01  0.28157676935E+01  0.95700959778E+01  0.13155074164E+02  0.51100000000E-03 0. -1.
        -11    1    3    3    0    0  0.43867308341E+01 -0.10363694671E+02  0.17053991910E+02  0.20432528355E+02  0.51100000000E-03 0.  1.
         12    1    3    3    0    0 -0.10084026998E+02  0.16904472949E+01  0.13507823501E+02  0.16941266431E+02  0.00000000000E+00 0. -1.
</event>
<event>
 7    1  0.5408841E-013  0.5052886E+02  0.7816164E-02  0.1300439E+00
        -11   -1    0    0    0    0  0.00000000000E+00  0.00000000000E+00  0.45593999997E+02  0.45594000000E+02  0.51100000000E-03 0. -1.
         11   -1    0    0    0    0 -0.00000000000E+00 -0.00000000000E+00 -0.45593999997E+02  0.45594000000E+02  0.51100000000E-03 0.  1.
    9900012    2    1    2    0    0 -0.31425348143E+02  0.93458786279E+01 -0.24047195820E+02  0.50528861052E+02  0.30000003654E+02 0.  0.
         12    1    1    2    0    0  0.31425348143E+02 -0.93458786279E+01  0.24047195820E+02  0.40659138948E+02  0.00000000000E+00 0. -1.
         11    1    3    3    0    0 -0.13080444861E+02 -0.34684338865E+01 -0.26304950901E+01  0.13785774410E+02  0.51100000000E-03 0. -1.
        -11    1    3    3    0    0 -0.13010573726E+02  0.24665452440E+01 -0.10499815403E+01  0.13283875023E+02  0.51100000000E-03 0.  1.
         12    1    3    3    0    0 -0.53343295552E+01  0.10347767270E+02 -0.20366719189E+02  0.23459211620E+02  0.00000000000E+00 0. -1.
</event>
<event>
 7    1  0.5408841E-013  0.5052890E+02  0.7816164E-02  0.1300439E+00
        -11   -1    0    0    0    0  0.00000000000E+00  0.00000000000E+00  0.45593999997E+02  0.45594000000E+02  0.51100000000E-03 0.  1.
         11   -1    0    0    0    0 -0.00000000000E+00 -0.00000000000E+00 -0.45593999997E+02  0.45594000000E+02  0.51100000000E-03 0. -1.
    9900012    2    1    2    0    0 -0.24107180769E+02 -0.25955442219E+02 -0.19957978897E+02  0.50528904252E+02  0.30000134964E+02 0.  0.
         12    1    1    2    0    0  0.24107180769E+02  0.25955442219E+02  0.19957978897E+02  0.40659095748E+02  0.00000000000E+00 0. -1.
         11    1    3    3    0    0  0.15946884210E+01 -0.67065415632E+01 -0.43317948363E+01  0.81415709580E+01  0.51100000000E-03 0. -1.
        -11    1    3    3    0    0 -0.92546984447E+01 -0.19096849430E+02 -0.25477670850E+01  0.21373586943E+02  0.51100000000E-03 0.  1.
        -12    1    3    3    0    0 -0.16447170745E+02 -0.15205122614E+00 -0.13078416976E+02  0.21013746351E+02  0.00000000000E+00 0.  1.
</event>
<event>
 7    1  0.5408841E-013  0.5052886E+02  0.7816164E-02  0.1300439E+00
        -11   -1    0    0    0    0  0.00000000000E+00  0.00000000000E+00  0.45593999997E+02  0.45594000000E+02  0.51100000000E-03 0.  1.
         11   -1    0    0    0    0 -0.00000000000E+00 -0.00000000000E+00 -0.45593999997E+02  0.45594000000E+02  0.51100000000E-03 0. -1.
    9900012    2    1    2    0    0 -0.12917612029E+01 -0.83737897078E+01  0.39766527237E+02  0.50528859704E+02  0.29999999557E+02 0.  0.
         12    1    1    2    0    0  0.12917612029E+01  0.83737897078E+01 -0.39766527237E+02  0.40659140296E+02  0.00000000000E+00 0. -1.
         11    1    3    3    0    0  0.51981177889E+01 -0.93119207538E+01  0.84550493167E+01  0.13609561194E+02  0.51100000000E-03 0. -1.
        -11    1    3    3    0    0  0.33873635456E+01 -0.15428604678E+01 -0.27432640093E+00  0.37322788546E+01  0.51100000000E-03 0.  1.
        -12    1    3    3    0    0 -0.98772425374E+01  0.24809915139E+01  0.31585804321E+02  0.33187019656E+02  0.00000000000E+00 0.  1.
</event>
<event>
 7    1  0.5408841E-013  0.5052886E+02  0.7816164E-02  0.1300439E+00
        -11   -1    0    0    0    0  0.00000000000E+00  0.00000000000E+00  0.45593999997E+02  0.45594000000E+02  0.51100000000E-03 0.  1.
         11   -1    0    0    0    0 -0.00000000000E+00 -0.00000000000E+00 -0.45593999997E+02  0.45594000000E+02  0.51100000000E-03 0. -1.
    9900012    2    1    2    0    0  0.39682577583E+02 -0.29953374231E+01  0.83358515121E+01  0.50528862892E+02  0.30000009246E+02 0.  0.
         12    1    1    2    0    0 -0.39682577583E+02  0.29953374231E+01 -0.83358515121E+01  0.40659137108E+02  0.00000000000E+00 0. -1.
         11    1    3    3    0    0 -0.24025169382E+01  0.42518999940E+01 -0.25014890616E+01  0.54870929447E+01  0.51100000000E-03 0.  1.
        -11    1    3    3    0    0  0.23051925476E+02 -0.14664760943E+01  0.17267492468E+01  0.23162976568E+02  0.51100000000E-03 0. -1.
        -12    1    3    3    0    0  0.19033169046E+02 -0.57807613228E+01  0.91105913269E+01  0.21878793379E+02  0.00000000000E+00 0.  1.
</event>
<event>
 7    1  0.5408841E-013  0.5052886E+02  0.7816164E-02  0.1300439E+00
        -11   -1    0    0    0    0  0.00000000000E+00  0.00000000000E+00  0.45593999997E+02  0.45594000000E+02  0.51100000000E-03 0.  1.
         11   -1    0    0    0    0 -0.00000000000E+00 -0.00000000000E+00 -0.45593999997E+02  0.45594000000E+02  0.51100000000E-03 0. -1.
    9900012    2    1    2    0    0  0.12585748747E+02  0.10509544528E+02  0.37206366122E+02  0.50528864770E+02  0.30000014954E+02 0.  0.
         12    1    1    2    0    0 -0.12585748747E+02 -0.10509544528E+02 -0.37206366122E+02  0.40659135230E+02  0.00000000000E+00 0. -1.
         11    1    3    3    0    0 -0.16296335962E+01  0.12317765460E+00  0.27798544613E+01  0.32246657935E+01  0.51100000000E-03 0. -1.
        -11    1    3    3    0    0  0.78665120844E+00 -0.34098109101E+01  0.26090855674E+02  0.26324482533E+02  0.51100000000E-03 0.  1.
        -12    1    3    3    0    0  0.13428731134E+02  0.13796177784E+02  0.83356559868E+01  0.20979716443E+02  0.00000000000E+00 0.  1.
</event>
<event>
 7    1  0.5408841E-013  0.5052888E+02  0.7816164E-02  0.1300439E+00
        -11   -1    0    0    0    0  0.00000000000E+00  0.00000000000E+00  0.45593999997E+02  0.45594000000E+02  0.51100000000E-03 0. -1.
         11   -1    0    0    0    0 -0.00000000000E+00 -0.00000000000E+00 -0.45593999997E+02  0.45594000000E+02  0.51100000000E-03 0.  1.
    9900012    2    1    2    0    0 -0.22096829341E+02  0.13915848461E+02 -0.31164782760E+02  0.50528875688E+02  0.30000048142E+02 0.  0.
         12    1    1    2    0    0  0.22096829341E+02 -0.13915848461E+02  0.31164782760E+02  0.40659124312E+02  0.00000000000E+00 0. -1.
         11    1    3    3    0    0 -0.75561125944E+01 -0.13922402501E+01 -0.77690987113E+01  0.10926667630E+02  0.51100000000E-03 0. -1.
        -11    1    3    3    0    0 -0.22241916270E+01  0.14643268540E+01 -0.20708200271E+02  0.20878717399E+02  0.51100000000E-03 0.  1.
         12    1    3    3    0    0 -0.12316525120E+02  0.13843761858E+02 -0.26874837776E+01  0.18723490659E+02  0.00000000000E+00 0. -1.
</event>
<event>
 7    1  0.5408841E-013  0.5052886E+02  0.7816164E-02  0.1300439E+00
        -11   -1    0    0    0    0  0.00000000000E+00  0.00000000000E+00  0.45593999997E+02  0.45594000000E+02  0.51100000000E-03 0. -1.
         11   -1    0    0    0    0 -0.00000000000E+00 -0.00000000000E+00 -0.45593999997E+02  0.45594000000E+02  0.51100000000E-03 0.  1.
    9900012    2    1    2    0    0  0.96992169626E+01 -0.35845509333E+02  0.16558694931E+02  0.50528859246E+02  0.29999998164E+02 0.  0.
         12    1    1    2    0    0 -0.96992169626E+01  0.35845509333E+02 -0.16558694931E+02  0.40659140754E+02  0.00000000000E+00 0. -1.
         11    1    3    3    0    0 -0.17705605350E+01 -0.15180881494E+01 -0.29167149850E+01  0.37345284578E+01  0.51100000000E-03 0. -1.
        -11    1    3    3    0    0 -0.22594382635E+01 -0.23732637980E+01 -0.37450906623E+01  0.49762582983E+01  0.51100000000E-03 0.  1.
        -12    1    3    3    0    0  0.13729215761E+02 -0.31954157386E+02  0.23220500578E+02  0.41818072490E+02  0.00000000000E+00 0.  1.
</event>
<event>
 7    1  0.5408841E-013  0.5052886E+02  0.7816164E-02  0.1300439E+00
        -11   -1    0    0    0    0  0.00000000000E+00  0.00000000000E+00  0.45593999997E+02  0.45594000000E+02  0.51100000000E-03 0.  1.
         11   -1    0    0    0    0 -0.00000000000E+00 -0.00000000000E+00 -0.45593999997E+02  0.45594000000E+02  0.51100000000E-03 0. -1.
    9900012    2    1    2    0    0 -0.78918414801E+01 -0.35706541200E+02  0.17774337460E+02  0.50528864267E+02  0.30000013425E+02 0.  0.
         12    1    1    2    0    0  0.78918414801E+01  0.35706541200E+02 -0.17774337460E+02  0.40659135733E+02  0.00000000000E+00 0. -1.
         11    1    3    3    0    0  0.25104243307E+01 -0.11090150745E+02 -0.43693473045E+01  0.12181332850E+02  0.51100000000E-03 0. -1.
        -11    1    3    3    0    0  0.64084032656E+00 -0.18825077758E+02  0.13087421954E+02  0.22936321470E+02  0.51100000000E-03 0.  1.
        -12    1    3    3    0    0 -0.11043106137E+02 -0.57913126965E+01  0.90562628108E+01  0.15411209946E+02  0.00000000000E+00 0.  1.
</event>
<event>
 7    1  0.5408841E-013  0.5052888E+02  0.7816164E-02  0.1300439E+00
        -11   -1    0    0    0    0  0.00000000000E+00  0.00000000000E+00  0.45593999997E+02  0.45594000000E+02  0.51100000000E-03 0.  1.
         11   -1    0    0    0    0 -0.00000000000E+00 -0.00000000000E+00 -0.45593999997E+02  0.45594000000E+02  0.51100000000E-03 0. -1.
    9900012    2    1    2    0    0  0.57283137989E+01 -0.28541663266E+02  0.28385271394E+02  0.50528883518E+02  0.30000071942E+02 0.  0.
         12    1    1    2    0    0 -0.57283137989E+01  0.28541663266E+02 -0.28385271394E+02  0.40659116482E+02  0.00000000000E+00 0. -1.
         11    1    3    3    0    0  0.92006071868E+01 -0.17375882807E+01  0.14963670037E+02  0.17651680002E+02  0.51100000000E-03 0. -1.
        -11    1    3    3    0    0  0.27333902993E+01 -0.19759664741E+01  0.48111353704E+01  0.58756182525E+01  0.51100000000E-03 0.  1.
         12    1    3    3    0    0 -0.62056836872E+01 -0.24828108511E+02  0.86104659859E+01  0.27001585264E+02  0.00000000000E+00 0. -1.
</event>
<event>
 7    1  0.5408841E-013  0.5052886E+02  0.7816164E-02  0.1300439E+00
        -11   -1    0    0    0    0  0.00000000000E+00  0.00000000000E+00  0.45593999997E+02  0.45594000000E+02  0.51100000000E-03 0. -1.
         11   -1    0    0    0    0 -0.00000000000E+00 -0.00000000000E+00 -0.45593999997E+02  0.45594000000E+02  0.51100000000E-03 0.  1.
    9900012    2    1    2    0    0 -0.18000560342E+02 -0.26320900810E+02 -0.25226084830E+02  0.50528863906E+02  0.30000012327E+02 0.  0.
         12    1    1    2    0    0  0.18000560342E+02  0.26320900810E+02  0.25226084830E+02  0.40659136094E+02  0.00000000000E+00 0. -1.
         11    1    3    3    0    0 -0.50526639730E+01 -0.14681192054E+02 -0.82466405018E+00  0.15548211614E+02  0.51100000000E-03 0. -1.
        -11    1    3    3    0    0 -0.86103316635E+01 -0.13852558740E+02 -0.85854794066E+01  0.18432082137E+02  0.51100000000E-03 0.  1.
        -12    1    3    3    0    0 -0.43375647056E+01  0.22128499837E+01 -0.15815941374E+02  0.16548570155E+02  0.00000000000E+00 0.  1.
</event>
<event>
 7    1  0.5408841E-013  0.5052886E+02  0.7816164E-02  0.1300439E+00
        -11   -1    0    0    0    0  0.00000000000E+00  0.00000000000E+00  0.45593999997E+02  0.45594000000E+02  0.51100000000E-03 0. -1.
         11   -1    0    0    0    0 -0.00000000000E+00 -0.00000000000E+00 -0.45593999997E+02  0.45594000000E+02  0.51100000000E-03 0.  1.
    9900012    2    1    2    0    0 -0.22057682705E+02  0.24948866502E+02 -0.23327630637E+02  0.50528860103E+02  0.30000000769E+02 0.  0.
         12    1    1    2    0    0  0.22057682705E+02 -0.24948866502E+02  0.23327630637E+02  0.40659139897E+02  0.00000000000E+00 0. -1.
         11    1    3    3    0    0 -0.23756489139E+01  0.87581835441E+00  0.16576333243E+01  0.30263036945E+01  0.51100000000E-03 0. -1.
        -11    1    3    3    0    0 -0.15824270615E+02  0.58264104894E+01 -0.23320420798E+02  0.28778405552E+02  0.51100000000E-03 0.  1.
        -12    1    3    3    0    0 -0.38577631756E+01  0.18246637658E+02 -0.16648431637E+01  0.18724150856E+02  0.00000000000E+00 0.  1.
</event>
<event>
 7    1  0.5408841E-013  0.5052886E+02  0.7816164E-02  0.1300439E+00
        -11   -1    0    0    0    0  0.00000000000E+00  0.00000000000E+00  0.45593999997E+02  0.45594000000E+02  0.51100000000E-03 0.  1.
         11   -1    0    0    0    0 -0.00000000000E+00 -0.00000000000E+00 -0.45593999997E+02  0.45594000000E+02  0.51100000000E-03 0. -1.
    9900012    2    1    2    0    0 -0.18725555668E+02  0.89102092068E+01  0.34973238720E+02  0.50528859702E+02  0.29999999550E+02 0.  0.
         12    1    1    2    0    0  0.18725555668E+02 -0.89102092068E+01 -0.34973238720E+02  0.40659140298E+02  0.00000000000E+00 0. -1.
         11    1    3    3    0    0 -0.97932002423E+01  0.82400565091E+01  0.12216902512E+02  0.17693445382E+02  0.51100000000E-03 0.  1.
        -11    1    3    3    0    0 -0.15141970984E+01  0.10893627845E+02  0.11562116062E+02  0.15957645458E+02  0.51100000000E-03 0. -1.
         12    1    3    3    0    0 -0.74181583277E+01 -0.10223475147E+02  0.11194220147E+02  0.16877768862E+02  0.00000000000E+00 0. -1.
</event>
<event>
 7    1  0.5408841E-013  0.5052886E+02  0.7816164E-02  0.1300439E+00
        -11   -1    0    0    0    0  0.00000000000E+00  0.00000000000E+00  0.45593999997E+02  0.45594000000E+02  0.51100000000E-03 0.  1.
         11   -1    0    0    0    0 -0.00000000000E+00 -0.00000000000E+00 -0.45593999997E+02  0.45594000000E+02  0.51100000000E-03 0. -1.
    9900012    2    1    2    0    0 -0.35789603850E+02  0.16308262923E+01  0.19225256873E+02  0.50528857854E+02  0.29999993934E+02 0.  0.
         12    1    1    2    0    0  0.35789603850E+02 -0.16308262923E+01 -0.19225256873E+02  0.40659142146E+02  0.00000000000E+00 0. -1.
         11    1    3    3    0    0 -0.16500819282E+01 -0.19229455193E+01  0.58749236175E+01  0.63980635831E+01  0.51100000000E-03 0. -1.
        -11    1    3    3    0    0 -0.19872937621E+02 -0.21220615919E+01  0.19186510780E+02  0.27704855012E+02  0.51100000000E-03 0.  1.
         12    1    3    3    0    0 -0.14266584301E+02  0.56758334035E+01 -0.58361775240E+01  0.16425939259E+02  0.00000000000E+00 0. -1.
</event>
<event>
 7    1  0.5408841E-013  0.5052888E+02  0.7816164E-02  0.1300439E+00
        -11   -1    0    0    0    0  0.00000000000E+00  0.00000000000E+00  0.45593999997E+02  0.45594000000E+02  0.51100000000E-03 0.  1.
         11   -1    0    0    0    0 -0.00000000000E+00 -0.00000000000E+00 -0.45593999997E+02  0.45594000000E+02  0.51100000000E-03 0. -1.
    9900012    2    1    2    0    0  0.34080534281E+02  0.51551247610E+01  0.21566322504E+02  0.50528875630E+02  0.30000047964E+02 0.  0.
         12    1    1    2    0    0 -0.34080534281E+02 -0.51551247610E+01 -0.21566322504E+02  0.40659124370E+02  0.00000000000E+00 0. -1.
         11    1    3    3    0    0  0.11499559340E+02 -0.29515173803E+01  0.12143073997E+02  0.16982507654E+02  0.51100000000E-03 0. -1.
        -11    1    3    3    0    0  0.11840847736E+02 -0.27861515325E+01  0.13034406297E+02  0.17828742615E+02  0.51100000000E-03 0.  1.
         12    1    3    3    0    0  0.10740127206E+02  0.10892793674E+02 -0.36111577890E+01  0.15717625361E+02  0.00000000000E+00 0. -1.
</event>
<event>
 7    1  0.5408841E-013  0.5052888E+02  0.7816164E-02  0.1300439E+00
        -11   -1    0    0    0    0  0.00000000000E+00  0.00000000000E+00  0.45593999997E+02  0.45594000000E+02  0.51100000000E-03 0.  1.
         11   -1    0    0    0    0 -0.00000000000E+00 -0.00000000000E+00 -0.45593999997E+02  0.45594000000E+02  0.51100000000E-03 0. -1.
    9900012    2    1    2    0    0  0.65800166955E+01  0.39920642324E+02 -0.40261290276E+01  0.50528880258E+02  0.30000062033E+02 0.  0.
         12    1    1    2    0    0 -0.65800166955E+01 -0.39920642324E+02  0.40261290276E+01  0.40659119742E+02  0.00000000000E+00 0. -1.
         11    1    3    3    0    0  0.55935427302E+01  0.23562594285E+02  0.41944943964E+01  0.24577985134E+02  0.51100000000E-03 0. -1.
        -11    1    3    3    0    0  0.67534581828E+01  0.80470543069E+01  0.29191383052E+01  0.10903469592E+02  0.51100000000E-03 0.  1.
         12    1    3    3    0    0 -0.57669842174E+01  0.83109937312E+01 -0.11139761729E+02  0.15047425532E+02  0.00000000000E+00 0. -1.
</event>
<event>
 7    1  0.5408841E-013  0.5052885E+02  0.7816164E-02  0.1300439E+00
        -11   -1    0    0    0    0  0.00000000000E+00  0.00000000000E+00  0.45593999997E+02  0.45594000000E+02  0.51100000000E-03 0.  1.
         11   -1    0    0    0    0 -0.00000000000E+00 -0.00000000000E+00 -0.45593999997E+02  0.45594000000E+02  0.51100000000E-03 0. -1.
    9900012    2    1    2    0    0  0.20452513659E+02 -0.34361910425E+02  0.73566387641E+01  0.50528851743E+02  0.29999975359E+02 0.  0.
         12    1    1    2    0    0 -0.20452513659E+02  0.34361910425E+02 -0.73566387641E+01  0.40659148257E+02  0.00000000000E+00 0. -1.
         11    1    3    3    0    0  0.15554608318E+02 -0.89446493093E+01  0.29319680294E+00  0.17945432729E+02  0.51100000000E-03 0. -1.
        -11    1    3    3    0    0  0.83553239274E+01 -0.31265808636E+01 -0.81969736744E-01  0.89215281834E+01  0.51100000000E-03 0.  1.
        -12    1    3    3    0    0 -0.34574185860E+01 -0.22290680252E+02  0.71454116979E+01  0.23661890831E+02  0.00000000000E+00 0.  1.
</event>
<event>
 7    1  0.5408841E-013  0.5052885E+02  0.7816164E-02  0.1300439E+00
        -11   -1    0    0    0    0  0.00000000000E+00  0.00000000000E+00  0.45593999997E+02  0.45594000000E+02  0.51100000000E-03 0. -1.
         11   -1    0    0    0    0 -0.00000000000E+00 -0.00000000000E+00 -0.45593999997E+02  0.45594000000E+02  0.51100000000E-03 0.  1.
    9900012    2    1    2    0    0 -0.12871457927E+02  0.12638885950E+02 -0.36438311397E+02  0.50528850910E+02  0.29999972826E+02 0.  0.
         12    1    1    2    0    0  0.12871457927E+02 -0.12638885950E+02  0.36438311397E+02  0.40659149090E+02  0.00000000000E+00 0. -1.
         11    1    3    3    0    0 -0.15344444738E+02  0.26859638063E+01 -0.10341970796E+02  0.18698201680E+02  0.51100000000E-03 0. -1.
        -11    1    3    3    0    0  0.54572924837E+01 -0.51437392036E+00 -0.28857251560E+01  0.61946776930E+01  0.51100000000E-03 0.  1.
        -12    1    3    3    0    0 -0.29843056730E+01  0.10467296064E+02 -0.23210615446E+02  0.25635971537E+02  0.00000000000E+00 0.  1.
</event>
<event>
 7    1  0.5408841E-013  0.5052886E+02  0.7816164E-02  0.1300439E+00
        -11   -1    0    0    0    0  0.00000000000E+00  0.00000000000E+00  0.45593999997E+02  0.45594000000E+02  0.51100000000E-03 0. -1.
         11   -1    0    0    0    0 -0.00000000000E+00 -0.00000000000E+00 -0.45593999997E+02  0.45594000000E+02  0.51100000000E-03 0.  1.
    9900012    2    1    2    0    0 -0.12211748879E+02 -0.11065121579E+02 -0.37169904788E+02  0.50528861443E+02  0.30000004842E+02 0.  0.
         12    1    1    2    0    0  0.12211748879E+02  0.11065121579E+02  0.37169904788E+02  0.40659138557E+02  0.00000000000E+00 0. -1.
         11    1    3    3    0    0  0.34196546346E+01 -0.30747223557E+01 -0.25945108797E+02  0.26349509030E+02  0.51100000000E-03 0. -1.
        -11    1    3    3    0    0  0.18933874756E+00 -0.19768663331E+01 -0.62207017996E+01  0.65300061869E+01  0.51100000000E-03 0.  1.
         12    1    3    3    0    0 -0.15820742261E+02 -0.60135328907E+01 -0.50040941915E+01  0.17649346225E+02  0.00000000000E+00 0. -1.
</event>
<event>
 7    1  0.5408841E-013  0.5052886E+02  0.7816164E-02  0.1300439E+00
        -11   -1    0    0    0    0  0.00000000000E+00  0.00000000000E+00  0.45593999997E+02  0.45594000000E+02  0.51100000000E-03 0. -1.
         11   -1    0    0    0    0 -0.00000000000E+00 -0.00000000000E+00 -0.45593999997E+02  0.45594000000E+02  0.51100000000E-03 0.  1.
    9900012    2    1    2    0    0 -0.35085595910E+02 -0.68364214870E+00 -0.20535326657E+02  0.50528855299E+02  0.29999986165E+02 0.  0.
         12    1    1    2    0    0  0.35085595910E+02  0.68364214870E+00  0.20535326657E+02  0.40659144701E+02  0.00000000000E+00 0. -1.
         11    1    3    3    0    0 -0.10893682488E+02  0.98884115583E+01 -0.94185699008E+01  0.17468899809E+02  0.51100000000E-03 0. -1.
        -11    1    3    3    0    0 -0.15253365449E+02  0.12021326075E+01 -0.99066458301E+01  0.18227778586E+02  0.51100000000E-03 0.  1.
         12    1    3    3    0    0 -0.89385479730E+01 -0.11774186314E+02 -0.12101109256E+01  0.14832176903E+02  0.00000000000E+00 0. -1.
</event>
<event>
 7    1  0.5408841E-013  0.5052886E+02  0.7816164E-02  0.1300439E+00
        -11   -1    0    0    0    0  0.00000000000E+00  0.00000000000E+00  0.45593999997E+02  0.45594000000E+02  0.51100000000E-03 0.  1.
         11   -1    0    0    0    0 -0.00000000000E+00 -0.00000000000E+00 -0.45593999997E+02  0.45594000000E+02  0.51100000000E-03 0. -1.
    9900012    2    1    2    0    0  0.39677052942E+02 -0.59540115560E+01  0.65914214442E+01  0.50528860555E+02  0.30000002143E+02 0.  0.
         12    1    1    2    0    0 -0.39677052942E+02  0.59540115560E+01 -0.65914214442E+01  0.40659139445E+02  0.00000000000E+00 0. -1.
         11    1    3    3    0    0  0.23500784233E+02  0.63759455200E+01  0.41918518074E+01  0.24708524090E+02  0.51100000000E-03 0. -1.
        -11    1    3    3    0    0  0.19154010186E+02 -0.96703223419E+01  0.66439810428E+00  0.21467013428E+02  0.51100000000E-03 0.  1.
        -12    1    3    3    0    0 -0.29777414774E+01 -0.26596347340E+01  0.17351715325E+01  0.43533230378E+01  0.00000000000E+00 0.  1.
</event>
<event>
 7    1  0.5408841E-013  0.5052891E+02  0.7816164E-02  0.1300439E+00
        -11   -1    0    0    0    0  0.00000000000E+00  0.00000000000E+00  0.45593999997E+02  0.45594000000E+02  0.51100000000E-03 0.  1.
         11   -1    0    0    0    0 -0.00000000000E+00 -0.00000000000E+00 -0.45593999997E+02  0.45594000000E+02  0.51100000000E-03 0. -1.
    9900012    2    1    2    0    0 -0.26798151351E+02 -0.29417755013E+02  0.83436390253E+01  0.50528910758E+02  0.30000154739E+02 0.  0.
         12    1    1    2    0    0  0.26798151351E+02  0.29417755013E+02 -0.83436390253E+01  0.40659089242E+02  0.00000000000E+00 0. -1.
         11    1    3    3    0    0 -0.25990690445E+01 -0.13169193276E+02  0.16980151249E+01  0.13530190947E+02  0.51100000000E-03 0. -1.
        -11    1    3    3    0    0 -0.23878431123E+02 -0.19336980993E+02  0.12235711019E+01  0.30750535496E+02  0.51100000000E-03 0.  1.
         12    1    3    3    0    0 -0.32065118332E+00  0.30884192554E+01  0.54220527985E+01  0.62481843145E+01  0.00000000000E+00 0. -1.
</event>
<event>
 7    1  0.5408841E-013  0.5052886E+02  0.7816164E-02  0.1300439E+00
        -11   -1    0    0    0    0  0.00000000000E+00  0.00000000000E+00  0.45593999997E+02  0.45594000000E+02  0.51100000000E-03 0.  1.
         11   -1    0    0    0    0 -0.00000000000E+00 -0.00000000000E+00 -0.45593999997E+02  0.45594000000E+02  0.51100000000E-03 0. -1.
    9900012    2    1    2    0    0 -0.24581616992E+02  0.32180713276E+02  0.36484746539E+01  0.50528861197E+02  0.30000004095E+02 0.  0.
         12    1    1    2    0    0  0.24581616992E+02 -0.32180713276E+02 -0.36484746539E+01  0.40659138803E+02  0.00000000000E+00 0. -1.
         11    1    3    3    0    0 -0.19667614463E+01  0.37088902205E+01 -0.61775459404E+01  0.74690087268E+01  0.51100000000E-03 0. -1.
        -11    1    3    3    0    0 -0.19567932967E+02  0.30801415473E+02  0.49034921638E+01  0.36819497979E+02  0.51100000000E-03 0.  1.
         12    1    3    3    0    0 -0.30469225789E+01 -0.23295924178E+01  0.49225284305E+01  0.62403544919E+01  0.00000000000E+00 0. -1.
</event>
<event>
 7    1  0.5408841E-013  0.5052886E+02  0.7816164E-02  0.1300439E+00
        -11   -1    0    0    0    0  0.00000000000E+00  0.00000000000E+00  0.45593999997E+02  0.45594000000E+02  0.51100000000E-03 0. -1.
         11   -1    0    0    0    0 -0.00000000000E+00 -0.00000000000E+00 -0.45593999997E+02  0.45594000000E+02  0.51100000000E-03 0.  1.
    9900012    2    1    2    0    0 -0.39048896803E+02  0.13425051529E+01 -0.11249303627E+02  0.50528862113E+02  0.30000006879E+02 0.  0.
         12    1    1    2    0    0  0.39048896803E+02 -0.13425051529E+01  0.11249303627E+02  0.40659137887E+02  0.00000000000E+00 0. -1.
         11    1    3    3    0    0 -0.12532944752E+02 -0.83365114995E+01 -0.85344400161E+01  0.17303433035E+02  0.51100000000E-03 0. -1.
        -11    1    3    3    0    0 -0.54904290253E+01 -0.46507468234E+01 -0.29585206044E+01  0.77799165372E+01  0.51100000000E-03 0.  1.
         12    1    3    3    0    0 -0.21025523025E+02  0.14329763476E+02  0.24365699349E+00  0.25445512541E+02  0.00000000000E+00 0. -1.
</event>
<event>
 7    1  0.5408841E-013  0.5052886E+02  0.7816164E-02  0.1300439E+00
        -11   -1    0    0    0    0  0.00000000000E+00  0.00000000000E+00  0.45593999997E+02  0.45594000000E+02  0.51100000000E-03 0.  1.
         11   -1    0    0    0    0 -0.00000000000E+00 -0.00000000000E+00 -0.45593999997E+02  0.45594000000E+02  0.51100000000E-03 0. -1.
    9900012    2    1    2    0    0  0.15040131164E+02  0.20266296534E+02  0.31878475443E+02  0.50528861824E+02  0.30000006001E+02 0.  0.
         12    1    1    2    0    0 -0.15040131164E+02 -0.20266296534E+02 -0.31878475443E+02  0.40659138176E+02  0.00000000000E+00 0. -1.
         11    1    3    3    0    0  0.17031175064E+02  0.11838953756E+02  0.19528916319E+02  0.28488599877E+02  0.51100000000E-03 0.  1.
        -11    1    3    3    0    0  0.67729465182E+01  0.57256096847E+01  0.43850159251E+01  0.98936229827E+01  0.51100000000E-03 0. -1.
         12    1    3    3    0    0 -0.87639904183E+01  0.27017330930E+01  0.79645431992E+01  0.12146638964E+02  0.00000000000E+00 0. -1.
</event>
<event>
 7    1  0.5408841E-013  0.5052886E+02  0.7816164E-02  0.1300439E+00
        -11   -1    0    0    0    0  0.00000000000E+00  0.00000000000E+00  0.45593999997E+02  0.45594000000E+02  0.51100000000E-03 0.  1.
         11   -1    0    0    0    0 -0.00000000000E+00 -0.00000000000E+00 -0.45593999997E+02  0.45594000000E+02  0.51100000000E-03 0. -1.
    9900012    2    1    2    0    0 -0.26034944206E+02 -0.13866830988E+02  0.27983186036E+02  0.50528855615E+02  0.29999987126E+02 0.  0.
         12    1    1    2    0    0  0.26034944206E+02  0.13866830988E+02 -0.27983186036E+02  0.40659144385E+02  0.00000000000E+00 0. -1.
         11    1    3    3    0    0 -0.18918542757E+01 -0.17875832524E+01 -0.38233544048E+01  0.46252141194E+01  0.51100000000E-03 0. -1.
        -11    1    3    3    0    0 -0.90631611613E+01 -0.61492700802E+01  0.87812457898E+00  0.10987516361E+02  0.51100000000E-03 0.  1.
        -12    1    3    3    0    0 -0.15079928769E+02 -0.59299776553E+01  0.30928415861E+02  0.34916125134E+02  0.00000000000E+00 0.  1.
</event>
<event>
 7    1  0.5408841E-013  0.5052887E+02  0.7816164E-02  0.1300439E+00
        -11   -1    0    0    0    0  0.00000000000E+00  0.00000000000E+00  0.45593999997E+02  0.45594000000E+02  0.51100000000E-03 0.  1.
         11   -1    0    0    0    0 -0.00000000000E+00 -0.00000000000E+00 -0.45593999997E+02  0.45594000000E+02  0.51100000000E-03 0. -1.
    9900012    2    1    2    0    0  0.12028592925E+01  0.37636021527E+02 -0.15337779278E+02  0.50528874824E+02  0.30000045516E+02 0.  0.
         12    1    1    2    0    0 -0.12028592925E+01 -0.37636021527E+02  0.15337779278E+02  0.40659125176E+02  0.00000000000E+00 0. -1.
         11    1    3    3    0    0 -0.84172382196E+01  0.11979100032E+02 -0.86636320234E+01  0.17011973928E+02  0.51100000000E-03 0. -1.
        -11    1    3    3    0    0  0.42533005777E+01  0.23494171667E+02  0.10105106268E+01  0.23897443380E+02  0.51100000000E-03 0.  1.
         12    1    3    3    0    0  0.53667969344E+01  0.21627498281E+01 -0.76846578815E+01  0.96194575164E+01  0.00000000000E+00 0. -1.
</event>
<event>
 7    1  0.5408841E-013  0.5052887E+02  0.7816164E-02  0.1300439E+00
        -11   -1    0    0    0    0  0.00000000000E+00  0.00000000000E+00  0.45593999997E+02  0.45594000000E+02  0.51100000000E-03 0.  1.
         11   -1    0    0    0    0 -0.00000000000E+00 -0.00000000000E+00 -0.45593999997E+02  0.45594000000E+02  0.51100000000E-03 0. -1.
    9900012    2    1    2    0    0 -0.20690686193E+02 -0.33896997792E+02  0.87209000186E+01  0.50528867551E+02  0.30000023407E+02 0.  0.
         12    1    1    2    0    0  0.20690686193E+02  0.33896997792E+02 -0.87209000186E+01  0.40659132449E+02  0.00000000000E+00 0. -1.
         11    1    3    3    0    0  0.35927548575E+00 -0.69373620341E+01 -0.51461292308E+01  0.86451557064E+01  0.51100000000E-03 0. -1.
        -11    1    3    3    0    0  0.29910832999E+01 -0.58610657662E+01 -0.92119902656E+00  0.66443418884E+01  0.51100000000E-03 0.  1.
         12    1    3    3    0    0 -0.24041044978E+02 -0.21098569991E+02  0.14788228276E+02  0.35239369956E+02  0.00000000000E+00 0. -1.
</event>
<event>
 7    1  0.5408841E-013  0.5052886E+02  0.7816164E-02  0.1300439E+00
        -11   -1    0    0    0    0  0.00000000000E+00  0.00000000000E+00  0.45593999997E+02  0.45594000000E+02  0.51100000000E-03 0. -1.
         11   -1    0    0    0    0 -0.00000000000E+00 -0.00000000000E+00 -0.45593999997E+02  0.45594000000E+02  0.51100000000E-03 0.  1.
    9900012    2    1    2    0    0 -0.10508722695E+02 -0.19135289389E+02 -0.34301216118E+02  0.50528856135E+02  0.29999988708E+02 0.  0.
         12    1    1    2    0    0  0.10508722695E+02  0.19135289389E+02  0.34301216118E+02  0.40659143865E+02  0.00000000000E+00 0. -1.
         11    1    3    3    0    0  0.29676970331E+01 -0.65204568094E+01 -0.13802747794E+01  0.72958029998E+01  0.51100000000E-03 0. -1.
        -11    1    3    3    0    0  0.11546136281E+00 -0.13816940631E+02 -0.12256193880E+02  0.18469852961E+02  0.51100000000E-03 0.  1.
        -12    1    3    3    0    0 -0.13591881091E+02  0.12021080511E+01 -0.20664747458E+02  0.24763200174E+02  0.00000000000E+00 0.  1.
</event>
<event>
 7    1  0.5408841E-013  0.5052886E+02  0.7816164E-02  0.1300439E+00
        -11   -1    0    0    0    0  0.00000000000E+00  0.00000000000E+00  0.45593999997E+02  0.45594000000E+02  0.51100000000E-03 0.  1.
         11   -1    0    0    0    0 -0.00000000000E+00 -0.00000000000E+00 -0.45593999997E+02  0.45594000000E+02  0.51100000000E-03 0. -1.
    9900012    2    1    2    0    0  0.30412777337E+02  0.12353984147E+02  0.23991824807E+02  0.50528860717E+02  0.30000002636E+02 0.  0.
         12    1    1    2    0    0 -0.30412777337E+02 -0.12353984147E+02 -0.23991824807E+02  0.40659139283E+02  0.00000000000E+00 0. -1.
         11    1    3    3    0    0  0.21168524885E+02  0.16969700511E+02  0.10576766980E+02  0.29119498301E+02  0.51100000000E-03 0. -1.
        -11    1    3    3    0    0  0.49158894171E+01  0.33333727122E+01  0.10201724215E+02  0.11804766818E+02  0.51100000000E-03 0.  1.
         12    1    3    3    0    0  0.43283630345E+01 -0.79490890770E+01  0.32133336122E+01  0.96045955988E+01  0.00000000000E+00 0. -1.
</event>
<event>
 7    1  0.5408841E-013  0.5052887E+02  0.7816164E-02  0.1300439E+00
        -11   -1    0    0    0    0  0.00000000000E+00  0.00000000000E+00  0.45593999997E+02  0.45594000000E+02  0.51100000000E-03 0.  1.
         11   -1    0    0    0    0 -0.00000000000E+00 -0.00000000000E+00 -0.45593999997E+02  0.45594000000E+02  0.51100000000E-03 0. -1.
    9900012    2    1    2    0    0  0.19953751559E+02 -0.16591036181E+02  0.31300963152E+02  0.50528868466E+02  0.30000026190E+02 0.  0.
         12    1    1    2    0    0 -0.19953751559E+02  0.16591036181E+02 -0.31300963152E+02  0.40659131534E+02  0.00000000000E+00 0. -1.
         11    1    3    3    0    0  0.91305852616E+01 -0.16592000521E+02  0.75116430550E+01  0.20373680329E+02  0.51100000000E-03 0. -1.
        -11    1    3    3    0    0  0.78776193062E+01 -0.49200424857E+01  0.50794897737E+01  0.10586072011E+02  0.51100000000E-03 0.  1.
        -12    1    3    3    0    0  0.29455469911E+01  0.49210068251E+01  0.18709830323E+02  0.19569116127E+02  0.00000000000E+00 0.  1.
</event>
<event>
 7    1  0.5408841E-013  0.5052886E+02  0.7816164E-02  0.1300439E+00
        -11   -1    0    0    0    0  0.00000000000E+00  0.00000000000E+00  0.45593999997E+02  0.45594000000E+02  0.51100000000E-03 0. -1.
         11   -1    0    0    0    0 -0.00000000000E+00 -0.00000000000E+00 -0.45593999997E+02  0.45594000000E+02  0.51100000000E-03 0.  1.
    9900012    2    1    2    0    0 -0.33570284922E+02 -0.14640201521E+02 -0.17659722408E+02  0.50528864177E+02  0.30000013153E+02 0.  0.
         12    1    1    2    0    0  0.33570284922E+02  0.14640201521E+02  0.17659722408E+02  0.40659135823E+02  0.00000000000E+00 0. -1.
         11    1    3    3    0    0 -0.10411727461E+02 -0.53584382541E+01 -0.11637175157E+02  0.16508809017E+02  0.51100000000E-03 0. -1.
        -11    1    3    3    0    0 -0.21080805949E+02 -0.13898721919E+02 -0.10418310334E+02  0.27315124765E+02  0.51100000000E-03 0.  1.
         12    1    3    3    0    0 -0.20777515119E+01  0.46169586521E+01  0.43957630824E+01  0.67049303962E+01  0.00000000000E+00 0. -1.
</event>
<event>
 7    1  0.5408841E-013  0.5052886E+02  0.7816164E-02  0.1300439E+00
        -11   -1    0    0    0    0  0.00000000000E+00  0.00000000000E+00  0.45593999997E+02  0.45594000000E+02  0.51100000000E-03 0.  1.
         11   -1    0    0    0    0 -0.00000000000E+00 -0.00000000000E+00 -0.45593999997E+02  0.45594000000E+02  0.51100000000E-03 0. -1.
    9900012    2    1    2    0    0  0.68219839286E+01 -0.19724754580E+02  0.34893560859E+02  0.50528855919E+02  0.29999988051E+02 0.  0.
         12    1    1    2    0    0 -0.68219839286E+01  0.19724754580E+02 -0.34893560859E+02  0.40659144081E+02  0.00000000000E+00 0. -1.
         11    1    3    3    0    0  0.33665218620E+00  0.25787687854E+01  0.17618554699E+00  0.26066117377E+01  0.51100000000E-03 0. -1.
        -11    1    3    3    0    0  0.43649396909E+01 -0.29392285198E+01 -0.25674914988E+01  0.58552348932E+01  0.51100000000E-03 0.  1.
        -12    1    3    3    0    0  0.21203920515E+01 -0.19364294845E+02  0.37284866811E+02  0.42067009288E+02  0.00000000000E+00 0.  1.
</event>
<event>
 7    1  0.5408841E-013  0.5052885E+02  0.7816164E-02  0.1300439E+00
        -11   -1    0    0    0    0  0.00000000000E+00  0.00000000000E+00  0.45593999997E+02  0.45594000000E+02  0.51100000000E-03 0.  1.
         11   -1    0    0    0    0 -0.00000000000E+00 -0.00000000000E+00 -0.45593999997E+02  0.45594000000E+02  0.51100000000E-03 0. -1.
    9900012    2    1    2    0    0  0.33798844733E+02 -0.14857650817E+01  0.22552100684E+02  0.50528847914E+02  0.29999963718E+02 0.  0.
         12    1    1    2    0    0 -0.33798844733E+02  0.14857650817E+01 -0.22552100684E+02  0.40659152086E+02  0.00000000000E+00 0. -1.
         11    1    3    3    0    0  0.11971957250E+02  0.23034025840E+01  0.10651421348E+02  0.16189076590E+02  0.51100000000E-03 0.  1.
        -11    1    3    3    0    0  0.69118307026E+01 -0.11515955800E+02 -0.53216793855E+00  0.13441497113E+02  0.51100000000E-03 0. -1.
         12    1    3    3    0    0  0.14915056780E+02  0.77267881345E+01  0.12432847275E+02  0.20898274211E+02  0.00000000000E+00 0. -1.
</event>
<event>
 7    1  0.5408841E-013  0.5052887E+02  0.7816164E-02  0.1300439E+00
        -11   -1    0    0    0    0  0.00000000000E+00  0.00000000000E+00  0.45593999997E+02  0.45594000000E+02  0.51100000000E-03 0. -1.
         11   -1    0    0    0    0 -0.00000000000E+00 -0.00000000000E+00 -0.45593999997E+02  0.45594000000E+02  0.51100000000E-03 0.  1.
    9900012    2    1    2    0    0  0.35611388109E+02 -0.19272616737E+02 -0.36823992001E+01  0.50528870855E+02  0.30000033452E+02 0.  0.
         12    1    1    2    0    0 -0.35611388109E+02  0.19272616737E+02  0.36823992001E+01  0.40659129145E+02  0.00000000000E+00 0. -1.
         11    1    3    3    0    0  0.17026868283E+02 -0.68664171319E+00  0.32281395419E+01  0.17343777142E+02  0.51100000000E-03 0. -1.
        -11    1    3    3    0    0  0.14197168107E+02 -0.16901240004E+01 -0.65469987585E+01  0.15725116674E+02  0.51100000000E-03 0.  1.
        -12    1    3    3    0    0  0.43873517185E+01 -0.16895851023E+02 -0.36353998355E+00  0.17459977040E+02  0.00000000000E+00 0.  1.
</event>
<event>
 7    1  0.5408841E-013  0.5052886E+02  0.7816164E-02  0.1300439E+00
        -11   -1    0    0    0    0  0.00000000000E+00  0.00000000000E+00  0.45593999997E+02  0.45594000000E+02  0.51100000000E-03 0.  1.
         11   -1    0    0    0    0 -0.00000000000E+00 -0.00000000000E+00 -0.45593999997E+02  0.45594000000E+02  0.51100000000E-03 0. -1.
    9900012    2    1    2    0    0 -0.37114290251E+02  0.85206625408E+01 -0.14251074466E+02  0.50528863826E+02  0.30000012086E+02 0.  0.
         12    1    1    2    0    0  0.37114290251E+02 -0.85206625408E+01  0.14251074466E+02  0.40659136174E+02  0.00000000000E+00 0. -1.
         11    1    3    3    0    0 -0.17733418899E+02  0.77914065115E+00 -0.27576823251E+01  0.17963463421E+02  0.51100000000E-03 0. -1.
        -11    1    3    3    0    0 -0.23091344460E+02  0.10650509087E+02 -0.78703166576E+01  0.26619267783E+02  0.51100000000E-03 0.  1.
         12    1    3    3    0    0  0.37104731077E+01 -0.29089871976E+01 -0.36230754834E+01  0.59461326219E+01  0.00000000000E+00 0. -1.
</event>
<event>
 7    1  0.5408841E-013  0.5052887E+02  0.7816164E-02  0.1300439E+00
        -11   -1    0    0    0    0  0.00000000000E+00  0.00000000000E+00  0.45593999997E+02  0.45594000000E+02  0.51100000000E-03 0. -1.
         11   -1    0    0    0    0 -0.00000000000E+00 -0.00000000000E+00 -0.45593999997E+02  0.45594000000E+02  0.51100000000E-03 0.  1.
    9900012    2    1    2    0    0  0.50971929770E+01 -0.25199147629E+02 -0.31498996566E+02  0.50528865699E+02  0.30000017778E+02 0.  0.
         12    1    1    2    0    0 -0.50971929770E+01  0.25199147629E+02  0.31498996566E+02  0.40659134301E+02  0.00000000000E+00 0. -1.
         11    1    3    3    0    0 -0.59211815895E+01 -0.90705064928E+00 -0.35461529390E+01  0.69612019957E+01  0.51100000000E-03 0. -1.
        -11    1    3    3    0    0 -0.39144905530E+01  0.99756622740E+00 -0.30501245106E+01  0.50617817475E+01  0.51100000000E-03 0.  1.
        -12    1    3    3    0    0  0.14932865119E+02 -0.25289663207E+02 -0.24902719116E+02  0.38505881956E+02  0.00000000000E+00 0.  1.
</event>
<event>
 7    1  0.5408841E-013  0.5052886E+02  0.7816164E-02  0.1300439E+00
        -11   -1    0    0    0    0  0.00000000000E+00  0.00000000000E+00  0.45593999997E+02  0.45594000000E+02  0.51100000000E-03 0.  1.
         11   -1    0    0    0    0 -0.00000000000E+00 -0.00000000000E+00 -0.45593999997E+02  0.45594000000E+02  0.51100000000E-03 0. -1.
    9900012    2    1    2    0    0  0.28272610557E+02  0.25548416039E+02 -0.14181095037E+02  0.50528861713E+02  0.30000005662E+02 0.  0.
         12    1    1    2    0    0 -0.28272610557E+02 -0.25548416039E+02  0.14181095037E+02  0.40659138287E+02  0.00000000000E+00 0. -1.
         11    1    3    3    0    0  0.80575187490E+01  0.15141231381E+02  0.24355607813E+01  0.17323754001E+02  0.51100000000E-03 0. -1.
        -11    1    3    3    0    0  0.11438244694E+02  0.11532414322E+02 -0.23427096938E+01  0.16410920472E+02  0.51100000000E-03 0.  1.
         12    1    3    3    0    0  0.87768471136E+01 -0.11252296635E+01 -0.14273946125E+02  0.16794187239E+02  0.00000000000E+00 0. -1.
</event>
<event>
 7    1  0.5408841E-013  0.5052885E+02  0.7816164E-02  0.1300439E+00
        -11   -1    0    0    0    0  0.00000000000E+00  0.00000000000E+00  0.45593999997E+02  0.45594000000E+02  0.51100000000E-03 0.  1.
         11   -1    0    0    0    0 -0.00000000000E+00 -0.00000000000E+00 -0.45593999997E+02  0.45594000000E+02  0.51100000000E-03 0. -1.
    9900012    2    1    2    0    0  0.18604943080E+02 -0.26578042730E+01  0.36054941974E+02  0.50528847632E+02  0.29999962862E+02 0.  0.
         12    1    1    2    0    0 -0.18604943080E+02  0.26578042730E+01 -0.36054941974E+02  0.40659152368E+02  0.00000000000E+00 0. -1.
         11    1    3    3    0    0 -0.56912974037E+01  0.10533048779E+01  0.54476792964E-01  0.57882022499E+01  0.51100000000E-03 0. -1.
        -11    1    3    3    0    0 -0.12963364985E+00 -0.20124919900E+01  0.19885258230E+01  0.28321659738E+01  0.51100000000E-03 0.  1.
        -12    1    3    3    0    0  0.24425874133E+02 -0.16986171609E+01  0.34011939358E+02  0.41908479408E+02  0.00000000000E+00 0.  1.
</event>
<event>
 7    1  0.5408841E-013  0.5052886E+02  0.7816164E-02  0.1300439E+00
        -11   -1    0    0    0    0  0.00000000000E+00  0.00000000000E+00  0.45593999997E+02  0.45594000000E+02  0.51100000000E-03 0. -1.
         11   -1    0    0    0    0 -0.00000000000E+00 -0.00000000000E+00 -0.45593999997E+02  0.45594000000E+02  0.51100000000E-03 0.  1.
    9900012    2    1    2    0    0  0.21956983155E+01 -0.35728245051E+02 -0.19283083296E+02  0.50528857278E+02  0.29999992181E+02 0.  0.
         12    1    1    2    0    0 -0.21956983155E+01  0.35728245051E+02  0.19283083296E+02  0.40659142722E+02  0.00000000000E+00 0. -1.
         11    1    3    3    0    0  0.83582524605E+00  0.33920342197E+01 -0.83450488107E+01  0.90467861643E+01  0.51100000000E-03 0. -1.
        -11    1    3    3    0    0  0.27103120630E+01 -0.12912231181E+02 -0.70306131465E+01  0.14949950736E+02  0.51100000000E-03 0.  1.
        -12    1    3    3    0    0 -0.13504389935E+01 -0.26208048090E+02 -0.39074213384E+01  0.26532120377E+02  0.00000000000E+00 0.  1.
</event>
<event>
 7    1  0.5408841E-013  0.5052886E+02  0.7816164E-02  0.1300439E+00
        -11   -1    0    0    0    0  0.00000000000E+00  0.00000000000E+00  0.45593999997E+02  0.45594000000E+02  0.51100000000E-03 0. -1.
         11   -1    0    0    0    0 -0.00000000000E+00 -0.00000000000E+00 -0.45593999997E+02  0.45594000000E+02  0.51100000000E-03 0.  1.
    9900012    2    1    2    0    0  0.26104670148E+02  0.18880480080E+02  0.24804019436E+02  0.50528859431E+02  0.29999998727E+02 0.  0.
         12    1    1    2    0    0 -0.26104670148E+02 -0.18880480080E+02 -0.24804019436E+02  0.40659140569E+02  0.00000000000E+00 0. -1.
         11    1    3    3    0    0 -0.32209148355E+01  0.14922659436E+01  0.31278777289E+01  0.47312545241E+01  0.51100000000E-03 0. -1.
        -11    1    3    3    0    0  0.23680174175E+02  0.22397288057E+02  0.15741370484E+02  0.36196407367E+02  0.51100000000E-03 0.  1.
         12    1    3    3    0    0  0.56454108090E+01 -0.50090739207E+01  0.59347712230E+01  0.96011975407E+01  0.00000000000E+00 0. -1.
</event>
<event>
 7    1  0.5408841E-013  0.5052886E+02  0.7816164E-02  0.1300439E+00
        -11   -1    0    0    0    0  0.00000000000E+00  0.00000000000E+00  0.45593999997E+02  0.45594000000E+02  0.51100000000E-03 0.  1.
         11   -1    0    0    0    0 -0.00000000000E+00 -0.00000000000E+00 -0.45593999997E+02  0.45594000000E+02  0.51100000000E-03 0. -1.
    9900012    2    1    2    0    0 -0.15703486671E+02  0.28064396273E+02  0.24878818044E+02  0.50528863031E+02  0.30000009669E+02 0.  0.
         12    1    1    2    0    0  0.15703486671E+02 -0.28064396273E+02 -0.24878818044E+02  0.40659136969E+02  0.00000000000E+00 0. -1.
         11    1    3    3    0    0  0.25481807748E+01  0.11453680164E+02  0.19751136816E+02  0.22973624450E+02  0.51100000000E-03 0. -1.
        -11    1    3    3    0    0 -0.85364578724E+00  0.17809909242E-01  0.33394425015E+01  0.34468688407E+01  0.51100000000E-03 0.  1.
         12    1    3    3    0    0 -0.17398021659E+02  0.16592906200E+02  0.17882387258E+01  0.24108369740E+02  0.00000000000E+00 0. -1.
</event>
<event>
 7    1  0.5408841E-013  0.5052886E+02  0.7816164E-02  0.1300439E+00
        -11   -1    0    0    0    0  0.00000000000E+00  0.00000000000E+00  0.45593999997E+02  0.45594000000E+02  0.51100000000E-03 0.  1.
         11   -1    0    0    0    0 -0.00000000000E+00 -0.00000000000E+00 -0.45593999997E+02  0.45594000000E+02  0.51100000000E-03 0. -1.
    9900012    2    1    2    0    0  0.30432718177E+02 -0.25505050990E+02 -0.87468733113E+01  0.50528858908E+02  0.29999997137E+02 0.  0.
         12    1    1    2    0    0 -0.30432718177E+02  0.25505050990E+02  0.87468733113E+01  0.40659141092E+02  0.00000000000E+00 0. -1.
         11    1    3    3    0    0 -0.24268267408E+01 -0.42745815031E+01  0.46693049720E+01  0.67796713962E+01  0.51100000000E-03 0. -1.
        -11    1    3    3    0    0 -0.21863174598E+00 -0.25999392725E+01 -0.37597552745E+01  0.45763789229E+01  0.51100000000E-03 0.  1.
        -12    1    3    3    0    0  0.33078176663E+02 -0.18630530214E+02 -0.96564230089E+01  0.39172808589E+02  0.00000000000E+00 0.  1.
</event>
<event>
 7    1  0.5408841E-013  0.5052886E+02  0.7816164E-02  0.1300439E+00
        -11   -1    0    0    0    0  0.00000000000E+00  0.00000000000E+00  0.45593999997E+02  0.45594000000E+02  0.51100000000E-03 0.  1.
         11   -1    0    0    0    0 -0.00000000000E+00 -0.00000000000E+00 -0.45593999997E+02  0.45594000000E+02  0.51100000000E-03 0. -1.
    9900012    2    1    2    0    0 -0.10910005074E+01  0.39367104822E+02  0.10109729264E+02  0.50528857732E+02  0.29999993562E+02 0.  0.
         12    1    1    2    0    0  0.10910005074E+01 -0.39367104822E+02 -0.10109729264E+02  0.40659142268E+02  0.00000000000E+00 0. -1.
         11    1    3    3    0    0  0.27875743887E+01  0.79933523903E+01  0.67911935095E+01  0.10852859667E+02  0.51100000000E-03 0. -1.
        -11    1    3    3    0    0  0.83216818535E+01  0.16784957151E+02  0.75404574860E+01  0.20195139881E+02  0.51100000000E-03 0.  1.
         12    1    3    3    0    0 -0.12200256750E+02  0.14588795281E+02 -0.42219217315E+01  0.19480858184E+02  0.00000000000E+00 0. -1.
</event>
<event>
 7    1  0.5408841E-013  0.5052886E+02  0.7816164E-02  0.1300439E+00
        -11   -1    0    0    0    0  0.00000000000E+00  0.00000000000E+00  0.45593999997E+02  0.45594000000E+02  0.51100000000E-03 0.  1.
         11   -1    0    0    0    0 -0.00000000000E+00 -0.00000000000E+00 -0.45593999997E+02  0.45594000000E+02  0.51100000000E-03 0. -1.
    9900012    2    1    2    0    0 -0.28969795551E+01  0.16457168426E+02  0.37066631359E+02  0.50528855353E+02  0.29999986330E+02 0.  0.
         12    1    1    2    0    0  0.28969795551E+01 -0.16457168426E+02 -0.37066631359E+02  0.40659144647E+02  0.00000000000E+00 0. -1.
         11    1    3    3    0    0  0.26250141167E+01 -0.17155879993E+00  0.17513210491E+02  0.17709677397E+02  0.51100000000E-03 0.  1.
        -11    1    3    3    0    0  0.49019412326E+01 -0.15884285248E+01  0.56304070632E+01  0.76324057141E+01  0.51100000000E-03 0. -1.
         12    1    3    3    0    0 -0.10423934904E+02  0.18217155751E+02  0.13923013804E+02  0.25186772241E+02  0.00000000000E+00 0. -1.
</event>
<event>
 7    1  0.5408841E-013  0.5052887E+02  0.7816164E-02  0.1300439E+00
        -11   -1    0    0    0    0  0.00000000000E+00  0.00000000000E+00  0.45593999997E+02  0.45594000000E+02  0.51100000000E-03 0. -1.
         11   -1    0    0    0    0 -0.00000000000E+00 -0.00000000000E+00 -0.45593999997E+02  0.45594000000E+02  0.51100000000E-03 0.  1.
    9900012    2    1    2    0    0 -0.34361371927E+02  0.21658410598E+02  0.18369826862E+01  0.50528866515E+02  0.30000020259E+02 0.  0.
         12    1    1    2    0    0  0.34361371927E+02 -0.21658410598E+02 -0.18369826862E+01  0.40659133485E+02  0.00000000000E+00 0. -1.
         11    1    3    3    0    0  0.24127749497E+01  0.46157727877E+00 -0.81533464327E-01  0.24578821187E+01  0.51100000000E-03 0. -1.
        -11    1    3    3    0    0 -0.22278259774E+02  0.32939596964E+00  0.37613893204E+01  0.22595960040E+02  0.51100000000E-03 0.  1.
        -12    1    3    3    0    0 -0.14495887103E+02  0.20867437350E+02 -0.18428731698E+01  0.25475024357E+02  0.00000000000E+00 0.  1.
</event>
<event>
 7    1  0.5408841E-013  0.5052889E+02  0.7816164E-02  0.1300439E+00
        -11   -1    0    0    0    0  0.00000000000E+00  0.00000000000E+00  0.45593999997E+02  0.45594000000E+02  0.51100000000E-03 0.  1.
         11   -1    0    0    0    0 -0.00000000000E+00 -0.00000000000E+00 -0.45593999997E+02  0.45594000000E+02  0.51100000000E-03 0. -1.
    9900012    2    1    2    0    0  0.31093934456E+02  0.66689334876E+01  0.25334879948E+02  0.50528885698E+02  0.30000078568E+02 0.  0.
         12    1    1    2    0    0 -0.31093934456E+02 -0.66689334876E+01 -0.25334879948E+02  0.40659114302E+02  0.00000000000E+00 0. -1.
         11    1    3    3    0    0  0.40838421766E-01  0.14685624377E+00 -0.11072015742E+01  0.11176448990E+01  0.51100000000E-03 0. -1.
        -11    1    3    3    0    0  0.34521949092E+02  0.15882731385E+01  0.26213849671E+02  0.43375724727E+02  0.51100000000E-03 0.  1.
        -12    1    3    3    0    0 -0.34688530579E+01  0.49338041053E+01  0.22823185088E+00  0.60355160727E+01  0.00000000000E+00 0.  1.
</event>
<event>
 7    1  0.5408841E-013  0.5052885E+02  0.7816164E-02  0.1300439E+00
        -11   -1    0    0    0    0  0.00000000000E+00  0.00000000000E+00  0.45593999997E+02  0.45594000000E+02  0.51100000000E-03 0. -1.
         11   -1    0    0    0    0 -0.00000000000E+00 -0.00000000000E+00 -0.45593999997E+02  0.45594000000E+02  0.51100000000E-03 0.  1.
    9900012    2    1    2    0    0  0.25354877600E+02 -0.31567363991E+02  0.37145403258E+01  0.50528854690E+02  0.29999984316E+02 0.  0.
         12    1    1    2    0    0 -0.25354877600E+02  0.31567363991E+02 -0.37145403258E+01  0.40659145310E+02  0.00000000000E+00 0. -1.
         11    1    3    3    0    0  0.13210665228E+02 -0.15872951145E+02  0.65269466170E+01  0.21658099783E+02  0.51100000000E-03 0. -1.
        -11    1    3    3    0    0  0.17846067627E+02 -0.13582233881E+02 -0.71318322423E+00  0.22438088990E+02  0.51100000000E-03 0.  1.
         12    1    3    3    0    0 -0.57018552542E+01 -0.21121789659E+01 -0.20992230670E+01  0.64326659177E+01  0.00000000000E+00 0. -1.
</event>
<event>
 7    1  0.5408841E-013  0.5052888E+02  0.7816164E-02  0.1300439E+00
        -11   -1    0    0    0    0  0.00000000000E+00  0.00000000000E+00  0.45593999997E+02  0.45594000000E+02  0.51100000000E-03 0.  1.
         11   -1    0    0    0    0 -0.00000000000E+00 -0.00000000000E+00 -0.45593999997E+02  0.45594000000E+02  0.51100000000E-03 0. -1.
    9900012    2    1    2    0    0 -0.10879969367E+01 -0.37149015013E+02  0.16490320757E+02  0.50528883772E+02  0.30000072714E+02 0.  0.
         12    1    1    2    0    0  0.10879969367E+01  0.37149015013E+02 -0.16490320757E+02  0.40659116228E+02  0.00000000000E+00 0. -1.
         11    1    3    3    0    0 -0.40671373413E+01 -0.28058178857E+01 -0.48145486189E+01  0.68988476448E+01  0.51100000000E-03 0. -1.
        -11    1    3    3    0    0 -0.56171613113E+01 -0.90402901316E+01  0.24413000984E+01  0.10919674596E+02  0.51100000000E-03 0.  1.
        -12    1    3    3    0    0  0.85963017159E+01 -0.25302906996E+02  0.18863569277E+02  0.32710361531E+02  0.00000000000E+00 0.  1.
</event>
<event>
 7    1  0.5408841E-013  0.5052887E+02  0.7816164E-02  0.1300439E+00
        -11   -1    0    0    0    0  0.00000000000E+00  0.00000000000E+00  0.45593999997E+02  0.45594000000E+02  0.51100000000E-03 0. -1.
         11   -1    0    0    0    0 -0.00000000000E+00 -0.00000000000E+00 -0.45593999997E+02  0.45594000000E+02  0.51100000000E-03 0.  1.
    9900012    2    1    2    0    0 -0.35847102310E+02 -0.63997884773E+01  0.18088481824E+02  0.50528865586E+02  0.30000017434E+02 0.  0.
         12    1    1    2    0    0  0.35847102310E+02  0.63997884773E+01 -0.18088481824E+02  0.40659134414E+02  0.00000000000E+00 0. -1.
         11    1    3    3    0    0 -0.67817631124E+01  0.31447558137E+00  0.11321558123E+02  0.13201094061E+02  0.51100000000E-03 0. -1.
        -11    1    3    3    0    0  0.21286362185E+01 -0.69566725834E+00 -0.33119753875E+01  0.39980278030E+01  0.51100000000E-03 0.  1.
        -12    1    3    3    0    0 -0.31193975416E+02 -0.60185968003E+01  0.10078899088E+02  0.33329743722E+02  0.00000000000E+00 0.  1.
</event>
<event>
 7    1  0.5408841E-013  0.5052886E+02  0.7816164E-02  0.1300439E+00
        -11   -1    0    0    0    0  0.00000000000E+00  0.00000000000E+00  0.45593999997E+02  0.45594000000E+02  0.51100000000E-03 0. -1.
         11   -1    0    0    0    0 -0.00000000000E+00 -0.00000000000E+00 -0.45593999997E+02  0.45594000000E+02  0.51100000000E-03 0.  1.
    9900012    2    1    2    0    0  0.20299252698E+02  0.35170954300E+02 -0.20272193399E+01  0.50528864437E+02  0.30000013943E+02 0.  0.
         12    1    1    2    0    0 -0.20299252698E+02 -0.35170954300E+02  0.20272193399E+01  0.40659135563E+02  0.00000000000E+00 0. -1.
         11    1    3    3    0    0  0.95116386065E+01 -0.59656230908E+00  0.19553758968E+00  0.95323339629E+01  0.51100000000E-03 0. -1.
        -11    1    3    3    0    0  0.80982708508E+01  0.49434630590E+01 -0.32758023523E+01  0.10037464775E+02  0.51100000000E-03 0.  1.
         12    1    3    3    0    0  0.26893432406E+01  0.30824053550E+02  0.10530454227E+01  0.30959065700E+02  0.00000000000E+00 0. -1.
</event>
<event>
 7    1  0.5408841E-013  0.5052886E+02  0.7816164E-02  0.1300439E+00
        -11   -1    0    0    0    0  0.00000000000E+00  0.00000000000E+00  0.45593999997E+02  0.45594000000E+02  0.51100000000E-03 0. -1.
         11   -1    0    0    0    0 -0.00000000000E+00 -0.00000000000E+00 -0.45593999997E+02  0.45594000000E+02  0.51100000000E-03 0.  1.
    9900012    2    1    2    0    0  0.69121554572E+01  0.35063883160E+02 -0.19388438933E+02  0.50528863762E+02  0.30000011892E+02 0.  0.
         12    1    1    2    0    0 -0.69121554572E+01 -0.35063883160E+02  0.19388438933E+02  0.40659136238E+02  0.00000000000E+00 0. -1.
         11    1    3    3    0    0  0.82859498841E+01  0.10977627653E+02 -0.43128763138E+01  0.14414096459E+02  0.51100000000E-03 0. -1.
        -11    1    3    3    0    0  0.80522768914E+01  0.13783958254E+01 -0.28150050769E+01  0.86407981130E+01  0.51100000000E-03 0.  1.
        -12    1    3    3    0    0 -0.94260713182E+01  0.22707859682E+02 -0.12260557542E+02  0.27473969191E+02  0.00000000000E+00 0.  1.
</event>
<event>
 7    1  0.5408841E-013  0.5052884E+02  0.7816164E-02  0.1300439E+00
        -11   -1    0    0    0    0  0.00000000000E+00  0.00000000000E+00  0.45593999997E+02  0.45594000000E+02  0.51100000000E-03 0.  1.
         11   -1    0    0    0    0 -0.00000000000E+00 -0.00000000000E+00 -0.45593999997E+02  0.45594000000E+02  0.51100000000E-03 0. -1.
    9900012    2    1    2    0    0 -0.82549128655E+01 -0.89618296814E+01  0.38790579426E+02  0.50528843222E+02  0.29999949459E+02 0.  0.
         12    1    1    2    0    0  0.82549128655E+01  0.89618296814E+01 -0.38790579426E+02  0.40659156778E+02  0.00000000000E+00 0. -1.
         11    1    3    3    0    0 -0.84320886356E+01  0.36794690859E+00  0.19247367185E+02  0.21016580300E+02  0.51100000000E-03 0. -1.
        -11    1    3    3    0    0 -0.82266436577E+01 -0.68431128830E+01  0.17501448088E+02  0.20513569783E+02  0.51100000000E-03 0.  1.
         12    1    3    3    0    0  0.84038194277E+01 -0.24866637070E+01  0.20417641530E+01  0.89986931397E+01  0.00000000000E+00 0. -1.
</event>
<event>
 7    1  0.5408841E-013  0.5052887E+02  0.7816164E-02  0.1300439E+00
        -11   -1    0    0    0    0  0.00000000000E+00  0.00000000000E+00  0.45593999997E+02  0.45594000000E+02  0.51100000000E-03 0.  1.
         11   -1    0    0    0    0 -0.00000000000E+00 -0.00000000000E+00 -0.45593999997E+02  0.45594000000E+02  0.51100000000E-03 0. -1.
    9900012    2    1    2    0    0 -0.94714364048E+01 -0.19132941132E+02  0.34603289725E+02  0.50528865679E+02  0.30000017718E+02 0.  0.
         12    1    1    2    0    0  0.94714364048E+01  0.19132941132E+02 -0.34603289725E+02  0.40659134321E+02  0.00000000000E+00 0. -1.
         11    1    3    3    0    0 -0.69178693659E+01 -0.83135355424E+01  0.65312364863E+01  0.12634430738E+02  0.51100000000E-03 0. -1.
        -11    1    3    3    0    0 -0.81109208674E+01 -0.15805787993E+02  0.21953428351E+02  0.28241157697E+02  0.51100000000E-03 0.  1.
         12    1    3    3    0    0  0.55573538285E+01  0.49863824033E+01  0.61186248870E+01  0.96532772443E+01  0.00000000000E+00 0. -1.
</event>
<event>
 7    1  0.5408841E-013  0.5052888E+02  0.7816164E-02  0.1300439E+00
        -11   -1    0    0    0    0  0.00000000000E+00  0.00000000000E+00  0.45593999997E+02  0.45594000000E+02  0.51100000000E-03 0.  1.
         11   -1    0    0    0    0 -0.00000000000E+00 -0.00000000000E+00 -0.45593999997E+02  0.45594000000E+02  0.51100000000E-03 0. -1.
    9900012    2    1    2    0    0  0.21579643762E+02  0.81293837538E+01  0.33487257752E+02  0.50528876339E+02  0.30000050120E+02 0.  0.
         12    1    1    2    0    0 -0.21579643762E+02 -0.81293837538E+01 -0.33487257752E+02  0.40659123661E+02  0.00000000000E+00 0. -1.
         11    1    3    3    0    0  0.95041311455E+01  0.67762906793E+00  0.21393362148E+01  0.97654723227E+01  0.51100000000E-03 0. -1.
        -11    1    3    3    0    0  0.11327115463E+02  0.96978181886E+01  0.73057960409E+01  0.16604995585E+02  0.51100000000E-03 0.  1.
        -12    1    3    3    0    0  0.74839715425E+00 -0.22460635027E+01  0.24042125496E+02  0.24158408431E+02  0.00000000000E+00 0.  1.
</event>
<event>
 7    1  0.5408841E-013  0.5052885E+02  0.7816164E-02  0.1300439E+00
        -11   -1    0    0    0    0  0.00000000000E+00  0.00000000000E+00  0.45593999997E+02  0.45594000000E+02  0.51100000000E-03 0.  1.
         11   -1    0    0    0    0 -0.00000000000E+00 -0.00000000000E+00 -0.45593999997E+02  0.45594000000E+02  0.51100000000E-03 0. -1.
    9900012    2    1    2    0    0 -0.22460125495E+02 -0.31167623814E+02  0.13314957464E+02  0.50528854611E+02  0.29999984076E+02 0.  0.
         12    1    1    2    0    0  0.22460125495E+02  0.31167623814E+02 -0.13314957464E+02  0.40659145389E+02  0.00000000000E+00 0. -1.
         11    1    3    3    0    0 -0.38911226689E+01 -0.11428139538E+01 -0.54617802817E+01  0.68027864485E+01  0.51100000000E-03 0. -1.
        -11    1    3    3    0    0  0.17830665637E+01 -0.79398616603E+01  0.90203655717E+01  0.12148568840E+02  0.51100000000E-03 0.  1.
         12    1    3    3    0    0 -0.20352069390E+02 -0.22084948200E+02  0.97563721738E+01  0.31577499322E+02  0.00000000000E+00 0. -1.
</event>
<event>
 7    1  0.5408841E-013  0.5052886E+02  0.7816164E-02  0.1300439E+00
        -11   -1    0    0    0    0  0.00000000000E+00  0.00000000000E+00  0.45593999997E+02  0.45594000000E+02  0.51100000000E-03 0.  1.
         11   -1    0    0    0    0 -0.00000000000E+00 -0.00000000000E+00 -0.45593999997E+02  0.45594000000E+02  0.51100000000E-03 0. -1.
    9900012    2    1    2    0    0  0.28084132577E+02  0.29401483052E+02 -0.16260718724E-03  0.50528859474E+02  0.29999998857E+02 0.  0.
         12    1    1    2    0    0 -0.28084132577E+02 -0.29401483052E+02  0.16260718724E-03  0.40659140526E+02  0.00000000000E+00 0. -1.
         11    1    3    3    0    0 -0.17911665138E+01  0.85151504871E+01 -0.17000871402E+01  0.88660228876E+01  0.51100000000E-03 0. -1.
        -11    1    3    3    0    0  0.15635979653E+02  0.19264044722E+02  0.79133624935E+01  0.26042438154E+02  0.51100000000E-03 0.  1.
        -12    1    3    3    0    0  0.14239319438E+02  0.16222878426E+01 -0.62134379605E+01  0.15620398433E+02  0.00000000000E+00 0.  1.
</event>
<event>
 7    1  0.5408841E-013  0.5052886E+02  0.7816164E-02  0.1300439E+00
        -11   -1    0    0    0    0  0.00000000000E+00  0.00000000000E+00  0.45593999997E+02  0.45594000000E+02  0.51100000000E-03 0.  1.
         11   -1    0    0    0    0 -0.00000000000E+00 -0.00000000000E+00 -0.45593999997E+02  0.45594000000E+02  0.51100000000E-03 0. -1.
    9900012    2    1    2    0    0 -0.24061360544E+02  0.13455930386E+02  0.29885691978E+02  0.50528859345E+02  0.29999998466E+02 0.  0.
         12    1    1    2    0    0  0.24061360544E+02 -0.13455930386E+02 -0.29885691978E+02  0.40659140655E+02  0.00000000000E+00 0. -1.
         11    1    3    3    0    0 -0.18420762814E+01 -0.21358981562E+01  0.53790957494E+01  0.60737119871E+01  0.51100000000E-03 0. -1.
        -11    1    3    3    0    0 -0.79363552739E+01 -0.68470416001E+01  0.73833745408E+01  0.12821151804E+02  0.51100000000E-03 0.  1.
         12    1    3    3    0    0 -0.14282928989E+02  0.22438870142E+02  0.17123221688E+02  0.31633995554E+02  0.00000000000E+00 0. -1.
</event>
<event>
 7    1  0.5408841E-013  0.5052886E+02  0.7816164E-02  0.1300439E+00
        -11   -1    0    0    0    0  0.00000000000E+00  0.00000000000E+00  0.45593999997E+02  0.45594000000E+02  0.51100000000E-03 0. -1.
         11   -1    0    0    0    0 -0.00000000000E+00 -0.00000000000E+00 -0.45593999997E+02  0.45594000000E+02  0.51100000000E-03 0.  1.
    9900012    2    1    2    0    0 -0.17101057720E+02 -0.36004562576E+02  0.80244057923E+01  0.50528858473E+02  0.29999995814E+02 0.  0.
         12    1    1    2    0    0  0.17101057720E+02  0.36004562576E+02 -0.80244057923E+01  0.40659141527E+02  0.00000000000E+00 0. -1.
         11    1    3    3    0    0 -0.36656194068E+01 -0.43907624440E+01  0.33920927819E+01  0.66499514417E+01  0.51100000000E-03 0. -1.
        -11    1    3    3    0    0 -0.87033423503E+01 -0.28044547591E+02  0.14205252791E+02  0.32619534405E+02  0.51100000000E-03 0.  1.
         12    1    3    3    0    0 -0.47320959629E+01 -0.35692525406E+01 -0.95729397804E+01  0.11259372626E+02  0.00000000000E+00 0. -1.
</event>
<event>
 7    1  0.5408841E-013  0.5052881E+02  0.7816164E-02  0.1300439E+00
        -11   -1    0    0    0    0  0.00000000000E+00  0.00000000000E+00  0.45593999997E+02  0.45594000000E+02  0.51100000000E-03 0.  1.
         11   -1    0    0    0    0 -0.00000000000E+00 -0.00000000000E+00 -0.45593999997E+02  0.45594000000E+02  0.51100000000E-03 0. -1.
    9900012    2    1    2    0    0  0.38909429643E+02 -0.76974968350E+01 -0.89428387190E+01  0.50528812391E+02  0.29999855744E+02 0.  0.
         12    1    1    2    0    0 -0.38909429643E+02  0.76974968350E+01  0.89428387190E+01  0.40659187609E+02  0.00000000000E+00 0. -1.
         11    1    3    3    0    0  0.10725324536E+01  0.56543208295E+01  0.24268271815E+01  0.62458914765E+01  0.51100000000E-03 0. -1.
        -11    1    3    3    0    0  0.10155920020E+02  0.22771221148E+01  0.32092512283E+00  0.10413020204E+02  0.51100000000E-03 0.  1.
         12    1    3    3    0    0  0.27680977169E+02 -0.15628939779E+02 -0.11690591023E+02  0.33869900711E+02  0.00000000000E+00 0. -1.
</event>
<event>
 7    1  0.5408841E-013  0.5052886E+02  0.7816164E-02  0.1300439E+00
        -11   -1    0    0    0    0  0.00000000000E+00  0.00000000000E+00  0.45593999997E+02  0.45594000000E+02  0.51100000000E-03 0. -1.
         11   -1    0    0    0    0 -0.00000000000E+00 -0.00000000000E+00 -0.45593999997E+02  0.45594000000E+02  0.51100000000E-03 0.  1.
    9900012    2    1    2    0    0  0.31545167369E+02 -0.59406390471E+01 -0.24955492829E+02  0.50528863278E+02  0.30000010421E+02 0.  0.
         12    1    1    2    0    0 -0.31545167369E+02  0.59406390471E+01  0.24955492829E+02  0.40659136722E+02  0.00000000000E+00 0. -1.
         11    1    3    3    0    0 -0.64928984634E+00 -0.42616349745E+01 -0.85280734035E+01  0.95556865895E+01  0.51100000000E-03 0.  1.
        -11    1    3    3    0    0  0.16407200459E+02  0.65591103034E+01 -0.14876712103E+02  0.23098370465E+02  0.51100000000E-03 0. -1.
         12    1    3    3    0    0  0.15787256756E+02 -0.82381143760E+01 -0.15507073230E+01  0.17874806224E+02  0.00000000000E+00 0. -1.
</event>
<event>
 7    1  0.5408841E-013  0.5052886E+02  0.7816164E-02  0.1300439E+00
        -11   -1    0    0    0    0  0.00000000000E+00  0.00000000000E+00  0.45593999997E+02  0.45594000000E+02  0.51100000000E-03 0.  1.
         11   -1    0    0    0    0 -0.00000000000E+00 -0.00000000000E+00 -0.45593999997E+02  0.45594000000E+02  0.51100000000E-03 0. -1.
    9900012    2    1    2    0    0 -0.43044519218E+00 -0.22472210478E+02  0.33881859191E+02  0.50528857005E+02  0.29999991352E+02 0.  0.
         12    1    1    2    0    0  0.43044519218E+00  0.22472210478E+02 -0.33881859191E+02  0.40659142995E+02  0.00000000000E+00 0. -1.
         11    1    3    3    0    0  0.37739468613E+01 -0.47676154657E+01  0.57520456991E+00  0.61076749013E+01  0.51100000000E-03 0. -1.
        -11    1    3    3    0    0 -0.11710955996E+01 -0.22532838484E+02  0.30829926081E+02  0.38204510433E+02  0.51100000000E-03 0.  1.
         12    1    3    3    0    0 -0.30332964539E+01  0.48282434711E+01  0.24767285406E+01  0.62166716704E+01  0.00000000000E+00 0. -1.
</event>
<event>
 7    1  0.5408841E-013  0.5052886E+02  0.7816164E-02  0.1300439E+00
        -11   -1    0    0    0    0  0.00000000000E+00  0.00000000000E+00  0.45593999997E+02  0.45594000000E+02  0.51100000000E-03 0.  1.
         11   -1    0    0    0    0 -0.00000000000E+00 -0.00000000000E+00 -0.45593999997E+02  0.45594000000E+02  0.51100000000E-03 0. -1.
    9900012    2    1    2    0    0 -0.23857881591E+02 -0.21021842627E+02  0.25338693396E+02  0.50528858783E+02  0.29999996757E+02 0.  0.
         12    1    1    2    0    0  0.23857881591E+02  0.21021842627E+02 -0.25338693396E+02  0.40659141217E+02  0.00000000000E+00 0. -1.
         11    1    3    3    0    0 -0.75260748444E+01 -0.64906472968E+00  0.96740248503E+01  0.12273949839E+02  0.51100000000E-03 0. -1.
        -11    1    3    3    0    0 -0.95147763181E+01 -0.10979330370E+02  0.20955697512E+02  0.25499371016E+02  0.51100000000E-03 0.  1.
         12    1    3    3    0    0 -0.68170304284E+01 -0.93934475278E+01 -0.52910289654E+01  0.12755537928E+02  0.00000000000E+00 0. -1.
</event>
<event>
 7    1  0.5408841E-013  0.5052885E+02  0.7816164E-02  0.1300439E+00
        -11   -1    0    0    0    0  0.00000000000E+00  0.00000000000E+00  0.45593999997E+02  0.45594000000E+02  0.51100000000E-03 0.  1.
         11   -1    0    0    0    0 -0.00000000000E+00 -0.00000000000E+00 -0.45593999997E+02  0.45594000000E+02  0.51100000000E-03 0. -1.
    9900012    2    1    2    0    0 -0.12596802450E+02 -0.28429642130E+02  0.26196229347E+02  0.50528850776E+02  0.29999972418E+02 0.  0.
         12    1    1    2    0    0  0.12596802450E+02  0.28429642130E+02 -0.26196229347E+02  0.40659149224E+02  0.00000000000E+00 0. -1.
         11    1    3    3    0    0  0.46272645290E+01 -0.61768516646E+01  0.73528267064E+01  0.10659696728E+02  0.51100000000E-03 0. -1.
        -11    1    3    3    0    0 -0.27471520548E+00 -0.16908189196E+02  0.12382212847E+02  0.20959044005E+02  0.51100000000E-03 0.  1.
         12    1    3    3    0    0 -0.16949351774E+02 -0.53446012695E+01  0.64611897939E+01  0.18910110043E+02  0.00000000000E+00 0. -1.
</event>
<event>
 7    1  0.5408841E-013  0.5052885E+02  0.7816164E-02  0.1300439E+00
        -11   -1    0    0    0    0  0.00000000000E+00  0.00000000000E+00  0.45593999997E+02  0.45594000000E+02  0.51100000000E-03 0. -1.
         11   -1    0    0    0    0 -0.00000000000E+00 -0.00000000000E+00 -0.45593999997E+02  0.45594000000E+02  0.51100000000E-03 0.  1.
    9900012    2    1    2    0    0  0.13106826513E+02 -0.38018225641E+02 -0.59993629904E+01  0.50528846807E+02  0.29999960354E+02 0.  0.
         12    1    1    2    0    0 -0.13106826513E+02  0.38018225641E+02  0.59993629904E+01  0.40659153193E+02  0.00000000000E+00 0. -1.
         11    1    3    3    0    0 -0.21577454486E+01 -0.14102426666E+02  0.94695435913E+00  0.14297937827E+02  0.51100000000E-03 0. -1.
        -11    1    3    3    0    0  0.18091942858E+02 -0.22785746789E+02 -0.11048681588E+02  0.31122050353E+02  0.51100000000E-03 0.  1.
         12    1    3    3    0    0 -0.28273708960E+01 -0.11300521861E+01  0.41023642380E+01  0.51088586268E+01  0.00000000000E+00 0. -1.
</event>
<event>
 7    1  0.5408841E-013  0.5052887E+02  0.7816164E-02  0.1300439E+00
        -11   -1    0    0    0    0  0.00000000000E+00  0.00000000000E+00  0.45593999997E+02  0.45594000000E+02  0.51100000000E-03 0. -1.
         11   -1    0    0    0    0 -0.00000000000E+00 -0.00000000000E+00 -0.45593999997E+02  0.45594000000E+02  0.51100000000E-03 0.  1.
    9900012    2    1    2    0    0 -0.17895975228E+02 -0.73839190205E+01 -0.35754397751E+02  0.50528866365E+02  0.30000019803E+02 0.  0.
         12    1    1    2    0    0  0.17895975228E+02  0.73839190205E+01  0.35754397751E+02  0.40659133635E+02  0.00000000000E+00 0. -1.
         11    1    3    3    0    0  0.39251881489E+01 -0.12595558569E+01  0.47971133128E+00  0.41501453208E+01  0.51100000000E-03 0. -1.
        -11    1    3    3    0    0 -0.95884493650E-01 -0.68784853017E+01 -0.11930029320E+02  0.13771287293E+02  0.51100000000E-03 0.  1.
        -12    1    3    3    0    0 -0.21725278883E+02  0.75412213803E+00 -0.24304079762E+02  0.32607433751E+02  0.00000000000E+00 0.  1.
</event>
<event>
 7    1  0.5408841E-013  0.5052886E+02  0.7816164E-02  0.1300439E+00
        -11   -1    0    0    0    0  0.00000000000E+00  0.00000000000E+00  0.45593999997E+02  0.45594000000E+02  0.51100000000E-03 0.  1.
         11   -1    0    0    0    0 -0.00000000000E+00 -0.00000000000E+00 -0.45593999997E+02  0.45594000000E+02  0.51100000000E-03 0. -1.
    9900012    2    1    2    0    0  0.90908784204E+01 -0.36155826093E+01  0.39464528992E+02  0.50528861340E+02  0.30000004528E+02 0.  0.
         12    1    1    2    0    0 -0.90908784204E+01  0.36155826093E+01 -0.39464528992E+02  0.40659138660E+02  0.00000000000E+00 0. -1.
         11    1    3    3    0    0  0.13473623550E+01 -0.87808230987E+01  0.14383589523E+02  0.16905794493E+02  0.51100000000E-03 0.  1.
        -11    1    3    3    0    0  0.12015172691E+02  0.12947713206E+01  0.25101116491E+02  0.27858694459E+02  0.51100000000E-03 0. -1.
         12    1    3    3    0    0 -0.42716566260E+01  0.38704691687E+01 -0.20177022612E-01  0.57643723881E+01  0.00000000000E+00 0. -1.
</event>
<event>
 7    1  0.5408841E-013  0.5052886E+02  0.7816164E-02  0.1300439E+00
        -11   -1    0    0    0    0  0.00000000000E+00  0.00000000000E+00  0.45593999997E+02  0.45594000000E+02  0.51100000000E-03 0.  1.
         11   -1    0    0    0    0 -0.00000000000E+00 -0.00000000000E+00 -0.45593999997E+02  0.45594000000E+02  0.51100000000E-03 0. -1.
    9900012    2    1    2    0    0 -0.20684926922E+02 -0.31103325948E+02  0.16058722276E+02  0.50528860216E+02  0.30000001112E+02 0.  0.
         12    1    1    2    0    0  0.20684926922E+02  0.31103325948E+02 -0.16058722276E+02  0.40659139784E+02  0.00000000000E+00 0. -1.
         11    1    3    3    0    0 -0.14862166548E+02 -0.22598120485E+02  0.16446355978E+02  0.31655041765E+02  0.51100000000E-03 0. -1.
        -11    1    3    3    0    0 -0.42854782993E+01 -0.93154924923E+01  0.62526137506E+01  0.12009950192E+02  0.51100000000E-03 0.  1.
         12    1    3    3    0    0 -0.15372820754E+01  0.81028702866E+00 -0.66402474526E+01  0.68638682592E+01  0.00000000000E+00 0. -1.
</event>
<event>
 7    1  0.5408841E-013  0.5052887E+02  0.7816164E-02  0.1300439E+00
        -11   -1    0    0    0    0  0.00000000000E+00  0.00000000000E+00  0.45593999997E+02  0.45594000000E+02  0.51100000000E-03 0.  1.
         11   -1    0    0    0    0 -0.00000000000E+00 -0.00000000000E+00 -0.45593999997E+02  0.45594000000E+02  0.51100000000E-03 0. -1.
    9900012    2    1    2    0    0 -0.41223408431E+01 -0.17102253763E+02  0.36656294258E+02  0.50528872040E+02  0.30000037052E+02 0.  0.
         12    1    1    2    0    0  0.41223408431E+01  0.17102253763E+02 -0.36656294258E+02  0.40659127960E+02  0.00000000000E+00 0. -1.
         11    1    3    3    0    0 -0.28552404835E+01 -0.62314329748E+00  0.13283693978E+01  0.32101824412E+01  0.51100000000E-03 0. -1.
        -11    1    3    3    0    0 -0.10432362962E+02 -0.15970964475E+02  0.12746751302E+02  0.22943094217E+02  0.51100000000E-03 0.  1.
        -12    1    3    3    0    0  0.91652626029E+01 -0.50814599025E+00  0.22581173558E+02  0.24375595381E+02  0.00000000000E+00 0.  1.
</event>
<event>
 7    1  0.5408841E-013  0.5052885E+02  0.7816164E-02  0.1300439E+00
        -11   -1    0    0    0    0  0.00000000000E+00  0.00000000000E+00  0.45593999997E+02  0.45594000000E+02  0.51100000000E-03 0. -1.
         11   -1    0    0    0    0 -0.00000000000E+00 -0.00000000000E+00 -0.45593999997E+02  0.45594000000E+02  0.51100000000E-03 0.  1.
    9900012    2    1    2    0    0 -0.37479676421E+02 -0.10322447327E+02 -0.11911636389E+02  0.50528854105E+02  0.29999982538E+02 0.  0.
         12    1    1    2    0    0  0.37479676421E+02  0.10322447327E+02  0.11911636389E+02  0.40659145895E+02  0.00000000000E+00 0. -1.
         11    1    3    3    0    0 -0.74398627978E+01  0.29802339587E+01  0.31389139617E+01  0.86073302492E+01  0.51100000000E-03 0. -1.
        -11    1    3    3    0    0 -0.11711728118E+02  0.54267122489E+01 -0.54889305679E+01  0.14026479971E+02  0.51100000000E-03 0.  1.
        -12    1    3    3    0    0 -0.18328085505E+02 -0.18729393535E+02 -0.95616197827E+01  0.27895043885E+02  0.00000000000E+00 0.  1.
</event>
<event>
 7    1  0.5929313E-013  0.5052886E+02  0.7816164E-02  0.1300439E+00
        -11   -1    0    0    0    0  0.00000000000E+00  0.00000000000E+00  0.45593999997E+02  0.45594000000E+02  0.51100000000E-03 0. -1.
         11   -1    0    0    0    0 -0.00000000000E+00 -0.00000000000E+00 -0.45593999997E+02  0.45594000000E+02  0.51100000000E-03 0.  1.
    9900012    2    1    2    0    0  0.12548672666E+01  0.33406939330E+02 -0.23142329521E+02  0.50528859540E+02  0.29999999059E+02 0.  0.
         12    1    1    2    0    0 -0.12548672666E+01 -0.33406939330E+02  0.23142329521E+02  0.40659140460E+02  0.00000000000E+00 0. -1.
         11    1    3    3    0    0 -0.15154859587E+00 -0.15569511022E+01  0.14071563662E+00  0.15706256279E+01  0.51100000000E-03 0. -1.
        -11    1    3    3    0    0 -0.11129377439E+02  0.11139195976E+02 -0.11862644839E+02  0.19714641058E+02  0.51100000000E-03 0.  1.
        -12    1    3    3    0    0  0.12535793302E+02  0.23824694456E+02 -0.11420400318E+02  0.29243592855E+02  0.00000000000E+00 0.  1.
</event>
<event>
 7    1  0.5408841E-013  0.5052886E+02  0.7816164E-02  0.1300439E+00
        -11   -1    0    0    0    0  0.00000000000E+00  0.00000000000E+00  0.45593999997E+02  0.45594000000E+02  0.51100000000E-03 0.  1.
         11   -1    0    0    0    0 -0.00000000000E+00 -0.00000000000E+00 -0.45593999997E+02  0.45594000000E+02  0.51100000000E-03 0. -1.
    9900012    2    1    2    0    0 -0.20731088475E+02 -0.55742293359E+01  0.34529920744E+02  0.50528862175E+02  0.30000007067E+02 0.  0.
         12    1    1    2    0    0  0.20731088475E+02  0.55742293359E+01 -0.34529920744E+02  0.40659137825E+02  0.00000000000E+00 0. -1.
         11    1    3    3    0    0 -0.52949885760E+00 -0.76843615286E+01  0.19286774680E+02  0.20767991211E+02  0.51100000000E-03 0. -1.
        -11    1    3    3    0    0 -0.56250490371E+01 -0.17065355184E+01  0.13334351003E+02  0.14572520615E+02  0.51100000000E-03 0.  1.
         12    1    3    3    0    0 -0.14576540581E+02  0.38166677111E+01  0.19087950613E+01  0.15188350348E+02  0.00000000000E+00 0. -1.
</event>
<event>
 7    1  0.5408841E-013  0.5052888E+02  0.7816164E-02  0.1300439E+00
        -11   -1    0    0    0    0  0.00000000000E+00  0.00000000000E+00  0.45593999997E+02  0.45594000000E+02  0.51100000000E-03 0.  1.
         11   -1    0    0    0    0 -0.00000000000E+00 -0.00000000000E+00 -0.45593999997E+02  0.45594000000E+02  0.51100000000E-03 0. -1.
    9900012    2    1    2    0    0  0.42867122964E+01  0.13724771741E+00  0.40432285085E+02  0.50528875361E+02  0.30000047146E+02 0.  0.
         12    1    1    2    0    0 -0.42867122964E+01 -0.13724771741E+00 -0.40432285085E+02  0.40659124639E+02  0.00000000000E+00 0. -1.
         11    1    3    3    0    0 -0.44463682928E+01 -0.73399459496E+01  0.20976356210E+02  0.22663903407E+02  0.51100000000E-03 0. -1.
        -11    1    3    3    0    0 -0.28245091099E+01  0.65258537362E+01  0.29638513884E+01  0.77038324237E+01  0.51100000000E-03 0.  1.
        -12    1    3    3    0    0  0.11557589699E+02  0.95133993079E+00  0.16492077487E+02  0.20161139530E+02  0.00000000000E+00 0.  1.
</event>
<event>
 7    1  0.5408841E-013  0.5052886E+02  0.7816164E-02  0.1300439E+00
        -11   -1    0    0    0    0  0.00000000000E+00  0.00000000000E+00  0.45593999997E+02  0.45594000000E+02  0.51100000000E-03 0. -1.
         11   -1    0    0    0    0 -0.00000000000E+00 -0.00000000000E+00 -0.45593999997E+02  0.45594000000E+02  0.51100000000E-03 0.  1.
    9900012    2    1    2    0    0  0.19156934951E+02 -0.14542986169E+02 -0.32782294886E+02  0.50528862510E+02  0.30000008085E+02 0.  0.
         12    1    1    2    0    0 -0.19156934951E+02  0.14542986169E+02  0.32782294886E+02  0.40659137490E+02  0.00000000000E+00 0. -1.
         11    1    3    3    0    0  0.17295983670E+02 -0.10131170900E+01 -0.11645423662E+02  0.20875664058E+02  0.51100000000E-03 0. -1.
        -11    1    3    3    0    0  0.48850689740E+01 -0.13901010499E+00 -0.56249992580E+00  0.49193118541E+01  0.51100000000E-03 0.  1.
        -12    1    3    3    0    0 -0.30241176929E+01 -0.13390858974E+02 -0.20574371299E+02  0.24733886598E+02  0.00000000000E+00 0.  1.
</event>
<event>
 7    1  0.5408841E-013  0.5052886E+02  0.7816164E-02  0.1300439E+00
        -11   -1    0    0    0    0  0.00000000000E+00  0.00000000000E+00  0.45593999997E+02  0.45594000000E+02  0.51100000000E-03 0. -1.
         11   -1    0    0    0    0 -0.00000000000E+00 -0.00000000000E+00 -0.45593999997E+02  0.45594000000E+02  0.51100000000E-03 0.  1.
    9900012    2    1    2    0    0  0.12506598492E+02 -0.21442068140E+02 -0.32202303118E+02  0.50528860584E+02  0.30000002231E+02 0.  0.
         12    1    1    2    0    0 -0.12506598492E+02  0.21442068140E+02  0.32202303118E+02  0.40659139416E+02  0.00000000000E+00 0. -1.
         11    1    3    3    0    0  0.15665782252E+02 -0.13747284357E+02 -0.21268331038E+02  0.29778288504E+02  0.51100000000E-03 0. -1.
        -11    1    3    3    0    0  0.41727331634E+01 -0.84538482369E+01 -0.92118913644E+01  0.13180978523E+02  0.51100000000E-03 0.  1.
         12    1    3    3    0    0 -0.73319169242E+01  0.75906445412E+00 -0.17220807150E+01  0.75695935569E+01  0.00000000000E+00 0. -1.
</event>
<event>
 7    1  0.5408841E-013  0.5052884E+02  0.7816164E-02  0.1300439E+00
        -11   -1    0    0    0    0  0.00000000000E+00  0.00000000000E+00  0.45593999997E+02  0.45594000000E+02  0.51100000000E-03 0. -1.
         11   -1    0    0    0    0 -0.00000000000E+00 -0.00000000000E+00 -0.45593999997E+02  0.45594000000E+02  0.51100000000E-03 0.  1.
    9900012    2    1    2    0    0 -0.88150734972E+01  0.36467235889E+01 -0.39524205436E+02  0.50528844462E+02  0.29999953227E+02 0.  0.
         12    1    1    2    0    0  0.88150734972E+01 -0.36467235889E+01  0.39524205436E+02  0.40659155538E+02  0.00000000000E+00 0. -1.
         11    1    3    3    0    0 -0.13222229036E+01 -0.34075967692E+01 -0.86587823699E+01  0.93986436010E+01  0.51100000000E-03 0. -1.
        -11    1    3    3    0    0  0.68946424782E+01  0.47063590061E+01 -0.23207825174E+02  0.24663516772E+02  0.51100000000E-03 0.  1.
         12    1    3    3    0    0 -0.14387493072E+02  0.23479613521E+01 -0.76575978918E+01  0.16466684089E+02  0.00000000000E+00 0. -1.
</event>
<event>
 7    1  0.5408841E-013  0.5052884E+02  0.7816164E-02  0.1300439E+00
        -11   -1    0    0    0    0  0.00000000000E+00  0.00000000000E+00  0.45593999997E+02  0.45594000000E+02  0.51100000000E-03 0.  1.
         11   -1    0    0    0    0 -0.00000000000E+00 -0.00000000000E+00 -0.45593999997E+02  0.45594000000E+02  0.51100000000E-03 0. -1.
    9900012    2    1    2    0    0  0.50165084298E+01 -0.22397453557E+02  0.33561223470E+02  0.50528843547E+02  0.29999950446E+02 0.  0.
         12    1    1    2    0    0 -0.50165084298E+01  0.22397453557E+02 -0.33561223470E+02  0.40659156453E+02  0.00000000000E+00 0. -1.
         11    1    3    3    0    0  0.83463853251E+01 -0.19631972540E+02  0.15575580776E+02  0.26413542182E+02  0.51100000000E-03 0. -1.
        -11    1    3    3    0    0 -0.33728788038E+00 -0.80469493314E+01  0.42690290797E+01  0.91154685124E+01  0.51100000000E-03 0.  1.
         12    1    3    3    0    0 -0.29925890149E+01  0.52814683146E+01  0.13716613614E+02  0.14999832853E+02  0.00000000000E+00 0. -1.
</event>
<event>
 7    1  0.5408841E-013  0.5052886E+02  0.7816164E-02  0.1300439E+00
        -11   -1    0    0    0    0  0.00000000000E+00  0.00000000000E+00  0.45593999997E+02  0.45594000000E+02  0.51100000000E-03 0.  1.
         11   -1    0    0    0    0 -0.00000000000E+00 -0.00000000000E+00 -0.45593999997E+02  0.45594000000E+02  0.51100000000E-03 0. -1.
    9900012    2    1    2    0    0  0.18581543663E+02  0.34355081420E+02  0.11296919010E+02  0.50528858797E+02  0.29999996799E+02 0.  0.
         12    1    1    2    0    0 -0.18581543663E+02 -0.34355081420E+02 -0.11296919010E+02  0.40659141203E+02  0.00000000000E+00 0. -1.
         11    1    3    3    0    0  0.55735662345E-01  0.94023210027E-01  0.12066635909E+01  0.12116039414E+01  0.51100000000E-03 0. -1.
        -11    1    3    3    0    0  0.14570813454E+02  0.81671321398E+00  0.33001093830E+01  0.14962163861E+02  0.51100000000E-03 0.  1.
         12    1    3    3    0    0  0.39549945461E+01  0.33444344996E+02  0.67901460360E+01  0.34355090995E+02  0.00000000000E+00 0. -1.
</event>
<event>
 7    1  0.5408841E-013  0.5052886E+02  0.7816164E-02  0.1300439E+00
        -11   -1    0    0    0    0  0.00000000000E+00  0.00000000000E+00  0.45593999997E+02  0.45594000000E+02  0.51100000000E-03 0. -1.
         11   -1    0    0    0    0 -0.00000000000E+00 -0.00000000000E+00 -0.45593999997E+02  0.45594000000E+02  0.51100000000E-03 0.  1.
    9900012    2    1    2    0    0  0.22333389379E+02 -0.26757043700E+02  0.20939104026E+02  0.50528859009E+02  0.29999997444E+02 0.  0.
         12    1    1    2    0    0 -0.22333389379E+02  0.26757043700E+02 -0.20939104026E+02  0.40659140991E+02  0.00000000000E+00 0. -1.
         11    1    3    3    0    0  0.44036720301E+01 -0.20590809088E+02  0.18022960816E+02  0.27716436695E+02  0.51100000000E-03 0. -1.
        -11    1    3    3    0    0  0.15667522160E+02 -0.92215778704E+01  0.44440830920E+01  0.18715197670E+02  0.51100000000E-03 0.  1.
        -12    1    3    3    0    0  0.22621951893E+01  0.30553432581E+01 -0.15279398823E+01  0.40972246440E+01  0.00000000000E+00 0.  1.
</event>
<event>
 7    1  0.5408841E-013  0.5052885E+02  0.7816164E-02  0.1300439E+00
        -11   -1    0    0    0    0  0.00000000000E+00  0.00000000000E+00  0.45593999997E+02  0.45594000000E+02  0.51100000000E-03 0.  1.
         11   -1    0    0    0    0 -0.00000000000E+00 -0.00000000000E+00 -0.45593999997E+02  0.45594000000E+02  0.51100000000E-03 0. -1.
    9900012    2    1    2    0    0 -0.92265040110E+01  0.35830537301E+02  0.16858558808E+02  0.50528846238E+02  0.29999958625E+02 0.  0.
         12    1    1    2    0    0  0.92265040110E+01 -0.35830537301E+02 -0.16858558808E+02  0.40659153762E+02  0.00000000000E+00 0. -1.
         11    1    3    3    0    0 -0.13591652379E+02  0.17440293090E+02  0.93906704427E+00  0.22130944052E+02  0.51100000000E-03 0. -1.
        -11    1    3    3    0    0  0.13464196472E+01  0.16609791846E+02  0.57289524139E+01  0.17621547238E+02  0.51100000000E-03 0.  1.
        -12    1    3    3    0    0  0.30187287212E+01  0.17804523650E+01  0.10190539350E+02  0.10776354947E+02  0.00000000000E+00 0.  1.
</event>
<event>
 7    1  0.5408841E-013  0.5052887E+02  0.7816164E-02  0.1300439E+00
        -11   -1    0    0    0    0  0.00000000000E+00  0.00000000000E+00  0.45593999997E+02  0.45594000000E+02  0.51100000000E-03 0. -1.
         11   -1    0    0    0    0 -0.00000000000E+00 -0.00000000000E+00 -0.45593999997E+02  0.45594000000E+02  0.51100000000E-03 0.  1.
    9900012    2    1    2    0    0 -0.13089612858E+02 -0.37232192057E+02  0.97770625313E+01  0.50528867669E+02  0.30000023767E+02 0.  0.
         12    1    1    2    0    0  0.13089612858E+02  0.37232192057E+02 -0.97770625313E+01  0.40659132331E+02  0.00000000000E+00 0. -1.
         11    1    3    3    0    0  0.17608909069E+01 -0.15789416786E+02  0.13591958629E+02  0.20908078794E+02  0.51100000000E-03 0. -1.
        -11    1    3    3    0    0 -0.11226937201E+01 -0.68900356490E+01  0.41117291785E+01  0.81018114969E+01  0.51100000000E-03 0.  1.
         12    1    3    3    0    0 -0.13727810045E+02 -0.14552739622E+02 -0.79266252760E+01  0.21518977379E+02  0.00000000000E+00 0. -1.
</event>
<event>
 7    1  0.5408841E-013  0.5052886E+02  0.7816164E-02  0.1300439E+00
        -11   -1    0    0    0    0  0.00000000000E+00  0.00000000000E+00  0.45593999997E+02  0.45594000000E+02  0.51100000000E-03 0.  1.
         11   -1    0    0    0    0 -0.00000000000E+00 -0.00000000000E+00 -0.45593999997E+02  0.45594000000E+02  0.51100000000E-03 0. -1.
    9900012    2    1    2    0    0 -0.39838675665E+02 -0.31128764993E+01  0.75070178194E+01  0.50528863322E+02  0.30000010555E+02 0.  0.
         12    1    1    2    0    0  0.39838675665E+02  0.31128764993E+01 -0.75070178194E+01  0.40659136678E+02  0.00000000000E+00 0. -1.
         11    1    3    3    0    0 -0.85227093781E+01  0.11968371235E+02 -0.82944032137E+00  0.14716197086E+02  0.51100000000E-03 0. -1.
        -11    1    3    3    0    0 -0.25600699613E+01 -0.19255483489E+01  0.62883678956E+00  0.32645260942E+01  0.51100000000E-03 0.  1.
         12    1    3    3    0    0 -0.28755896325E+02 -0.13155699386E+02  0.77076213512E+01  0.32548140142E+02  0.00000000000E+00 0. -1.
</event>
<event>
 7    1  0.5408841E-013  0.5052886E+02  0.7816164E-02  0.1300439E+00
        -11   -1    0    0    0    0  0.00000000000E+00  0.00000000000E+00  0.45593999997E+02  0.45594000000E+02  0.51100000000E-03 0.  1.
         11   -1    0    0    0    0 -0.00000000000E+00 -0.00000000000E+00 -0.45593999997E+02  0.45594000000E+02  0.51100000000E-03 0. -1.
    9900012    2    1    2    0    0  0.20532690149E+02 -0.27970190832E+02  0.21195349784E+02  0.50528858440E+02  0.29999995714E+02 0.  0.
         12    1    1    2    0    0 -0.20532690149E+02  0.27970190832E+02 -0.21195349784E+02  0.40659141560E+02  0.00000000000E+00 0. -1.
         11    1    3    3    0    0  0.97497060793E+01  0.99537184360E+00  0.30165312849E+01  0.10254120879E+02  0.51100000000E-03 0. -1.
        -11    1    3    3    0    0  0.13606126497E+02 -0.11314873070E+02  0.61723617562E+01  0.18741693646E+02  0.51100000000E-03 0.  1.
        -12    1    3    3    0    0 -0.28231424263E+01 -0.17650689606E+02  0.12006456743E+02  0.21533043915E+02  0.00000000000E+00 0.  1.
</event>
<event>
 7    1  0.5408841E-013  0.5052887E+02  0.7816164E-02  0.1300439E+00
        -11   -1    0    0    0    0  0.00000000000E+00  0.00000000000E+00  0.45593999997E+02  0.45594000000E+02  0.51100000000E-03 0.  1.
         11   -1    0    0    0    0 -0.00000000000E+00 -0.00000000000E+00 -0.45593999997E+02  0.45594000000E+02  0.51100000000E-03 0. -1.
    9900012    2    1    2    0    0  0.72943859177E+01 -0.28912195644E+02  0.27641311181E+02  0.50528865643E+02  0.30000017608E+02 0.  0.
         12    1    1    2    0    0 -0.72943859177E+01  0.28912195644E+02 -0.27641311181E+02  0.40659134357E+02  0.00000000000E+00 0. -1.
         11    1    3    3    0    0  0.62914834565E+00 -0.18544199367E+01  0.22831368602E+00  0.19715040813E+01  0.51100000000E-03 0. -1.
        -11    1    3    3    0    0 -0.99918177231E+01 -0.18979663183E+02  0.16561413142E+02  0.27098790406E+02  0.51100000000E-03 0.  1.
         12    1    3    3    0    0  0.16657055295E+02 -0.80781125245E+01  0.10851584353E+02  0.21458571156E+02  0.00000000000E+00 0. -1.
</event>
<event>
 7    1  0.5408841E-013  0.5052887E+02  0.7816164E-02  0.1300439E+00
        -11   -1    0    0    0    0  0.00000000000E+00  0.00000000000E+00  0.45593999997E+02  0.45594000000E+02  0.51100000000E-03 0.  1.
         11   -1    0    0    0    0 -0.00000000000E+00 -0.00000000000E+00 -0.45593999997E+02  0.45594000000E+02  0.51100000000E-03 0. -1.
    9900012    2    1    2    0    0  0.29364740610E+02 -0.25931141295E+02  0.10883615234E+02  0.50528866210E+02  0.30000019332E+02 0.  0.
         12    1    1    2    0    0 -0.29364740610E+02  0.25931141295E+02 -0.10883615234E+02  0.40659133790E+02  0.00000000000E+00 0. -1.
         11    1    3    3    0    0  0.23031078757E+01  0.36375706207E+01  0.27990904812E+01  0.51352832142E+01  0.51100000000E-03 0. -1.
        -11    1    3    3    0    0 -0.76911300650E+00 -0.26409766859E+01  0.60136575090E+01  0.66128941901E+01  0.51100000000E-03 0.  1.
         12    1    3    3    0    0  0.27830745741E+02 -0.26927735230E+02  0.20708672439E+01  0.38780688806E+02  0.00000000000E+00 0. -1.
</event>
<event>
 7    1  0.5408841E-013  0.5052887E+02  0.7816164E-02  0.1300439E+00
        -11   -1    0    0    0    0  0.00000000000E+00  0.00000000000E+00  0.45593999997E+02  0.45594000000E+02  0.51100000000E-03 0.  1.
         11   -1    0    0    0    0 -0.00000000000E+00 -0.00000000000E+00 -0.45593999997E+02  0.45594000000E+02  0.51100000000E-03 0. -1.
    9900012    2    1    2    0    0  0.21771697641E+02  0.68928137795E+01  0.33639963897E+02  0.50528869771E+02  0.30000030155E+02 0.  0.
         12    1    1    2    0    0 -0.21771697641E+02 -0.68928137795E+01 -0.33639963897E+02  0.40659130229E+02  0.00000000000E+00 0. -1.
         11    1    3    3    0    0  0.21812425869E+02  0.65652589390E+01  0.16753080531E+02  0.28276319682E+02  0.51100000000E-03 0. -1.
        -11    1    3    3    0    0  0.38715692883E+01 -0.53715418266E+01  0.12261518776E+02  0.13935112246E+02  0.51100000000E-03 0.  1.
        -12    1    3    3    0    0 -0.39122975160E+01  0.56990966670E+01  0.46253645904E+01  0.83174378428E+01  0.00000000000E+00 0.  1.
</event>
<event>
 7    1  0.5408841E-013  0.5052886E+02  0.7816164E-02  0.1300439E+00
        -11   -1    0    0    0    0  0.00000000000E+00  0.00000000000E+00  0.45593999997E+02  0.45594000000E+02  0.51100000000E-03 0.  1.
         11   -1    0    0    0    0 -0.00000000000E+00 -0.00000000000E+00 -0.45593999997E+02  0.45594000000E+02  0.51100000000E-03 0. -1.
    9900012    2    1    2    0    0 -0.14068942188E+02 -0.39247843406E+01  0.37945051279E+02  0.50528856097E+02  0.29999988592E+02 0.  0.
         12    1    1    2    0    0  0.14068942188E+02  0.39247843406E+01 -0.37945051279E+02  0.40659143903E+02  0.00000000000E+00 0. -1.
         11    1    3    3    0    0 -0.42261735508E+01 -0.49824712989E+01  0.94954425769E+01  0.11526013757E+02  0.51100000000E-03 0. -1.
        -11    1    3    3    0    0 -0.71551867899E+01 -0.31905769093E+01  0.31937486075E+02  0.32884335117E+02  0.51100000000E-03 0.  1.
         12    1    3    3    0    0 -0.26875818469E+01  0.42482638675E+01 -0.34878773732E+01  0.61185072234E+01  0.00000000000E+00 0. -1.
</event>
<event>
 7    1  0.5408841E-013  0.5052886E+02  0.7816164E-02  0.1300439E+00
        -11   -1    0    0    0    0  0.00000000000E+00  0.00000000000E+00  0.45593999997E+02  0.45594000000E+02  0.51100000000E-03 0.  1.
         11   -1    0    0    0    0 -0.00000000000E+00 -0.00000000000E+00 -0.45593999997E+02  0.45594000000E+02  0.51100000000E-03 0. -1.
    9900012    2    1    2    0    0 -0.20302805314E+02  0.46013121616E+01  0.34925482142E+02  0.50528864740E+02  0.30000014864E+02 0.  0.
         12    1    1    2    0    0  0.20302805314E+02 -0.46013121616E+01 -0.34925482142E+02  0.40659135260E+02  0.00000000000E+00 0. -1.
         11    1    3    3    0    0 -0.33143865580E+01 -0.10757613240E+02  0.96065020706E+01  0.14798523006E+02  0.51100000000E-03 0. -1.
        -11    1    3    3    0    0 -0.75471064763E+01  0.15859511990E+01  0.12464525444E+02  0.14657368529E+02  0.51100000000E-03 0.  1.
         12    1    3    3    0    0 -0.94413122802E+01  0.13772974202E+02  0.12854454627E+02  0.21072973205E+02  0.00000000000E+00 0. -1.
</event>
<event>
 7    1  0.5408841E-013  0.5052886E+02  0.7816164E-02  0.1300439E+00
        -11   -1    0    0    0    0  0.00000000000E+00  0.00000000000E+00  0.45593999997E+02  0.45594000000E+02  0.51100000000E-03 0.  1.
         11   -1    0    0    0    0 -0.00000000000E+00 -0.00000000000E+00 -0.45593999997E+02  0.45594000000E+02  0.51100000000E-03 0. -1.
    9900012    2    1    2    0    0  0.22979344129E+02  0.23464198486E+02  0.23969713399E+02  0.50528855547E+02  0.29999986921E+02 0.  0.
         12    1    1    2    0    0 -0.22979344129E+02 -0.23464198486E+02 -0.23969713399E+02  0.40659144453E+02  0.00000000000E+00 0. -1.
         11    1    3    3    0    0  0.71076613652E+01  0.26617750942E+01  0.61923784121E+01  0.97953788796E+01  0.51100000000E-03 0. -1.
        -11    1    3    3    0    0  0.21873059846E+02  0.10168614908E+02  0.92211324482E+01  0.25823647304E+02  0.51100000000E-03 0.  1.
         12    1    3    3    0    0 -0.60013770826E+01  0.10633808484E+02  0.85562025390E+01  0.14909829364E+02  0.00000000000E+00 0. -1.
</event>
<event>
 7    1  0.5408841E-013  0.5052887E+02  0.7816164E-02  0.1300439E+00
        -11   -1    0    0    0    0  0.00000000000E+00  0.00000000000E+00  0.45593999997E+02  0.45594000000E+02  0.51100000000E-03 0.  1.
         11   -1    0    0    0    0 -0.00000000000E+00 -0.00000000000E+00 -0.45593999997E+02  0.45594000000E+02  0.51100000000E-03 0. -1.
    9900012    2    1    2    0    0  0.20496548411E+02 -0.35023695713E+02 -0.25292657618E+01  0.50528868880E+02  0.30000027447E+02 0.  0.
         12    1    1    2    0    0 -0.20496548411E+02  0.35023695713E+02  0.25292657618E+01  0.40659131120E+02  0.00000000000E+00 0. -1.
         11    1    3    3    0    0  0.65953438547E+01 -0.93880181962E+01 -0.28300219994E+01  0.11817041550E+02  0.51100000000E-03 0. -1.
        -11    1    3    3    0    0  0.35018681561E+01 -0.24356276092E+02  0.78152484265E+01  0.25818004839E+02  0.51100000000E-03 0.  1.
         12    1    3    3    0    0  0.10399336400E+02 -0.12794014252E+01 -0.75144921889E+01  0.12893822491E+02  0.00000000000E+00 0. -1.
</event>
<event>
 7    1  0.5408841E-013  0.5052885E+02  0.7816164E-02  0.1300439E+00
        -11   -1    0    0    0    0  0.00000000000E+00  0.00000000000E+00  0.45593999997E+02  0.45594000000E+02  0.51100000000E-03 0. -1.
         11   -1    0    0    0    0 -0.00000000000E+00 -0.00000000000E+00 -0.45593999997E+02  0.45594000000E+02  0.51100000000E-03 0.  1.
    9900012    2    1    2    0    0 -0.22562071998E+02 -0.31918850628E+02 -0.11194029614E+02  0.50528850756E+02  0.29999972357E+02 0.  0.
         12    1    1    2    0    0  0.22562071998E+02  0.31918850628E+02  0.11194029614E+02  0.40659149244E+02  0.00000000000E+00 0. -1.
         11    1    3    3    0    0  0.95894041439E+00 -0.64794207886E+01  0.27788628370E+01  0.71150923678E+01  0.51100000000E-03 0. -1.
        -11    1    3    3    0    0 -0.84354993391E+01 -0.21918082096E+02 -0.15137471690E+01  0.23534047732E+02  0.51100000000E-03 0.  1.
         12    1    3    3    0    0 -0.15085513073E+02 -0.35213477433E+01 -0.12459145282E+02  0.19879710656E+02  0.00000000000E+00 0. -1.
</event>
<event>
 7    1  0.5408841E-013  0.5052885E+02  0.7816164E-02  0.1300439E+00
        -11   -1    0    0    0    0  0.00000000000E+00  0.00000000000E+00  0.45593999997E+02  0.45594000000E+02  0.51100000000E-03 0.  1.
         11   -1    0    0    0    0 -0.00000000000E+00 -0.00000000000E+00 -0.45593999997E+02  0.45594000000E+02  0.51100000000E-03 0. -1.
    9900012    2    1    2    0    0 -0.19358009820E+02  0.32364074053E+02  0.15198705766E+02  0.50528849856E+02  0.29999969623E+02 0.  0.
         12    1    1    2    0    0  0.19358009820E+02 -0.32364074053E+02 -0.15198705766E+02  0.40659150144E+02  0.00000000000E+00 0. -1.
         11    1    3    3    0    0  0.48291351743E+00  0.61590727681E+01 -0.28840681843E+01  0.68180079481E+01  0.51100000000E-03 0. -1.
        -11    1    3    3    0    0 -0.99772225829E+01  0.24281861256E+02  0.42200839766E+01  0.26588773299E+02  0.51100000000E-03 0.  1.
         12    1    3    3    0    0 -0.98637007542E+01  0.19231400284E+01  0.13862689974E+02  0.17122068609E+02  0.00000000000E+00 0. -1.
</event>
<event>
 7    1  0.5408841E-013  0.5052885E+02  0.7816164E-02  0.1300439E+00
        -11   -1    0    0    0    0  0.00000000000E+00  0.00000000000E+00  0.45593999997E+02  0.45594000000E+02  0.51100000000E-03 0.  1.
         11   -1    0    0    0    0 -0.00000000000E+00 -0.00000000000E+00 -0.45593999997E+02  0.45594000000E+02  0.51100000000E-03 0. -1.
    9900012    2    1    2    0    0  0.11486509617E+02  0.38833816453E+02  0.36278147938E+01  0.50528852891E+02  0.29999978847E+02 0.  0.
         12    1    1    2    0    0 -0.11486509617E+02 -0.38833816453E+02 -0.36278147938E+01  0.40659147109E+02  0.00000000000E+00 0. -1.
         11    1    3    3    0    0  0.10949823188E+02  0.11084511082E+02  0.59998138746E+01  0.16696190601E+02  0.51100000000E-03 0. -1.
        -11    1    3    3    0    0  0.97642194509E+01  0.15291308184E+02 -0.25971782122E+01  0.18327831906E+02  0.51100000000E-03 0.  1.
         12    1    3    3    0    0 -0.92275330224E+01  0.12457997187E+02  0.22517913138E+00  0.15504830384E+02  0.00000000000E+00 0. -1.
</event>
<event>
 7    1  0.5408841E-013  0.5052879E+02  0.7816164E-02  0.1300439E+00
        -11   -1    0    0    0    0  0.00000000000E+00  0.00000000000E+00  0.45593999997E+02  0.45594000000E+02  0.51100000000E-03 0.  1.
         11   -1    0    0    0    0 -0.00000000000E+00 -0.00000000000E+00 -0.45593999997E+02  0.45594000000E+02  0.51100000000E-03 0. -1.
    9900012    2    1    2    0    0 -0.72185951722E+01  0.19072219633E+02  0.35175472409E+02  0.50528787794E+02  0.29999780978E+02 0.  0.
         12    1    1    2    0    0  0.72185951722E+01 -0.19072219633E+02 -0.35175472409E+02  0.40659212206E+02  0.00000000000E+00 0. -1.
         11    1    3    3    0    0 -0.11433374848E+02  0.39721071441E+01  0.13765031134E+02  0.18329642058E+02  0.51100000000E-03 0. -1.
        -11    1    3    3    0    0  0.48132471896E+01  0.24165661119E+01  0.18369030601E+02  0.19142320281E+02  0.51100000000E-03 0.  1.
         12    1    3    3    0    0 -0.59846751395E+00  0.12683546377E+02  0.30414106745E+01  0.13056825455E+02  0.00000000000E+00 0. -1.
</event>
<event>
 7    1  0.5408841E-013  0.5052886E+02  0.7816164E-02  0.1300439E+00
        -11   -1    0    0    0    0  0.00000000000E+00  0.00000000000E+00  0.45593999997E+02  0.45594000000E+02  0.51100000000E-03 0. -1.
         11   -1    0    0    0    0 -0.00000000000E+00 -0.00000000000E+00 -0.45593999997E+02  0.45594000000E+02  0.51100000000E-03 0.  1.
    9900012    2    1    2    0    0 -0.32158350270E+02 -0.70907323857E+01 -0.23848017648E+02  0.50528856827E+02  0.29999990812E+02 0.  0.
         12    1    1    2    0    0  0.32158350270E+02  0.70907323857E+01  0.23848017648E+02  0.40659143173E+02  0.00000000000E+00 0. -1.
         11    1    3    3    0    0 -0.13721004496E+02 -0.60989190911E+01 -0.88981323620E+01  0.17453926156E+02  0.51100000000E-03 0. -1.
        -11    1    3    3    0    0 -0.22827273606E+02 -0.35781509139E+01 -0.15685293253E+02  0.27926976366E+02  0.51100000000E-03 0.  1.
         12    1    3    3    0    0  0.43899278325E+01  0.25863376193E+01  0.73540796681E+00  0.51479543057E+01  0.00000000000E+00 0. -1.
</event>
<event>
 7    1  0.5408841E-013  0.5052886E+02  0.7816164E-02  0.1300439E+00
        -11   -1    0    0    0    0  0.00000000000E+00  0.00000000000E+00  0.45593999997E+02  0.45594000000E+02  0.51100000000E-03 0. -1.
         11   -1    0    0    0    0 -0.00000000000E+00 -0.00000000000E+00 -0.45593999997E+02  0.45594000000E+02  0.51100000000E-03 0.  1.
    9900012    2    1    2    0    0  0.17461289519E+02 -0.28800906107E+02 -0.22776671564E+02  0.50528860907E+02  0.30000003213E+02 0.  0.
         12    1    1    2    0    0 -0.17461289519E+02  0.28800906107E+02  0.22776671564E+02  0.40659139093E+02  0.00000000000E+00 0. -1.
         11    1    3    3    0    0  0.65501677343E+01 -0.26574219546E+01 -0.81676989608E+01  0.10801754273E+02  0.51100000000E-03 0. -1.
        -11    1    3    3    0    0  0.75453514063E+00 -0.13713597618E+02 -0.18662409527E+02  0.23171482743E+02  0.51100000000E-03 0.  1.
         12    1    3    3    0    0  0.10156586644E+02 -0.12429886535E+02  0.40534369241E+01  0.16555623891E+02  0.00000000000E+00 0. -1.
</event>
<event>
 7    1  0.5408841E-013  0.5052886E+02  0.7816164E-02  0.1300439E+00
        -11   -1    0    0    0    0  0.00000000000E+00  0.00000000000E+00  0.45593999997E+02  0.45594000000E+02  0.51100000000E-03 0.  1.
         11   -1    0    0    0    0 -0.00000000000E+00 -0.00000000000E+00 -0.45593999997E+02  0.45594000000E+02  0.51100000000E-03 0. -1.
    9900012    2    1    2    0    0 -0.16179039377E+02  0.31767830615E+02  0.19550178501E+02  0.50528857650E+02  0.29999993314E+02 0.  0.
         12    1    1    2    0    0  0.16179039377E+02 -0.31767830615E+02 -0.19550178501E+02  0.40659142350E+02  0.00000000000E+00 0. -1.
         11    1    3    3    0    0 -0.29455151847E+01  0.76102019720E+00  0.29274205961E+01  0.42219667279E+01  0.51100000000E-03 0. -1.
        -11    1    3    3    0    0 -0.18821935304E+02  0.31557656107E+02  0.10988937209E+02  0.38352413859E+02  0.51100000000E-03 0.  1.
         12    1    3    3    0    0  0.55884111113E+01 -0.55084568902E+00  0.56338206959E+01  0.79544770637E+01  0.00000000000E+00 0. -1.
</event>
<event>
 7    1  0.5408841E-013  0.5052886E+02  0.7816164E-02  0.1300439E+00
        -11   -1    0    0    0    0  0.00000000000E+00  0.00000000000E+00  0.45593999997E+02  0.45594000000E+02  0.51100000000E-03 0.  1.
         11   -1    0    0    0    0 -0.00000000000E+00 -0.00000000000E+00 -0.45593999997E+02  0.45594000000E+02  0.51100000000E-03 0. -1.
    9900012    2    1    2    0    0 -0.37134025064E+02  0.14585441544E+02  0.78418618547E+01  0.50528859333E+02  0.29999998427E+02 0.  0.
         12    1    1    2    0    0  0.37134025064E+02 -0.14585441544E+02 -0.78418618547E+01  0.40659140667E+02  0.00000000000E+00 0. -1.
         11    1    3    3    0    0 -0.18290434824E+01  0.44524130153E+01  0.30529360289E+01  0.56999824892E+01  0.51100000000E-03 0. -1.
        -11    1    3    3    0    0 -0.25347696181E+02  0.96450526244E+01  0.14634664084E+02  0.30817302525E+02  0.51100000000E-03 0.  1.
         12    1    3    3    0    0 -0.99572853998E+01  0.48797590487E+00 -0.98457382583E+01  0.14011574318E+02  0.00000000000E+00 0. -1.
</event>
<event>
 7    1  0.5408841E-013  0.5052885E+02  0.7816164E-02  0.1300439E+00
        -11   -1    0    0    0    0  0.00000000000E+00  0.00000000000E+00  0.45593999997E+02  0.45594000000E+02  0.51100000000E-03 0.  1.
         11   -1    0    0    0    0 -0.00000000000E+00 -0.00000000000E+00 -0.45593999997E+02  0.45594000000E+02  0.51100000000E-03 0. -1.
    9900012    2    1    2    0    0  0.36751191943E+02 -0.16665346740E+02  0.49782190633E+01  0.50528849047E+02  0.29999967163E+02 0.  0.
         12    1    1    2    0    0 -0.36751191943E+02  0.16665346740E+02 -0.49782190633E+01  0.40659150953E+02  0.00000000000E+00 0. -1.
         11    1    3    3    0    0  0.36426137213E+02 -0.65802495165E+01 -0.59816813161E+00  0.37020547826E+02  0.51100000000E-03 0. -1.
        -11    1    3    3    0    0  0.16541628784E+01 -0.41751364899E-01  0.23537613944E+01  0.28771845557E+01  0.51100000000E-03 0.  1.
        -12    1    3    3    0    0 -0.13291081483E+01 -0.10043345858E+02  0.32226258005E+01  0.10631116665E+02  0.00000000000E+00 0.  1.
</event>
<event>
 7    1  0.5408841E-013  0.5052886E+02  0.7816164E-02  0.1300439E+00
        -11   -1    0    0    0    0  0.00000000000E+00  0.00000000000E+00  0.45593999997E+02  0.45594000000E+02  0.51100000000E-03 0. -1.
         11   -1    0    0    0    0 -0.00000000000E+00 -0.00000000000E+00 -0.45593999997E+02  0.45594000000E+02  0.51100000000E-03 0.  1.
    9900012    2    1    2    0    0  0.15514692638E+02  0.23791750565E+02 -0.29093174153E+02  0.50528857548E+02  0.29999993003E+02 0.  0.
         12    1    1    2    0    0 -0.15514692638E+02 -0.23791750565E+02  0.29093174153E+02  0.40659142452E+02  0.00000000000E+00 0. -1.
         11    1    3    3    0    0  0.20308841437E+02  0.14961143980E+02 -0.11097422974E+02  0.27557896629E+02  0.51100000000E-03 0. -1.
        -11    1    3    3    0    0  0.80623544941E-01  0.78327747253E+01 -0.15582988253E+02  0.17440997196E+02  0.51100000000E-03 0.  1.
        -12    1    3    3    0    0 -0.48747723446E+01  0.99783186033E+00 -0.24127629266E+01  0.55299637226E+01  0.00000000000E+00 0.  1.
</event>
<event>
 7    1  0.5408841E-013  0.5052886E+02  0.7816164E-02  0.1300439E+00
        -11   -1    0    0    0    0  0.00000000000E+00  0.00000000000E+00  0.45593999997E+02  0.45594000000E+02  0.51100000000E-03 0.  1.
         11   -1    0    0    0    0 -0.00000000000E+00 -0.00000000000E+00 -0.45593999997E+02  0.45594000000E+02  0.51100000000E-03 0. -1.
    9900012    2    1    2    0    0 -0.17682820367E+02  0.34819236613E+02  0.11318303551E+02  0.50528863638E+02  0.30000011515E+02 0.  0.
         12    1    1    2    0    0  0.17682820367E+02 -0.34819236613E+02 -0.11318303551E+02  0.40659136362E+02  0.00000000000E+00 0. -1.
         11    1    3    3    0    0 -0.70125267000E+01  0.12119220143E+02 -0.61216090387E+01  0.15281528885E+02  0.51100000000E-03 0. -1.
        -11    1    3    3    0    0 -0.38858909515E+00  0.14989891258E+02  0.19513615512E+01  0.15121364144E+02  0.51100000000E-03 0.  1.
        -12    1    3    3    0    0 -0.10281704572E+02  0.77101252116E+01  0.15488551038E+02  0.20125970609E+02  0.00000000000E+00 0.  1.
</event>
<event>
 7    1  0.5408841E-013  0.5052886E+02  0.7816164E-02  0.1300439E+00
        -11   -1    0    0    0    0  0.00000000000E+00  0.00000000000E+00  0.45593999997E+02  0.45594000000E+02  0.51100000000E-03 0.  1.
         11   -1    0    0    0    0 -0.00000000000E+00 -0.00000000000E+00 -0.45593999997E+02  0.45594000000E+02  0.51100000000E-03 0. -1.
    9900012    2    1    2    0    0  0.17970274931E+02 -0.36265794234E+02  0.38764511536E+01  0.50528862207E+02  0.30000007164E+02 0.  0.
         12    1    1    2    0    0 -0.17970274931E+02  0.36265794234E+02 -0.38764511536E+01  0.40659137793E+02  0.00000000000E+00 0. -1.
         11    1    3    3    0    0  0.26052728062E+01 -0.46737879558E+01 -0.67704718136E+01  0.86296598479E+01  0.51100000000E-03 0. -1.
        -11    1    3    3    0    0  0.10327544715E+02 -0.10321014827E+02 -0.45304717423E+01  0.15287468769E+02  0.51100000000E-03 0.  1.
         12    1    3    3    0    0  0.50374574092E+01 -0.21270991452E+02  0.15177394710E+02  0.26611733590E+02  0.00000000000E+00 0. -1.
</event>
<event>
 7    1  0.5408841E-013  0.5052885E+02  0.7816164E-02  0.1300439E+00
        -11   -1    0    0    0    0  0.00000000000E+00  0.00000000000E+00  0.45593999997E+02  0.45594000000E+02  0.51100000000E-03 0.  1.
         11   -1    0    0    0    0 -0.00000000000E+00 -0.00000000000E+00 -0.45593999997E+02  0.45594000000E+02  0.51100000000E-03 0. -1.
    9900012    2    1    2    0    0  0.16949264589E+02 -0.28634947647E+02  0.23365111781E+02  0.50528852870E+02  0.29999978782E+02 0.  0.
         12    1    1    2    0    0 -0.16949264589E+02  0.28634947647E+02 -0.23365111781E+02  0.40659147130E+02  0.00000000000E+00 0. -1.
         11    1    3    3    0    0 -0.15848411283E+01 -0.73505768079E+01 -0.12609143275E+01  0.76244741467E+01  0.51100000000E-03 0. -1.
        -11    1    3    3    0    0  0.57040051356E+01 -0.53994032731E+01 -0.31228714239E+01  0.84523107186E+01  0.51100000000E-03 0.  1.
         12    1    3    3    0    0  0.12830100581E+02 -0.15884967565E+02  0.27748897533E+02  0.34452068004E+02  0.00000000000E+00 0. -1.
</event>
<event>
 7    1  0.5408841E-013  0.5052886E+02  0.7816164E-02  0.1300439E+00
        -11   -1    0    0    0    0  0.00000000000E+00  0.00000000000E+00  0.45593999997E+02  0.45594000000E+02  0.51100000000E-03 0.  1.
         11   -1    0    0    0    0 -0.00000000000E+00 -0.00000000000E+00 -0.45593999997E+02  0.45594000000E+02  0.51100000000E-03 0. -1.
    9900012    2    1    2    0    0 -0.32972544132E+02 -0.23127280711E+02 -0.55772813856E+01  0.50528857765E+02  0.29999993664E+02 0.  0.
         12    1    1    2    0    0  0.32972544132E+02  0.23127280711E+02  0.55772813856E+01  0.40659142235E+02  0.00000000000E+00 0. -1.
         11    1    3    3    0    0 -0.37015739722E+01  0.20387612167E+01  0.27048486895E+01  0.50174100754E+01  0.51100000000E-03 0. -1.
        -11    1    3    3    0    0 -0.19204610021E+02 -0.29095688898E+01  0.82655494240E+00  0.19441343331E+02  0.51100000000E-03 0.  1.
         12    1    3    3    0    0 -0.10066360138E+02 -0.22256473038E+02 -0.91086850174E+01  0.26070104359E+02  0.00000000000E+00 0. -1.
</event>
<event>
 7    1  0.5408841E-013  0.5052886E+02  0.7816164E-02  0.1300439E+00
        -11   -1    0    0    0    0  0.00000000000E+00  0.00000000000E+00  0.45593999997E+02  0.45594000000E+02  0.51100000000E-03 0. -1.
         11   -1    0    0    0    0 -0.00000000000E+00 -0.00000000000E+00 -0.45593999997E+02  0.45594000000E+02  0.51100000000E-03 0.  1.
    9900012    2    1    2    0    0  0.26808582598E+02 -0.15640347033E+02 -0.26264895252E+02  0.50528864755E+02  0.30000014910E+02 0.  0.
         12    1    1    2    0    0 -0.26808582598E+02  0.15640347033E+02  0.26264895252E+02  0.40659135245E+02  0.00000000000E+00 0. -1.
         11    1    3    3    0    0  0.11082925080E+02 -0.36412972148E+01 -0.63821541770E+01  0.13297449603E+02  0.51100000000E-03 0.  1.
        -11    1    3    3    0    0  0.15456112283E+02  0.35937306486E+01 -0.10589301743E+02  0.19077201538E+02  0.51100000000E-03 0. -1.
        -12    1    3    3    0    0  0.26954523554E+00 -0.15592780467E+02 -0.92934393319E+01  0.18154213614E+02  0.00000000000E+00 0.  1.
</event>
<event>
 7    1  0.5408841E-013  0.5052886E+02  0.7816164E-02  0.1300439E+00
        -11   -1    0    0    0    0  0.00000000000E+00  0.00000000000E+00  0.45593999997E+02  0.45594000000E+02  0.51100000000E-03 0.  1.
         11   -1    0    0    0    0 -0.00000000000E+00 -0.00000000000E+00 -0.45593999997E+02  0.45594000000E+02  0.51100000000E-03 0. -1.
    9900012    2    1    2    0    0  0.26300262841E+02  0.39454718841E+01  0.30755412325E+02  0.50528856365E+02  0.29999989406E+02 0.  0.
         12    1    1    2    0    0 -0.26300262841E+02 -0.39454718841E+01 -0.30755412325E+02  0.40659143635E+02  0.00000000000E+00 0. -1.
         11    1    3    3    0    0 -0.31002971348E+01 -0.15195126843E+01  0.52952611501E+01  0.63214359152E+01  0.51100000000E-03 0. -1.
        -11    1    3    3    0    0 -0.16830661405E+01  0.17212564987E+01 -0.15458341799E+01  0.28609507407E+01  0.51100000000E-03 0.  1.
         12    1    3    3    0    0  0.31083626116E+02  0.37437280698E+01  0.27005985355E+02  0.41346469709E+02  0.00000000000E+00 0. -1.
</event>
<event>
 7    1  0.5408841E-013  0.5052886E+02  0.7816164E-02  0.1300439E+00
        -11   -1    0    0    0    0  0.00000000000E+00  0.00000000000E+00  0.45593999997E+02  0.45594000000E+02  0.51100000000E-03 0.  1.
         11   -1    0    0    0    0 -0.00000000000E+00 -0.00000000000E+00 -0.45593999997E+02  0.45594000000E+02  0.51100000000E-03 0. -1.
    9900012    2    1    2    0    0  0.26114617935E+02 -0.18566028861E+00  0.31163406651E+02  0.50528860145E+02  0.30000000896E+02 0.  0.
         12    1    1    2    0    0 -0.26114617935E+02  0.18566028861E+00 -0.31163406651E+02  0.40659139855E+02  0.00000000000E+00 0. -1.
         11    1    3    3    0    0  0.34389281476E+01 -0.15455074921E+01 -0.41708729879E+01  0.56223662238E+01  0.51100000000E-03 0. -1.
        -11    1    3    3    0    0  0.19412879124E+02  0.29700410366E+01  0.16283695619E+02  0.25511561358E+02  0.51100000000E-03 0.  1.
         12    1    3    3    0    0  0.32628106636E+01 -0.16101938331E+01  0.19050584020E+02  0.19394932563E+02  0.00000000000E+00 0. -1.
</event>
<event>
 7    1  0.5408841E-013  0.5052886E+02  0.7816164E-02  0.1300439E+00
        -11   -1    0    0    0    0  0.00000000000E+00  0.00000000000E+00  0.45593999997E+02  0.45594000000E+02  0.51100000000E-03 0. -1.
         11   -1    0    0    0    0 -0.00000000000E+00 -0.00000000000E+00 -0.45593999997E+02  0.45594000000E+02  0.51100000000E-03 0.  1.
    9900012    2    1    2    0    0  0.65962733151E+01  0.40024964365E+02  0.27671684101E+01  0.50528858161E+02  0.29999994866E+02 0.  0.
         12    1    1    2    0    0 -0.65962733151E+01 -0.40024964365E+02 -0.27671684101E+01  0.40659141839E+02  0.00000000000E+00 0. -1.
         11    1    3    3    0    0 -0.14896459441E+01 -0.45109548929E+00 -0.48658112282E+01  0.51086839155E+01  0.51100000000E-03 0. -1.
        -11    1    3    3    0    0  0.21414041103E+01  0.19307875204E+02 -0.50038829976E+01  0.20060371426E+02  0.51100000000E-03 0.  1.
         12    1    3    3    0    0  0.59445151489E+01  0.21168184651E+02  0.12636862636E+02  0.25359802819E+02  0.00000000000E+00 0. -1.
</event>
<event>
 7    1  0.5408841E-013  0.5052886E+02  0.7816164E-02  0.1300439E+00
        -11   -1    0    0    0    0  0.00000000000E+00  0.00000000000E+00  0.45593999997E+02  0.45594000000E+02  0.51100000000E-03 0.  1.
         11   -1    0    0    0    0 -0.00000000000E+00 -0.00000000000E+00 -0.45593999997E+02  0.45594000000E+02  0.51100000000E-03 0. -1.
    9900012    2    1    2    0    0  0.11656558935E+02 -0.30328681236E+02  0.24443024132E+02  0.50528859571E+02  0.29999999151E+02 0.  0.
         12    1    1    2    0    0 -0.11656558935E+02  0.30328681236E+02 -0.24443024132E+02  0.40659140429E+02  0.00000000000E+00 0. -1.
         11    1    3    3    0    0 -0.13534175974E+01 -0.31014951726E+01 -0.87363276584E+00  0.34948885489E+01  0.51100000000E-03 0. -1.
        -11    1    3    3    0    0  0.93950072296E+01 -0.30211067144E+02  0.27447635079E+02  0.41884930590E+02  0.51100000000E-03 0.  1.
         12    1    3    3    0    0  0.36149693025E+01  0.29838810801E+01 -0.21309781817E+01  0.51490404319E+01  0.00000000000E+00 0. -1.
</event>
<event>
 7    1  0.5408841E-013  0.5052887E+02  0.7816164E-02  0.1300439E+00
        -11   -1    0    0    0    0  0.00000000000E+00  0.00000000000E+00  0.45593999997E+02  0.45594000000E+02  0.51100000000E-03 0.  1.
         11   -1    0    0    0    0 -0.00000000000E+00 -0.00000000000E+00 -0.45593999997E+02  0.45594000000E+02  0.51100000000E-03 0. -1.
    9900012    2    1    2    0    0 -0.14678724198E+02  0.32749684980E+02  0.19109112979E+02  0.50528868071E+02  0.30000024989E+02 0.  0.
         12    1    1    2    0    0  0.14678724198E+02 -0.32749684980E+02 -0.19109112979E+02  0.40659131929E+02  0.00000000000E+00 0. -1.
         11    1    3    3    0    0  0.96860262526E+00  0.18489263472E+02 -0.33129355471E+00  0.18517581118E+02  0.51100000000E-03 0. -1.
        -11    1    3    3    0    0  0.21146698943E+01  0.40152536092E+01  0.15400408245E+01  0.47922663021E+01  0.51100000000E-03 0.  1.
         12    1    3    3    0    0 -0.17761996718E+02  0.10245167899E+02  0.17900365709E+02  0.27219020651E+02  0.00000000000E+00 0. -1.
</event>
<event>
 7    1  0.5408841E-013  0.5052879E+02  0.7816164E-02  0.1300439E+00
        -11   -1    0    0    0    0  0.00000000000E+00  0.00000000000E+00  0.45593999997E+02  0.45594000000E+02  0.51100000000E-03 0.  1.
         11   -1    0    0    0    0 -0.00000000000E+00 -0.00000000000E+00 -0.45593999997E+02  0.45594000000E+02  0.51100000000E-03 0. -1.
    9900012    2    1    2    0    0 -0.23779781084E+02 -0.14992356728E+01  0.32946108055E+02  0.50528785399E+02  0.29999773697E+02 0.  0.
         12    1    1    2    0    0  0.23779781084E+02  0.14992356728E+01 -0.32946108055E+02  0.40659214601E+02  0.00000000000E+00 0. -1.
         11    1    3    3    0    0 -0.39733228573E+00  0.17556470259E+01 -0.28621493682E+01  0.33811342316E+01  0.51100000000E-03 0. -1.
        -11    1    3    3    0    0 -0.13428823193E+02 -0.39270156041E+00  0.44958884502E+01  0.14166881099E+02  0.51100000000E-03 0.  1.
        -12    1    3    3    0    0 -0.99536256055E+01 -0.28621811382E+01  0.31312368973E+02  0.32980770068E+02  0.00000000000E+00 0.  1.
</event>
<event>
 7    1  0.5408841E-013  0.5052886E+02  0.7816164E-02  0.1300439E+00
        -11   -1    0    0    0    0  0.00000000000E+00  0.00000000000E+00  0.45593999997E+02  0.45594000000E+02  0.51100000000E-03 0. -1.
         11   -1    0    0    0    0 -0.00000000000E+00 -0.00000000000E+00 -0.45593999997E+02  0.45594000000E+02  0.51100000000E-03 0.  1.
    9900012    2    1    2    0    0  0.13176435552E+02  0.25838587246E+02 -0.28494111288E+02  0.50528862984E+02  0.30000009527E+02 0.  0.
         12    1    1    2    0    0 -0.13176435552E+02 -0.25838587246E+02  0.28494111288E+02  0.40659137016E+02  0.00000000000E+00 0. -1.
         11    1    3    3    0    0  0.25048315993E+01  0.14142170955E+01 -0.77190047048E+01  0.82375497101E+01  0.51100000000E-03 0. -1.
        -11    1    3    3    0    0  0.54457384501E+01  0.61354222849E+01 -0.21749738508E+02  0.23245442549E+02  0.51100000000E-03 0.  1.
         12    1    3    3    0    0  0.52258655031E+01  0.18288947866E+02  0.97463192414E+00  0.19045870725E+02  0.00000000000E+00 0. -1.
</event>
<event>
 7    1  0.5408841E-013  0.5052885E+02  0.7816164E-02  0.1300439E+00
        -11   -1    0    0    0    0  0.00000000000E+00  0.00000000000E+00  0.45593999997E+02  0.45594000000E+02  0.51100000000E-03 0.  1.
         11   -1    0    0    0    0 -0.00000000000E+00 -0.00000000000E+00 -0.45593999997E+02  0.45594000000E+02  0.51100000000E-03 0. -1.
    9900012    2    1    2    0    0  0.25277353555E+02 -0.31841247095E+02 -0.59758020859E+00  0.50528847016E+02  0.29999960989E+02 0.  0.
         12    1    1    2    0    0 -0.25277353555E+02  0.31841247095E+02  0.59758020859E+00  0.40659152984E+02  0.00000000000E+00 0. -1.
         11    1    3    3    0    0  0.56235958471E+01 -0.29175218391E+01 -0.27074581946E+01  0.68896367153E+01  0.51100000000E-03 0.  1.
        -11    1    3    3    0    0  0.91841670830E+01  0.32486334172E+01  0.92233870833E+00  0.97853591166E+01  0.51100000000E-03 0. -1.
         12    1    3    3    0    0  0.10469590625E+02 -0.32172358673E+02  0.11875392776E+01  0.33853851184E+02  0.00000000000E+00 0. -1.
</event>
<event>
 7    1  0.5408841E-013  0.5052887E+02  0.7816164E-02  0.1300439E+00
        -11   -1    0    0    0    0  0.00000000000E+00  0.00000000000E+00  0.45593999997E+02  0.45594000000E+02  0.51100000000E-03 0.  1.
         11   -1    0    0    0    0 -0.00000000000E+00 -0.00000000000E+00 -0.45593999997E+02  0.45594000000E+02  0.51100000000E-03 0. -1.
    9900012    2    1    2    0    0  0.14189243184E+02  0.35318847080E+02  0.14297164634E+02  0.50528874361E+02  0.30000044108E+02 0.  0.
         12    1    1    2    0    0 -0.14189243184E+02 -0.35318847080E+02 -0.14297164634E+02  0.40659125639E+02  0.00000000000E+00 0. -1.
         11    1    3    3    0    0  0.10495109480E+02  0.19448908117E+02 -0.75440518796E-01  0.22100068811E+02  0.51100000000E-03 0. -1.
        -11    1    3    3    0    0  0.47493953495E+01  0.11393281494E+02 -0.99893636180E+00  0.12383920765E+02  0.51100000000E-03 0.  1.
        -12    1    3    3    0    0 -0.10552616461E+01  0.44766574688E+01  0.15371541514E+02  0.16044884785E+02  0.00000000000E+00 0.  1.
</event>
<event>
 7    1  0.5408841E-013  0.5052886E+02  0.7816164E-02  0.1300439E+00
        -11   -1    0    0    0    0  0.00000000000E+00  0.00000000000E+00  0.45593999997E+02  0.45594000000E+02  0.51100000000E-03 0.  1.
         11   -1    0    0    0    0 -0.00000000000E+00 -0.00000000000E+00 -0.45593999997E+02  0.45594000000E+02  0.51100000000E-03 0. -1.
    9900012    2    1    2    0    0  0.39458661563E+01 -0.34090342626E+02  0.21804688264E+02  0.50528858957E+02  0.29999997286E+02 0.  0.
         12    1    1    2    0    0 -0.39458661563E+01  0.34090342626E+02 -0.21804688264E+02  0.40659141043E+02  0.00000000000E+00 0. -1.
         11    1    3    3    0    0 -0.55788095719E+01 -0.12180756795E+02 -0.15404692207E+00  0.13398420917E+02  0.51100000000E-03 0. -1.
        -11    1    3    3    0    0 -0.43734451769E+01 -0.10238072739E+02  0.46964733957E+01  0.12083129510E+02  0.51100000000E-03 0.  1.
         12    1    3    3    0    0  0.13898120905E+02 -0.11671513091E+02  0.17262261790E+02  0.25047308531E+02  0.00000000000E+00 0. -1.
</event>
<event>
 7    1  0.5408841E-013  0.5052886E+02  0.7816164E-02  0.1300439E+00
        -11   -1    0    0    0    0  0.00000000000E+00  0.00000000000E+00  0.45593999997E+02  0.45594000000E+02  0.51100000000E-03 0.  1.
         11   -1    0    0    0    0 -0.00000000000E+00 -0.00000000000E+00 -0.45593999997E+02  0.45594000000E+02  0.51100000000E-03 0. -1.
    9900012    2    1    2    0    0  0.36122228113E+01  0.29863020908E+02  0.27355393207E+02  0.50528859466E+02  0.29999998834E+02 0.  0.
         12    1    1    2    0    0 -0.36122228113E+01 -0.29863020908E+02 -0.27355393207E+02  0.40659140534E+02  0.00000000000E+00 0. -1.
         11    1    3    3    0    0  0.67751246144E+01  0.20353268732E+02  0.81428644883E+01  0.22944805599E+02  0.51100000000E-03 0. -1.
        -11    1    3    3    0    0  0.16711330584E+01  0.12284736085E+02  0.71890883236E+01  0.14331448551E+02  0.51100000000E-03 0.  1.
        -12    1    3    3    0    0 -0.48340348616E+01 -0.27749839094E+01  0.12023440395E+02  0.13252605317E+02  0.00000000000E+00 0.  1.
</event>
<event>
 7    1  0.5408841E-013  0.5052885E+02  0.7816164E-02  0.1300439E+00
        -11   -1    0    0    0    0  0.00000000000E+00  0.00000000000E+00  0.45593999997E+02  0.45594000000E+02  0.51100000000E-03 0.  1.
         11   -1    0    0    0    0 -0.00000000000E+00 -0.00000000000E+00 -0.45593999997E+02  0.45594000000E+02  0.51100000000E-03 0. -1.
    9900012    2    1    2    0    0 -0.11928429461E+02 -0.34922998722E+02  0.17066425282E+02  0.50528854152E+02  0.29999982681E+02 0.  0.
         12    1    1    2    0    0  0.11928429461E+02  0.34922998722E+02 -0.17066425282E+02  0.40659145848E+02  0.00000000000E+00 0. -1.
         11    1    3    3    0    0 -0.10640874442E+02 -0.12810767677E+02  0.20197654448E+01  0.16775679720E+02  0.51100000000E-03 0. -1.
        -11    1    3    3    0    0 -0.69264505188E+00 -0.23250191130E+02  0.52149038673E+01  0.23837918688E+02  0.51100000000E-03 0.  1.
        -12    1    3    3    0    0 -0.59490996674E+00  0.11379600847E+01  0.98317559701E+01  0.99152557445E+01  0.00000000000E+00 0.  1.
</event>
<event>
 7    1  0.5408841E-013  0.5052885E+02  0.7816164E-02  0.1300439E+00
        -11   -1    0    0    0    0  0.00000000000E+00  0.00000000000E+00  0.45593999997E+02  0.45594000000E+02  0.51100000000E-03 0. -1.
         11   -1    0    0    0    0 -0.00000000000E+00 -0.00000000000E+00 -0.45593999997E+02  0.45594000000E+02  0.51100000000E-03 0.  1.
    9900012    2    1    2    0    0 -0.85467188960E+01 -0.39508383280E+02  0.43826261590E+01  0.50528853854E+02  0.29999981775E+02 0.  0.
         12    1    1    2    0    0  0.85467188960E+01  0.39508383280E+02 -0.43826261590E+01  0.40659146146E+02  0.00000000000E+00 0. -1.
         11    1    3    3    0    0 -0.29739477438E+01 -0.78961471347E+00  0.24228666392E+01  0.39163936971E+01  0.51100000000E-03 0. -1.
        -11    1    3    3    0    0  0.29945156036E+01  0.10562835143E+01 -0.44052092523E+01  0.54303524177E+01  0.51100000000E-03 0.  1.
         12    1    3    3    0    0 -0.85672867558E+01 -0.39775052081E+02  0.63649687720E+01  0.41182107739E+02  0.00000000000E+00 0. -1.
</event>
<event>
 7    1  0.5408841E-013  0.5052886E+02  0.7816164E-02  0.1300439E+00
        -11   -1    0    0    0    0  0.00000000000E+00  0.00000000000E+00  0.45593999997E+02  0.45594000000E+02  0.51100000000E-03 0.  1.
         11   -1    0    0    0    0 -0.00000000000E+00 -0.00000000000E+00 -0.45593999997E+02  0.45594000000E+02  0.51100000000E-03 0. -1.
    9900012    2    1    2    0    0  0.40992550628E+01  0.20891670105E+02  0.34639572406E+02  0.50528858982E+02  0.29999997362E+02 0.  0.
         12    1    1    2    0    0 -0.40992550628E+01 -0.20891670105E+02 -0.34639572406E+02  0.40659141018E+02  0.00000000000E+00 0. -1.
         11    1    3    3    0    0 -0.24865188769E+01  0.28657334418E+01  0.20000292215E+02  0.20356986349E+02  0.51100000000E-03 0. -1.
        -11    1    3    3    0    0  0.82702746637E+01  0.17551474056E+01  0.36602824226E+00  0.84623851462E+01  0.51100000000E-03 0.  1.
        -12    1    3    3    0    0 -0.16845007240E+01  0.16270789257E+02  0.14273251949E+02  0.21709487487E+02  0.00000000000E+00 0.  1.
</event>
<event>
 7    1  0.5408841E-013  0.5052887E+02  0.7816164E-02  0.1300439E+00
        -11   -1    0    0    0    0  0.00000000000E+00  0.00000000000E+00  0.45593999997E+02  0.45594000000E+02  0.51100000000E-03 0.  1.
         11   -1    0    0    0    0 -0.00000000000E+00 -0.00000000000E+00 -0.45593999997E+02  0.45594000000E+02  0.51100000000E-03 0. -1.
    9900012    2    1    2    0    0  0.37963142914E+02  0.27105673003E+01  0.14304463578E+02  0.50528867284E+02  0.30000022595E+02 0.  0.
         12    1    1    2    0    0 -0.37963142914E+02 -0.27105673003E+01 -0.14304463578E+02  0.40659132716E+02  0.00000000000E+00 0. -1.
         11    1    3    3    0    0  0.11257750382E+01 -0.39578291500E+01  0.84060514525E+01  0.93591389722E+01  0.51100000000E-03 0. -1.
        -11    1    3    3    0    0  0.32295601608E+01 -0.37472657926E+01 -0.15913507095E+01  0.51965812891E+01  0.51100000000E-03 0.  1.
        -12    1    3    3    0    0  0.33607807715E+02  0.10415662243E+02  0.74897628351E+01  0.35973147022E+02  0.00000000000E+00 0.  1.
</event>
<event>
 7    1  0.5408841E-013  0.5052886E+02  0.7816164E-02  0.1300439E+00
        -11   -1    0    0    0    0  0.00000000000E+00  0.00000000000E+00  0.45593999997E+02  0.45594000000E+02  0.51100000000E-03 0.  1.
         11   -1    0    0    0    0 -0.00000000000E+00 -0.00000000000E+00 -0.45593999997E+02  0.45594000000E+02  0.51100000000E-03 0. -1.
    9900012    2    1    2    0    0  0.27145683632E+01 -0.24929133872E+02  0.32005232236E+02  0.50528862189E+02  0.30000007111E+02 0.  0.
         12    1    1    2    0    0 -0.27145683632E+01  0.24929133872E+02 -0.32005232236E+02  0.40659137811E+02  0.00000000000E+00 0. -1.
         11    1    3    3    0    0  0.99624564374E+01 -0.53201483913E+01  0.28154841869E+01  0.11639650710E+02  0.51100000000E-03 0. -1.
        -11    1    3    3    0    0  0.32193112901E+01 -0.31329332490E+01  0.10018759491E+01  0.46024984089E+01  0.51100000000E-03 0.  1.
         12    1    3    3    0    0 -0.10467199364E+02 -0.16476052232E+02  0.28187872100E+02  0.34286713071E+02  0.00000000000E+00 0. -1.
</event>
<event>
 7    1  0.5408841E-013  0.5052886E+02  0.7816164E-02  0.1300439E+00
        -11   -1    0    0    0    0  0.00000000000E+00  0.00000000000E+00  0.45593999997E+02  0.45594000000E+02  0.51100000000E-03 0. -1.
         11   -1    0    0    0    0 -0.00000000000E+00 -0.00000000000E+00 -0.45593999997E+02  0.45594000000E+02  0.51100000000E-03 0.  1.
    9900012    2    1    2    0    0 -0.23775632696E+02  0.31592258543E+02  0.94770520257E+01  0.50528855580E+02  0.29999987020E+02 0.  0.
         12    1    1    2    0    0  0.23775632696E+02 -0.31592258543E+02 -0.94770520257E+01  0.40659144420E+02  0.00000000000E+00 0. -1.
         11    1    3    3    0    0 -0.20022294475E+01  0.12930327259E+02  0.71150415848E+01  0.14893827675E+02  0.51100000000E-03 0. -1.
        -11    1    3    3    0    0 -0.10393641003E+01 -0.41047712970E+01 -0.17241217799E+01  0.45718728445E+01  0.51100000000E-03 0.  1.
        -12    1    3    3    0    0 -0.20734039148E+02  0.22766702580E+02  0.40861322208E+01  0.31063155060E+02  0.00000000000E+00 0.  1.
</event>
<event>
 7    1  0.5408841E-013  0.5052886E+02  0.7816164E-02  0.1300439E+00
        -11   -1    0    0    0    0  0.00000000000E+00  0.00000000000E+00  0.45593999997E+02  0.45594000000E+02  0.51100000000E-03 0.  1.
         11   -1    0    0    0    0 -0.00000000000E+00 -0.00000000000E+00 -0.45593999997E+02  0.45594000000E+02  0.51100000000E-03 0. -1.
    9900012    2    1    2    0    0 -0.12837294853E+01 -0.14433263252E+01  0.40613231218E+02  0.50528859549E+02  0.29999999085E+02 0.  0.
         12    1    1    2    0    0  0.12837294853E+01  0.14433263252E+01 -0.40613231218E+02  0.40659140451E+02  0.00000000000E+00 0. -1.
         11    1    3    3    0    0  0.58259083113E+01  0.46176159572E+00  0.81795092272E+01  0.10052800748E+02  0.51100000000E-03 0. -1.
        -11    1    3    3    0    0  0.62435013871E+01 -0.73870651619E+01  0.14915562225E+02  0.17777064944E+02  0.51100000000E-03 0.  1.
        -12    1    3    3    0    0 -0.13353139184E+02  0.54819772410E+01  0.17518159765E+02  0.22698993856E+02  0.00000000000E+00 0.  1.
</event>
<event>
 7    1  0.5408841E-013  0.5052886E+02  0.7816164E-02  0.1300439E+00
        -11   -1    0    0    0    0  0.00000000000E+00  0.00000000000E+00  0.45593999997E+02  0.45594000000E+02  0.51100000000E-03 0. -1.
         11   -1    0    0    0    0 -0.00000000000E+00 -0.00000000000E+00 -0.45593999997E+02  0.45594000000E+02  0.51100000000E-03 0.  1.
    9900012    2    1    2    0    0  0.72479298830E+01 -0.20251851876E+02 -0.34503562048E+02  0.50528858518E+02  0.29999995953E+02 0.  0.
         12    1    1    2    0    0 -0.72479298830E+01  0.20251851876E+02  0.34503562048E+02  0.40659141482E+02  0.00000000000E+00 0. -1.
         11    1    3    3    0    0  0.74455774301E+01 -0.23539284515E+01  0.44776371872E+00  0.78216427323E+01  0.51100000000E-03 0. -1.
        -11    1    3    3    0    0  0.73778566493E+01 -0.14125892262E+02 -0.24957761229E+02  0.29611880163E+02  0.51100000000E-03 0.  1.
         12    1    3    3    0    0 -0.75755041963E+01 -0.37720311625E+01 -0.99935645380E+01  0.13095335624E+02  0.00000000000E+00 0. -1.
</event>
<event>
 7    1  0.5408841E-013  0.5052886E+02  0.7816164E-02  0.1300439E+00
        -11   -1    0    0    0    0  0.00000000000E+00  0.00000000000E+00  0.45593999997E+02  0.45594000000E+02  0.51100000000E-03 0.  1.
         11   -1    0    0    0    0 -0.00000000000E+00 -0.00000000000E+00 -0.45593999997E+02  0.45594000000E+02  0.51100000000E-03 0. -1.
    9900012    2    1    2    0    0 -0.32744633776E+01  0.77461519562E+01  0.39779905730E+02  0.50528857358E+02  0.29999992424E+02 0.  0.
         12    1    1    2    0    0  0.32744633776E+01 -0.77461519562E+01 -0.39779905730E+02  0.40659142642E+02  0.00000000000E+00 0. -1.
         11    1    3    3    0    0  0.59486587351E+01  0.65712002859E+01  0.11657974075E+02  0.14644984593E+02  0.51100000000E-03 0. -1.
        -11    1    3    3    0    0  0.42504470417E+01  0.65160546924E+01  0.91841461110E+01  0.12036353636E+02  0.51100000000E-03 0.  1.
        -12    1    3    3    0    0 -0.13473569154E+02 -0.53411030221E+01  0.18937785544E+02  0.23847519128E+02  0.00000000000E+00 0.  1.
</event>
<event>
 7    1  0.5408841E-013  0.5052885E+02  0.7816164E-02  0.1300439E+00
        -11   -1    0    0    0    0  0.00000000000E+00  0.00000000000E+00  0.45593999997E+02  0.45594000000E+02  0.51100000000E-03 0.  1.
         11   -1    0    0    0    0 -0.00000000000E+00 -0.00000000000E+00 -0.45593999997E+02  0.45594000000E+02  0.51100000000E-03 0. -1.
    9900012    2    1    2    0    0 -0.39614974351E+01 -0.31471277620E+02  0.25436824091E+02  0.50528846088E+02  0.29999958170E+02 0.  0.
         12    1    1    2    0    0  0.39614974351E+01  0.31471277620E+02 -0.25436824091E+02  0.40659153912E+02  0.00000000000E+00 0. -1.
         11    1    3    3    0    0 -0.53563619681E+01 -0.10562992183E+01  0.29076625072E+01  0.61855382214E+01  0.51100000000E-03 0. -1.
        -11    1    3    3    0    0 -0.64610680911E+01 -0.14616200248E+02  0.32695521064E+00  0.15983917246E+02  0.51100000000E-03 0.  1.
        -12    1    3    3    0    0  0.78559326240E+01 -0.15798778154E+02  0.22202206373E+02  0.28359390621E+02  0.00000000000E+00 0.  1.
</event>
<event>
 7    1  0.5408841E-013  0.5052886E+02  0.7816164E-02  0.1300439E+00
        -11   -1    0    0    0    0  0.00000000000E+00  0.00000000000E+00  0.45593999997E+02  0.45594000000E+02  0.51100000000E-03 0. -1.
         11   -1    0    0    0    0 -0.00000000000E+00 -0.00000000000E+00 -0.45593999997E+02  0.45594000000E+02  0.51100000000E-03 0.  1.
    9900012    2    1    2    0    0 -0.24450479939E+02  0.29263524791E+02 -0.14106225638E+02  0.50528862599E+02  0.30000008357E+02 0.  0.
         12    1    1    2    0    0  0.24450479939E+02 -0.29263524791E+02  0.14106225638E+02  0.40659137401E+02  0.00000000000E+00 0. -1.
         11    1    3    3    0    0 -0.19991995865E+01  0.22347337082E+01 -0.10126772239E+02  0.10561361180E+02  0.51100000000E-03 0. -1.
        -11    1    3    3    0    0 -0.13033097872E+01  0.51540902516E+01 -0.76553617793E+01  0.93202911412E+01  0.51100000000E-03 0.  1.
         12    1    3    3    0    0 -0.21147970565E+02  0.21874700831E+02  0.36759083796E+01  0.30647210279E+02  0.00000000000E+00 0. -1.
</event>
<event>
 7    1  0.5408841E-013  0.5052886E+02  0.7816164E-02  0.1300439E+00
        -11   -1    0    0    0    0  0.00000000000E+00  0.00000000000E+00  0.45593999997E+02  0.45594000000E+02  0.51100000000E-03 0.  1.
         11   -1    0    0    0    0 -0.00000000000E+00 -0.00000000000E+00 -0.45593999997E+02  0.45594000000E+02  0.51100000000E-03 0. -1.
    9900012    2    1    2    0    0 -0.18720693039E+02  0.16024678378E+02  0.32340549526E+02  0.50528858240E+02  0.29999995108E+02 0.  0.
         12    1    1    2    0    0  0.18720693039E+02 -0.16024678378E+02 -0.32340549526E+02  0.40659141760E+02  0.00000000000E+00 0. -1.
         11    1    3    3    0    0 -0.93517473185E+01 -0.24140715467E+01  0.19027946559E+02  0.21338830096E+02  0.51100000000E-03 0. -1.
        -11    1    3    3    0    0 -0.13415577834E+01  0.39286216679E+01  0.11834707408E+02  0.12541696264E+02  0.51100000000E-03 0.  1.
        -12    1    3    3    0    0 -0.80273879373E+01  0.14510128256E+02  0.14778955593E+01  0.16648331880E+02  0.00000000000E+00 0.  1.
</event>
<event>
 7    1  0.5408841E-013  0.5052886E+02  0.7816164E-02  0.1300439E+00
        -11   -1    0    0    0    0  0.00000000000E+00  0.00000000000E+00  0.45593999997E+02  0.45594000000E+02  0.51100000000E-03 0. -1.
         11   -1    0    0    0    0 -0.00000000000E+00 -0.00000000000E+00 -0.45593999997E+02  0.45594000000E+02  0.51100000000E-03 0.  1.
    9900012    2    1    2    0    0  0.37129198113E+01  0.20775256276E+02 -0.34752964520E+02  0.50528860931E+02  0.30000003287E+02 0.  0.
         12    1    1    2    0    0 -0.37129198113E+01 -0.20775256276E+02  0.34752964520E+02  0.40659139069E+02  0.00000000000E+00 0. -1.
         11    1    3    3    0    0  0.81325320715E+01  0.70535583470E+01 -0.42563515389E+01  0.11576151862E+02  0.51100000000E-03 0. -1.
        -11    1    3    3    0    0 -0.18722242986E+01  0.98400441167E+01 -0.21710465351E+01  0.10249152909E+02  0.51100000000E-03 0.  1.
        -12    1    3    3    0    0 -0.25473879617E+01  0.38816538127E+01 -0.28325566446E+02  0.28703556160E+02  0.00000000000E+00 0.  1.
</event>
<event>
 7    1  0.5408841E-013  0.5052885E+02  0.7816164E-02  0.1300439E+00
        -11   -1    0    0    0    0  0.00000000000E+00  0.00000000000E+00  0.45593999997E+02  0.45594000000E+02  0.51100000000E-03 0. -1.
         11   -1    0    0    0    0 -0.00000000000E+00 -0.00000000000E+00 -0.45593999997E+02  0.45594000000E+02  0.51100000000E-03 0.  1.
    9900012    2    1    2    0    0  0.94807462213E+01 -0.17597003207E+02 -0.35406596316E+02  0.50528854245E+02  0.29999982964E+02 0.  0.
         12    1    1    2    0    0 -0.94807462213E+01  0.17597003207E+02  0.35406596316E+02  0.40659145755E+02  0.00000000000E+00 0. -1.
         11    1    3    3    0    0 -0.66601462291E+00 -0.18260317236E+01  0.39204913995E+01  0.43758679605E+01  0.51100000000E-03 0. -1.
        -11    1    3    3    0    0  0.61683406914E+01  0.14312995020E+01 -0.81179201373E+01  0.10295517120E+02  0.51100000000E-03 0.  1.
        -12    1    3    3    0    0  0.39784201528E+01 -0.17202270986E+02 -0.31209167578E+02  0.35857469165E+02  0.00000000000E+00 0.  1.
</event>
<event>
 7    1  0.5408841E-013  0.5052886E+02  0.7816164E-02  0.1300439E+00
        -11   -1    0    0    0    0  0.00000000000E+00  0.00000000000E+00  0.45593999997E+02  0.45594000000E+02  0.51100000000E-03 0. -1.
         11   -1    0    0    0    0 -0.00000000000E+00 -0.00000000000E+00 -0.45593999997E+02  0.45594000000E+02  0.51100000000E-03 0.  1.
    9900012    2    1    2    0    0  0.26383941819E+02 -0.25864676906E+02  0.16972679675E+02  0.50528858928E+02  0.29999997197E+02 0.  0.
         12    1    1    2    0    0 -0.26383941819E+02  0.25864676906E+02 -0.16972679675E+02  0.40659141072E+02  0.00000000000E+00 0. -1.
         11    1    3    3    0    0  0.35565783145E+01 -0.18884605464E+01 -0.59496624889E+01  0.71842895637E+01  0.51100000000E-03 0. -1.
        -11    1    3    3    0    0  0.48481219272E+01 -0.10792106717E+02  0.67814844236E+00  0.11850474217E+02  0.51100000000E-03 0.  1.
         12    1    3    3    0    0  0.17979241578E+02 -0.13184109643E+02  0.22244193722E+02  0.31494095147E+02  0.00000000000E+00 0. -1.
</event>
<event>
 7    1  0.5408841E-013  0.5052886E+02  0.7816164E-02  0.1300439E+00
        -11   -1    0    0    0    0  0.00000000000E+00  0.00000000000E+00  0.45593999997E+02  0.45594000000E+02  0.51100000000E-03 0.  1.
         11   -1    0    0    0    0 -0.00000000000E+00 -0.00000000000E+00 -0.45593999997E+02  0.45594000000E+02  0.51100000000E-03 0. -1.
    9900012    2    1    2    0    0 -0.36039017037E+02  0.38419579568E+01 -0.18428089954E+02  0.50528857249E+02  0.29999992094E+02 0.  0.
         12    1    1    2    0    0  0.36039017037E+02 -0.38419579568E+01  0.18428089954E+02  0.40659142751E+02  0.00000000000E+00 0. -1.
         11    1    3    3    0    0 -0.13575626611E+02 -0.88495342672E+00 -0.10042676933E+02  0.16909646380E+02  0.51100000000E-03 0. -1.
        -11    1    3    3    0    0 -0.15908984654E+02  0.29325167382E+01 -0.16451116457E+02  0.23072379160E+02  0.51100000000E-03 0.  1.
        -12    1    3    3    0    0 -0.65544057713E+01  0.17943946454E+01  0.80657034370E+01  0.10546831709E+02  0.00000000000E+00 0.  1.
</event>
<event>
 7    1  0.5408841E-013  0.5052886E+02  0.7816164E-02  0.1300439E+00
        -11   -1    0    0    0    0  0.00000000000E+00  0.00000000000E+00  0.45593999997E+02  0.45594000000E+02  0.51100000000E-03 0. -1.
         11   -1    0    0    0    0 -0.00000000000E+00 -0.00000000000E+00 -0.45593999997E+02  0.45594000000E+02  0.51100000000E-03 0.  1.
    9900012    2    1    2    0    0 -0.39661085850E+02 -0.83966015894E+01  0.31082037244E+01  0.50528861058E+02  0.30000003673E+02 0.  0.
         12    1    1    2    0    0  0.39661085850E+02  0.83966015894E+01 -0.31082037244E+01  0.40659138942E+02  0.00000000000E+00 0. -1.
         11    1    3    3    0    0 -0.19999745996E+02 -0.75580706134E+01 -0.12103326184E+01  0.21414461857E+02  0.51100000000E-03 0. -1.
        -11    1    3    3    0    0 -0.63273578596E+01  0.64514714692E+01 -0.59087227941E+01  0.10796756315E+02  0.51100000000E-03 0.  1.
         12    1    3    3    0    0 -0.13333981994E+02 -0.72900024452E+01  0.10227259137E+02  0.18317642887E+02  0.00000000000E+00 0. -1.
</event>
<event>
 7    1  0.5408841E-013  0.5052886E+02  0.7816164E-02  0.1300439E+00
        -11   -1    0    0    0    0  0.00000000000E+00  0.00000000000E+00  0.45593999997E+02  0.45594000000E+02  0.51100000000E-03 0.  1.
         11   -1    0    0    0    0 -0.00000000000E+00 -0.00000000000E+00 -0.45593999997E+02  0.45594000000E+02  0.51100000000E-03 0. -1.
    9900012    2    1    2    0    0 -0.37741952368E+02 -0.46618454302E+01  0.14386726394E+02  0.50528859973E+02  0.30000000375E+02 0.  0.
         12    1    1    2    0    0  0.37741952368E+02  0.46618454302E+01 -0.14386726394E+02  0.40659140027E+02  0.00000000000E+00 0. -1.
         11    1    3    3    0    0 -0.72596814632E+00 -0.49972097166E+01  0.75016211273E+01  0.90428676037E+01  0.51100000000E-03 0. -1.
        -11    1    3    3    0    0 -0.85759906117E+01 -0.75136779959E+01  0.22260492953E+01  0.11617154029E+02  0.51100000000E-03 0.  1.
        -12    1    3    3    0    0 -0.28439993610E+02  0.78490422822E+01  0.46590559714E+01  0.29868838341E+02  0.00000000000E+00 0.  1.
</event>
<event>
 7    1  0.5408841E-013  0.5052887E+02  0.7816164E-02  0.1300439E+00
        -11   -1    0    0    0    0  0.00000000000E+00  0.00000000000E+00  0.45593999997E+02  0.45594000000E+02  0.51100000000E-03 0.  1.
         11   -1    0    0    0    0 -0.00000000000E+00 -0.00000000000E+00 -0.45593999997E+02  0.45594000000E+02  0.51100000000E-03 0. -1.
    9900012    2    1    2    0    0  0.35758184403E+02 -0.45602146609E+01  0.18807485670E+02  0.50528870315E+02  0.30000031809E+02 0.  0.
         12    1    1    2    0    0 -0.35758184403E+02  0.45602146609E+01 -0.18807485670E+02  0.40659129685E+02  0.00000000000E+00 0. -1.
         11    1    3    3    0    0  0.14458906994E+02  0.26390674624E+01  0.16720828206E+01  0.14792583606E+02  0.51100000000E-03 0. -1.
        -11    1    3    3    0    0  0.19402841915E+02  0.39137072449E+01  0.13218433480E+02  0.23801562191E+02  0.51100000000E-03 0.  1.
         12    1    3    3    0    0  0.18964354936E+01 -0.11112989368E+02  0.39169693693E+01  0.11934724518E+02  0.00000000000E+00 0. -1.
</event>
<event>
 7    1  0.5408841E-013  0.5052885E+02  0.7816164E-02  0.1300439E+00
        -11   -1    0    0    0    0  0.00000000000E+00  0.00000000000E+00  0.45593999997E+02  0.45594000000E+02  0.51100000000E-03 0.  1.
         11   -1    0    0    0    0 -0.00000000000E+00 -0.00000000000E+00 -0.45593999997E+02  0.45594000000E+02  0.51100000000E-03 0. -1.
    9900012    2    1    2    0    0  0.24235810761E+02  0.12210845987E+02  0.30276846041E+02  0.50528847412E+02  0.29999962194E+02 0.  0.
         12    1    1    2    0    0 -0.24235810761E+02 -0.12210845987E+02 -0.30276846041E+02  0.40659152588E+02  0.00000000000E+00 0. -1.
         11    1    3    3    0    0  0.85151771262E+01 -0.55816809644E+01  0.63851351529E+01  0.12018042896E+02  0.51100000000E-03 0. -1.
        -11    1    3    3    0    0  0.81119711643E+00 -0.37965845082E+01  0.21612974740E+01  0.44433435296E+01  0.51100000000E-03 0.  1.
        -12    1    3    3    0    0  0.14909436519E+02  0.21589111459E+02  0.21730413414E+02  0.34067460986E+02  0.00000000000E+00 0.  1.
</event>
<event>
 7    1  0.5408841E-013  0.5052889E+02  0.7816164E-02  0.1300439E+00
        -11   -1    0    0    0    0  0.00000000000E+00  0.00000000000E+00  0.45593999997E+02  0.45594000000E+02  0.51100000000E-03 0.  1.
         11   -1    0    0    0    0 -0.00000000000E+00 -0.00000000000E+00 -0.45593999997E+02  0.45594000000E+02  0.51100000000E-03 0. -1.
    9900012    2    1    2    0    0 -0.12198990055E+02 -0.36419128893E+02 -0.13341471851E+02  0.50528890580E+02  0.30000093407E+02 0.  0.
         12    1    1    2    0    0  0.12198990055E+02  0.36419128893E+02  0.13341471851E+02  0.40659109420E+02  0.00000000000E+00 0. -1.
         11    1    3    3    0    0  0.45225578405E+01 -0.10628103161E+01 -0.15119275333E+01  0.48855931386E+01  0.51100000000E-03 0. -1.
        -11    1    3    3    0    0  0.24056602826E+01 -0.16104014203E+02 -0.66002996220E+00  0.16296076664E+02  0.51100000000E-03 0.  1.
         12    1    3    3    0    0 -0.19127208178E+02 -0.19252304374E+02 -0.11169514355E+02  0.29347220777E+02  0.00000000000E+00 0. -1.
</event>
<event>
 7    1  0.5408841E-013  0.5052886E+02  0.7816164E-02  0.1300439E+00
        -11   -1    0    0    0    0  0.00000000000E+00  0.00000000000E+00  0.45593999997E+02  0.45594000000E+02  0.51100000000E-03 0.  1.
         11   -1    0    0    0    0 -0.00000000000E+00 -0.00000000000E+00 -0.45593999997E+02  0.45594000000E+02  0.51100000000E-03 0. -1.
    9900012    2    1    2    0    0  0.31342790698E+02  0.13311844517E+02  0.22216880354E+02  0.50528861964E+02  0.30000006425E+02 0.  0.
         12    1    1    2    0    0 -0.31342790698E+02 -0.13311844517E+02 -0.22216880354E+02  0.40659138036E+02  0.00000000000E+00 0. -1.
         11    1    3    3    0    0  0.10955842772E+02 -0.60134189722E+01 -0.73343175167E+00  0.12519170139E+02  0.51100000000E-03 0. -1.
        -11    1    3    3    0    0  0.16943192637E+01  0.85176716194E+01  0.59321740480E+01  0.10517230471E+02  0.51100000000E-03 0.  1.
        -12    1    3    3    0    0  0.18692628662E+02  0.10807591870E+02  0.17018138058E+02  0.27492461354E+02  0.00000000000E+00 0.  1.
</event>
<event>
 7    1  0.5408841E-013  0.5052887E+02  0.7816164E-02  0.1300439E+00
        -11   -1    0    0    0    0  0.00000000000E+00  0.00000000000E+00  0.45593999997E+02  0.45594000000E+02  0.51100000000E-03 0.  1.
         11   -1    0    0    0    0 -0.00000000000E+00 -0.00000000000E+00 -0.45593999997E+02  0.45594000000E+02  0.51100000000E-03 0. -1.
    9900012    2    1    2    0    0  0.15517182654E+02  0.36517272859E+02  0.88809087265E+01  0.50528871697E+02  0.30000036010E+02 0.  0.
         12    1    1    2    0    0 -0.15517182654E+02 -0.36517272859E+02 -0.88809087265E+01  0.40659128303E+02  0.00000000000E+00 0. -1.
         11    1    3    3    0    0  0.85537637810E+01  0.53946763341E+01  0.84682382375E+01  0.13190165529E+02  0.51100000000E-03 0. -1.
        -11    1    3    3    0    0  0.12979897463E+02  0.14700576118E+02  0.23110357022E+01  0.19746532927E+02  0.51100000000E-03 0.  1.
        -12    1    3    3    0    0 -0.60164785901E+01  0.16422020407E+02 -0.18983652132E+01  0.17592173241E+02  0.00000000000E+00 0.  1.
</event>
<event>
 7    1  0.5408841E-013  0.5052885E+02  0.7816164E-02  0.1300439E+00
        -11   -1    0    0    0    0  0.00000000000E+00  0.00000000000E+00  0.45593999997E+02  0.45594000000E+02  0.51100000000E-03 0.  1.
         11   -1    0    0    0    0 -0.00000000000E+00 -0.00000000000E+00 -0.45593999997E+02  0.45594000000E+02  0.51100000000E-03 0. -1.
    9900012    2    1    2    0    0  0.54019800361E+01  0.89024202100E+01  0.39303079218E+02  0.50528849616E+02  0.29999968892E+02 0.  0.
         12    1    1    2    0    0 -0.54019800361E+01 -0.89024202100E+01 -0.39303079218E+02  0.40659150384E+02  0.00000000000E+00 0. -1.
         11    1    3    3    0    0 -0.73340677488E+01 -0.47846518272E+01  0.10212664710E+02  0.13452879379E+02  0.51100000000E-03 0. -1.
        -11    1    3    3    0    0  0.87874871572E+01  0.14457575327E+01  0.63077486427E+01  0.10913195617E+02  0.51100000000E-03 0.  1.
        -12    1    3    3    0    0  0.39485606277E+01  0.12241314505E+02  0.22782665865E+02  0.26162774619E+02  0.00000000000E+00 0.  1.
</event>
<event>
 7    1  0.5408841E-013  0.5052886E+02  0.7816164E-02  0.1300439E+00
        -11   -1    0    0    0    0  0.00000000000E+00  0.00000000000E+00  0.45593999997E+02  0.45594000000E+02  0.51100000000E-03 0. -1.
         11   -1    0    0    0    0 -0.00000000000E+00 -0.00000000000E+00 -0.45593999997E+02  0.45594000000E+02  0.51100000000E-03 0.  1.
    9900012    2    1    2    0    0 -0.31055708422E+01 -0.34817132368E+02 -0.20767485789E+02  0.50528859052E+02  0.29999997575E+02 0.  0.
         12    1    1    2    0    0  0.31055708422E+01  0.34817132368E+02  0.20767485789E+02  0.40659140948E+02  0.00000000000E+00 0. -1.
         11    1    3    3    0    0  0.13085281049E+01 -0.79355828939E+01  0.26958657072E+01  0.84825358142E+01  0.51100000000E-03 0. -1.
        -11    1    3    3    0    0 -0.26884457181E+01 -0.21368519628E+02 -0.42094689433E+01  0.21944498184E+02  0.51100000000E-03 0.  1.
        -12    1    3    3    0    0 -0.17256532289E+01 -0.55130298461E+01 -0.19253882553E+02  0.20101825054E+02  0.00000000000E+00 0.  1.
</event>
<event>
 7    1  0.5408841E-013  0.5052886E+02  0.7816164E-02  0.1300439E+00
        -11   -1    0    0    0    0  0.00000000000E+00  0.00000000000E+00  0.45593999997E+02  0.45594000000E+02  0.51100000000E-03 0.  1.
         11   -1    0    0    0    0 -0.00000000000E+00 -0.00000000000E+00 -0.45593999997E+02  0.45594000000E+02  0.51100000000E-03 0. -1.
    9900012    2    1    2    0    0 -0.23026327288E+02  0.78597374220E+01  0.32575730913E+02  0.50528862464E+02  0.30000007944E+02 0.  0.
         12    1    1    2    0    0  0.23026327288E+02 -0.78597374220E+01 -0.32575730913E+02  0.40659137536E+02  0.00000000000E+00 0. -1.
         11    1    3    3    0    0 -0.46484369118E+01  0.18827640491E+01 -0.32629669983E+01  0.59832867289E+01  0.51100000000E-03 0. -1.
        -11    1    3    3    0    0 -0.54185026716E+01 -0.35625019664E+01  0.15481400189E+01  0.66669580201E+01  0.51100000000E-03 0.  1.
        -12    1    3    3    0    0 -0.12959387705E+02  0.95394753392E+01  0.34290557892E+02  0.37878617715E+02  0.00000000000E+00 0.  1.
</event>
<event>
 7    1  0.5408841E-013  0.5052885E+02  0.7816164E-02  0.1300439E+00
        -11   -1    0    0    0    0  0.00000000000E+00  0.00000000000E+00  0.45593999997E+02  0.45594000000E+02  0.51100000000E-03 0. -1.
         11   -1    0    0    0    0 -0.00000000000E+00 -0.00000000000E+00 -0.45593999997E+02  0.45594000000E+02  0.51100000000E-03 0.  1.
    9900012    2    1    2    0    0 -0.62745633316E+01  0.59241212935E+01 -0.39732872918E+02  0.50528849143E+02  0.29999967454E+02 0.  0.
         12    1    1    2    0    0  0.62745633316E+01 -0.59241212935E+01  0.39732872918E+02  0.40659150857E+02  0.00000000000E+00 0. -1.
         11    1    3    3    0    0  0.27975904616E+01 -0.35505125640E+01 -0.34003898215E+02  0.34303028233E+02  0.51100000000E-03 0.  1.
        -11    1    3    3    0    0 -0.61338419543E+00  0.38824054557E+01  0.10003653611E+01  0.40558653097E+01  0.51100000000E-03 0. -1.
        -12    1    3    3    0    0 -0.84587695979E+01  0.55922284019E+01 -0.67293400645E+01  0.12169955600E+02  0.00000000000E+00 0.  1.
</event>
<event>
 7    1  0.5408841E-013  0.5052888E+02  0.7816164E-02  0.1300439E+00
        -11   -1    0    0    0    0  0.00000000000E+00  0.00000000000E+00  0.45593999997E+02  0.45594000000E+02  0.51100000000E-03 0.  1.
         11   -1    0    0    0    0 -0.00000000000E+00 -0.00000000000E+00 -0.45593999997E+02  0.45594000000E+02  0.51100000000E-03 0. -1.
    9900012    2    1    2    0    0 -0.15373759869E+02 -0.12460362092E+02  0.35518316604E+02  0.50528881338E+02  0.30000065314E+02 0.  0.
         12    1    1    2    0    0  0.15373759869E+02  0.12460362092E+02 -0.35518316604E+02  0.40659118662E+02  0.00000000000E+00 0. -1.
         11    1    3    3    0    0 -0.54933170555E+01 -0.36890264477E+01  0.46727279452E+01  0.81006070831E+01  0.51100000000E-03 0. -1.
        -11    1    3    3    0    0 -0.16440340368E+02 -0.81690632329E+01  0.30781837457E+02  0.35840478554E+02  0.51100000000E-03 0.  1.
         12    1    3    3    0    0  0.65598975537E+01 -0.60227241160E+00  0.63751201908E-01  0.65877957003E+01  0.00000000000E+00 0. -1.
</event>
<event>
 7    1  0.5408841E-013  0.5052886E+02  0.7816164E-02  0.1300439E+00
        -11   -1    0    0    0    0  0.00000000000E+00  0.00000000000E+00  0.45593999997E+02  0.45594000000E+02  0.51100000000E-03 0.  1.
         11   -1    0    0    0    0 -0.00000000000E+00 -0.00000000000E+00 -0.45593999997E+02  0.45594000000E+02  0.51100000000E-03 0. -1.
    9900012    2    1    2    0    0  0.49491345662E+01  0.46918448107E+01  0.40083138985E+02  0.50528863615E+02  0.30000011444E+02 0.  0.
         12    1    1    2    0    0 -0.49491345662E+01 -0.46918448107E+01 -0.40083138985E+02  0.40659136385E+02  0.00000000000E+00 0. -1.
         11    1    3    3    0    0 -0.37395924054E+01 -0.10232116897E+01  0.27067969169E+01  0.47284525303E+01  0.51100000000E-03 0. -1.
        -11    1    3    3    0    0 -0.78495197309E+01  0.14154993870E+01  0.19511899500E+02  0.21079203516E+02  0.51100000000E-03 0.  1.
         12    1    3    3    0    0  0.16538246702E+02  0.42995571135E+01  0.17864442568E+02  0.24721207568E+02  0.00000000000E+00 0. -1.
</event>
<event>
 7    1  0.5408841E-013  0.5052885E+02  0.7816164E-02  0.1300439E+00
        -11   -1    0    0    0    0  0.00000000000E+00  0.00000000000E+00  0.45593999997E+02  0.45594000000E+02  0.51100000000E-03 0.  1.
         11   -1    0    0    0    0 -0.00000000000E+00 -0.00000000000E+00 -0.45593999997E+02  0.45594000000E+02  0.51100000000E-03 0. -1.
    9900012    2    1    2    0    0 -0.29830191938E+02  0.72471223340E+01  0.26660938943E+02  0.50528846068E+02  0.29999958107E+02 0.  0.
         12    1    1    2    0    0  0.29830191938E+02 -0.72471223340E+01 -0.26660938943E+02  0.40659153932E+02  0.00000000000E+00 0. -1.
         11    1    3    3    0    0 -0.55895853641E+01  0.77535435152E+01  0.14492526370E+01  0.96675351074E+01  0.51100000000E-03 0. -1.
        -11    1    3    3    0    0 -0.11382096618E+01 -0.14443722751E+01 -0.35261379363E+01  0.39768557316E+01  0.51100000000E-03 0.  1.
        -12    1    3    3    0    0 -0.23102396912E+02  0.93795109382E+00  0.28737824242E+02  0.36884455229E+02  0.00000000000E+00 0.  1.
</event>
<event>
 7    1  0.5408841E-013  0.5052886E+02  0.7816164E-02  0.1300439E+00
        -11   -1    0    0    0    0  0.00000000000E+00  0.00000000000E+00  0.45593999997E+02  0.45594000000E+02  0.51100000000E-03 0. -1.
         11   -1    0    0    0    0 -0.00000000000E+00 -0.00000000000E+00 -0.45593999997E+02  0.45594000000E+02  0.51100000000E-03 0.  1.
    9900012    2    1    2    0    0  0.36831204346E+02 -0.16793701085E+02  0.38209987269E+01  0.50528855383E+02  0.29999986422E+02 0.  0.
         12    1    1    2    0    0 -0.36831204346E+02  0.16793701085E+02 -0.38209987269E+01  0.40659144617E+02  0.00000000000E+00 0. -1.
         11    1    3    3    0    0  0.38337260447E+01 -0.10452219682E+01  0.73068381361E+01  0.83174412025E+01  0.51100000000E-03 0. -1.
        -11    1    3    3    0    0  0.35423634546E+02 -0.12331586899E+02 -0.14108856465E+01  0.37535217043E+02  0.51100000000E-03 0.  1.
         12    1    3    3    0    0 -0.24261562443E+01 -0.34168922180E+01 -0.20749537627E+01  0.46761971375E+01  0.00000000000E+00 0. -1.
</event>
<event>
 7    1  0.5408841E-013  0.5052886E+02  0.7816164E-02  0.1300439E+00
        -11   -1    0    0    0    0  0.00000000000E+00  0.00000000000E+00  0.45593999997E+02  0.45594000000E+02  0.51100000000E-03 0.  1.
         11   -1    0    0    0    0 -0.00000000000E+00 -0.00000000000E+00 -0.45593999997E+02  0.45594000000E+02  0.51100000000E-03 0. -1.
    9900012    2    1    2    0    0 -0.83559582822E+01  0.36391503212E+02  0.16093537062E+02  0.50528862282E+02  0.30000007392E+02 0.  0.
         12    1    1    2    0    0  0.83559582822E+01 -0.36391503212E+02 -0.16093537062E+02  0.40659137718E+02  0.00000000000E+00 0. -1.
         11    1    3    3    0    0 -0.10394007521E+02  0.19073728706E+02  0.19068031322E+02  0.28903846420E+02  0.51100000000E-03 0. -1.
        -11    1    3    3    0    0 -0.47078719084E+01  0.50996529164E+01  0.12302091872E+01  0.70486830457E+01  0.51100000000E-03 0.  1.
         12    1    3    3    0    0  0.67459211476E+01  0.12218121589E+02 -0.42047034474E+01  0.14576332817E+02  0.00000000000E+00 0. -1.
</event>
<event>
 7    1  0.5408841E-013  0.5052886E+02  0.7816164E-02  0.1300439E+00
        -11   -1    0    0    0    0  0.00000000000E+00  0.00000000000E+00  0.45593999997E+02  0.45594000000E+02  0.51100000000E-03 0. -1.
         11   -1    0    0    0    0 -0.00000000000E+00 -0.00000000000E+00 -0.45593999997E+02  0.45594000000E+02  0.51100000000E-03 0.  1.
    9900012    2    1    2    0    0  0.30716118444E+02 -0.26544213816E+02 -0.22561851021E+01  0.50528860922E+02  0.30000003258E+02 0.  0.
         12    1    1    2    0    0 -0.30716118444E+02  0.26544213816E+02  0.22561851021E+01  0.40659139078E+02  0.00000000000E+00 0. -1.
         11    1    3    3    0    0  0.11021169033E+02 -0.32735289233E+01  0.30690044641E+01  0.11899619621E+02  0.51100000000E-03 0. -1.
        -11    1    3    3    0    0  0.15407726248E+02 -0.11162292951E+01 -0.43227858955E+01  0.16041523435E+02  0.51100000000E-03 0.  1.
        -12    1    3    3    0    0  0.42872231634E+01 -0.22154455598E+02 -0.10024036707E+01  0.22587717866E+02  0.00000000000E+00 0.  1.
</event>
<event>
 7    1  0.5408841E-013  0.5052886E+02  0.7816164E-02  0.1300439E+00
        -11   -1    0    0    0    0  0.00000000000E+00  0.00000000000E+00  0.45593999997E+02  0.45594000000E+02  0.51100000000E-03 0.  1.
         11   -1    0    0    0    0 -0.00000000000E+00 -0.00000000000E+00 -0.45593999997E+02  0.45594000000E+02  0.51100000000E-03 0. -1.
    9900012    2    1    2    0    0  0.28894711254E+02 -0.64140106019E+01  0.27876904655E+02  0.50528859778E+02  0.29999999780E+02 0.  0.
         12    1    1    2    0    0 -0.28894711254E+02  0.64140106019E+01 -0.27876904655E+02  0.40659140222E+02  0.00000000000E+00 0. -1.
         11    1    3    3    0    0  0.50955627929E+01 -0.31362019163E+01 -0.49657982024E+01  0.77755819515E+01  0.51100000000E-03 0. -1.
        -11    1    3    3    0    0 -0.16059111532E+01  0.45003779070E+00  0.15784888071E+01  0.22963257217E+01  0.51100000000E-03 0.  1.
        -12    1    3    3    0    0  0.25405059614E+02 -0.37278464763E+01  0.31264214051E+02  0.40456952104E+02  0.00000000000E+00 0.  1.
</event>
<event>
 7    1  0.5408841E-013  0.5052887E+02  0.7816164E-02  0.1300439E+00
        -11   -1    0    0    0    0  0.00000000000E+00  0.00000000000E+00  0.45593999997E+02  0.45594000000E+02  0.51100000000E-03 0.  1.
         11   -1    0    0    0    0 -0.00000000000E+00 -0.00000000000E+00 -0.45593999997E+02  0.45594000000E+02  0.51100000000E-03 0. -1.
    9900012    2    1    2    0    0  0.19691533876E+02 -0.13637551686E+02  0.32854614577E+02  0.50528867921E+02  0.30000024532E+02 0.  0.
         12    1    1    2    0    0 -0.19691533876E+02  0.13637551686E+02 -0.32854614577E+02  0.40659132079E+02  0.00000000000E+00 0. -1.
         11    1    3    3    0    0 -0.62537619556E+01 -0.58873339993E+01  0.26631650103E+01  0.89923683393E+01  0.51100000000E-03 0. -1.
        -11    1    3    3    0    0  0.14194256969E+02 -0.39992659574E+01  0.98060208284E+01  0.17709576614E+02  0.51100000000E-03 0.  1.
        -12    1    3    3    0    0  0.11751038863E+02 -0.37509517297E+01  0.20385428739E+02  0.23826922967E+02  0.00000000000E+00 0.  1.
</event>
<event>
 7    1  0.5408841E-013  0.5052886E+02  0.7816164E-02  0.1300439E+00
        -11   -1    0    0    0    0  0.00000000000E+00  0.00000000000E+00  0.45593999997E+02  0.45594000000E+02  0.51100000000E-03 0.  1.
         11   -1    0    0    0    0 -0.00000000000E+00 -0.00000000000E+00 -0.45593999997E+02  0.45594000000E+02  0.51100000000E-03 0. -1.
    9900012    2    1    2    0    0  0.46098706934E+01 -0.51723501896E+01  0.40064465269E+02  0.50528862139E+02  0.30000006958E+02 0.  0.
         12    1    1    2    0    0 -0.46098706934E+01  0.51723501896E+01 -0.40064465269E+02  0.40659137861E+02  0.00000000000E+00 0. -1.
         11    1    3    3    0    0 -0.59896969153E+01  0.22900336404E+01  0.54254438048E+01  0.83997716607E+01  0.51100000000E-03 0. -1.
        -11    1    3    3    0    0 -0.48911179009E+01 -0.21090688678E-01  0.16204543036E+02  0.16926626787E+02  0.51100000000E-03 0.  1.
         12    1    3    3    0    0  0.15490685510E+02 -0.74412931414E+01  0.18434478429E+02  0.25202463691E+02  0.00000000000E+00 0. -1.
</event>
<event>
 7    1  0.5408841E-013  0.5052885E+02  0.7816164E-02  0.1300439E+00
        -11   -1    0    0    0    0  0.00000000000E+00  0.00000000000E+00  0.45593999997E+02  0.45594000000E+02  0.51100000000E-03 0. -1.
         11   -1    0    0    0    0 -0.00000000000E+00 -0.00000000000E+00 -0.45593999997E+02  0.45594000000E+02  0.51100000000E-03 0.  1.
    9900012    2    1    2    0    0 -0.29130406852E+02  0.27249670615E+02  0.78766160210E+01  0.50528853035E+02  0.29999979285E+02 0.  0.
         12    1    1    2    0    0  0.29130406852E+02 -0.27249670615E+02 -0.78766160210E+01  0.40659146965E+02  0.00000000000E+00 0. -1.
         11    1    3    3    0    0 -0.36121519741E+01  0.48544088884E+01 -0.60996332051E+01  0.85917665842E+01  0.51100000000E-03 0. -1.
        -11    1    3    3    0    0 -0.87481401503E+01  0.15924274199E+02 -0.14816953498E+01  0.18229313927E+02  0.51100000000E-03 0.  1.
        -12    1    3    3    0    0 -0.16770114727E+02  0.64709875275E+01  0.15457944576E+02  0.23707772524E+02  0.00000000000E+00 0.  1.
</event>
<event>
 7    1  0.5408841E-013  0.5052886E+02  0.7816164E-02  0.1300439E+00
        -11   -1    0    0    0    0  0.00000000000E+00  0.00000000000E+00  0.45593999997E+02  0.45594000000E+02  0.51100000000E-03 0. -1.
         11   -1    0    0    0    0 -0.00000000000E+00 -0.00000000000E+00 -0.45593999997E+02  0.45594000000E+02  0.51100000000E-03 0.  1.
    9900012    2    1    2    0    0 -0.34783620597E+02  0.42678037773E+01  0.20616776422E+02  0.50528857351E+02  0.29999992404E+02 0.  0.
         12    1    1    2    0    0  0.34783620597E+02 -0.42678037773E+01 -0.20616776422E+02  0.40659142649E+02  0.00000000000E+00 0. -1.
         11    1    3    3    0    0  0.13419339285E+01 -0.38730326682E+01  0.24810206283E-02  0.40989236555E+01  0.51100000000E-03 0. -1.
        -11    1    3    3    0    0 -0.76863288340E+01  0.62120302096E+01 -0.19524855459E+01  0.10073786296E+02  0.51100000000E-03 0.  1.
         12    1    3    3    0    0 -0.28439225692E+02  0.19288062359E+01  0.22566780947E+02  0.36356147400E+02  0.00000000000E+00 0. -1.
</event>
<event>
 7    1  0.5408841E-013  0.5052884E+02  0.7816164E-02  0.1300439E+00
        -11   -1    0    0    0    0  0.00000000000E+00  0.00000000000E+00  0.45593999997E+02  0.45594000000E+02  0.51100000000E-03 0.  1.
         11   -1    0    0    0    0 -0.00000000000E+00 -0.00000000000E+00 -0.45593999997E+02  0.45594000000E+02  0.51100000000E-03 0. -1.
    9900012    2    1    2    0    0  0.17647883219E+02 -0.36515395503E+02  0.28887736865E+01  0.50528844767E+02  0.29999954154E+02 0.  0.
         12    1    1    2    0    0 -0.17647883219E+02  0.36515395503E+02 -0.28887736865E+01  0.40659155233E+02  0.00000000000E+00 0. -1.
         11    1    3    3    0    0  0.71894653619E+01 -0.39764447477E+01  0.84981096034E+01  0.11820253471E+02  0.51100000000E-03 0. -1.
        -11    1    3    3    0    0  0.13592143103E+02 -0.18227813699E+02  0.72135467340E+00  0.22749063700E+02  0.51100000000E-03 0.  1.
        -12    1    3    3    0    0 -0.31337252462E+01 -0.14311137056E+02 -0.63306905903E+01  0.15959527596E+02  0.00000000000E+00 0.  1.
</event>
<event>
 7    1  0.5408841E-013  0.5052886E+02  0.7816164E-02  0.1300439E+00
        -11   -1    0    0    0    0  0.00000000000E+00  0.00000000000E+00  0.45593999997E+02  0.45594000000E+02  0.51100000000E-03 0.  1.
         11   -1    0    0    0    0 -0.00000000000E+00 -0.00000000000E+00 -0.45593999997E+02  0.45594000000E+02  0.51100000000E-03 0. -1.
    9900012    2    1    2    0    0  0.37654784054E+01  0.39940258245E+02  0.66153525232E+01  0.50528856560E+02  0.29999990000E+02 0.  0.
         12    1    1    2    0    0 -0.37654784054E+01 -0.39940258245E+02 -0.66153525232E+01  0.40659143440E+02  0.00000000000E+00 0. -1.
         11    1    3    3    0    0 -0.25884152596E+01  0.99267712740E+01  0.97759796014E+00  0.10305162760E+02  0.51100000000E-03 0. -1.
        -11    1    3    3    0    0  0.58255946596E+01  0.34226875184E+02  0.22507680717E+01  0.34791988951E+02  0.51100000000E-03 0.  1.
         12    1    3    3    0    0  0.52829900535E+00 -0.42133882131E+01  0.33869864914E+01  0.54317048490E+01  0.00000000000E+00 0. -1.
</event>
<event>
 7    1  0.5408841E-013  0.5052887E+02  0.7816164E-02  0.1300439E+00
        -11   -1    0    0    0    0  0.00000000000E+00  0.00000000000E+00  0.45593999997E+02  0.45594000000E+02  0.51100000000E-03 0.  1.
         11   -1    0    0    0    0 -0.00000000000E+00 -0.00000000000E+00 -0.45593999997E+02  0.45594000000E+02  0.51100000000E-03 0. -1.
    9900012    2    1    2    0    0 -0.21257451905E+02 -0.32960260006E+02  0.10719473481E+02  0.50528866797E+02  0.30000021116E+02 0.  0.
         12    1    1    2    0    0  0.21257451905E+02  0.32960260006E+02 -0.10719473481E+02  0.40659133203E+02  0.00000000000E+00 0. -1.
         11    1    3    3    0    0 -0.78655853390E+01 -0.95889458960E+01 -0.38645765259E+00  0.12408249913E+02  0.51100000000E-03 0. -1.
        -11    1    3    3    0    0 -0.86956358357E+01 -0.23769228421E+02  0.17063176433E+02  0.30524454009E+02  0.51100000000E-03 0.  1.
         12    1    3    3    0    0 -0.46962307299E+01  0.39791431170E+00 -0.59572452992E+01  0.75961628750E+01  0.00000000000E+00 0. -1.
</event>
<event>
 7    1  0.5408841E-013  0.5052886E+02  0.7816164E-02  0.1300439E+00
        -11   -1    0    0    0    0  0.00000000000E+00  0.00000000000E+00  0.45593999997E+02  0.45594000000E+02  0.51100000000E-03 0. -1.
         11   -1    0    0    0    0 -0.00000000000E+00 -0.00000000000E+00 -0.45593999997E+02  0.45594000000E+02  0.51100000000E-03 0.  1.
    9900012    2    1    2    0    0 -0.31376206033E+02  0.24628543738E+02 -0.78825191212E+01  0.50528861060E+02  0.30000003676E+02 0.  0.
         12    1    1    2    0    0  0.31376206033E+02 -0.24628543738E+02  0.78825191212E+01  0.40659138940E+02  0.00000000000E+00 0. -1.
         11    1    3    3    0    0 -0.78577483462E+01  0.47115666857E+01  0.42797100773E+01  0.10112318642E+02  0.51100000000E-03 0. -1.
        -11    1    3    3    0    0 -0.11222052184E+02 -0.37616603708E+01 -0.44304219595E+01  0.12637768117E+02  0.51100000000E-03 0.  1.
        -12    1    3    3    0    0 -0.12296405503E+02  0.23678637423E+02 -0.77318072390E+01  0.27778774301E+02  0.00000000000E+00 0.  1.
</event>
<event>
 7    1  0.5408841E-013  0.5052887E+02  0.7816164E-02  0.1300439E+00
        -11   -1    0    0    0    0  0.00000000000E+00  0.00000000000E+00  0.45593999997E+02  0.45594000000E+02  0.51100000000E-03 0.  1.
         11   -1    0    0    0    0 -0.00000000000E+00 -0.00000000000E+00 -0.45593999997E+02  0.45594000000E+02  0.51100000000E-03 0. -1.
    9900012    2    1    2    0    0 -0.42768479573E+01  0.23368000707E+02  0.32997122652E+02  0.50528868322E+02  0.30000025753E+02 0.  0.
         12    1    1    2    0    0  0.42768479573E+01 -0.23368000707E+02 -0.32997122652E+02  0.40659131678E+02  0.00000000000E+00 0. -1.
         11    1    3    3    0    0  0.72580207870E+01  0.65459941123E+01  0.13640663876E+02  0.16780840739E+02  0.51100000000E-03 0. -1.
        -11    1    3    3    0    0 -0.27032052259E+01  0.18439952707E+02  0.13786306467E+02  0.23181920123E+02  0.51100000000E-03 0.  1.
         12    1    3    3    0    0 -0.88316635184E+01 -0.16179461123E+01  0.55701523084E+01  0.10566107460E+02  0.00000000000E+00 0. -1.
</event>
<event>
 7    1  0.5408841E-013  0.5052882E+02  0.7816164E-02  0.1300439E+00
        -11   -1    0    0    0    0  0.00000000000E+00  0.00000000000E+00  0.45593999997E+02  0.45594000000E+02  0.51100000000E-03 0.  1.
         11   -1    0    0    0    0 -0.00000000000E+00 -0.00000000000E+00 -0.45593999997E+02  0.45594000000E+02  0.51100000000E-03 0. -1.
    9900012    2    1    2    0    0  0.69968192346E+00 -0.37478874267E+02  0.15748435024E+02  0.50528821740E+02  0.29999884161E+02 0.  0.
         12    1    1    2    0    0 -0.69968192346E+00  0.37478874267E+02 -0.15748435024E+02  0.40659178260E+02  0.00000000000E+00 0. -1.
         11    1    3    3    0    0  0.26659060501E+01 -0.46239866248E-01  0.73017209590E+01  0.77733083315E+01  0.51100000000E-03 0. -1.
        -11    1    3    3    0    0  0.29984864053E+01 -0.14584667996E+02  0.11977520319E+02  0.19109276662E+02  0.51100000000E-03 0.  1.
         12    1    3    3    0    0 -0.49647105319E+01 -0.22847966404E+02 -0.35308062545E+01  0.23646236747E+02  0.00000000000E+00 0. -1.
</event>
<event>
 7    1  0.5408841E-013  0.5052883E+02  0.7816164E-02  0.1300439E+00
        -11   -1    0    0    0    0  0.00000000000E+00  0.00000000000E+00  0.45593999997E+02  0.45594000000E+02  0.51100000000E-03 0. -1.
         11   -1    0    0    0    0 -0.00000000000E+00 -0.00000000000E+00 -0.45593999997E+02  0.45594000000E+02  0.51100000000E-03 0.  1.
    9900012    2    1    2    0    0  0.95536039449E+00 -0.38911846460E+02 -0.11752600314E+02  0.50528829785E+02  0.29999908615E+02 0.  0.
         12    1    1    2    0    0 -0.95536039449E+00  0.38911846460E+02  0.11752600314E+02  0.40659170215E+02  0.00000000000E+00 0. -1.
         11    1    3    3    0    0  0.45209898385E+01 -0.90906975784E+01 -0.94533792227E+01  0.13872509166E+02  0.51100000000E-03 0. -1.
        -11    1    3    3    0    0  0.15165128306E+01 -0.66300292929E+01 -0.96473351761E+01  0.11803735674E+02  0.51100000000E-03 0.  1.
         12    1    3    3    0    0 -0.50821422746E+01 -0.23191119589E+02  0.73481140845E+01  0.24852584945E+02  0.00000000000E+00 0. -1.
</event>
<event>
 7    1  0.5408841E-013  0.5052885E+02  0.7816164E-02  0.1300439E+00
        -11   -1    0    0    0    0  0.00000000000E+00  0.00000000000E+00  0.45593999997E+02  0.45594000000E+02  0.51100000000E-03 0.  1.
         11   -1    0    0    0    0 -0.00000000000E+00 -0.00000000000E+00 -0.45593999997E+02  0.45594000000E+02  0.51100000000E-03 0. -1.
    9900012    2    1    2    0    0  0.26647799248E+02  0.66072699736E+01  0.29990085419E+02  0.50528850418E+02  0.29999971332E+02 0.  0.
         12    1    1    2    0    0 -0.26647799248E+02 -0.66072699736E+01 -0.29990085419E+02  0.40659149582E+02  0.00000000000E+00 0. -1.
         11    1    3    3    0    0  0.10746624409E+02  0.24971981220E+01  0.47531970565E+01  0.12013276704E+02  0.51100000000E-03 0. -1.
        -11    1    3    3    0    0  0.21414086094E+02  0.33604252701E+01  0.24795621345E+02  0.32934455809E+02  0.51100000000E-03 0.  1.
         12    1    3    3    0    0 -0.55129112549E+01  0.74964658152E+00  0.44126701710E+00  0.55811179061E+01  0.00000000000E+00 0. -1.
</event>
<event>
 7    1  0.5408841E-013  0.5052886E+02  0.7816164E-02  0.1300439E+00
        -11   -1    0    0    0    0  0.00000000000E+00  0.00000000000E+00  0.45593999997E+02  0.45594000000E+02  0.51100000000E-03 0. -1.
         11   -1    0    0    0    0 -0.00000000000E+00 -0.00000000000E+00 -0.45593999997E+02  0.45594000000E+02  0.51100000000E-03 0.  1.
    9900012    2    1    2    0    0 -0.23777956253E+02  0.26496857776E+02 -0.19639009872E+02  0.50528863458E+02  0.30000010968E+02 0.  0.
         12    1    1    2    0    0  0.23777956253E+02 -0.26496857776E+02  0.19639009872E+02  0.40659136542E+02  0.00000000000E+00 0. -1.
         11    1    3    3    0    0 -0.15968209618E+02  0.82756372231E+01 -0.16443045112E+01  0.18060277612E+02  0.51100000000E-03 0. -1.
        -11    1    3    3    0    0 -0.84042959748E+01  0.96479209488E+01 -0.19907112090E+02  0.23664481433E+02  0.51100000000E-03 0.  1.
         12    1    3    3    0    0  0.59454933969E+00  0.85732996044E+01  0.19124067293E+01  0.88041044134E+01  0.00000000000E+00 0. -1.
</event>
<event>
 7    1  0.5408841E-013  0.5052886E+02  0.7816164E-02  0.1300439E+00
        -11   -1    0    0    0    0  0.00000000000E+00  0.00000000000E+00  0.45593999997E+02  0.45594000000E+02  0.51100000000E-03 0.  1.
         11   -1    0    0    0    0 -0.00000000000E+00 -0.00000000000E+00 -0.45593999997E+02  0.45594000000E+02  0.51100000000E-03 0. -1.
    9900012    2    1    2    0    0 -0.35344755041E+02  0.19807664263E+02  0.34015415411E+01  0.50528858871E+02  0.29999997024E+02 0.  0.
         12    1    1    2    0    0  0.35344755041E+02 -0.19807664263E+02 -0.34015415411E+01  0.40659141129E+02  0.00000000000E+00 0. -1.
         11    1    3    3    0    0 -0.14298489368E+02  0.80679384816E+01  0.97816738842E+01  0.19110718819E+02  0.51100000000E-03 0.  1.
        -11    1    3    3    0    0 -0.96707492472E-01  0.62143103762E+01  0.40030293517E+01  0.73926483781E+01  0.51100000000E-03 0. -1.
        -12    1    3    3    0    0 -0.20949558181E+02  0.55254154054E+01 -0.10383161695E+02  0.24025491674E+02  0.00000000000E+00 0.  1.
</event>
<event>
 7    1  0.5408841E-013  0.5052885E+02  0.7816164E-02  0.1300439E+00
        -11   -1    0    0    0    0  0.00000000000E+00  0.00000000000E+00  0.45593999997E+02  0.45594000000E+02  0.51100000000E-03 0. -1.
         11   -1    0    0    0    0 -0.00000000000E+00 -0.00000000000E+00 -0.45593999997E+02  0.45594000000E+02  0.51100000000E-03 0.  1.
    9900012    2    1    2    0    0  0.30173730119E+02  0.26677697719E+02 -0.55688929431E+01  0.50528854491E+02  0.29999983711E+02 0.  0.
         12    1    1    2    0    0 -0.30173730119E+02 -0.26677697719E+02  0.55688929431E+01  0.40659145509E+02  0.00000000000E+00 0. -1.
         11    1    3    3    0    0  0.14803182359E+01  0.48611349490E+01  0.45341586395E+01  0.68103281787E+01  0.51100000000E-03 0. -1.
        -11    1    3    3    0    0 -0.30454574736E+01  0.56348555201E+01  0.81585771014E+00  0.64569367366E+01  0.51100000000E-03 0.  1.
        -12    1    3    3    0    0  0.31738869357E+02  0.16181707250E+02 -0.10918909293E+02  0.37261589576E+02  0.00000000000E+00 0.  1.
</event>
<event>
 7    1  0.5408841E-013  0.5052886E+02  0.7816164E-02  0.1300439E+00
        -11   -1    0    0    0    0  0.00000000000E+00  0.00000000000E+00  0.45593999997E+02  0.45594000000E+02  0.51100000000E-03 0.  1.
         11   -1    0    0    0    0 -0.00000000000E+00 -0.00000000000E+00 -0.45593999997E+02  0.45594000000E+02  0.51100000000E-03 0. -1.
    9900012    2    1    2    0    0  0.43595340564E+01  0.24000888600E+02  0.32528716727E+02  0.50528860773E+02  0.30000002806E+02 0.  0.
         12    1    1    2    0    0 -0.43595340564E+01 -0.24000888600E+02 -0.32528716727E+02  0.40659139227E+02  0.00000000000E+00 0. -1.
         11    1    3    3    0    0 -0.64246823383E+01  0.64994605116E+01  0.73584884664E+01  0.11733153151E+02  0.51100000000E-03 0. -1.
        -11    1    3    3    0    0 -0.36380638810E+01  0.13966574200E+02  0.99381574125E+01  0.17523346619E+02  0.51100000000E-03 0.  1.
        -12    1    3    3    0    0  0.14422280276E+02  0.35348538880E+01  0.15232070848E+02  0.21272361004E+02  0.00000000000E+00 0.  1.
</event>
<event>
 7    1  0.5408841E-013  0.5052886E+02  0.7816164E-02  0.1300439E+00
        -11   -1    0    0    0    0  0.00000000000E+00  0.00000000000E+00  0.45593999997E+02  0.45594000000E+02  0.51100000000E-03 0.  1.
         11   -1    0    0    0    0 -0.00000000000E+00 -0.00000000000E+00 -0.45593999997E+02  0.45594000000E+02  0.51100000000E-03 0. -1.
    9900012    2    1    2    0    0 -0.27457948822E+00 -0.91890884427E+01  0.39606195228E+02  0.50528862765E+02  0.30000008860E+02 0.  0.
         12    1    1    2    0    0  0.27457948822E+00  0.91890884427E+01 -0.39606195228E+02  0.40659137235E+02  0.00000000000E+00 0. -1.
         11    1    3    3    0    0 -0.11055061972E+02 -0.39724708214E+01  0.16041807109E+02  0.19883020273E+02  0.51100000000E-03 0. -1.
        -11    1    3    3    0    0 -0.15341536407E+01  0.23789076214E+01  0.11390489852E+02  0.11736953957E+02  0.51100000000E-03 0.  1.
        -12    1    3    3    0    0  0.12314636124E+02 -0.75955252427E+01  0.12173898268E+02  0.18908888535E+02  0.00000000000E+00 0.  1.
</event>
<event>
 7    1  0.5408841E-013  0.5052888E+02  0.7816164E-02  0.1300439E+00
        -11   -1    0    0    0    0  0.00000000000E+00  0.00000000000E+00  0.45593999997E+02  0.45594000000E+02  0.51100000000E-03 0. -1.
         11   -1    0    0    0    0 -0.00000000000E+00 -0.00000000000E+00 -0.45593999997E+02  0.45594000000E+02  0.51100000000E-03 0.  1.
    9900012    2    1    2    0    0 -0.77861403162E+01 -0.38740383843E+02 -0.95771917025E+01  0.50528881438E+02  0.30000065620E+02 0.  0.
         12    1    1    2    0    0  0.77861403162E+01  0.38740383843E+02  0.95771917025E+01  0.40659118562E+02  0.00000000000E+00 0. -1.
         11    1    3    3    0    0 -0.13609281189E+02 -0.16415195461E+02 -0.21668025184E+01  0.21432830189E+02  0.51100000000E-03 0. -1.
        -11    1    3    3    0    0  0.47025805422E+01 -0.24534045794E+02 -0.46901608054E+01  0.25417145304E+02  0.51100000000E-03 0.  1.
        -12    1    3    3    0    0  0.11205603309E+01  0.22088574117E+01 -0.27202283786E+01  0.36789059450E+01  0.00000000000E+00 0.  1.
</event>
<event>
 7    1  0.5408841E-013  0.5052886E+02  0.7816164E-02  0.1300439E+00
        -11   -1    0    0    0    0  0.00000000000E+00  0.00000000000E+00  0.45593999997E+02  0.45594000000E+02  0.51100000000E-03 0.  1.
         11   -1    0    0    0    0 -0.00000000000E+00 -0.00000000000E+00 -0.45593999997E+02  0.45594000000E+02  0.51100000000E-03 0. -1.
    9900012    2    1    2    0    0 -0.32478119370E+01  0.52015934815E+01  0.40194036213E+02  0.50528863214E+02  0.30000010224E+02 0.  0.
         12    1    1    2    0    0  0.32478119370E+01 -0.52015934815E+01 -0.40194036213E+02  0.40659136786E+02  0.00000000000E+00 0. -1.
         11    1    3    3    0    0  0.40640260353E+01 -0.76170084741E+01  0.82126669995E+01  0.11915663020E+02  0.51100000000E-03 0. -1.
        -11    1    3    3    0    0 -0.86984521228E+01  0.71122353189E+01  0.30575762600E+02  0.32574901679E+02  0.51100000000E-03 0.  1.
         12    1    3    3    0    0  0.13866141504E+01  0.57063666368E+01  0.14056066132E+01  0.60382985142E+01  0.00000000000E+00 0. -1.
</event>
<event>
 7    1  0.5408841E-013  0.5052887E+02  0.7816164E-02  0.1300439E+00
        -11   -1    0    0    0    0  0.00000000000E+00  0.00000000000E+00  0.45593999997E+02  0.45594000000E+02  0.51100000000E-03 0. -1.
         11   -1    0    0    0    0 -0.00000000000E+00 -0.00000000000E+00 -0.45593999997E+02  0.45594000000E+02  0.51100000000E-03 0.  1.
    9900012    2    1    2    0    0 -0.38129442699E+02  0.14038850079E+02 -0.14904756297E+01  0.50528865360E+02  0.30000016748E+02 0.  0.
         12    1    1    2    0    0  0.38129442699E+02 -0.14038850079E+02  0.14904756297E+01  0.40659134640E+02  0.00000000000E+00 0. -1.
         11    1    3    3    0    0 -0.82797565766E+00 -0.42196966104E+01  0.37287165551E+01  0.56916351414E+01  0.51100000000E-03 0. -1.
        -11    1    3    3    0    0 -0.16700664251E+02  0.85477350173E+01  0.56616287497E+01  0.19596683411E+02  0.51100000000E-03 0.  1.
        -12    1    3    3    0    0 -0.20600802791E+02  0.97108116724E+01 -0.10880820934E+02  0.25240546808E+02  0.00000000000E+00 0.  1.
</event>
<event>
 7    1  0.5408841E-013  0.5052886E+02  0.7816164E-02  0.1300439E+00
        -11   -1    0    0    0    0  0.00000000000E+00  0.00000000000E+00  0.45593999997E+02  0.45594000000E+02  0.51100000000E-03 0.  1.
         11   -1    0    0    0    0 -0.00000000000E+00 -0.00000000000E+00 -0.45593999997E+02  0.45594000000E+02  0.51100000000E-03 0. -1.
    9900012    2    1    2    0    0  0.56453325247E+01  0.98351992772E+01  0.39045673475E+02  0.50528861528E+02  0.30000005100E+02 0.  0.
         12    1    1    2    0    0 -0.56453325247E+01 -0.98351992772E+01 -0.39045673475E+02  0.40659138472E+02  0.00000000000E+00 0. -1.
         11    1    3    3    0    0 -0.13087742323E+01 -0.33193561029E+01  0.49408624988E+01  0.60945169966E+01  0.51100000000E-03 0. -1.
        -11    1    3    3    0    0  0.34611641632E+01 -0.63120769739E+01  0.16316958276E+02  0.17834379741E+02  0.51100000000E-03 0.  1.
         12    1    3    3    0    0  0.34929425937E+01  0.19466632354E+02  0.17787852701E+02  0.26599964791E+02  0.00000000000E+00 0. -1.
</event>
<event>
 7    1  0.5408841E-013  0.5052893E+02  0.7816164E-02  0.1300439E+00
        -11   -1    0    0    0    0  0.00000000000E+00  0.00000000000E+00  0.45593999997E+02  0.45594000000E+02  0.51100000000E-03 0.  1.
         11   -1    0    0    0    0 -0.00000000000E+00 -0.00000000000E+00 -0.45593999997E+02  0.45594000000E+02  0.51100000000E-03 0. -1.
    9900012    2    1    2    0    0  0.36094273572E+02  0.13545192161E+02  0.12918627978E+02  0.50528932571E+02  0.30000221041E+02 0.  0.
         12    1    1    2    0    0 -0.36094273572E+02 -0.13545192161E+02 -0.12918627978E+02  0.40659067429E+02  0.00000000000E+00 0. -1.
         11    1    3    3    0    0  0.43721714772E+01 -0.52842377625E+01  0.18908682148E+01  0.71143822658E+01  0.51100000000E-03 0. -1.
        -11    1    3    3    0    0  0.26077451261E+02  0.51291373992E+01  0.35377002258E+01  0.26811505699E+02  0.51100000000E-03 0.  1.
         12    1    3    3    0    0  0.56446508344E+01  0.13700292524E+02  0.74900595379E+01  0.16603044605E+02  0.00000000000E+00 0. -1.
</event>
<event>
 7    1  0.5408841E-013  0.5052885E+02  0.7816164E-02  0.1300439E+00
        -11   -1    0    0    0    0  0.00000000000E+00  0.00000000000E+00  0.45593999997E+02  0.45594000000E+02  0.51100000000E-03 0. -1.
         11   -1    0    0    0    0 -0.00000000000E+00 -0.00000000000E+00 -0.45593999997E+02  0.45594000000E+02  0.51100000000E-03 0.  1.
    9900012    2    1    2    0    0 -0.26389816553E+02 -0.18874369466E+02 -0.24505145181E+02  0.50528851204E+02  0.29999973721E+02 0.  0.
         12    1    1    2    0    0  0.26389816553E+02  0.18874369466E+02  0.24505145181E+02  0.40659148796E+02  0.00000000000E+00 0. -1.
         11    1    3    3    0    0 -0.36723381904E+01  0.79277853719E+00  0.12090147233E+01  0.39466799282E+01  0.51100000000E-03 0. -1.
        -11    1    3    3    0    0 -0.19046726106E+02 -0.53652715310E+00 -0.15643831378E+02  0.24653500709E+02  0.51100000000E-03 0.  1.
        -12    1    3    3    0    0 -0.36707522567E+01 -0.19130620850E+02 -0.10070328527E+02  0.21928670568E+02  0.00000000000E+00 0.  1.
</event>
<event>
 7    1  0.5408841E-013  0.5052886E+02  0.7816164E-02  0.1300439E+00
        -11   -1    0    0    0    0  0.00000000000E+00  0.00000000000E+00  0.45593999997E+02  0.45594000000E+02  0.51100000000E-03 0. -1.
         11   -1    0    0    0    0 -0.00000000000E+00 -0.00000000000E+00 -0.45593999997E+02  0.45594000000E+02  0.51100000000E-03 0.  1.
    9900012    2    1    2    0    0  0.24443234104E+02  0.79676745136E+01 -0.31499361238E+02  0.50528864630E+02  0.30000014530E+02 0.  0.
         12    1    1    2    0    0 -0.24443234104E+02 -0.79676745136E+01  0.31499361238E+02  0.40659135370E+02  0.00000000000E+00 0. -1.
         11    1    3    3    0    0  0.21501954290E+02  0.18151515938E+01 -0.18744666204E+02  0.28583060105E+02  0.51100000000E-03 0. -1.
        -11    1    3    3    0    0  0.95158944426E+01  0.27691997892E+01 -0.45631479876E+01  0.10910684412E+02  0.51100000000E-03 0.  1.
         12    1    3    3    0    0 -0.65746146285E+01  0.33833231305E+01 -0.81915470459E+01  0.11035120114E+02  0.00000000000E+00 0. -1.
</event>
<event>
 7    1  0.5408841E-013  0.5052890E+02  0.7816164E-02  0.1300439E+00
        -11   -1    0    0    0    0  0.00000000000E+00  0.00000000000E+00  0.45593999997E+02  0.45594000000E+02  0.51100000000E-03 0.  1.
         11   -1    0    0    0    0 -0.00000000000E+00 -0.00000000000E+00 -0.45593999997E+02  0.45594000000E+02  0.51100000000E-03 0. -1.
    9900012    2    1    2    0    0 -0.29998035077E+02 -0.26229297932E+02  0.80811268413E+01  0.50528895367E+02  0.30000107958E+02 0.  0.
         12    1    1    2    0    0  0.29998035077E+02  0.26229297932E+02 -0.80811268413E+01  0.40659104633E+02  0.00000000000E+00 0. -1.
         11    1    3    3    0    0 -0.48813048851E+01  0.99054277557E+00 -0.41180106434E+01  0.64626870799E+01  0.51100000000E-03 0. -1.
        -11    1    3    3    0    0 -0.75070425393E+01  0.12416558354E+01 -0.17487408000E+01  0.78073997942E+01  0.51100000000E-03 0.  1.
         12    1    3    3    0    0 -0.17609687653E+02 -0.28461496543E+02  0.13947878285E+02  0.36258808493E+02  0.00000000000E+00 0. -1.
</event>
<event>
 7    1  0.5408841E-013  0.5052884E+02  0.7816164E-02  0.1300439E+00
        -11   -1    0    0    0    0  0.00000000000E+00  0.00000000000E+00  0.45593999997E+02  0.45594000000E+02  0.51100000000E-03 0.  1.
         11   -1    0    0    0    0 -0.00000000000E+00 -0.00000000000E+00 -0.45593999997E+02  0.45594000000E+02  0.51100000000E-03 0. -1.
    9900012    2    1    2    0    0  0.24293709765E+02 -0.28002552913E+02  0.16698494296E+02  0.50528843398E+02  0.29999949993E+02 0.  0.
         12    1    1    2    0    0 -0.24293709765E+02  0.28002552913E+02 -0.16698494296E+02  0.40659156602E+02  0.00000000000E+00 0. -1.
         11    1    3    3    0    0  0.12370887961E+02 -0.65404165473E+01  0.11440118348E+02  0.18074629336E+02  0.51100000000E-03 0.  1.
        -11    1    3    3    0    0 -0.30391399597E+01  0.21476304792E+01 -0.90831915549E+00  0.38306307991E+01  0.51100000000E-03 0. -1.
         12    1    3    3    0    0  0.14961961764E+02 -0.23609766845E+02  0.61666951034E+01  0.28623583263E+02  0.00000000000E+00 0. -1.
</event>
<event>
 7    1  0.5408841E-013  0.5052886E+02  0.7816164E-02  0.1300439E+00
        -11   -1    0    0    0    0  0.00000000000E+00  0.00000000000E+00  0.45593999997E+02  0.45594000000E+02  0.51100000000E-03 0.  1.
         11   -1    0    0    0    0 -0.00000000000E+00 -0.00000000000E+00 -0.45593999997E+02  0.45594000000E+02  0.51100000000E-03 0. -1.
    9900012    2    1    2    0    0  0.23011965436E+02 -0.30988646203E+02  0.12779624673E+02  0.50528861377E+02  0.30000004643E+02 0.  0.
         12    1    1    2    0    0 -0.23011965436E+02  0.30988646203E+02 -0.12779624673E+02  0.40659138623E+02  0.00000000000E+00 0. -1.
         11    1    3    3    0    0  0.45443999589E+01 -0.18958265223E+02 -0.19616749611E+01  0.19593763298E+02  0.51100000000E-03 0. -1.
        -11    1    3    3    0    0  0.12448493949E+02 -0.15507343037E+02  0.86229493507E+01  0.21674822846E+02  0.51100000000E-03 0.  1.
         12    1    3    3    0    0  0.60190715287E+01  0.34769620565E+01  0.61183502832E+01  0.92602752334E+01  0.00000000000E+00 0. -1.
</event>
<event>
 7    1  0.5408841E-013  0.5052886E+02  0.7816164E-02  0.1300439E+00
        -11   -1    0    0    0    0  0.00000000000E+00  0.00000000000E+00  0.45593999997E+02  0.45594000000E+02  0.51100000000E-03 0. -1.
         11   -1    0    0    0    0 -0.00000000000E+00 -0.00000000000E+00 -0.45593999997E+02  0.45594000000E+02  0.51100000000E-03 0.  1.
    9900012    2    1    2    0    0 -0.35190536473E+02 -0.73445508927E+01  0.18996037933E+02  0.50528859057E+02  0.29999997590E+02 0.  0.
         12    1    1    2    0    0  0.35190536473E+02  0.73445508927E+01 -0.18996037933E+02  0.40659140943E+02  0.00000000000E+00 0. -1.
         11    1    3    3    0    0 -0.14292363765E+02 -0.15399090613E+02  0.70431837158E+01  0.22158747501E+02  0.51100000000E-03 0. -1.
        -11    1    3    3    0    0  0.82283939848E+00  0.33908832620E+01  0.20496918000E+01  0.40467753469E+01  0.51100000000E-03 0.  1.
        -12    1    3    3    0    0 -0.21721012106E+02  0.46636564584E+01  0.99031624171E+01  0.24323336209E+02  0.00000000000E+00 0.  1.
</event>
<event>
 7    1  0.5408841E-013  0.5052886E+02  0.7816164E-02  0.1300439E+00
        -11   -1    0    0    0    0  0.00000000000E+00  0.00000000000E+00  0.45593999997E+02  0.45594000000E+02  0.51100000000E-03 0. -1.
         11   -1    0    0    0    0 -0.00000000000E+00 -0.00000000000E+00 -0.45593999997E+02  0.45594000000E+02  0.51100000000E-03 0.  1.
    9900012    2    1    2    0    0  0.10467399728E+02  0.13046879488E+01 -0.39266995522E+02  0.50528860744E+02  0.30000002717E+02 0.  0.
         12    1    1    2    0    0 -0.10467399728E+02 -0.13046879488E+01  0.39266995522E+02  0.40659139256E+02  0.00000000000E+00 0. -1.
         11    1    3    3    0    0 -0.90599555749E+00  0.10997040278E+02 -0.16848248865E+02  0.20139990389E+02  0.51100000000E-03 0. -1.
        -11    1    3    3    0    0  0.26372488292E+01  0.35541136541E+01 -0.68749385113E+01  0.81762818597E+01  0.51100000000E-03 0.  1.
         12    1    3    3    0    0  0.87361464559E+01 -0.13246465983E+02 -0.15543808146E+02  0.22212588495E+02  0.00000000000E+00 0. -1.
</event>
<event>
 7    1  0.5408841E-013  0.5052890E+02  0.7816164E-02  0.1300439E+00
        -11   -1    0    0    0    0  0.00000000000E+00  0.00000000000E+00  0.45593999997E+02  0.45594000000E+02  0.51100000000E-03 0.  1.
         11   -1    0    0    0    0 -0.00000000000E+00 -0.00000000000E+00 -0.45593999997E+02  0.45594000000E+02  0.51100000000E-03 0. -1.
    9900012    2    1    2    0    0  0.13669107929E+02  0.21635966592E+02  0.31594347815E+02  0.50528900455E+02  0.30000123424E+02 0.  0.
         12    1    1    2    0    0 -0.13669107929E+02 -0.21635966592E+02 -0.31594347815E+02  0.40659099545E+02  0.00000000000E+00 0. -1.
         11    1    3    3    0    0 -0.12089505781E+01  0.17885118207E+02  0.11284141590E+02  0.21181852290E+02  0.51100000000E-03 0. -1.
        -11    1    3    3    0    0  0.15686526959E+01  0.38846733281E+01 -0.92024163991E+00  0.42893126586E+01  0.51100000000E-03 0.  1.
        -12    1    3    3    0    0  0.13309405811E+02 -0.13382494318E+00  0.21230447865E+02  0.25057735506E+02  0.00000000000E+00 0.  1.
</event>
<event>
 7    1  0.5408841E-013  0.5052886E+02  0.7816164E-02  0.1300439E+00
        -11   -1    0    0    0    0  0.00000000000E+00  0.00000000000E+00  0.45593999997E+02  0.45594000000E+02  0.51100000000E-03 0.  1.
         11   -1    0    0    0    0 -0.00000000000E+00 -0.00000000000E+00 -0.45593999997E+02  0.45594000000E+02  0.51100000000E-03 0. -1.
    9900012    2    1    2    0    0 -0.26467597850E+02 -0.24613852086E+02  0.18622298941E+02  0.50528862426E+02  0.30000007829E+02 0.  0.
         12    1    1    2    0    0  0.26467597850E+02  0.24613852086E+02 -0.18622298941E+02  0.40659137574E+02  0.00000000000E+00 0. -1.
         11    1    3    3    0    0  0.42041485445E+01 -0.75887459489E+00  0.43754232476E+01  0.61151520416E+01  0.51100000000E-03 0. -1.
        -11    1    3    3    0    0 -0.54264002094E+01 -0.79918660864E+01  0.10655812305E+02  0.14382700683E+02  0.51100000000E-03 0.  1.
         12    1    3    3    0    0 -0.25245346185E+02 -0.15863111404E+02  0.35910633884E+01  0.30031009701E+02  0.00000000000E+00 0. -1.
</event>
<event>
 7    1  0.5408841E-013  0.5052886E+02  0.7816164E-02  0.1300439E+00
        -11   -1    0    0    0    0  0.00000000000E+00  0.00000000000E+00  0.45593999997E+02  0.45594000000E+02  0.51100000000E-03 0.  1.
         11   -1    0    0    0    0 -0.00000000000E+00 -0.00000000000E+00 -0.45593999997E+02  0.45594000000E+02  0.51100000000E-03 0. -1.
    9900012    2    1    2    0    0 -0.21669377291E+01  0.37912372163E+01  0.40423962551E+02  0.50528857767E+02  0.29999993670E+02 0.  0.
         12    1    1    2    0    0  0.21669377291E+01 -0.37912372163E+01 -0.40423962551E+02  0.40659142233E+02  0.00000000000E+00 0. -1.
         11    1    3    3    0    0 -0.58139921095E+01  0.46769128896E+01  0.16093862312E+02  0.17739459485E+02  0.51100000000E-03 0. -1.
        -11    1    3    3    0    0 -0.82844732247E+01  0.22644495624E+01  0.15127658424E+02  0.17395582143E+02  0.51100000000E-03 0.  1.
        -12    1    3    3    0    0  0.11931527605E+02 -0.31501252356E+01  0.92024418145E+01  0.15393816140E+02  0.00000000000E+00 0.  1.
</event>
<event>
 7    1  0.5408841E-013  0.5052886E+02  0.7816164E-02  0.1300439E+00
        -11   -1    0    0    0    0  0.00000000000E+00  0.00000000000E+00  0.45593999997E+02  0.45594000000E+02  0.51100000000E-03 0.  1.
         11   -1    0    0    0    0 -0.00000000000E+00 -0.00000000000E+00 -0.45593999997E+02  0.45594000000E+02  0.51100000000E-03 0. -1.
    9900012    2    1    2    0    0 -0.11814047702E+02 -0.38826384804E+02 -0.24710235034E+01  0.50528857889E+02  0.29999994040E+02 0.  0.
         12    1    1    2    0    0  0.11814047702E+02  0.38826384804E+02  0.24710235034E+01  0.40659142111E+02  0.00000000000E+00 0. -1.
         11    1    3    3    0    0 -0.29865221571E+01 -0.24146789250E+02 -0.63662138580E+01  0.25149859340E+02  0.51100000000E-03 0. -1.
        -11    1    3    3    0    0 -0.13288807479E+02 -0.14075210426E+02 -0.10350298736E+00  0.19357548033E+02  0.51100000000E-03 0.  1.
        -12    1    3    3    0    0  0.44612819339E+01 -0.60438512840E+00  0.39986933420E+01  0.60214505163E+01  0.00000000000E+00 0.  1.
</event>
<event>
 7    1  0.5408841E-013  0.5052887E+02  0.7816164E-02  0.1300439E+00
        -11   -1    0    0    0    0  0.00000000000E+00  0.00000000000E+00  0.45593999997E+02  0.45594000000E+02  0.51100000000E-03 0.  1.
         11   -1    0    0    0    0 -0.00000000000E+00 -0.00000000000E+00 -0.45593999997E+02  0.45594000000E+02  0.51100000000E-03 0. -1.
    9900012    2    1    2    0    0  0.35854365007E+02  0.88328043332E+01  0.17017952145E+02  0.50528872886E+02  0.30000039623E+02 0.  0.
         12    1    1    2    0    0 -0.35854365007E+02 -0.88328043332E+01 -0.17017952145E+02  0.40659127114E+02  0.00000000000E+00 0. -1.
         11    1    3    3    0    0  0.41150948287E+01 -0.60283717441E+01  0.27497062833E+01  0.77997536012E+01  0.51100000000E-03 0.  1.
        -11    1    3    3    0    0  0.62702157774E+00 -0.38710133777E+01  0.19587505003E+01  0.43834466363E+01  0.51100000000E-03 0. -1.
        -12    1    3    3    0    0  0.31112248601E+02  0.18732189455E+02  0.12309495362E+02  0.38345672648E+02  0.00000000000E+00 0.  1.
</event>
<event>
 7    1  0.5408841E-013  0.5052884E+02  0.7816164E-02  0.1300439E+00
        -11   -1    0    0    0    0  0.00000000000E+00  0.00000000000E+00  0.45593999997E+02  0.45594000000E+02  0.51100000000E-03 0. -1.
         11   -1    0    0    0    0 -0.00000000000E+00 -0.00000000000E+00 -0.45593999997E+02  0.45594000000E+02  0.51100000000E-03 0.  1.
    9900012    2    1    2    0    0  0.40106418871E+02  0.61466749571E+01 -0.26192591194E+01  0.50528844008E+02  0.29999951846E+02 0.  0.
         12    1    1    2    0    0 -0.40106418871E+02 -0.61466749571E+01  0.26192591194E+01  0.40659155992E+02  0.00000000000E+00 0. -1.
         11    1    3    3    0    0  0.21434103021E+02 -0.65077998557E+01  0.41198885827E+01  0.22775989846E+02  0.51100000000E-03 0.  1.
        -11    1    3    3    0    0 -0.18617635484E+01  0.43792057009E+01 -0.74128901898E+00  0.48159231463E+01  0.51100000000E-03 0. -1.
        -12    1    3    3    0    0  0.20534079399E+02  0.82752691120E+01 -0.59978586832E+01  0.22936931015E+02  0.00000000000E+00 0.  1.
</event>
<event>
 7    1  0.5408841E-013  0.5052886E+02  0.7816164E-02  0.1300439E+00
        -11   -1    0    0    0    0  0.00000000000E+00  0.00000000000E+00  0.45593999997E+02  0.45594000000E+02  0.51100000000E-03 0. -1.
         11   -1    0    0    0    0 -0.00000000000E+00 -0.00000000000E+00 -0.45593999997E+02  0.45594000000E+02  0.51100000000E-03 0.  1.
    9900012    2    1    2    0    0  0.37975269239E+02  0.13391945299E+02 -0.56303052095E+01  0.50528860690E+02  0.30000002554E+02 0.  0.
         12    1    1    2    0    0 -0.37975269239E+02 -0.13391945299E+02  0.56303052095E+01  0.40659139310E+02  0.00000000000E+00 0. -1.
         11    1    3    3    0    0  0.10390011872E+02 -0.34163358291E+01  0.15711838209E+01  0.11049539179E+02  0.51100000000E-03 0. -1.
        -11    1    3    3    0    0  0.92224814266E+01 -0.47979870136E+01 -0.29557721684E+01  0.10807933772E+02  0.51100000000E-03 0.  1.
        -12    1    3    3    0    0  0.18362775940E+02  0.21606268141E+02 -0.42457168619E+01  0.28671387739E+02  0.00000000000E+00 0.  1.
</event>
<event>
 7    1  0.5408841E-013  0.5052886E+02  0.7816164E-02  0.1300439E+00
        -11   -1    0    0    0    0  0.00000000000E+00  0.00000000000E+00  0.45593999997E+02  0.45594000000E+02  0.51100000000E-03 0.  1.
         11   -1    0    0    0    0 -0.00000000000E+00 -0.00000000000E+00 -0.45593999997E+02  0.45594000000E+02  0.51100000000E-03 0. -1.
    9900012    2    1    2    0    0  0.14300104755E+02 -0.15556829956E+02  0.34736977907E+02  0.50528860949E+02  0.30000003339E+02 0.  0.
         12    1    1    2    0    0 -0.14300104755E+02  0.15556829956E+02 -0.34736977907E+02  0.40659139051E+02  0.00000000000E+00 0. -1.
         11    1    3    3    0    0  0.15465637285E+02  0.21544411251E+01  0.21653938196E+02  0.26696827393E+02  0.51100000000E-03 0.  1.
        -11    1    3    3    0    0  0.34800540252E+01 -0.34820446839E+01  0.26970606566E+01  0.56133365875E+01  0.51100000000E-03 0. -1.
        -12    1    3    3    0    0 -0.46455865547E+01 -0.14229226398E+02  0.10385979055E+02  0.18218696969E+02  0.00000000000E+00 0.  1.
</event>
<event>
 7    1  0.5408841E-013  0.5052885E+02  0.7816164E-02  0.1300439E+00
        -11   -1    0    0    0    0  0.00000000000E+00  0.00000000000E+00  0.45593999997E+02  0.45594000000E+02  0.51100000000E-03 0. -1.
         11   -1    0    0    0    0 -0.00000000000E+00 -0.00000000000E+00 -0.45593999997E+02  0.45594000000E+02  0.51100000000E-03 0.  1.
    9900012    2    1    2    0    0 -0.10654700114E+02 -0.21086000417E+02 -0.33091149064E+02  0.50528853495E+02  0.29999980683E+02 0.  0.
         12    1    1    2    0    0  0.10654700114E+02  0.21086000417E+02  0.33091149064E+02  0.40659146505E+02  0.00000000000E+00 0. -1.
         11    1    3    3    0    0  0.24026821845E+01  0.60259379449E+00 -0.26920647958E+01  0.36583075440E+01  0.51100000000E-03 0. -1.
        -11    1    3    3    0    0 -0.13766399282E+01  0.94510242227E+00 -0.18816673533E+02  0.18890620932E+02  0.51100000000E-03 0.  1.
         12    1    3    3    0    0 -0.11680742371E+02 -0.22633696634E+02 -0.11582410736E+02  0.27979925019E+02  0.00000000000E+00 0. -1.
</event>
<event>
 7    1  0.5408841E-013  0.5052872E+02  0.7816164E-02  0.1300439E+00
        -11   -1    0    0    0    0  0.00000000000E+00  0.00000000000E+00  0.45593999997E+02  0.45594000000E+02  0.51100000000E-03 0.  1.
         11   -1    0    0    0    0 -0.00000000000E+00 -0.00000000000E+00 -0.45593999997E+02  0.45594000000E+02  0.51100000000E-03 0. -1.
    9900012    2    1    2    0    0 -0.32769072370E+02  0.14269721802E+02  0.19384013858E+02  0.50528719908E+02  0.29999574631E+02 0.  0.
         12    1    1    2    0    0  0.32769072370E+02 -0.14269721802E+02 -0.19384013858E+02  0.40659280092E+02  0.00000000000E+00 0. -1.
         11    1    3    3    0    0 -0.25358583256E+01  0.63022417040E+01 -0.51124046141E+00  0.68125028450E+01  0.51100000000E-03 0. -1.
        -11    1    3    3    0    0  0.36599218403E+01 -0.17267595067E+00  0.17638039983E+00  0.36682359749E+01  0.51100000000E-03 0.  1.
        -12    1    3    3    0    0 -0.33893135885E+02  0.81401560489E+01  0.19718873920E+02  0.40047981089E+02  0.00000000000E+00 0.  1.
</event>
<event>
 7    1  0.5408841E-013  0.5052884E+02  0.7816164E-02  0.1300439E+00
        -11   -1    0    0    0    0  0.00000000000E+00  0.00000000000E+00  0.45593999997E+02  0.45594000000E+02  0.51100000000E-03 0. -1.
         11   -1    0    0    0    0 -0.00000000000E+00 -0.00000000000E+00 -0.45593999997E+02  0.45594000000E+02  0.51100000000E-03 0.  1.
    9900012    2    1    2    0    0  0.12426178967E+02  0.37859957073E+02  0.80858367390E+01  0.50528843232E+02  0.29999949489E+02 0.  0.
         12    1    1    2    0    0 -0.12426178967E+02 -0.37859957073E+02 -0.80858367390E+01  0.40659156768E+02  0.00000000000E+00 0. -1.
         11    1    3    3    0    0 -0.26569887398E+00  0.73528243735E+01 -0.42188799961E+01  0.84813660953E+01  0.51100000000E-03 0.  1.
        -11    1    3    3    0    0  0.80199466051E+01  0.27635126609E+02  0.18158803400E+02  0.34025900538E+02  0.51100000000E-03 0. -1.
         12    1    3    3    0    0  0.46719312363E+01  0.28720060905E+01 -0.58540866645E+01  0.80215765992E+01  0.00000000000E+00 0. -1.
</event>
<event>
 7    1  0.5408841E-013  0.5052891E+02  0.7816164E-02  0.1300439E+00
        -11   -1    0    0    0    0  0.00000000000E+00  0.00000000000E+00  0.45593999997E+02  0.45594000000E+02  0.51100000000E-03 0. -1.
         11   -1    0    0    0    0 -0.00000000000E+00 -0.00000000000E+00 -0.45593999997E+02  0.45594000000E+02  0.51100000000E-03 0.  1.
    9900012    2    1    2    0    0  0.34600512267E+02  0.10573319725E+01  0.21327175855E+02  0.50528907167E+02  0.30000143824E+02 0.  0.
         12    1    1    2    0    0 -0.34600512267E+02 -0.10573319725E+01 -0.21327175855E+02  0.40659092833E+02  0.00000000000E+00 0. -1.
         11    1    3    3    0    0 -0.12248250651E+01  0.42046022102E+01 -0.25409505396E+01  0.50631320437E+01  0.51100000000E-03 0. -1.
        -11    1    3    3    0    0  0.25760359266E+02  0.21224310848E+01  0.10440180378E+02  0.27876480944E+02  0.51100000000E-03 0.  1.
        -12    1    3    3    0    0  0.10064978066E+02 -0.52697013225E+01  0.13427946017E+02  0.17589294180E+02  0.00000000000E+00 0.  1.
</event>
<event>
 7    1  0.5408841E-013  0.5052885E+02  0.7816164E-02  0.1300439E+00
        -11   -1    0    0    0    0  0.00000000000E+00  0.00000000000E+00  0.45593999997E+02  0.45594000000E+02  0.51100000000E-03 0.  1.
         11   -1    0    0    0    0 -0.00000000000E+00 -0.00000000000E+00 -0.45593999997E+02  0.45594000000E+02  0.51100000000E-03 0. -1.
    9900012    2    1    2    0    0  0.39535840513E+02  0.93409394384E+01  0.16825664505E+01  0.50528845256E+02  0.29999955639E+02 0.  0.
         12    1    1    2    0    0 -0.39535840513E+02 -0.93409394384E+01 -0.16825664505E+01  0.40659154744E+02  0.00000000000E+00 0. -1.
         11    1    3    3    0    0  0.46270555837E+01 -0.37422627168E+01 -0.63164249516E+01  0.86782139894E+01  0.51100000000E-03 0. -1.
        -11    1    3    3    0    0  0.14039180251E+02  0.79568498282E+01 -0.48024827022E+01  0.16836682621E+02  0.51100000000E-03 0.  1.
         12    1    3    3    0    0  0.20869604678E+02  0.51263523270E+01  0.12801474104E+02  0.25013948646E+02  0.00000000000E+00 0. -1.
</event>
<event>
 7    1  0.5408841E-013  0.5052887E+02  0.7816164E-02  0.1300439E+00
        -11   -1    0    0    0    0  0.00000000000E+00  0.00000000000E+00  0.45593999997E+02  0.45594000000E+02  0.51100000000E-03 0.  1.
         11   -1    0    0    0    0 -0.00000000000E+00 -0.00000000000E+00 -0.45593999997E+02  0.45594000000E+02  0.51100000000E-03 0. -1.
    9900012    2    1    2    0    0 -0.14196193777E+01  0.72596551358E+01  0.39980580016E+02  0.50528871993E+02  0.30000036909E+02 0.  0.
         12    1    1    2    0    0  0.14196193777E+01 -0.72596551358E+01 -0.39980580016E+02  0.40659128007E+02  0.00000000000E+00 0. -1.
         11    1    3    3    0    0  0.43954916917E+01  0.28818492444E+01  0.26541453769E+01  0.58881143180E+01  0.51100000000E-03 0. -1.
        -11    1    3    3    0    0  0.77046233040E+01  0.69296240493E+01  0.19912993580E+02  0.22447900198E+02  0.51100000000E-03 0.  1.
         12    1    3    3    0    0 -0.13519734373E+02 -0.25518181578E+01  0.17413441059E+02  0.22192857476E+02  0.00000000000E+00 0. -1.
</event>
<event>
 7    1  0.5408841E-013  0.5052886E+02  0.7816164E-02  0.1300439E+00
        -11   -1    0    0    0    0  0.00000000000E+00  0.00000000000E+00  0.45593999997E+02  0.45594000000E+02  0.51100000000E-03 0. -1.
         11   -1    0    0    0    0 -0.00000000000E+00 -0.00000000000E+00 -0.45593999997E+02  0.45594000000E+02  0.51100000000E-03 0.  1.
    9900012    2    1    2    0    0 -0.25174581826E+02  0.12007318911E+02 -0.29584296809E+02  0.50528857176E+02  0.29999991871E+02 0.  0.
         12    1    1    2    0    0  0.25174581826E+02 -0.12007318911E+02  0.29584296809E+02  0.40659142824E+02  0.00000000000E+00 0. -1.
         11    1    3    3    0    0 -0.15655031001E+02  0.18639496135E+02 -0.14358084443E+02  0.28260668799E+02  0.51100000000E-03 0. -1.
        -11    1    3    3    0    0 -0.39337148461E+01  0.27535482028E+01 -0.74395779998E+01  0.88545729017E+01  0.51100000000E-03 0.  1.
         12    1    3    3    0    0 -0.55858359787E+01 -0.93857254270E+01 -0.77866343654E+01  0.13413615475E+02  0.00000000000E+00 0. -1.
</event>
<event>
 7    1  0.5408841E-013  0.5052887E+02  0.7816164E-02  0.1300439E+00
        -11   -1    0    0    0    0  0.00000000000E+00  0.00000000000E+00  0.45593999997E+02  0.45594000000E+02  0.51100000000E-03 0. -1.
         11   -1    0    0    0    0 -0.00000000000E+00 -0.00000000000E+00 -0.45593999997E+02  0.45594000000E+02  0.51100000000E-03 0.  1.
    9900012    2    1    2    0    0 -0.40086126423E+02  0.27740240553E+00 -0.67963403012E+01  0.50528871564E+02  0.30000035606E+02 0.  0.
         12    1    1    2    0    0  0.40086126423E+02 -0.27740240553E+00  0.67963403012E+01  0.40659128436E+02  0.00000000000E+00 0. -1.
         11    1    3    3    0    0 -0.34706255064E+01 -0.45516336461E+00  0.53854045553E+01  0.64230053386E+01  0.51100000000E-03 0. -1.
        -11    1    3    3    0    0 -0.98621077556E+01 -0.24644121813E+01  0.58087853913E+01  0.11707966722E+02  0.51100000000E-03 0.  1.
        -12    1    3    3    0    0 -0.26753393161E+02  0.31969779514E+01 -0.17990530248E+02  0.32397899503E+02  0.00000000000E+00 0.  1.
</event>
<event>
 7    1  0.5408841E-013  0.5052886E+02  0.7816164E-02  0.1300439E+00
        -11   -1    0    0    0    0  0.00000000000E+00  0.00000000000E+00  0.45593999997E+02  0.45594000000E+02  0.51100000000E-03 0. -1.
         11   -1    0    0    0    0 -0.00000000000E+00 -0.00000000000E+00 -0.45593999997E+02  0.45594000000E+02  0.51100000000E-03 0.  1.
    9900012    2    1    2    0    0 -0.10875114519E+02  0.15230022204E+02 -0.36096316321E+02  0.50528859034E+02  0.29999997520E+02 0.  0.
         12    1    1    2    0    0  0.10875114519E+02 -0.15230022204E+02  0.36096316321E+02  0.40659140966E+02  0.00000000000E+00 0. -1.
         11    1    3    3    0    0 -0.10906777900E+02  0.10008321615E+02 -0.10566591801E+02  0.18187280398E+02  0.51100000000E-03 0. -1.
        -11    1    3    3    0    0  0.19781250741E+01  0.12048246983E+02 -0.19601436091E+02  0.23093062405E+02  0.51100000000E-03 0.  1.
        -12    1    3    3    0    0 -0.19464616924E+01 -0.68265463932E+01 -0.59282884283E+01  0.92485162306E+01  0.00000000000E+00 0.  1.
</event>
<event>
 7    1  0.5408841E-013  0.5052885E+02  0.7816164E-02  0.1300439E+00
        -11   -1    0    0    0    0  0.00000000000E+00  0.00000000000E+00  0.45593999997E+02  0.45594000000E+02  0.51100000000E-03 0. -1.
         11   -1    0    0    0    0 -0.00000000000E+00 -0.00000000000E+00 -0.45593999997E+02  0.45594000000E+02  0.51100000000E-03 0.  1.
    9900012    2    1    2    0    0 -0.80942782995E+01 -0.13647224828E+01 -0.39821931987E+02  0.50528854955E+02  0.29999985120E+02 0.  0.
         12    1    1    2    0    0  0.80942782995E+01  0.13647224828E+01  0.39821931987E+02  0.40659145045E+02  0.00000000000E+00 0. -1.
         11    1    3    3    0    0  0.42404056256E+01  0.13647793767E+01 -0.28469959549E+01  0.52866859984E+01  0.51100000000E-03 0. -1.
        -11    1    3    3    0    0  0.19527437701E+01  0.20226303546E+01 -0.27078467543E+02  0.27224027007E+02  0.51100000000E-03 0.  1.
        -12    1    3    3    0    0 -0.14287427695E+02 -0.47521322141E+01 -0.98964684896E+01  0.18018141949E+02  0.00000000000E+00 0.  1.
</event>
<event>
 7    1  0.5408841E-013  0.5052886E+02  0.7816164E-02  0.1300439E+00
        -11   -1    0    0    0    0  0.00000000000E+00  0.00000000000E+00  0.45593999997E+02  0.45594000000E+02  0.51100000000E-03 0.  1.
         11   -1    0    0    0    0 -0.00000000000E+00 -0.00000000000E+00 -0.45593999997E+02  0.45594000000E+02  0.51100000000E-03 0. -1.
    9900012    2    1    2    0    0  0.37067616952E+02 -0.97821196297E+01  0.13545029990E+02  0.50528856768E+02  0.29999990631E+02 0.  0.
         12    1    1    2    0    0 -0.37067616952E+02  0.97821196297E+01 -0.13545029990E+02  0.40659143232E+02  0.00000000000E+00 0. -1.
         11    1    3    3    0    0  0.94545507113E+01 -0.14580172289E+02  0.46204037227E+01  0.17981047910E+02  0.51100000000E-03 0. -1.
        -11    1    3    3    0    0  0.16318220582E+02 -0.38974480163E+01  0.26975153997E+01  0.16992675293E+02  0.51100000000E-03 0.  1.
         12    1    3    3    0    0  0.11294845658E+02  0.86955006759E+01  0.62271108680E+01  0.15555133564E+02  0.00000000000E+00 0. -1.
</event>
<event>
 7    1  0.5408841E-013  0.5052885E+02  0.7816164E-02  0.1300439E+00
        -11   -1    0    0    0    0  0.00000000000E+00  0.00000000000E+00  0.45593999997E+02  0.45594000000E+02  0.51100000000E-03 0.  1.
         11   -1    0    0    0    0 -0.00000000000E+00 -0.00000000000E+00 -0.45593999997E+02  0.45594000000E+02  0.51100000000E-03 0. -1.
    9900012    2    1    2    0    0  0.40557772665E+02  0.82056126707E+00 -0.27495154566E+01  0.50528854908E+02  0.29999984979E+02 0.  0.
         12    1    1    2    0    0 -0.40557772665E+02 -0.82056126707E+00  0.27495154566E+01  0.40659145092E+02  0.00000000000E+00 0. -1.
         11    1    3    3    0    0  0.49117204279E+01 -0.68297775702E+01 -0.45175646807E+01  0.95487826515E+01  0.51100000000E-03 0. -1.
        -11    1    3    3    0    0  0.70080169608E+01  0.72761022596E+01  0.64123787378E+01  0.11965473963E+02  0.51100000000E-03 0.  1.
        -12    1    3    3    0    0  0.28638035277E+02  0.37423657772E+00 -0.46443295137E+01  0.29014598294E+02  0.00000000000E+00 0.  1.
</event>
<event>
 7    1  0.5408841E-013  0.5052886E+02  0.7816164E-02  0.1300439E+00
        -11   -1    0    0    0    0  0.00000000000E+00  0.00000000000E+00  0.45593999997E+02  0.45594000000E+02  0.51100000000E-03 0.  1.
         11   -1    0    0    0    0 -0.00000000000E+00 -0.00000000000E+00 -0.45593999997E+02  0.45594000000E+02  0.51100000000E-03 0. -1.
    9900012    2    1    2    0    0 -0.21243549074E+02  0.34574795330E+02 -0.25418526589E+01  0.50528857556E+02  0.29999993026E+02 0.  0.
         12    1    1    2    0    0  0.21243549074E+02 -0.34574795330E+02  0.25418526589E+01  0.40659142444E+02  0.00000000000E+00 0. -1.
         11    1    3    3    0    0 -0.98429924950E+00  0.74209415738E+01 -0.55426568492E+00  0.75064258849E+01  0.51100000000E-03 0. -1.
        -11    1    3    3    0    0  0.48290948639E+01  0.81571738466E+01  0.51012474118E+01  0.10764867291E+02  0.51100000000E-03 0.  1.
        -12    1    3    3    0    0 -0.25088344689E+02  0.18996679909E+02 -0.70888343857E+01  0.32257564380E+02  0.00000000000E+00 0.  1.
</event>
<event>
 7    1  0.5408841E-013  0.5052886E+02  0.7816164E-02  0.1300439E+00
        -11   -1    0    0    0    0  0.00000000000E+00  0.00000000000E+00  0.45593999997E+02  0.45594000000E+02  0.51100000000E-03 0.  1.
         11   -1    0    0    0    0 -0.00000000000E+00 -0.00000000000E+00 -0.45593999997E+02  0.45594000000E+02  0.51100000000E-03 0. -1.
    9900012    2    1    2    0    0  0.46970762981E-01 -0.36978253797E+02  0.16904790530E+02  0.50528863229E+02  0.30000010270E+02 0.  0.
         12    1    1    2    0    0 -0.46970762981E-01  0.36978253797E+02 -0.16904790530E+02  0.40659136771E+02  0.00000000000E+00 0. -1.
         11    1    3    3    0    0 -0.41817583569E+01  0.19955232655E-01 -0.18882044201E+01  0.45883349224E+01  0.51100000000E-03 0.  1.
        -11    1    3    3    0    0  0.43832421650E+01 -0.14563136893E+02 -0.20145726619E+01  0.15341325605E+02  0.51100000000E-03 0. -1.
        -12    1    3    3    0    0 -0.15451304514E+00 -0.22435072137E+02  0.20807567612E+02  0.30599202702E+02  0.00000000000E+00 0.  1.
</event>
<event>
 7    1  0.5408841E-013  0.5052886E+02  0.7816164E-02  0.1300439E+00
        -11   -1    0    0    0    0  0.00000000000E+00  0.00000000000E+00  0.45593999997E+02  0.45594000000E+02  0.51100000000E-03 0. -1.
         11   -1    0    0    0    0 -0.00000000000E+00 -0.00000000000E+00 -0.45593999997E+02  0.45594000000E+02  0.51100000000E-03 0.  1.
    9900012    2    1    2    0    0  0.27820144596E+02  0.11021676716E+02 -0.27526851107E+02  0.50528864067E+02  0.30000012817E+02 0.  0.
         12    1    1    2    0    0 -0.27820144596E+02 -0.11021676716E+02  0.27526851107E+02  0.40659135933E+02  0.00000000000E+00 0. -1.
         11    1    3    3    0    0  0.92968813488E+01 -0.21159475802E+01  0.48852449534E+00  0.95471405886E+01  0.51100000000E-03 0. -1.
        -11    1    3    3    0    0  0.25606300857E+01  0.24003243376E+01  0.29111505399E+01  0.45599540665E+01  0.51100000000E-03 0.  1.
        -12    1    3    3    0    0  0.15962633162E+02  0.10737299958E+02 -0.30926526142E+02  0.36421769412E+02  0.00000000000E+00 0.  1.
</event>
<event>
 7    1  0.5408841E-013  0.5052885E+02  0.7816164E-02  0.1300439E+00
        -11   -1    0    0    0    0  0.00000000000E+00  0.00000000000E+00  0.45593999997E+02  0.45594000000E+02  0.51100000000E-03 0.  1.
         11   -1    0    0    0    0 -0.00000000000E+00 -0.00000000000E+00 -0.45593999997E+02  0.45594000000E+02  0.51100000000E-03 0. -1.
    9900012    2    1    2    0    0 -0.21074702413E+02 -0.21324207680E+02  0.27464547232E+02  0.50528852571E+02  0.29999977876E+02 0.  0.
         12    1    1    2    0    0  0.21074702413E+02  0.21324207680E+02 -0.27464547232E+02  0.40659147429E+02  0.00000000000E+00 0. -1.
         11    1    3    3    0    0 -0.16520447215E+02 -0.18572137192E+02  0.17107478815E+02  0.30174745861E+02  0.51100000000E-03 0. -1.
        -11    1    3    3    0    0 -0.32062572556E+01  0.39649999691E+00  0.14570419031E+02  0.14924289224E+02  0.51100000000E-03 0.  1.
         12    1    3    3    0    0 -0.13479979416E+01 -0.31485704847E+01 -0.42133506140E+01  0.54298174872E+01  0.00000000000E+00 0. -1.
</event>
<event>
 7    1  0.5408841E-013  0.5052885E+02  0.7816164E-02  0.1300439E+00
        -11   -1    0    0    0    0  0.00000000000E+00  0.00000000000E+00  0.45593999997E+02  0.45594000000E+02  0.51100000000E-03 0.  1.
         11   -1    0    0    0    0 -0.00000000000E+00 -0.00000000000E+00 -0.45593999997E+02  0.45594000000E+02  0.51100000000E-03 0. -1.
    9900012    2    1    2    0    0 -0.21957869517E+02 -0.31980081495E+02  0.12177544530E+02  0.50528852974E+02  0.29999979099E+02 0.  0.
         12    1    1    2    0    0  0.21957869517E+02  0.31980081495E+02 -0.12177544530E+02  0.40659147026E+02  0.00000000000E+00 0. -1.
         11    1    3    3    0    0  0.10435695033E+01 -0.39935239713E+01  0.48410531405E+01  0.63618446057E+01  0.51100000000E-03 0. -1.
        -11    1    3    3    0    0 -0.13451844188E+02 -0.37382935353E+01  0.11099111323E+02  0.17835840968E+02  0.51100000000E-03 0.  1.
         12    1    3    3    0    0 -0.95495948320E+01 -0.24248263988E+02 -0.37626199333E+01  0.26331167400E+02  0.00000000000E+00 0. -1.
</event>
<event>
 7    1  0.5408841E-013  0.5052885E+02  0.7816164E-02  0.1300439E+00
        -11   -1    0    0    0    0  0.00000000000E+00  0.00000000000E+00  0.45593999997E+02  0.45594000000E+02  0.51100000000E-03 0.  1.
         11   -1    0    0    0    0 -0.00000000000E+00 -0.00000000000E+00 -0.45593999997E+02  0.45594000000E+02  0.51100000000E-03 0. -1.
    9900012    2    1    2    0    0  0.38427030076E+02 -0.42851719457E+01 -0.12576459723E+02  0.50528847546E+02  0.29999962602E+02 0.  0.
         12    1    1    2    0    0 -0.38427030076E+02  0.42851719457E+01  0.12576459723E+02  0.40659152454E+02  0.00000000000E+00 0. -1.
         11    1    3    3    0    0 -0.64424503032E+00 -0.54046716003E+01 -0.44456624479E+01  0.70277622063E+01  0.51100000000E-03 0. -1.
        -11    1    3    3    0    0 -0.10647908087E+01 -0.11590013523E+01  0.14877278554E+01  0.21657326783E+01  0.51100000000E-03 0.  1.
         12    1    3    3    0    0  0.40136065915E+02  0.22785010069E+01 -0.96185251308E+01  0.41335352662E+02  0.00000000000E+00 0. -1.
</event>
<event>
 7    1  0.5408841E-013  0.5052886E+02  0.7816164E-02  0.1300439E+00
        -11   -1    0    0    0    0  0.00000000000E+00  0.00000000000E+00  0.45593999997E+02  0.45594000000E+02  0.51100000000E-03 0. -1.
         11   -1    0    0    0    0 -0.00000000000E+00 -0.00000000000E+00 -0.45593999997E+02  0.45594000000E+02  0.51100000000E-03 0.  1.
    9900012    2    1    2    0    0 -0.16638070449E+02  0.19299980672E+02 -0.31683603977E+02  0.50528863226E+02  0.30000010263E+02 0.  0.
         12    1    1    2    0    0  0.16638070449E+02 -0.19299980672E+02  0.31683603977E+02  0.40659136774E+02  0.00000000000E+00 0. -1.
         11    1    3    3    0    0 -0.10452140636E+02  0.97913893808E+01 -0.14265637756E+02  0.20214523757E+02  0.51100000000E-03 0. -1.
        -11    1    3    3    0    0 -0.13741840469E+02  0.91362256459E+01 -0.15188333382E+02  0.22427533741E+02  0.51100000000E-03 0.  1.
         12    1    3    3    0    0  0.75559106550E+01  0.37236564518E+00 -0.22296328390E+01  0.78868057284E+01  0.00000000000E+00 0. -1.
</event>
<event>
 7    1  0.5408841E-013  0.5052889E+02  0.7816164E-02  0.1300439E+00
        -11   -1    0    0    0    0  0.00000000000E+00  0.00000000000E+00  0.45593999997E+02  0.45594000000E+02  0.51100000000E-03 0. -1.
         11   -1    0    0    0    0 -0.00000000000E+00 -0.00000000000E+00 -0.45593999997E+02  0.45594000000E+02  0.51100000000E-03 0.  1.
    9900012    2    1    2    0    0  0.11544771681E+01  0.12154219672E+01 -0.40624543621E+02  0.50528885247E+02  0.30000077195E+02 0.  0.
         12    1    1    2    0    0 -0.11544771681E+01 -0.12154219672E+01  0.40624543621E+02  0.40659114753E+02  0.00000000000E+00 0. -1.
         11    1    3    3    0    0 -0.70188658942E+00 -0.11754445961E+01 -0.73576755308E+01  0.74839631387E+01  0.51100000000E-03 0. -1.
        -11    1    3    3    0    0 -0.10482314720E+02  0.68585488838E+01 -0.88910782168E+01  0.15361311363E+02  0.51100000000E-03 0.  1.
         12    1    3    3    0    0  0.12338678478E+02 -0.44676823204E+01 -0.24375789874E+02  0.27683610745E+02  0.00000000000E+00 0. -1.
</event>
<event>
 7    1  0.5408841E-013  0.5052886E+02  0.7816164E-02  0.1300439E+00
        -11   -1    0    0    0    0  0.00000000000E+00  0.00000000000E+00  0.45593999997E+02  0.45594000000E+02  0.51100000000E-03 0. -1.
         11   -1    0    0    0    0 -0.00000000000E+00 -0.00000000000E+00 -0.45593999997E+02  0.45594000000E+02  0.51100000000E-03 0.  1.
    9900012    2    1    2    0    0  0.92319154890E+01  0.39179420083E+02  0.57367506560E+01  0.50528861670E+02  0.30000005531E+02 0.  0.
         12    1    1    2    0    0 -0.92319154890E+01 -0.39179420083E+02 -0.57367506560E+01  0.40659138330E+02  0.00000000000E+00 0. -1.
         11    1    3    3    0    0 -0.56177488030E+01  0.59897997158E+01 -0.11010115770E+00  0.82127294352E+01  0.51100000000E-03 0. -1.
        -11    1    3    3    0    0 -0.47359936473E+01  0.12751511745E+02  0.18429400024E+01  0.13726875672E+02  0.51100000000E-03 0.  1.
        -12    1    3    3    0    0  0.19585657939E+02  0.20438108622E+02  0.40039118112E+01  0.28589256562E+02  0.00000000000E+00 0.  1.
</event>
<event>
 7    1  0.5408841E-013  0.5052888E+02  0.7816164E-02  0.1300439E+00
        -11   -1    0    0    0    0  0.00000000000E+00  0.00000000000E+00  0.45593999997E+02  0.45594000000E+02  0.51100000000E-03 0. -1.
         11   -1    0    0    0    0 -0.00000000000E+00 -0.00000000000E+00 -0.45593999997E+02  0.45594000000E+02  0.51100000000E-03 0.  1.
    9900012    2    1    2    0    0  0.75328762688E+01  0.39119156136E+02 -0.81308928039E+01  0.50528880242E+02  0.30000061983E+02 0.  0.
         12    1    1    2    0    0 -0.75328762688E+01 -0.39119156136E+02  0.81308928039E+01  0.40659119758E+02  0.00000000000E+00 0. -1.
         11    1    3    3    0    0  0.94106448261E+00  0.14402431863E+00  0.33179048050E+01  0.34517876414E+01  0.51100000000E-03 0. -1.
        -11    1    3    3    0    0 -0.33203204479E+01 -0.10720863261E+01 -0.37263976001E+01  0.51048933683E+01  0.51100000000E-03 0.  1.
        -12    1    3    3    0    0  0.99121322341E+01  0.40047218144E+02 -0.77224000089E+01  0.41972199232E+02  0.00000000000E+00 0.  1.
</event>
<event>
 7    1  0.5408841E-013  0.5052887E+02  0.7816164E-02  0.1300439E+00
        -11   -1    0    0    0    0  0.00000000000E+00  0.00000000000E+00  0.45593999997E+02  0.45594000000E+02  0.51100000000E-03 0. -1.
         11   -1    0    0    0    0 -0.00000000000E+00 -0.00000000000E+00 -0.45593999997E+02  0.45594000000E+02  0.51100000000E-03 0.  1.
    9900012    2    1    2    0    0 -0.14370958825E+02 -0.19236322794E+01 -0.37986046542E+02  0.50528873711E+02  0.30000042132E+02 0.  0.
         12    1    1    2    0    0  0.14370958825E+02  0.19236322794E+01  0.37986046542E+02  0.40659126289E+02  0.00000000000E+00 0. -1.
         11    1    3    3    0    0 -0.16166286717E+02 -0.91785143075E+01 -0.22100410914E+02  0.28879441026E+02  0.51100000000E-03 0. -1.
        -11    1    3    3    0    0 -0.48079209021E+01  0.18404528263E+01 -0.10095100424E+02  0.11332008773E+02  0.51100000000E-03 0.  1.
        -12    1    3    3    0    0  0.66032487949E+01  0.54144292018E+01 -0.57905352038E+01  0.10317423912E+02  0.00000000000E+00 0.  1.
</event>
<event>
 7    1  0.5408841E-013  0.5052886E+02  0.7816164E-02  0.1300439E+00
        -11   -1    0    0    0    0  0.00000000000E+00  0.00000000000E+00  0.45593999997E+02  0.45594000000E+02  0.51100000000E-03 0.  1.
         11   -1    0    0    0    0 -0.00000000000E+00 -0.00000000000E+00 -0.45593999997E+02  0.45594000000E+02  0.51100000000E-03 0. -1.
    9900012    2    1    2    0    0 -0.29050626351E+02  0.26445321065E+02  0.10481972307E+02  0.50528860301E+02  0.30000001372E+02 0.  0.
         12    1    1    2    0    0  0.29050626351E+02 -0.26445321065E+02 -0.10481972307E+02  0.40659139699E+02  0.00000000000E+00 0. -1.
         11    1    3    3    0    0 -0.12811709546E+00 -0.12334042674E+01  0.69433351889E+01  0.70531981316E+01  0.51100000000E-03 0. -1.
        -11    1    3    3    0    0  0.27018516728E+00  0.42548980047E+01  0.42782316593E+01  0.60399026024E+01  0.51100000000E-03 0.  1.
        -12    1    3    3    0    0 -0.29192694422E+02  0.23423827327E+02 -0.73959454096E+00  0.37435759567E+02  0.00000000000E+00 0.  1.
</event>
<event>
 7    1  0.5408841E-013  0.5052887E+02  0.7816164E-02  0.1300439E+00
        -11   -1    0    0    0    0  0.00000000000E+00  0.00000000000E+00  0.45593999997E+02  0.45594000000E+02  0.51100000000E-03 0. -1.
         11   -1    0    0    0    0 -0.00000000000E+00 -0.00000000000E+00 -0.45593999997E+02  0.45594000000E+02  0.51100000000E-03 0.  1.
    9900012    2    1    2    0    0  0.29508271710E+02  0.20297198784E+02 -0.19247082879E+02  0.50528873385E+02  0.30000041140E+02 0.  0.
         12    1    1    2    0    0 -0.29508271710E+02 -0.20297198784E+02  0.19247082879E+02  0.40659126615E+02  0.00000000000E+00 0. -1.
         11    1    3    3    0    0  0.13043666390E+02  0.11226760379E+02  0.47239550872E+00  0.17216287035E+02  0.51100000000E-03 0. -1.
        -11    1    3    3    0    0  0.16591196206E+02  0.12797701196E+02 -0.10646708292E+02  0.23503219889E+02  0.51100000000E-03 0.  1.
        -12    1    3    3    0    0 -0.12659088661E+00 -0.37272627901E+01 -0.90727700948E+01  0.98093664603E+01  0.00000000000E+00 0.  1.
</event>
<event>
 7    1  0.5408841E-013  0.5052886E+02  0.7816164E-02  0.1300439E+00
        -11   -1    0    0    0    0  0.00000000000E+00  0.00000000000E+00  0.45593999997E+02  0.45594000000E+02  0.51100000000E-03 0.  1.
         11   -1    0    0    0    0 -0.00000000000E+00 -0.00000000000E+00 -0.45593999997E+02  0.45594000000E+02  0.51100000000E-03 0. -1.
    9900012    2    1    2    0    0  0.15738854323E+02 -0.19670557702E+02  0.31914306334E+02  0.50528864194E+02  0.30000013205E+02 0.  0.
         12    1    1    2    0    0 -0.15738854323E+02  0.19670557702E+02 -0.31914306334E+02  0.40659135806E+02  0.00000000000E+00 0. -1.
         11    1    3    3    0    0 -0.57114884264E+01 -0.66847757406E+01  0.11363531504E+02  0.14367921744E+02  0.51100000000E-03 0. -1.
        -11    1    3    3    0    0  0.72397554879E+00 -0.15142170985E+00  0.92693617680E+01  0.92988244943E+01  0.51100000000E-03 0.  1.
         12    1    3    3    0    0  0.20726367200E+02 -0.12834360252E+02  0.11281413061E+02  0.26862117955E+02  0.00000000000E+00 0. -1.
</event>
<event>
 7    1  0.5408841E-013  0.5052900E+02  0.7816164E-02  0.1300438E+00
        -11   -1    0    0    0    0  0.00000000000E+00  0.00000000000E+00  0.45593999997E+02  0.45594000000E+02  0.51100000000E-03 0.  1.
         11   -1    0    0    0    0 -0.00000000000E+00 -0.00000000000E+00 -0.45593999997E+02  0.45594000000E+02  0.51100000000E-03 0. -1.
    9900012    2    1    2    0    0  0.20430932016E+02 -0.34109031545E+02  0.85032436915E+01  0.50529001374E+02  0.30000430172E+02 0.  0.
         12    1    1    2    0    0 -0.20430932016E+02  0.34109031545E+02 -0.85032436915E+01  0.40658998626E+02  0.00000000000E+00 0. -1.
         11    1    3    3    0    0 -0.23495250043E+01 -0.19888758379E+01 -0.24422796398E+00  0.30879673580E+01  0.51100000000E-03 0. -1.
        -11    1    3    3    0    0  0.47825988960E+01 -0.20336620680E+02 -0.55437189497E+01  0.21614444544E+02  0.51100000000E-03 0.  1.
        -12    1    3    3    0    0  0.17997858125E+02 -0.11783535027E+02  0.14291190605E+02  0.25826589471E+02  0.00000000000E+00 0.  1.
</event>
<event>
 7    1  0.5408841E-013  0.5052886E+02  0.7816164E-02  0.1300439E+00
        -11   -1    0    0    0    0  0.00000000000E+00  0.00000000000E+00  0.45593999997E+02  0.45594000000E+02  0.51100000000E-03 0.  1.
         11   -1    0    0    0    0 -0.00000000000E+00 -0.00000000000E+00 -0.45593999997E+02  0.45594000000E+02  0.51100000000E-03 0. -1.
    9900012    2    1    2    0    0  0.35984812169E+02  0.92761965115E+01  0.16498822077E+02  0.50528860087E+02  0.30000000720E+02 0.  0.
         12    1    1    2    0    0 -0.35984812169E+02 -0.92761965115E+01 -0.16498822077E+02  0.40659139913E+02  0.00000000000E+00 0. -1.
         11    1    3    3    0    0  0.87629805891E+00  0.95742797387E+01  0.47863892353E+01  0.10739844178E+02  0.51100000000E-03 0. -1.
        -11    1    3    3    0    0  0.25185560039E+02  0.49276678452E+01  0.12502046372E+02  0.28546374702E+02  0.51100000000E-03 0.  1.
        -12    1    3    3    0    0  0.99229540710E+01 -0.52257510725E+01 -0.78961353069E+00  0.11242641206E+02  0.00000000000E+00 0.  1.
</event>
<event>
 7    1  0.5408841E-013  0.5052888E+02  0.7816164E-02  0.1300439E+00
        -11   -1    0    0    0    0  0.00000000000E+00  0.00000000000E+00  0.45593999997E+02  0.45594000000E+02  0.51100000000E-03 0.  1.
         11   -1    0    0    0    0 -0.00000000000E+00 -0.00000000000E+00 -0.45593999997E+02  0.45594000000E+02  0.51100000000E-03 0. -1.
    9900012    2    1    2    0    0 -0.12014969598E+02  0.12450825262E+00  0.38843138313E+02  0.50528875677E+02  0.30000048107E+02 0.  0.
         12    1    1    2    0    0  0.12014969598E+02 -0.12450825262E+00 -0.38843138313E+02  0.40659124323E+02  0.00000000000E+00 0. -1.
         11    1    3    3    0    0  0.28598525125E+01 -0.23793753769E+01  0.11545259616E+01  0.38952681596E+01  0.51100000000E-03 0. -1.
        -11    1    3    3    0    0 -0.20841655485E+02  0.19875669757E+01  0.32753712703E+02  0.38873264874E+02  0.51100000000E-03 0.  1.
         12    1    3    3    0    0  0.59668333747E+01  0.51631665386E+00  0.49348996477E+01  0.77603426433E+01  0.00000000000E+00 0. -1.
</event>
<event>
 7    1  0.5408841E-013  0.5052886E+02  0.7816164E-02  0.1300439E+00
        -11   -1    0    0    0    0  0.00000000000E+00  0.00000000000E+00  0.45593999997E+02  0.45594000000E+02  0.51100000000E-03 0.  1.
         11   -1    0    0    0    0 -0.00000000000E+00 -0.00000000000E+00 -0.45593999997E+02  0.45594000000E+02  0.51100000000E-03 0. -1.
    9900012    2    1    2    0    0 -0.22308715488E+01 -0.35434262070E+02  0.19814182932E+02  0.50528861278E+02  0.30000004341E+02 0.  0.
         12    1    1    2    0    0  0.22308715488E+01  0.35434262070E+02 -0.19814182932E+02  0.40659138722E+02  0.00000000000E+00 0. -1.
         11    1    3    3    0    0  0.56471682295E+01 -0.47740914805E+01 -0.46893136112E+01  0.87562618098E+01  0.51100000000E-03 0. -1.
        -11    1    3    3    0    0 -0.22247447993E+01 -0.12282201476E+02  0.28290984480E+01  0.12798662462E+02  0.51100000000E-03 0.  1.
         12    1    3    3    0    0 -0.56532949790E+01 -0.18377969114E+02  0.21674398095E+02  0.28973937006E+02  0.00000000000E+00 0. -1.
</event>
<event>
 7    1  0.5408841E-013  0.5052886E+02  0.7816164E-02  0.1300439E+00
        -11   -1    0    0    0    0  0.00000000000E+00  0.00000000000E+00  0.45593999997E+02  0.45594000000E+02  0.51100000000E-03 0. -1.
         11   -1    0    0    0    0 -0.00000000000E+00 -0.00000000000E+00 -0.45593999997E+02  0.45594000000E+02  0.51100000000E-03 0.  1.
    9900012    2    1    2    0    0  0.74084132196E+01 -0.39074339641E+02  0.84544021897E+01  0.50528861775E+02  0.30000005850E+02 0.  0.
         12    1    1    2    0    0 -0.74084132196E+01  0.39074339641E+02 -0.84544021897E+01  0.40659138225E+02  0.00000000000E+00 0. -1.
         11    1    3    3    0    0 -0.30205060631E+00  0.11157734330E+01  0.34165671483E+00  0.12053690283E+01  0.51100000000E-03 0. -1.
        -11    1    3    3    0    0  0.24772160487E+01  0.61259294809E+00 -0.54422692670E+01  0.60108372551E+01  0.51100000000E-03 0.  1.
        -12    1    3    3    0    0  0.52332477772E+01 -0.40802706022E+02  0.13555014742E+02  0.43312655491E+02  0.00000000000E+00 0.  1.
</event>
<event>
 7    1  0.5408841E-013  0.5052881E+02  0.7816164E-02  0.1300439E+00
        -11   -1    0    0    0    0  0.00000000000E+00  0.00000000000E+00  0.45593999997E+02  0.45594000000E+02  0.51100000000E-03 0.  1.
         11   -1    0    0    0    0 -0.00000000000E+00 -0.00000000000E+00 -0.45593999997E+02  0.45594000000E+02  0.51100000000E-03 0. -1.
    9900012    2    1    2    0    0 -0.48869064898E+01  0.37869306928E+02  0.13971529844E+02  0.50528807824E+02  0.29999841860E+02 0.  0.
         12    1    1    2    0    0  0.48869064898E+01 -0.37869306928E+02 -0.13971529844E+02  0.40659192176E+02  0.00000000000E+00 0. -1.
         11    1    3    3    0    0  0.28019115401E+01  0.57043813234E+01 -0.51142983857E+01  0.81576174709E+01  0.51100000000E-03 0. -1.
        -11    1    3    3    0    0  0.28175689930E-01 -0.14901389643E+01 -0.15466430775E+01  0.21478857215E+01  0.51100000000E-03 0.  1.
        -12    1    3    3    0    0 -0.77169937198E+01  0.33655064569E+02  0.20632471308E+02  0.40223304631E+02  0.00000000000E+00 0.  1.
</event>
<event>
 7    1  0.5408841E-013  0.5052885E+02  0.7816164E-02  0.1300439E+00
        -11   -1    0    0    0    0  0.00000000000E+00  0.00000000000E+00  0.45593999997E+02  0.45594000000E+02  0.51100000000E-03 0. -1.
         11   -1    0    0    0    0 -0.00000000000E+00 -0.00000000000E+00 -0.45593999997E+02  0.45594000000E+02  0.51100000000E-03 0.  1.
    9900012    2    1    2    0    0 -0.17485624609E+02 -0.21519605663E+02 -0.29737615242E+02  0.50528852738E+02  0.29999978381E+02 0.  0.
         12    1    1    2    0    0  0.17485624609E+02  0.21519605663E+02  0.29737615242E+02  0.40659147262E+02  0.00000000000E+00 0. -1.
         11    1    3    3    0    0  0.72740514809E+00  0.13309304901E+01  0.29852137309E+01  0.33484317970E+01  0.51100000000E-03 0. -1.
        -11    1    3    3    0    0 -0.42857570743E+01  0.20030003511E+01 -0.16171361278E+01  0.49994853358E+01  0.51100000000E-03 0.  1.
         12    1    3    3    0    0 -0.13927272682E+02 -0.24853536504E+02 -0.31105692845E+02  0.42180935605E+02  0.00000000000E+00 0. -1.
</event>
<event>
 7    1  0.5408841E-013  0.5052886E+02  0.7816164E-02  0.1300439E+00
        -11   -1    0    0    0    0  0.00000000000E+00  0.00000000000E+00  0.45593999997E+02  0.45594000000E+02  0.51100000000E-03 0.  1.
         11   -1    0    0    0    0 -0.00000000000E+00 -0.00000000000E+00 -0.45593999997E+02  0.45594000000E+02  0.51100000000E-03 0. -1.
    9900012    2    1    2    0    0 -0.18260773191E+02  0.36289613206E+02 -0.16654865365E+01  0.50528859458E+02  0.29999998809E+02 0.  0.
         12    1    1    2    0    0  0.18260773191E+02 -0.36289613206E+02  0.16654865365E+01  0.40659140542E+02  0.00000000000E+00 0. -1.
         11    1    3    3    0    0 -0.23017758432E+01  0.63781604934E+01 -0.79597982697E+01  0.10456456956E+02  0.51100000000E-03 0. -1.
        -11    1    3    3    0    0 -0.15132396716E+02  0.88977493714E+01 -0.15598659698E+01  0.17623636297E+02  0.51100000000E-03 0.  1.
        -12    1    3    3    0    0 -0.82660063246E+00  0.21013703342E+02  0.78541777030E+01  0.22448766205E+02  0.00000000000E+00 0.  1.
</event>
<event>
 7    1  0.5408841E-013  0.5052886E+02  0.7816164E-02  0.1300439E+00
        -11   -1    0    0    0    0  0.00000000000E+00  0.00000000000E+00  0.45593999997E+02  0.45594000000E+02  0.51100000000E-03 0. -1.
         11   -1    0    0    0    0 -0.00000000000E+00 -0.00000000000E+00 -0.45593999997E+02  0.45594000000E+02  0.51100000000E-03 0.  1.
    9900012    2    1    2    0    0  0.36548305944E+02 -0.97507125552E+01 -0.14910074768E+02  0.50528863360E+02  0.30000010670E+02 0.  0.
         12    1    1    2    0    0 -0.36548305944E+02  0.97507125552E+01  0.14910074768E+02  0.40659136640E+02  0.00000000000E+00 0. -1.
         11    1    3    3    0    0  0.21880820732E+01  0.77874514097E+01  0.11616847344E+01  0.81720018540E+01  0.51100000000E-03 0. -1.
        -11    1    3    3    0    0  0.65150275074E+00 -0.17701227106E+01 -0.19161847328E+00  0.18959188130E+01  0.51100000000E-03 0.  1.
        -12    1    3    3    0    0  0.33708721120E+02 -0.15768041254E+02 -0.15880141029E+02  0.40460942693E+02  0.00000000000E+00 0.  1.
</event>
<event>
 7    1  0.5408841E-013  0.5052886E+02  0.7816164E-02  0.1300439E+00
        -11   -1    0    0    0    0  0.00000000000E+00  0.00000000000E+00  0.45593999997E+02  0.45594000000E+02  0.51100000000E-03 0. -1.
         11   -1    0    0    0    0 -0.00000000000E+00 -0.00000000000E+00 -0.45593999997E+02  0.45594000000E+02  0.51100000000E-03 0.  1.
    9900012    2    1    2    0    0  0.40082760856E+01 -0.33234548350E+02 -0.23077346789E+02  0.50528863068E+02  0.30000009781E+02 0.  0.
         12    1    1    2    0    0 -0.40082760856E+01  0.33234548350E+02  0.23077346789E+02  0.40659136932E+02  0.00000000000E+00 0. -1.
         11    1    3    3    0    0  0.18191588610E+01 -0.10262392651E+02 -0.10057051143E+02  0.14483449860E+02  0.51100000000E-03 0. -1.
        -11    1    3    3    0    0  0.43937771396E+01 -0.16943162208E+02 -0.19989765446E+02  0.26570034738E+02  0.51100000000E-03 0.  1.
         12    1    3    3    0    0 -0.22046599150E+01 -0.60289934915E+01  0.69694697995E+01  0.94753784699E+01  0.00000000000E+00 0. -1.
</event>
<event>
 7    1  0.5408841E-013  0.5052886E+02  0.7816164E-02  0.1300439E+00
        -11   -1    0    0    0    0  0.00000000000E+00  0.00000000000E+00  0.45593999997E+02  0.45594000000E+02  0.51100000000E-03 0.  1.
         11   -1    0    0    0    0 -0.00000000000E+00 -0.00000000000E+00 -0.45593999997E+02  0.45594000000E+02  0.51100000000E-03 0. -1.
    9900012    2    1    2    0    0  0.16294672426E+02 -0.34840634227E+02  0.13182559672E+02  0.50528855612E+02  0.29999987119E+02 0.  0.
         12    1    1    2    0    0 -0.16294672426E+02  0.34840634227E+02 -0.13182559672E+02  0.40659144388E+02  0.00000000000E+00 0. -1.
         11    1    3    3    0    0  0.51188291557E+01 -0.20394323190E+02 -0.67126662138E+01  0.22072397203E+02  0.51100000000E-03 0. -1.
        -11    1    3    3    0    0 -0.86090220605E+00  0.58589676300E+00  0.63162023738E+00  0.12179376054E+01  0.51100000000E-03 0.  1.
        -12    1    3    3    0    0  0.12036745476E+02 -0.15032207800E+02  0.19263605649E+02  0.27238520804E+02  0.00000000000E+00 0.  1.
</event>
<event>
 7    1  0.5408841E-013  0.5052888E+02  0.7816164E-02  0.1300439E+00
        -11   -1    0    0    0    0  0.00000000000E+00  0.00000000000E+00  0.45593999997E+02  0.45594000000E+02  0.51100000000E-03 0. -1.
         11   -1    0    0    0    0 -0.00000000000E+00 -0.00000000000E+00 -0.45593999997E+02  0.45594000000E+02  0.51100000000E-03 0.  1.
    9900012    2    1    2    0    0 -0.20228170342E+01  0.11985867050E+02 -0.38799628079E+02  0.50528881260E+02  0.30000065077E+02 0.  0.
         12    1    1    2    0    0  0.20228170342E+01 -0.11985867050E+02  0.38799628079E+02  0.40659118740E+02  0.00000000000E+00 0. -1.
         11    1    3    3    0    0  0.80901500175E+01 -0.24603983739E+01 -0.81749419410E+01  0.11761537462E+02  0.51100000000E-03 0. -1.
        -11    1    3    3    0    0 -0.16275055239E+01 -0.30474001635E+01 -0.92421559329E+01  0.98667557250E+01  0.51100000000E-03 0.  1.
         12    1    3    3    0    0 -0.84854615277E+01  0.17493665587E+02 -0.21382530205E+02  0.28900588073E+02  0.00000000000E+00 0. -1.
</event>
<event>
 7    1  0.5408841E-013  0.5052886E+02  0.7816164E-02  0.1300439E+00
        -11   -1    0    0    0    0  0.00000000000E+00  0.00000000000E+00  0.45593999997E+02  0.45594000000E+02  0.51100000000E-03 0.  1.
         11   -1    0    0    0    0 -0.00000000000E+00 -0.00000000000E+00 -0.45593999997E+02  0.45594000000E+02  0.51100000000E-03 0. -1.
    9900012    2    1    2    0    0  0.59613856778E+01  0.17593951499E+02  0.36167394698E+02  0.50528859726E+02  0.29999999624E+02 0.  0.
         12    1    1    2    0    0 -0.59613856778E+01 -0.17593951499E+02 -0.36167394698E+02  0.40659140274E+02  0.00000000000E+00 0. -1.
         11    1    3    3    0    0 -0.14660751671E+01  0.10901253317E+02  0.18407615055E+02  0.21443576953E+02  0.51100000000E-03 0. -1.
        -11    1    3    3    0    0  0.12937128850E+02  0.70607793113E+01  0.18345272177E+02  0.23532380221E+02  0.51100000000E-03 0.  1.
        -12    1    3    3    0    0 -0.55096680052E+01 -0.36808112880E+00 -0.58549253370E+00  0.55529025519E+01  0.00000000000E+00 0.  1.
</event>
<event>
 7    1  0.5408841E-013  0.5052887E+02  0.7816164E-02  0.1300439E+00
        -11   -1    0    0    0    0  0.00000000000E+00  0.00000000000E+00  0.45593999997E+02  0.45594000000E+02  0.51100000000E-03 0.  1.
         11   -1    0    0    0    0 -0.00000000000E+00 -0.00000000000E+00 -0.45593999997E+02  0.45594000000E+02  0.51100000000E-03 0. -1.
    9900012    2    1    2    0    0 -0.91087654462E+01  0.39494586644E+02  0.32207115290E+01  0.50528868617E+02  0.30000026647E+02 0.  0.
         12    1    1    2    0    0  0.91087654462E+01 -0.39494586644E+02 -0.32207115290E+01  0.40659131383E+02  0.00000000000E+00 0. -1.
         11    1    3    3    0    0 -0.81091570471E+01  0.17806406115E+02  0.11115120355E+02  0.22502720447E+02  0.51100000000E-03 0. -1.
        -11    1    3    3    0    0  0.37879124293E+00  0.10580905730E+02  0.43416063675E+01  0.11443277283E+02  0.51100000000E-03 0.  1.
         12    1    3    3    0    0 -0.13783996420E+01  0.11107274798E+02 -0.12236015193E+02  0.16582870886E+02  0.00000000000E+00 0. -1.
</event>
<event>
 7    1  0.5408841E-013  0.5052885E+02  0.7816164E-02  0.1300439E+00
        -11   -1    0    0    0    0  0.00000000000E+00  0.00000000000E+00  0.45593999997E+02  0.45594000000E+02  0.51100000000E-03 0.  1.
         11   -1    0    0    0    0 -0.00000000000E+00 -0.00000000000E+00 -0.45593999997E+02  0.45594000000E+02  0.51100000000E-03 0. -1.
    9900012    2    1    2    0    0  0.58036157626E+01 -0.33198364256E+02  0.22745402194E+02  0.50528847695E+02  0.29999963055E+02 0.  0.
         12    1    1    2    0    0 -0.58036157626E+01  0.33198364256E+02 -0.22745402194E+02  0.40659152305E+02  0.00000000000E+00 0. -1.
         11    1    3    3    0    0  0.19971768890E+01 -0.76198358955E-01  0.40938130223E+01  0.45556368422E+01  0.51100000000E-03 0. -1.
        -11    1    3    3    0    0 -0.65428061668E+01 -0.77186896287E+01  0.15293286635E+02  0.18337696106E+02  0.51100000000E-03 0.  1.
        -12    1    3    3    0    0  0.10349245040E+02 -0.25403476268E+02  0.33583025366E+01  0.27635514747E+02  0.00000000000E+00 0.  1.
</event>
<event>
 7    1  0.5408841E-013  0.5052886E+02  0.7816164E-02  0.1300439E+00
        -11   -1    0    0    0    0  0.00000000000E+00  0.00000000000E+00  0.45593999997E+02  0.45594000000E+02  0.51100000000E-03 0.  1.
         11   -1    0    0    0    0 -0.00000000000E+00 -0.00000000000E+00 -0.45593999997E+02  0.45594000000E+02  0.51100000000E-03 0. -1.
    9900012    2    1    2    0    0  0.27336837689E+02 -0.10729991193E+02  0.28119924076E+02  0.50528861595E+02  0.30000005303E+02 0.  0.
         12    1    1    2    0    0 -0.27336837689E+02  0.10729991193E+02 -0.28119924076E+02  0.40659138405E+02  0.00000000000E+00 0. -1.
         11    1    3    3    0    0  0.31588737375E+01  0.50170003072E+01  0.18226178467E+00  0.59314412238E+01  0.51100000000E-03 0. -1.
        -11    1    3    3    0    0  0.12446204644E+01  0.17504244203E+01 -0.20632626620E+01  0.29782744711E+01  0.51100000000E-03 0.  1.
        -12    1    3    3    0    0  0.22933343487E+02 -0.17497415920E+02  0.30000924953E+02  0.41619145900E+02  0.00000000000E+00 0.  1.
</event>
<event>
 7    1  0.5408841E-013  0.5052883E+02  0.7816164E-02  0.1300439E+00
        -11   -1    0    0    0    0  0.00000000000E+00  0.00000000000E+00  0.45593999997E+02  0.45594000000E+02  0.51100000000E-03 0. -1.
         11   -1    0    0    0    0 -0.00000000000E+00 -0.00000000000E+00 -0.45593999997E+02  0.45594000000E+02  0.51100000000E-03 0.  1.
    9900012    2    1    2    0    0 -0.13385477082E+02  0.29267245022E+01 -0.38280948260E+02  0.50528834825E+02  0.29999923934E+02 0.  0.
         12    1    1    2    0    0  0.13385477082E+02 -0.29267245022E+01  0.38280948260E+02  0.40659165175E+02  0.00000000000E+00 0. -1.
         11    1    3    3    0    0  0.79106615398E+00  0.19991631575E+01 -0.11427231420E+02  0.11627727946E+02  0.51100000000E-03 0. -1.
        -11    1    3    3    0    0  0.26822247335E+01 -0.63825741949E+01 -0.16302953316E+02  0.17712082598E+02  0.51100000000E-03 0.  1.
        -12    1    3    3    0    0 -0.16858767969E+02  0.73101355396E+01 -0.10550763524E+02  0.21189024281E+02  0.00000000000E+00 0.  1.
</event>
<event>
 7    1  0.5408841E-013  0.5052886E+02  0.7816164E-02  0.1300439E+00
        -11   -1    0    0    0    0  0.00000000000E+00  0.00000000000E+00  0.45593999997E+02  0.45594000000E+02  0.51100000000E-03 0. -1.
         11   -1    0    0    0    0 -0.00000000000E+00 -0.00000000000E+00 -0.45593999997E+02  0.45594000000E+02  0.51100000000E-03 0.  1.
    9900012    2    1    2    0    0  0.26083210203E+02 -0.22479552611E+02 -0.21621783804E+02  0.50528859884E+02  0.30000000103E+02 0.  0.
         12    1    1    2    0    0 -0.26083210203E+02  0.22479552611E+02  0.21621783804E+02  0.40659140116E+02  0.00000000000E+00 0. -1.
         11    1    3    3    0    0  0.23134568349E+02 -0.13329827009E+02 -0.74510972809E+01  0.27720234338E+02  0.51100000000E-03 0. -1.
        -11    1    3    3    0    0  0.57686517501E+01 -0.91955218846E+01 -0.29641154455E+01  0.11252597317E+02  0.51100000000E-03 0.  1.
        -12    1    3    3    0    0 -0.28200098960E+01  0.45796282138E-01 -0.11206571078E+02  0.11556028229E+02  0.00000000000E+00 0.  1.
</event>
<event>
 7    1  0.5408841E-013  0.5052886E+02  0.7816164E-02  0.1300439E+00
        -11   -1    0    0    0    0  0.00000000000E+00  0.00000000000E+00  0.45593999997E+02  0.45594000000E+02  0.51100000000E-03 0. -1.
         11   -1    0    0    0    0 -0.00000000000E+00 -0.00000000000E+00 -0.45593999997E+02  0.45594000000E+02  0.51100000000E-03 0.  1.
    9900012    2    1    2    0    0 -0.29027529827E+02  0.23069832458E+02 -0.16683861790E+02  0.50528857095E+02  0.29999991627E+02 0.  0.
         12    1    1    2    0    0  0.29027529827E+02 -0.23069832458E+02  0.16683861790E+02  0.40659142905E+02  0.00000000000E+00 0. -1.
         11    1    3    3    0    0 -0.56167020275E+01  0.21617509533E+02 -0.14744886781E+02  0.26763328391E+02  0.51100000000E-03 0. -1.
        -11    1    3    3    0    0 -0.11212722895E+01 -0.41719228273E+00  0.43294721077E+00  0.12722989021E+01  0.51100000000E-03 0.  1.
         12    1    3    3    0    0 -0.22289555510E+02  0.18695152079E+01 -0.23719222194E+01  0.22493229803E+02  0.00000000000E+00 0. -1.
</event>
<event>
 7    1  0.5408841E-013  0.5052885E+02  0.7816164E-02  0.1300439E+00
        -11   -1    0    0    0    0  0.00000000000E+00  0.00000000000E+00  0.45593999997E+02  0.45594000000E+02  0.51100000000E-03 0. -1.
         11   -1    0    0    0    0 -0.00000000000E+00 -0.00000000000E+00 -0.45593999997E+02  0.45594000000E+02  0.51100000000E-03 0.  1.
    9900012    2    1    2    0    0 -0.14013529855E+02 -0.12721306065E+02 -0.35985492110E+02  0.50528852328E+02  0.29999977136E+02 0.  0.
         12    1    1    2    0    0  0.14013529855E+02  0.12721306065E+02  0.35985492110E+02  0.40659147672E+02  0.00000000000E+00 0. -1.
         11    1    3    3    0    0 -0.57336721778E+01 -0.88501680271E+01 -0.87893624467E+01  0.13727831702E+02  0.51100000000E-03 0. -1.
        -11    1    3    3    0    0  0.20406191829E+01 -0.66164395635E+01 -0.24943489407E+02  0.25886658015E+02  0.51100000000E-03 0.  1.
        -12    1    3    3    0    0 -0.10320476860E+02  0.27453015257E+01 -0.22526402569E+01  0.10914362611E+02  0.00000000000E+00 0.  1.
</event>
<event>
 7    1  0.5408841E-013  0.5052886E+02  0.7816164E-02  0.1300439E+00
        -11   -1    0    0    0    0  0.00000000000E+00  0.00000000000E+00  0.45593999997E+02  0.45594000000E+02  0.51100000000E-03 0.  1.
         11   -1    0    0    0    0 -0.00000000000E+00 -0.00000000000E+00 -0.45593999997E+02  0.45594000000E+02  0.51100000000E-03 0. -1.
    9900012    2    1    2    0    0 -0.82675643146E+01  0.27697609156E+02  0.28594676420E+02  0.50528859672E+02  0.29999999459E+02 0.  0.
         12    1    1    2    0    0  0.82675643146E+01 -0.27697609156E+02 -0.28594676420E+02  0.40659140328E+02  0.00000000000E+00 0. -1.
         11    1    3    3    0    0 -0.10155655239E+02  0.78589891201E+01  0.18392233870E+02  0.22431569502E+02  0.51100000000E-03 0. -1.
        -11    1    3    3    0    0  0.53744971644E+01  0.81882508717E+01  0.12335173090E+02  0.15750846565E+02  0.51100000000E-03 0.  1.
        -12    1    3    3    0    0 -0.34864062404E+01  0.11650369164E+02 -0.21327305398E+01  0.12346443605E+02  0.00000000000E+00 0.  1.
</event>
<event>
 7    1  0.5408841E-013  0.5052886E+02  0.7816164E-02  0.1300439E+00
        -11   -1    0    0    0    0  0.00000000000E+00  0.00000000000E+00  0.45593999997E+02  0.45594000000E+02  0.51100000000E-03 0.  1.
         11   -1    0    0    0    0 -0.00000000000E+00 -0.00000000000E+00 -0.45593999997E+02  0.45594000000E+02  0.51100000000E-03 0. -1.
    9900012    2    1    2    0    0 -0.22731824050E+02 -0.20683251730E+02 -0.26620164388E+02  0.50528857378E+02  0.29999992485E+02 0.  0.
         12    1    1    2    0    0  0.22731824050E+02  0.20683251730E+02  0.26620164388E+02  0.40659142622E+02  0.00000000000E+00 0. -1.
         11    1    3    3    0    0 -0.19382763130E+01  0.26037096155E+01  0.11302083599E+01  0.34370903429E+01  0.51100000000E-03 0. -1.
        -11    1    3    3    0    0 -0.23932871564E+02 -0.13977290100E+02 -0.23692340328E+02  0.36461952366E+02  0.51100000000E-03 0.  1.
         12    1    3    3    0    0  0.31393238271E+01 -0.93096712448E+01 -0.40580324202E+01  0.10629814669E+02  0.00000000000E+00 0. -1.
</event>
<event>
 7    1  0.5408841E-013  0.5052886E+02  0.7816164E-02  0.1300439E+00
        -11   -1    0    0    0    0  0.00000000000E+00  0.00000000000E+00  0.45593999997E+02  0.45594000000E+02  0.51100000000E-03 0.  1.
         11   -1    0    0    0    0 -0.00000000000E+00 -0.00000000000E+00 -0.45593999997E+02  0.45594000000E+02  0.51100000000E-03 0. -1.
    9900012    2    1    2    0    0 -0.30775142993E+02 -0.13195454163E+02  0.23063746139E+02  0.50528858067E+02  0.29999994579E+02 0.  0.
         12    1    1    2    0    0  0.30775142993E+02  0.13195454163E+02 -0.23063746139E+02  0.40659141933E+02  0.00000000000E+00 0. -1.
         11    1    3    3    0    0 -0.12186998596E+02 -0.39953329091E+01  0.30980341240E+01  0.13194068194E+02  0.51100000000E-03 0. -1.
        -11    1    3    3    0    0 -0.21640187036E+02 -0.12478405194E+02  0.21117272593E+02  0.32710051867E+02  0.51100000000E-03 0.  1.
         12    1    3    3    0    0  0.30520426380E+01  0.32782839399E+01 -0.11515605778E+01  0.46247380055E+01  0.00000000000E+00 0. -1.
</event>
<event>
 7    1  0.5408841E-013  0.5052881E+02  0.7816164E-02  0.1300439E+00
        -11   -1    0    0    0    0  0.00000000000E+00  0.00000000000E+00  0.45593999997E+02  0.45594000000E+02  0.51100000000E-03 0.  1.
         11   -1    0    0    0    0 -0.00000000000E+00 -0.00000000000E+00 -0.45593999997E+02  0.45594000000E+02  0.51100000000E-03 0. -1.
    9900012    2    1    2    0    0 -0.12358980780E+02 -0.10813320749E+02  0.37195394274E+02  0.50528810796E+02  0.29999850895E+02 0.  0.
         12    1    1    2    0    0  0.12358980780E+02  0.10813320749E+02 -0.37195394274E+02  0.40659189204E+02  0.00000000000E+00 0. -1.
         11    1    3    3    0    0  0.66792066869E+01 -0.37373544934E+01  0.44114070505E+01  0.88340326580E+01  0.51100000000E-03 0. -1.
        -11    1    3    3    0    0 -0.14447544435E+02 -0.10327108156E+02  0.15683740309E+02  0.23693045676E+02  0.51100000000E-03 0.  1.
         12    1    3    3    0    0 -0.45906430322E+01  0.32511418999E+01  0.17100246914E+02  0.18001732462E+02  0.00000000000E+00 0. -1.
</event>
<event>
 7    1  0.5408841E-013  0.5052886E+02  0.7816164E-02  0.1300439E+00
        -11   -1    0    0    0    0  0.00000000000E+00  0.00000000000E+00  0.45593999997E+02  0.45594000000E+02  0.51100000000E-03 0.  1.
         11   -1    0    0    0    0 -0.00000000000E+00 -0.00000000000E+00 -0.45593999997E+02  0.45594000000E+02  0.51100000000E-03 0. -1.
    9900012    2    1    2    0    0 -0.35339044183E+02  0.18038632247E+01  0.20026581447E+02  0.50528856738E+02  0.29999990542E+02 0.  0.
         12    1    1    2    0    0  0.35339044183E+02 -0.18038632247E+01 -0.20026581447E+02  0.40659143262E+02  0.00000000000E+00 0. -1.
         11    1    3    3    0    0 -0.27936544645E+00 -0.62301008099E+01  0.60462024350E+00  0.62656018908E+01  0.51100000000E-03 0. -1.
        -11    1    3    3    0    0 -0.18445065956E+01  0.11927503203E+01 -0.29191200583E+01  0.36532341950E+01  0.51100000000E-03 0.  1.
        -12    1    3    3    0    0 -0.33215172141E+02  0.68412137143E+01  0.22341081262E+02  0.40610020653E+02  0.00000000000E+00 0.  1.
</event>
<event>
 7    1  0.5408841E-013  0.5052886E+02  0.7816164E-02  0.1300439E+00
        -11   -1    0    0    0    0  0.00000000000E+00  0.00000000000E+00  0.45593999997E+02  0.45594000000E+02  0.51100000000E-03 0. -1.
         11   -1    0    0    0    0 -0.00000000000E+00 -0.00000000000E+00 -0.45593999997E+02  0.45594000000E+02  0.51100000000E-03 0.  1.
    9900012    2    1    2    0    0  0.42129535363E+01 -0.28187776690E+02 -0.28997687760E+02  0.50528860466E+02  0.30000001872E+02 0.  0.
         12    1    1    2    0    0 -0.42129535363E+01  0.28187776690E+02  0.28997687760E+02  0.40659139534E+02  0.00000000000E+00 0. -1.
         11    1    3    3    0    0  0.41438570642E+01 -0.86292407635E+01 -0.32211558212E+01  0.10100059040E+02  0.51100000000E-03 0. -1.
        -11    1    3    3    0    0  0.33806882111E+01 -0.70088533607E+01 -0.26311944046E+02  0.27438503566E+02  0.51100000000E-03 0.  1.
         12    1    3    3    0    0 -0.33115917390E+01 -0.12549682566E+02  0.53541210746E+00  0.12990297860E+02  0.00000000000E+00 0. -1.
</event>
<event>
 7    1  0.5408841E-013  0.5052886E+02  0.7816164E-02  0.1300439E+00
        -11   -1    0    0    0    0  0.00000000000E+00  0.00000000000E+00  0.45593999997E+02  0.45594000000E+02  0.51100000000E-03 0.  1.
         11   -1    0    0    0    0 -0.00000000000E+00 -0.00000000000E+00 -0.45593999997E+02  0.45594000000E+02  0.51100000000E-03 0. -1.
    9900012    2    1    2    0    0  0.39163877176E+02  0.10813526865E+02  0.15569416196E+01  0.50528859504E+02  0.29999998948E+02 0.  0.
         12    1    1    2    0    0 -0.39163877176E+02 -0.10813526865E+02 -0.15569416196E+01  0.40659140496E+02  0.00000000000E+00 0. -1.
         11    1    3    3    0    0  0.26076881049E+02  0.42998683310E+01 -0.42902367592E+01  0.26774964512E+02  0.51100000000E-03 0. -1.
        -11    1    3    3    0    0  0.13563225539E+02  0.89949204099E+01  0.98477478346E+01  0.19022297913E+02  0.51100000000E-03 0.  1.
        -12    1    3    3    0    0 -0.47622941245E+00 -0.24812618758E+01 -0.40005694558E+01  0.47315970792E+01  0.00000000000E+00 0.  1.
</event>
<event>
 7    1  0.5408841E-013  0.5052887E+02  0.7816164E-02  0.1300439E+00
        -11   -1    0    0    0    0  0.00000000000E+00  0.00000000000E+00  0.45593999997E+02  0.45594000000E+02  0.51100000000E-03 0. -1.
         11   -1    0    0    0    0 -0.00000000000E+00 -0.00000000000E+00 -0.45593999997E+02  0.45594000000E+02  0.51100000000E-03 0.  1.
    9900012    2    1    2    0    0 -0.80117376496E+01  0.27261443537E+01 -0.39768647639E+02  0.50528866485E+02  0.30000020166E+02 0.  0.
         12    1    1    2    0    0  0.80117376496E+01 -0.27261443537E+01  0.39768647639E+02  0.40659133515E+02  0.00000000000E+00 0. -1.
         11    1    3    3    0    0  0.21618511074E+01  0.13002635223E+02 -0.12352729080E+02  0.18064662713E+02  0.51100000000E-03 0. -1.
        -11    1    3    3    0    0  0.90437687226E+00  0.11493846535E+01 -0.26181429548E+01  0.29989423805E+01  0.51100000000E-03 0.  1.
        -12    1    3    3    0    0 -0.11077965629E+02 -0.11425875523E+02 -0.24797775604E+02  0.29465261391E+02  0.00000000000E+00 0.  1.
</event>
<event>
 7    1  0.5408841E-013  0.5052885E+02  0.7816164E-02  0.1300439E+00
        -11   -1    0    0    0    0  0.00000000000E+00  0.00000000000E+00  0.45593999997E+02  0.45594000000E+02  0.51100000000E-03 0.  1.
         11   -1    0    0    0    0 -0.00000000000E+00 -0.00000000000E+00 -0.45593999997E+02  0.45594000000E+02  0.51100000000E-03 0. -1.
    9900012    2    1    2    0    0  0.33829051238E+02 -0.15059383551E+02  0.16792155245E+02  0.50528853202E+02  0.29999979792E+02 0.  0.
         12    1    1    2    0    0 -0.33829051238E+02  0.15059383551E+02 -0.16792155245E+02  0.40659146798E+02  0.00000000000E+00 0. -1.
         11    1    3    3    0    0  0.10886871886E+02  0.35456274948E+01  0.34478219951E+01  0.11957547013E+02  0.51100000000E-03 0. -1.
        -11    1    3    3    0    0  0.19289952597E+02 -0.41548990494E+01  0.19857883109E+01  0.19832014844E+02  0.51100000000E-03 0.  1.
        -12    1    3    3    0    0  0.36522267554E+01 -0.14450111997E+02  0.11358544939E+02  0.18739291345E+02  0.00000000000E+00 0.  1.
</event>
<event>
 7    1  0.5408841E-013  0.5052886E+02  0.7816164E-02  0.1300439E+00
        -11   -1    0    0    0    0  0.00000000000E+00  0.00000000000E+00  0.45593999997E+02  0.45594000000E+02  0.51100000000E-03 0.  1.
         11   -1    0    0    0    0 -0.00000000000E+00 -0.00000000000E+00 -0.45593999997E+02  0.45594000000E+02  0.51100000000E-03 0. -1.
    9900012    2    1    2    0    0 -0.30431393024E+02 -0.26818042140E+02  0.28086008125E+01  0.50528864445E+02  0.30000013966E+02 0.  0.
         12    1    1    2    0    0  0.30431393024E+02  0.26818042140E+02 -0.28086008125E+01  0.40659135555E+02  0.00000000000E+00 0. -1.
         11    1    3    3    0    0  0.17909129170E+01 -0.45689134732E+01 -0.81899028696E+00  0.49752472052E+01  0.51100000000E-03 0. -1.
        -11    1    3    3    0    0 -0.69828684646E+01 -0.18534696553E+02  0.30178137253E+01  0.20035035020E+02  0.51100000000E-03 0.  1.
         12    1    3    3    0    0 -0.25239437476E+02 -0.37144321139E+01  0.60977737413E+00  0.25518582219E+02  0.00000000000E+00 0. -1.
</event>
<event>
 7    1  0.5408841E-013  0.5052886E+02  0.7816164E-02  0.1300439E+00
        -11   -1    0    0    0    0  0.00000000000E+00  0.00000000000E+00  0.45593999997E+02  0.45594000000E+02  0.51100000000E-03 0.  1.
         11   -1    0    0    0    0 -0.00000000000E+00 -0.00000000000E+00 -0.45593999997E+02  0.45594000000E+02  0.51100000000E-03 0. -1.
    9900012    2    1    2    0    0  0.27566107787E+02  0.12992674653E+02  0.26915898146E+02  0.50528862452E+02  0.30000007909E+02 0.  0.
         12    1    1    2    0    0 -0.27566107787E+02 -0.12992674653E+02 -0.26915898146E+02  0.40659137548E+02  0.00000000000E+00 0. -1.
         11    1    3    3    0    0  0.16026670532E+02  0.11500119058E+02  0.25223525918E+02  0.32020823954E+02  0.51100000000E-03 0. -1.
        -11    1    3    3    0    0  0.86181739760E+01  0.23991996854E+01  0.76761572926E+01  0.11787810350E+02  0.51100000000E-03 0.  1.
         12    1    3    3    0    0  0.29212632789E+01 -0.90664409087E+00 -0.59837850648E+01  0.67202281475E+01  0.00000000000E+00 0. -1.
</event>
<event>
 7    1  0.5408841E-013  0.5052885E+02  0.7816164E-02  0.1300439E+00
        -11   -1    0    0    0    0  0.00000000000E+00  0.00000000000E+00  0.45593999997E+02  0.45594000000E+02  0.51100000000E-03 0.  1.
         11   -1    0    0    0    0 -0.00000000000E+00 -0.00000000000E+00 -0.45593999997E+02  0.45594000000E+02  0.51100000000E-03 0. -1.
    9900012    2    1    2    0    0 -0.17702818687E+02  0.35487627034E+02 -0.89668634580E+01  0.50528854629E+02  0.29999984132E+02 0.  0.
         12    1    1    2    0    0  0.17702818687E+02 -0.35487627034E+02  0.89668634580E+01  0.40659145371E+02  0.00000000000E+00 0. -1.
         11    1    3    3    0    0 -0.23383557173E+01  0.12108953697E+02 -0.21551446291E+01  0.12519557330E+02  0.51100000000E-03 0.  1.
        -11    1    3    3    0    0 -0.89124610173E+01  0.36767407170E+01  0.80018631642E+01  0.12529173877E+02  0.51100000000E-03 0. -1.
         12    1    3    3    0    0 -0.64520019524E+01  0.19701932620E+02 -0.14813581993E+02  0.25480123423E+02  0.00000000000E+00 0. -1.
</event>
<event>
 7    1  0.5408841E-013  0.5052886E+02  0.7816164E-02  0.1300439E+00
        -11   -1    0    0    0    0  0.00000000000E+00  0.00000000000E+00  0.45593999997E+02  0.45594000000E+02  0.51100000000E-03 0. -1.
         11   -1    0    0    0    0 -0.00000000000E+00 -0.00000000000E+00 -0.45593999997E+02  0.45594000000E+02  0.51100000000E-03 0.  1.
    9900012    2    1    2    0    0  0.27018443853E+02 -0.58925043215E+01 -0.29806846208E+02  0.50528855933E+02  0.29999988093E+02 0.  0.
         12    1    1    2    0    0 -0.27018443853E+02  0.58925043215E+01  0.29806846208E+02  0.40659144067E+02  0.00000000000E+00 0. -1.
         11    1    3    3    0    0  0.15806038390E+02 -0.11698671984E+02 -0.43333896345E+01  0.20136237031E+02  0.51100000000E-03 0. -1.
        -11    1    3    3    0    0  0.42290045166E+01 -0.22620542064E+01 -0.13639739098E+02  0.14458348846E+02  0.51100000000E-03 0.  1.
        -12    1    3    3    0    0  0.69834009463E+01  0.80682218693E+01 -0.11833717476E+02  0.15934270056E+02  0.00000000000E+00 0.  1.
</event>
<event>
 7    1  0.5408841E-013  0.5052885E+02  0.7816164E-02  0.1300439E+00
        -11   -1    0    0    0    0  0.00000000000E+00  0.00000000000E+00  0.45593999997E+02  0.45594000000E+02  0.51100000000E-03 0.  1.
         11   -1    0    0    0    0 -0.00000000000E+00 -0.00000000000E+00 -0.45593999997E+02  0.45594000000E+02  0.51100000000E-03 0. -1.
    9900012    2    1    2    0    0 -0.18551998650E+02 -0.49929788643E+01  0.35833779036E+02  0.50528853282E+02  0.29999980036E+02 0.  0.
         12    1    1    2    0    0  0.18551998650E+02  0.49929788643E+01 -0.35833779036E+02  0.40659146718E+02  0.00000000000E+00 0. -1.
         11    1    3    3    0    0  0.58063405317E+00 -0.34927894375E+01  0.50199241580E+01  0.61429921676E+01  0.51100000000E-03 0. -1.
        -11    1    3    3    0    0 -0.98163108788E+01 -0.12770098572E+02  0.22158642210E+02  0.27394174593E+02  0.51100000000E-03 0.  1.
         12    1    3    3    0    0 -0.93163218247E+01  0.11269909146E+02  0.86552126680E+01  0.16991686521E+02  0.00000000000E+00 0. -1.
</event>
<event>
 7    1  0.5408841E-013  0.5052887E+02  0.7816164E-02  0.1300439E+00
        -11   -1    0    0    0    0  0.00000000000E+00  0.00000000000E+00  0.45593999997E+02  0.45594000000E+02  0.51100000000E-03 0.  1.
         11   -1    0    0    0    0 -0.00000000000E+00 -0.00000000000E+00 -0.45593999997E+02  0.45594000000E+02  0.51100000000E-03 0. -1.
    9900012    2    1    2    0    0 -0.43820683281E+01  0.14990099587E+02  0.37540103289E+02  0.50528868635E+02  0.30000026702E+02 0.  0.
         12    1    1    2    0    0  0.43820683281E+01 -0.14990099587E+02 -0.37540103289E+02  0.40659131365E+02  0.00000000000E+00 0. -1.
         11    1    3    3    0    0 -0.28092772377E+01  0.31531596146E+01  0.24895028799E+01  0.49022524418E+01  0.51100000000E-03 0. -1.
        -11    1    3    3    0    0 -0.59520047114E+01  0.16951728793E+02  0.34466329675E+02  0.38867921873E+02  0.51100000000E-03 0.  1.
        -12    1    3    3    0    0  0.43792136210E+01 -0.51147888211E+01  0.58427073350E+00  0.67586943201E+01  0.00000000000E+00 0.  1.
</event>
<event>
 7    1  0.5408841E-013  0.5052884E+02  0.7816164E-02  0.1300439E+00
        -11   -1    0    0    0    0  0.00000000000E+00  0.00000000000E+00  0.45593999997E+02  0.45594000000E+02  0.51100000000E-03 0. -1.
         11   -1    0    0    0    0 -0.00000000000E+00 -0.00000000000E+00 -0.45593999997E+02  0.45594000000E+02  0.51100000000E-03 0.  1.
    9900012    2    1    2    0    0  0.30996442296E+02 -0.25894427278E+02 -0.46761394305E+01  0.50528842618E+02  0.29999947622E+02 0.  0.
         12    1    1    2    0    0 -0.30996442296E+02  0.25894427278E+02  0.46761394305E+01  0.40659157382E+02  0.00000000000E+00 0. -1.
         11    1    3    3    0    0  0.39106030993E+01 -0.50870379536E+01  0.48144645078E+01  0.80218352326E+01  0.51100000000E-03 0. -1.
        -11    1    3    3    0    0  0.19659271929E+02 -0.25369209610E+02 -0.43503988538E+01  0.32388419835E+02  0.51100000000E-03 0.  1.
        -12    1    3    3    0    0  0.74265672675E+01  0.45618202855E+01 -0.51402050845E+01  0.10118587550E+02  0.00000000000E+00 0.  1.
</event>
<event>
 7    1  0.5408841E-013  0.5052886E+02  0.7816164E-02  0.1300439E+00
        -11   -1    0    0    0    0  0.00000000000E+00  0.00000000000E+00  0.45593999997E+02  0.45594000000E+02  0.51100000000E-03 0. -1.
         11   -1    0    0    0    0 -0.00000000000E+00 -0.00000000000E+00 -0.45593999997E+02  0.45594000000E+02  0.51100000000E-03 0.  1.
    9900012    2    1    2    0    0 -0.29456171226E+02  0.10532859120E+02 -0.25972258304E+02  0.50528863931E+02  0.30000012403E+02 0.  0.
         12    1    1    2    0    0  0.29456171226E+02 -0.10532859120E+02  0.25972258304E+02  0.40659136069E+02  0.00000000000E+00 0. -1.
         11    1    3    3    0    0  0.44024668144E+01  0.33182454837E+01 -0.36466712620E+01  0.66098924875E+01  0.51100000000E-03 0. -1.
        -11    1    3    3    0    0 -0.17294036937E+02  0.10846372613E+02 -0.15531132692E+02  0.25650411213E+02  0.51100000000E-03 0.  1.
         12    1    3    3    0    0 -0.16564601103E+02 -0.36317589768E+01 -0.67944543499E+01  0.18268560230E+02  0.00000000000E+00 0. -1.
</event>
<event>
 7    1  0.5408841E-013  0.5052886E+02  0.7816164E-02  0.1300439E+00
        -11   -1    0    0    0    0  0.00000000000E+00  0.00000000000E+00  0.45593999997E+02  0.45594000000E+02  0.51100000000E-03 0. -1.
         11   -1    0    0    0    0 -0.00000000000E+00 -0.00000000000E+00 -0.45593999997E+02  0.45594000000E+02  0.51100000000E-03 0.  1.
    9900012    2    1    2    0    0  0.37853346756E+02  0.60485794070E+01 -0.13553760038E+02  0.50528860995E+02  0.30000003481E+02 0.  0.
         12    1    1    2    0    0 -0.37853346756E+02 -0.60485794070E+01  0.13553760038E+02  0.40659139005E+02  0.00000000000E+00 0. -1.
         11    1    3    3    0    0  0.14993025327E+02  0.87639415894E+01 -0.38561333417E+01  0.17789526279E+02  0.51100000000E-03 0. -1.
        -11    1    3    3    0    0  0.12591740109E+02  0.89911469914E+01 -0.67972562794E+01  0.16899566160E+02  0.51100000000E-03 0.  1.
         12    1    3    3    0    0  0.10268581320E+02 -0.11706509174E+02 -0.29003704169E+01  0.15839768556E+02  0.00000000000E+00 0. -1.
</event>
<event>
 7    1  0.5408841E-013  0.5052881E+02  0.7816164E-02  0.1300439E+00
        -11   -1    0    0    0    0  0.00000000000E+00  0.00000000000E+00  0.45593999997E+02  0.45594000000E+02  0.51100000000E-03 0.  1.
         11   -1    0    0    0    0 -0.00000000000E+00 -0.00000000000E+00 -0.45593999997E+02  0.45594000000E+02  0.51100000000E-03 0. -1.
    9900012    2    1    2    0    0 -0.19216056520E+02  0.34610245550E+02 -0.92759683085E+01  0.50528812683E+02  0.29999856631E+02 0.  0.
         12    1    1    2    0    0  0.19216056520E+02 -0.34610245550E+02  0.92759683085E+01  0.40659187317E+02  0.00000000000E+00 0. -1.
         11    1    3    3    0    0 -0.29515118168E+00  0.16149977735E+02 -0.18816604834E+01  0.16261904608E+02  0.51100000000E-03 0. -1.
        -11    1    3    3    0    0  0.18343902791E+01  0.37494137048E+01  0.45395836566E+01  0.61669206953E+01  0.51100000000E-03 0.  1.
        -12    1    3    3    0    0 -0.20755295618E+02  0.14710854110E+02 -0.11933891482E+02  0.28099987379E+02  0.00000000000E+00 0.  1.
</event>
<event>
 7    1  0.5408841E-013  0.5052886E+02  0.7816164E-02  0.1300439E+00
        -11   -1    0    0    0    0  0.00000000000E+00  0.00000000000E+00  0.45593999997E+02  0.45594000000E+02  0.51100000000E-03 0.  1.
         11   -1    0    0    0    0 -0.00000000000E+00 -0.00000000000E+00 -0.45593999997E+02  0.45594000000E+02  0.51100000000E-03 0. -1.
    9900012    2    1    2    0    0  0.36557527141E+02  0.31638877088E+01  0.17512928409E+02  0.50528860344E+02  0.30000001501E+02 0.  0.
         12    1    1    2    0    0 -0.36557527141E+02 -0.31638877088E+01 -0.17512928409E+02  0.40659139656E+02  0.00000000000E+00 0. -1.
         11    1    3    3    0    0  0.44366106248E+00  0.32739691484E+01  0.78602051191E+01  0.85263435245E+01  0.51100000000E-03 0. -1.
        -11    1    3    3    0    0  0.50512562552E+01  0.56076451172E+01  0.70219736954E+01  0.10308685093E+02  0.51100000000E-03 0.  1.
         12    1    3    3    0    0  0.31062609824E+02 -0.57177265568E+01  0.26307495943E+01  0.31693831726E+02  0.00000000000E+00 0. -1.
</event>
<event>
 7    1  0.5408841E-013  0.5052887E+02  0.7816164E-02  0.1300439E+00
        -11   -1    0    0    0    0  0.00000000000E+00  0.00000000000E+00  0.45593999997E+02  0.45594000000E+02  0.51100000000E-03 0. -1.
         11   -1    0    0    0    0 -0.00000000000E+00 -0.00000000000E+00 -0.45593999997E+02  0.45594000000E+02  0.51100000000E-03 0.  1.
    9900012    2    1    2    0    0 -0.14282791911E+02 -0.28929277111E+01 -0.37957844255E+02  0.50528866758E+02  0.30000020996E+02 0.  0.
         12    1    1    2    0    0  0.14282791911E+02  0.28929277111E+01  0.37957844255E+02  0.40659133242E+02  0.00000000000E+00 0. -1.
         11    1    3    3    0    0 -0.22896493886E+01 -0.13141711067E+01  0.45927401763E+01  0.52974335870E+01  0.51100000000E-03 0. -1.
        -11    1    3    3    0    0 -0.12415705052E+00 -0.11591417215E+01 -0.12216155812E+00  0.11721553699E+01  0.51100000000E-03 0.  1.
        -12    1    3    3    0    0 -0.11868985472E+02 -0.41961488291E+00 -0.42428422874E+02  0.44059277801E+02  0.00000000000E+00 0.  1.
</event>
<event>
 7    1  0.5408841E-013  0.5052886E+02  0.7816164E-02  0.1300439E+00
        -11   -1    0    0    0    0  0.00000000000E+00  0.00000000000E+00  0.45593999997E+02  0.45594000000E+02  0.51100000000E-03 0.  1.
         11   -1    0    0    0    0 -0.00000000000E+00 -0.00000000000E+00 -0.45593999997E+02  0.45594000000E+02  0.51100000000E-03 0. -1.
    9900012    2    1    2    0    0 -0.35772752838E+01  0.25694326226E+02  0.31307676593E+02  0.50528856965E+02  0.29999991232E+02 0.  0.
         12    1    1    2    0    0  0.35772752838E+01 -0.25694326226E+02 -0.31307676593E+02  0.40659143035E+02  0.00000000000E+00 0. -1.
         11    1    3    3    0    0 -0.36003814890E+01  0.24157421985E+02  0.10591455505E+02  0.26621846552E+02  0.51100000000E-03 0. -1.
        -11    1    3    3    0    0  0.46442158531E+01 -0.79032676852E+00  0.33348291390E+01  0.57718665038E+01  0.51100000000E-03 0.  1.
        -12    1    3    3    0    0 -0.46211096479E+01  0.23272310090E+01  0.17381391949E+02  0.18135143910E+02  0.00000000000E+00 0.  1.
</event>
<event>
 7    1  0.5408841E-013  0.5052887E+02  0.7816164E-02  0.1300439E+00
        -11   -1    0    0    0    0  0.00000000000E+00  0.00000000000E+00  0.45593999997E+02  0.45594000000E+02  0.51100000000E-03 0.  1.
         11   -1    0    0    0    0 -0.00000000000E+00 -0.00000000000E+00 -0.45593999997E+02  0.45594000000E+02  0.51100000000E-03 0. -1.
    9900012    2    1    2    0    0 -0.88271353268E+01 -0.36413078844E+02  0.15790313949E+02  0.50528872567E+02  0.30000038656E+02 0.  0.
         12    1    1    2    0    0  0.88271353268E+01  0.36413078844E+02 -0.15790313949E+02  0.40659127433E+02  0.00000000000E+00 0. -1.
         11    1    3    3    0    0 -0.46653508140E+01  0.27020807419E+01 -0.39089321032E+00  0.54055098110E+01  0.51100000000E-03 0. -1.
        -11    1    3    3    0    0  0.17913910775E+01  0.62782523280E+00  0.34531956465E+00  0.19293761630E+01  0.51100000000E-03 0.  1.
        -12    1    3    3    0    0 -0.59531755904E+01 -0.39742984819E+02  0.15835887595E+02  0.43193986593E+02  0.00000000000E+00 0.  1.
</event>
<event>
 7    1  0.5408841E-013  0.5052886E+02  0.7816164E-02  0.1300439E+00
        -11   -1    0    0    0    0  0.00000000000E+00  0.00000000000E+00  0.45593999997E+02  0.45594000000E+02  0.51100000000E-03 0.  1.
         11   -1    0    0    0    0 -0.00000000000E+00 -0.00000000000E+00 -0.45593999997E+02  0.45594000000E+02  0.51100000000E-03 0. -1.
    9900012    2    1    2    0    0 -0.28412855544E+00  0.15007544785E+02  0.37787012341E+02  0.50528862882E+02  0.30000009215E+02 0.  0.
         12    1    1    2    0    0  0.28412855544E+00 -0.15007544785E+02 -0.37787012341E+02  0.40659137118E+02  0.00000000000E+00 0. -1.
         11    1    3    3    0    0  0.32667371008E+01  0.18761434014E+02  0.18403493834E+02  0.26483042935E+02  0.51100000000E-03 0. -1.
        -11    1    3    3    0    0  0.38796953656E+01  0.16718909683E+01  0.27608709833E+01  0.50467479021E+01  0.51100000000E-03 0.  1.
        -12    1    3    3    0    0 -0.74305610219E+01 -0.54257801968E+01  0.16622647524E+02  0.18999072044E+02  0.00000000000E+00 0.  1.
</event>
<event>
 7    1  0.5408841E-013  0.5052886E+02  0.7816164E-02  0.1300439E+00
        -11   -1    0    0    0    0  0.00000000000E+00  0.00000000000E+00  0.45593999997E+02  0.45594000000E+02  0.51100000000E-03 0. -1.
         11   -1    0    0    0    0 -0.00000000000E+00 -0.00000000000E+00 -0.45593999997E+02  0.45594000000E+02  0.51100000000E-03 0.  1.
    9900012    2    1    2    0    0  0.84440770729E+01 -0.37574095483E+02  0.13040339081E+02  0.50528861638E+02  0.30000005435E+02 0.  0.
         12    1    1    2    0    0 -0.84440770729E+01  0.37574095483E+02 -0.13040339081E+02  0.40659138362E+02  0.00000000000E+00 0. -1.
         11    1    3    3    0    0  0.13104256797E+02 -0.24335061134E+02  0.16337211335E+02  0.32106404674E+02  0.51100000000E-03 0. -1.
        -11    1    3    3    0    0  0.37063130180E+01 -0.49607540715E+01  0.26491009970E-01  0.61924582502E+01  0.51100000000E-03 0.  1.
        -12    1    3    3    0    0 -0.83664927421E+01 -0.82782802774E+01 -0.33233632646E+01  0.12229998714E+02  0.00000000000E+00 0.  1.
</event>
<event>
 7    1  0.5408841E-013  0.5052885E+02  0.7816164E-02  0.1300439E+00
        -11   -1    0    0    0    0  0.00000000000E+00  0.00000000000E+00  0.45593999997E+02  0.45594000000E+02  0.51100000000E-03 0.  1.
         11   -1    0    0    0    0 -0.00000000000E+00 -0.00000000000E+00 -0.45593999997E+02  0.45594000000E+02  0.51100000000E-03 0. -1.
    9900012    2    1    2    0    0 -0.22774270358E+02  0.19708062392E+02  0.27314672437E+02  0.50528850428E+02  0.29999971360E+02 0.  0.
         12    1    1    2    0    0  0.22774270358E+02 -0.19708062392E+02 -0.27314672437E+02  0.40659149572E+02  0.00000000000E+00 0. -1.
         11    1    3    3    0    0 -0.11919417231E+02 -0.70047721655E+00  0.15837048997E+02  0.19833690948E+02  0.51100000000E-03 0. -1.
        -11    1    3    3    0    0 -0.15074321818E+02  0.16281789144E+02  0.69339901167E+01  0.23246764403E+02  0.51100000000E-03 0.  1.
         12    1    3    3    0    0  0.42194686909E+01  0.41267504648E+01  0.45436333235E+01  0.74483950762E+01  0.00000000000E+00 0. -1.
</event>
<event>
 7    1  0.5408841E-013  0.5052886E+02  0.7816164E-02  0.1300439E+00
        -11   -1    0    0    0    0  0.00000000000E+00  0.00000000000E+00  0.45593999997E+02  0.45594000000E+02  0.51100000000E-03 0.  1.
         11   -1    0    0    0    0 -0.00000000000E+00 -0.00000000000E+00 -0.45593999997E+02  0.45594000000E+02  0.51100000000E-03 0. -1.
    9900012    2    1    2    0    0 -0.14755134368E+02  0.13955901596E+02  0.35223355258E+02  0.50528856684E+02  0.29999990376E+02 0.  0.
         12    1    1    2    0    0  0.14755134368E+02 -0.13955901596E+02 -0.35223355258E+02  0.40659143316E+02  0.00000000000E+00 0. -1.
         11    1    3    3    0    0 -0.24967004026E+01 -0.72945462157E+00 -0.27062040741E+01  0.37535526767E+01  0.51100000000E-03 0. -1.
        -11    1    3    3    0    0 -0.29622064521E+01 -0.29300296693E+01  0.27284826482E+00  0.41754266087E+01  0.51100000000E-03 0.  1.
        -12    1    3    3    0    0 -0.92962275130E+01  0.17615385887E+02  0.37656711068E+02  0.42599877398E+02  0.00000000000E+00 0.  1.
</event>
<event>
 7    1  0.5408841E-013  0.5052886E+02  0.7816164E-02  0.1300439E+00
        -11   -1    0    0    0    0  0.00000000000E+00  0.00000000000E+00  0.45593999997E+02  0.45594000000E+02  0.51100000000E-03 0.  1.
         11   -1    0    0    0    0 -0.00000000000E+00 -0.00000000000E+00 -0.45593999997E+02  0.45594000000E+02  0.51100000000E-03 0. -1.
    9900012    2    1    2    0    0 -0.34938092843E+02  0.20667714195E+02 -0.23110188165E+01  0.50528861427E+02  0.30000004793E+02 0.  0.
         12    1    1    2    0    0  0.34938092843E+02 -0.20667714195E+02  0.23110188165E+01  0.40659138573E+02  0.00000000000E+00 0. -1.
         11    1    3    3    0    0 -0.16190292954E+01 -0.22057664772E+01  0.42439519303E+01  0.50495336279E+01  0.51100000000E-03 0. -1.
        -11    1    3    3    0    0 -0.12355826828E+02  0.24343682765E+01  0.55948411434E+01  0.13780234149E+02  0.51100000000E-03 0.  1.
        -12    1    3    3    0    0 -0.20963236719E+02  0.20439112396E+02 -0.12149811890E+02  0.31699093650E+02  0.00000000000E+00 0.  1.
</event>
<event>
 7    1  0.5408841E-013  0.5052886E+02  0.7816164E-02  0.1300439E+00
        -11   -1    0    0    0    0  0.00000000000E+00  0.00000000000E+00  0.45593999997E+02  0.45594000000E+02  0.51100000000E-03 0.  1.
         11   -1    0    0    0    0 -0.00000000000E+00 -0.00000000000E+00 -0.45593999997E+02  0.45594000000E+02  0.51100000000E-03 0. -1.
    9900012    2    1    2    0    0  0.36146532103E+02  0.69842744360E+01  0.17257277816E+02  0.50528861912E+02  0.30000006267E+02 0.  0.
         12    1    1    2    0    0 -0.36146532103E+02 -0.69842744360E+01 -0.17257277816E+02  0.40659138088E+02  0.00000000000E+00 0. -1.
         11    1    3    3    0    0  0.54146619185E+01 -0.73892079825E-01 -0.97426457173E+00  0.55021100905E+01  0.51100000000E-03 0. -1.
        -11    1    3    3    0    0  0.27404081672E+02 -0.56921936445E+01  0.12692260310E+02  0.30732364582E+02  0.51100000000E-03 0.  1.
         12    1    3    3    0    0  0.33277885117E+01  0.12750360160E+02  0.55392820784E+01  0.14294387239E+02  0.00000000000E+00 0. -1.
</event>
<event>
 7    1  0.5408841E-013  0.5052887E+02  0.7816164E-02  0.1300439E+00
        -11   -1    0    0    0    0  0.00000000000E+00  0.00000000000E+00  0.45593999997E+02  0.45594000000E+02  0.51100000000E-03 0.  1.
         11   -1    0    0    0    0 -0.00000000000E+00 -0.00000000000E+00 -0.45593999997E+02  0.45594000000E+02  0.51100000000E-03 0. -1.
    9900012    2    1    2    0    0  0.48503085519E+01 -0.38048608251E+02  0.13488624382E+02  0.50528867316E+02  0.30000022693E+02 0.  0.
         12    1    1    2    0    0 -0.48503085519E+01  0.38048608251E+02 -0.13488624382E+02  0.40659132684E+02  0.00000000000E+00 0. -1.
         11    1    3    3    0    0 -0.29751963681E+01 -0.52275930523E+01  0.22200850006E+01  0.64115754866E+01  0.51100000000E-03 0. -1.
        -11    1    3    3    0    0 -0.94169067150E+01 -0.10718194452E+02  0.11475861493E+01  0.14313447475E+02  0.51100000000E-03 0.  1.
        -12    1    3    3    0    0  0.17242411635E+02 -0.22102820747E+02  0.10120953232E+02  0.29803844354E+02  0.00000000000E+00 0.  1.
</event>
<event>
 7    1  0.5408841E-013  0.5052886E+02  0.7816164E-02  0.1300439E+00
        -11   -1    0    0    0    0  0.00000000000E+00  0.00000000000E+00  0.45593999997E+02  0.45594000000E+02  0.51100000000E-03 0.  1.
         11   -1    0    0    0    0 -0.00000000000E+00 -0.00000000000E+00 -0.45593999997E+02  0.45594000000E+02  0.51100000000E-03 0. -1.
    9900012    2    1    2    0    0 -0.36215844246E+02  0.56418192405E+01  0.17599669835E+02  0.50528857398E+02  0.29999992548E+02 0.  0.
         12    1    1    2    0    0  0.36215844246E+02 -0.56418192405E+01 -0.17599669835E+02  0.40659142602E+02  0.00000000000E+00 0. -1.
         11    1    3    3    0    0 -0.84577810928E+00 -0.25951776670E+01  0.10658479534E+02  0.11002430367E+02  0.51100000000E-03 0. -1.
        -11    1    3    3    0    0 -0.11067317676E+02 -0.30623720415E+01 -0.11240746107E+01  0.11538075535E+02  0.51100000000E-03 0.  1.
        -12    1    3    3    0    0 -0.24302748462E+02  0.11299368949E+02  0.80652649110E+01  0.27988351497E+02  0.00000000000E+00 0.  1.
</event>
<event>
 7    1  0.5408841E-013  0.5052886E+02  0.7816164E-02  0.1300439E+00
        -11   -1    0    0    0    0  0.00000000000E+00  0.00000000000E+00  0.45593999997E+02  0.45594000000E+02  0.51100000000E-03 0.  1.
         11   -1    0    0    0    0 -0.00000000000E+00 -0.00000000000E+00 -0.45593999997E+02  0.45594000000E+02  0.51100000000E-03 0. -1.
    9900012    2    1    2    0    0  0.23898513807E+02 -0.37078644709E+01  0.32684525013E+02  0.50528863309E+02  0.30000010515E+02 0.  0.
         12    1    1    2    0    0 -0.23898513807E+02  0.37078644709E+01 -0.32684525013E+02  0.40659136691E+02  0.00000000000E+00 0. -1.
         11    1    3    3    0    0 -0.36403000510E+01  0.98724793739E-01  0.27712451057E+01  0.45761698770E+01  0.51100000000E-03 0. -1.
        -11    1    3    3    0    0 -0.80330680871E+00  0.20455405931E+00  0.12332441613E+02  0.12360269439E+02  0.51100000000E-03 0.  1.
        -12    1    3    3    0    0  0.28342120666E+02 -0.40111433239E+01  0.17580838294E+02  0.33592423993E+02  0.00000000000E+00 0.  1.
</event>
<event>
 7    1  0.5408841E-013  0.5052890E+02  0.7816164E-02  0.1300439E+00
        -11   -1    0    0    0    0  0.00000000000E+00  0.00000000000E+00  0.45593999997E+02  0.45594000000E+02  0.51100000000E-03 0.  1.
         11   -1    0    0    0    0 -0.00000000000E+00 -0.00000000000E+00 -0.45593999997E+02  0.45594000000E+02  0.51100000000E-03 0. -1.
    9900012    2    1    2    0    0  0.69851557231E+01 -0.21766217240E+02  0.33624427843E+02  0.50528895716E+02  0.30000109018E+02 0.  0.
         12    1    1    2    0    0 -0.69851557231E+01  0.21766217240E+02 -0.33624427843E+02  0.40659104284E+02  0.00000000000E+00 0. -1.
         11    1    3    3    0    0 -0.11357984425E+01 -0.10982837326E+02  0.98153379076E-01  0.11041847137E+02  0.51100000000E-03 0. -1.
        -11    1    3    3    0    0  0.29460162154E+01 -0.14283197840E+02  0.24433172945E+02  0.28454677866E+02  0.51100000000E-03 0.  1.
         12    1    3    3    0    0  0.51749379502E+01  0.34998179263E+01  0.90931015194E+01  0.11032370713E+02  0.00000000000E+00 0. -1.
</event>
<event>
 7    1  0.5408841E-013  0.5052885E+02  0.7816164E-02  0.1300439E+00
        -11   -1    0    0    0    0  0.00000000000E+00  0.00000000000E+00  0.45593999997E+02  0.45594000000E+02  0.51100000000E-03 0.  1.
         11   -1    0    0    0    0 -0.00000000000E+00 -0.00000000000E+00 -0.45593999997E+02  0.45594000000E+02  0.51100000000E-03 0. -1.
    9900012    2    1    2    0    0 -0.38242323403E+02  0.93732609597E+01  0.10140651047E+02  0.50528854363E+02  0.29999983322E+02 0.  0.
         12    1    1    2    0    0  0.38242323403E+02 -0.93732609597E+01 -0.10140651047E+02  0.40659145637E+02  0.00000000000E+00 0. -1.
         11    1    3    3    0    0 -0.26443064948E+01  0.73745864656E+01  0.69114643339E+00  0.78647673856E+01  0.51100000000E-03 0. -1.
        -11    1    3    3    0    0 -0.66163734362E+01  0.92287746105E+01  0.68317095635E-01  0.11355674605E+02  0.51100000000E-03 0.  1.
         12    1    3    3    0    0 -0.28981643472E+02 -0.72301001163E+01  0.93811875176E+01  0.31308412372E+02  0.00000000000E+00 0. -1.
</event>
<event>
 7    1  0.5408841E-013  0.5052871E+02  0.7816164E-02  0.1300439E+00
        -11   -1    0    0    0    0  0.00000000000E+00  0.00000000000E+00  0.45593999997E+02  0.45594000000E+02  0.51100000000E-03 0. -1.
         11   -1    0    0    0    0 -0.00000000000E+00 -0.00000000000E+00 -0.45593999997E+02  0.45594000000E+02  0.51100000000E-03 0.  1.
    9900012    2    1    2    0    0  0.21612354378E+02 -0.32422097381E+02  0.11614272370E+02  0.50528713447E+02  0.29999554989E+02 0.  0.
         12    1    1    2    0    0 -0.21612354378E+02  0.32422097381E+02 -0.11614272370E+02  0.40659286553E+02  0.00000000000E+00 0. -1.
         11    1    3    3    0    0  0.12545301333E+00 -0.12137436949E+02  0.33527498297E+01  0.12592618704E+02  0.51100000000E-03 0. -1.
        -11    1    3    3    0    0  0.31129120427E+01 -0.12817622066E+02 -0.49686498423E+01  0.14095004020E+02  0.51100000000E-03 0.  1.
        -12    1    3    3    0    0  0.18373989322E+02 -0.74670383668E+01  0.13230172383E+02  0.23841090723E+02  0.00000000000E+00 0.  1.
</event>
<event>
 7    1  0.5408841E-013  0.5052885E+02  0.7816164E-02  0.1300439E+00
        -11   -1    0    0    0    0  0.00000000000E+00  0.00000000000E+00  0.45593999997E+02  0.45594000000E+02  0.51100000000E-03 0.  1.
         11   -1    0    0    0    0 -0.00000000000E+00 -0.00000000000E+00 -0.45593999997E+02  0.45594000000E+02  0.51100000000E-03 0. -1.
    9900012    2    1    2    0    0 -0.45374195216E+01  0.23192324515E+02  0.33086170444E+02  0.50528846455E+02  0.29999959286E+02 0.  0.
         12    1    1    2    0    0  0.45374195216E+01 -0.23192324515E+02 -0.33086170444E+02  0.40659153545E+02  0.00000000000E+00 0. -1.
         11    1    3    3    0    0  0.36257707669E+01  0.80648172645E+01  0.58799649104E+01  0.10618920791E+02  0.51100000000E-03 0. -1.
        -11    1    3    3    0    0  0.57769434409E+01  0.10140480900E+02  0.20646106142E+02  0.23716326180E+02  0.51100000000E-03 0.  1.
         12    1    3    3    0    0 -0.13940133729E+02  0.49870263510E+01  0.65600993909E+01  0.16193599484E+02  0.00000000000E+00 0. -1.
</event>
<event>
 7    1  0.5408841E-013  0.5052886E+02  0.7816164E-02  0.1300439E+00
        -11   -1    0    0    0    0  0.00000000000E+00  0.00000000000E+00  0.45593999997E+02  0.45594000000E+02  0.51100000000E-03 0. -1.
         11   -1    0    0    0    0 -0.00000000000E+00 -0.00000000000E+00 -0.45593999997E+02  0.45594000000E+02  0.51100000000E-03 0.  1.
    9900012    2    1    2    0    0 -0.18729329409E+02 -0.25160550531E+02 -0.25871301419E+02  0.50528864247E+02  0.30000013364E+02 0.  0.
         12    1    1    2    0    0  0.18729329409E+02  0.25160550531E+02  0.25871301419E+02  0.40659135753E+02  0.00000000000E+00 0. -1.
         11    1    3    3    0    0 -0.16590451668E+00  0.15690119507E+01 -0.75968163477E+01  0.77589265812E+01  0.51100000000E-03 0. -1.
        -11    1    3    3    0    0  0.42148689447E+01 -0.42524178489E+01 -0.14268657545E+00  0.59890347722E+01  0.51100000000E-03 0.  1.
        -12    1    3    3    0    0 -0.22778293837E+02 -0.22477144633E+02 -0.18131798496E+02  0.36780902893E+02  0.00000000000E+00 0.  1.
</event>
<event>
 7    1  0.5408841E-013  0.5052884E+02  0.7816164E-02  0.1300439E+00
        -11   -1    0    0    0    0  0.00000000000E+00  0.00000000000E+00  0.45593999997E+02  0.45594000000E+02  0.51100000000E-03 0.  1.
         11   -1    0    0    0    0 -0.00000000000E+00 -0.00000000000E+00 -0.45593999997E+02  0.45594000000E+02  0.51100000000E-03 0. -1.
    9900012    2    1    2    0    0  0.12122164362E+02  0.37298009964E+02  0.10727478852E+02  0.50528840902E+02  0.29999942405E+02 0.  0.
         12    1    1    2    0    0 -0.12122164362E+02 -0.37298009964E+02 -0.10727478852E+02  0.40659159098E+02  0.00000000000E+00 0. -1.
         11    1    3    3    0    0  0.30695125345E+01 -0.14692805914E+01  0.48019435738E+01  0.58855207928E+01  0.51100000000E-03 0. -1.
        -11    1    3    3    0    0 -0.65426950859E+00  0.17591380699E+01  0.61007382183E+01  0.63829180167E+01  0.51100000000E-03 0.  1.
        -12    1    3    3    0    0  0.97069213362E+01  0.37008152485E+02 -0.17520293981E+00  0.38260402092E+02  0.00000000000E+00 0.  1.
</event>
<event>
 7    1  0.5408841E-013  0.5052886E+02  0.7816164E-02  0.1300439E+00
        -11   -1    0    0    0    0  0.00000000000E+00  0.00000000000E+00  0.45593999997E+02  0.45594000000E+02  0.51100000000E-03 0.  1.
         11   -1    0    0    0    0 -0.00000000000E+00 -0.00000000000E+00 -0.45593999997E+02  0.45594000000E+02  0.51100000000E-03 0. -1.
    9900012    2    1    2    0    0 -0.99880535253E+01  0.32734803108E+02  0.21950797037E+02  0.50528855416E+02  0.29999986523E+02 0.  0.
         12    1    1    2    0    0  0.99880535253E+01 -0.32734803108E+02 -0.21950797037E+02  0.40659144584E+02  0.00000000000E+00 0. -1.
         11    1    3    3    0    0 -0.91028066009E+00  0.76103772855E+01  0.56193403394E+01  0.95038644466E+01  0.51100000000E-03 0. -1.
        -11    1    3    3    0    0 -0.16944668468E+02  0.24299577849E+02  0.14085297232E+02  0.32802238818E+02  0.51100000000E-03 0.  1.
         12    1    3    3    0    0  0.78668956024E+01  0.82484797382E+00  0.22461594653E+01  0.82227521514E+01  0.00000000000E+00 0. -1.
</event>
<event>
 7    1  0.5408841E-013  0.5052887E+02  0.7816164E-02  0.1300439E+00
        -11   -1    0    0    0    0  0.00000000000E+00  0.00000000000E+00  0.45593999997E+02  0.45594000000E+02  0.51100000000E-03 0.  1.
         11   -1    0    0    0    0 -0.00000000000E+00 -0.00000000000E+00 -0.45593999997E+02  0.45594000000E+02  0.51100000000E-03 0. -1.
    9900012    2    1    2    0    0 -0.36994885004E+02 -0.10199202760E+02  0.13435753830E+02  0.50528871451E+02  0.30000035262E+02 0.  0.
         12    1    1    2    0    0  0.36994885004E+02  0.10199202760E+02 -0.13435753830E+02  0.40659128549E+02  0.00000000000E+00 0. -1.
         11    1    3    3    0    0 -0.21985807045E+02  0.32958910203E+01  0.10144386818E+02  0.24436595369E+02  0.51100000000E-03 0.  1.
        -11    1    3    3    0    0 -0.77569002687E+01 -0.30169161315E+01 -0.60521557729E+01  0.10290766467E+02  0.51100000000E-03 0. -1.
         12    1    3    3    0    0 -0.72521776904E+01 -0.10478177648E+02  0.93435227846E+01  0.15801509615E+02  0.00000000000E+00 0. -1.
</event>
<event>
 7    1  0.5408841E-013  0.5052886E+02  0.7816164E-02  0.1300439E+00
        -11   -1    0    0    0    0  0.00000000000E+00  0.00000000000E+00  0.45593999997E+02  0.45594000000E+02  0.51100000000E-03 0.  1.
         11   -1    0    0    0    0 -0.00000000000E+00 -0.00000000000E+00 -0.45593999997E+02  0.45594000000E+02  0.51100000000E-03 0. -1.
    9900012    2    1    2    0    0  0.75829075789E+01 -0.12797465380E+02  0.37840318939E+02  0.50528863943E+02  0.30000012442E+02 0.  0.
         12    1    1    2    0    0 -0.75829075789E+01  0.12797465380E+02 -0.37840318939E+02  0.40659136057E+02  0.00000000000E+00 0. -1.
         11    1    3    3    0    0  0.75223625515E+01 -0.52526771963E+01  0.11754314238E+02  0.14911085123E+02  0.51100000000E-03 0. -1.
        -11    1    3    3    0    0 -0.44246901317E+01 -0.79689063560E+01  0.28901754934E+02  0.30304996119E+02  0.51100000000E-03 0.  1.
         12    1    3    3    0    0  0.44852351590E+01  0.42411817248E+00 -0.28157502329E+01  0.53127827012E+01  0.00000000000E+00 0. -1.
</event>
<event>
 7    1  0.5408841E-013  0.5052885E+02  0.7816164E-02  0.1300439E+00
        -11   -1    0    0    0    0  0.00000000000E+00  0.00000000000E+00  0.45593999997E+02  0.45594000000E+02  0.51100000000E-03 0.  1.
         11   -1    0    0    0    0 -0.00000000000E+00 -0.00000000000E+00 -0.45593999997E+02  0.45594000000E+02  0.51100000000E-03 0. -1.
    9900012    2    1    2    0    0  0.30965921979E+02 -0.23512529818E+02  0.11892820914E+02  0.50528848856E+02  0.29999966583E+02 0.  0.
         12    1    1    2    0    0 -0.30965921979E+02  0.23512529818E+02 -0.11892820914E+02  0.40659151144E+02  0.00000000000E+00 0. -1.
         11    1    3    3    0    0  0.30521896636E+00 -0.64812326337E+01 -0.68305281400E+01  0.94210217069E+01  0.51100000000E-03 0. -1.
        -11    1    3    3    0    0  0.12945860890E+02 -0.13154764685E+02  0.98085957240E+01  0.20900997546E+02  0.51100000000E-03 0.  1.
        -12    1    3    3    0    0  0.17714842123E+02 -0.38765324993E+01  0.89147533300E+01  0.20206829603E+02  0.00000000000E+00 0.  1.
</event>
<event>
 7    1  0.5408841E-013  0.5052892E+02  0.7816164E-02  0.1300439E+00
        -11   -1    0    0    0    0  0.00000000000E+00  0.00000000000E+00  0.45593999997E+02  0.45594000000E+02  0.51100000000E-03 0.  1.
         11   -1    0    0    0    0 -0.00000000000E+00 -0.00000000000E+00 -0.45593999997E+02  0.45594000000E+02  0.51100000000E-03 0. -1.
    9900012    2    1    2    0    0 -0.25973676789E+01  0.38702608668E+02  0.12186992179E+02  0.50528917190E+02  0.30000174292E+02 0.  0.
         12    1    1    2    0    0  0.25973676789E+01 -0.38702608668E+02 -0.12186992179E+02  0.40659082810E+02  0.00000000000E+00 0. -1.
         11    1    3    3    0    0 -0.44728049181E+01  0.16092054943E+02 -0.71039689019E+01  0.18150112687E+02  0.51100000000E-03 0. -1.
        -11    1    3    3    0    0  0.40675070176E+01  0.11395222982E+02  0.29763940932E+01  0.12460122078E+02  0.51100000000E-03 0.  1.
        -12    1    3    3    0    0 -0.21920697784E+01  0.11215330743E+02  0.16314566987E+02  0.19918682425E+02  0.00000000000E+00 0.  1.
</event>
<event>
 7    1  0.5408841E-013  0.5052887E+02  0.7816164E-02  0.1300439E+00
        -11   -1    0    0    0    0  0.00000000000E+00  0.00000000000E+00  0.45593999997E+02  0.45594000000E+02  0.51100000000E-03 0. -1.
         11   -1    0    0    0    0 -0.00000000000E+00 -0.00000000000E+00 -0.45593999997E+02  0.45594000000E+02  0.51100000000E-03 0.  1.
    9900012    2    1    2    0    0  0.27853667504E+02 -0.18289593760E+02  0.23298695220E+02  0.50528865328E+02  0.30000016651E+02 0.  0.
         12    1    1    2    0    0 -0.27853667504E+02  0.18289593760E+02 -0.23298695220E+02  0.40659134672E+02  0.00000000000E+00 0. -1.
         11    1    3    3    0    0  0.83440518487E+01 -0.12117460902E+01  0.88061986268E+01  0.12191827769E+02  0.51100000000E-03 0. -1.
        -11    1    3    3    0    0  0.13464688967E+02  0.33984259751E+01  0.79773809353E+01  0.16015172648E+02  0.51100000000E-03 0.  1.
        -12    1    3    3    0    0  0.60449266877E+01 -0.20476273645E+02  0.65151156582E+01  0.22321864911E+02  0.00000000000E+00 0.  1.
</event>
<event>
 7    1  0.5408841E-013  0.5052886E+02  0.7816164E-02  0.1300439E+00
        -11   -1    0    0    0    0  0.00000000000E+00  0.00000000000E+00  0.45593999997E+02  0.45594000000E+02  0.51100000000E-03 0. -1.
         11   -1    0    0    0    0 -0.00000000000E+00 -0.00000000000E+00 -0.45593999997E+02  0.45594000000E+02  0.51100000000E-03 0.  1.
    9900012    2    1    2    0    0 -0.29301420819E+02  0.12499043334E+02 -0.25265904649E+02  0.50528864692E+02  0.30000014718E+02 0.  0.
         12    1    1    2    0    0  0.29301420819E+02 -0.12499043334E+02  0.25265904649E+02  0.40659135308E+02  0.00000000000E+00 0. -1.
         11    1    3    3    0    0 -0.15522807258E+02 -0.59155420955E+00 -0.46306576614E+01  0.16209579643E+02  0.51100000000E-03 0. -1.
        -11    1    3    3    0    0  0.20362301447E+01 -0.35884180357E+01 -0.14290260284E+01  0.43663592216E+01  0.51100000000E-03 0.  1.
         12    1    3    3    0    0 -0.15814843705E+02  0.16679015580E+02 -0.19206220959E+02  0.29952925828E+02  0.00000000000E+00 0. -1.
</event>
<event>
 7    1  0.5408841E-013  0.5052885E+02  0.7816164E-02  0.1300439E+00
        -11   -1    0    0    0    0  0.00000000000E+00  0.00000000000E+00  0.45593999997E+02  0.45594000000E+02  0.51100000000E-03 0.  1.
         11   -1    0    0    0    0 -0.00000000000E+00 -0.00000000000E+00 -0.45593999997E+02  0.45594000000E+02  0.51100000000E-03 0. -1.
    9900012    2    1    2    0    0  0.18558798894E+01 -0.36008030598E+01  0.40456842730E+02  0.50528853470E+02  0.29999980609E+02 0.  0.
         12    1    1    2    0    0 -0.18558798894E+01  0.36008030598E+01 -0.40456842730E+02  0.40659146530E+02  0.00000000000E+00 0. -1.
         11    1    3    3    0    0  0.35710055524E+01 -0.60482205853E+01  0.12244209454E+02  0.14115725923E+02  0.51100000000E-03 0. -1.
        -11    1    3    3    0    0  0.10229942816E+02 -0.10951187021E+01  0.10007551170E+02  0.14352773100E+02  0.51100000000E-03 0.  1.
        -12    1    3    3    0    0 -0.11945068479E+02  0.35425362277E+01  0.18205082106E+02  0.22060354448E+02  0.00000000000E+00 0.  1.
</event>
<event>
 7    1  0.5408841E-013  0.5052886E+02  0.7816164E-02  0.1300439E+00
        -11   -1    0    0    0    0  0.00000000000E+00  0.00000000000E+00  0.45593999997E+02  0.45594000000E+02  0.51100000000E-03 0.  1.
         11   -1    0    0    0    0 -0.00000000000E+00 -0.00000000000E+00 -0.45593999997E+02  0.45594000000E+02  0.51100000000E-03 0. -1.
    9900012    2    1    2    0    0 -0.29337015693E+02  0.13173418073E+02  0.24879030449E+02  0.50528860934E+02  0.30000003296E+02 0.  0.
         12    1    1    2    0    0  0.29337015693E+02 -0.13173418073E+02 -0.24879030449E+02  0.40659139066E+02  0.00000000000E+00 0. -1.
         11    1    3    3    0    0 -0.84896166070E+01  0.20078512009E+01 -0.56588346523E+00  0.87421553942E+01  0.51100000000E-03 0. -1.
        -11    1    3    3    0    0 -0.58544448660E+01  0.50730282348E+01 -0.35962679423E+01  0.85406840202E+01  0.51100000000E-03 0.  1.
        -12    1    3    3    0    0 -0.14992954220E+02  0.60925386374E+01  0.29041181857E+02  0.33246021520E+02  0.00000000000E+00 0.  1.
</event>
<event>
 7    1  0.5408841E-013  0.5052889E+02  0.7816164E-02  0.1300439E+00
        -11   -1    0    0    0    0  0.00000000000E+00  0.00000000000E+00  0.45593999997E+02  0.45594000000E+02  0.51100000000E-03 0. -1.
         11   -1    0    0    0    0 -0.00000000000E+00 -0.00000000000E+00 -0.45593999997E+02  0.45594000000E+02  0.51100000000E-03 0.  1.
    9900012    2    1    2    0    0 -0.34384568089E+02 -0.18990641600E+02  0.10498584683E+02  0.50528889442E+02  0.30000089947E+02 0.  0.
         12    1    1    2    0    0  0.34384568089E+02  0.18990641600E+02 -0.10498584683E+02  0.40659110558E+02  0.00000000000E+00 0. -1.
         11    1    3    3    0    0 -0.71108382141E+01 -0.10207066731E+02  0.98612930026E+01  0.15874297821E+02  0.51100000000E-03 0. -1.
        -11    1    3    3    0    0 -0.62625527942E+01 -0.11861212572E+02  0.32511820393E+00  0.13416915938E+02  0.51100000000E-03 0.  1.
        -12    1    3    3    0    0 -0.21011177080E+02  0.30776377027E+01  0.31217347655E+00  0.21237675683E+02  0.00000000000E+00 0.  1.
</event>
<event>
 7    1  0.5408841E-013  0.5052887E+02  0.7816164E-02  0.1300439E+00
        -11   -1    0    0    0    0  0.00000000000E+00  0.00000000000E+00  0.45593999997E+02  0.45594000000E+02  0.51100000000E-03 0.  1.
         11   -1    0    0    0    0 -0.00000000000E+00 -0.00000000000E+00 -0.45593999997E+02  0.45594000000E+02  0.51100000000E-03 0. -1.
    9900012    2    1    2    0    0 -0.20614785088E+02  0.91671666949E+01  0.33825415822E+02  0.50528867386E+02  0.30000022906E+02 0.  0.
         12    1    1    2    0    0  0.20614785088E+02 -0.91671666949E+01 -0.33825415822E+02  0.40659132614E+02  0.00000000000E+00 0. -1.
         11    1    3    3    0    0 -0.20758999471E+01 -0.21557687178E+01  0.49666173251E+00  0.30337060656E+01  0.51100000000E-03 0. -1.
        -11    1    3    3    0    0 -0.22635839970E+02  0.14115858454E+02  0.33126880978E+02  0.42532681019E+02  0.51100000000E-03 0.  1.
         12    1    3    3    0    0  0.40969548296E+01 -0.27929230414E+01  0.20187311159E+00  0.49624803017E+01  0.00000000000E+00 0. -1.
</event>
<event>
 7    1  0.5408841E-013  0.5052886E+02  0.7816164E-02  0.1300439E+00
        -11   -1    0    0    0    0  0.00000000000E+00  0.00000000000E+00  0.45593999997E+02  0.45594000000E+02  0.51100000000E-03 0.  1.
         11   -1    0    0    0    0 -0.00000000000E+00 -0.00000000000E+00 -0.45593999997E+02  0.45594000000E+02  0.51100000000E-03 0. -1.
    9900012    2    1    2    0    0 -0.22699409285E+01 -0.13639359184E+02  0.38235854806E+02  0.50528863960E+02  0.30000012493E+02 0.  0.
         12    1    1    2    0    0  0.22699409285E+01  0.13639359184E+02 -0.38235854806E+02  0.40659136040E+02  0.00000000000E+00 0. -1.
         11    1    3    3    0    0  0.59839269891E+01 -0.14860408123E+01  0.15050666872E+01  0.63467255731E+01  0.51100000000E-03 0. -1.
        -11    1    3    3    0    0 -0.15962049611E+00 -0.98151453219E+01  0.43746941373E+01  0.10747116146E+02  0.51100000000E-03 0.  1.
         12    1    3    3    0    0 -0.80942474215E+01 -0.23381730496E+01  0.32356093982E+02  0.33435022241E+02  0.00000000000E+00 0. -1.
</event>
<event>
 7    1  0.5408841E-013  0.5052886E+02  0.7816164E-02  0.1300439E+00
        -11   -1    0    0    0    0  0.00000000000E+00  0.00000000000E+00  0.45593999997E+02  0.45594000000E+02  0.51100000000E-03 0. -1.
         11   -1    0    0    0    0 -0.00000000000E+00 -0.00000000000E+00 -0.45593999997E+02  0.45594000000E+02  0.51100000000E-03 0.  1.
    9900012    2    1    2    0    0  0.11004713347E+02  0.39080727223E+02  0.21815141972E+01  0.50528856375E+02  0.29999989438E+02 0.  0.
         12    1    1    2    0    0 -0.11004713347E+02 -0.39080727223E+02 -0.21815141972E+01  0.40659143625E+02  0.00000000000E+00 0. -1.
         11    1    3    3    0    0  0.10092756321E+02  0.62010637242E+01  0.17699516438E+01  0.11977046821E+02  0.51100000000E-03 0. -1.
        -11    1    3    3    0    0  0.68596483179E+01  0.68961579172E+01 -0.56042818421E+01  0.11225851607E+02  0.51100000000E-03 0.  1.
        -12    1    3    3    0    0 -0.59476912917E+01  0.25983505581E+02  0.60158443955E+01  0.27325957948E+02  0.00000000000E+00 0.  1.
</event>
<event>
 7    1  0.5408841E-013  0.5052885E+02  0.7816164E-02  0.1300439E+00
        -11   -1    0    0    0    0  0.00000000000E+00  0.00000000000E+00  0.45593999997E+02  0.45594000000E+02  0.51100000000E-03 0.  1.
         11   -1    0    0    0    0 -0.00000000000E+00 -0.00000000000E+00 -0.45593999997E+02  0.45594000000E+02  0.51100000000E-03 0. -1.
    9900012    2    1    2    0    0 -0.35359743700E+02  0.13518899008E+01  0.20025658857E+02  0.50528854737E+02  0.29999984460E+02 0.  0.
         12    1    1    2    0    0  0.35359743700E+02 -0.13518899008E+01 -0.20025658857E+02  0.40659145263E+02  0.00000000000E+00 0. -1.
         11    1    3    3    0    0 -0.21726133735E+02  0.14936153069E+01  0.20699343897E+02  0.30045276031E+02  0.51100000000E-03 0. -1.
        -11    1    3    3    0    0 -0.53872276020E+01 -0.35039810704E+01  0.64307427219E+01  0.90914551527E+01  0.51100000000E-03 0.  1.
         12    1    3    3    0    0 -0.82463823630E+01  0.33622556643E+01 -0.71044277623E+01  0.11392123554E+02  0.00000000000E+00 0. -1.
</event>
<event>
 7    1  0.5408841E-013  0.5052888E+02  0.7816164E-02  0.1300439E+00
        -11   -1    0    0    0    0  0.00000000000E+00  0.00000000000E+00  0.45593999997E+02  0.45594000000E+02  0.51100000000E-03 0. -1.
         11   -1    0    0    0    0 -0.00000000000E+00 -0.00000000000E+00 -0.45593999997E+02  0.45594000000E+02  0.51100000000E-03 0.  1.
    9900012    2    1    2    0    0  0.10918170856E+02 -0.29390419363E+02 -0.25887470350E+02  0.50528876469E+02  0.30000050515E+02 0.  0.
         12    1    1    2    0    0 -0.10918170856E+02  0.29390419363E+02  0.25887470350E+02  0.40659123531E+02  0.00000000000E+00 0. -1.
         11    1    3    3    0    0  0.18896719994E+01  0.14821131296E+01  0.21352480342E+01  0.32135345063E+01  0.51100000000E-03 0. -1.
        -11    1    3    3    0    0  0.76749900593E+01 -0.46450466176E+01 -0.84721407183E-01  0.89715722406E+01  0.51100000000E-03 0.  1.
        -12    1    3    3    0    0  0.13535087973E+01 -0.26227485875E+02 -0.27937996977E+02  0.38343769722E+02  0.00000000000E+00 0.  1.
</event>
<event>
 7    1  0.5408841E-013  0.5052887E+02  0.7816164E-02  0.1300439E+00
        -11   -1    0    0    0    0  0.00000000000E+00  0.00000000000E+00  0.45593999997E+02  0.45594000000E+02  0.51100000000E-03 0.  1.
         11   -1    0    0    0    0 -0.00000000000E+00 -0.00000000000E+00 -0.45593999997E+02  0.45594000000E+02  0.51100000000E-03 0. -1.
    9900012    2    1    2    0    0  0.27411515229E+02  0.21908392344E+02  0.20537665264E+02  0.50528874127E+02  0.30000043397E+02 0.  0.
         12    1    1    2    0    0 -0.27411515229E+02 -0.21908392344E+02 -0.20537665264E+02  0.40659125873E+02  0.00000000000E+00 0. -1.
         11    1    3    3    0    0  0.75060626306E+01  0.82169232146E+01  0.28563574515E+01  0.11489890403E+02  0.51100000000E-03 0. -1.
        -11    1    3    3    0    0  0.19923599420E+02  0.18906022222E+02  0.19311399745E+02  0.33575551380E+02  0.51100000000E-03 0.  1.
         12    1    3    3    0    0 -0.18146821681E-01 -0.52145530929E+01 -0.16300919319E+01  0.54634323436E+01  0.00000000000E+00 0. -1.
</event>
<event>
 7    1  0.5408841E-013  0.5052886E+02  0.7816164E-02  0.1300439E+00
        -11   -1    0    0    0    0  0.00000000000E+00  0.00000000000E+00  0.45593999997E+02  0.45594000000E+02  0.51100000000E-03 0. -1.
         11   -1    0    0    0    0 -0.00000000000E+00 -0.00000000000E+00 -0.45593999997E+02  0.45594000000E+02  0.51100000000E-03 0.  1.
    9900012    2    1    2    0    0  0.42361831540E+01  0.18625332247E+02 -0.35893139798E+02  0.50528859163E+02  0.29999997911E+02 0.  0.
         12    1    1    2    0    0 -0.42361831540E+01 -0.18625332247E+02  0.35893139798E+02  0.40659140837E+02  0.00000000000E+00 0. -1.
         11    1    3    3    0    0 -0.16790287589E+01  0.53394345045E+01  0.14880929240E+01  0.57916421862E+01  0.51100000000E-03 0. -1.
        -11    1    3    3    0    0  0.25913892899E+01  0.61473664109E+01 -0.14012191820E+00  0.66727090942E+01  0.51100000000E-03 0.  1.
         12    1    3    3    0    0  0.33238226230E+01  0.71385313317E+01 -0.37241110804E+02  0.38064507882E+02  0.00000000000E+00 0. -1.
</event>
<event>
 7    1  0.5408841E-013  0.5052885E+02  0.7816164E-02  0.1300439E+00
        -11   -1    0    0    0    0  0.00000000000E+00  0.00000000000E+00  0.45593999997E+02  0.45594000000E+02  0.51100000000E-03 0.  1.
         11   -1    0    0    0    0 -0.00000000000E+00 -0.00000000000E+00 -0.45593999997E+02  0.45594000000E+02  0.51100000000E-03 0. -1.
    9900012    2    1    2    0    0 -0.32593029907E+01  0.17364075908E+02  0.36620104774E+02  0.50528852668E+02  0.29999978170E+02 0.  0.
         12    1    1    2    0    0  0.32593029907E+01 -0.17364075908E+02 -0.36620104774E+02  0.40659147332E+02  0.00000000000E+00 0. -1.
         11    1    3    3    0    0 -0.18893456725E+01  0.57411140900E+01  0.23156929074E+02  0.23932684397E+02  0.51100000000E-03 0. -1.
        -11    1    3    3    0    0 -0.10312062832E+02  0.59581889926E+01  0.97059618824E+01  0.15363734970E+02  0.51100000000E-03 0.  1.
         12    1    3    3    0    0  0.89421055135E+01  0.56647728257E+01  0.37572138175E+01  0.11232433301E+02  0.00000000000E+00 0. -1.
</event>
<event>
 7    1  0.5408841E-013  0.5052886E+02  0.7816164E-02  0.1300439E+00
        -11   -1    0    0    0    0  0.00000000000E+00  0.00000000000E+00  0.45593999997E+02  0.45594000000E+02  0.51100000000E-03 0.  1.
         11   -1    0    0    0    0 -0.00000000000E+00 -0.00000000000E+00 -0.45593999997E+02  0.45594000000E+02  0.51100000000E-03 0. -1.
    9900012    2    1    2    0    0 -0.11633323289E+02 -0.69989461155E+00  0.38953072964E+02  0.50528856421E+02  0.29999989577E+02 0.  0.
         12    1    1    2    0    0  0.11633323289E+02  0.69989461155E+00 -0.38953072964E+02  0.40659143579E+02  0.00000000000E+00 0. -1.
         11    1    3    3    0    0 -0.33101294629E+01 -0.44382734443E+01  0.10108315902E+01  0.56282332035E+01  0.51100000000E-03 0. -1.
        -11    1    3    3    0    0 -0.18393281630E+00 -0.69872350521E+01  0.32914702131E+01  0.77258696195E+01  0.51100000000E-03 0.  1.
        -12    1    3    3    0    0 -0.81392610100E+01  0.10725613885E+02  0.34650771161E+02  0.37174753598E+02  0.00000000000E+00 0.  1.
</event>
<event>
 7    1  0.5408841E-013  0.5052886E+02  0.7816164E-02  0.1300439E+00
        -11   -1    0    0    0    0  0.00000000000E+00  0.00000000000E+00  0.45593999997E+02  0.45594000000E+02  0.51100000000E-03 0.  1.
         11   -1    0    0    0    0 -0.00000000000E+00 -0.00000000000E+00 -0.45593999997E+02  0.45594000000E+02  0.51100000000E-03 0. -1.
    9900012    2    1    2    0    0  0.14809031340E+02  0.81016421785E+00  0.37857650981E+02  0.50528861874E+02  0.30000006153E+02 0.  0.
         12    1    1    2    0    0 -0.14809031340E+02 -0.81016421785E+00 -0.37857650981E+02  0.40659138126E+02  0.00000000000E+00 0. -1.
         11    1    3    3    0    0  0.90035128600E+01 -0.45511784222E+01 -0.18946386637E+00  0.10090211379E+02  0.51100000000E-03 0. -1.
        -11    1    3    3    0    0 -0.40116259417E+00 -0.20637937123E+01  0.13774734165E+01  0.25134854661E+01  0.51100000000E-03 0.  1.
        -12    1    3    3    0    0  0.62066810741E+01  0.74251363524E+01  0.36669641431E+02  0.37925165029E+02  0.00000000000E+00 0.  1.
</event>
<event>
 7    1  0.5408841E-013  0.5052895E+02  0.7816164E-02  0.1300438E+00
        -11   -1    0    0    0    0  0.00000000000E+00  0.00000000000E+00  0.45593999997E+02  0.45594000000E+02  0.51100000000E-03 0.  1.
         11   -1    0    0    0    0 -0.00000000000E+00 -0.00000000000E+00 -0.45593999997E+02  0.45594000000E+02  0.51100000000E-03 0. -1.
    9900012    2    1    2    0    0  0.71551198877E+01  0.29901815958E+02  0.26605344185E+02  0.50528945936E+02  0.30000261665E+02 0.  0.
         12    1    1    2    0    0 -0.71551198877E+01 -0.29901815958E+02 -0.26605344185E+02  0.40659054064E+02  0.00000000000E+00 0. -1.
         11    1    3    3    0    0 -0.71510019334E+01  0.21081347732E+02  0.12408596330E+02  0.25485943459E+02  0.51100000000E-03 0. -1.
        -11    1    3    3    0    0  0.12421479624E+02  0.11575744424E+02  0.10090975812E+02  0.19751425471E+02  0.51100000000E-03 0.  1.
        -12    1    3    3    0    0  0.18846421971E+01 -0.27552761981E+01  0.41057720430E+01  0.52915770058E+01  0.00000000000E+00 0.  1.
</event>
<event>
 7    1  0.5408841E-013  0.5052889E+02  0.7816164E-02  0.1300439E+00
        -11   -1    0    0    0    0  0.00000000000E+00  0.00000000000E+00  0.45593999997E+02  0.45594000000E+02  0.51100000000E-03 0. -1.
         11   -1    0    0    0    0 -0.00000000000E+00 -0.00000000000E+00 -0.45593999997E+02  0.45594000000E+02  0.51100000000E-03 0.  1.
    9900012    2    1    2    0    0  0.12874417933E+02  0.38061952853E+02  0.62209363522E+01  0.50528893502E+02  0.30000102289E+02 0.  0.
         12    1    1    2    0    0 -0.12874417933E+02 -0.38061952853E+02 -0.62209363522E+01  0.40659106498E+02  0.00000000000E+00 0. -1.
         11    1    3    3    0    0 -0.15310946545E+01 -0.27525167532E+01 -0.33590101323E+01  0.46047311157E+01  0.51100000000E-03 0. -1.
        -11    1    3    3    0    0  0.52955494527E+00  0.12886847765E+02 -0.11405628874E+01  0.12948056137E+02  0.51100000000E-03 0.  1.
        -12    1    3    3    0    0  0.13875957643E+02  0.27927621841E+02  0.10720509372E+02  0.32976106250E+02  0.00000000000E+00 0.  1.
</event>
<event>
 7    1  0.5408841E-013  0.5052886E+02  0.7816164E-02  0.1300439E+00
        -11   -1    0    0    0    0  0.00000000000E+00  0.00000000000E+00  0.45593999997E+02  0.45594000000E+02  0.51100000000E-03 0. -1.
         11   -1    0    0    0    0 -0.00000000000E+00 -0.00000000000E+00 -0.45593999997E+02  0.45594000000E+02  0.51100000000E-03 0.  1.
    9900012    2    1    2    0    0  0.29421358092E+00 -0.28360751643E+02 -0.29133256753E+02  0.50528862719E+02  0.30000008721E+02 0.  0.
         12    1    1    2    0    0 -0.29421358092E+00  0.28360751643E+02  0.29133256753E+02  0.40659137281E+02  0.00000000000E+00 0. -1.
         11    1    3    3    0    0  0.65914461485E+00 -0.93015824292E+01 -0.17122217036E+02  0.19496774703E+02  0.51100000000E-03 0. -1.
        -11    1    3    3    0    0  0.58689901176E+01 -0.12762866545E+02 -0.16020259256E+02  0.21306912360E+02  0.51100000000E-03 0.  1.
         12    1    3    3    0    0 -0.62339211515E+01 -0.62963026689E+01  0.40092195391E+01  0.97251756557E+01  0.00000000000E+00 0. -1.
</event>
<event>
 7    1  0.5408841E-013  0.5052885E+02  0.7816164E-02  0.1300439E+00
        -11   -1    0    0    0    0  0.00000000000E+00  0.00000000000E+00  0.45593999997E+02  0.45594000000E+02  0.51100000000E-03 0.  1.
         11   -1    0    0    0    0 -0.00000000000E+00 -0.00000000000E+00 -0.45593999997E+02  0.45594000000E+02  0.51100000000E-03 0. -1.
    9900012    2    1    2    0    0 -0.15359708736E+02  0.16832992292E+02  0.33673375855E+02  0.50528849450E+02  0.29999968388E+02 0.  0.
         12    1    1    2    0    0  0.15359708736E+02 -0.16832992292E+02 -0.33673375855E+02  0.40659150550E+02  0.00000000000E+00 0. -1.
         11    1    3    3    0    0 -0.64233155167E+01 -0.69358482606E+01  0.73387860312E+01  0.11967570931E+02  0.51100000000E-03 0. -1.
        -11    1    3    3    0    0 -0.15642087857E+01 -0.12754262013E+01  0.13700462890E+01  0.24393622559E+01  0.51100000000E-03 0.  1.
        -12    1    3    3    0    0 -0.73721844338E+01  0.25044266754E+02  0.24964543535E+02  0.36121916263E+02  0.00000000000E+00 0.  1.
</event>
<event>
 7    1  0.5408841E-013  0.5052885E+02  0.7816164E-02  0.1300439E+00
        -11   -1    0    0    0    0  0.00000000000E+00  0.00000000000E+00  0.45593999997E+02  0.45594000000E+02  0.51100000000E-03 0.  1.
         11   -1    0    0    0    0 -0.00000000000E+00 -0.00000000000E+00 -0.45593999997E+02  0.45594000000E+02  0.51100000000E-03 0. -1.
    9900012    2    1    2    0    0 -0.11619519621E+02  0.35424406901E+01  0.38802118669E+02  0.50528849303E+02  0.29999967940E+02 0.  0.
         12    1    1    2    0    0  0.11619519621E+02 -0.35424406901E+01 -0.38802118669E+02  0.40659150697E+02  0.00000000000E+00 0. -1.
         11    1    3    3    0    0 -0.58234894741E+01  0.15809707616E+01  0.13211073036E+01  0.61772018724E+01  0.51100000000E-03 0. -1.
        -11    1    3    3    0    0 -0.59366530176E+01 -0.91886105212E+01  0.26643267510E+02  0.28801703356E+02  0.51100000000E-03 0.  1.
         12    1    3    3    0    0  0.14062287051E+00  0.11150080450E+02  0.10837743855E+02  0.15549944074E+02  0.00000000000E+00 0. -1.
</event>
<event>
 7    1  0.5408841E-013  0.5052886E+02  0.7816164E-02  0.1300439E+00
        -11   -1    0    0    0    0  0.00000000000E+00  0.00000000000E+00  0.45593999997E+02  0.45594000000E+02  0.51100000000E-03 0.  1.
         11   -1    0    0    0    0 -0.00000000000E+00 -0.00000000000E+00 -0.45593999997E+02  0.45594000000E+02  0.51100000000E-03 0. -1.
    9900012    2    1    2    0    0  0.11640901508E+01  0.34076848138E+02  0.22149022240E+02  0.50528857472E+02  0.29999992773E+02 0.  0.
         12    1    1    2    0    0 -0.11640901508E+01 -0.34076848138E+02 -0.22149022240E+02  0.40659142528E+02  0.00000000000E+00 0. -1.
         11    1    3    3    0    0 -0.30830545761E+01 -0.11396080151E+01 -0.20287306213E+01  0.38626001789E+01  0.51100000000E-03 0. -1.
        -11    1    3    3    0    0 -0.41203251789E+01  0.46171825422E+00  0.29813975864E+01  0.51067597511E+01  0.51100000000E-03 0.  1.
        -12    1    3    3    0    0  0.83674699058E+01  0.34754737898E+02  0.21196355275E+02  0.41559497542E+02  0.00000000000E+00 0.  1.
</event>
<event>
 7    1  0.5408841E-013  0.5052884E+02  0.7816164E-02  0.1300439E+00
        -11   -1    0    0    0    0  0.00000000000E+00  0.00000000000E+00  0.45593999997E+02  0.45594000000E+02  0.51100000000E-03 0. -1.
         11   -1    0    0    0    0 -0.00000000000E+00 -0.00000000000E+00 -0.45593999997E+02  0.45594000000E+02  0.51100000000E-03 0.  1.
    9900012    2    1    2    0    0  0.40106216032E+02  0.63690065332E+01 -0.20235373162E+01  0.50528837294E+02  0.29999931440E+02 0.  0.
         12    1    1    2    0    0 -0.40106216032E+02 -0.63690065332E+01  0.20235373162E+01  0.40659162706E+02  0.00000000000E+00 0. -1.
         11    1    3    3    0    0 -0.27030348355E+01  0.29803570391E+01  0.18963071591E+01  0.44480227635E+01  0.51100000000E-03 0. -1.
        -11    1    3    3    0    0  0.18696171636E+01  0.12811501905E+01 -0.45487807017E+01  0.50821472118E+01  0.51100000000E-03 0.  1.
        -12    1    3    3    0    0  0.40939633704E+02  0.21074993036E+01  0.62893622641E+00  0.40998667319E+02  0.00000000000E+00 0.  1.
</event>
<event>
 7    1  0.5408841E-013  0.5052886E+02  0.7816164E-02  0.1300439E+00
        -11   -1    0    0    0    0  0.00000000000E+00  0.00000000000E+00  0.45593999997E+02  0.45594000000E+02  0.51100000000E-03 0.  1.
         11   -1    0    0    0    0 -0.00000000000E+00 -0.00000000000E+00 -0.45593999997E+02  0.45594000000E+02  0.51100000000E-03 0. -1.
    9900012    2    1    2    0    0  0.12030651284E+02 -0.16693847656E+02  0.35067715007E+02  0.50528858891E+02  0.29999997086E+02 0.  0.
         12    1    1    2    0    0 -0.12030651284E+02  0.16693847656E+02 -0.35067715007E+02  0.40659141109E+02  0.00000000000E+00 0. -1.
         11    1    3    3    0    0  0.10289603517E+02  0.18070251227E+01  0.97942338891E+01  0.14320205937E+02  0.51100000000E-03 0. -1.
        -11    1    3    3    0    0  0.64190764327E+01 -0.15111790553E+02  0.25611227008E+02  0.30422125256E+02  0.51100000000E-03 0.  1.
         12    1    3    3    0    0 -0.46780286655E+01 -0.33890822255E+01 -0.33774588980E+00  0.57865276991E+01  0.00000000000E+00 0. -1.
</event>
<event>
 7    1  0.5408841E-013  0.5052886E+02  0.7816164E-02  0.1300439E+00
        -11   -1    0    0    0    0  0.00000000000E+00  0.00000000000E+00  0.45593999997E+02  0.45594000000E+02  0.51100000000E-03 0.  1.
         11   -1    0    0    0    0 -0.00000000000E+00 -0.00000000000E+00 -0.45593999997E+02  0.45594000000E+02  0.51100000000E-03 0. -1.
    9900012    2    1    2    0    0 -0.45592569247E+01  0.39045871041E+02  0.10382623442E+02  0.50528859101E+02  0.29999997724E+02 0.  0.
         12    1    1    2    0    0  0.45592569247E+01 -0.39045871041E+02 -0.10382623442E+02  0.40659140899E+02  0.00000000000E+00 0. -1.
         11    1    3    3    0    0  0.67969112169E+01  0.19973724007E+01  0.55965448055E+01  0.90282231153E+01  0.51100000000E-03 0. -1.
        -11    1    3    3    0    0  0.27389706782E+01  0.81701377177E+01  0.36153234842E+01  0.93447137387E+01  0.51100000000E-03 0.  1.
        -12    1    3    3    0    0 -0.14095138820E+02  0.28878360923E+02  0.11707551523E+01  0.32155922247E+02  0.00000000000E+00 0.  1.
</event>
<event>
 7    1  0.5408841E-013  0.5052886E+02  0.7816164E-02  0.1300439E+00
        -11   -1    0    0    0    0  0.00000000000E+00  0.00000000000E+00  0.45593999997E+02  0.45594000000E+02  0.51100000000E-03 0.  1.
         11   -1    0    0    0    0 -0.00000000000E+00 -0.00000000000E+00 -0.45593999997E+02  0.45594000000E+02  0.51100000000E-03 0. -1.
    9900012    2    1    2    0    0  0.30092978560E+02 -0.27071024197E+02 -0.38389945685E+01  0.50528860941E+02  0.30000003317E+02 0.  0.
         12    1    1    2    0    0 -0.30092978560E+02  0.27071024197E+02  0.38389945685E+01  0.40659139059E+02  0.00000000000E+00 0. -1.
         11    1    3    3    0    0  0.45519395785E+01 -0.13775002847E+02  0.48357886530E+01  0.15292341532E+02  0.51100000000E-03 0. -1.
        -11    1    3    3    0    0  0.10905847021E+02 -0.15678612248E+02 -0.28705385617E+01  0.19313114020E+02  0.51100000000E-03 0.  1.
         12    1    3    3    0    0  0.14635191961E+02  0.23825908980E+01 -0.58042446599E+01  0.15923405389E+02  0.00000000000E+00 0. -1.
</event>
<event>
 7    1  0.5408841E-013  0.5052885E+02  0.7816164E-02  0.1300439E+00
        -11   -1    0    0    0    0  0.00000000000E+00  0.00000000000E+00  0.45593999997E+02  0.45594000000E+02  0.51100000000E-03 0.  1.
         11   -1    0    0    0    0 -0.00000000000E+00 -0.00000000000E+00 -0.45593999997E+02  0.45594000000E+02  0.51100000000E-03 0. -1.
    9900012    2    1    2    0    0 -0.25768183412E+02  0.20706150956E+02  0.23673240860E+02  0.50528852240E+02  0.29999976868E+02 0.  0.
         12    1    1    2    0    0  0.25768183412E+02 -0.20706150956E+02 -0.23673240860E+02  0.40659147760E+02  0.00000000000E+00 0. -1.
         11    1    3    3    0    0 -0.10162026499E+02  0.21237813669E+01  0.11469583572E+01  0.10444747177E+02  0.51100000000E-03 0. -1.
        -11    1    3    3    0    0 -0.99991538218E+01 -0.32936109524E+01  0.81456175720E+01  0.13310974275E+02  0.51100000000E-03 0.  1.
         12    1    3    3    0    0 -0.56070030917E+01  0.21875980542E+02  0.14380664931E+02  0.26773130788E+02  0.00000000000E+00 0. -1.
</event>
<event>
 7    1  0.5408841E-013  0.5052886E+02  0.7816164E-02  0.1300439E+00
        -11   -1    0    0    0    0  0.00000000000E+00  0.00000000000E+00  0.45593999997E+02  0.45594000000E+02  0.51100000000E-03 0.  1.
         11   -1    0    0    0    0 -0.00000000000E+00 -0.00000000000E+00 -0.45593999997E+02  0.45594000000E+02  0.51100000000E-03 0. -1.
    9900012    2    1    2    0    0 -0.21148332395E+02  0.12453260628E+02  0.32416510939E+02  0.50528857795E+02  0.29999993753E+02 0.  0.
         12    1    1    2    0    0  0.21148332395E+02 -0.12453260628E+02 -0.32416510939E+02  0.40659142205E+02  0.00000000000E+00 0. -1.
         11    1    3    3    0    0 -0.30057222671E+01  0.20545656642E+01  0.46200271095E+01  0.58821983279E+01  0.51100000000E-03 0. -1.
        -11    1    3    3    0    0 -0.20258518698E+02 -0.33311056931E+01  0.20252085177E+02  0.28838356390E+02  0.51100000000E-03 0.  1.
         12    1    3    3    0    0  0.21159085696E+01  0.13729800657E+02  0.75443986526E+01  0.15808303077E+02  0.00000000000E+00 0. -1.
</event>
<event>
 7    1  0.5408841E-013  0.5052887E+02  0.7816164E-02  0.1300439E+00
        -11   -1    0    0    0    0  0.00000000000E+00  0.00000000000E+00  0.45593999997E+02  0.45594000000E+02  0.51100000000E-03 0.  1.
         11   -1    0    0    0    0 -0.00000000000E+00 -0.00000000000E+00 -0.45593999997E+02  0.45594000000E+02  0.51100000000E-03 0. -1.
    9900012    2    1    2    0    0 -0.28308811355E+02  0.21180081209E+02  0.20079357825E+02  0.50528865097E+02  0.30000015950E+02 0.  0.
         12    1    1    2    0    0  0.28308811355E+02 -0.21180081209E+02 -0.20079357825E+02  0.40659134903E+02  0.00000000000E+00 0. -1.
         11    1    3    3    0    0 -0.97521682475E+00  0.42417851059E+01 -0.39945049030E+01  0.59076102124E+01  0.51100000000E-03 0. -1.
        -11    1    3    3    0    0  0.17010727731E+00 -0.12029603148E+01 -0.21779334311E+01  0.24938813717E+01  0.51100000000E-03 0.  1.
        -12    1    3    3    0    0 -0.27503701808E+02  0.18141256418E+02  0.26251796159E+02  0.42127373513E+02  0.00000000000E+00 0.  1.
</event>
<event>
 7    1  0.5408841E-013  0.5052886E+02  0.7816164E-02  0.1300439E+00
        -11   -1    0    0    0    0  0.00000000000E+00  0.00000000000E+00  0.45593999997E+02  0.45594000000E+02  0.51100000000E-03 0.  1.
         11   -1    0    0    0    0 -0.00000000000E+00 -0.00000000000E+00 -0.45593999997E+02  0.45594000000E+02  0.51100000000E-03 0. -1.
    9900012    2    1    2    0    0 -0.33133862482E+01 -0.12789484759E+02  0.38452780429E+02  0.50528858696E+02  0.29999996493E+02 0.  0.
         12    1    1    2    0    0  0.33133862482E+01  0.12789484759E+02 -0.38452780429E+02  0.40659141304E+02  0.00000000000E+00 0. -1.
         11    1    3    3    0    0  0.10555981854E+02 -0.45762275081E+01  0.16290144279E+02  0.19943405226E+02  0.51100000000E-03 0. -1.
        -11    1    3    3    0    0  0.67933748906E+00 -0.54884115248E+01  0.10001506879E+02  0.11428661365E+02  0.51100000000E-03 0.  1.
        -12    1    3    3    0    0 -0.14548705591E+02 -0.27248457259E+01  0.12161129272E+02  0.19156792105E+02  0.00000000000E+00 0.  1.
</event>
<event>
 7    1  0.5408841E-013  0.5052885E+02  0.7816164E-02  0.1300439E+00
        -11   -1    0    0    0    0  0.00000000000E+00  0.00000000000E+00  0.45593999997E+02  0.45594000000E+02  0.51100000000E-03 0.  1.
         11   -1    0    0    0    0 -0.00000000000E+00 -0.00000000000E+00 -0.45593999997E+02  0.45594000000E+02  0.51100000000E-03 0. -1.
    9900012    2    1    2    0    0 -0.15278011110E+02 -0.14623219178E+02  0.34726214798E+02  0.50528853958E+02  0.29999982091E+02 0.  0.
         12    1    1    2    0    0  0.15278011110E+02  0.14623219178E+02 -0.34726214798E+02  0.40659146042E+02  0.00000000000E+00 0. -1.
         11    1    3    3    0    0  0.14963085317E+00  0.23874897702E+01  0.23155000117E+02  0.23278241503E+02  0.51100000000E-03 0. -1.
        -11    1    3    3    0    0  0.86435856284E+00 -0.15629218340E+00  0.14979139300E+01  0.17364588606E+01  0.51100000000E-03 0.  1.
        -12    1    3    3    0    0 -0.16292000526E+02 -0.16854416765E+02  0.10073300752E+02  0.25514153595E+02  0.00000000000E+00 0.  1.
</event>
<event>
 7    1  0.5408841E-013  0.5052886E+02  0.7816164E-02  0.1300439E+00
        -11   -1    0    0    0    0  0.00000000000E+00  0.00000000000E+00  0.45593999997E+02  0.45594000000E+02  0.51100000000E-03 0.  1.
         11   -1    0    0    0    0 -0.00000000000E+00 -0.00000000000E+00 -0.45593999997E+02  0.45594000000E+02  0.51100000000E-03 0. -1.
    9900012    2    1    2    0    0 -0.14651231094E+02  0.92589767599E+01  0.36780132722E+02  0.50528863434E+02  0.30000010894E+02 0.  0.
         12    1    1    2    0    0  0.14651231094E+02 -0.92589767599E+01 -0.36780132722E+02  0.40659136566E+02  0.00000000000E+00 0. -1.
         11    1    3    3    0    0 -0.83815064878E+01  0.14968793681E+01  0.28791507661E+02  0.30024010600E+02  0.51100000000E-03 0. -1.
        -11    1    3    3    0    0  0.47249588905E+01 -0.67066875629E+00  0.35744144638E+01  0.59625055235E+01  0.51100000000E-03 0.  1.
        -12    1    3    3    0    0 -0.10994683496E+02  0.84327661481E+01  0.44142105973E+01  0.14542347310E+02  0.00000000000E+00 0.  1.
</event>
<event>
 7    1  0.5408841E-013  0.5052887E+02  0.7816164E-02  0.1300439E+00
        -11   -1    0    0    0    0  0.00000000000E+00  0.00000000000E+00  0.45593999997E+02  0.45594000000E+02  0.51100000000E-03 0.  1.
         11   -1    0    0    0    0 -0.00000000000E+00 -0.00000000000E+00 -0.45593999997E+02  0.45594000000E+02  0.51100000000E-03 0. -1.
    9900012    2    1    2    0    0 -0.35413538136E+02 -0.81782936800E+01  0.18225313202E+02  0.50528865576E+02  0.30000017403E+02 0.  0.
         12    1    1    2    0    0  0.35413538136E+02  0.81782936800E+01 -0.18225313202E+02  0.40659134424E+02  0.00000000000E+00 0. -1.
         11    1    3    3    0    0 -0.71879000882E+01  0.74114434217E+01  0.20944276782E+01  0.10534800844E+02  0.51100000000E-03 0. -1.
        -11    1    3    3    0    0 -0.27810591069E+02 -0.85189687869E+01  0.10422270071E+02  0.30897014718E+02  0.51100000000E-03 0.  1.
         12    1    3    3    0    0 -0.41504697909E+00 -0.70707683147E+01  0.57086154521E+01  0.90970500128E+01  0.00000000000E+00 0. -1.
</event>
<event>
 7    1  0.5408841E-013  0.5052886E+02  0.7816164E-02  0.1300439E+00
        -11   -1    0    0    0    0  0.00000000000E+00  0.00000000000E+00  0.45593999997E+02  0.45594000000E+02  0.51100000000E-03 0. -1.
         11   -1    0    0    0    0 -0.00000000000E+00 -0.00000000000E+00 -0.45593999997E+02  0.45594000000E+02  0.51100000000E-03 0.  1.
    9900012    2    1    2    0    0 -0.52016012149E+01 -0.40292785571E+02  0.16124875547E+01  0.50528863998E+02  0.30000012609E+02 0.  0.
         12    1    1    2    0    0  0.52016012149E+01  0.40292785571E+02 -0.16124875547E+01  0.40659136002E+02  0.00000000000E+00 0. -1.
         11    1    3    3    0    0 -0.85437264024E+01 -0.13441794626E+01 -0.34645129460E+01  0.93169163075E+01  0.51100000000E-03 0. -1.
        -11    1    3    3    0    0 -0.36865660508E+01 -0.49112150524E+01  0.63261857874E+00  0.61734114609E+01  0.51100000000E-03 0.  1.
        -12    1    3    3    0    0  0.70286912383E+01 -0.34037391056E+02  0.44443819219E+01  0.35038536230E+02  0.00000000000E+00 0.  1.
</event>
<event>
 7    1  0.5408841E-013  0.5052886E+02  0.7816164E-02  0.1300439E+00
        -11   -1    0    0    0    0  0.00000000000E+00  0.00000000000E+00  0.45593999997E+02  0.45594000000E+02  0.51100000000E-03 0.  1.
         11   -1    0    0    0    0 -0.00000000000E+00 -0.00000000000E+00 -0.45593999997E+02  0.45594000000E+02  0.51100000000E-03 0. -1.
    9900012    2    1    2    0    0 -0.16879164954E+02  0.35756311557E+02 -0.94734292055E+01  0.50528857281E+02  0.29999992192E+02 0.  0.
         12    1    1    2    0    0  0.16879164954E+02 -0.35756311557E+02  0.94734292055E+01  0.40659142719E+02  0.00000000000E+00 0. -1.
         11    1    3    3    0    0  0.35118820216E+01 -0.23476565394E+01 -0.11782557681E+01  0.43855550934E+01  0.51100000000E-03 0.  1.
        -11    1    3    3    0    0 -0.70364819495E+01  0.20210393637E+02 -0.10253622092E+02  0.23729914780E+02  0.51100000000E-03 0. -1.
        -12    1    3    3    0    0 -0.13354565026E+02  0.17893574460E+02  0.19584486548E+01  0.22413387408E+02  0.00000000000E+00 0.  1.
</event>
<event>
 7    1  0.5408841E-013  0.5052885E+02  0.7816164E-02  0.1300439E+00
        -11   -1    0    0    0    0  0.00000000000E+00  0.00000000000E+00  0.45593999997E+02  0.45594000000E+02  0.51100000000E-03 0.  1.
         11   -1    0    0    0    0 -0.00000000000E+00 -0.00000000000E+00 -0.45593999997E+02  0.45594000000E+02  0.51100000000E-03 0. -1.
    9900012    2    1    2    0    0  0.20135583642E+02  0.23026639930E+02  0.26786164777E+02  0.50528849756E+02  0.29999969319E+02 0.  0.
         12    1    1    2    0    0 -0.20135583642E+02 -0.23026639930E+02 -0.26786164777E+02  0.40659150244E+02  0.00000000000E+00 0. -1.
         11    1    3    3    0    0 -0.11012644638E+01  0.11433814461E+02  0.11043283679E+02  0.15934208836E+02  0.51100000000E-03 0. -1.
        -11    1    3    3    0    0  0.12270672043E+02  0.25506315551E+01  0.17724005723E+02  0.21707498540E+02  0.51100000000E-03 0.  1.
         12    1    3    3    0    0  0.89661760633E+01  0.90421939136E+01 -0.19811246243E+01  0.12887142381E+02  0.00000000000E+00 0. -1.
</event>
<event>
 7    1  0.5408841E-013  0.5052886E+02  0.7816164E-02  0.1300439E+00
        -11   -1    0    0    0    0  0.00000000000E+00  0.00000000000E+00  0.45593999997E+02  0.45594000000E+02  0.51100000000E-03 0. -1.
         11   -1    0    0    0    0 -0.00000000000E+00 -0.00000000000E+00 -0.45593999997E+02  0.45594000000E+02  0.51100000000E-03 0.  1.
    9900012    2    1    2    0    0  0.18474084467E+02 -0.35044163275E+02 -0.91531636513E+01  0.50528861035E+02  0.30000003601E+02 0.  0.
         12    1    1    2    0    0 -0.18474084467E+02  0.35044163275E+02  0.91531636513E+01  0.40659138965E+02  0.00000000000E+00 0. -1.
         11    1    3    3    0    0  0.72317683963E+01 -0.10536822386E+02 -0.11109129545E+02  0.16933276695E+02  0.51100000000E-03 0. -1.
        -11    1    3    3    0    0  0.11475420502E+02 -0.19294146070E+02 -0.67532847240E+01  0.23442615107E+02  0.51100000000E-03 0.  1.
         12    1    3    3    0    0 -0.23310443046E+00 -0.52131948199E+01  0.87092506177E+01  0.10152969232E+02  0.00000000000E+00 0. -1.
</event>
<event>
 7    1  0.5408841E-013  0.5052886E+02  0.7816164E-02  0.1300439E+00
        -11   -1    0    0    0    0  0.00000000000E+00  0.00000000000E+00  0.45593999997E+02  0.45594000000E+02  0.51100000000E-03 0.  1.
         11   -1    0    0    0    0 -0.00000000000E+00 -0.00000000000E+00 -0.45593999997E+02  0.45594000000E+02  0.51100000000E-03 0. -1.
    9900012    2    1    2    0    0  0.29863323658E+02 -0.53505903819E+01  0.27068781176E+02  0.50528857957E+02  0.29999994245E+02 0.  0.
         12    1    1    2    0    0 -0.29863323658E+02  0.53505903819E+01 -0.27068781176E+02  0.40659142043E+02  0.00000000000E+00 0. -1.
         11    1    3    3    0    0  0.88887003515E+01 -0.93763671613E+01 -0.17015809360E+01  0.13031524586E+02  0.51100000000E-03 0. -1.
        -11    1    3    3    0    0  0.10830238259E+02 -0.22610778985E+01  0.19362810140E+02  0.22300783636E+02  0.51100000000E-03 0.  1.
        -12    1    3    3    0    0  0.10144385048E+02  0.62868546779E+01  0.94075519719E+01  0.15196549735E+02  0.00000000000E+00 0.  1.
</event>
<event>
 7    1  0.5408841E-013  0.5052886E+02  0.7816164E-02  0.1300439E+00
        -11   -1    0    0    0    0  0.00000000000E+00  0.00000000000E+00  0.45593999997E+02  0.45594000000E+02  0.51100000000E-03 0. -1.
         11   -1    0    0    0    0 -0.00000000000E+00 -0.00000000000E+00 -0.45593999997E+02  0.45594000000E+02  0.51100000000E-03 0.  1.
    9900012    2    1    2    0    0  0.25947697104E+02 -0.28282637924E+02 -0.13415493476E+02  0.50528855172E+02  0.29999985782E+02 0.  0.
         12    1    1    2    0    0 -0.25947697104E+02  0.28282637924E+02  0.13415493476E+02  0.40659144828E+02  0.00000000000E+00 0. -1.
         11    1    3    3    0    0 -0.26707793967E+00  0.23083413867E+01  0.16497639289E+01  0.28498231288E+01  0.51100000000E-03 0. -1.
        -11    1    3    3    0    0  0.19406550974E+02 -0.78506739162E+01 -0.10818549966E+02  0.23564556547E+02  0.51100000000E-03 0.  1.
        -12    1    3    3    0    0  0.68082240694E+01 -0.22740305394E+02 -0.42467074392E+01  0.24114475497E+02  0.00000000000E+00 0.  1.
</event>
<event>
 7    1  0.5408841E-013  0.5052886E+02  0.7816164E-02  0.1300439E+00
        -11   -1    0    0    0    0  0.00000000000E+00  0.00000000000E+00  0.45593999997E+02  0.45594000000E+02  0.51100000000E-03 0.  1.
         11   -1    0    0    0    0 -0.00000000000E+00 -0.00000000000E+00 -0.45593999997E+02  0.45594000000E+02  0.51100000000E-03 0. -1.
    9900012    2    1    2    0    0 -0.39968704865E+01  0.35072368681E+02 -0.20177206256E+02  0.50528859934E+02  0.30000000256E+02 0.  0.
         12    1    1    2    0    0  0.39968704865E+01 -0.35072368681E+02  0.20177206256E+02  0.40659140066E+02  0.00000000000E+00 0. -1.
         11    1    3    3    0    0 -0.64690186759E+01  0.22142822239E+00 -0.48724685326E+01  0.81017395014E+01  0.51100000000E-03 0. -1.
        -11    1    3    3    0    0 -0.69145678413E+01  0.60225671841E+01 -0.47303144058E+01  0.10317869865E+02  0.51100000000E-03 0.  1.
        -12    1    3    3    0    0  0.93867160307E+01  0.28828373275E+02 -0.10574423317E+02  0.32109250568E+02  0.00000000000E+00 0.  1.
</event>
