<event>
 7    1  0.2969156E-011  0.5052886E+02  0.7816164E-02  0.1300439E+00
        -11   -1    0    0    0    0  0.00000000000E+00  0.00000000000E+00  0.45593999997E+02  0.45594000000E+02  0.51100000000E-03 0.  1.
         11   -1    0    0    0    0 -0.00000000000E+00 -0.00000000000E+00 -0.45593999997E+02  0.45594000000E+02  0.51100000000E-03 0. -1.
    9900012    2    1    2    0    0  0.24267123120E+02 -0.32623192203E+02  0.78061974657E-02  0.50528855949E+02  0.29999988141E+02 0.  0.
         12    1    1    2    0    0 -0.24267123120E+02  0.32623192203E+02 -0.78061974657E-02  0.40659144051E+02  0.00000000000E+00 0. -1.
         11    1    3    3    0    0  0.13742357616E+02 -0.50149885595E+00 -0.55996619003E+01  0.14847899097E+02  0.51100000000E-03 0. -1.
        -11    1    3    3    0    0  0.73320562672E+01 -0.83748604441E+01  0.27532121066E+00  0.11134322548E+02  0.51100000000E-03 0.  1.
        -12    1    3    3    0    0  0.31927092369E+01 -0.23746832903E+02  0.53321468872E+01  0.24546634304E+02  0.00000000000E+00 0.  1.
</event>
<event>
 7    1  0.2969156E-011  0.5052886E+02  0.7816164E-02  0.1300439E+00
        -11   -1    0    0    0    0  0.00000000000E+00  0.00000000000E+00  0.45593999997E+02  0.45594000000E+02  0.51100000000E-03 0.  1.
         11   -1    0    0    0    0 -0.00000000000E+00 -0.00000000000E+00 -0.45593999997E+02  0.45594000000E+02  0.51100000000E-03 0. -1.
    9900012    2    1    2    0    0 -0.28135136018E+01 -0.40240448436E+02  0.50946903447E+01  0.50528863034E+02  0.30000009679E+02 0.  0.
         12    1    1    2    0    0  0.28135136018E+01  0.40240448436E+02 -0.50946903447E+01  0.40659136966E+02  0.00000000000E+00 0. -1.
         11    1    3    3    0    0 -0.77542673760E+01 -0.60906893727E+01  0.53134727863E+01  0.11200810367E+02  0.51100000000E-03 0. -1.
        -11    1    3    3    0    0 -0.20686231565E+01 -0.71222404782E+01  0.73054876470E+01  0.10410363164E+02  0.51100000000E-03 0.  1.
         12    1    3    3    0    0  0.70093769307E+01 -0.27027518585E+02 -0.75242700886E+01  0.28917689503E+02  0.00000000000E+00 0. -1.
</event>
<event>
 7    1  0.2969156E-011  0.5052886E+02  0.7816164E-02  0.1300439E+00
        -11   -1    0    0    0    0  0.00000000000E+00  0.00000000000E+00  0.45593999997E+02  0.45594000000E+02  0.51100000000E-03 0.  1.
         11   -1    0    0    0    0 -0.00000000000E+00 -0.00000000000E+00 -0.45593999997E+02  0.45594000000E+02  0.51100000000E-03 0. -1.
    9900012    2    1    2    0    0  0.14766760577E+01  0.14689359715E+02  0.37884140439E+02  0.50528856406E+02  0.29999989532E+02 0.  0.
         12    1    1    2    0    0 -0.14766760577E+01 -0.14689359715E+02 -0.37884140439E+02  0.40659143594E+02  0.00000000000E+00 0. -1.
         11    1    3    3    0    0  0.51083705216E+00 -0.35633510492E+01  0.15479405663E+02  0.15892464413E+02  0.51100000000E-03 0. -1.
        -11    1    3    3    0    0 -0.69026528802E+01  0.53571128160E+01  0.15995516369E+02  0.18226404437E+02  0.51100000000E-03 0.  1.
        -12    1    3    3    0    0  0.78684918858E+01  0.12895597948E+02  0.64092184063E+01  0.16409987556E+02  0.00000000000E+00 0.  1.
</event>
<event>
 7    1  0.2969156E-011  0.5052887E+02  0.7816164E-02  0.1300439E+00
        -11   -1    0    0    0    0  0.00000000000E+00  0.00000000000E+00  0.45593999997E+02  0.45594000000E+02  0.51100000000E-03 0. -1.
         11   -1    0    0    0    0 -0.00000000000E+00 -0.00000000000E+00 -0.45593999997E+02  0.45594000000E+02  0.51100000000E-03 0.  1.
    9900012    2    1    2    0    0 -0.13408768630E+02 -0.10346213952E+02 -0.36963841014E+02  0.50528871114E+02  0.30000034237E+02 0.  0.
         12    1    1    2    0    0  0.13408768630E+02  0.10346213952E+02  0.36963841014E+02  0.40659128886E+02  0.00000000000E+00 0. -1.
         11    1    3    3    0    0  0.82273548474E+01 -0.54039730251E+01 -0.58161236141E+01  0.11433266655E+02  0.51100000000E-03 0. -1.
        -11    1    3    3    0    0 -0.37126096139E+01 -0.46471316094E+00 -0.11647684141E+02  0.12233886323E+02  0.51100000000E-03 0.  1.
        -12    1    3    3    0    0 -0.17923513864E+02 -0.44775277660E+01 -0.19500033259E+02  0.26861718136E+02  0.00000000000E+00 0.  1.
</event>
<event>
 7    1  0.3142553E-011  0.5052892E+02  0.7816164E-02  0.1300439E+00
        -11   -1    0    0    0    0  0.00000000000E+00  0.00000000000E+00  0.45593999997E+02  0.45594000000E+02  0.51100000000E-03 0. -1.
         11   -1    0    0    0    0 -0.00000000000E+00 -0.00000000000E+00 -0.45593999997E+02  0.45594000000E+02  0.51100000000E-03 0.  1.
    9900012    2    1    2    0    0  0.29847278806E+01  0.14556583498E+02 -0.37846504636E+02  0.50528921840E+02  0.30000188424E+02 0.  0.
         12    1    1    2    0    0 -0.29847278806E+01 -0.14556583498E+02  0.37846504636E+02  0.40659078160E+02  0.00000000000E+00 0. -1.
         11    1    3    3    0    0 -0.23199185129E+00 -0.24323993081E+01 -0.12723876853E+01  0.27548788170E+01  0.51100000000E-03 0. -1.
        -11    1    3    3    0    0  0.73133781653E+01  0.10147249576E+02 -0.24695101480E+01  0.12749535473E+02  0.51100000000E-03 0.  1.
        -12    1    3    3    0    0 -0.40966584334E+01  0.68417332297E+01 -0.34104606803E+02  0.35024507550E+02  0.00000000000E+00 0.  1.
</event>
<event>
 7    1  0.2969156E-011  0.5052886E+02  0.7816164E-02  0.1300439E+00
        -11   -1    0    0    0    0  0.00000000000E+00  0.00000000000E+00  0.45593999997E+02  0.45594000000E+02  0.51100000000E-03 0.  1.
         11   -1    0    0    0    0 -0.00000000000E+00 -0.00000000000E+00 -0.45593999997E+02  0.45594000000E+02  0.51100000000E-03 0. -1.
    9900012    2    1    2    0    0  0.15769128194E+02 -0.36059248773E+02  0.10209342647E+02  0.50528861994E+02  0.30000006518E+02 0.  0.
         12    1    1    2    0    0 -0.15769128194E+02  0.36059248773E+02 -0.10209342647E+02  0.40659138006E+02  0.00000000000E+00 0. -1.
         11    1    3    3    0    0  0.11992530647E+02 -0.19049549620E+02 -0.44415928386E+01  0.22944146950E+02  0.51100000000E-03 0. -1.
        -11    1    3    3    0    0 -0.90593988924E+00 -0.15726502710E+02  0.45805561862E+01  0.16405033063E+02  0.51100000000E-03 0.  1.
        -12    1    3    3    0    0  0.46825374365E+01 -0.12831964425E+01  0.10070379300E+02  0.11179681981E+02  0.00000000000E+00 0.  1.
</event>
<event>
 7    1  0.2969156E-011  0.5052885E+02  0.7816164E-02  0.1300439E+00
        -11   -1    0    0    0    0  0.00000000000E+00  0.00000000000E+00  0.45593999997E+02  0.45594000000E+02  0.51100000000E-03 0.  1.
         11   -1    0    0    0    0 -0.00000000000E+00 -0.00000000000E+00 -0.45593999997E+02  0.45594000000E+02  0.51100000000E-03 0. -1.
    9900012    2    1    2    0    0  0.89278924522E+01  0.10783918733E+02  0.38172844011E+02  0.50528853590E+02  0.29999980973E+02 0.  0.
         12    1    1    2    0    0 -0.89278924522E+01 -0.10783918733E+02 -0.38172844011E+02  0.40659146410E+02  0.00000000000E+00 0. -1.
         11    1    3    3    0    0  0.44024344942E+01 -0.11406473905E+01 -0.17935671115E+01  0.48887001533E+01  0.51100000000E-03 0. -1.
        -11    1    3    3    0    0  0.11243063755E+02  0.47824460709E+01  0.23032931651E+02  0.26072863550E+02  0.51100000000E-03 0.  1.
         12    1    3    3    0    0 -0.67176057971E+01  0.71421200524E+01  0.16933479472E+02  0.19567289887E+02  0.00000000000E+00 0. -1.
</event>
<event>
 7    1  0.2969156E-011  0.5052898E+02  0.7816164E-02  0.1300438E+00
        -11   -1    0    0    0    0  0.00000000000E+00  0.00000000000E+00  0.45593999997E+02  0.45594000000E+02  0.51100000000E-03 0.  1.
         11   -1    0    0    0    0 -0.00000000000E+00 -0.00000000000E+00 -0.45593999997E+02  0.45594000000E+02  0.51100000000E-03 0. -1.
    9900012    2    1    2    0    0 -0.17165654473E+02 -0.17005244764E+02  0.32700428615E+02  0.50528977944E+02  0.30000358955E+02 0.  0.
         12    1    1    2    0    0  0.17165654473E+02  0.17005244764E+02 -0.32700428615E+02  0.40659022056E+02  0.00000000000E+00 0. -1.
         11    1    3    3    0    0 -0.11817717359E+02 -0.34814698777E+01  0.31132293498E+01  0.12707134741E+02  0.51100000000E-03 0. -1.
        -11    1    3    3    0    0 -0.68985097115E+01  0.14506864012E+01  0.39214984074E+01  0.80667265539E+01  0.51100000000E-03 0.  1.
         12    1    3    3    0    0  0.15505725979E+01 -0.14974461288E+02  0.25665700858E+02  0.29755116649E+02  0.00000000000E+00 0. -1.
</event>
<event>
 7    1  0.2969156E-011  0.5052886E+02  0.7816164E-02  0.1300439E+00
        -11   -1    0    0    0    0  0.00000000000E+00  0.00000000000E+00  0.45593999997E+02  0.45594000000E+02  0.51100000000E-03 0. -1.
         11   -1    0    0    0    0 -0.00000000000E+00 -0.00000000000E+00 -0.45593999997E+02  0.45594000000E+02  0.51100000000E-03 0.  1.
    9900012    2    1    2    0    0  0.15193077127E+02  0.26798183451E+02 -0.26536637335E+02  0.50528863882E+02  0.30000012254E+02 0.  0.
         12    1    1    2    0    0 -0.15193077127E+02 -0.26798183451E+02  0.26536637335E+02  0.40659136118E+02  0.00000000000E+00 0. -1.
         11    1    3    3    0    0  0.13672495374E+01  0.12862364263E+02 -0.11098614966E+01  0.12982356432E+02  0.51100000000E-03 0. -1.
        -11    1    3    3    0    0 -0.23354685707E+01  0.42098994422E+00  0.19011018034E+01  0.30406963522E+01  0.51100000000E-03 0.  1.
        -12    1    3    3    0    0  0.16161296161E+02  0.13514829244E+02 -0.27327877641E+02  0.34505811097E+02  0.00000000000E+00 0.  1.
</event>
<event>
 7    1  0.2969156E-011  0.5052884E+02  0.7816164E-02  0.1300439E+00
        -11   -1    0    0    0    0  0.00000000000E+00  0.00000000000E+00  0.45593999997E+02  0.45594000000E+02  0.51100000000E-03 0. -1.
         11   -1    0    0    0    0 -0.00000000000E+00 -0.00000000000E+00 -0.45593999997E+02  0.45594000000E+02  0.51100000000E-03 0.  1.
    9900012    2    1    2    0    0 -0.23790947646E+02 -0.25485436422E+02  0.20920093137E+02  0.50528844126E+02  0.29999952205E+02 0.  0.
         12    1    1    2    0    0  0.23790947646E+02  0.25485436422E+02 -0.20920093137E+02  0.40659155874E+02  0.00000000000E+00 0. -1.
         11    1    3    3    0    0  0.27472718885E+01 -0.12280294307E+02  0.37661633850E+01  0.13135338519E+02  0.51100000000E-03 0. -1.
        -11    1    3    3    0    0 -0.16418985910E+01 -0.14452079192E+01  0.81289880587E+01  0.84181294853E+01  0.51100000000E-03 0.  1.
        -12    1    3    3    0    0 -0.24896320944E+02 -0.11759934196E+02  0.90249416930E+01  0.28975376122E+02  0.00000000000E+00 0.  1.
</event>
<event>
 7    1  0.2969156E-011  0.5052886E+02  0.7816164E-02  0.1300439E+00
        -11   -1    0    0    0    0  0.00000000000E+00  0.00000000000E+00  0.45593999997E+02  0.45594000000E+02  0.51100000000E-03 0. -1.
         11   -1    0    0    0    0 -0.00000000000E+00 -0.00000000000E+00 -0.45593999997E+02  0.45594000000E+02  0.51100000000E-03 0.  1.
    9900012    2    1    2    0    0 -0.38881515910E+02 -0.11214588241E+02  0.39530407893E+01  0.50528858342E+02  0.29999995416E+02 0.  0.
         12    1    1    2    0    0  0.38881515910E+02  0.11214588241E+02 -0.39530407893E+01  0.40659141658E+02  0.00000000000E+00 0. -1.
         11    1    3    3    0    0  0.31237861040E+01 -0.27641822569E+01  0.55033279931E+00  0.42073280861E+01  0.51100000000E-03 0. -1.
        -11    1    3    3    0    0 -0.11125430027E+02 -0.85259161839E+01 -0.39810988672E+01  0.14571053102E+02  0.51100000000E-03 0.  1.
         12    1    3    3    0    0 -0.30879871988E+02  0.75510200011E-01  0.73838068572E+01  0.31750477154E+02  0.00000000000E+00 0. -1.
</event>
<event>
 7    1  0.2969156E-011  0.5052887E+02  0.7816164E-02  0.1300439E+00
        -11   -1    0    0    0    0  0.00000000000E+00  0.00000000000E+00  0.45593999997E+02  0.45594000000E+02  0.51100000000E-03 0.  1.
         11   -1    0    0    0    0 -0.00000000000E+00 -0.00000000000E+00 -0.45593999997E+02  0.45594000000E+02  0.51100000000E-03 0. -1.
    9900012    2    1    2    0    0  0.39196669091E+02  0.49696547037E+01 -0.95962820589E+01  0.50528868614E+02  0.30000026638E+02 0.  0.
         12    1    1    2    0    0 -0.39196669091E+02 -0.49696547037E+01  0.95962820589E+01  0.40659131386E+02  0.00000000000E+00 0. -1.
         11    1    3    3    0    0 -0.12828904951E+01 -0.38578492259E+01 -0.30695867002E+01  0.50942292296E+01  0.51100000000E-03 0. -1.
        -11    1    3    3    0    0  0.13822775953E+02  0.85824081732E+01  0.40307709327E+01  0.16762278475E+02  0.51100000000E-03 0.  1.
         12    1    3    3    0    0  0.26656783634E+02  0.24509575642E+00 -0.10557466291E+02  0.28672360909E+02  0.00000000000E+00 0. -1.
</event>
<event>
 7    1  0.2969156E-011  0.5052878E+02  0.7816164E-02  0.1300439E+00
        -11   -1    0    0    0    0  0.00000000000E+00  0.00000000000E+00  0.45593999997E+02  0.45594000000E+02  0.51100000000E-03 0.  1.
         11   -1    0    0    0    0 -0.00000000000E+00 -0.00000000000E+00 -0.45593999997E+02  0.45594000000E+02  0.51100000000E-03 0. -1.
    9900012    2    1    2    0    0  0.26892100078E+01 -0.18357150186E+02  0.36179483458E+02  0.50528784111E+02  0.29999769784E+02 0.  0.
         12    1    1    2    0    0 -0.26892100078E+01  0.18357150186E+02 -0.36179483458E+02  0.40659215889E+02  0.00000000000E+00 0. -1.
         11    1    3    3    0    0  0.87089039464E+01 -0.96847439823E+01  0.42418806935E+01  0.13697913200E+02  0.51100000000E-03 0. -1.
        -11    1    3    3    0    0  0.46654986611E+01 -0.45747923904E+01  0.15306169574E+02  0.16642548797E+02  0.51100000000E-03 0.  1.
         12    1    3    3    0    0 -0.10685192600E+02 -0.40976138132E+01  0.16631433190E+02  0.20188322114E+02  0.00000000000E+00 0. -1.
</event>
<event>
 7    1  0.2969156E-011  0.5052886E+02  0.7816164E-02  0.1300439E+00
        -11   -1    0    0    0    0  0.00000000000E+00  0.00000000000E+00  0.45593999997E+02  0.45594000000E+02  0.51100000000E-03 0.  1.
         11   -1    0    0    0    0 -0.00000000000E+00 -0.00000000000E+00 -0.45593999997E+02  0.45594000000E+02  0.51100000000E-03 0. -1.
    9900012    2    1    2    0    0  0.27369282046E+02  0.29787492090E+02  0.40979472399E+01  0.50528862573E+02  0.30000008276E+02 0.  0.
         12    1    1    2    0    0 -0.27369282046E+02 -0.29787492090E+02 -0.40979472399E+01  0.40659137427E+02  0.00000000000E+00 0. -1.
         11    1    3    3    0    0  0.68268776785E+01  0.50493761840E+01 -0.50639531025E+01  0.98866617202E+01  0.51100000000E-03 0. -1.
        -11    1    3    3    0    0  0.95373640683E+00 -0.37184354302E+01  0.42844638631E+01  0.57526520873E+01  0.51100000000E-03 0.  1.
        -12    1    3    3    0    0  0.19588667961E+02  0.28456551337E+02  0.48774364793E+01  0.34889548765E+02  0.00000000000E+00 0.  1.
</event>
<event>
 7    1  0.2969156E-011  0.5052885E+02  0.7816164E-02  0.1300439E+00
        -11   -1    0    0    0    0  0.00000000000E+00  0.00000000000E+00  0.45593999997E+02  0.45594000000E+02  0.51100000000E-03 0.  1.
         11   -1    0    0    0    0 -0.00000000000E+00 -0.00000000000E+00 -0.45593999997E+02  0.45594000000E+02  0.51100000000E-03 0. -1.
    9900012    2    1    2    0    0 -0.23947648462E+02 -0.26445020499E+02  0.19502243892E+02  0.50528849826E+02  0.29999969530E+02 0.  0.
         12    1    1    2    0    0  0.23947648462E+02  0.26445020499E+02 -0.19502243892E+02  0.40659150174E+02  0.00000000000E+00 0. -1.
         11    1    3    3    0    0 -0.13672698725E+02 -0.12926080107E+02  0.60630813535E+01  0.19768338148E+02  0.51100000000E-03 0. -1.
        -11    1    3    3    0    0 -0.43654917628E+01 -0.10952318691E+02  0.18925927350E+02  0.22298016266E+02  0.51100000000E-03 0.  1.
         12    1    3    3    0    0 -0.59094579742E+01 -0.25666217000E+01 -0.54867648116E+01  0.84624954120E+01  0.00000000000E+00 0. -1.
</event>
<event>
 7    1  0.2969156E-011  0.5052886E+02  0.7816164E-02  0.1300439E+00
        -11   -1    0    0    0    0  0.00000000000E+00  0.00000000000E+00  0.45593999997E+02  0.45594000000E+02  0.51100000000E-03 0.  1.
         11   -1    0    0    0    0 -0.00000000000E+00 -0.00000000000E+00 -0.45593999997E+02  0.45594000000E+02  0.51100000000E-03 0. -1.
    9900012    2    1    2    0    0 -0.10677945144E+02 -0.33945290956E+02  0.19668871976E+02  0.50528858157E+02  0.29999994853E+02 0.  0.
         12    1    1    2    0    0  0.10677945144E+02  0.33945290956E+02 -0.19668871976E+02  0.40659141843E+02  0.00000000000E+00 0. -1.
         11    1    3    3    0    0 -0.47273103400E+00 -0.21831234578E+02  0.56174251545E+01  0.22547322312E+02  0.51100000000E-03 0. -1.
        -11    1    3    3    0    0 -0.42164160490E+01 -0.15749160455E+02  0.13093576022E+02  0.20910666002E+02  0.51100000000E-03 0.  1.
         12    1    3    3    0    0 -0.59887980614E+01  0.36351040765E+01  0.95787079984E+00  0.70708698430E+01  0.00000000000E+00 0. -1.
</event>
<event>
 7    1  0.2969156E-011  0.5052886E+02  0.7816164E-02  0.1300439E+00
        -11   -1    0    0    0    0  0.00000000000E+00  0.00000000000E+00  0.45593999997E+02  0.45594000000E+02  0.51100000000E-03 0.  1.
         11   -1    0    0    0    0 -0.00000000000E+00 -0.00000000000E+00 -0.45593999997E+02  0.45594000000E+02  0.51100000000E-03 0. -1.
    9900012    2    1    2    0    0  0.51729188760E+01  0.37853580562E+02  0.13910902261E+02  0.50528857698E+02  0.29999993458E+02 0.  0.
         12    1    1    2    0    0 -0.51729188760E+01 -0.37853580562E+02 -0.13910902261E+02  0.40659142302E+02  0.00000000000E+00 0. -1.
         11    1    3    3    0    0  0.10595423606E+02  0.29578288566E+02  0.26661155283E+01  0.31531671826E+02  0.51100000000E-03 0.  1.
        -11    1    3    3    0    0 -0.63545567281E+01  0.10654992751E+02  0.76108455099E+01  0.14554526147E+02  0.51100000000E-03 0. -1.
        -12    1    3    3    0    0  0.93205199819E+00 -0.23797007553E+01  0.36339412228E+01  0.44426597240E+01  0.00000000000E+00 0.  1.
</event>
<event>
 7    1  0.2969156E-011  0.5052873E+02  0.7816164E-02  0.1300439E+00
        -11   -1    0    0    0    0  0.00000000000E+00  0.00000000000E+00  0.45593999997E+02  0.45594000000E+02  0.51100000000E-03 0.  1.
         11   -1    0    0    0    0 -0.00000000000E+00 -0.00000000000E+00 -0.45593999997E+02  0.45594000000E+02  0.51100000000E-03 0. -1.
    9900012    2    1    2    0    0  0.29991144255E+02  0.18264413810E+02  0.20496794726E+02  0.50528731197E+02  0.29999608944E+02 0.  0.
         12    1    1    2    0    0 -0.29991144255E+02 -0.18264413810E+02 -0.20496794726E+02  0.40659268803E+02  0.00000000000E+00 0. -1.
         11    1    3    3    0    0  0.50930867574E+01 -0.29284073637E+01  0.57578275056E+01  0.82260367280E+01  0.51100000000E-03 0. -1.
        -11    1    3    3    0    0  0.27316874070E+02  0.12143115854E+02  0.86139210205E+01  0.31110552988E+02  0.51100000000E-03 0.  1.
         12    1    3    3    0    0 -0.24188165724E+01  0.90497053193E+01  0.61250462001E+01  0.11192141481E+02  0.00000000000E+00 0. -1.
</event>
<event>
 7    1  0.2969156E-011  0.5052886E+02  0.7816164E-02  0.1300439E+00
        -11   -1    0    0    0    0  0.00000000000E+00  0.00000000000E+00  0.45593999997E+02  0.45594000000E+02  0.51100000000E-03 0. -1.
         11   -1    0    0    0    0 -0.00000000000E+00 -0.00000000000E+00 -0.45593999997E+02  0.45594000000E+02  0.51100000000E-03 0.  1.
    9900012    2    1    2    0    0  0.17673946543E+01  0.32727304339E+02 -0.24061698008E+02  0.50528862722E+02  0.30000008731E+02 0.  0.
         12    1    1    2    0    0 -0.17673946543E+01 -0.32727304339E+02  0.24061698008E+02  0.40659137278E+02  0.00000000000E+00 0. -1.
         11    1    3    3    0    0 -0.12670692871E+02  0.98333051615E+01 -0.12135748838E+02  0.20112601730E+02  0.51100000000E-03 0.  1.
        -11    1    3    3    0    0  0.42151597996E+01  0.91692559798E+01 -0.10664287456E+01  0.10147911011E+02  0.51100000000E-03 0. -1.
        -12    1    3    3    0    0  0.10222927726E+02  0.13724743198E+02 -0.10859520423E+02  0.20268349981E+02  0.00000000000E+00 0.  1.
</event>
<event>
 7    1  0.2969156E-011  0.5052888E+02  0.7816164E-02  0.1300439E+00
        -11   -1    0    0    0    0  0.00000000000E+00  0.00000000000E+00  0.45593999997E+02  0.45594000000E+02  0.51100000000E-03 0. -1.
         11   -1    0    0    0    0 -0.00000000000E+00 -0.00000000000E+00 -0.45593999997E+02  0.45594000000E+02  0.51100000000E-03 0.  1.
    9900012    2    1    2    0    0 -0.19817918771E+02  0.19653142663E+02  0.29566337256E+02  0.50528877780E+02  0.30000054501E+02 0.  0.
         12    1    1    2    0    0  0.19817918771E+02 -0.19653142663E+02 -0.29566337256E+02  0.40659122220E+02  0.00000000000E+00 0. -1.
         11    1    3    3    0    0 -0.14330182917E+02  0.86823760167E+01  0.78908440755E+01  0.18520346007E+02  0.51100000000E-03 0. -1.
        -11    1    3    3    0    0 -0.18296069193E+01  0.10179982036E+02  0.34148307975E+00  0.10348724882E+02  0.51100000000E-03 0.  1.
         12    1    3    3    0    0 -0.36581289347E+01  0.79078461038E+00  0.21334010101E+02  0.21659806892E+02  0.00000000000E+00 0. -1.
</event>
<event>
 7    1  0.2969156E-011  0.5052885E+02  0.7816164E-02  0.1300439E+00
        -11   -1    0    0    0    0  0.00000000000E+00  0.00000000000E+00  0.45593999997E+02  0.45594000000E+02  0.51100000000E-03 0. -1.
         11   -1    0    0    0    0 -0.00000000000E+00 -0.00000000000E+00 -0.45593999997E+02  0.45594000000E+02  0.51100000000E-03 0.  1.
    9900012    2    1    2    0    0  0.39902318016E+02 -0.24974706088E+01 -0.73982248688E+01  0.50528854981E+02  0.29999985200E+02 0.  0.
         12    1    1    2    0    0 -0.39902318016E+02  0.24974706088E+01  0.73982248688E+01  0.40659145019E+02  0.00000000000E+00 0. -1.
         11    1    3    3    0    0  0.48227861536E+01  0.89502429753E+01  0.27857340183E+01  0.10541652142E+02  0.51100000000E-03 0. -1.
        -11    1    3    3    0    0  0.31716364767E+01 -0.46089898325E+01 -0.37254683475E+01  0.67216947183E+01  0.51100000000E-03 0.  1.
        -12    1    3    3    0    0  0.31907895385E+02 -0.68387237516E+01 -0.64584905396E+01  0.33265508121E+02  0.00000000000E+00 0.  1.
</event>
<event>
 7    1  0.2969156E-011  0.5052886E+02  0.7816164E-02  0.1300439E+00
        -11   -1    0    0    0    0  0.00000000000E+00  0.00000000000E+00  0.45593999997E+02  0.45594000000E+02  0.51100000000E-03 0.  1.
         11   -1    0    0    0    0 -0.00000000000E+00 -0.00000000000E+00 -0.45593999997E+02  0.45594000000E+02  0.51100000000E-03 0. -1.
    9900012    2    1    2    0    0  0.10934842571E+02 -0.44896078888E+01  0.38902933202E+02  0.50528861141E+02  0.30000003924E+02 0.  0.
         12    1    1    2    0    0 -0.10934842571E+02  0.44896078888E+01 -0.38902933202E+02  0.40659138859E+02  0.00000000000E+00 0. -1.
         11    1    3    3    0    0  0.67436631492E+01 -0.15026633546E+01 -0.28722597738E+00  0.69150190781E+01  0.51100000000E-03 0. -1.
        -11    1    3    3    0    0  0.10872508599E+02 -0.39880456772E+00  0.16051972063E+02  0.19391655310E+02  0.51100000000E-03 0.  1.
         12    1    3    3    0    0 -0.66813291765E+01 -0.25881399665E+01  0.23138187116E+02  0.24222186753E+02  0.00000000000E+00 0. -1.
</event>
<event>
 7    1  0.2969156E-011  0.5052887E+02  0.7816164E-02  0.1300439E+00
        -11   -1    0    0    0    0  0.00000000000E+00  0.00000000000E+00  0.45593999997E+02  0.45594000000E+02  0.51100000000E-03 0.  1.
         11   -1    0    0    0    0 -0.00000000000E+00 -0.00000000000E+00 -0.45593999997E+02  0.45594000000E+02  0.51100000000E-03 0. -1.
    9900012    2    1    2    0    0 -0.22383335596E+01  0.35435256153E+02  0.19811554844E+02  0.50528865466E+02  0.30000017070E+02 0.  0.
         12    1    1    2    0    0  0.22383335596E+01 -0.35435256153E+02 -0.19811554844E+02  0.40659134534E+02  0.00000000000E+00 0. -1.
         11    1    3    3    0    0  0.29080330248E+01  0.25242902541E+02  0.16198657285E+01  0.25461436526E+02  0.51100000000E-03 0. -1.
        -11    1    3    3    0    0 -0.30328447630E+01  0.11395462600E+02  0.72144062597E+01  0.13823978196E+02  0.51100000000E-03 0.  1.
        -12    1    3    3    0    0 -0.21135218214E+01 -0.12031089878E+01  0.10977282856E+02  0.11243450743E+02  0.00000000000E+00 0.  1.
</event>
<event>
 7    1  0.2969156E-011  0.5052886E+02  0.7816164E-02  0.1300439E+00
        -11   -1    0    0    0    0  0.00000000000E+00  0.00000000000E+00  0.45593999997E+02  0.45594000000E+02  0.51100000000E-03 0. -1.
         11   -1    0    0    0    0 -0.00000000000E+00 -0.00000000000E+00 -0.45593999997E+02  0.45594000000E+02  0.51100000000E-03 0.  1.
    9900012    2    1    2    0    0 -0.38783167400E+02  0.44014209969E+01  0.11386788194E+02  0.50528861720E+02  0.30000005683E+02 0.  0.
         12    1    1    2    0    0  0.38783167400E+02 -0.44014209969E+01 -0.11386788194E+02  0.40659138280E+02  0.00000000000E+00 0. -1.
         11    1    3    3    0    0 -0.76201827978E+01  0.12203210382E+02  0.57186965063E+01  0.15481893279E+02  0.51100000000E-03 0. -1.
        -11    1    3    3    0    0 -0.10732781483E+02  0.27988340110E+01 -0.85271326811E+00  0.11124441126E+02  0.51100000000E-03 0.  1.
         12    1    3    3    0    0 -0.20430203119E+02 -0.10600623396E+02  0.65208049556E+01  0.23922527315E+02  0.00000000000E+00 0. -1.
</event>
<event>
 7    1  0.2969156E-011  0.5052886E+02  0.7816164E-02  0.1300439E+00
        -11   -1    0    0    0    0  0.00000000000E+00  0.00000000000E+00  0.45593999997E+02  0.45594000000E+02  0.51100000000E-03 0.  1.
         11   -1    0    0    0    0 -0.00000000000E+00 -0.00000000000E+00 -0.45593999997E+02  0.45594000000E+02  0.51100000000E-03 0. -1.
    9900012    2    1    2    0    0 -0.36586362280E+02 -0.16621550574E+02  0.61909482188E+01  0.50528859721E+02  0.29999999608E+02 0.  0.
         12    1    1    2    0    0  0.36586362280E+02  0.16621550574E+02 -0.61909482188E+01  0.40659140279E+02  0.00000000000E+00 0. -1.
         11    1    3    3    0    0 -0.76758450213E+01 -0.49519194631E+01  0.78082254848E+01  0.12017008307E+02  0.51100000000E-03 0. -1.
        -11    1    3    3    0    0 -0.23437640802E+02  0.16734227822E+00  0.48817150336E+01  0.23941222854E+02  0.51100000000E-03 0.  1.
         12    1    3    3    0    0 -0.54728764561E+01 -0.11836973390E+02 -0.64989922996E+01  0.14570628560E+02  0.00000000000E+00 0. -1.
</event>
<event>
 7    1  0.2969156E-011  0.5052883E+02  0.7816164E-02  0.1300439E+00
        -11   -1    0    0    0    0  0.00000000000E+00  0.00000000000E+00  0.45593999997E+02  0.45594000000E+02  0.51100000000E-03 0.  1.
         11   -1    0    0    0    0 -0.00000000000E+00 -0.00000000000E+00 -0.45593999997E+02  0.45594000000E+02  0.51100000000E-03 0. -1.
    9900012    2    1    2    0    0 -0.76538771512E+01  0.21945732033E+02  0.33361220431E+02  0.50528831064E+02  0.29999912501E+02 0.  0.
         12    1    1    2    0    0  0.76538771512E+01 -0.21945732033E+02 -0.33361220431E+02  0.40659168936E+02  0.00000000000E+00 0. -1.
         11    1    3    3    0    0 -0.41823461413E+01  0.18074076103E+02  0.16087976781E+02  0.24555798570E+02  0.51100000000E-03 0. -1.
        -11    1    3    3    0    0 -0.35243469738E+01  0.19945221793E+01  0.21219653862E+02  0.21602612125E+02  0.51100000000E-03 0.  1.
         12    1    3    3    0    0  0.52815963900E-01  0.18771337509E+01 -0.39464102118E+01  0.43704203693E+01  0.00000000000E+00 0. -1.
</event>
<event>
 7    1  0.2969156E-011  0.5052886E+02  0.7816164E-02  0.1300439E+00
        -11   -1    0    0    0    0  0.00000000000E+00  0.00000000000E+00  0.45593999997E+02  0.45594000000E+02  0.51100000000E-03 0. -1.
         11   -1    0    0    0    0 -0.00000000000E+00 -0.00000000000E+00 -0.45593999997E+02  0.45594000000E+02  0.51100000000E-03 0.  1.
    9900012    2    1    2    0    0 -0.33072856374E+00  0.37144847773E+02 -0.16532283949E+02  0.50528861912E+02  0.30000006269E+02 0.  0.
         12    1    1    2    0    0  0.33072856374E+00 -0.37144847773E+02  0.16532283949E+02  0.40659138088E+02  0.00000000000E+00 0. -1.
         11    1    3    3    0    0 -0.25365054707E+01 -0.36755913423E+00  0.47127414414E+01  0.53645961520E+01  0.51100000000E-03 0. -1.
        -11    1    3    3    0    0 -0.41469643236E+01  0.14170200445E+02 -0.12802517896E+02  0.19542168726E+02  0.51100000000E-03 0.  1.
         12    1    3    3    0    0  0.63527412305E+01  0.23342206462E+02 -0.84425074941E+01  0.25622097035E+02  0.00000000000E+00 0. -1.
</event>
<event>
 7    1  0.2969156E-011  0.5052884E+02  0.7816164E-02  0.1300439E+00
        -11   -1    0    0    0    0  0.00000000000E+00  0.00000000000E+00  0.45593999997E+02  0.45594000000E+02  0.51100000000E-03 0.  1.
         11   -1    0    0    0    0 -0.00000000000E+00 -0.00000000000E+00 -0.45593999997E+02  0.45594000000E+02  0.51100000000E-03 0. -1.
    9900012    2    1    2    0    0 -0.29144281175E+02 -0.27532213792E+02  0.67642624653E+01  0.50528841522E+02  0.29999944289E+02 0.  0.
         12    1    1    2    0    0  0.29144281175E+02  0.27532213792E+02 -0.67642624653E+01  0.40659158478E+02  0.00000000000E+00 0. -1.
         11    1    3    3    0    0 -0.21669451271E+01 -0.84244853153E+01  0.89237926660E+01  0.12462009461E+02  0.51100000000E-03 0. -1.
        -11    1    3    3    0    0 -0.77209458564E+01 -0.16791341676E+02  0.51202314432E+00  0.18488491776E+02  0.51100000000E-03 0.  1.
         12    1    3    3    0    0 -0.19256390191E+02 -0.23163868008E+01 -0.26715533451E+01  0.19578340284E+02  0.00000000000E+00 0. -1.
</event>
<event>
 7    1  0.2969156E-011  0.5052886E+02  0.7816164E-02  0.1300439E+00
        -11   -1    0    0    0    0  0.00000000000E+00  0.00000000000E+00  0.45593999997E+02  0.45594000000E+02  0.51100000000E-03 0.  1.
         11   -1    0    0    0    0 -0.00000000000E+00 -0.00000000000E+00 -0.45593999997E+02  0.45594000000E+02  0.51100000000E-03 0. -1.
    9900012    2    1    2    0    0 -0.22826450815E+02 -0.32969925913E+02 -0.67158819008E+01  0.50528856610E+02  0.29999990150E+02 0.  0.
         12    1    1    2    0    0  0.22826450815E+02  0.32969925913E+02  0.67158819008E+01  0.40659143390E+02  0.00000000000E+00 0. -1.
         11    1    3    3    0    0 -0.16649391082E+02 -0.93052714608E+01 -0.12816318832E+01  0.19116298828E+02  0.51100000000E-03 0. -1.
        -11    1    3    3    0    0 -0.86549177043E+00 -0.16344977067E+02  0.54591711863E+01  0.17254271982E+02  0.51100000000E-03 0.  1.
         12    1    3    3    0    0 -0.53115679631E+01 -0.73196773857E+01 -0.10893421204E+02  0.14158285800E+02  0.00000000000E+00 0. -1.
</event>
<event>
 7    1  0.2969156E-011  0.5052886E+02  0.7816164E-02  0.1300439E+00
        -11   -1    0    0    0    0  0.00000000000E+00  0.00000000000E+00  0.45593999997E+02  0.45594000000E+02  0.51100000000E-03 0.  1.
         11   -1    0    0    0    0 -0.00000000000E+00 -0.00000000000E+00 -0.45593999997E+02  0.45594000000E+02  0.51100000000E-03 0. -1.
    9900012    2    1    2    0    0 -0.20463875589E+01 -0.17191970167E+02  0.36788777719E+02  0.50528859499E+02  0.29999998932E+02 0.  0.
         12    1    1    2    0    0  0.20463875589E+01  0.17191970167E+02 -0.36788777719E+02  0.40659140501E+02  0.00000000000E+00 0. -1.
         11    1    3    3    0    0 -0.29423551656E+00 -0.64734384547E+01  0.14422938136E+01  0.66386890025E+01  0.51100000000E-03 0. -1.
        -11    1    3    3    0    0 -0.99878766575E+01 -0.87249960599E+01  0.32246802739E+02  0.34867456510E+02  0.51100000000E-03 0.  1.
         12    1    3    3    0    0  0.82357246152E+01 -0.19935356520E+01  0.30996811669E+01  0.90227139858E+01  0.00000000000E+00 0. -1.
</event>
<event>
 7    1  0.2969156E-011  0.5052886E+02  0.7816164E-02  0.1300439E+00
        -11   -1    0    0    0    0  0.00000000000E+00  0.00000000000E+00  0.45593999997E+02  0.45594000000E+02  0.51100000000E-03 0. -1.
         11   -1    0    0    0    0 -0.00000000000E+00 -0.00000000000E+00 -0.45593999997E+02  0.45594000000E+02  0.51100000000E-03 0.  1.
    9900012    2    1    2    0    0 -0.35193277771E+02 -0.16742971203E+02 -0.11587567817E+02  0.50528860647E+02  0.30000002423E+02 0.  0.
         12    1    1    2    0    0  0.35193277771E+02  0.16742971203E+02  0.11587567817E+02  0.40659139353E+02  0.00000000000E+00 0. -1.
         11    1    3    3    0    0  0.10178639203E+01 -0.19324025771E+01 -0.55513290583E+01  0.59655243906E+01  0.51100000000E-03 0. -1.
        -11    1    3    3    0    0 -0.89853148448E+01 -0.14323175196E+02 -0.17637242355E+01  0.16999998647E+02  0.51100000000E-03 0.  1.
        -12    1    3    3    0    0 -0.27225826847E+02 -0.48739343002E+00 -0.42725145236E+01  0.27563337610E+02  0.00000000000E+00 0.  1.
</event>
<event>
 7    1  0.2969156E-011  0.5052891E+02  0.7816164E-02  0.1300439E+00
        -11   -1    0    0    0    0  0.00000000000E+00  0.00000000000E+00  0.45593999997E+02  0.45594000000E+02  0.51100000000E-03 0.  1.
         11   -1    0    0    0    0 -0.00000000000E+00 -0.00000000000E+00 -0.45593999997E+02  0.45594000000E+02  0.51100000000E-03 0. -1.
    9900012    2    1    2    0    0 -0.23455940325E+02  0.18358148292E+02  0.27675961064E+02  0.50528910412E+02  0.30000153689E+02 0.  0.
         12    1    1    2    0    0  0.23455940325E+02 -0.18358148292E+02 -0.27675961064E+02  0.40659089588E+02  0.00000000000E+00 0. -1.
         11    1    3    3    0    0 -0.17146055363E+02 -0.53500095265E-01  0.51026615171E+01  0.17889304950E+02  0.51100000000E-03 0. -1.
        -11    1    3    3    0    0  0.18896689769E+01 -0.12510195599E+01  0.19738426116E+01  0.30053208976E+01  0.51100000000E-03 0.  1.
        -12    1    3    3    0    0 -0.81995539389E+01  0.19662667947E+02  0.20599456936E+02  0.29634284564E+02  0.00000000000E+00 0.  1.
</event>
<event>
 7    1  0.2969156E-011  0.5052882E+02  0.7816164E-02  0.1300439E+00
        -11   -1    0    0    0    0  0.00000000000E+00  0.00000000000E+00  0.45593999997E+02  0.45594000000E+02  0.51100000000E-03 0. -1.
         11   -1    0    0    0    0 -0.00000000000E+00 -0.00000000000E+00 -0.45593999997E+02  0.45594000000E+02  0.51100000000E-03 0.  1.
    9900012    2    1    2    0    0 -0.35369179731E+02 -0.72155197113E+01 -0.18711653325E+02  0.50528824286E+02  0.29999891899E+02 0.  0.
         12    1    1    2    0    0  0.35369179731E+02  0.72155197113E+01  0.18711653325E+02  0.40659175714E+02  0.00000000000E+00 0. -1.
         11    1    3    3    0    0 -0.15675243842E+02 -0.11280120833E+02 -0.34434978489E-01  0.19312057931E+02  0.51100000000E-03 0. -1.
        -11    1    3    3    0    0 -0.27272129292E+01 -0.46362008562E+01 -0.71081726174E+01  0.89139310610E+01  0.51100000000E-03 0.  1.
        -12    1    3    3    0    0 -0.16966722961E+02  0.87008019774E+01 -0.11569045729E+02  0.22302835294E+02  0.00000000000E+00 0.  1.
</event>
<event>
 7    1  0.2969156E-011  0.5052885E+02  0.7816164E-02  0.1300439E+00
        -11   -1    0    0    0    0  0.00000000000E+00  0.00000000000E+00  0.45593999997E+02  0.45594000000E+02  0.51100000000E-03 0.  1.
         11   -1    0    0    0    0 -0.00000000000E+00 -0.00000000000E+00 -0.45593999997E+02  0.45594000000E+02  0.51100000000E-03 0. -1.
    9900012    2    1    2    0    0 -0.39810011780E+02  0.81449242030E+01 -0.14104677287E+01  0.50528852844E+02  0.29999978706E+02 0.  0.
         12    1    1    2    0    0  0.39810011780E+02 -0.81449242030E+01  0.14104677287E+01  0.40659147156E+02  0.00000000000E+00 0. -1.
         11    1    3    3    0    0 -0.75824699861E+01  0.59866496516E+01 -0.87188825382E+01  0.13013559779E+02  0.51100000000E-03 0. -1.
        -11    1    3    3    0    0 -0.23665362644E+02 -0.33259737434E+01 -0.16623715745E+01  0.23955687632E+02  0.51100000000E-03 0.  1.
         12    1    3    3    0    0 -0.85621791497E+01  0.54842482948E+01  0.89707863840E+01  0.13559605433E+02  0.00000000000E+00 0. -1.
</event>
<event>
 7    1  0.2969156E-011  0.5052884E+02  0.7816164E-02  0.1300439E+00
        -11   -1    0    0    0    0  0.00000000000E+00  0.00000000000E+00  0.45593999997E+02  0.45594000000E+02  0.51100000000E-03 0.  1.
         11   -1    0    0    0    0 -0.00000000000E+00 -0.00000000000E+00 -0.45593999997E+02  0.45594000000E+02  0.51100000000E-03 0. -1.
    9900012    2    1    2    0    0 -0.15289118293E+02  0.15442160806E+02  0.34364949501E+02  0.50528840850E+02  0.29999942249E+02 0.  0.
         12    1    1    2    0    0  0.15289118293E+02 -0.15442160806E+02 -0.34364949501E+02  0.40659159150E+02  0.00000000000E+00 0. -1.
         11    1    3    3    0    0 -0.83369323271E+01  0.22507335461E+01  0.24461267685E+02  0.25940775994E+02  0.51100000000E-03 0.  1.
        -11    1    3    3    0    0 -0.70752324173E+01 -0.18496827617E+01  0.45966837591E+01  0.86376930902E+01  0.51100000000E-03 0. -1.
        -12    1    3    3    0    0  0.12304645136E+00  0.15041110022E+02  0.53069980568E+01  0.15950371766E+02  0.00000000000E+00 0.  1.
</event>
<event>
 7    1  0.2969156E-011  0.5052886E+02  0.7816164E-02  0.1300439E+00
        -11   -1    0    0    0    0  0.00000000000E+00  0.00000000000E+00  0.45593999997E+02  0.45594000000E+02  0.51100000000E-03 0. -1.
         11   -1    0    0    0    0 -0.00000000000E+00 -0.00000000000E+00 -0.45593999997E+02  0.45594000000E+02  0.51100000000E-03 0.  1.
    9900012    2    1    2    0    0 -0.31417416818E+02 -0.25808936500E+02  0.10186741793E+00  0.50528860071E+02  0.30000000671E+02 0.  0.
         12    1    1    2    0    0  0.31417416818E+02  0.25808936500E+02 -0.10186741793E+00  0.40659139929E+02  0.00000000000E+00 0. -1.
         11    1    3    3    0    0 -0.47535885221E+01 -0.27884264250E+01 -0.64686221622E+01  0.84979408508E+01  0.51100000000E-03 0. -1.
        -11    1    3    3    0    0 -0.68554711272E+01  0.17401738367E+01 -0.45710935489E+01  0.84214360920E+01  0.51100000000E-03 0.  1.
        -12    1    3    3    0    0 -0.19808357169E+02 -0.24760683912E+02  0.11141583129E+02  0.33609483128E+02  0.00000000000E+00 0.  1.
</event>
<event>
 7    1  0.2969156E-011  0.5052887E+02  0.7816164E-02  0.1300439E+00
        -11   -1    0    0    0    0  0.00000000000E+00  0.00000000000E+00  0.45593999997E+02  0.45594000000E+02  0.51100000000E-03 0.  1.
         11   -1    0    0    0    0 -0.00000000000E+00 -0.00000000000E+00 -0.45593999997E+02  0.45594000000E+02  0.51100000000E-03 0. -1.
    9900012    2    1    2    0    0 -0.94428616162E+01 -0.18153378690E+01  0.39505715934E+02  0.50528872137E+02  0.30000037348E+02 0.  0.
         12    1    1    2    0    0  0.94428616162E+01  0.18153378690E+01 -0.39505715934E+02  0.40659127863E+02  0.00000000000E+00 0. -1.
         11    1    3    3    0    0 -0.66701729471E+01 -0.15783413716E+01  0.21991886950E+01  0.71985276138E+01  0.51100000000E-03 0. -1.
        -11    1    3    3    0    0 -0.51746713169E+00 -0.32197907678E+01 -0.20136855494E+01  0.38327215622E+01  0.51100000000E-03 0.  1.
        -12    1    3    3    0    0 -0.22552215374E+01  0.29827942703E+01  0.39320212789E+02  0.39497622961E+02  0.00000000000E+00 0.  1.
</event>
<event>
 7    1  0.2969156E-011  0.5052886E+02  0.7816164E-02  0.1300439E+00
        -11   -1    0    0    0    0  0.00000000000E+00  0.00000000000E+00  0.45593999997E+02  0.45594000000E+02  0.51100000000E-03 0.  1.
         11   -1    0    0    0    0 -0.00000000000E+00 -0.00000000000E+00 -0.45593999997E+02  0.45594000000E+02  0.51100000000E-03 0. -1.
    9900012    2    1    2    0    0  0.28902998543E+02 -0.25695823759E+02 -0.12550171934E+02  0.50528862048E+02  0.30000006681E+02 0.  0.
         12    1    1    2    0    0 -0.28902998543E+02  0.25695823759E+02  0.12550171934E+02  0.40659137952E+02  0.00000000000E+00 0. -1.
         11    1    3    3    0    0  0.13572796607E+02 -0.14279549176E+02 -0.29774004925E+01  0.19924639178E+02  0.51100000000E-03 0. -1.
        -11    1    3    3    0    0  0.10496925943E+01 -0.98499199672E-01  0.63311184920E+01  0.64183033782E+01  0.51100000000E-03 0.  1.
         12    1    3    3    0    0  0.14280509341E+02 -0.11317775384E+02 -0.15903889933E+02  0.24185919492E+02  0.00000000000E+00 0. -1.
</event>
<event>
 7    1  0.2969156E-011  0.5052886E+02  0.7816164E-02  0.1300439E+00
        -11   -1    0    0    0    0  0.00000000000E+00  0.00000000000E+00  0.45593999997E+02  0.45594000000E+02  0.51100000000E-03 0.  1.
         11   -1    0    0    0    0 -0.00000000000E+00 -0.00000000000E+00 -0.45593999997E+02  0.45594000000E+02  0.51100000000E-03 0. -1.
    9900012    2    1    2    0    0  0.10533746000E+02 -0.24711655505E+02  0.30521140962E+02  0.50528858737E+02  0.29999996618E+02 0.  0.
         12    1    1    2    0    0 -0.10533746000E+02  0.24711655505E+02 -0.30521140962E+02  0.40659141263E+02  0.00000000000E+00 0. -1.
         11    1    3    3    0    0 -0.52992813002E+01 -0.97339548395E+00  0.18519621325E+01  0.56973366644E+01  0.51100000000E-03 0. -1.
        -11    1    3    3    0    0  0.37759704191E+01 -0.12485601428E+02  0.24600485775E+02  0.27844785800E+02  0.51100000000E-03 0.  1.
         12    1    3    3    0    0  0.12057056881E+02 -0.11252658593E+02  0.40686930550E+01  0.16986736273E+02  0.00000000000E+00 0. -1.
</event>
<event>
 7    1  0.2969156E-011  0.5052886E+02  0.7816164E-02  0.1300439E+00
        -11   -1    0    0    0    0  0.00000000000E+00  0.00000000000E+00  0.45593999997E+02  0.45594000000E+02  0.51100000000E-03 0. -1.
         11   -1    0    0    0    0 -0.00000000000E+00 -0.00000000000E+00 -0.45593999997E+02  0.45594000000E+02  0.51100000000E-03 0.  1.
    9900012    2    1    2    0    0  0.34225924320E+02 -0.84156219198E+01 -0.20271392138E+02  0.50528856783E+02  0.29999990679E+02 0.  0.
         12    1    1    2    0    0 -0.34225924320E+02  0.84156219198E+01  0.20271392138E+02  0.40659143217E+02  0.00000000000E+00 0. -1.
         11    1    3    3    0    0  0.18350605946E+01 -0.96151220299E+01 -0.81895601286E+01  0.12762715792E+02  0.51100000000E-03 0. -1.
        -11    1    3    3    0    0  0.12723232912E+02 -0.35127571852E+01 -0.11543205734E+02  0.17534700387E+02  0.51100000000E-03 0.  1.
        -12    1    3    3    0    0  0.19667630814E+02  0.47122572953E+01 -0.53862627543E+00  0.20231440604E+02  0.00000000000E+00 0.  1.
</event>
<event>
 7    1  0.2969156E-011  0.5052885E+02  0.7816164E-02  0.1300439E+00
        -11   -1    0    0    0    0  0.00000000000E+00  0.00000000000E+00  0.45593999997E+02  0.45594000000E+02  0.51100000000E-03 0.  1.
         11   -1    0    0    0    0 -0.00000000000E+00 -0.00000000000E+00 -0.45593999997E+02  0.45594000000E+02  0.51100000000E-03 0. -1.
    9900012    2    1    2    0    0  0.38458249412E+01 -0.40231085063E+02  0.44537922947E+01  0.50528845549E+02  0.29999956532E+02 0.  0.
         12    1    1    2    0    0 -0.38458249412E+01  0.40231085063E+02 -0.44537922947E+01  0.40659154451E+02  0.00000000000E+00 0. -1.
         11    1    3    3    0    0  0.52316012524E+01 -0.64270738577E+01  0.10282003886E+02  0.13205927995E+02  0.51100000000E-03 0. -1.
        -11    1    3    3    0    0 -0.38860841891E+01 -0.12099413618E+02  0.40604869682E+01  0.13341102462E+02  0.51100000000E-03 0.  1.
         12    1    3    3    0    0  0.25003078779E+01 -0.21704597587E+02 -0.98886985594E+01  0.23981815092E+02  0.00000000000E+00 0. -1.
</event>
<event>
 7    1  0.2969156E-011  0.5052885E+02  0.7816164E-02  0.1300439E+00
        -11   -1    0    0    0    0  0.00000000000E+00  0.00000000000E+00  0.45593999997E+02  0.45594000000E+02  0.51100000000E-03 0. -1.
         11   -1    0    0    0    0 -0.00000000000E+00 -0.00000000000E+00 -0.45593999997E+02  0.45594000000E+02  0.51100000000E-03 0.  1.
    9900012    2    1    2    0    0 -0.19565252737E+02 -0.33188587233E+02  0.12995575685E+02  0.50528850666E+02  0.29999972085E+02 0.  0.
         12    1    1    2    0    0  0.19565252737E+02  0.33188587233E+02 -0.12995575685E+02  0.40659149334E+02  0.00000000000E+00 0. -1.
         11    1    3    3    0    0 -0.14524914213E+02 -0.15877579870E+02 -0.48996557812E+01  0.22069827875E+02  0.51100000000E-03 0. -1.
        -11    1    3    3    0    0 -0.15117005507E+01 -0.16779650975E+00 -0.16353806103E+01  0.22333526871E+01  0.51100000000E-03 0.  1.
         12    1    3    3    0    0 -0.35286379732E+01 -0.17143210854E+02  0.19530612076E+02  0.26225670104E+02  0.00000000000E+00 0. -1.
</event>
<event>
 7    1  0.2969156E-011  0.5052892E+02  0.7816164E-02  0.1300439E+00
        -11   -1    0    0    0    0  0.00000000000E+00  0.00000000000E+00  0.45593999997E+02  0.45594000000E+02  0.51100000000E-03 0. -1.
         11   -1    0    0    0    0 -0.00000000000E+00 -0.00000000000E+00 -0.45593999997E+02  0.45594000000E+02  0.51100000000E-03 0.  1.
    9900012    2    1    2    0    0  0.51247169413E+01  0.37133851559E+02 -0.15747233546E+02  0.50528917132E+02  0.30000174113E+02 0.  0.
         12    1    1    2    0    0 -0.51247169413E+01 -0.37133851559E+02  0.15747233546E+02  0.40659082868E+02  0.00000000000E+00 0. -1.
         11    1    3    3    0    0  0.46400988705E+01  0.14833165362E+02 -0.18224116995E+02  0.23951445733E+02  0.51100000000E-03 0. -1.
        -11    1    3    3    0    0  0.47107705793E+01  0.16653878140E+02 -0.31039507407E+01  0.17583444686E+02  0.51100000000E-03 0.  1.
         12    1    3    3    0    0 -0.42261525085E+01  0.56468080572E+01  0.55808341897E+01  0.89940267130E+01  0.00000000000E+00 0. -1.
</event>
<event>
 7    1  0.2969156E-011  0.5052886E+02  0.7816164E-02  0.1300439E+00
        -11   -1    0    0    0    0  0.00000000000E+00  0.00000000000E+00  0.45593999997E+02  0.45594000000E+02  0.51100000000E-03 0.  1.
         11   -1    0    0    0    0 -0.00000000000E+00 -0.00000000000E+00 -0.45593999997E+02  0.45594000000E+02  0.51100000000E-03 0. -1.
    9900012    2    1    2    0    0 -0.14530649730E+01 -0.10596695598E+02  0.39227081611E+02  0.50528864654E+02  0.30000014601E+02 0.  0.
         12    1    1    2    0    0  0.14530649730E+01  0.10596695598E+02 -0.39227081611E+02  0.40659135346E+02  0.00000000000E+00 0. -1.
         11    1    3    3    0    0  0.55678813126E+01  0.62548478026E+01  0.74609793428E+01  0.11215642485E+02  0.51100000000E-03 0. -1.
        -11    1    3    3    0    0  0.32983521259E+01 -0.48884444274E+01  0.15742541580E+02  0.16810818877E+02  0.51100000000E-03 0.  1.
        -12    1    3    3    0    0 -0.10319298412E+02 -0.11963098974E+02  0.16023560688E+02  0.22502403291E+02  0.00000000000E+00 0.  1.
</event>
<event>
 7    1  0.2969156E-011  0.5052882E+02  0.7816164E-02  0.1300439E+00
        -11   -1    0    0    0    0  0.00000000000E+00  0.00000000000E+00  0.45593999997E+02  0.45594000000E+02  0.51100000000E-03 0.  1.
         11   -1    0    0    0    0 -0.00000000000E+00 -0.00000000000E+00 -0.45593999997E+02  0.45594000000E+02  0.51100000000E-03 0. -1.
    9900012    2    1    2    0    0  0.42726656823E+01  0.27532379375E+02  0.29612178704E+02  0.50528822516E+02  0.29999886519E+02 0.  0.
         12    1    1    2    0    0 -0.42726656823E+01 -0.27532379375E+02 -0.29612178704E+02  0.40659177484E+02  0.00000000000E+00 0. -1.
         11    1    3    3    0    0 -0.90258895948E+01  0.10125664271E+02  0.99787704930E+01  0.16839584933E+02  0.51100000000E-03 0.  1.
        -11    1    3    3    0    0  0.10260400883E+01 -0.13986836894E+01  0.84061835337E+01  0.85832975126E+01  0.51100000000E-03 0. -1.
        -12    1    3    3    0    0  0.12272515189E+02  0.18805398794E+02  0.11227224677E+02  0.25105940070E+02  0.00000000000E+00 0.  1.
</event>
<event>
 7    1  0.2969156E-011  0.5052885E+02  0.7816164E-02  0.1300439E+00
        -11   -1    0    0    0    0  0.00000000000E+00  0.00000000000E+00  0.45593999997E+02  0.45594000000E+02  0.51100000000E-03 0. -1.
         11   -1    0    0    0    0 -0.00000000000E+00 -0.00000000000E+00 -0.45593999997E+02  0.45594000000E+02  0.51100000000E-03 0.  1.
    9900012    2    1    2    0    0  0.11472031040E+02 -0.45413127411E+01 -0.38741904571E+02  0.50528853582E+02  0.29999980949E+02 0.  0.
         12    1    1    2    0    0 -0.11472031040E+02  0.45413127411E+01  0.38741904571E+02  0.40659146418E+02  0.00000000000E+00 0. -1.
         11    1    3    3    0    0 -0.10683635591E+01 -0.31251031472E+01 -0.43252173530E+00  0.33308776153E+01  0.51100000000E-03 0. -1.
        -11    1    3    3    0    0 -0.14303225101E+01 -0.31423423027E+01 -0.31268244136E+02  0.31458277594E+02  0.51100000000E-03 0.  1.
         12    1    3    3    0    0  0.13970717109E+02  0.17261327088E+01 -0.70411387005E+01  0.15739698373E+02  0.00000000000E+00 0. -1.
</event>
<event>
 7    1  0.3307647E-011  0.5052886E+02  0.7816164E-02  0.1300439E+00
        -11   -1    0    0    0    0  0.00000000000E+00  0.00000000000E+00  0.45593999997E+02  0.45594000000E+02  0.51100000000E-03 0. -1.
         11   -1    0    0    0    0 -0.00000000000E+00 -0.00000000000E+00 -0.45593999997E+02  0.45594000000E+02  0.51100000000E-03 0.  1.
    9900012    2    1    2    0    0  0.32931600776E+02  0.20846777036E+02 -0.11579607430E+02  0.50528858953E+02  0.29999997273E+02 0.  0.
         12    1    1    2    0    0 -0.32931600776E+02 -0.20846777036E+02  0.11579607430E+02  0.40659141047E+02  0.00000000000E+00 0. -1.
         11    1    3    3    0    0 -0.20421597359E+01 -0.40023113430E-01  0.26206979607E+01  0.33226610268E+01  0.51100000000E-03 0. -1.
        -11    1    3    3    0    0  0.34441668139E+01  0.72957541736E+01 -0.96399236862E+01  0.12570538689E+02  0.51100000000E-03 0.  1.
        -12    1    3    3    0    0  0.31529593698E+02  0.13591045976E+02 -0.45603817044E+01  0.34635659237E+02  0.00000000000E+00 0.  1.
</event>
<event>
 7    1  0.2969156E-011  0.5052886E+02  0.7816164E-02  0.1300439E+00
        -11   -1    0    0    0    0  0.00000000000E+00  0.00000000000E+00  0.45593999997E+02  0.45594000000E+02  0.51100000000E-03 0. -1.
         11   -1    0    0    0    0 -0.00000000000E+00 -0.00000000000E+00 -0.45593999997E+02  0.45594000000E+02  0.51100000000E-03 0.  1.
    9900012    2    1    2    0    0  0.20360407417E+02 -0.71654443360E+01 -0.34456874780E+02  0.50528855859E+02  0.29999987868E+02 0.  0.
         12    1    1    2    0    0 -0.20360407417E+02  0.71654443360E+01  0.34456874780E+02  0.40659144141E+02  0.00000000000E+00 0. -1.
         11    1    3    3    0    0  0.10746607059E+01  0.19013619149E+01  0.21064080487E+01  0.30343084704E+01  0.51100000000E-03 0. -1.
        -11    1    3    3    0    0  0.75991583551E+01  0.65156907142E+01 -0.75006370629E+01  0.12508436745E+02  0.51100000000E-03 0.  1.
        -12    1    3    3    0    0  0.11686588356E+02 -0.15582496965E+02 -0.29062645766E+02  0.34986110644E+02  0.00000000000E+00 0.  1.
</event>
<event>
 7    1  0.2969156E-011  0.5052887E+02  0.7816164E-02  0.1300439E+00
        -11   -1    0    0    0    0  0.00000000000E+00  0.00000000000E+00  0.45593999997E+02  0.45594000000E+02  0.51100000000E-03 0. -1.
         11   -1    0    0    0    0 -0.00000000000E+00 -0.00000000000E+00 -0.45593999997E+02  0.45594000000E+02  0.51100000000E-03 0.  1.
    9900012    2    1    2    0    0 -0.65616305677E+01  0.89962251467E+01 -0.39104705259E+02  0.50528867742E+02  0.30000023987E+02 0.  0.
         12    1    1    2    0    0  0.65616305677E+01 -0.89962251467E+01  0.39104705259E+02  0.40659132258E+02  0.00000000000E+00 0. -1.
         11    1    3    3    0    0  0.76714669141E+01 -0.19091328282E+00 -0.64209042761E+01  0.10005791547E+02  0.51100000000E-03 0. -1.
        -11    1    3    3    0    0  0.22225525229E+00  0.92543045889E+01 -0.10018850144E+02  0.13640707800E+02  0.51100000000E-03 0.  1.
         12    1    3    3    0    0 -0.14455352734E+02 -0.67166159324E-01 -0.22664950839E+02  0.26882368394E+02  0.00000000000E+00 0. -1.
</event>
<event>
 7    1  0.2969156E-011  0.5052886E+02  0.7816164E-02  0.1300439E+00
        -11   -1    0    0    0    0  0.00000000000E+00  0.00000000000E+00  0.45593999997E+02  0.45594000000E+02  0.51100000000E-03 0.  1.
         11   -1    0    0    0    0 -0.00000000000E+00 -0.00000000000E+00 -0.45593999997E+02  0.45594000000E+02  0.51100000000E-03 0. -1.
    9900012    2    1    2    0    0 -0.40658014527E+02 -0.28921348386E+00 -0.89789599880E-01  0.50528857708E+02  0.29999993489E+02 0.  0.
         12    1    1    2    0    0  0.40658014527E+02  0.28921348386E+00  0.89789599880E-01  0.40659142292E+02  0.00000000000E+00 0. -1.
         11    1    3    3    0    0 -0.84174522436E+01 -0.39226202603E+01 -0.67242581692E+00  0.93108865701E+01  0.51100000000E-03 0. -1.
        -11    1    3    3    0    0 -0.29909423906E+02  0.12218306520E+02  0.81612030365E+00  0.32319138374E+02  0.51100000000E-03 0.  1.
         12    1    3    3    0    0 -0.23311383773E+01 -0.85848997436E+01 -0.23348408661E+00  0.88988327639E+01  0.00000000000E+00 0. -1.
</event>
<event>
 7    1  0.2969156E-011  0.5052887E+02  0.7816164E-02  0.1300439E+00
        -11   -1    0    0    0    0  0.00000000000E+00  0.00000000000E+00  0.45593999997E+02  0.45594000000E+02  0.51100000000E-03 0. -1.
         11   -1    0    0    0    0 -0.00000000000E+00 -0.00000000000E+00 -0.45593999997E+02  0.45594000000E+02  0.51100000000E-03 0.  1.
    9900012    2    1    2    0    0 -0.38251045521E+02 -0.52154748833E+01 -0.12760138966E+02  0.50528870544E+02  0.30000032506E+02 0.  0.
         12    1    1    2    0    0  0.38251045521E+02  0.52154748833E+01  0.12760138966E+02  0.40659129456E+02  0.00000000000E+00 0. -1.
         11    1    3    3    0    0 -0.14778959459E+02 -0.11453799431E+01  0.57538742772E+01  0.15900836688E+02  0.51100000000E-03 0. -1.
        -11    1    3    3    0    0 -0.17222053526E+02 -0.81997808871E+01 -0.59156318925E+01  0.19970734468E+02  0.51100000000E-03 0.  1.
        -12    1    3    3    0    0 -0.62500325363E+01  0.41296859469E+01 -0.12598381350E+02  0.14657299389E+02  0.00000000000E+00 0.  1.
</event>
<event>
 7    1  0.2969156E-011  0.5052887E+02  0.7816164E-02  0.1300439E+00
        -11   -1    0    0    0    0  0.00000000000E+00  0.00000000000E+00  0.45593999997E+02  0.45594000000E+02  0.51100000000E-03 0.  1.
         11   -1    0    0    0    0 -0.00000000000E+00 -0.00000000000E+00 -0.45593999997E+02  0.45594000000E+02  0.51100000000E-03 0. -1.
    9900012    2    1    2    0    0  0.18738267100E+02 -0.13121095625E+02  0.33613678633E+02  0.50528865780E+02  0.30000018024E+02 0.  0.
         12    1    1    2    0    0 -0.18738267100E+02  0.13121095625E+02 -0.33613678633E+02  0.40659134220E+02  0.00000000000E+00 0. -1.
         11    1    3    3    0    0  0.18583771517E+02 -0.40407194553E+01  0.56659339153E+01  0.19844061704E+02  0.51100000000E-03 0. -1.
        -11    1    3    3    0    0  0.37165615980E+01 -0.28236140612E+01  0.60969198383E+01  0.76784150874E+01  0.51100000000E-03 0.  1.
        -12    1    3    3    0    0 -0.35620660155E+01 -0.62567621084E+01  0.21850824879E+02  0.23006388988E+02  0.00000000000E+00 0.  1.
</event>
<event>
 7    1  0.2969156E-011  0.5052887E+02  0.7816164E-02  0.1300439E+00
        -11   -1    0    0    0    0  0.00000000000E+00  0.00000000000E+00  0.45593999997E+02  0.45594000000E+02  0.51100000000E-03 0.  1.
         11   -1    0    0    0    0 -0.00000000000E+00 -0.00000000000E+00 -0.45593999997E+02  0.45594000000E+02  0.51100000000E-03 0. -1.
    9900012    2    1    2    0    0 -0.22639610834E+02 -0.23822698220E+02  0.23939340787E+02  0.50528868596E+02  0.30000026584E+02 0.  0.
         12    1    1    2    0    0  0.22639610834E+02  0.23822698220E+02 -0.23939340787E+02  0.40659131404E+02  0.00000000000E+00 0. -1.
         11    1    3    3    0    0 -0.12504171739E+02 -0.62240008265E+01  0.51785242615E+01  0.14896630859E+02  0.51100000000E-03 0. -1.
        -11    1    3    3    0    0 -0.16863379795E+02 -0.11058898119E+02  0.89688255416E+01  0.22070628391E+02  0.51100000000E-03 0.  1.
         12    1    3    3    0    0  0.67279407000E+01 -0.65397992746E+01  0.97919909842E+01  0.13561609346E+02  0.00000000000E+00 0. -1.
</event>
<event>
 7    1  0.2969156E-011  0.5052887E+02  0.7816164E-02  0.1300439E+00
        -11   -1    0    0    0    0  0.00000000000E+00  0.00000000000E+00  0.45593999997E+02  0.45594000000E+02  0.51100000000E-03 0. -1.
         11   -1    0    0    0    0 -0.00000000000E+00 -0.00000000000E+00 -0.45593999997E+02  0.45594000000E+02  0.51100000000E-03 0.  1.
    9900012    2    1    2    0    0 -0.24993371968E+02 -0.31955427972E+02 -0.27105405780E+01  0.50528867577E+02  0.30000023486E+02 0.  0.
         12    1    1    2    0    0  0.24993371968E+02  0.31955427972E+02  0.27105405780E+01  0.40659132423E+02  0.00000000000E+00 0. -1.
         11    1    3    3    0    0  0.55167211220E+00 -0.56437788335E+01 -0.30722875689E+01  0.64494598850E+01  0.51100000000E-03 0.  1.
        -11    1    3    3    0    0 -0.10928579100E+02 -0.24691301355E+02  0.70754688382E+01  0.27913374273E+02  0.51100000000E-03 0. -1.
        -12    1    3    3    0    0 -0.14616464980E+02 -0.16203477831E+01 -0.67137218474E+01  0.16166033419E+02  0.00000000000E+00 0.  1.
</event>
<event>
 7    1  0.2969156E-011  0.5052886E+02  0.7816164E-02  0.1300439E+00
        -11   -1    0    0    0    0  0.00000000000E+00  0.00000000000E+00  0.45593999997E+02  0.45594000000E+02  0.51100000000E-03 0.  1.
         11   -1    0    0    0    0 -0.00000000000E+00 -0.00000000000E+00 -0.45593999997E+02  0.45594000000E+02  0.51100000000E-03 0. -1.
    9900012    2    1    2    0    0 -0.10695327184E+02  0.95509988464E+01  0.38046737298E+02  0.50528858081E+02  0.29999994624E+02 0.  0.
         12    1    1    2    0    0  0.10695327184E+02 -0.95509988464E+01 -0.38046737298E+02  0.40659141919E+02  0.00000000000E+00 0. -1.
         11    1    3    3    0    0 -0.46282970865E+01 -0.28199939109E+01  0.31450113188E+01  0.62661468252E+01  0.51100000000E-03 0. -1.
        -11    1    3    3    0    0 -0.72386493944E+01 -0.40490238998E+00  0.29439064384E+02  0.30318649427E+02  0.51100000000E-03 0.  1.
         12    1    3    3    0    0  0.11716192971E+01  0.12775895147E+02  0.54626615946E+01  0.13944061829E+02  0.00000000000E+00 0. -1.
</event>
<event>
 7    1  0.3191577E-011  0.5052886E+02  0.7816164E-02  0.1300439E+00
        -11   -1    0    0    0    0  0.00000000000E+00  0.00000000000E+00  0.45593999997E+02  0.45594000000E+02  0.51100000000E-03 0. -1.
         11   -1    0    0    0    0 -0.00000000000E+00 -0.00000000000E+00 -0.45593999997E+02  0.45594000000E+02  0.51100000000E-03 0.  1.
    9900012    2    1    2    0    0 -0.10778248602E+02  0.19868587803E+02 -0.33796951602E+02  0.50528863735E+02  0.30000011809E+02 0.  0.
         12    1    1    2    0    0  0.10778248602E+02 -0.19868587803E+02  0.33796951602E+02  0.40659136265E+02  0.00000000000E+00 0. -1.
         11    1    3    3    0    0 -0.11412534554E+00 -0.27827947443E+01  0.11582788852E+01  0.30163854893E+01  0.51100000000E-03 0. -1.
        -11    1    3    3    0    0  0.52472027066E+01  0.11173895911E+02 -0.10872397597E+02  0.16449866742E+02  0.51100000000E-03 0.  1.
        -12    1    3    3    0    0 -0.15911325963E+02  0.11477486636E+02 -0.24082832890E+02  0.31062611503E+02  0.00000000000E+00 0.  1.
</event>
<event>
 7    1  0.2969156E-011  0.5052887E+02  0.7816164E-02  0.1300439E+00
        -11   -1    0    0    0    0  0.00000000000E+00  0.00000000000E+00  0.45593999997E+02  0.45594000000E+02  0.51100000000E-03 0. -1.
         11   -1    0    0    0    0 -0.00000000000E+00 -0.00000000000E+00 -0.45593999997E+02  0.45594000000E+02  0.51100000000E-03 0.  1.
    9900012    2    1    2    0    0 -0.39917734456E+02  0.67746313408E+01  0.37207237429E+01  0.50528868933E+02  0.30000027610E+02 0.  0.
         12    1    1    2    0    0  0.39917734456E+02 -0.67746313408E+01 -0.37207237429E+01  0.40659131067E+02  0.00000000000E+00 0. -1.
         11    1    3    3    0    0 -0.12943647621E+02  0.19516994144E+01  0.55955914262E+01  0.14235792496E+02  0.51100000000E-03 0.  1.
        -11    1    3    3    0    0 -0.87593171674E+00 -0.62470870857E+01  0.38244411613E+01  0.73769711865E+01  0.51100000000E-03 0. -1.
         12    1    3    3    0    0 -0.26098155119E+02  0.11070019012E+02 -0.56993088446E+01  0.28916105250E+02  0.00000000000E+00 0. -1.
</event>
<event>
 7    1  0.2969156E-011  0.5052887E+02  0.7816164E-02  0.1300439E+00
        -11   -1    0    0    0    0  0.00000000000E+00  0.00000000000E+00  0.45593999997E+02  0.45594000000E+02  0.51100000000E-03 0.  1.
         11   -1    0    0    0    0 -0.00000000000E+00 -0.00000000000E+00 -0.45593999997E+02  0.45594000000E+02  0.51100000000E-03 0. -1.
    9900012    2    1    2    0    0 -0.29383577017E+01 -0.61214154675E+01  0.40088144047E+02  0.50528868597E+02  0.30000026586E+02 0.  0.
         12    1    1    2    0    0  0.29383577017E+01  0.61214154675E+01 -0.40088144047E+02  0.40659131403E+02  0.00000000000E+00 0. -1.
         11    1    3    3    0    0 -0.37563324387E+01  0.35367777902E+01  0.70860600898E+00  0.52077781504E+01  0.51100000000E-03 0. -1.
        -11    1    3    3    0    0 -0.61962676870E+01 -0.74091825717E+01  0.65374598727E+01  0.11663108568E+02  0.51100000000E-03 0.  1.
        -12    1    3    3    0    0  0.70142424240E+01 -0.22490106860E+01  0.32842078166E+02  0.33657981878E+02  0.00000000000E+00 0.  1.
</event>
<event>
 7    1  0.2969156E-011  0.5052886E+02  0.7816164E-02  0.1300439E+00
        -11   -1    0    0    0    0  0.00000000000E+00  0.00000000000E+00  0.45593999997E+02  0.45594000000E+02  0.51100000000E-03 0.  1.
         11   -1    0    0    0    0 -0.00000000000E+00 -0.00000000000E+00 -0.45593999997E+02  0.45594000000E+02  0.51100000000E-03 0. -1.
    9900012    2    1    2    0    0  0.34134786216E+02  0.15493128727E+02  0.15746271756E+02  0.50528859060E+02  0.29999997597E+02 0.  0.
         12    1    1    2    0    0 -0.34134786216E+02 -0.15493128727E+02 -0.15746271756E+02  0.40659140940E+02  0.00000000000E+00 0. -1.
         11    1    3    3    0    0  0.29410741947E+02  0.57760082846E+01  0.14219806031E+02  0.33174642385E+02  0.51100000000E-03 0. -1.
        -11    1    3    3    0    0  0.58539268614E+00 -0.15743885128E+01  0.46374441143E+01  0.49322684396E+01  0.51100000000E-03 0.  1.
         12    1    3    3    0    0  0.41386515837E+01  0.11291508955E+02 -0.31109783889E+01  0.12421948235E+02  0.00000000000E+00 0. -1.
</event>
<event>
 7    1  0.2969156E-011  0.5052887E+02  0.7816164E-02  0.1300439E+00
        -11   -1    0    0    0    0  0.00000000000E+00  0.00000000000E+00  0.45593999997E+02  0.45594000000E+02  0.51100000000E-03 0. -1.
         11   -1    0    0    0    0 -0.00000000000E+00 -0.00000000000E+00 -0.45593999997E+02  0.45594000000E+02  0.51100000000E-03 0.  1.
    9900012    2    1    2    0    0  0.38546218345E+02 -0.21144945896E+01  0.12762568480E+02  0.50528865845E+02  0.30000018222E+02 0.  0.
         12    1    1    2    0    0 -0.38546218345E+02  0.21144945896E+01 -0.12762568480E+02  0.40659134155E+02  0.00000000000E+00 0. -1.
         11    1    3    3    0    0  0.19034307175E+01 -0.25013906339E+01 -0.34982706877E+01  0.47029673256E+01  0.51100000000E-03 0. -1.
        -11    1    3    3    0    0  0.30468556174E+02 -0.51687270122E+01  0.19901162948E+02  0.36757379411E+02  0.51100000000E-03 0.  1.
         12    1    3    3    0    0  0.61742314531E+01  0.55556230566E+01 -0.36403237805E+01  0.90685191079E+01  0.00000000000E+00 0. -1.
</event>
<event>
 7    1  0.2969156E-011  0.5052874E+02  0.7816164E-02  0.1300439E+00
        -11   -1    0    0    0    0  0.00000000000E+00  0.00000000000E+00  0.45593999997E+02  0.45594000000E+02  0.51100000000E-03 0. -1.
         11   -1    0    0    0    0 -0.00000000000E+00 -0.00000000000E+00 -0.45593999997E+02  0.45594000000E+02  0.51100000000E-03 0.  1.
    9900012    2    1    2    0    0 -0.38612651439E+02 -0.12427413682E+02  0.27924416834E+01  0.50528742844E+02  0.29999644345E+02 0.  0.
         12    1    1    2    0    0  0.38612651439E+02  0.12427413682E+02 -0.27924416834E+01  0.40659257156E+02  0.00000000000E+00 0. -1.
         11    1    3    3    0    0 -0.10730763900E+02  0.27143844307E+01 -0.31726822845E+01  0.11514473060E+02  0.51100000000E-03 0. -1.
        -11    1    3    3    0    0 -0.17251849819E+02  0.15573868999E+01  0.80654808270E+01  0.19107688436E+02  0.51100000000E-03 0.  1.
         12    1    3    3    0    0 -0.10630037720E+02 -0.16699185013E+02 -0.21003568592E+01  0.19906581348E+02  0.00000000000E+00 0. -1.
</event>
<event>
 7    1  0.2969156E-011  0.5052885E+02  0.7816164E-02  0.1300439E+00
        -11   -1    0    0    0    0  0.00000000000E+00  0.00000000000E+00  0.45593999997E+02  0.45594000000E+02  0.51100000000E-03 0.  1.
         11   -1    0    0    0    0 -0.00000000000E+00 -0.00000000000E+00 -0.45593999997E+02  0.45594000000E+02  0.51100000000E-03 0. -1.
    9900012    2    1    2    0    0  0.31269570561E+02 -0.89983956403E+01  0.24380517739E+02  0.50528845896E+02  0.29999957586E+02 0.  0.
         12    1    1    2    0    0 -0.31269570561E+02  0.89983956403E+01 -0.24380517739E+02  0.40659154104E+02  0.00000000000E+00 0. -1.
         11    1    3    3    0    0  0.42071932764E+01 -0.97908870068E+01 -0.22867825006E+01  0.10899142999E+02  0.51100000000E-03 0. -1.
        -11    1    3    3    0    0  0.95752149754E+01 -0.49815771965E+01  0.82562502863E+01  0.13589206093E+02  0.51100000000E-03 0.  1.
        -12    1    3    3    0    0  0.17487162310E+02  0.57740685630E+01  0.18411049954E+02  0.26040496804E+02  0.00000000000E+00 0.  1.
</event>
<event>
 7    1  0.2969156E-011  0.5052885E+02  0.7816164E-02  0.1300439E+00
        -11   -1    0    0    0    0  0.00000000000E+00  0.00000000000E+00  0.45593999997E+02  0.45594000000E+02  0.51100000000E-03 0.  1.
         11   -1    0    0    0    0 -0.00000000000E+00 -0.00000000000E+00 -0.45593999997E+02  0.45594000000E+02  0.51100000000E-03 0. -1.
    9900012    2    1    2    0    0  0.12880289544E+02 -0.31512978652E+02  0.22230531090E+02  0.50528853491E+02  0.29999980671E+02 0.  0.
         12    1    1    2    0    0 -0.12880289544E+02  0.31512978652E+02 -0.22230531090E+02  0.40659146509E+02  0.00000000000E+00 0. -1.
         11    1    3    3    0    0  0.72494915325E+01 -0.10297755908E+02  0.75464334177E+00  0.12616195586E+02  0.51100000000E-03 0. -1.
        -11    1    3    3    0    0  0.28696906461E+01 -0.25418781257E+02  0.14795981195E+02  0.29551152681E+02  0.51100000000E-03 0.  1.
        -12    1    3    3    0    0  0.27611073651E+01  0.42035585127E+01  0.66799065535E+01  0.83615052242E+01  0.00000000000E+00 0.  1.
</event>
<event>
 7    1  0.2969156E-011  0.5052885E+02  0.7816164E-02  0.1300439E+00
        -11   -1    0    0    0    0  0.00000000000E+00  0.00000000000E+00  0.45593999997E+02  0.45594000000E+02  0.51100000000E-03 0.  1.
         11   -1    0    0    0    0 -0.00000000000E+00 -0.00000000000E+00 -0.45593999997E+02  0.45594000000E+02  0.51100000000E-03 0. -1.
    9900012    2    1    2    0    0 -0.52626970782E+01 -0.19695683557E+02  0.35178833027E+02  0.50528853127E+02  0.29999979565E+02 0.  0.
         12    1    1    2    0    0  0.52626970782E+01  0.19695683557E+02 -0.35178833027E+02  0.40659146873E+02  0.00000000000E+00 0. -1.
         11    1    3    3    0    0 -0.32368560976E+01 -0.55638118681E+00 -0.20759410063E+01  0.38853994318E+01  0.51100000000E-03 0. -1.
        -11    1    3    3    0    0 -0.11947954244E+00 -0.13204459601E+02  0.55368923842E+01  0.14318840953E+02  0.51100000000E-03 0.  1.
         12    1    3    3    0    0 -0.19063614382E+01 -0.59348427691E+01  0.31717881649E+02  0.32324612742E+02  0.00000000000E+00 0. -1.
</event>
<event>
 7    1  0.2969156E-011  0.5052886E+02  0.7816164E-02  0.1300439E+00
        -11   -1    0    0    0    0  0.00000000000E+00  0.00000000000E+00  0.45593999997E+02  0.45594000000E+02  0.51100000000E-03 0. -1.
         11   -1    0    0    0    0 -0.00000000000E+00 -0.00000000000E+00 -0.45593999997E+02  0.45594000000E+02  0.51100000000E-03 0.  1.
    9900012    2    1    2    0    0  0.19169045062E+02 -0.28485802613E+02 -0.21777804510E+02  0.50528855784E+02  0.29999987640E+02 0.  0.
         12    1    1    2    0    0 -0.19169045062E+02  0.28485802613E+02  0.21777804510E+02  0.40659144216E+02  0.00000000000E+00 0. -1.
         11    1    3    3    0    0 -0.28744534867E+01 -0.23903462959E+01 -0.14559957060E+00  0.37413149771E+01  0.51100000000E-03 0. -1.
        -11    1    3    3    0    0  0.78642252122E+01 -0.15859061640E+02 -0.23253191742E+02  0.29224421307E+02  0.51100000000E-03 0.  1.
        -12    1    3    3    0    0  0.14179273336E+02 -0.10236394677E+02  0.16209868025E+01  0.17563119499E+02  0.00000000000E+00 0.  1.
</event>
<event>
 7    1  0.2969156E-011  0.5052887E+02  0.7816164E-02  0.1300439E+00
        -11   -1    0    0    0    0  0.00000000000E+00  0.00000000000E+00  0.45593999997E+02  0.45594000000E+02  0.51100000000E-03 0.  1.
         11   -1    0    0    0    0 -0.00000000000E+00 -0.00000000000E+00 -0.45593999997E+02  0.45594000000E+02  0.51100000000E-03 0. -1.
    9900012    2    1    2    0    0  0.26382607680E+02  0.80443743050E+01  0.29873251446E+02  0.50528866980E+02  0.30000021674E+02 0.  0.
         12    1    1    2    0    0 -0.26382607680E+02 -0.80443743050E+01 -0.29873251446E+02  0.40659133020E+02  0.00000000000E+00 0. -1.
         11    1    3    3    0    0  0.43871523125E+01  0.12727716270E+02  0.76768946595E+01  0.15497631391E+02  0.51100000000E-03 0. -1.
        -11    1    3    3    0    0  0.12918406526E+02  0.47036959060E+01  0.13957750705E+02  0.19591548875E+02  0.51100000000E-03 0.  1.
         12    1    3    3    0    0  0.90770488418E+01 -0.93870378708E+01  0.82386060817E+01  0.15439686714E+02  0.00000000000E+00 0. -1.
</event>
<event>
 7    1  0.2969156E-011  0.5052886E+02  0.7816164E-02  0.1300439E+00
        -11   -1    0    0    0    0  0.00000000000E+00  0.00000000000E+00  0.45593999997E+02  0.45594000000E+02  0.51100000000E-03 0. -1.
         11   -1    0    0    0    0 -0.00000000000E+00 -0.00000000000E+00 -0.45593999997E+02  0.45594000000E+02  0.51100000000E-03 0.  1.
    9900012    2    1    2    0    0  0.23421215040E+02  0.27239549487E+02 -0.19042564119E+02  0.50528860579E+02  0.30000002216E+02 0.  0.
         12    1    1    2    0    0 -0.23421215040E+02 -0.27239549487E+02  0.19042564119E+02  0.40659139421E+02  0.00000000000E+00 0. -1.
         11    1    3    3    0    0  0.13167154439E+02  0.49529777207E+01 -0.14793741317E+02  0.20414718385E+02  0.51100000000E-03 0. -1.
        -11    1    3    3    0    0 -0.38309662726E+01  0.98193201476E+01 -0.40827886073E+01  0.11303296591E+02  0.51100000000E-03 0.  1.
         12    1    3    3    0    0  0.14085026873E+02  0.12467251619E+02 -0.16603419527E+00  0.18810845603E+02  0.00000000000E+00 0. -1.
</event>
<event>
 7    1  0.2969156E-011  0.5052885E+02  0.7816164E-02  0.1300439E+00
        -11   -1    0    0    0    0  0.00000000000E+00  0.00000000000E+00  0.45593999997E+02  0.45594000000E+02  0.51100000000E-03 0.  1.
         11   -1    0    0    0    0 -0.00000000000E+00 -0.00000000000E+00 -0.45593999997E+02  0.45594000000E+02  0.51100000000E-03 0. -1.
    9900012    2    1    2    0    0  0.25432800788E+02 -0.22915871854E+02  0.21936308794E+02  0.50528853645E+02  0.29999981141E+02 0.  0.
         12    1    1    2    0    0 -0.25432800788E+02  0.22915871854E+02 -0.21936308794E+02  0.40659146355E+02  0.00000000000E+00 0. -1.
         11    1    3    3    0    0  0.45583040874E+01 -0.18899711771E+01 -0.53290536881E+01  0.72628465959E+01  0.51100000000E-03 0. -1.
        -11    1    3    3    0    0  0.10618386475E+02 -0.10928425799E+02  0.37441148345E+01  0.15690730319E+02  0.51100000000E-03 0.  1.
        -12    1    3    3    0    0  0.10256110226E+02 -0.10097474878E+02  0.23521247648E+02  0.27575276731E+02  0.00000000000E+00 0.  1.
</event>
<event>
 7    1  0.2969156E-011  0.5052889E+02  0.7816164E-02  0.1300439E+00
        -11   -1    0    0    0    0  0.00000000000E+00  0.00000000000E+00  0.45593999997E+02  0.45594000000E+02  0.51100000000E-03 0.  1.
         11   -1    0    0    0    0 -0.00000000000E+00 -0.00000000000E+00 -0.45593999997E+02  0.45594000000E+02  0.51100000000E-03 0. -1.
    9900012    2    1    2    0    0  0.47250389229E+01 -0.11274987964E+02  0.38777723734E+02  0.50528890265E+02  0.30000092450E+02 0.  0.
         12    1    1    2    0    0 -0.47250389229E+01  0.11274987964E+02 -0.38777723734E+02  0.40659109735E+02  0.00000000000E+00 0. -1.
         11    1    3    3    0    0  0.22351774224E+01  0.36837222062E+01  0.49603848783E+01  0.65704829202E+01  0.51100000000E-03 0. -1.
        -11    1    3    3    0    0 -0.11303371613E+01 -0.10501217501E+02  0.36223791250E+02  0.37732165110E+02  0.51100000000E-03 0.  1.
         12    1    3    3    0    0  0.36201986617E+01 -0.44574926690E+01 -0.24064523940E+01  0.62262422350E+01  0.00000000000E+00 0. -1.
</event>
<event>
 7    1  0.2969156E-011  0.5052887E+02  0.7816164E-02  0.1300439E+00
        -11   -1    0    0    0    0  0.00000000000E+00  0.00000000000E+00  0.45593999997E+02  0.45594000000E+02  0.51100000000E-03 0.  1.
         11   -1    0    0    0    0 -0.00000000000E+00 -0.00000000000E+00 -0.45593999997E+02  0.45594000000E+02  0.51100000000E-03 0. -1.
    9900012    2    1    2    0    0 -0.31902773689E+02 -0.24809082256E+02 -0.44595571311E+01  0.50528865956E+02  0.30000018560E+02 0.  0.
         12    1    1    2    0    0  0.31902773689E+02  0.24809082256E+02  0.44595571311E+01  0.40659134044E+02  0.00000000000E+00 0. -1.
         11    1    3    3    0    0 -0.99444845088E+01  0.34538744840E+01 -0.26493691392E+01  0.10855467664E+02  0.51100000000E-03 0. -1.
        -11    1    3    3    0    0 -0.19197135518E+02 -0.11326782085E+02  0.86484941852E+00  0.22306366116E+02  0.51100000000E-03 0.  1.
        -12    1    3    3    0    0 -0.27611536616E+01 -0.16936174655E+02 -0.26750374104E+01  0.17367032177E+02  0.00000000000E+00 0.  1.
</event>
<event>
 7    1  0.2969156E-011  0.5052885E+02  0.7816164E-02  0.1300439E+00
        -11   -1    0    0    0    0  0.00000000000E+00  0.00000000000E+00  0.45593999997E+02  0.45594000000E+02  0.51100000000E-03 0.  1.
         11   -1    0    0    0    0 -0.00000000000E+00 -0.00000000000E+00 -0.45593999997E+02  0.45594000000E+02  0.51100000000E-03 0. -1.
    9900012    2    1    2    0    0 -0.15119639428E+02 -0.26822492482E+02  0.26554041573E+02  0.50528846993E+02  0.29999960920E+02 0.  0.
         12    1    1    2    0    0  0.15119639428E+02  0.26822492482E+02 -0.26554041573E+02  0.40659153007E+02  0.00000000000E+00 0. -1.
         11    1    3    3    0    0 -0.97953375734E+01 -0.31547617574E+01  0.78280226321E+01  0.12929775656E+02  0.51100000000E-03 0. -1.
        -11    1    3    3    0    0 -0.48538335221E+01 -0.14932005936E+02 -0.12907287344E+01  0.15754062399E+02  0.51100000000E-03 0.  1.
        -12    1    3    3    0    0 -0.47046833245E+00 -0.87357247884E+01  0.20016747675E+02  0.21845008938E+02  0.00000000000E+00 0.  1.
</event>
<event>
 7    1  0.2969156E-011  0.5052888E+02  0.7816164E-02  0.1300439E+00
        -11   -1    0    0    0    0  0.00000000000E+00  0.00000000000E+00  0.45593999997E+02  0.45594000000E+02  0.51100000000E-03 0. -1.
         11   -1    0    0    0    0 -0.00000000000E+00 -0.00000000000E+00 -0.45593999997E+02  0.45594000000E+02  0.51100000000E-03 0.  1.
    9900012    2    1    2    0    0  0.21616930619E+02  0.27799059034E+02 -0.20324490066E+02  0.50528877174E+02  0.30000052657E+02 0.  0.
         12    1    1    2    0    0 -0.21616930619E+02 -0.27799059034E+02  0.20324490066E+02  0.40659122826E+02  0.00000000000E+00 0. -1.
         11    1    3    3    0    0  0.45217209052E+01  0.10018425369E+02  0.50622644093E+01  0.12101294477E+02  0.51100000000E-03 0. -1.
        -11    1    3    3    0    0  0.68452029986E+01  0.15127362415E+02 -0.89137644800E+01  0.18845399842E+02  0.51100000000E-03 0.  1.
         12    1    3    3    0    0  0.10250006715E+02  0.26532712503E+01 -0.16472989995E+02  0.19582182855E+02  0.00000000000E+00 0. -1.
</event>
<event>
 7    1  0.2969156E-011  0.5052886E+02  0.7816164E-02  0.1300439E+00
        -11   -1    0    0    0    0  0.00000000000E+00  0.00000000000E+00  0.45593999997E+02  0.45594000000E+02  0.51100000000E-03 0.  1.
         11   -1    0    0    0    0 -0.00000000000E+00 -0.00000000000E+00 -0.45593999997E+02  0.45594000000E+02  0.51100000000E-03 0. -1.
    9900012    2    1    2    0    0 -0.23934783324E+01 -0.18415344491E+02  0.36170596307E+02  0.50528859718E+02  0.29999999600E+02 0.  0.
         12    1    1    2    0    0  0.23934783324E+01  0.18415344491E+02 -0.36170596307E+02  0.40659140282E+02  0.00000000000E+00 0. -1.
         11    1    3    3    0    0 -0.27666931149E+01  0.31858292009E+01  0.37311230425E+01  0.56325285538E+01  0.51100000000E-03 0. -1.
        -11    1    3    3    0    0 -0.14633067767E+01 -0.13467132788E+02  0.24462583721E+01  0.13765504442E+02  0.51100000000E-03 0.  1.
        -12    1    3    3    0    0  0.18365215593E+01 -0.81340409043E+01  0.29993214892E+02  0.31130826723E+02  0.00000000000E+00 0.  1.
</event>
<event>
 7    1  0.2969156E-011  0.5052887E+02  0.7816164E-02  0.1300439E+00
        -11   -1    0    0    0    0  0.00000000000E+00  0.00000000000E+00  0.45593999997E+02  0.45594000000E+02  0.51100000000E-03 0. -1.
         11   -1    0    0    0    0 -0.00000000000E+00 -0.00000000000E+00 -0.45593999997E+02  0.45594000000E+02  0.51100000000E-03 0.  1.
    9900012    2    1    2    0    0 -0.30084550727E+02 -0.22464892940E+02  0.15601718794E+02  0.50528865275E+02  0.30000016490E+02 0.  0.
         12    1    1    2    0    0  0.30084550727E+02  0.22464892940E+02 -0.15601718794E+02  0.40659134725E+02  0.00000000000E+00 0. -1.
         11    1    3    3    0    0 -0.89148082250E+01 -0.19172849957E+01  0.30300344872E+00  0.91236834006E+01  0.51100000000E-03 0. -1.
        -11    1    3    3    0    0 -0.16743844352E+02 -0.10298260532E+02  0.21088184459E+02  0.28829186907E+02  0.51100000000E-03 0.  1.
         12    1    3    3    0    0 -0.44258981500E+01 -0.10249347412E+02 -0.57894691139E+01  0.12575994968E+02  0.00000000000E+00 0. -1.
</event>
<event>
 7    1  0.2969156E-011  0.5052887E+02  0.7816164E-02  0.1300439E+00
        -11   -1    0    0    0    0  0.00000000000E+00  0.00000000000E+00  0.45593999997E+02  0.45594000000E+02  0.51100000000E-03 0. -1.
         11   -1    0    0    0    0 -0.00000000000E+00 -0.00000000000E+00 -0.45593999997E+02  0.45594000000E+02  0.51100000000E-03 0.  1.
    9900012    2    1    2    0    0 -0.20930159635E+02 -0.33021444900E+02 -0.11165915934E+02  0.50528867148E+02  0.30000022183E+02 0.  0.
         12    1    1    2    0    0  0.20930159635E+02  0.33021444900E+02  0.11165915934E+02  0.40659132852E+02  0.00000000000E+00 0. -1.
         11    1    3    3    0    0 -0.13361663767E+02 -0.30092608142E+02 -0.80680967599E+01  0.33899753819E+02  0.51100000000E-03 0. -1.
        -11    1    3    3    0    0 -0.99646546731E+01 -0.57404309796E+01  0.44804115043E+00  0.11508589476E+02  0.51100000000E-03 0.  1.
         12    1    3    3    0    0  0.23961588059E+01  0.28115942214E+01 -0.35458603246E+01  0.51205238532E+01  0.00000000000E+00 0. -1.
</event>
<event>
 7    1  0.2969156E-011  0.5052885E+02  0.7816164E-02  0.1300439E+00
        -11   -1    0    0    0    0  0.00000000000E+00  0.00000000000E+00  0.45593999997E+02  0.45594000000E+02  0.51100000000E-03 0.  1.
         11   -1    0    0    0    0 -0.00000000000E+00 -0.00000000000E+00 -0.45593999997E+02  0.45594000000E+02  0.51100000000E-03 0. -1.
    9900012    2    1    2    0    0 -0.10120096402E+01  0.19750589306E+02  0.35525435371E+02  0.50528849742E+02  0.29999969275E+02 0.  0.
         12    1    1    2    0    0  0.10120096402E+01 -0.19750589306E+02 -0.35525435371E+02  0.40659150258E+02  0.00000000000E+00 0. -1.
         11    1    3    3    0    0 -0.32789948600E+01 -0.17968755218E+01  0.11108626628E+02  0.11721013385E+02  0.51100000000E-03 0. -1.
        -11    1    3    3    0    0  0.70046142479E+01 -0.81264287017E+00  0.80141822893E+01  0.10674836168E+02  0.51100000000E-03 0.  1.
         12    1    3    3    0    0 -0.47376290281E+01  0.22360107698E+02  0.16402626453E+02  0.28133000189E+02  0.00000000000E+00 0. -1.
</event>
<event>
 7    1  0.2969156E-011  0.5052886E+02  0.7816164E-02  0.1300439E+00
        -11   -1    0    0    0    0  0.00000000000E+00  0.00000000000E+00  0.45593999997E+02  0.45594000000E+02  0.51100000000E-03 0.  1.
         11   -1    0    0    0    0 -0.00000000000E+00 -0.00000000000E+00 -0.45593999997E+02  0.45594000000E+02  0.51100000000E-03 0. -1.
    9900012    2    1    2    0    0  0.26726596107E+02  0.12583013629E+02 -0.27937835045E+02  0.50528858366E+02  0.29999995488E+02 0.  0.
         12    1    1    2    0    0 -0.26726596107E+02 -0.12583013629E+02  0.27937835045E+02  0.40659141634E+02  0.00000000000E+00 0. -1.
         11    1    3    3    0    0  0.80228147179E+01 -0.68190348897E+01 -0.37004641850E+01  0.11160565768E+02  0.51100000000E-03 0. -1.
        -11    1    3    3    0    0  0.10106351242E+02  0.59229105195E+01 -0.18513725723E+01  0.11859459731E+02  0.51100000000E-03 0.  1.
         12    1    3    3    0    0  0.85974301473E+01  0.13479137999E+02 -0.22385998288E+02  0.27508832867E+02  0.00000000000E+00 0. -1.
</event>
<event>
 7    1  0.2969156E-011  0.5052886E+02  0.7816164E-02  0.1300439E+00
        -11   -1    0    0    0    0  0.00000000000E+00  0.00000000000E+00  0.45593999997E+02  0.45594000000E+02  0.51100000000E-03 0.  1.
         11   -1    0    0    0    0 -0.00000000000E+00 -0.00000000000E+00 -0.45593999997E+02  0.45594000000E+02  0.51100000000E-03 0. -1.
    9900012    2    1    2    0    0  0.79415633050E+01  0.11980260804E+02  0.38033810385E+02  0.50528858235E+02  0.29999995090E+02 0.  0.
         12    1    1    2    0    0 -0.79415633050E+01 -0.11980260804E+02 -0.38033810385E+02  0.40659141765E+02  0.00000000000E+00 0. -1.
         11    1    3    3    0    0  0.64649055160E+01  0.90450504511E+01  0.55807731755E+01  0.12439974698E+02  0.51100000000E-03 0. -1.
        -11    1    3    3    0    0 -0.14864065328E+01 -0.31532250823E+00 -0.24645790483E+01  0.28953381169E+01  0.51100000000E-03 0.  1.
        -12    1    3    3    0    0  0.29630643218E+01  0.32505328614E+01  0.34917616258E+02  0.35193545420E+02  0.00000000000E+00 0.  1.
</event>
<event>
 7    1  0.2969156E-011  0.5052886E+02  0.7816164E-02  0.1300439E+00
        -11   -1    0    0    0    0  0.00000000000E+00  0.00000000000E+00  0.45593999997E+02  0.45594000000E+02  0.51100000000E-03 0.  1.
         11   -1    0    0    0    0 -0.00000000000E+00 -0.00000000000E+00 -0.45593999997E+02  0.45594000000E+02  0.51100000000E-03 0. -1.
    9900012    2    1    2    0    0  0.44565042661E+01  0.13068028766E+02  0.38243064465E+02  0.50528858521E+02  0.29999995962E+02 0.  0.
         12    1    1    2    0    0 -0.44565042661E+01 -0.13068028766E+02 -0.38243064465E+02  0.40659141479E+02  0.00000000000E+00 0. -1.
         11    1    3    3    0    0 -0.27797842151E+01 -0.27407641739E+01  0.18890398722E+02  0.19289534797E+02  0.51100000000E-03 0. -1.
        -11    1    3    3    0    0  0.67322969552E+01 -0.15552166837E+01  0.75684592890E+01  0.10248126536E+02  0.51100000000E-03 0.  1.
         12    1    3    3    0    0  0.50399152595E+00  0.17364009623E+02  0.11784206454E+02  0.20991197189E+02  0.00000000000E+00 0. -1.
</event>
<event>
 7    1  0.2969156E-011  0.5052884E+02  0.7816164E-02  0.1300439E+00
        -11   -1    0    0    0    0  0.00000000000E+00  0.00000000000E+00  0.45593999997E+02  0.45594000000E+02  0.51100000000E-03 0.  1.
         11   -1    0    0    0    0 -0.00000000000E+00 -0.00000000000E+00 -0.45593999997E+02  0.45594000000E+02  0.51100000000E-03 0. -1.
    9900012    2    1    2    0    0  0.32474261540E+02 -0.54379603498E+01  0.23854098247E+02  0.50528842624E+02  0.29999947640E+02 0.  0.
         12    1    1    2    0    0 -0.32474261540E+02  0.54379603498E+01 -0.23854098247E+02  0.40659157376E+02  0.00000000000E+00 0. -1.
         11    1    3    3    0    0  0.30255425233E+02 -0.48859039223E+01  0.18636758556E+02  0.35869089519E+02  0.51100000000E-03 0. -1.
        -11    1    3    3    0    0  0.51290615113E+01  0.38464884240E+01 -0.10196575173E+01  0.64917214124E+01  0.51100000000E-03 0.  1.
        -12    1    3    3    0    0 -0.29102252044E+01 -0.43985448514E+01  0.62369972089E+01  0.81680316928E+01  0.00000000000E+00 0.  1.
</event>
<event>
 7    1  0.2969156E-011  0.5052886E+02  0.7816164E-02  0.1300439E+00
        -11   -1    0    0    0    0  0.00000000000E+00  0.00000000000E+00  0.45593999997E+02  0.45594000000E+02  0.51100000000E-03 0.  1.
         11   -1    0    0    0    0 -0.00000000000E+00 -0.00000000000E+00 -0.45593999997E+02  0.45594000000E+02  0.51100000000E-03 0. -1.
    9900012    2    1    2    0    0  0.14826016066E+01  0.31436788661E+02  0.25742884050E+02  0.50528857510E+02  0.29999992887E+02 0.  0.
         12    1    1    2    0    0 -0.14826016066E+01 -0.31436788661E+02 -0.25742884050E+02  0.40659142490E+02  0.00000000000E+00 0. -1.
         11    1    3    3    0    0 -0.14314848026E+01  0.21184845073E+01  0.15530359614E+02  0.15739415343E+02  0.51100000000E-03 0. -1.
        -11    1    3    3    0    0 -0.48978539697E+01  0.41140338945E+01 -0.25604404095E+00  0.64015472509E+01  0.51100000000E-03 0.  1.
         12    1    3    3    0    0  0.78119403789E+01  0.25204270259E+02  0.10468568477E+02  0.28387894916E+02  0.00000000000E+00 0. -1.
</event>
<event>
 7    1  0.2969156E-011  0.5052887E+02  0.7816164E-02  0.1300439E+00
        -11   -1    0    0    0    0  0.00000000000E+00  0.00000000000E+00  0.45593999997E+02  0.45594000000E+02  0.51100000000E-03 0.  1.
         11   -1    0    0    0    0 -0.00000000000E+00 -0.00000000000E+00 -0.45593999997E+02  0.45594000000E+02  0.51100000000E-03 0. -1.
    9900012    2    1    2    0    0  0.30008700770E+01 -0.26309940994E+02  0.30853638395E+02  0.50528865497E+02  0.30000017166E+02 0.  0.
         12    1    1    2    0    0 -0.30008700770E+01  0.26309940994E+02 -0.30853638395E+02  0.40659134503E+02  0.00000000000E+00 0. -1.
         11    1    3    3    0    0  0.94927313672E+01 -0.89906831551E+01  0.85907053667E+01  0.15644313707E+02  0.51100000000E-03 0. -1.
        -11    1    3    3    0    0 -0.30221981867E+01 -0.66077582616E+01  0.22477839950E+02  0.23623070084E+02  0.51100000000E-03 0.  1.
        -12    1    3    3    0    0 -0.34696631035E+01 -0.10711499577E+02 -0.21490692141E+00  0.11261481707E+02  0.00000000000E+00 0.  1.
</event>
<event>
 7    1  0.2969156E-011  0.5052887E+02  0.7816164E-02  0.1300439E+00
        -11   -1    0    0    0    0  0.00000000000E+00  0.00000000000E+00  0.45593999997E+02  0.45594000000E+02  0.51100000000E-03 0. -1.
         11   -1    0    0    0    0 -0.00000000000E+00 -0.00000000000E+00 -0.45593999997E+02  0.45594000000E+02  0.51100000000E-03 0.  1.
    9900012    2    1    2    0    0  0.16196803878E+02  0.36434287243E+02  0.79606166879E+01  0.50528866207E+02  0.30000019323E+02 0.  0.
         12    1    1    2    0    0 -0.16196803878E+02 -0.36434287243E+02 -0.79606166879E+01  0.40659133793E+02  0.00000000000E+00 0. -1.
         11    1    3    3    0    0  0.17010022435E+02  0.23206896106E+02  0.13126368073E+01  0.28803192631E+02  0.51100000000E-03 0. -1.
        -11    1    3    3    0    0  0.50724755063E+01  0.28620598019E+00  0.54619540152E+01  0.74595484817E+01  0.51100000000E-03 0.  1.
        -12    1    3    3    0    0 -0.58856940629E+01  0.12941185156E+02  0.11860258654E+01  0.14266125094E+02  0.00000000000E+00 0.  1.
</event>
<event>
 7    1  0.2969156E-011  0.5052884E+02  0.7816164E-02  0.1300439E+00
        -11   -1    0    0    0    0  0.00000000000E+00  0.00000000000E+00  0.45593999997E+02  0.45594000000E+02  0.51100000000E-03 0.  1.
         11   -1    0    0    0    0 -0.00000000000E+00 -0.00000000000E+00 -0.45593999997E+02  0.45594000000E+02  0.51100000000E-03 0. -1.
    9900012    2    1    2    0    0  0.34251827546E+02  0.19407527447E+02 -0.10165028516E+02  0.50528836007E+02  0.29999927528E+02 0.  0.
         12    1    1    2    0    0 -0.34251827546E+02 -0.19407527447E+02  0.10165028516E+02  0.40659163993E+02  0.00000000000E+00 0. -1.
         11    1    3    3    0    0  0.98269403781E+01  0.86918492625E+01 -0.79326526529E+01  0.15331144092E+02  0.51100000000E-03 0. -1.
        -11    1    3    3    0    0  0.28334755208E+02  0.10405691766E+02 -0.47219443525E+01  0.30552144484E+02  0.51100000000E-03 0.  1.
         12    1    3    3    0    0 -0.39098680401E+01  0.30998641784E+00  0.24895684897E+01  0.46455474312E+01  0.00000000000E+00 0. -1.
</event>
<event>
 7    1  0.2969156E-011  0.5052885E+02  0.7816164E-02  0.1300439E+00
        -11   -1    0    0    0    0  0.00000000000E+00  0.00000000000E+00  0.45593999997E+02  0.45594000000E+02  0.51100000000E-03 0.  1.
         11   -1    0    0    0    0 -0.00000000000E+00 -0.00000000000E+00 -0.45593999997E+02  0.45594000000E+02  0.51100000000E-03 0. -1.
    9900012    2    1    2    0    0 -0.11002772372E+02 -0.63318834244E+01 -0.38626579791E+02  0.50528850797E+02  0.29999972482E+02 0.  0.
         12    1    1    2    0    0  0.11002772372E+02  0.63318834244E+01  0.38626579791E+02  0.40659149203E+02  0.00000000000E+00 0. -1.
         11    1    3    3    0    0  0.65016287787E+01 -0.16740041515E+01 -0.24071241740E+01  0.71321605230E+01  0.51100000000E-03 0. -1.
        -11    1    3    3    0    0 -0.66787326480E+00  0.44794250605E+01 -0.94496350521E+01  0.10478879065E+02  0.51100000000E-03 0.  1.
         12    1    3    3    0    0 -0.16836527885E+02 -0.91373043334E+01 -0.26769820565E+02  0.32917811209E+02  0.00000000000E+00 0. -1.
</event>
<event>
 7    1  0.2969156E-011  0.5052884E+02  0.7816164E-02  0.1300439E+00
        -11   -1    0    0    0    0  0.00000000000E+00  0.00000000000E+00  0.45593999997E+02  0.45594000000E+02  0.51100000000E-03 0. -1.
         11   -1    0    0    0    0 -0.00000000000E+00 -0.00000000000E+00 -0.45593999997E+02  0.45594000000E+02  0.51100000000E-03 0.  1.
    9900012    2    1    2    0    0  0.28245876167E+02  0.24599587248E+02 -0.15817653008E+02  0.50528839164E+02  0.29999937123E+02 0.  0.
         12    1    1    2    0    0 -0.28245876167E+02 -0.24599587248E+02  0.15817653008E+02  0.40659160836E+02  0.00000000000E+00 0. -1.
         11    1    3    3    0    0  0.32930301925E+00  0.10151061211E+02 -0.33533410349E+01  0.10695671113E+02  0.51100000000E-03 0. -1.
        -11    1    3    3    0    0 -0.27471138978E+00 -0.16949245802E+01 -0.66026785380E+01  0.68222869932E+01  0.51100000000E-03 0.  1.
         12    1    3    3    0    0  0.28191284538E+02  0.16143450616E+02 -0.58616334349E+01  0.33010881058E+02  0.00000000000E+00 0. -1.
</event>
<event>
 7    1  0.3704242E-011  0.5052887E+02  0.7816164E-02  0.1300439E+00
        -11   -1    0    0    0    0  0.00000000000E+00  0.00000000000E+00  0.45593999997E+02  0.45594000000E+02  0.51100000000E-03 0. -1.
         11   -1    0    0    0    0 -0.00000000000E+00 -0.00000000000E+00 -0.45593999997E+02  0.45594000000E+02  0.51100000000E-03 0.  1.
    9900012    2    1    2    0    0  0.11801756694E+01  0.15354538379E+02 -0.37629915019E+02  0.50528866121E+02  0.30000019062E+02 0.  0.
         12    1    1    2    0    0 -0.11801756694E+01 -0.15354538379E+02  0.37629915019E+02  0.40659133879E+02  0.00000000000E+00 0. -1.
         11    1    3    3    0    0  0.55333453812E+01 -0.41196477526E+01 -0.10794778076E+02  0.12810801797E+02  0.51100000000E-03 0. -1.
        -11    1    3    3    0    0 -0.26984589710E+01  0.12071486266E+02 -0.27449578198E+02  0.30107836272E+02  0.51100000000E-03 0.  1.
        -12    1    3    3    0    0 -0.16547107408E+01  0.74026998664E+01  0.61444125512E+00  0.76102280520E+01  0.00000000000E+00 0.  1.
</event>
<event>
 7    1  0.2969156E-011  0.5052884E+02  0.7816164E-02  0.1300439E+00
        -11   -1    0    0    0    0  0.00000000000E+00  0.00000000000E+00  0.45593999997E+02  0.45594000000E+02  0.51100000000E-03 0. -1.
         11   -1    0    0    0    0 -0.00000000000E+00 -0.00000000000E+00 -0.45593999997E+02  0.45594000000E+02  0.51100000000E-03 0.  1.
    9900012    2    1    2    0    0 -0.49309072229E+01  0.39608748169E+01 -0.40164228303E+02  0.50528836082E+02  0.29999927754E+02 0.  0.
         12    1    1    2    0    0  0.49309072229E+01 -0.39608748169E+01  0.40164228303E+02  0.40659163918E+02  0.00000000000E+00 0. -1.
         11    1    3    3    0    0  0.74822611257E+01 -0.49537756635E+01 -0.10876909508E+02  0.14100754788E+02  0.51100000000E-03 0. -1.
        -11    1    3    3    0    0  0.43076922052E-01  0.86485325157E+01 -0.81024179476E+01  0.11851082109E+02  0.51100000000E-03 0.  1.
        -12    1    3    3    0    0 -0.12456245271E+02  0.26611796471E+00 -0.21184900847E+02  0.24576999185E+02  0.00000000000E+00 0.  1.
</event>
<event>
 7    1  0.2969156E-011  0.5052886E+02  0.7816164E-02  0.1300439E+00
        -11   -1    0    0    0    0  0.00000000000E+00  0.00000000000E+00  0.45593999997E+02  0.45594000000E+02  0.51100000000E-03 0.  1.
         11   -1    0    0    0    0 -0.00000000000E+00 -0.00000000000E+00 -0.45593999997E+02  0.45594000000E+02  0.51100000000E-03 0. -1.
    9900012    2    1    2    0    0  0.27473151719E+02 -0.29280275667E+02 -0.64075946658E+01  0.50528857388E+02  0.29999992518E+02 0.  0.
         12    1    1    2    0    0 -0.27473151719E+02  0.29280275667E+02  0.64075946658E+01  0.40659142612E+02  0.00000000000E+00 0. -1.
         11    1    3    3    0    0 -0.15106504478E+00 -0.63938339156E+01 -0.59035911726E+01  0.87038107621E+01  0.51100000000E-03 0. -1.
        -11    1    3    3    0    0  0.84058101997E+01 -0.20783750407E+02  0.93287749358E+00  0.22438631571E+02  0.51100000000E-03 0.  1.
        -12    1    3    3    0    0  0.19218406564E+02 -0.21026913449E+01 -0.14368809868E+01  0.19386415056E+02  0.00000000000E+00 0.  1.
</event>
<event>
 7    1  0.2969156E-011  0.5052883E+02  0.7816164E-02  0.1300439E+00
        -11   -1    0    0    0    0  0.00000000000E+00  0.00000000000E+00  0.45593999997E+02  0.45594000000E+02  0.51100000000E-03 0.  1.
         11   -1    0    0    0    0 -0.00000000000E+00 -0.00000000000E+00 -0.45593999997E+02  0.45594000000E+02  0.51100000000E-03 0. -1.
    9900012    2    1    2    0    0 -0.36526543348E+02 -0.21478724738E+01  0.17730387669E+02  0.50528826717E+02  0.29999899290E+02 0.  0.
         12    1    1    2    0    0  0.36526543348E+02  0.21478724738E+01 -0.17730387669E+02  0.40659173283E+02  0.00000000000E+00 0. -1.
         11    1    3    3    0    0 -0.61284737084E+01 -0.85003775719E+01  0.89925204544E+01  0.13808694118E+02  0.51100000000E-03 0. -1.
        -11    1    3    3    0    0 -0.14829495691E+01  0.60657030487E+01  0.40062626187E+01  0.74190318325E+01  0.51100000000E-03 0.  1.
        -12    1    3    3    0    0 -0.28915120070E+02  0.28680204941E+00  0.47316045962E+01  0.29301100767E+02  0.00000000000E+00 0.  1.
</event>
<event>
 7    1  0.2969156E-011  0.5052886E+02  0.7816164E-02  0.1300439E+00
        -11   -1    0    0    0    0  0.00000000000E+00  0.00000000000E+00  0.45593999997E+02  0.45594000000E+02  0.51100000000E-03 0.  1.
         11   -1    0    0    0    0 -0.00000000000E+00 -0.00000000000E+00 -0.45593999997E+02  0.45594000000E+02  0.51100000000E-03 0. -1.
    9900012    2    1    2    0    0  0.26802527127E+02 -0.24732731275E+01  0.30474140704E+02  0.50528858444E+02  0.29999995728E+02 0.  0.
         12    1    1    2    0    0 -0.26802527127E+02  0.24732731275E+01 -0.30474140704E+02  0.40659141556E+02  0.00000000000E+00 0. -1.
         11    1    3    3    0    0  0.33311510723E+01 -0.23539337622E+00  0.10110792459E+02  0.10648009294E+02  0.51100000000E-03 0.  1.
        -11    1    3    3    0    0 -0.48977098838E+01  0.22351073075E+01  0.17665580896E+01  0.56660386980E+01  0.51100000000E-03 0. -1.
        -12    1    3    3    0    0  0.28369085938E+02 -0.44729870587E+01  0.18596790155E+02  0.34214810452E+02  0.00000000000E+00 0.  1.
</event>
<event>
 7    1  0.2969156E-011  0.5052887E+02  0.7816164E-02  0.1300439E+00
        -11   -1    0    0    0    0  0.00000000000E+00  0.00000000000E+00  0.45593999997E+02  0.45594000000E+02  0.51100000000E-03 0. -1.
         11   -1    0    0    0    0 -0.00000000000E+00 -0.00000000000E+00 -0.45593999997E+02  0.45594000000E+02  0.51100000000E-03 0.  1.
    9900012    2    1    2    0    0 -0.14399037639E+02  0.31022000140E+02  0.21987902548E+02  0.50528872660E+02  0.30000038937E+02 0.  0.
         12    1    1    2    0    0  0.14399037639E+02 -0.31022000140E+02 -0.21987902548E+02  0.40659127340E+02  0.00000000000E+00 0. -1.
         11    1    3    3    0    0  0.23376349548E+01 -0.18951170043E+01  0.51192106842E+01  0.59382088151E+01  0.51100000000E-03 0.  1.
        -11    1    3    3    0    0  0.22689676382E+01 -0.75819640146E-01  0.36257254509E+01  0.42778321691E+01  0.51100000000E-03 0. -1.
        -12    1    3    3    0    0 -0.19005640232E+02  0.32992936785E+02  0.13242966413E+02  0.40312831676E+02  0.00000000000E+00 0.  1.
</event>
<event>
 7    1  0.2969156E-011  0.5052885E+02  0.7816164E-02  0.1300439E+00
        -11   -1    0    0    0    0  0.00000000000E+00  0.00000000000E+00  0.45593999997E+02  0.45594000000E+02  0.51100000000E-03 0. -1.
         11   -1    0    0    0    0 -0.00000000000E+00 -0.00000000000E+00 -0.45593999997E+02  0.45594000000E+02  0.51100000000E-03 0.  1.
    9900012    2    1    2    0    0  0.23491890716E+02  0.28386637311E+02 -0.17190014305E+02  0.50528847290E+02  0.29999961823E+02 0.  0.
         12    1    1    2    0    0 -0.23491890716E+02 -0.28386637311E+02  0.17190014305E+02  0.40659152710E+02  0.00000000000E+00 0. -1.
         11    1    3    3    0    0  0.16531004789E+02  0.13822781533E+02  0.90115499579E+00  0.21567463671E+02  0.51100000000E-03 0. -1.
        -11    1    3    3    0    0  0.11579062812E+02  0.11413405500E+02 -0.98712826921E+01  0.19020587345E+02  0.51100000000E-03 0.  1.
         12    1    3    3    0    0 -0.46181768843E+01  0.31504502785E+01 -0.82198866085E+01  0.99407962734E+01  0.00000000000E+00 0. -1.
</event>
<event>
 7    1  0.2969156E-011  0.5052886E+02  0.7816164E-02  0.1300439E+00
        -11   -1    0    0    0    0  0.00000000000E+00  0.00000000000E+00  0.45593999997E+02  0.45594000000E+02  0.51100000000E-03 0.  1.
         11   -1    0    0    0    0 -0.00000000000E+00 -0.00000000000E+00 -0.45593999997E+02  0.45594000000E+02  0.51100000000E-03 0. -1.
    9900012    2    1    2    0    0 -0.81315605420E+00 -0.14221273455E+02  0.38082274909E+02  0.50528861991E+02  0.30000006506E+02 0.  0.
         12    1    1    2    0    0  0.81315605420E+00  0.14221273455E+02 -0.38082274909E+02  0.40659138009E+02  0.00000000000E+00 0. -1.
         11    1    3    3    0    0 -0.67255980924E+01 -0.79311142770E+00  0.54906217171E+01  0.87183497601E+01  0.51100000000E-03 0. -1.
        -11    1    3    3    0    0 -0.31732370299E+01 -0.15179481647E+02  0.13360809056E+02  0.20469423910E+02  0.51100000000E-03 0.  1.
        -12    1    3    3    0    0  0.90856790681E+01  0.17513196195E+01  0.19230844135E+02  0.21341088320E+02  0.00000000000E+00 0.  1.
</event>
<event>
 7    1  0.2969156E-011  0.5052883E+02  0.7816164E-02  0.1300439E+00
        -11   -1    0    0    0    0  0.00000000000E+00  0.00000000000E+00  0.45593999997E+02  0.45594000000E+02  0.51100000000E-03 0.  1.
         11   -1    0    0    0    0 -0.00000000000E+00 -0.00000000000E+00 -0.45593999997E+02  0.45594000000E+02  0.51100000000E-03 0. -1.
    9900012    2    1    2    0    0 -0.15053966948E+02  0.34333623355E+02  0.15740032222E+02  0.50528828490E+02  0.29999904678E+02 0.  0.
         12    1    1    2    0    0  0.15053966948E+02 -0.34333623355E+02 -0.15740032222E+02  0.40659171510E+02  0.00000000000E+00 0. -1.
         11    1    3    3    0    0 -0.54094658034E+01  0.11053840532E+02  0.13690158031E+02  0.18408425733E+02  0.51100000000E-03 0. -1.
        -11    1    3    3    0    0 -0.15266644475E+02  0.20272551616E+02 -0.14140665581E+00  0.25378470771E+02  0.51100000000E-03 0.  1.
         12    1    3    3    0    0  0.56221433305E+01  0.30072312074E+01  0.21912808470E+01  0.67419319868E+01  0.00000000000E+00 0. -1.
</event>
<event>
 7    1  0.2969156E-011  0.5052887E+02  0.7816164E-02  0.1300439E+00
        -11   -1    0    0    0    0  0.00000000000E+00  0.00000000000E+00  0.45593999997E+02  0.45594000000E+02  0.51100000000E-03 0.  1.
         11   -1    0    0    0    0 -0.00000000000E+00 -0.00000000000E+00 -0.45593999997E+02  0.45594000000E+02  0.51100000000E-03 0. -1.
    9900012    2    1    2    0    0  0.39646706326E+02 -0.87133086782E+01  0.23199271224E+01  0.50528866555E+02  0.30000020381E+02 0.  0.
         12    1    1    2    0    0 -0.39646706326E+02  0.87133086782E+01 -0.23199271224E+01  0.40659133445E+02  0.00000000000E+00 0. -1.
         11    1    3    3    0    0  0.98400121218E+01 -0.10260403355E+02  0.54059389490E+01  0.15209401427E+02  0.51100000000E-03 0.  1.
        -11    1    3    3    0    0  0.20842862053E+00  0.53359835747E+01 -0.26496575632E+00  0.53466223275E+01  0.51100000000E-03 0. -1.
        -12    1    3    3    0    0  0.29598265584E+02 -0.37888888976E+01 -0.28210460703E+01  0.29972842801E+02  0.00000000000E+00 0.  1.
</event>
<event>
 7    1  0.2969156E-011  0.5052887E+02  0.7816164E-02  0.1300439E+00
        -11   -1    0    0    0    0  0.00000000000E+00  0.00000000000E+00  0.45593999997E+02  0.45594000000E+02  0.51100000000E-03 0. -1.
         11   -1    0    0    0    0 -0.00000000000E+00 -0.00000000000E+00 -0.45593999997E+02  0.45594000000E+02  0.51100000000E-03 0.  1.
    9900012    2    1    2    0    0 -0.11414326159E+02 -0.38928718533E+02 -0.27263904080E+01  0.50528866057E+02  0.30000018868E+02 0.  0.
         12    1    1    2    0    0  0.11414326159E+02  0.38928718533E+02  0.27263904080E+01  0.40659133943E+02  0.00000000000E+00 0. -1.
         11    1    3    3    0    0  0.34028028665E+01 -0.12002570979E+02  0.52038892121E+01  0.13517442090E+02  0.51100000000E-03 0. -1.
        -11    1    3    3    0    0  0.37962487063E+01 -0.82612695031E+01 -0.52925733684E+01  0.10520048059E+02  0.51100000000E-03 0.  1.
        -12    1    3    3    0    0 -0.18613377732E+02 -0.18664878051E+02 -0.26377062518E+01  0.26491375909E+02  0.00000000000E+00 0.  1.
</event>
<event>
 7    1  0.2969156E-011  0.5052886E+02  0.7816164E-02  0.1300439E+00
        -11   -1    0    0    0    0  0.00000000000E+00  0.00000000000E+00  0.45593999997E+02  0.45594000000E+02  0.51100000000E-03 0.  1.
         11   -1    0    0    0    0 -0.00000000000E+00 -0.00000000000E+00 -0.45593999997E+02  0.45594000000E+02  0.51100000000E-03 0. -1.
    9900012    2    1    2    0    0  0.28533912558E+02  0.47326246823E+01  0.28575927287E+02  0.50528861758E+02  0.30000005800E+02 0.  0.
         12    1    1    2    0    0 -0.28533912558E+02 -0.47326246823E+01 -0.28575927287E+02  0.40659138242E+02  0.00000000000E+00 0. -1.
         11    1    3    3    0    0  0.16674809827E+01  0.64303866901E+01  0.97625706549E+01  0.11808393280E+02  0.51100000000E-03 0. -1.
        -11    1    3    3    0    0  0.59456658224E+01  0.46355140805E+01 -0.27412909958E+01  0.80220701472E+01  0.51100000000E-03 0.  1.
        -12    1    3    3    0    0  0.20920765752E+02 -0.63332760883E+01  0.21554647628E+02  0.30698398331E+02  0.00000000000E+00 0.  1.
</event>
<event>
 7    1  0.2969156E-011  0.5052885E+02  0.7816164E-02  0.1300439E+00
        -11   -1    0    0    0    0  0.00000000000E+00  0.00000000000E+00  0.45593999997E+02  0.45594000000E+02  0.51100000000E-03 0. -1.
         11   -1    0    0    0    0 -0.00000000000E+00 -0.00000000000E+00 -0.45593999997E+02  0.45594000000E+02  0.51100000000E-03 0.  1.
    9900012    2    1    2    0    0 -0.37471797087E+02 -0.10631212759E+02 -0.11662239358E+02  0.50528854799E+02  0.29999984647E+02 0.  0.
         12    1    1    2    0    0  0.37471797087E+02  0.10631212759E+02  0.11662239358E+02  0.40659145201E+02  0.00000000000E+00 0. -1.
         11    1    3    3    0    0 -0.61368289357E+01  0.64781872467E+00  0.63853017321E+01  0.88798883415E+01  0.51100000000E-03 0. -1.
        -11    1    3    3    0    0 -0.11762572666E+02  0.42955537589E+01 -0.59400774759E+01  0.13859813076E+02  0.51100000000E-03 0.  1.
         12    1    3    3    0    0 -0.19572395485E+02 -0.15574585242E+02 -0.12107463614E+02  0.27789153381E+02  0.00000000000E+00 0. -1.
</event>
<event>
 7    1  0.4308774E-011  0.5052888E+02  0.7816164E-02  0.1300439E+00
        -11   -1    0    0    0    0  0.00000000000E+00  0.00000000000E+00  0.45593999997E+02  0.45594000000E+02  0.51100000000E-03 0.  1.
         11   -1    0    0    0    0 -0.00000000000E+00 -0.00000000000E+00 -0.45593999997E+02  0.45594000000E+02  0.51100000000E-03 0. -1.
    9900012    2    1    2    0    0 -0.24276598525E+02  0.15844985385E+02 -0.28508729023E+02  0.50528875215E+02  0.30000046702E+02 0.  0.
         12    1    1    2    0    0  0.24276598525E+02 -0.15844985385E+02  0.28508729023E+02  0.40659124785E+02  0.00000000000E+00 0. -1.
         11    1    3    3    0    0 -0.30805262701E+01  0.10862156475E+02 -0.40841400369E+01  0.12006510130E+02  0.51100000000E-03 0. -1.
        -11    1    3    3    0    0 -0.13580760693E+02  0.12544874340E+02 -0.18949353267E+02  0.26474306841E+02  0.51100000000E-03 0.  1.
         12    1    3    3    0    0 -0.76153115622E+01 -0.75620454298E+01 -0.54752357187E+01  0.12048058244E+02  0.00000000000E+00 0. -1.
</event>
<event>
 7    1  0.2969156E-011  0.5052886E+02  0.7816164E-02  0.1300439E+00
        -11   -1    0    0    0    0  0.00000000000E+00  0.00000000000E+00  0.45593999997E+02  0.45594000000E+02  0.51100000000E-03 0.  1.
         11   -1    0    0    0    0 -0.00000000000E+00 -0.00000000000E+00 -0.45593999997E+02  0.45594000000E+02  0.51100000000E-03 0. -1.
    9900012    2    1    2    0    0  0.80392529553E+01  0.28944608960E+02 -0.27399742723E+02  0.50528857397E+02  0.29999992544E+02 0.  0.
         12    1    1    2    0    0 -0.80392529553E+01 -0.28944608960E+02  0.27399742723E+02  0.40659142603E+02  0.00000000000E+00 0. -1.
         11    1    3    3    0    0 -0.35363734626E+01 -0.11230494254E+01 -0.27871210903E+01  0.46406057269E+01  0.51100000000E-03 0. -1.
        -11    1    3    3    0    0  0.15774705226E+01  0.17762946594E+02 -0.24158168225E+02  0.30027117364E+02  0.51100000000E-03 0.  1.
         12    1    3    3    0    0  0.99981558953E+01  0.12304711791E+02 -0.45445340759E+00  0.15861134306E+02  0.00000000000E+00 0. -1.
</event>
<event>
 7    1  0.2969156E-011  0.5052886E+02  0.7816164E-02  0.1300439E+00
        -11   -1    0    0    0    0  0.00000000000E+00  0.00000000000E+00  0.45593999997E+02  0.45594000000E+02  0.51100000000E-03 0.  1.
         11   -1    0    0    0    0 -0.00000000000E+00 -0.00000000000E+00 -0.45593999997E+02  0.45594000000E+02  0.51100000000E-03 0. -1.
    9900012    2    1    2    0    0  0.31139203096E+02  0.75521604653E+01  0.25029596340E+02  0.50528858468E+02  0.29999995801E+02 0.  0.
         12    1    1    2    0    0 -0.31139203096E+02 -0.75521604653E+01 -0.25029596340E+02  0.40659141532E+02  0.00000000000E+00 0. -1.
         11    1    3    3    0    0  0.90262060532E-01  0.50644306541E+01 -0.25382194712E+01  0.56656123618E+01  0.51100000000E-03 0. -1.
        -11    1    3    3    0    0  0.13120347999E+02  0.32917897870E+00  0.22599692279E+02  0.26134230078E+02  0.51100000000E-03 0.  1.
        -12    1    3    3    0    0  0.17928593037E+02  0.21585508325E+01  0.49681235323E+01  0.18729016029E+02  0.00000000000E+00 0.  1.
</event>
<event>
 7    1  0.3300950E-011  0.5052886E+02  0.7816164E-02  0.1300439E+00
        -11   -1    0    0    0    0  0.00000000000E+00  0.00000000000E+00  0.45593999997E+02  0.45594000000E+02  0.51100000000E-03 0. -1.
         11   -1    0    0    0    0 -0.00000000000E+00 -0.00000000000E+00 -0.45593999997E+02  0.45594000000E+02  0.51100000000E-03 0.  1.
    9900012    2    1    2    0    0  0.24928429829E+01  0.14470376025E+02 -0.37915164801E+02  0.50528858711E+02  0.29999996539E+02 0.  0.
         12    1    1    2    0    0 -0.24928429829E+01 -0.14470376025E+02  0.37915164801E+02  0.40659141289E+02  0.00000000000E+00 0. -1.
         11    1    3    3    0    0  0.32229268145E+01 -0.49123210354E+01 -0.10723575524E+02  0.12227560160E+02  0.51100000000E-03 0. -1.
        -11    1    3    3    0    0  0.50274303415E+01  0.90573101787E+01 -0.23870808457E+02  0.26021633695E+02  0.51100000000E-03 0.  1.
         12    1    3    3    0    0 -0.57575141732E+01  0.10325386881E+02 -0.33207808204E+01  0.12279664855E+02  0.00000000000E+00 0. -1.
</event>
<event>
 7    1  0.2969156E-011  0.5052887E+02  0.7816164E-02  0.1300439E+00
        -11   -1    0    0    0    0  0.00000000000E+00  0.00000000000E+00  0.45593999997E+02  0.45594000000E+02  0.51100000000E-03 0.  1.
         11   -1    0    0    0    0 -0.00000000000E+00 -0.00000000000E+00 -0.45593999997E+02  0.45594000000E+02  0.51100000000E-03 0. -1.
    9900012    2    1    2    0    0  0.29084192710E+01 -0.16018235663E+02  0.37257514394E+02  0.50528866275E+02  0.30000019531E+02 0.  0.
         12    1    1    2    0    0 -0.29084192710E+01  0.16018235663E+02 -0.37257514394E+02  0.40659133725E+02  0.00000000000E+00 0. -1.
         11    1    3    3    0    0  0.31186431680E+01 -0.72506293217E+01  0.35677681777E+01  0.86617856589E+01  0.51100000000E-03 0. -1.
        -11    1    3    3    0    0 -0.27719217443E+01 -0.76368122704E+01  0.36797613734E+02  0.37683800612E+02  0.51100000000E-03 0.  1.
         12    1    3    3    0    0  0.25616978473E+01 -0.11307940704E+01 -0.31078675173E+01  0.41832800044E+01  0.00000000000E+00 0. -1.
</event>
<event>
 7    1  0.2969156E-011  0.5052887E+02  0.7816164E-02  0.1300439E+00
        -11   -1    0    0    0    0  0.00000000000E+00  0.00000000000E+00  0.45593999997E+02  0.45594000000E+02  0.51100000000E-03 0.  1.
         11   -1    0    0    0    0 -0.00000000000E+00 -0.00000000000E+00 -0.45593999997E+02  0.45594000000E+02  0.51100000000E-03 0. -1.
    9900012    2    1    2    0    0 -0.26234347145E+02 -0.23797350846E+02  0.19965218880E+02  0.50528870123E+02  0.30000031227E+02 0.  0.
         12    1    1    2    0    0  0.26234347145E+02  0.23797350846E+02 -0.19965218880E+02  0.40659129877E+02  0.00000000000E+00 0. -1.
         11    1    3    3    0    0 -0.43929185145E+01 -0.70391101467E+01  0.14156305694E+02  0.16408771919E+02  0.51100000000E-03 0. -1.
        -11    1    3    3    0    0 -0.21793497325E+02 -0.79101622680E+01  0.87724790159E+01  0.24788779339E+02  0.51100000000E-03 0.  1.
         12    1    3    3    0    0 -0.47931305421E-01 -0.88480784312E+01 -0.29635658302E+01  0.93313188653E+01  0.00000000000E+00 0. -1.
</event>
<event>
 7    1  0.2969156E-011  0.5052885E+02  0.7816164E-02  0.1300439E+00
        -11   -1    0    0    0    0  0.00000000000E+00  0.00000000000E+00  0.45593999997E+02  0.45594000000E+02  0.51100000000E-03 0.  1.
         11   -1    0    0    0    0 -0.00000000000E+00 -0.00000000000E+00 -0.45593999997E+02  0.45594000000E+02  0.51100000000E-03 0. -1.
    9900012    2    1    2    0    0  0.70850263674E+01 -0.28874784841E+02  0.27734741985E+02  0.50528847141E+02  0.29999961369E+02 0.  0.
         12    1    1    2    0    0 -0.70850263674E+01  0.28874784841E+02 -0.27734741985E+02  0.40659152859E+02  0.00000000000E+00 0. -1.
         11    1    3    3    0    0  0.22266414779E+01 -0.59184337559E+01  0.21341309576E+02  0.22258420543E+02  0.51100000000E-03 0. -1.
        -11    1    3    3    0    0  0.26952098545E+01 -0.50433333076E+01  0.83512078938E+01  0.10121365548E+02  0.51100000000E-03 0.  1.
         12    1    3    3    0    0  0.21631750350E+01 -0.17913017777E+02 -0.19577754846E+01  0.18149061049E+02  0.00000000000E+00 0. -1.
</event>
<event>
 7    1  0.2969156E-011  0.5052886E+02  0.7816164E-02  0.1300439E+00
        -11   -1    0    0    0    0  0.00000000000E+00  0.00000000000E+00  0.45593999997E+02  0.45594000000E+02  0.51100000000E-03 0.  1.
         11   -1    0    0    0    0 -0.00000000000E+00 -0.00000000000E+00 -0.45593999997E+02  0.45594000000E+02  0.51100000000E-03 0. -1.
    9900012    2    1    2    0    0  0.12059483625E+02 -0.16493317403E+02  0.35152593507E+02  0.50528862103E+02  0.30000006849E+02 0.  0.
         12    1    1    2    0    0 -0.12059483625E+02  0.16493317403E+02 -0.35152593507E+02  0.40659137897E+02  0.00000000000E+00 0. -1.
         11    1    3    3    0    0 -0.32482701768E+00 -0.31331445998E+01  0.11567749506E+02  0.11988950603E+02  0.51100000000E-03 0. -1.
        -11    1    3    3    0    0  0.11208863922E+02 -0.11103206218E+01  0.23692106801E+02  0.26233325508E+02  0.51100000000E-03 0.  1.
         12    1    3    3    0    0  0.11754467206E+01 -0.12249852182E+02 -0.10726279971E+00  0.12306585992E+02  0.00000000000E+00 0. -1.
</event>
<event>
 7    1  0.3057697E-011  0.5052886E+02  0.7816164E-02  0.1300439E+00
        -11   -1    0    0    0    0  0.00000000000E+00  0.00000000000E+00  0.45593999997E+02  0.45594000000E+02  0.51100000000E-03 0. -1.
         11   -1    0    0    0    0 -0.00000000000E+00 -0.00000000000E+00 -0.45593999997E+02  0.45594000000E+02  0.51100000000E-03 0.  1.
    9900012    2    1    2    0    0  0.95364191122E+01  0.38514567867E+02 -0.88797848154E+01  0.50528858274E+02  0.29999995211E+02 0.  0.
         12    1    1    2    0    0 -0.95364191122E+01 -0.38514567867E+02  0.88797848154E+01  0.40659141726E+02  0.00000000000E+00 0. -1.
         11    1    3    3    0    0 -0.42736196745E+01  0.19624824068E+01  0.24040421590E+01  0.52815320961E+01  0.51100000000E-03 0. -1.
        -11    1    3    3    0    0  0.96861603438E+01  0.18832220092E+02  0.39206439668E+01  0.21537076524E+02  0.51100000000E-03 0.  1.
        -12    1    3    3    0    0  0.41238784429E+01  0.17719865368E+02 -0.15204470941E+02  0.23710249655E+02  0.00000000000E+00 0.  1.
</event>
<event>
 7    1  0.2969156E-011  0.5052886E+02  0.7816164E-02  0.1300439E+00
        -11   -1    0    0    0    0  0.00000000000E+00  0.00000000000E+00  0.45593999997E+02  0.45594000000E+02  0.51100000000E-03 0.  1.
         11   -1    0    0    0    0 -0.00000000000E+00 -0.00000000000E+00 -0.45593999997E+02  0.45594000000E+02  0.51100000000E-03 0. -1.
    9900012    2    1    2    0    0  0.40250636571E+02  0.57431842850E+01 -0.25954221466E+00  0.50528864836E+02  0.30000015155E+02 0.  0.
         12    1    1    2    0    0 -0.40250636571E+02 -0.57431842850E+01  0.25954221466E+00  0.40659135164E+02  0.00000000000E+00 0. -1.
         11    1    3    3    0    0  0.95895456542E+00 -0.13026769086E+01 -0.71410194178E+01  0.73219341416E+01  0.51100000000E-03 0. -1.
        -11    1    3    3    0    0  0.16555227295E+02  0.10558896450E+02  0.37072201933E+01  0.19982725711E+02  0.51100000000E-03 0.  1.
        -12    1    3    3    0    0  0.22736454711E+02 -0.35130352561E+01  0.31742570098E+01  0.23224204983E+02  0.00000000000E+00 0.  1.
</event>
<event>
 7    1  0.2969156E-011  0.5052886E+02  0.7816164E-02  0.1300439E+00
        -11   -1    0    0    0    0  0.00000000000E+00  0.00000000000E+00  0.45593999997E+02  0.45594000000E+02  0.51100000000E-03 0.  1.
         11   -1    0    0    0    0 -0.00000000000E+00 -0.00000000000E+00 -0.45593999997E+02  0.45594000000E+02  0.51100000000E-03 0. -1.
    9900012    2    1    2    0    0 -0.38513338800E+02 -0.30790722646E+01  0.12665204514E+02  0.50528863795E+02  0.30000011991E+02 0.  0.
         12    1    1    2    0    0  0.38513338800E+02  0.30790722646E+01 -0.12665204514E+02  0.40659136205E+02  0.00000000000E+00 0. -1.
         11    1    3    3    0    0  0.36517901130E+00  0.33140706347E+01 -0.23631496856E+01  0.40866730454E+01  0.51100000000E-03 0. -1.
        -11    1    3    3    0    0 -0.16172895323E+01 -0.64040504361E+01  0.32663589285E+01  0.73686218746E+01  0.51100000000E-03 0.  1.
        -12    1    3    3    0    0 -0.37261228279E+02  0.10907536838E-01  0.11761995271E+02  0.39073568875E+02  0.00000000000E+00 0.  1.
</event>
<event>
 7    1  0.2969156E-011  0.5052898E+02  0.7816164E-02  0.1300438E+00
        -11   -1    0    0    0    0  0.00000000000E+00  0.00000000000E+00  0.45593999997E+02  0.45594000000E+02  0.51100000000E-03 0. -1.
         11   -1    0    0    0    0 -0.00000000000E+00 -0.00000000000E+00 -0.45593999997E+02  0.45594000000E+02  0.51100000000E-03 0.  1.
    9900012    2    1    2    0    0  0.27672047058E+02 -0.45155940005E+01 -0.29445262341E+02  0.50528975763E+02  0.30000352327E+02 0.  0.
         12    1    1    2    0    0 -0.27672047058E+02  0.45155940005E+01  0.29445262341E+02  0.40659024237E+02  0.00000000000E+00 0. -1.
         11    1    3    3    0    0  0.96918725533E+01 -0.30910262224E+01 -0.24821365282E+01  0.10471286392E+02  0.51100000000E-03 0. -1.
        -11    1    3    3    0    0  0.22403900097E+02  0.31356224652E+01 -0.24207185536E+02  0.33132381437E+02  0.51100000000E-03 0.  1.
        -12    1    3    3    0    0 -0.44237255926E+01 -0.45601902433E+01 -0.27559402768E+01  0.69253079342E+01  0.00000000000E+00 0.  1.
</event>
<event>
 7    1  0.3294313E-011  0.5052887E+02  0.7816164E-02  0.1300439E+00
        -11   -1    0    0    0    0  0.00000000000E+00  0.00000000000E+00  0.45593999997E+02  0.45594000000E+02  0.51100000000E-03 0. -1.
         11   -1    0    0    0    0 -0.00000000000E+00 -0.00000000000E+00 -0.45593999997E+02  0.45594000000E+02  0.51100000000E-03 0.  1.
    9900012    2    1    2    0    0 -0.18102298644E+02  0.16886922981E+01 -0.36367845879E+02  0.50528866810E+02  0.30000021155E+02 0.  0.
         12    1    1    2    0    0  0.18102298644E+02 -0.16886922981E+01  0.36367845879E+02  0.40659133190E+02  0.00000000000E+00 0. -1.
         11    1    3    3    0    0 -0.16487453165E+02  0.72808335760E+00 -0.10329262988E+02  0.19469460480E+02  0.51100000000E-03 0. -1.
        -11    1    3    3    0    0 -0.65030353035E+01 -0.56506617945E+01 -0.14956937716E+02  0.17260632462E+02  0.51100000000E-03 0.  1.
         12    1    3    3    0    0  0.48881898236E+01  0.66112707349E+01 -0.11081645175E+02  0.13798773869E+02  0.00000000000E+00 0. -1.
</event>
<event>
 7    1  0.2969156E-011  0.5052887E+02  0.7816164E-02  0.1300439E+00
        -11   -1    0    0    0    0  0.00000000000E+00  0.00000000000E+00  0.45593999997E+02  0.45594000000E+02  0.51100000000E-03 0.  1.
         11   -1    0    0    0    0 -0.00000000000E+00 -0.00000000000E+00 -0.45593999997E+02  0.45594000000E+02  0.51100000000E-03 0. -1.
    9900012    2    1    2    0    0  0.16700399757E+02  0.32939670267E+01  0.36924402255E+02  0.50528867536E+02  0.30000023363E+02 0.  0.
         12    1    1    2    0    0 -0.16700399757E+02 -0.32939670267E+01 -0.36924402255E+02  0.40659132464E+02  0.00000000000E+00 0. -1.
         11    1    3    3    0    0  0.18345236209E+02 -0.11780876040E+01  0.13535060401E+02  0.22828347341E+02  0.51100000000E-03 0. -1.
        -11    1    3    3    0    0  0.22250981956E+01  0.54448445320E+01  0.24290502813E+01  0.63637787114E+01  0.51100000000E-03 0.  1.
         12    1    3    3    0    0 -0.38699346481E+01 -0.97278990134E+00  0.20960291572E+02  0.21336741484E+02  0.00000000000E+00 0. -1.
</event>
<event>
 7    1  0.2969156E-011  0.5052885E+02  0.7816164E-02  0.1300439E+00
        -11   -1    0    0    0    0  0.00000000000E+00  0.00000000000E+00  0.45593999997E+02  0.45594000000E+02  0.51100000000E-03 0.  1.
         11   -1    0    0    0    0 -0.00000000000E+00 -0.00000000000E+00 -0.45593999997E+02  0.45594000000E+02  0.51100000000E-03 0. -1.
    9900012    2    1    2    0    0 -0.27458355068E+02  0.51581219117E+01  0.29539780899E+02  0.50528854162E+02  0.29999982712E+02 0.  0.
         12    1    1    2    0    0  0.27458355068E+02 -0.51581219117E+01 -0.29539780899E+02  0.40659145838E+02  0.00000000000E+00 0. -1.
         11    1    3    3    0    0 -0.44474331309E+01 -0.87634577414E+01  0.85420149333E+01  0.13020901367E+02  0.51100000000E-03 0. -1.
        -11    1    3    3    0    0 -0.56278097314E+01  0.37261963210E+00  0.12809748658E+02  0.13996454862E+02  0.51100000000E-03 0.  1.
         12    1    3    3    0    0 -0.17383112206E+02  0.13548960021E+02  0.81880173072E+01  0.23511497932E+02  0.00000000000E+00 0. -1.
</event>
<event>
 7    1  0.2969156E-011  0.5052886E+02  0.7816164E-02  0.1300439E+00
        -11   -1    0    0    0    0  0.00000000000E+00  0.00000000000E+00  0.45593999997E+02  0.45594000000E+02  0.51100000000E-03 0. -1.
         11   -1    0    0    0    0 -0.00000000000E+00 -0.00000000000E+00 -0.45593999997E+02  0.45594000000E+02  0.51100000000E-03 0.  1.
    9900012    2    1    2    0    0  0.17663597730E+02  0.30588560725E+02  0.20137100291E+02  0.50528861542E+02  0.30000005144E+02 0.  0.
         12    1    1    2    0    0 -0.17663597730E+02 -0.30588560725E+02 -0.20137100291E+02  0.40659138458E+02  0.00000000000E+00 0. -1.
         11    1    3    3    0    0  0.21184816812E+02  0.17122996886E+02  0.70957156446E+01  0.28148581962E+02  0.51100000000E-03 0. -1.
        -11    1    3    3    0    0  0.35857411592E+01  0.84649553029E+01  0.87375089385E+01  0.12682944085E+02  0.51100000000E-03 0.  1.
         12    1    3    3    0    0 -0.71069602413E+01  0.50006085358E+01  0.43038757081E+01  0.96973354954E+01  0.00000000000E+00 0. -1.
</event>
<event>
 7    1  0.2969156E-011  0.5052886E+02  0.7816164E-02  0.1300439E+00
        -11   -1    0    0    0    0  0.00000000000E+00  0.00000000000E+00  0.45593999997E+02  0.45594000000E+02  0.51100000000E-03 0.  1.
         11   -1    0    0    0    0 -0.00000000000E+00 -0.00000000000E+00 -0.45593999997E+02  0.45594000000E+02  0.51100000000E-03 0. -1.
    9900012    2    1    2    0    0 -0.29075103288E+02 -0.10346289317E+02  0.26471836138E+02  0.50528862745E+02  0.30000008800E+02 0.  0.
         12    1    1    2    0    0  0.29075103288E+02  0.10346289317E+02 -0.26471836138E+02  0.40659137255E+02  0.00000000000E+00 0. -1.
         11    1    3    3    0    0 -0.10116761789E+02 -0.14852234462E+02  0.12930961626E+02  0.22139275201E+02  0.51100000000E-03 0. -1.
        -11    1    3    3    0    0 -0.83492734315E+01  0.39184812924E+01  0.15056400817E+02  0.17656728697E+02  0.51100000000E-03 0.  1.
         12    1    3    3    0    0 -0.10609068068E+02  0.58746385323E+00 -0.15155263049E+01  0.10732858847E+02  0.00000000000E+00 0. -1.
</event>
<event>
 7    1  0.2969156E-011  0.5052881E+02  0.7816164E-02  0.1300439E+00
        -11   -1    0    0    0    0  0.00000000000E+00  0.00000000000E+00  0.45593999997E+02  0.45594000000E+02  0.51100000000E-03 0.  1.
         11   -1    0    0    0    0 -0.00000000000E+00 -0.00000000000E+00 -0.45593999997E+02  0.45594000000E+02  0.51100000000E-03 0. -1.
    9900012    2    1    2    0    0 -0.27425576065E+02  0.22596088341E+01  0.29931615806E+02  0.50528810641E+02  0.29999850423E+02 0.  0.
         12    1    1    2    0    0  0.27425576065E+02 -0.22596088341E+01 -0.29931615806E+02  0.40659189359E+02  0.00000000000E+00 0. -1.
         11    1    3    3    0    0  0.66131132478E+00  0.28067079794E+01  0.34952393151E+01  0.45311853284E+01  0.51100000000E-03 0. -1.
        -11    1    3    3    0    0 -0.22102914729E+02  0.84403168638E+01  0.26053961540E+02  0.35193560497E+02  0.51100000000E-03 0.  1.
        -12    1    3    3    0    0 -0.59839726608E+01 -0.89874160092E+01  0.38241495089E+00  0.10804064815E+02  0.00000000000E+00 0.  1.
</event>
<event>
 7    1  0.2969156E-011  0.5052886E+02  0.7816164E-02  0.1300439E+00
        -11   -1    0    0    0    0  0.00000000000E+00  0.00000000000E+00  0.45593999997E+02  0.45594000000E+02  0.51100000000E-03 0. -1.
         11   -1    0    0    0    0 -0.00000000000E+00 -0.00000000000E+00 -0.45593999997E+02  0.45594000000E+02  0.51100000000E-03 0.  1.
    9900012    2    1    2    0    0 -0.16331485233E+02  0.15170680024E+02 -0.34004390846E+02  0.50528861555E+02  0.30000005181E+02 0.  0.
         12    1    1    2    0    0  0.16331485233E+02 -0.15170680024E+02  0.34004390846E+02  0.40659138445E+02  0.00000000000E+00 0. -1.
         11    1    3    3    0    0  0.72145629953E+00  0.15923086833E+02 -0.16343668863E+02  0.22829382506E+02  0.51100000000E-03 0. -1.
        -11    1    3    3    0    0 -0.52900406465E+01 -0.49172371684E+00 -0.14607976045E+02  0.15544107779E+02  0.51100000000E-03 0.  1.
         12    1    3    3    0    0 -0.11762900886E+02 -0.26068309154E+00 -0.30527459386E+01  0.12155371269E+02  0.00000000000E+00 0. -1.
</event>
<event>
 7    1  0.2969156E-011  0.5052887E+02  0.7816164E-02  0.1300439E+00
        -11   -1    0    0    0    0  0.00000000000E+00  0.00000000000E+00  0.45593999997E+02  0.45594000000E+02  0.51100000000E-03 0. -1.
         11   -1    0    0    0    0 -0.00000000000E+00 -0.00000000000E+00 -0.45593999997E+02  0.45594000000E+02  0.51100000000E-03 0.  1.
    9900012    2    1    2    0    0 -0.72091426126E+01  0.16275894091E+02 -0.36555283361E+02  0.50528865636E+02  0.30000017587E+02 0.  0.
         12    1    1    2    0    0  0.72091426126E+01 -0.16275894091E+02  0.36555283361E+02  0.40659134364E+02  0.00000000000E+00 0. -1.
         11    1    3    3    0    0 -0.38011713576E+01 -0.18467958690E+01  0.18864035379E+01  0.46279668582E+01  0.51100000000E-03 0. -1.
        -11    1    3    3    0    0  0.41579786270E+01 -0.11983341644E+01 -0.62712077412E+01  0.76192412895E+01  0.51100000000E-03 0.  1.
         12    1    3    3    0    0 -0.75659498820E+01  0.19321024124E+02 -0.32170479157E+02  0.38281657488E+02  0.00000000000E+00 0. -1.
</event>
<event>
 7    1  0.2969156E-011  0.5052886E+02  0.7816164E-02  0.1300439E+00
        -11   -1    0    0    0    0  0.00000000000E+00  0.00000000000E+00  0.45593999997E+02  0.45594000000E+02  0.51100000000E-03 0.  1.
         11   -1    0    0    0    0 -0.00000000000E+00 -0.00000000000E+00 -0.45593999997E+02  0.45594000000E+02  0.51100000000E-03 0. -1.
    9900012    2    1    2    0    0  0.25262007109E+02 -0.23431025068E+02  0.21586654433E+02  0.50528860947E+02  0.30000003335E+02 0.  0.
         12    1    1    2    0    0 -0.25262007109E+02  0.23431025068E+02 -0.21586654433E+02  0.40659139053E+02  0.00000000000E+00 0. -1.
         11    1    3    3    0    0  0.86874226222E+01  0.37194618506E+01  0.98274238817E+01  0.13633927119E+02  0.51100000000E-03 0. -1.
        -11    1    3    3    0    0  0.16725565874E+02 -0.14504842092E+02  0.56419950067E+01  0.22846599437E+02  0.51100000000E-03 0.  1.
        -12    1    3    3    0    0 -0.15098138702E+00 -0.12645644827E+02  0.61172355443E+01  0.14048334391E+02  0.00000000000E+00 0.  1.
</event>
<event>
 7    1  0.2969156E-011  0.5052886E+02  0.7816164E-02  0.1300439E+00
        -11   -1    0    0    0    0  0.00000000000E+00  0.00000000000E+00  0.45593999997E+02  0.45594000000E+02  0.51100000000E-03 0. -1.
         11   -1    0    0    0    0 -0.00000000000E+00 -0.00000000000E+00 -0.45593999997E+02  0.45594000000E+02  0.51100000000E-03 0.  1.
    9900012    2    1    2    0    0  0.21243047203E+02  0.17942554332E+02 -0.29664171476E+02  0.50528863514E+02  0.30000011137E+02 0.  0.
         12    1    1    2    0    0 -0.21243047203E+02 -0.17942554332E+02  0.29664171476E+02  0.40659136486E+02  0.00000000000E+00 0. -1.
         11    1    3    3    0    0  0.17664524751E+02  0.34581951058E+01 -0.21699461872E+02  0.28193282779E+02  0.51100000000E-03 0. -1.
        -11    1    3    3    0    0  0.38815175772E-01 -0.29049467400E+01 -0.52468529149E-01  0.29056798495E+01  0.51100000000E-03 0.  1.
        -12    1    3    3    0    0  0.35397072759E+01  0.17389305966E+02 -0.79122410752E+01  0.19429900885E+02  0.00000000000E+00 0.  1.
</event>
<event>
 7    1  0.2969156E-011  0.5052886E+02  0.7816164E-02  0.1300439E+00
        -11   -1    0    0    0    0  0.00000000000E+00  0.00000000000E+00  0.45593999997E+02  0.45594000000E+02  0.51100000000E-03 0.  1.
         11   -1    0    0    0    0 -0.00000000000E+00 -0.00000000000E+00 -0.45593999997E+02  0.45594000000E+02  0.51100000000E-03 0. -1.
    9900012    2    1    2    0    0  0.47939998611E+00  0.12258637050E+01  0.40637827141E+02  0.50528861286E+02  0.30000004366E+02 0.  0.
         12    1    1    2    0    0 -0.47939998611E+00 -0.12258637050E+01 -0.40637827141E+02  0.40659138714E+02  0.00000000000E+00 0. -1.
         11    1    3    3    0    0  0.48140176694E+01 -0.26319979020E+01  0.16296392134E+01  0.57234520444E+01  0.51100000000E-03 0. -1.
        -11    1    3    3    0    0 -0.56905290460E+01  0.12043218415E+02  0.19595170984E+02  0.23693711334E+02  0.51100000000E-03 0.  1.
         12    1    3    3    0    0  0.13559113628E+01 -0.81853568079E+01  0.19413016944E+02  0.21111697908E+02  0.00000000000E+00 0. -1.
</event>
<event>
 7    1  0.2969156E-011  0.5052887E+02  0.7816164E-02  0.1300439E+00
        -11   -1    0    0    0    0  0.00000000000E+00  0.00000000000E+00  0.45593999997E+02  0.45594000000E+02  0.51100000000E-03 0.  1.
         11   -1    0    0    0    0 -0.00000000000E+00 -0.00000000000E+00 -0.45593999997E+02  0.45594000000E+02  0.51100000000E-03 0. -1.
    9900012    2    1    2    0    0 -0.41897679823E+01  0.37559078692E+02  0.14997554481E+02  0.50528865868E+02  0.30000018292E+02 0.  0.
         12    1    1    2    0    0  0.41897679823E+01 -0.37559078692E+02 -0.14997554481E+02  0.40659134132E+02  0.00000000000E+00 0. -1.
         11    1    3    3    0    0 -0.14385200933E+01  0.21751826833E+02  0.16381954849E+02  0.27268658852E+02  0.51100000000E-03 0.  1.
        -11    1    3    3    0    0  0.26816117426E+01 -0.26881594301E+01  0.73409241314E+00  0.38673162001E+01  0.51100000000E-03 0. -1.
        -12    1    3    3    0    0 -0.54328596316E+01  0.18495411289E+02 -0.21184927811E+01  0.19392890816E+02  0.00000000000E+00 0.  1.
</event>
<event>
 7    1  0.2969156E-011  0.5052887E+02  0.7816164E-02  0.1300439E+00
        -11   -1    0    0    0    0  0.00000000000E+00  0.00000000000E+00  0.45593999997E+02  0.45594000000E+02  0.51100000000E-03 0. -1.
         11   -1    0    0    0    0 -0.00000000000E+00 -0.00000000000E+00 -0.45593999997E+02  0.45594000000E+02  0.51100000000E-03 0.  1.
    9900012    2    1    2    0    0  0.24264058849E+02  0.52924153864E+01 -0.32193333653E+02  0.50528868871E+02  0.30000027422E+02 0.  0.
         12    1    1    2    0    0 -0.24264058849E+02 -0.52924153864E+01  0.32193333653E+02  0.40659131129E+02  0.00000000000E+00 0. -1.
         11    1    3    3    0    0  0.89249257839E+01  0.27467789772E+01 -0.12351625717E+02  0.15484242090E+02  0.51100000000E-03 0. -1.
        -11    1    3    3    0    0 -0.36121209539E+01  0.61312033705E+01 -0.12545610510E+02  0.14423294211E+02  0.51100000000E-03 0.  1.
         12    1    3    3    0    0  0.18951254019E+02 -0.35855669614E+01 -0.72960974256E+01  0.20621332570E+02  0.00000000000E+00 0. -1.
</event>
<event>
 7    1  0.2969156E-011  0.5052886E+02  0.7816164E-02  0.1300439E+00
        -11   -1    0    0    0    0  0.00000000000E+00  0.00000000000E+00  0.45593999997E+02  0.45594000000E+02  0.51100000000E-03 0.  1.
         11   -1    0    0    0    0 -0.00000000000E+00 -0.00000000000E+00 -0.45593999997E+02  0.45594000000E+02  0.51100000000E-03 0. -1.
    9900012    2    1    2    0    0  0.34438735203E+02  0.21423053195E+02 -0.28621078186E+01  0.50528863858E+02  0.30000012184E+02 0.  0.
         12    1    1    2    0    0 -0.34438735203E+02 -0.21423053195E+02  0.28621078186E+01  0.40659136142E+02  0.00000000000E+00 0. -1.
         11    1    3    3    0    0  0.11701318248E+00  0.43184729551E+01 -0.82957566851E+01  0.93532069361E+01  0.51100000000E-03 0. -1.
        -11    1    3    3    0    0  0.12849683930E+02  0.97159921804E+01 -0.39803150632E+01  0.16593908202E+02  0.51100000000E-03 0.  1.
         12    1    3    3    0    0  0.21472038090E+02  0.73885880599E+01  0.94139639297E+01  0.24581748720E+02  0.00000000000E+00 0. -1.
</event>
<event>
 7    1  0.2969156E-011  0.5052884E+02  0.7816164E-02  0.1300439E+00
        -11   -1    0    0    0    0  0.00000000000E+00  0.00000000000E+00  0.45593999997E+02  0.45594000000E+02  0.51100000000E-03 0.  1.
         11   -1    0    0    0    0 -0.00000000000E+00 -0.00000000000E+00 -0.45593999997E+02  0.45594000000E+02  0.51100000000E-03 0. -1.
    9900012    2    1    2    0    0 -0.71733183985E+01  0.32793541467E+02  0.22941105172E+02  0.50528841557E+02  0.29999944396E+02 0.  0.
         12    1    1    2    0    0  0.71733183985E+01 -0.32793541467E+02 -0.22941105172E+02  0.40659158443E+02  0.00000000000E+00 0. -1.
         11    1    3    3    0    0  0.24795407125E-01  0.65892100014E+01 -0.21957560822E+01  0.69454768222E+01  0.51100000000E-03 0. -1.
        -11    1    3    3    0    0 -0.86763840327E+01 -0.65093071656E+00  0.57659698892E+01  0.10437900158E+02  0.51100000000E-03 0.  1.
         12    1    3    3    0    0  0.14782702271E+01  0.26855262182E+02  0.19370891365E+02  0.33145464577E+02  0.00000000000E+00 0. -1.
</event>
<event>
 7    1  0.2969156E-011  0.5052892E+02  0.7816164E-02  0.1300439E+00
        -11   -1    0    0    0    0  0.00000000000E+00  0.00000000000E+00  0.45593999997E+02  0.45594000000E+02  0.51100000000E-03 0. -1.
         11   -1    0    0    0    0 -0.00000000000E+00 -0.00000000000E+00 -0.45593999997E+02  0.45594000000E+02  0.51100000000E-03 0.  1.
    9900012    2    1    2    0    0 -0.10947521488E+02 -0.15932808047E+02 -0.35769514475E+02  0.50528920266E+02  0.30000183641E+02 0.  0.
         12    1    1    2    0    0  0.10947521488E+02  0.15932808047E+02  0.35769514475E+02  0.40659079734E+02  0.00000000000E+00 0. -1.
         11    1    3    3    0    0  0.66627493449E+01  0.78499080027E+00 -0.10470458750E+01  0.67900474751E+01  0.51100000000E-03 0. -1.
        -11    1    3    3    0    0  0.89669782758E-01 -0.55985715792E+01 -0.89239443153E+01  0.10535123483E+02  0.51100000000E-03 0.  1.
         12    1    3    3    0    0 -0.17699940615E+02 -0.11119227268E+02 -0.25798524285E+02  0.33203749308E+02  0.00000000000E+00 0. -1.
</event>
<event>
 7    1  0.2969156E-011  0.5052885E+02  0.7816164E-02  0.1300439E+00
        -11   -1    0    0    0    0  0.00000000000E+00  0.00000000000E+00  0.45593999997E+02  0.45594000000E+02  0.51100000000E-03 0. -1.
         11   -1    0    0    0    0 -0.00000000000E+00 -0.00000000000E+00 -0.45593999997E+02  0.45594000000E+02  0.51100000000E-03 0.  1.
    9900012    2    1    2    0    0 -0.31471823804E+02  0.17903277585E+02 -0.18497663457E+02  0.50528848567E+02  0.29999965705E+02 0.  0.
         12    1    1    2    0    0  0.31471823804E+02 -0.17903277585E+02  0.18497663457E+02  0.40659151433E+02  0.00000000000E+00 0. -1.
         11    1    3    3    0    0 -0.59870423630E+00  0.75598816179E+01  0.13918925965E+01  0.77102284078E+01  0.51100000000E-03 0.  1.
        -11    1    3    3    0    0 -0.71148562088E+01 -0.48305360572E+01 -0.93987708818E+01  0.12739393699E+02  0.51100000000E-03 0. -1.
         12    1    3    3    0    0 -0.23758263359E+02  0.15173932025E+02 -0.10490785172E+02  0.30079226460E+02  0.00000000000E+00 0. -1.
</event>
<event>
 7    1  0.2969156E-011  0.5052885E+02  0.7816164E-02  0.1300439E+00
        -11   -1    0    0    0    0  0.00000000000E+00  0.00000000000E+00  0.45593999997E+02  0.45594000000E+02  0.51100000000E-03 0.  1.
         11   -1    0    0    0    0 -0.00000000000E+00 -0.00000000000E+00 -0.45593999997E+02  0.45594000000E+02  0.51100000000E-03 0. -1.
    9900012    2    1    2    0    0 -0.27344466185E+02  0.29013137266E+02  0.79802525530E+01  0.50528851020E+02  0.29999973161E+02 0.  0.
         12    1    1    2    0    0  0.27344466185E+02 -0.29013137266E+02 -0.79802525530E+01  0.40659148980E+02  0.00000000000E+00 0. -1.
         11    1    3    3    0    0 -0.98554398407E+01  0.19698611809E+02  0.68829957512E+00  0.22037213032E+02  0.51100000000E-03 0. -1.
        -11    1    3    3    0    0 -0.33304176832E+01  0.10504156710E+02 -0.24187069051E+01  0.11281805418E+02  0.51100000000E-03 0.  1.
        -12    1    3    3    0    0 -0.14158608661E+02 -0.11896312526E+01  0.97106598830E+01  0.17209832570E+02  0.00000000000E+00 0.  1.
</event>
<event>
 7    1  0.2969156E-011  0.5052892E+02  0.7816164E-02  0.1300439E+00
        -11   -1    0    0    0    0  0.00000000000E+00  0.00000000000E+00  0.45593999997E+02  0.45594000000E+02  0.51100000000E-03 0. -1.
         11   -1    0    0    0    0 -0.00000000000E+00 -0.00000000000E+00 -0.45593999997E+02  0.45594000000E+02  0.51100000000E-03 0.  1.
    9900012    2    1    2    0    0 -0.26504817168E+02  0.17439560711E+02 -0.25426709353E+02  0.50528915413E+02  0.30000168889E+02 0.  0.
         12    1    1    2    0    0  0.26504817168E+02 -0.17439560711E+02  0.25426709353E+02  0.40659084587E+02  0.00000000000E+00 0. -1.
         11    1    3    3    0    0 -0.39003356009E+00 -0.40357506912E+00 -0.14185357972E+02  0.14196456603E+02  0.51100000000E-03 0. -1.
        -11    1    3    3    0    0 -0.97561244012E+01 -0.30946764794E+00 -0.56010563290E+01  0.11253868927E+02  0.51100000000E-03 0.  1.
         12    1    3    3    0    0 -0.16358659207E+02  0.18152603428E+02 -0.56402950517E+01  0.25078589884E+02  0.00000000000E+00 0. -1.
</event>
<event>
 7    1  0.2969156E-011  0.5052887E+02  0.7816164E-02  0.1300439E+00
        -11   -1    0    0    0    0  0.00000000000E+00  0.00000000000E+00  0.45593999997E+02  0.45594000000E+02  0.51100000000E-03 0.  1.
         11   -1    0    0    0    0 -0.00000000000E+00 -0.00000000000E+00 -0.45593999997E+02  0.45594000000E+02  0.51100000000E-03 0. -1.
    9900012    2    1    2    0    0  0.24129715433E+02  0.10089163433E+02  0.31130858331E+02  0.50528871553E+02  0.30000035572E+02 0.  0.
         12    1    1    2    0    0 -0.24129715433E+02 -0.10089163433E+02 -0.31130858331E+02  0.40659128447E+02  0.00000000000E+00 0. -1.
         11    1    3    3    0    0  0.67252168453E+01  0.76200501019E+01  0.23838401870E+02  0.25914534709E+02  0.51100000000E-03 0. -1.
        -11    1    3    3    0    0  0.13070257074E+02  0.70216202306E+01  0.98706774780E+01  0.17820354788E+02  0.51100000000E-03 0.  1.
         12    1    3    3    0    0  0.43342415138E+01 -0.45525068991E+01 -0.25782210174E+01  0.67939820563E+01  0.00000000000E+00 0. -1.
</event>
<event>
 7    1  0.2969156E-011  0.5052885E+02  0.7816164E-02  0.1300439E+00
        -11   -1    0    0    0    0  0.00000000000E+00  0.00000000000E+00  0.45593999997E+02  0.45594000000E+02  0.51100000000E-03 0.  1.
         11   -1    0    0    0    0 -0.00000000000E+00 -0.00000000000E+00 -0.45593999997E+02  0.45594000000E+02  0.51100000000E-03 0. -1.
    9900012    2    1    2    0    0 -0.53580868805E+01 -0.21851498151E+02  0.33866936621E+02  0.50528850198E+02  0.29999970663E+02 0.  0.
         12    1    1    2    0    0  0.53580868805E+01  0.21851498151E+02 -0.33866936621E+02  0.40659149802E+02  0.00000000000E+00 0. -1.
         11    1    3    3    0    0 -0.11768287103E+02 -0.50165625058E+01  0.89621147992E+01  0.15619794578E+02  0.51100000000E-03 0. -1.
        -11    1    3    3    0    0  0.45424716892E+01 -0.52101620008E+00 -0.56274674857E+00  0.46067549416E+01  0.51100000000E-03 0.  1.
        -12    1    3    3    0    0  0.18677285332E+01 -0.16313919445E+02  0.25467568571E+02  0.30302300679E+02  0.00000000000E+00 0.  1.
</event>
<event>
 7    1  0.2969156E-011  0.5052886E+02  0.7816164E-02  0.1300439E+00
        -11   -1    0    0    0    0  0.00000000000E+00  0.00000000000E+00  0.45593999997E+02  0.45594000000E+02  0.51100000000E-03 0.  1.
         11   -1    0    0    0    0 -0.00000000000E+00 -0.00000000000E+00 -0.45593999997E+02  0.45594000000E+02  0.51100000000E-03 0. -1.
    9900012    2    1    2    0    0 -0.30502198398E+02 -0.23771326718E+02  0.12558085696E+02  0.50528860838E+02  0.30000003004E+02 0.  0.
         12    1    1    2    0    0  0.30502198398E+02  0.23771326718E+02 -0.12558085696E+02  0.40659139162E+02  0.00000000000E+00 0. -1.
         11    1    3    3    0    0 -0.24847459664E+02 -0.15333488807E+02  0.16256525004E+02  0.33418359269E+02  0.51100000000E-03 0. -1.
        -11    1    3    3    0    0 -0.73715780124E+01 -0.10853488838E+02 -0.10949709932E+01  0.13165764091E+02  0.51100000000E-03 0.  1.
         12    1    3    3    0    0  0.17168392784E+01  0.24156509273E+01 -0.26034683148E+01  0.39447374787E+01  0.00000000000E+00 0. -1.
</event>
<event>
 7    1  0.2969156E-011  0.5052882E+02  0.7816164E-02  0.1300439E+00
        -11   -1    0    0    0    0  0.00000000000E+00  0.00000000000E+00  0.45593999997E+02  0.45594000000E+02  0.51100000000E-03 0.  1.
         11   -1    0    0    0    0 -0.00000000000E+00 -0.00000000000E+00 -0.45593999997E+02  0.45594000000E+02  0.51100000000E-03 0. -1.
    9900012    2    1    2    0    0 -0.25183109311E+02 -0.26037314241E+02  0.18467211749E+02  0.50528823457E+02  0.29999889378E+02 0.  0.
         12    1    1    2    0    0  0.25183109311E+02  0.26037314241E+02 -0.18467211749E+02  0.40659176543E+02  0.00000000000E+00 0. -1.
         11    1    3    3    0    0 -0.18299904391E+02 -0.61396080109E+01  0.13640479368E+02  0.23635650295E+02  0.51100000000E-03 0.  1.
        -11    1    3    3    0    0  0.33424357157E+01  0.46468983788E+00 -0.70070665462E+00  0.34465639753E+01  0.51100000000E-03 0. -1.
        -12    1    3    3    0    0 -0.10225640636E+02 -0.20362396068E+02  0.55274390356E+01  0.23446609186E+02  0.00000000000E+00 0.  1.
</event>
<event>
 7    1  0.2969156E-011  0.5052886E+02  0.7816164E-02  0.1300439E+00
        -11   -1    0    0    0    0  0.00000000000E+00  0.00000000000E+00  0.45593999997E+02  0.45594000000E+02  0.51100000000E-03 0.  1.
         11   -1    0    0    0    0 -0.00000000000E+00 -0.00000000000E+00 -0.45593999997E+02  0.45594000000E+02  0.51100000000E-03 0. -1.
    9900012    2    1    2    0    0  0.10030602049E+02  0.38591158236E+02 -0.79545460451E+01  0.50528864812E+02  0.30000015084E+02 0.  0.
         12    1    1    2    0    0 -0.10030602049E+02 -0.38591158236E+02  0.79545460451E+01  0.40659135188E+02  0.00000000000E+00 0. -1.
         11    1    3    3    0    0 -0.13408156372E+01  0.23623600807E+02  0.12601201707E+01  0.23695151503E+02  0.51100000000E-03 0. -1.
        -11    1    3    3    0    0  0.52889287870E+01  0.71500522513E-02  0.34463564037E+01  0.63127008134E+01  0.51100000000E-03 0.  1.
        -12    1    3    3    0    0  0.60824888991E+01  0.14960407376E+02 -0.12661022620E+02  0.20521012496E+02  0.00000000000E+00 0.  1.
</event>
<event>
 7    1  0.2969156E-011  0.5052885E+02  0.7816164E-02  0.1300439E+00
        -11   -1    0    0    0    0  0.00000000000E+00  0.00000000000E+00  0.45593999997E+02  0.45594000000E+02  0.51100000000E-03 0. -1.
         11   -1    0    0    0    0 -0.00000000000E+00 -0.00000000000E+00 -0.45593999997E+02  0.45594000000E+02  0.51100000000E-03 0.  1.
    9900012    2    1    2    0    0 -0.32288799295E+02 -0.24655005821E+02  0.16523584539E+01  0.50528853915E+02  0.29999981959E+02 0.  0.
         12    1    1    2    0    0  0.32288799295E+02  0.24655005821E+02 -0.16523584539E+01  0.40659146085E+02  0.00000000000E+00 0. -1.
         11    1    3    3    0    0 -0.17876146418E+01 -0.46849120635E+00 -0.29235797597E+01  0.34586657818E+01  0.51100000000E-03 0. -1.
        -11    1    3    3    0    0 -0.14194545932E+00  0.48413918016E+01  0.51038175882E+00  0.48702887892E+01  0.51100000000E-03 0.  1.
        -12    1    3    3    0    0 -0.30359239194E+02 -0.29027906416E+02  0.40655564548E+01  0.42199899344E+02  0.00000000000E+00 0.  1.
</event>
<event>
 7    1  0.2969156E-011  0.5052893E+02  0.7816164E-02  0.1300439E+00
        -11   -1    0    0    0    0  0.00000000000E+00  0.00000000000E+00  0.45593999997E+02  0.45594000000E+02  0.51100000000E-03 0.  1.
         11   -1    0    0    0    0 -0.00000000000E+00 -0.00000000000E+00 -0.45593999997E+02  0.45594000000E+02  0.51100000000E-03 0. -1.
    9900012    2    1    2    0    0 -0.98569479136E+01  0.95574553092E+00  0.39434592069E+02  0.50528930614E+02  0.30000215095E+02 0.  0.
         12    1    1    2    0    0  0.98569479136E+01 -0.95574553092E+00 -0.39434592069E+02  0.40659069386E+02  0.00000000000E+00 0. -1.
         11    1    3    3    0    0 -0.56415114655E+01 -0.32720853878E+01  0.65316488592E+00  0.65543740380E+01  0.51100000000E-03 0. -1.
        -11    1    3    3    0    0  0.61796702107E+01 -0.85665251112E+00  0.42320534844E+01  0.75387302905E+01  0.51100000000E-03 0.  1.
        -12    1    3    3    0    0 -0.10395106659E+02  0.50844834299E+01  0.34549373698E+02  0.36435826286E+02  0.00000000000E+00 0.  1.
</event>
<event>
 7    1  0.2969156E-011  0.5052885E+02  0.7816164E-02  0.1300439E+00
        -11   -1    0    0    0    0  0.00000000000E+00  0.00000000000E+00  0.45593999997E+02  0.45594000000E+02  0.51100000000E-03 0.  1.
         11   -1    0    0    0    0 -0.00000000000E+00 -0.00000000000E+00 -0.45593999997E+02  0.45594000000E+02  0.51100000000E-03 0. -1.
    9900012    2    1    2    0    0  0.10864286498E+02 -0.10564404763E+01  0.39166532987E+02  0.50528854734E+02  0.29999984449E+02 0.  0.
         12    1    1    2    0    0 -0.10864286498E+02  0.10564404763E+01 -0.39166532987E+02  0.40659145266E+02  0.00000000000E+00 0. -1.
         11    1    3    3    0    0 -0.63154605728E+01 -0.35705988945E+01  0.64132269771E+00  0.72832351174E+01  0.51100000000E-03 0. -1.
        -11    1    3    3    0    0  0.63952304818E+01 -0.14748757170E+01  0.65783351116E+01  0.92924014333E+01  0.51100000000E-03 0.  1.
        -12    1    3    3    0    0  0.10784516589E+02  0.39890341352E+01  0.31946875177E+02  0.33953218183E+02  0.00000000000E+00 0.  1.
</event>
<event>
 7    1  0.2969156E-011  0.5052886E+02  0.7816164E-02  0.1300439E+00
        -11   -1    0    0    0    0  0.00000000000E+00  0.00000000000E+00  0.45593999997E+02  0.45594000000E+02  0.51100000000E-03 0. -1.
         11   -1    0    0    0    0 -0.00000000000E+00 -0.00000000000E+00 -0.45593999997E+02  0.45594000000E+02  0.51100000000E-03 0.  1.
    9900012    2    1    2    0    0 -0.24878017535E+02 -0.30800504666E+02  0.92508622162E+01  0.50528864546E+02  0.30000014274E+02 0.  0.
         12    1    1    2    0    0  0.24878017535E+02  0.30800504666E+02 -0.92508622162E+01  0.40659135454E+02  0.00000000000E+00 0. -1.
         11    1    3    3    0    0 -0.60841028010E+01 -0.13656014478E+02 -0.89365793878E+01  0.17417390440E+02  0.51100000000E-03 0. -1.
        -11    1    3    3    0    0  0.60186870128E+00 -0.11888781828E+01 -0.86379967818E+00  0.15880262631E+01  0.51100000000E-03 0.  1.
         12    1    3    3    0    0 -0.19395783435E+02 -0.15955612004E+02  0.19051241282E+02  0.31523447843E+02  0.00000000000E+00 0. -1.
</event>
<event>
 7    1  0.2969156E-011  0.5052886E+02  0.7816164E-02  0.1300439E+00
        -11   -1    0    0    0    0  0.00000000000E+00  0.00000000000E+00  0.45593999997E+02  0.45594000000E+02  0.51100000000E-03 0. -1.
         11   -1    0    0    0    0 -0.00000000000E+00 -0.00000000000E+00 -0.45593999997E+02  0.45594000000E+02  0.51100000000E-03 0.  1.
    9900012    2    1    2    0    0  0.21559913820E+02  0.24263152095E+02 -0.24487450416E+02  0.50528860051E+02  0.30000000612E+02 0.  0.
         12    1    1    2    0    0 -0.21559913820E+02 -0.24263152095E+02  0.24487450416E+02  0.40659139949E+02  0.00000000000E+00 0. -1.
         11    1    3    3    0    0  0.18124812022E+01  0.17420492332E+01  0.47811112324E+00  0.25589869376E+01  0.51100000000E-03 0. -1.
        -11    1    3    3    0    0  0.20559010659E+02  0.66151402791E+01 -0.45403691736E+01  0.22069162936E+02  0.51100000000E-03 0.  1.
         12    1    3    3    0    0 -0.81157804081E+00  0.15905962582E+02 -0.20425192365E+02  0.25900710178E+02  0.00000000000E+00 0. -1.
</event>
<event>
 7    1  0.2969156E-011  0.5052886E+02  0.7816164E-02  0.1300439E+00
        -11   -1    0    0    0    0  0.00000000000E+00  0.00000000000E+00  0.45593999997E+02  0.45594000000E+02  0.51100000000E-03 0.  1.
         11   -1    0    0    0    0 -0.00000000000E+00 -0.00000000000E+00 -0.45593999997E+02  0.45594000000E+02  0.51100000000E-03 0. -1.
    9900012    2    1    2    0    0 -0.19062590486E+01 -0.35934839133E+02  0.18926678956E+02  0.50528860027E+02  0.30000000537E+02 0.  0.
         12    1    1    2    0    0  0.19062590486E+01  0.35934839133E+02 -0.18926678956E+02  0.40659139973E+02  0.00000000000E+00 0. -1.
         11    1    3    3    0    0 -0.47803618704E+01 -0.20229808576E+02  0.13986596328E+02  0.25054378694E+02  0.51100000000E-03 0. -1.
        -11    1    3    3    0    0 -0.73846888180E+01 -0.88799008971E+01 -0.13712500976E+01  0.11630416844E+02  0.51100000000E-03 0.  1.
         12    1    3    3    0    0  0.10258791640E+02 -0.68251296598E+01  0.63113327262E+01  0.13844064488E+02  0.00000000000E+00 0. -1.
</event>
<event>
 7    1  0.2969156E-011  0.5052895E+02  0.7816164E-02  0.1300438E+00
        -11   -1    0    0    0    0  0.00000000000E+00  0.00000000000E+00  0.45593999997E+02  0.45594000000E+02  0.51100000000E-03 0.  1.
         11   -1    0    0    0    0 -0.00000000000E+00 -0.00000000000E+00 -0.45593999997E+02  0.45594000000E+02  0.51100000000E-03 0. -1.
    9900012    2    1    2    0    0 -0.39684417019E+02 -0.38206569932E+01 -0.79817080053E+01  0.50528953815E+02  0.30000285615E+02 0.  0.
         12    1    1    2    0    0  0.39684417019E+02  0.38206569932E+01  0.79817080053E+01  0.40659046185E+02  0.00000000000E+00 0. -1.
         11    1    3    3    0    0 -0.97712333791E+01  0.38079764757E+01 -0.88742902415E+01  0.13737929762E+02  0.51100000000E-03 0. -1.
        -11    1    3    3    0    0  0.22963027015E+01  0.18926905089E+01  0.11834300051E+01  0.32024662835E+01  0.51100000000E-03 0.  1.
        -12    1    3    3    0    0 -0.32209486341E+02 -0.95213239777E+01 -0.29084776896E+00  0.33588557770E+02  0.00000000000E+00 0.  1.
</event>
<event>
 7    1  0.2969156E-011  0.5052885E+02  0.7816164E-02  0.1300439E+00
        -11   -1    0    0    0    0  0.00000000000E+00  0.00000000000E+00  0.45593999997E+02  0.45594000000E+02  0.51100000000E-03 0.  1.
         11   -1    0    0    0    0 -0.00000000000E+00 -0.00000000000E+00 -0.45593999997E+02  0.45594000000E+02  0.51100000000E-03 0. -1.
    9900012    2    1    2    0    0  0.27849729352E+00 -0.28086425491E+02  0.29397982578E+02  0.50528852969E+02  0.29999979085E+02 0.  0.
         12    1    1    2    0    0 -0.27849729352E+00  0.28086425491E+02 -0.29397982578E+02  0.40659147031E+02  0.00000000000E+00 0. -1.
         11    1    3    3    0    0 -0.74079342770E+00 -0.48988845241E+01 -0.33743197844E+01  0.59944873636E+01  0.51100000000E-03 0. -1.
        -11    1    3    3    0    0  0.62386783564E+01 -0.13488106382E+02  0.68395253977E+01  0.16359377413E+02  0.51100000000E-03 0.  1.
        -12    1    3    3    0    0 -0.52193876352E+01 -0.96994345844E+01  0.25932776965E+02  0.28174988193E+02  0.00000000000E+00 0.  1.
</event>
<event>
 7    1  0.2969156E-011  0.5052885E+02  0.7816164E-02  0.1300439E+00
        -11   -1    0    0    0    0  0.00000000000E+00  0.00000000000E+00  0.45593999997E+02  0.45594000000E+02  0.51100000000E-03 0. -1.
         11   -1    0    0    0    0 -0.00000000000E+00 -0.00000000000E+00 -0.45593999997E+02  0.45594000000E+02  0.51100000000E-03 0.  1.
    9900012    2    1    2    0    0  0.27757504958E+02  0.17962644151E+02 -0.23664967235E+02  0.50528851698E+02  0.29999975222E+02 0.  0.
         12    1    1    2    0    0 -0.27757504958E+02 -0.17962644151E+02  0.23664967235E+02  0.40659148302E+02  0.00000000000E+00 0. -1.
         11    1    3    3    0    0 -0.22709084911E+00 -0.90830793726E+00 -0.35374142992E+00  0.10008630391E+01  0.51100000000E-03 0. -1.
        -11    1    3    3    0    0 -0.18891474749E+01 -0.46271739494E+01 -0.11188635417E+00  0.49992135139E+01  0.51100000000E-03 0.  1.
        -12    1    3    3    0    0  0.29873743282E+02  0.23498126038E+02 -0.23199339451E+02  0.44528775145E+02  0.00000000000E+00 0.  1.
</event>
<event>
 7    1  0.2969156E-011  0.5052882E+02  0.7816164E-02  0.1300439E+00
        -11   -1    0    0    0    0  0.00000000000E+00  0.00000000000E+00  0.45593999997E+02  0.45594000000E+02  0.51100000000E-03 0.  1.
         11   -1    0    0    0    0 -0.00000000000E+00 -0.00000000000E+00 -0.45593999997E+02  0.45594000000E+02  0.51100000000E-03 0. -1.
    9900012    2    1    2    0    0 -0.25224019774E+02  0.88931518350E+01  0.30624008920E+02  0.50528815976E+02  0.29999866641E+02 0.  0.
         12    1    1    2    0    0  0.25224019774E+02 -0.88931518350E+01 -0.30624008920E+02  0.40659184024E+02  0.00000000000E+00 0. -1.
         11    1    3    3    0    0 -0.13414199985E+02 -0.17015016791E+01  0.10308957757E+02  0.17003249086E+02  0.51100000000E-03 0. -1.
        -11    1    3    3    0    0 -0.27574152802E+01 -0.44245739742E+00 -0.42669157736E+01  0.50995762624E+01  0.51100000000E-03 0.  1.
        -12    1    3    3    0    0 -0.90524045094E+01  0.11037110912E+02  0.24581966937E+02  0.28425990627E+02  0.00000000000E+00 0.  1.
</event>
<event>
 7    1  0.2969156E-011  0.5052885E+02  0.7816164E-02  0.1300439E+00
        -11   -1    0    0    0    0  0.00000000000E+00  0.00000000000E+00  0.45593999997E+02  0.45594000000E+02  0.51100000000E-03 0.  1.
         11   -1    0    0    0    0 -0.00000000000E+00 -0.00000000000E+00 -0.45593999997E+02  0.45594000000E+02  0.51100000000E-03 0. -1.
    9900012    2    1    2    0    0  0.60242000734E+01 -0.40201666683E+02  0.83751839399E+00  0.50528850627E+02  0.29999971967E+02 0.  0.
         12    1    1    2    0    0 -0.60242000734E+01  0.40201666683E+02 -0.83751839399E+00  0.40659149373E+02  0.00000000000E+00 0. -1.
         11    1    3    3    0    0 -0.73639131238E+01 -0.12492781485E+02 -0.62755361177E+01  0.15801239177E+02  0.51100000000E-03 0. -1.
        -11    1    3    3    0    0  0.44387103096E+01 -0.18303047026E+02 -0.18902656660E+01  0.18928200765E+02  0.51100000000E-03 0.  1.
        -12    1    3    3    0    0  0.89494028875E+01 -0.94058381727E+01  0.90033201777E+01  0.15799410685E+02  0.00000000000E+00 0.  1.
</event>
<event>
 7    1  0.2969156E-011  0.5052885E+02  0.7816164E-02  0.1300439E+00
        -11   -1    0    0    0    0  0.00000000000E+00  0.00000000000E+00  0.45593999997E+02  0.45594000000E+02  0.51100000000E-03 0.  1.
         11   -1    0    0    0    0 -0.00000000000E+00 -0.00000000000E+00 -0.45593999997E+02  0.45594000000E+02  0.51100000000E-03 0. -1.
    9900012    2    1    2    0    0 -0.33155149122E+02  0.23534850918E+02 -0.11725087102E+00  0.50528845203E+02  0.29999955480E+02 0.  0.
         12    1    1    2    0    0  0.33155149122E+02 -0.23534850918E+02  0.11725087102E+00  0.40659154797E+02  0.00000000000E+00 0. -1.
         11    1    3    3    0    0 -0.36725011482E+01 -0.21663461490E+01 -0.26183649565E+01  0.50036142565E+01  0.51100000000E-03 0. -1.
        -11    1    3    3    0    0 -0.66258320259E+01  0.18948774191E+02  0.70226347653E+01  0.21266760277E+02  0.51100000000E-03 0.  1.
         12    1    3    3    0    0 -0.22856815948E+02  0.67524228759E+01 -0.45215206798E+01  0.24258470669E+02  0.00000000000E+00 0. -1.
</event>
<event>
 7    1  0.2969156E-011  0.5052885E+02  0.7816164E-02  0.1300439E+00
        -11   -1    0    0    0    0  0.00000000000E+00  0.00000000000E+00  0.45593999997E+02  0.45594000000E+02  0.51100000000E-03 0.  1.
         11   -1    0    0    0    0 -0.00000000000E+00 -0.00000000000E+00 -0.45593999997E+02  0.45594000000E+02  0.51100000000E-03 0. -1.
    9900012    2    1    2    0    0  0.12309258968E+02  0.11569416912E+02  0.36983738229E+02  0.50528853951E+02  0.29999982070E+02 0.  0.
         12    1    1    2    0    0 -0.12309258968E+02 -0.11569416912E+02 -0.36983738229E+02  0.40659146049E+02  0.00000000000E+00 0. -1.
         11    1    3    3    0    0 -0.43460546837E+01 -0.44998787478E+01  0.59555930610E+01  0.86374874256E+01  0.51100000000E-03 0. -1.
        -11    1    3    3    0    0  0.70388476464E+00  0.20020316063E+01  0.15281928505E+02  0.15428574899E+02  0.51100000000E-03 0.  1.
         12    1    3    3    0    0  0.15951428887E+02  0.14067264053E+02  0.15746216663E+02  0.26462791627E+02  0.00000000000E+00 0. -1.
</event>
<event>
 7    1  0.2969156E-011  0.5052886E+02  0.7816164E-02  0.1300439E+00
        -11   -1    0    0    0    0  0.00000000000E+00  0.00000000000E+00  0.45593999997E+02  0.45594000000E+02  0.51100000000E-03 0.  1.
         11   -1    0    0    0    0 -0.00000000000E+00 -0.00000000000E+00 -0.45593999997E+02  0.45594000000E+02  0.51100000000E-03 0. -1.
    9900012    2    1    2    0    0 -0.41146928081E+01 -0.40125042943E+02 -0.51201252094E+01  0.50528862648E+02  0.30000008504E+02 0.  0.
         12    1    1    2    0    0  0.41146928081E+01  0.40125042943E+02  0.51201252094E+01  0.40659137352E+02  0.00000000000E+00 0. -1.
         11    1    3    3    0    0 -0.35119432221E+01 -0.14814953723E+02  0.75130900359E+01  0.16978313260E+02  0.51100000000E-03 0. -1.
        -11    1    3    3    0    0 -0.92346155697E+01 -0.15215776083E+02 -0.71266116871E+01  0.19172547064E+02  0.51100000000E-03 0.  1.
         12    1    3    3    0    0  0.86318659837E+01 -0.10094313137E+02 -0.55066035582E+01  0.14378002323E+02  0.00000000000E+00 0. -1.
</event>
<event>
 7    1  0.2969156E-011  0.5052886E+02  0.7816164E-02  0.1300439E+00
        -11   -1    0    0    0    0  0.00000000000E+00  0.00000000000E+00  0.45593999997E+02  0.45594000000E+02  0.51100000000E-03 0. -1.
         11   -1    0    0    0    0 -0.00000000000E+00 -0.00000000000E+00 -0.45593999997E+02  0.45594000000E+02  0.51100000000E-03 0.  1.
    9900012    2    1    2    0    0  0.23133868691E+02 -0.11256140664E+02 -0.31484746098E+02  0.50528858099E+02  0.29999994676E+02 0.  0.
         12    1    1    2    0    0 -0.23133868691E+02  0.11256140664E+02  0.31484746098E+02  0.40659141901E+02  0.00000000000E+00 0. -1.
         11    1    3    3    0    0  0.32267937308E+01 -0.99119789839E+01  0.68729633474E+00  0.10446621543E+02  0.51100000000E-03 0. -1.
        -11    1    3    3    0    0 -0.15203659295E-01 -0.30768739287E+01 -0.88013151579E+01  0.93236544925E+01  0.51100000000E-03 0.  1.
        -12    1    3    3    0    0  0.19922278620E+02  0.17327122482E+01 -0.23370727275E+02  0.30758582063E+02  0.00000000000E+00 0.  1.
</event>
<event>
 7    1  0.2969156E-011  0.5052888E+02  0.7816164E-02  0.1300439E+00
        -11   -1    0    0    0    0  0.00000000000E+00  0.00000000000E+00  0.45593999997E+02  0.45594000000E+02  0.51100000000E-03 0.  1.
         11   -1    0    0    0    0 -0.00000000000E+00 -0.00000000000E+00 -0.45593999997E+02  0.45594000000E+02  0.51100000000E-03 0. -1.
    9900012    2    1    2    0    0 -0.12132497179E+02 -0.27583327467E+02  0.27297014241E+02  0.50528875213E+02  0.30000046697E+02 0.  0.
         12    1    1    2    0    0  0.12132497179E+02  0.27583327467E+02 -0.27297014241E+02  0.40659124787E+02  0.00000000000E+00 0. -1.
         11    1    3    3    0    0 -0.60686125283E+00 -0.26994591674E+02  0.18466061495E+02  0.32711950226E+02  0.51100000000E-03 0.  1.
        -11    1    3    3    0    0 -0.69057108933E+01 -0.18921329931E+01 -0.65034962974E+00  0.71897124496E+01  0.51100000000E-03 0. -1.
        -12    1    3    3    0    0 -0.46199250329E+01  0.13033971995E+01  0.94813023757E+01  0.10627212537E+02  0.00000000000E+00 0.  1.
</event>
<event>
 7    1  0.2969156E-011  0.5052887E+02  0.7816164E-02  0.1300439E+00
        -11   -1    0    0    0    0  0.00000000000E+00  0.00000000000E+00  0.45593999997E+02  0.45594000000E+02  0.51100000000E-03 0.  1.
         11   -1    0    0    0    0 -0.00000000000E+00 -0.00000000000E+00 -0.45593999997E+02  0.45594000000E+02  0.51100000000E-03 0. -1.
    9900012    2    1    2    0    0  0.29134149214E+01  0.24591416419E+02  0.32248091760E+02  0.50528866091E+02  0.30000018971E+02 0.  0.
         12    1    1    2    0    0 -0.29134149214E+01 -0.24591416419E+02 -0.32248091760E+02  0.40659133909E+02  0.00000000000E+00 0. -1.
         11    1    3    3    0    0 -0.94909336008E+01  0.94857318653E+01  0.12005279971E+02  0.18005101418E+02  0.51100000000E-03 0. -1.
        -11    1    3    3    0    0  0.42738324663E+01  0.83473334972E+01  0.19838584228E+02  0.21943405499E+02  0.51100000000E-03 0.  1.
         12    1    3    3    0    0  0.81305160559E+01  0.67583510569E+01  0.40422756189E+00  0.10580359175E+02  0.00000000000E+00 0. -1.
</event>
<event>
 7    1  0.2969156E-011  0.5052885E+02  0.7816164E-02  0.1300439E+00
        -11   -1    0    0    0    0  0.00000000000E+00  0.00000000000E+00  0.45593999997E+02  0.45594000000E+02  0.51100000000E-03 0.  1.
         11   -1    0    0    0    0 -0.00000000000E+00 -0.00000000000E+00 -0.45593999997E+02  0.45594000000E+02  0.51100000000E-03 0. -1.
    9900012    2    1    2    0    0  0.22802514942E+02 -0.25957171890E+02  0.21434489899E+02  0.50528845835E+02  0.29999957399E+02 0.  0.
         12    1    1    2    0    0 -0.22802514942E+02  0.25957171890E+02 -0.21434489899E+02  0.40659154165E+02  0.00000000000E+00 0. -1.
         11    1    3    3    0    0 -0.23778784689E+01 -0.17557039187E+02  0.12237212579E+02  0.21532610222E+02  0.51100000000E-03 0. -1.
        -11    1    3    3    0    0  0.66021603135E+01 -0.15719020006E+01  0.57708282095E+01  0.89085271056E+01  0.51100000000E-03 0.  1.
        -12    1    3    3    0    0  0.18578233098E+02 -0.68282307023E+01  0.34264491113E+01  0.20087708507E+02  0.00000000000E+00 0.  1.
</event>
<event>
 7    1  0.2969156E-011  0.5052886E+02  0.7816164E-02  0.1300439E+00
        -11   -1    0    0    0    0  0.00000000000E+00  0.00000000000E+00  0.45593999997E+02  0.45594000000E+02  0.51100000000E-03 0. -1.
         11   -1    0    0    0    0 -0.00000000000E+00 -0.00000000000E+00 -0.45593999997E+02  0.45594000000E+02  0.51100000000E-03 0.  1.
    9900012    2    1    2    0    0  0.86738217771E+01 -0.39236692790E+02 -0.61977981098E+01  0.50528856543E+02  0.29999989947E+02 0.  0.
         12    1    1    2    0    0 -0.86738217771E+01  0.39236692790E+02  0.61977981098E+01  0.40659143457E+02  0.00000000000E+00 0. -1.
         11    1    3    3    0    0  0.56766553031E+01 -0.26632319306E+01 -0.35248364756E+01  0.71931698289E+01  0.51100000000E-03 0. -1.
        -11    1    3    3    0    0  0.26283788414E+01 -0.98433198700E+01  0.95289549405E+01  0.13949921287E+02  0.51100000000E-03 0.  1.
        -12    1    3    3    0    0  0.36878763263E+00 -0.26730140989E+02 -0.12201916575E+02  0.29385765427E+02  0.00000000000E+00 0.  1.
</event>
<event>
 7    1  0.2969156E-011  0.5052886E+02  0.7816164E-02  0.1300439E+00
        -11   -1    0    0    0    0  0.00000000000E+00  0.00000000000E+00  0.45593999997E+02  0.45594000000E+02  0.51100000000E-03 0.  1.
         11   -1    0    0    0    0 -0.00000000000E+00 -0.00000000000E+00 -0.45593999997E+02  0.45594000000E+02  0.51100000000E-03 0. -1.
    9900012    2    1    2    0    0 -0.34580564642E+02  0.16478731584E+02  0.13630909201E+02  0.50528859192E+02  0.29999998001E+02 0.  0.
         12    1    1    2    0    0  0.34580564642E+02 -0.16478731584E+02 -0.13630909201E+02  0.40659140808E+02  0.00000000000E+00 0. -1.
         11    1    3    3    0    0  0.29421666242E+01 -0.13314475692E+01  0.62276896872E+00  0.32889114496E+01  0.51100000000E-03 0. -1.
        -11    1    3    3    0    0 -0.58544775713E+01  0.11435705620E+02  0.14399740065E+01  0.12927636909E+02  0.51100000000E-03 0.  1.
        -12    1    3    3    0    0 -0.31668253695E+02  0.63744735341E+01  0.11568166226E+02  0.34312310834E+02  0.00000000000E+00 0.  1.
</event>
<event>
 7    1  0.2969156E-011  0.5052885E+02  0.7816164E-02  0.1300439E+00
        -11   -1    0    0    0    0  0.00000000000E+00  0.00000000000E+00  0.45593999997E+02  0.45594000000E+02  0.51100000000E-03 0.  1.
         11   -1    0    0    0    0 -0.00000000000E+00 -0.00000000000E+00 -0.45593999997E+02  0.45594000000E+02  0.51100000000E-03 0. -1.
    9900012    2    1    2    0    0  0.24104550950E+02  0.31613021520E+02  0.85295707935E+01  0.50528854854E+02  0.29999984813E+02 0.  0.
         12    1    1    2    0    0 -0.24104550950E+02 -0.31613021520E+02 -0.85295707935E+01  0.40659145146E+02  0.00000000000E+00 0. -1.
         11    1    3    3    0    0  0.10471182504E+01  0.19885510005E+02  0.17278910729E+01  0.19987885646E+02  0.51100000000E-03 0. -1.
        -11    1    3    3    0    0  0.75324413680E+01  0.98653775977E+01  0.81467054012E+01  0.14846957845E+02  0.51100000000E-03 0.  1.
        -12    1    3    3    0    0  0.15524991331E+02  0.18621339176E+01 -0.13450256806E+01  0.15694011362E+02  0.00000000000E+00 0.  1.
</event>
<event>
 7    1  0.2969156E-011  0.5052886E+02  0.7816164E-02  0.1300439E+00
        -11   -1    0    0    0    0  0.00000000000E+00  0.00000000000E+00  0.45593999997E+02  0.45594000000E+02  0.51100000000E-03 0.  1.
         11   -1    0    0    0    0 -0.00000000000E+00 -0.00000000000E+00 -0.45593999997E+02  0.45594000000E+02  0.51100000000E-03 0. -1.
    9900012    2    1    2    0    0 -0.19174532395E+02 -0.59196387486E+01  0.35361852326E+02  0.50528863076E+02  0.30000009806E+02 0.  0.
         12    1    1    2    0    0  0.19174532395E+02  0.59196387486E+01 -0.35361852326E+02  0.40659136924E+02  0.00000000000E+00 0. -1.
         11    1    3    3    0    0  0.16083160314E+01  0.23518346219E+01 -0.61636094245E+00  0.29150827807E+01  0.51100000000E-03 0. -1.
        -11    1    3    3    0    0 -0.97681438340E+01 -0.61382838166E+01  0.18441231981E+01  0.11683148240E+02  0.51100000000E-03 0.  1.
        -12    1    3    3    0    0 -0.11014704592E+02 -0.21331895539E+01  0.34134090071E+02  0.35930632055E+02  0.00000000000E+00 0.  1.
</event>
<event>
 7    1  0.2969156E-011  0.5052890E+02  0.7816164E-02  0.1300439E+00
        -11   -1    0    0    0    0  0.00000000000E+00  0.00000000000E+00  0.45593999997E+02  0.45594000000E+02  0.51100000000E-03 0.  1.
         11   -1    0    0    0    0 -0.00000000000E+00 -0.00000000000E+00 -0.45593999997E+02  0.45594000000E+02  0.51100000000E-03 0. -1.
    9900012    2    1    2    0    0 -0.87705741136E+01  0.35309149647E+02  0.18152228128E+02  0.50528900095E+02  0.30000122329E+02 0.  0.
         12    1    1    2    0    0  0.87705741136E+01 -0.35309149647E+02 -0.18152228128E+02  0.40659099905E+02  0.00000000000E+00 0. -1.
         11    1    3    3    0    0 -0.96376259301E+01  0.23396914407E+02  0.13038736445E+02  0.28465910941E+02  0.51100000000E-03 0. -1.
        -11    1    3    3    0    0  0.24706900060E+01  0.16145316674E+02  0.17566154173E+01  0.16427454386E+02  0.51100000000E-03 0.  1.
         12    1    3    3    0    0 -0.16036381896E+01 -0.42330814341E+01  0.33568762653E+01  0.56355347689E+01  0.00000000000E+00 0. -1.
</event>
<event>
 7    1  0.2969156E-011  0.5052886E+02  0.7816164E-02  0.1300439E+00
        -11   -1    0    0    0    0  0.00000000000E+00  0.00000000000E+00  0.45593999997E+02  0.45594000000E+02  0.51100000000E-03 0.  1.
         11   -1    0    0    0    0 -0.00000000000E+00 -0.00000000000E+00 -0.45593999997E+02  0.45594000000E+02  0.51100000000E-03 0. -1.
    9900012    2    1    2    0    0  0.32105623462E+02  0.11950953662E+02  0.21899071752E+02  0.50528859639E+02  0.29999999359E+02 0.  0.
         12    1    1    2    0    0 -0.32105623462E+02 -0.11950953662E+02 -0.21899071752E+02  0.40659140361E+02  0.00000000000E+00 0. -1.
         11    1    3    3    0    0 -0.16413462366E+01  0.76390747241E+01  0.36467014706E+01  0.86225235277E+01  0.51100000000E-03 0. -1.
        -11    1    3    3    0    0  0.11275142451E+02 -0.18203885103E+01  0.14265293251E+02  0.18274059304E+02  0.51100000000E-03 0.  1.
        -12    1    3    3    0    0  0.22471827247E+02  0.61322674481E+01  0.39870770298E+01  0.23632276808E+02  0.00000000000E+00 0.  1.
</event>
<event>
 7    1  0.2969156E-011  0.5052888E+02  0.7816164E-02  0.1300439E+00
        -11   -1    0    0    0    0  0.00000000000E+00  0.00000000000E+00  0.45593999997E+02  0.45594000000E+02  0.51100000000E-03 0. -1.
         11   -1    0    0    0    0 -0.00000000000E+00 -0.00000000000E+00 -0.45593999997E+02  0.45594000000E+02  0.51100000000E-03 0.  1.
    9900012    2    1    2    0    0 -0.20234403624E+02  0.18552751246E+01 -0.35217763660E+02  0.50528880322E+02  0.30000062226E+02 0.  0.
         12    1    1    2    0    0  0.20234403624E+02 -0.18552751246E+01  0.35217763660E+02  0.40659119678E+02  0.00000000000E+00 0. -1.
         11    1    3    3    0    0 -0.55139070395E+01  0.60673094110E+01 -0.89078665795E+00  0.82467518127E+01  0.51100000000E-03 0. -1.
        -11    1    3    3    0    0 -0.15494708361E+02  0.56897733387E+00 -0.12477250962E+02  0.19902047991E+02  0.51100000000E-03 0.  1.
         12    1    3    3    0    0  0.77421177645E+00 -0.47810116202E+01 -0.21849726040E+02  0.22380080518E+02  0.00000000000E+00 0. -1.
</event>
<event>
 7    1  0.2969156E-011  0.5052886E+02  0.7816164E-02  0.1300439E+00
        -11   -1    0    0    0    0  0.00000000000E+00  0.00000000000E+00  0.45593999997E+02  0.45594000000E+02  0.51100000000E-03 0. -1.
         11   -1    0    0    0    0 -0.00000000000E+00 -0.00000000000E+00 -0.45593999997E+02  0.45594000000E+02  0.51100000000E-03 0.  1.
    9900012    2    1    2    0    0  0.23514411535E+02 -0.17161846138E+02 -0.28385016698E+02  0.50528859753E+02  0.29999999705E+02 0.  0.
         12    1    1    2    0    0 -0.23514411535E+02  0.17161846138E+02  0.28385016698E+02  0.40659140247E+02  0.00000000000E+00 0. -1.
         11    1    3    3    0    0  0.68971728384E+01 -0.13444692722E+01  0.33405803615E+01  0.77806213247E+01  0.51100000000E-03 0. -1.
        -11    1    3    3    0    0 -0.33802482923E+01 -0.44849419520E+01 -0.72660839443E+01  0.91835047219E+01  0.51100000000E-03 0.  1.
         12    1    3    3    0    0  0.19997486989E+02 -0.11332434914E+02 -0.24459513115E+02  0.33564733706E+02  0.00000000000E+00 0. -1.
</event>
<event>
 7    1  0.2969156E-011  0.5052883E+02  0.7816164E-02  0.1300439E+00
        -11   -1    0    0    0    0  0.00000000000E+00  0.00000000000E+00  0.45593999997E+02  0.45594000000E+02  0.51100000000E-03 0. -1.
         11   -1    0    0    0    0 -0.00000000000E+00 -0.00000000000E+00 -0.45593999997E+02  0.45594000000E+02  0.51100000000E-03 0.  1.
    9900012    2    1    2    0    0 -0.34018367091E+02 -0.21444570997E+01 -0.22165737298E+02  0.50528832451E+02  0.29999916718E+02 0.  0.
         12    1    1    2    0    0  0.34018367091E+02  0.21444570997E+01  0.22165737298E+02  0.40659167549E+02  0.00000000000E+00 0. -1.
         11    1    3    3    0    0 -0.82869834369E+01 -0.36597417908E+01  0.56965162882E+01  0.10701313122E+02  0.51100000000E-03 0. -1.
        -11    1    3    3    0    0 -0.24070778230E+00  0.11210343126E+01  0.85246178774E+00  0.14287580366E+01  0.51100000000E-03 0.  1.
        -12    1    3    3    0    0 -0.25490675872E+02  0.39425037854E+00 -0.28714715374E+02  0.38398761292E+02  0.00000000000E+00 0.  1.
</event>
<event>
 7    1  0.2969156E-011  0.5052886E+02  0.7816164E-02  0.1300439E+00
        -11   -1    0    0    0    0  0.00000000000E+00  0.00000000000E+00  0.45593999997E+02  0.45594000000E+02  0.51100000000E-03 0.  1.
         11   -1    0    0    0    0 -0.00000000000E+00 -0.00000000000E+00 -0.45593999997E+02  0.45594000000E+02  0.51100000000E-03 0. -1.
    9900012    2    1    2    0    0 -0.18913942571E+02  0.33216981559E+02 -0.13858592457E+02  0.50528859916E+02  0.30000000200E+02 0.  0.
         12    1    1    2    0    0  0.18913942571E+02 -0.33216981559E+02  0.13858592457E+02  0.40659140084E+02  0.00000000000E+00 0. -1.
         11    1    3    3    0    0 -0.38867721535E+00  0.62171681322E+01  0.34181141992E+01  0.71054735593E+01  0.51100000000E-03 0. -1.
        -11    1    3    3    0    0 -0.19584299277E+02  0.30273392384E+02 -0.14019463673E+02  0.38685506674E+02  0.51100000000E-03 0.  1.
         12    1    3    3    0    0  0.10590339211E+01 -0.32735789576E+01 -0.32572429834E+01  0.47378796830E+01  0.00000000000E+00 0. -1.
</event>
<event>
 7    1  0.2969156E-011  0.5052889E+02  0.7816164E-02  0.1300439E+00
        -11   -1    0    0    0    0  0.00000000000E+00  0.00000000000E+00  0.45593999997E+02  0.45594000000E+02  0.51100000000E-03 0.  1.
         11   -1    0    0    0    0 -0.00000000000E+00 -0.00000000000E+00 -0.45593999997E+02  0.45594000000E+02  0.51100000000E-03 0. -1.
    9900012    2    1    2    0    0 -0.94329867664E+01 -0.22192340008E+02  0.32736553285E+02  0.50528891361E+02  0.30000095781E+02 0.  0.
         12    1    1    2    0    0  0.94329867664E+01  0.22192340008E+02 -0.32736553285E+02  0.40659108639E+02  0.00000000000E+00 0. -1.
         11    1    3    3    0    0 -0.33391531567E+01 -0.11662643303E+02  0.10884818262E+02  0.16298664408E+02  0.51100000000E-03 0. -1.
        -11    1    3    3    0    0 -0.66597166814E+01 -0.43377943071E+01  0.25711521845E+02  0.26911905201E+02  0.51100000000E-03 0.  1.
         12    1    3    3    0    0  0.56588307174E+00 -0.61919023975E+01 -0.38597868220E+01  0.73183217517E+01  0.00000000000E+00 0. -1.
</event>
<event>
 7    1  0.2969156E-011  0.5052886E+02  0.7816164E-02  0.1300439E+00
        -11   -1    0    0    0    0  0.00000000000E+00  0.00000000000E+00  0.45593999997E+02  0.45594000000E+02  0.51100000000E-03 0.  1.
         11   -1    0    0    0    0 -0.00000000000E+00 -0.00000000000E+00 -0.45593999997E+02  0.45594000000E+02  0.51100000000E-03 0. -1.
    9900012    2    1    2    0    0  0.17676721445E+02 -0.35588826181E+02  0.86101558819E+01  0.50528858171E+02  0.29999994896E+02 0.  0.
         12    1    1    2    0    0 -0.17676721445E+02  0.35588826181E+02 -0.86101558819E+01  0.40659141829E+02  0.00000000000E+00 0. -1.
         11    1    3    3    0    0  0.61775007582E+00  0.14044026127E+01  0.45012429429E+01  0.47555388914E+01  0.51100000000E-03 0. -1.
        -11    1    3    3    0    0  0.12916579217E+02 -0.13749048240E+02 -0.64124619417E+01  0.19924708645E+02  0.51100000000E-03 0.  1.
        -12    1    3    3    0    0  0.41423921519E+01 -0.23244180554E+02  0.10521374881E+02  0.25848610634E+02  0.00000000000E+00 0.  1.
</event>
<event>
 7    1  0.2969156E-011  0.5052886E+02  0.7816164E-02  0.1300439E+00
        -11   -1    0    0    0    0  0.00000000000E+00  0.00000000000E+00  0.45593999997E+02  0.45594000000E+02  0.51100000000E-03 0. -1.
         11   -1    0    0    0    0 -0.00000000000E+00 -0.00000000000E+00 -0.45593999997E+02  0.45594000000E+02  0.51100000000E-03 0.  1.
    9900012    2    1    2    0    0  0.25945150869E+02 -0.26466182221E+02 -0.16719933271E+02  0.50528858057E+02  0.29999994549E+02 0.  0.
         12    1    1    2    0    0 -0.25945150869E+02  0.26466182221E+02  0.16719933271E+02  0.40659141943E+02  0.00000000000E+00 0. -1.
         11    1    3    3    0    0 -0.30767764580E+01  0.88808670796E+00 -0.70208285099E+01  0.77166887070E+01  0.51100000000E-03 0. -1.
        -11    1    3    3    0    0  0.75634227927E+01 -0.22053752158E+01 -0.52194599273E+01  0.94504923881E+01  0.51100000000E-03 0.  1.
        -12    1    3    3    0    0  0.21458504535E+02 -0.25148893713E+02 -0.44796448333E+01  0.33361676962E+02  0.00000000000E+00 0.  1.
</event>
<event>
 7    1  0.2969156E-011  0.5052885E+02  0.7816164E-02  0.1300439E+00
        -11   -1    0    0    0    0  0.00000000000E+00  0.00000000000E+00  0.45593999997E+02  0.45594000000E+02  0.51100000000E-03 0.  1.
         11   -1    0    0    0    0 -0.00000000000E+00 -0.00000000000E+00 -0.45593999997E+02  0.45594000000E+02  0.51100000000E-03 0. -1.
    9900012    2    1    2    0    0  0.22365250742E+02 -0.27182900751E+02  0.20348263469E+02  0.50528851457E+02  0.29999974490E+02 0.  0.
         12    1    1    2    0    0 -0.22365250742E+02  0.27182900751E+02 -0.20348263469E+02  0.40659148543E+02  0.00000000000E+00 0. -1.
         11    1    3    3    0    0  0.10029384274E+02 -0.86736868899E+01  0.34879651881E+01  0.13710845875E+02  0.51100000000E-03 0.  1.
        -11    1    3    3    0    0  0.36551423778E+01 -0.22262471152E+02  0.82302203487E+01  0.24014874866E+02  0.51100000000E-03 0. -1.
         12    1    3    3    0    0  0.86807240903E+01  0.37532572911E+01  0.86300779324E+01  0.12803130717E+02  0.00000000000E+00 0. -1.
</event>
<event>
 7    1  0.2969156E-011  0.5052886E+02  0.7816164E-02  0.1300439E+00
        -11   -1    0    0    0    0  0.00000000000E+00  0.00000000000E+00  0.45593999997E+02  0.45594000000E+02  0.51100000000E-03 0. -1.
         11   -1    0    0    0    0 -0.00000000000E+00 -0.00000000000E+00 -0.45593999997E+02  0.45594000000E+02  0.51100000000E-03 0.  1.
    9900012    2    1    2    0    0 -0.25015722734E+02 -0.20001375594E+02 -0.25046435650E+02  0.50528863901E+02  0.30000012313E+02 0.  0.
         12    1    1    2    0    0  0.25015722734E+02  0.20001375594E+02  0.25046435650E+02  0.40659136099E+02  0.00000000000E+00 0. -1.
         11    1    3    3    0    0 -0.20636109716E+01 -0.36127720270E+01  0.13689323792E+01  0.43800214704E+01  0.51100000000E-03 0. -1.
        -11    1    3    3    0    0 -0.28285077751E+02 -0.11320376431E+02 -0.21826672404E+02  0.37477995870E+02  0.51100000000E-03 0.  1.
         12    1    3    3    0    0  0.53329659886E+01 -0.50682271358E+01 -0.45886956258E+01  0.86708465608E+01  0.00000000000E+00 0. -1.
</event>
<event>
 7    1  0.2969156E-011  0.5052886E+02  0.7816164E-02  0.1300439E+00
        -11   -1    0    0    0    0  0.00000000000E+00  0.00000000000E+00  0.45593999997E+02  0.45594000000E+02  0.51100000000E-03 0.  1.
         11   -1    0    0    0    0 -0.00000000000E+00 -0.00000000000E+00 -0.45593999997E+02  0.45594000000E+02  0.51100000000E-03 0. -1.
    9900012    2    1    2    0    0  0.39944619830E+02 -0.66410953363E+01  0.36726856253E+01  0.50528863016E+02  0.30000009622E+02 0.  0.
         12    1    1    2    0    0 -0.39944619830E+02  0.66410953363E+01 -0.36726856253E+01  0.40659136984E+02  0.00000000000E+00 0. -1.
         11    1    3    3    0    0  0.74321786833E+00  0.29439361477E+01  0.54279273819E+00  0.30844378838E+01  0.51100000000E-03 0. -1.
        -11    1    3    3    0    0  0.83438769442E+01 -0.10915440605E+02  0.84118841696E+01  0.16109839279E+02  0.51100000000E-03 0.  1.
        -12    1    3    3    0    0  0.30857525017E+02  0.13304091211E+01 -0.52819912825E+01  0.31334585852E+02  0.00000000000E+00 0.  1.
</event>
<event>
 7    1  0.2969156E-011  0.5052886E+02  0.7816164E-02  0.1300439E+00
        -11   -1    0    0    0    0  0.00000000000E+00  0.00000000000E+00  0.45593999997E+02  0.45594000000E+02  0.51100000000E-03 0.  1.
         11   -1    0    0    0    0 -0.00000000000E+00 -0.00000000000E+00 -0.45593999997E+02  0.45594000000E+02  0.51100000000E-03 0. -1.
    9900012    2    1    2    0    0 -0.11252012370E+02 -0.24542885977E+02 -0.30400733434E+02  0.50528860465E+02  0.30000001868E+02 0.  0.
         12    1    1    2    0    0  0.11252012370E+02  0.24542885977E+02  0.30400733434E+02  0.40659139535E+02  0.00000000000E+00 0. -1.
         11    1    3    3    0    0  0.28217554531E+01  0.13777803120E+01 -0.72496312365E+01  0.79004895894E+01  0.51100000000E-03 0. -1.
        -11    1    3    3    0    0  0.12527981842E+01 -0.18744797974E+02 -0.10718995937E+02  0.21629466672E+02  0.51100000000E-03 0.  1.
         12    1    3    3    0    0 -0.15326566007E+02 -0.71758683152E+01 -0.12432106261E+02  0.20998904203E+02  0.00000000000E+00 0. -1.
</event>
<event>
 7    1  0.2969156E-011  0.5052885E+02  0.7816164E-02  0.1300439E+00
        -11   -1    0    0    0    0  0.00000000000E+00  0.00000000000E+00  0.45593999997E+02  0.45594000000E+02  0.51100000000E-03 0.  1.
         11   -1    0    0    0    0 -0.00000000000E+00 -0.00000000000E+00 -0.45593999997E+02  0.45594000000E+02  0.51100000000E-03 0. -1.
    9900012    2    1    2    0    0  0.17719885265E+02 -0.70686083574E+01  0.35905533000E+02  0.50528845337E+02  0.29999955886E+02 0.  0.
         12    1    1    2    0    0 -0.17719885265E+02  0.70686083574E+01 -0.35905533000E+02  0.40659154663E+02  0.00000000000E+00 0. -1.
         11    1    3    3    0    0  0.13134580998E+02 -0.31065392511E+01  0.89840486512E+01  0.16213603379E+02  0.51100000000E-03 0. -1.
        -11    1    3    3    0    0  0.88254450692E+01 -0.10332791026E+02  0.18178334934E+02  0.22695966873E+02  0.51100000000E-03 0.  1.
         12    1    3    3    0    0 -0.42401408020E+01  0.63707219201E+01  0.87431494152E+01  0.11619275085E+02  0.00000000000E+00 0. -1.
</event>
<event>
 7    1  0.2969156E-011  0.5052886E+02  0.7816164E-02  0.1300439E+00
        -11   -1    0    0    0    0  0.00000000000E+00  0.00000000000E+00  0.45593999997E+02  0.45594000000E+02  0.51100000000E-03 0.  1.
         11   -1    0    0    0    0 -0.00000000000E+00 -0.00000000000E+00 -0.45593999997E+02  0.45594000000E+02  0.51100000000E-03 0. -1.
    9900012    2    1    2    0    0  0.39212845745E+02 -0.10721113222E+02 -0.75881955423E+00  0.50528863914E+02  0.30000012353E+02 0.  0.
         12    1    1    2    0    0 -0.39212845745E+02  0.10721113222E+02  0.75881955423E+00  0.40659136086E+02  0.00000000000E+00 0. -1.
         11    1    3    3    0    0  0.13463925968E+02 -0.10246862043E+01  0.87476091138E+01  0.16088752274E+02  0.51100000000E-03 0. -1.
        -11    1    3    3    0    0  0.28167147409E+02 -0.67281535046E+01 -0.67877655757E+01  0.29744411315E+02  0.51100000000E-03 0.  1.
         12    1    3    3    0    0 -0.24182276310E+01 -0.29682735134E+01 -0.27186630923E+01  0.46957003243E+01  0.00000000000E+00 0. -1.
</event>
<event>
 7    1  0.2969156E-011  0.5052886E+02  0.7816164E-02  0.1300439E+00
        -11   -1    0    0    0    0  0.00000000000E+00  0.00000000000E+00  0.45593999997E+02  0.45594000000E+02  0.51100000000E-03 0. -1.
         11   -1    0    0    0    0 -0.00000000000E+00 -0.00000000000E+00 -0.45593999997E+02  0.45594000000E+02  0.51100000000E-03 0.  1.
    9900012    2    1    2    0    0 -0.27453522422E+02  0.29977980659E+02  0.88898110457E+00  0.50528861972E+02  0.30000006450E+02 0.  0.
         12    1    1    2    0    0  0.27453522422E+02 -0.29977980659E+02 -0.88898110457E+00  0.40659138028E+02  0.00000000000E+00 0. -1.
         11    1    3    3    0    0  0.15859049938E+01  0.86524109307E+01 -0.71793890192E+01  0.11354423654E+02  0.51100000000E-03 0. -1.
        -11    1    3    3    0    0 -0.94822491826E+00  0.64826163238E+01  0.17413491733E+01  0.67790664624E+01  0.51100000000E-03 0.  1.
        -12    1    3    3    0    0 -0.28091202498E+02  0.14842953404E+02  0.63270209505E+01  0.32395371856E+02  0.00000000000E+00 0.  1.
</event>
<event>
 7    1  0.2969156E-011  0.5052886E+02  0.7816164E-02  0.1300439E+00
        -11   -1    0    0    0    0  0.00000000000E+00  0.00000000000E+00  0.45593999997E+02  0.45594000000E+02  0.51100000000E-03 0.  1.
         11   -1    0    0    0    0 -0.00000000000E+00 -0.00000000000E+00 -0.45593999997E+02  0.45594000000E+02  0.51100000000E-03 0. -1.
    9900012    2    1    2    0    0  0.29965959407E+02  0.17269884309E+02  0.21376578612E+02  0.50528859079E+02  0.29999997658E+02 0.  0.
         12    1    1    2    0    0 -0.29965959407E+02 -0.17269884309E+02 -0.21376578612E+02  0.40659140921E+02  0.00000000000E+00 0. -1.
         11    1    3    3    0    0  0.69474666291E+00 -0.73966584170E+00 -0.22631125473E+01  0.24802131251E+01  0.51100000000E-03 0. -1.
        -11    1    3    3    0    0  0.94329738532E+00  0.12141560023E+02  0.11245404456E+02  0.16576079494E+02  0.51100000000E-03 0.  1.
        -12    1    3    3    0    0  0.28327915359E+02  0.58679901279E+01  0.12394286703E+02  0.31472566460E+02  0.00000000000E+00 0.  1.
</event>
<event>
 7    1  0.2969156E-011  0.5052886E+02  0.7816164E-02  0.1300439E+00
        -11   -1    0    0    0    0  0.00000000000E+00  0.00000000000E+00  0.45593999997E+02  0.45594000000E+02  0.51100000000E-03 0. -1.
         11   -1    0    0    0    0 -0.00000000000E+00 -0.00000000000E+00 -0.45593999997E+02  0.45594000000E+02  0.51100000000E-03 0.  1.
    9900012    2    1    2    0    0  0.10696448426E+02 -0.39466602195E+01 -0.39027884135E+02  0.50528857413E+02  0.29999992593E+02 0.  0.
         12    1    1    2    0    0 -0.10696448426E+02  0.39466602195E+01  0.39027884135E+02  0.40659142587E+02  0.00000000000E+00 0. -1.
         11    1    3    3    0    0  0.16426490122E+02  0.19831079457E+01 -0.18100409037E+02  0.24523195192E+02  0.51100000000E-03 0.  1.
        -11    1    3    3    0    0  0.96308918539E+00 -0.35836494442E+01  0.20331256528E+00  0.37163719376E+01  0.51100000000E-03 0. -1.
        -12    1    3    3    0    0 -0.66931308820E+01 -0.23461187210E+01 -0.21130787664E+02  0.22289290284E+02  0.00000000000E+00 0.  1.
</event>
<event>
 7    1  0.2969156E-011  0.5052886E+02  0.7816164E-02  0.1300439E+00
        -11   -1    0    0    0    0  0.00000000000E+00  0.00000000000E+00  0.45593999997E+02  0.45594000000E+02  0.51100000000E-03 0. -1.
         11   -1    0    0    0    0 -0.00000000000E+00 -0.00000000000E+00 -0.45593999997E+02  0.45594000000E+02  0.51100000000E-03 0.  1.
    9900012    2    1    2    0    0  0.14592077632E+02  0.37523133607E+02  0.56790066316E+01  0.50528863246E+02  0.30000010321E+02 0.  0.
         12    1    1    2    0    0 -0.14592077632E+02 -0.37523133607E+02 -0.56790066316E+01  0.40659136754E+02  0.00000000000E+00 0. -1.
         11    1    3    3    0    0  0.89004247898E+00  0.11738714246E+02 -0.66919791248E+01  0.13541498168E+02  0.51100000000E-03 0. -1.
        -11    1    3    3    0    0  0.28774038997E+01  0.23640710462E+02  0.81042965531E+01  0.25156356398E+02  0.51100000000E-03 0.  1.
         12    1    3    3    0    0  0.10824631253E+02  0.21437088985E+01  0.42666892032E+01  0.11831008679E+02  0.00000000000E+00 0. -1.
</event>
<event>
 7    1  0.2969156E-011  0.5052885E+02  0.7816164E-02  0.1300439E+00
        -11   -1    0    0    0    0  0.00000000000E+00  0.00000000000E+00  0.45593999997E+02  0.45594000000E+02  0.51100000000E-03 0.  1.
         11   -1    0    0    0    0 -0.00000000000E+00 -0.00000000000E+00 -0.45593999997E+02  0.45594000000E+02  0.51100000000E-03 0. -1.
    9900012    2    1    2    0    0  0.31247891880E+02 -0.19018075542E+02  0.17749598019E+02  0.50528853746E+02  0.29999981446E+02 0.  0.
         12    1    1    2    0    0 -0.31247891880E+02  0.19018075542E+02 -0.17749598019E+02  0.40659146254E+02  0.00000000000E+00 0. -1.
         11    1    3    3    0    0  0.11965614858E+02 -0.46543921909E+01 -0.62724828014E+01  0.14289273821E+02  0.51100000000E-03 0. -1.
        -11    1    3    3    0    0  0.12497497622E+02 -0.59442389898E+01  0.57047348429E+01  0.14968815046E+02  0.51100000000E-03 0.  1.
         12    1    3    3    0    0  0.67847794005E+01 -0.84194443615E+01  0.18317345978E+02  0.21270764879E+02  0.00000000000E+00 0. -1.
</event>
<event>
 7    1  0.2969156E-011  0.5052886E+02  0.7816164E-02  0.1300439E+00
        -11   -1    0    0    0    0  0.00000000000E+00  0.00000000000E+00  0.45593999997E+02  0.45594000000E+02  0.51100000000E-03 0.  1.
         11   -1    0    0    0    0 -0.00000000000E+00 -0.00000000000E+00 -0.45593999997E+02  0.45594000000E+02  0.51100000000E-03 0. -1.
    9900012    2    1    2    0    0  0.36325827671E+02 -0.35437286203E+01  0.17917647455E+02  0.50528857623E+02  0.29999993230E+02 0.  0.
         12    1    1    2    0    0 -0.36325827671E+02  0.35437286203E+01 -0.17917647455E+02  0.40659142377E+02  0.00000000000E+00 0. -1.
         11    1    3    3    0    0  0.15365169714E+02 -0.99792600980E+00 -0.49606491786E+01  0.16176907529E+02  0.51100000000E-03 0. -1.
        -11    1    3    3    0    0  0.84586611267E+01  0.46716839274E+01  0.36985289597E+01  0.10346627252E+02  0.51100000000E-03 0.  1.
        -12    1    3    3    0    0  0.12501996830E+02 -0.72174865378E+01  0.19179767674E+02  0.24005322841E+02  0.00000000000E+00 0.  1.
</event>
<event>
 7    1  0.2969156E-011  0.5052881E+02  0.7816164E-02  0.1300439E+00
        -11   -1    0    0    0    0  0.00000000000E+00  0.00000000000E+00  0.45593999997E+02  0.45594000000E+02  0.51100000000E-03 0.  1.
         11   -1    0    0    0    0 -0.00000000000E+00 -0.00000000000E+00 -0.45593999997E+02  0.45594000000E+02  0.51100000000E-03 0. -1.
    9900012    2    1    2    0    0  0.15594148758E+02 -0.37409563912E+02  0.32429762018E+01  0.50528808638E+02  0.29999844337E+02 0.  0.
         12    1    1    2    0    0 -0.15594148758E+02  0.37409563912E+02 -0.32429762018E+01  0.40659191362E+02  0.00000000000E+00 0. -1.
         11    1    3    3    0    0  0.28830791426E+01 -0.15110989691E+01 -0.37766173514E+01  0.49858203254E+01  0.51100000000E-03 0. -1.
        -11    1    3    3    0    0  0.19685060318E+02 -0.24204677789E+02  0.29797365474E+01  0.31340817742E+02  0.51100000000E-03 0.  1.
        -12    1    3    3    0    0 -0.69739907022E+01 -0.11693787153E+02  0.40398570058E+01  0.14202170571E+02  0.00000000000E+00 0.  1.
</event>
<event>
 7    1  0.2969156E-011  0.5052886E+02  0.7816164E-02  0.1300439E+00
        -11   -1    0    0    0    0  0.00000000000E+00  0.00000000000E+00  0.45593999997E+02  0.45594000000E+02  0.51100000000E-03 0.  1.
         11   -1    0    0    0    0 -0.00000000000E+00 -0.00000000000E+00 -0.45593999997E+02  0.45594000000E+02  0.51100000000E-03 0. -1.
    9900012    2    1    2    0    0  0.21622878216E+02 -0.33351962588E+02 -0.85594109554E+01  0.50528858510E+02  0.29999995926E+02 0.  0.
         12    1    1    2    0    0 -0.21622878216E+02  0.33351962588E+02  0.85594109554E+01  0.40659141490E+02  0.00000000000E+00 0. -1.
         11    1    3    3    0    0 -0.63098406181E-01 -0.89849761568E+01  0.73614251908E+01  0.11615694514E+02  0.51100000000E-03 0. -1.
        -11    1    3    3    0    0  0.59810992923E+01 -0.17168420677E+02 -0.71238638101E+01  0.19526332301E+02  0.51100000000E-03 0.  1.
        -12    1    3    3    0    0  0.15704877330E+02 -0.71985657544E+01 -0.87969723361E+01  0.19386831695E+02  0.00000000000E+00 0.  1.
</event>
<event>
 7    1  0.2969156E-011  0.5052886E+02  0.7816164E-02  0.1300439E+00
        -11   -1    0    0    0    0  0.00000000000E+00  0.00000000000E+00  0.45593999997E+02  0.45594000000E+02  0.51100000000E-03 0.  1.
         11   -1    0    0    0    0 -0.00000000000E+00 -0.00000000000E+00 -0.45593999997E+02  0.45594000000E+02  0.51100000000E-03 0. -1.
    9900012    2    1    2    0    0  0.20435555056E+02 -0.46579486220E+01  0.34840455834E+02  0.50528858856E+02  0.29999996979E+02 0.  0.
         12    1    1    2    0    0 -0.20435555056E+02  0.46579486220E+01 -0.34840455834E+02  0.40659141144E+02  0.00000000000E+00 0. -1.
         11    1    3    3    0    0  0.19836724617E+01  0.24293017107E+01 -0.35129852036E+01  0.47093023410E+01  0.51100000000E-03 0. -1.
        -11    1    3    3    0    0  0.24616176197E+01 -0.78947692088E+01  0.18863601737E+02  0.20596660237E+02  0.51100000000E-03 0.  1.
         12    1    3    3    0    0  0.15990264975E+02  0.80751887607E+00  0.19489839301E+02  0.25222896278E+02  0.00000000000E+00 0. -1.
</event>
<event>
 7    1  0.2969156E-011  0.5052881E+02  0.7816164E-02  0.1300439E+00
        -11   -1    0    0    0    0  0.00000000000E+00  0.00000000000E+00  0.45593999997E+02  0.45594000000E+02  0.51100000000E-03 0. -1.
         11   -1    0    0    0    0 -0.00000000000E+00 -0.00000000000E+00 -0.45593999997E+02  0.45594000000E+02  0.51100000000E-03 0.  1.
    9900012    2    1    2    0    0  0.37727148657E+01  0.22228487800E+02  0.33835348123E+02  0.50528808789E+02  0.29999844795E+02 0.  0.
         12    1    1    2    0    0 -0.37727148657E+01 -0.22228487800E+02 -0.33835348123E+02  0.40659191211E+02  0.00000000000E+00 0. -1.
         11    1    3    3    0    0  0.13859348095E+01 -0.32187781646E+01  0.10062246290E+02  0.10655052737E+02  0.51100000000E-03 0. -1.
        -11    1    3    3    0    0  0.15534137955E+01  0.21727441081E+01 -0.32453477121E+01  0.42031171067E+01  0.51100000000E-03 0.  1.
         12    1    3    3    0    0  0.83336626079E+00  0.23274521857E+02  0.27018449545E+02  0.35670638945E+02  0.00000000000E+00 0. -1.
</event>
<event>
 7    1  0.2969156E-011  0.5052886E+02  0.7816164E-02  0.1300439E+00
        -11   -1    0    0    0    0  0.00000000000E+00  0.00000000000E+00  0.45593999997E+02  0.45594000000E+02  0.51100000000E-03 0. -1.
         11   -1    0    0    0    0 -0.00000000000E+00 -0.00000000000E+00 -0.45593999997E+02  0.45594000000E+02  0.51100000000E-03 0.  1.
    9900012    2    1    2    0    0  0.30202763327E+01  0.10892848076E+02 -0.39056237667E+02  0.50528857006E+02  0.29999991355E+02 0.  0.
         12    1    1    2    0    0 -0.30202763327E+01 -0.10892848076E+02  0.39056237667E+02  0.40659142994E+02  0.00000000000E+00 0. -1.
         11    1    3    3    0    0 -0.47787697363E+01  0.44828778591E+01 -0.33184918090E+01  0.73447411282E+01  0.51100000000E-03 0. -1.
        -11    1    3    3    0    0 -0.62191893214E+01  0.39231090239E+01 -0.39346137447E+01  0.83396813974E+01  0.51100000000E-03 0.  1.
        -12    1    3    3    0    0  0.14018235390E+02  0.24868611935E+01 -0.31803132113E+02  0.34844434480E+02  0.00000000000E+00 0.  1.
</event>
<event>
 7    1  0.2969156E-011  0.5052885E+02  0.7816164E-02  0.1300439E+00
        -11   -1    0    0    0    0  0.00000000000E+00  0.00000000000E+00  0.45593999997E+02  0.45594000000E+02  0.51100000000E-03 0.  1.
         11   -1    0    0    0    0 -0.00000000000E+00 -0.00000000000E+00 -0.45593999997E+02  0.45594000000E+02  0.51100000000E-03 0. -1.
    9900012    2    1    2    0    0 -0.34898180993E+02  0.18548200130E+02  0.95523724990E+01  0.50528848693E+02  0.29999966087E+02 0.  0.
         12    1    1    2    0    0  0.34898180993E+02 -0.18548200130E+02 -0.95523724990E+01  0.40659151307E+02  0.00000000000E+00 0. -1.
         11    1    3    3    0    0 -0.19285807823E+02  0.34909944034E+01  0.13830276692E+02  0.23987621369E+02  0.51100000000E-03 0. -1.
        -11    1    3    3    0    0 -0.45031181488E+01 -0.26902788409E+01 -0.55118015428E+00  0.52744168519E+01  0.51100000000E-03 0.  1.
         12    1    3    3    0    0 -0.11109255021E+02  0.17747484567E+02 -0.37267240389E+01  0.21266810472E+02  0.00000000000E+00 0. -1.
</event>
<event>
 7    1  0.2969156E-011  0.5052886E+02  0.7816164E-02  0.1300439E+00
        -11   -1    0    0    0    0  0.00000000000E+00  0.00000000000E+00  0.45593999997E+02  0.45594000000E+02  0.51100000000E-03 0.  1.
         11   -1    0    0    0    0 -0.00000000000E+00 -0.00000000000E+00 -0.45593999997E+02  0.45594000000E+02  0.51100000000E-03 0. -1.
    9900012    2    1    2    0    0 -0.28083249953E+02  0.20223445965E+02  0.21342665607E+02  0.50528855028E+02  0.29999985344E+02 0.  0.
         12    1    1    2    0    0  0.28083249953E+02 -0.20223445965E+02 -0.21342665607E+02  0.40659144972E+02  0.00000000000E+00 0. -1.
         11    1    3    3    0    0  0.58730811226E+00 -0.42049853050E+00  0.39309223097E+01  0.39967362059E+01  0.51100000000E-03 0. -1.
        -11    1    3    3    0    0 -0.77918360875E+01  0.39380409849E+01 -0.63217873414E+01  0.10778955045E+02  0.51100000000E-03 0.  1.
         12    1    3    3    0    0 -0.20878721978E+02  0.16705903510E+02  0.23733530639E+02  0.35753163777E+02  0.00000000000E+00 0. -1.
</event>
<event>
 7    1  0.2969156E-011  0.5052886E+02  0.7816164E-02  0.1300439E+00
        -11   -1    0    0    0    0  0.00000000000E+00  0.00000000000E+00  0.45593999997E+02  0.45594000000E+02  0.51100000000E-03 0.  1.
         11   -1    0    0    0    0 -0.00000000000E+00 -0.00000000000E+00 -0.45593999997E+02  0.45594000000E+02  0.51100000000E-03 0. -1.
    9900012    2    1    2    0    0 -0.39276651019E+02 -0.37167414215E+01  0.98334155682E+01  0.50528861498E+02  0.30000005008E+02 0.  0.
         12    1    1    2    0    0  0.39276651019E+02  0.37167414215E+01 -0.98334155682E+01  0.40659138502E+02  0.00000000000E+00 0. -1.
         11    1    3    3    0    0  0.23305540986E+01  0.33554478430E+00  0.34739093880E+01  0.41966795692E+01  0.51100000000E-03 0. -1.
        -11    1    3    3    0    0 -0.43256737119E+01 -0.33441969390E+01 -0.49407348351E+01  0.73692582530E+01  0.51100000000E-03 0.  1.
        -12    1    3    3    0    0 -0.37281531405E+02 -0.70808926686E+00  0.11300241015E+02  0.38962923675E+02  0.00000000000E+00 0.  1.
</event>
<event>
 7    1  0.2969156E-011  0.5052887E+02  0.7816164E-02  0.1300439E+00
        -11   -1    0    0    0    0  0.00000000000E+00  0.00000000000E+00  0.45593999997E+02  0.45594000000E+02  0.51100000000E-03 0.  1.
         11   -1    0    0    0    0 -0.00000000000E+00 -0.00000000000E+00 -0.45593999997E+02  0.45594000000E+02  0.51100000000E-03 0. -1.
    9900012    2    1    2    0    0 -0.18631912645E+02  0.13834298611E+02  0.33386057138E+02  0.50528870668E+02  0.30000032881E+02 0.  0.
         12    1    1    2    0    0  0.18631912645E+02 -0.13834298611E+02 -0.33386057138E+02  0.40659129332E+02  0.00000000000E+00 0. -1.
         11    1    3    3    0    0 -0.42338865481E+01  0.42281336324E+01 -0.46303999963E+01  0.75659443364E+01  0.51100000000E-03 0. -1.
        -11    1    3    3    0    0 -0.83428408998E+01  0.20158202645E+01  0.93281108239E+01  0.12675968500E+02  0.51100000000E-03 0.  1.
        -12    1    3    3    0    0 -0.60551851970E+01  0.75903447145E+01  0.28688346310E+02  0.30286957831E+02  0.00000000000E+00 0.  1.
</event>
<event>
 7    1  0.4820941E-011  0.5052886E+02  0.7816164E-02  0.1300439E+00
        -11   -1    0    0    0    0  0.00000000000E+00  0.00000000000E+00  0.45593999997E+02  0.45594000000E+02  0.51100000000E-03 0. -1.
         11   -1    0    0    0    0 -0.00000000000E+00 -0.00000000000E+00 -0.45593999997E+02  0.45594000000E+02  0.51100000000E-03 0.  1.
    9900012    2    1    2    0    0  0.11072898168E+02 -0.13687762641E+02 -0.36649712995E+02  0.50528863480E+02  0.30000011033E+02 0.  0.
         12    1    1    2    0    0 -0.11072898168E+02  0.13687762641E+02  0.36649712995E+02  0.40659136520E+02  0.00000000000E+00 0. -1.
         11    1    3    3    0    0  0.58173631736E+01 -0.97474420836E+01 -0.15062998643E+02  0.18861290249E+02  0.51100000000E-03 0. -1.
        -11    1    3    3    0    0  0.34829854226E+01 -0.25995068923E+01 -0.26194063436E+02  0.26552167201E+02  0.51100000000E-03 0.  1.
         12    1    3    3    0    0  0.17725495715E+01 -0.13408136651E+01  0.46073490840E+01  0.51154060298E+01  0.00000000000E+00 0. -1.
</event>
<event>
 7    1  0.2969156E-011  0.5052883E+02  0.7816164E-02  0.1300439E+00
        -11   -1    0    0    0    0  0.00000000000E+00  0.00000000000E+00  0.45593999997E+02  0.45594000000E+02  0.51100000000E-03 0. -1.
         11   -1    0    0    0    0 -0.00000000000E+00 -0.00000000000E+00 -0.45593999997E+02  0.45594000000E+02  0.51100000000E-03 0.  1.
    9900012    2    1    2    0    0 -0.27526333970E+02  0.34903039925E+01  0.29720139134E+02  0.50528831859E+02  0.29999914918E+02 0.  0.
         12    1    1    2    0    0  0.27526333970E+02 -0.34903039925E+01 -0.29720139134E+02  0.40659168141E+02  0.00000000000E+00 0. -1.
         11    1    3    3    0    0 -0.92705406960E+01 -0.20500103058E+01  0.21012230065E+02  0.23057737956E+02  0.51100000000E-03 0. -1.
        -11    1    3    3    0    0 -0.81093920733E+01 -0.62925745651E+01  0.17978144700E+01  0.10420694391E+02  0.51100000000E-03 0.  1.
         12    1    3    3    0    0 -0.10146401201E+02  0.11832888863E+02  0.69100945982E+01  0.17050399513E+02  0.00000000000E+00 0. -1.
</event>
<event>
 7    1  0.2969156E-011  0.5052884E+02  0.7816164E-02  0.1300439E+00
        -11   -1    0    0    0    0  0.00000000000E+00  0.00000000000E+00  0.45593999997E+02  0.45594000000E+02  0.51100000000E-03 0.  1.
         11   -1    0    0    0    0 -0.00000000000E+00 -0.00000000000E+00 -0.45593999997E+02  0.45594000000E+02  0.51100000000E-03 0. -1.
    9900012    2    1    2    0    0 -0.20775871655E+02  0.31703563250E+02  0.14711033413E+02  0.50528840271E+02  0.29999940489E+02 0.  0.
         12    1    1    2    0    0  0.20775871655E+02 -0.31703563250E+02 -0.14711033413E+02  0.40659159729E+02  0.00000000000E+00 0. -1.
         11    1    3    3    0    0  0.46251398339E+01  0.63703189707E+00 -0.11880531371E+01  0.48175926185E+01  0.51100000000E-03 0. -1.
        -11    1    3    3    0    0 -0.56389527593E+01  0.11338615634E+02 -0.15899947608E+01  0.12762839665E+02  0.51100000000E-03 0.  1.
        -12    1    3    3    0    0 -0.19762058730E+02  0.19727915719E+02  0.17489081311E+02  0.32948407988E+02  0.00000000000E+00 0.  1.
</event>
<event>
 7    1  0.2969156E-011  0.5052886E+02  0.7816164E-02  0.1300439E+00
        -11   -1    0    0    0    0  0.00000000000E+00  0.00000000000E+00  0.45593999997E+02  0.45594000000E+02  0.51100000000E-03 0. -1.
         11   -1    0    0    0    0 -0.00000000000E+00 -0.00000000000E+00 -0.45593999997E+02  0.45594000000E+02  0.51100000000E-03 0.  1.
    9900012    2    1    2    0    0  0.24268437138E+02 -0.14835342316E+02 -0.29053765121E+02  0.50528859693E+02  0.29999999524E+02 0.  0.
         12    1    1    2    0    0 -0.24268437138E+02  0.14835342316E+02  0.29053765121E+02  0.40659140307E+02  0.00000000000E+00 0. -1.
         11    1    3    3    0    0 -0.42755307186E+01  0.23108662420E+01 -0.45394926744E+01  0.66503578638E+01  0.51100000000E-03 0. -1.
        -11    1    3    3    0    0  0.11792704091E+02 -0.54282483072E+01 -0.14568114287E+01  0.13063538925E+02  0.51100000000E-03 0.  1.
        -12    1    3    3    0    0  0.16751263766E+02 -0.11717960251E+02 -0.23057461018E+02  0.30814962904E+02  0.00000000000E+00 0.  1.
</event>
<event>
 7    1  0.2969156E-011  0.5052886E+02  0.7816164E-02  0.1300439E+00
        -11   -1    0    0    0    0  0.00000000000E+00  0.00000000000E+00  0.45593999997E+02  0.45594000000E+02  0.51100000000E-03 0.  1.
         11   -1    0    0    0    0 -0.00000000000E+00 -0.00000000000E+00 -0.45593999997E+02  0.45594000000E+02  0.51100000000E-03 0. -1.
    9900012    2    1    2    0    0  0.26456067610E+01  0.39560675529E+02  0.90066479276E+01  0.50528856006E+02  0.29999988316E+02 0.  0.
         12    1    1    2    0    0 -0.26456067610E+01 -0.39560675529E+02 -0.90066479276E+01  0.40659143994E+02  0.00000000000E+00 0. -1.
         11    1    3    3    0    0  0.18923037802E+01  0.13549448953E+02 -0.51500207187E+01  0.14618176842E+02  0.51100000000E-03 0. -1.
        -11    1    3    3    0    0  0.23946498475E+01  0.15829306690E+02 -0.26151606241E+01  0.16221601756E+02  0.51100000000E-03 0.  1.
         12    1    3    3    0    0 -0.16413468668E+01  0.10181919886E+02  0.16771829270E+02  0.19689077408E+02  0.00000000000E+00 0. -1.
</event>
<event>
 7    1  0.2969156E-011  0.5052884E+02  0.7816164E-02  0.1300439E+00
        -11   -1    0    0    0    0  0.00000000000E+00  0.00000000000E+00  0.45593999997E+02  0.45594000000E+02  0.51100000000E-03 0.  1.
         11   -1    0    0    0    0 -0.00000000000E+00 -0.00000000000E+00 -0.45593999997E+02  0.45594000000E+02  0.51100000000E-03 0. -1.
    9900012    2    1    2    0    0 -0.21675300203E+02 -0.11612937651E+02  0.32380368636E+02  0.50528840727E+02  0.29999941875E+02 0.  0.
         12    1    1    2    0    0  0.21675300203E+02  0.11612937651E+02 -0.32380368636E+02  0.40659159273E+02  0.00000000000E+00 0. -1.
         11    1    3    3    0    0  0.42598762416E+01 -0.51807721353E+01  0.10224084244E+02  0.12227789841E+02  0.51100000000E-03 0. -1.
        -11    1    3    3    0    0 -0.24733087470E+01  0.36031098778E+01  0.80090125547E+01  0.91238116657E+01  0.51100000000E-03 0.  1.
        -12    1    3    3    0    0 -0.23461867698E+02 -0.10035275393E+02  0.14147271837E+02  0.29177239220E+02  0.00000000000E+00 0.  1.
</event>
<event>
 7    1  0.2969156E-011  0.5052886E+02  0.7816164E-02  0.1300439E+00
        -11   -1    0    0    0    0  0.00000000000E+00  0.00000000000E+00  0.45593999997E+02  0.45594000000E+02  0.51100000000E-03 0.  1.
         11   -1    0    0    0    0 -0.00000000000E+00 -0.00000000000E+00 -0.45593999997E+02  0.45594000000E+02  0.51100000000E-03 0. -1.
    9900012    2    1    2    0    0  0.13048119668E+02 -0.25887435685E+02  0.28508816679E+02  0.50528863491E+02  0.30000011066E+02 0.  0.
         12    1    1    2    0    0 -0.13048119668E+02  0.25887435685E+02 -0.28508816679E+02  0.40659136509E+02  0.00000000000E+00 0. -1.
         11    1    3    3    0    0  0.33562617817E+01 -0.67708057606E+01  0.17898612861E+02  0.19428552350E+02  0.51100000000E-03 0.  1.
        -11    1    3    3    0    0 -0.24929229533E+01 -0.14839285674E+02  0.11479043831E+01  0.15090949238E+02  0.51100000000E-03 0. -1.
        -12    1    3    3    0    0  0.12184780839E+02 -0.42773442507E+01  0.94622994350E+01  0.16009361903E+02  0.00000000000E+00 0.  1.
</event>
<event>
 7    1  0.2969156E-011  0.5052886E+02  0.7816164E-02  0.1300439E+00
        -11   -1    0    0    0    0  0.00000000000E+00  0.00000000000E+00  0.45593999997E+02  0.45594000000E+02  0.51100000000E-03 0.  1.
         11   -1    0    0    0    0 -0.00000000000E+00 -0.00000000000E+00 -0.45593999997E+02  0.45594000000E+02  0.51100000000E-03 0. -1.
    9900012    2    1    2    0    0  0.35130320347E+02 -0.20329981288E+02 -0.23913030825E+01  0.50528857396E+02  0.29999992542E+02 0.  0.
         12    1    1    2    0    0 -0.35130320347E+02  0.20329981288E+02  0.23913030825E+01  0.40659142604E+02  0.00000000000E+00 0. -1.
         11    1    3    3    0    0  0.12089053463E+02 -0.37296609820E+01  0.83638698535E+01  0.15166077405E+02  0.51100000000E-03 0.  1.
        -11    1    3    3    0    0 -0.28122032165E+01 -0.58058670730E-01 -0.19812671192E+01  0.34405344641E+01  0.51100000000E-03 0. -1.
        -12    1    3    3    0    0  0.25853470100E+02 -0.16542261635E+02 -0.87739058168E+01  0.31922245527E+02  0.00000000000E+00 0.  1.
</event>
<event>
 7    1  0.2969156E-011  0.5052885E+02  0.7816164E-02  0.1300439E+00
        -11   -1    0    0    0    0  0.00000000000E+00  0.00000000000E+00  0.45593999997E+02  0.45594000000E+02  0.51100000000E-03 0. -1.
         11   -1    0    0    0    0 -0.00000000000E+00 -0.00000000000E+00 -0.45593999997E+02  0.45594000000E+02  0.51100000000E-03 0.  1.
    9900012    2    1    2    0    0 -0.29165318118E+02  0.27546677640E+02  0.66129819990E+01  0.50528846530E+02  0.29999959514E+02 0.  0.
         12    1    1    2    0    0  0.29165318118E+02 -0.27546677640E+02 -0.66129819990E+01  0.40659153470E+02  0.00000000000E+00 0. -1.
         11    1    3    3    0    0  0.28156888793E+01  0.75232435200E+00 -0.95901890149E+00  0.30681938188E+01  0.51100000000E-03 0. -1.
        -11    1    3    3    0    0 -0.23539078631E+02  0.13006790319E+02 -0.45216707883E+01  0.27271052862E+02  0.51100000000E-03 0.  1.
         12    1    3    3    0    0 -0.84419283661E+01  0.13787562970E+02  0.12093671689E+02  0.20189599850E+02  0.00000000000E+00 0. -1.
</event>
<event>
 7    1  0.2969156E-011  0.5052885E+02  0.7816164E-02  0.1300439E+00
        -11   -1    0    0    0    0  0.00000000000E+00  0.00000000000E+00  0.45593999997E+02  0.45594000000E+02  0.51100000000E-03 0.  1.
         11   -1    0    0    0    0 -0.00000000000E+00 -0.00000000000E+00 -0.45593999997E+02  0.45594000000E+02  0.51100000000E-03 0. -1.
    9900012    2    1    2    0    0  0.83151353245E+01  0.33499496268E+02  0.21489732919E+02  0.50528851624E+02  0.29999974997E+02 0.  0.
         12    1    1    2    0    0 -0.83151353245E+01 -0.33499496268E+02 -0.21489732919E+02  0.40659148376E+02  0.00000000000E+00 0. -1.
         11    1    3    3    0    0  0.48507409292E+01  0.95935423296E+01 -0.36561265419E+01  0.11354866954E+02  0.51100000000E-03 0. -1.
        -11    1    3    3    0    0  0.29891742542E+00 -0.25116393489E+01  0.56463923012E+01  0.61870372657E+01  0.51100000000E-03 0.  1.
         12    1    3    3    0    0  0.31654769700E+01  0.26417593287E+02  0.19499467160E+02  0.32986947405E+02  0.00000000000E+00 0. -1.
</event>
<event>
 7    1  0.2969156E-011  0.5052888E+02  0.7816164E-02  0.1300439E+00
        -11   -1    0    0    0    0  0.00000000000E+00  0.00000000000E+00  0.45593999997E+02  0.45594000000E+02  0.51100000000E-03 0.  1.
         11   -1    0    0    0    0 -0.00000000000E+00 -0.00000000000E+00 -0.45593999997E+02  0.45594000000E+02  0.51100000000E-03 0. -1.
    9900012    2    1    2    0    0 -0.31232209107E+01 -0.78155088948E+01  0.39778479351E+02  0.50528879158E+02  0.30000058690E+02 0.  0.
         12    1    1    2    0    0  0.31232209107E+01  0.78155088948E+01 -0.39778479351E+02  0.40659120842E+02  0.00000000000E+00 0. -1.
         11    1    3    3    0    0 -0.41371339962E+00  0.62691128269E+01  0.88958954170E+01  0.10890816771E+02  0.51100000000E-03 0. -1.
        -11    1    3    3    0    0  0.88088485021E+01 -0.65052970575E+01  0.11839451598E+02  0.16127222828E+02  0.51100000000E-03 0.  1.
         12    1    3    3    0    0 -0.11518356013E+02 -0.75793246642E+01  0.19043132336E+02  0.23510839559E+02  0.00000000000E+00 0. -1.
</event>
<event>
 7    1  0.2969156E-011  0.5052886E+02  0.7816164E-02  0.1300439E+00
        -11   -1    0    0    0    0  0.00000000000E+00  0.00000000000E+00  0.45593999997E+02  0.45594000000E+02  0.51100000000E-03 0. -1.
         11   -1    0    0    0    0 -0.00000000000E+00 -0.00000000000E+00 -0.45593999997E+02  0.45594000000E+02  0.51100000000E-03 0.  1.
    9900012    2    1    2    0    0 -0.12332197005E+02  0.39888113186E+01 -0.38537934163E+02  0.50528855048E+02  0.29999985404E+02 0.  0.
         12    1    1    2    0    0  0.12332197005E+02 -0.39888113186E+01  0.38537934163E+02  0.40659144952E+02  0.00000000000E+00 0. -1.
         11    1    3    3    0    0 -0.55405415490E+01  0.22331535299E+01 -0.19548071708E+02  0.20440442341E+02  0.51100000000E-03 0.  1.
        -11    1    3    3    0    0  0.37018388951E+01  0.92654668960E+01 -0.11267751531E+02  0.15050405737E+02  0.51100000000E-03 0. -1.
         12    1    3    3    0    0 -0.10493494351E+02 -0.75098091073E+01 -0.77221109235E+01  0.15038006970E+02  0.00000000000E+00 0. -1.
</event>
<event>
 7    1  0.2969156E-011  0.5052886E+02  0.7816164E-02  0.1300439E+00
        -11   -1    0    0    0    0  0.00000000000E+00  0.00000000000E+00  0.45593999997E+02  0.45594000000E+02  0.51100000000E-03 0.  1.
         11   -1    0    0    0    0 -0.00000000000E+00 -0.00000000000E+00 -0.45593999997E+02  0.45594000000E+02  0.51100000000E-03 0. -1.
    9900012    2    1    2    0    0 -0.10874565610E+02  0.39177682451E+02 -0.13588445968E+00  0.50528862724E+02  0.30000008737E+02 0.  0.
         12    1    1    2    0    0  0.10874565610E+02 -0.39177682451E+02  0.13588445968E+00  0.40659137276E+02  0.00000000000E+00 0. -1.
         11    1    3    3    0    0 -0.29366138172E+01  0.16741888376E+02  0.52407653686E+01  0.17787078147E+02  0.51100000000E-03 0.  1.
        -11    1    3    3    0    0  0.57520171266E+01  0.44410819764E+01  0.39643134323E+01  0.82779642060E+01  0.51100000000E-03 0. -1.
         12    1    3    3    0    0 -0.13689968919E+02  0.17994712099E+02 -0.93409632606E+01  0.24463820371E+02  0.00000000000E+00 0. -1.
</event>
<event>
 7    1  0.2969156E-011  0.5052885E+02  0.7816164E-02  0.1300439E+00
        -11   -1    0    0    0    0  0.00000000000E+00  0.00000000000E+00  0.45593999997E+02  0.45594000000E+02  0.51100000000E-03 0.  1.
         11   -1    0    0    0    0 -0.00000000000E+00 -0.00000000000E+00 -0.45593999997E+02  0.45594000000E+02  0.51100000000E-03 0. -1.
    9900012    2    1    2    0    0  0.11141179703E+02 -0.22397462523E+02  0.32052991657E+02  0.50528849901E+02  0.29999969759E+02 0.  0.
         12    1    1    2    0    0 -0.11141179703E+02  0.22397462523E+02 -0.32052991657E+02  0.40659150099E+02  0.00000000000E+00 0. -1.
         11    1    3    3    0    0  0.74541739324E+01  0.23892361454E+01  0.16834920179E+02  0.18565766778E+02  0.51100000000E-03 0. -1.
        -11    1    3    3    0    0  0.66514139110E+00 -0.98826416252E+01 -0.72348006592E+00  0.99313867224E+01  0.51100000000E-03 0.  1.
        -12    1    3    3    0    0  0.30218643794E+01 -0.14904057043E+02  0.15941551544E+02  0.22031696401E+02  0.00000000000E+00 0.  1.
</event>
<event>
 7    1  0.2969156E-011  0.5052886E+02  0.7816164E-02  0.1300439E+00
        -11   -1    0    0    0    0  0.00000000000E+00  0.00000000000E+00  0.45593999997E+02  0.45594000000E+02  0.51100000000E-03 0.  1.
         11   -1    0    0    0    0 -0.00000000000E+00 -0.00000000000E+00 -0.45593999997E+02  0.45594000000E+02  0.51100000000E-03 0. -1.
    9900012    2    1    2    0    0  0.20604277624E+02 -0.21357700864E+02  0.27793487294E+02  0.50528861069E+02  0.30000003706E+02 0.  0.
         12    1    1    2    0    0 -0.20604277624E+02  0.21357700864E+02 -0.27793487294E+02  0.40659138931E+02  0.00000000000E+00 0. -1.
         11    1    3    3    0    0 -0.22558212042E+01  0.36829610007E+01  0.20829166946E+01  0.47949424664E+01  0.51100000000E-03 0. -1.
        -11    1    3    3    0    0  0.14977241848E+02 -0.55062477147E+01  0.65194396987E+01  0.17237738585E+02  0.51100000000E-03 0.  1.
        -12    1    3    3    0    0  0.78828569805E+01 -0.19534414150E+02  0.19191130901E+02  0.28496180018E+02  0.00000000000E+00 0.  1.
</event>
<event>
 7    1  0.2969156E-011  0.5052886E+02  0.7816164E-02  0.1300439E+00
        -11   -1    0    0    0    0  0.00000000000E+00  0.00000000000E+00  0.45593999997E+02  0.45594000000E+02  0.51100000000E-03 0.  1.
         11   -1    0    0    0    0 -0.00000000000E+00 -0.00000000000E+00 -0.45593999997E+02  0.45594000000E+02  0.51100000000E-03 0. -1.
    9900012    2    1    2    0    0 -0.20513954857E+02 -0.20031674570E+02  0.28828383650E+02  0.50528855471E+02  0.29999986689E+02 0.  0.
         12    1    1    2    0    0  0.20513954857E+02  0.20031674570E+02 -0.28828383650E+02  0.40659144529E+02  0.00000000000E+00 0. -1.
         11    1    3    3    0    0 -0.15390012849E+02 -0.14774505047E+02  0.69447857355E+01  0.22435876271E+02  0.51100000000E-03 0. -1.
        -11    1    3    3    0    0 -0.82971971787E+00 -0.10159408282E+02  0.87597015362E+01  0.13440029119E+02  0.51100000000E-03 0.  1.
        -12    1    3    3    0    0 -0.42942222907E+01  0.49022387585E+01  0.13123896378E+02  0.14652950081E+02  0.00000000000E+00 0.  1.
</event>
<event>
 7    1  0.2969156E-011  0.5052886E+02  0.7816164E-02  0.1300439E+00
        -11   -1    0    0    0    0  0.00000000000E+00  0.00000000000E+00  0.45593999997E+02  0.45594000000E+02  0.51100000000E-03 0. -1.
         11   -1    0    0    0    0 -0.00000000000E+00 -0.00000000000E+00 -0.45593999997E+02  0.45594000000E+02  0.51100000000E-03 0.  1.
    9900012    2    1    2    0    0  0.87903993091E+01  0.31002090477E+02 -0.24794457556E+02  0.50528857616E+02  0.29999993209E+02 0.  0.
         12    1    1    2    0    0 -0.87903993091E+01 -0.31002090477E+02  0.24794457556E+02  0.40659142384E+02  0.00000000000E+00 0. -1.
         11    1    3    3    0    0  0.22507404623E+00  0.98533002398E+01 -0.12791213124E+02  0.16147857981E+02  0.51100000000E-03 0.  1.
        -11    1    3    3    0    0  0.12642650205E+02  0.24063600823E+02 -0.96577522532E+01  0.28847281807E+02  0.51100000000E-03 0. -1.
         12    1    3    3    0    0 -0.40773249425E+01 -0.29148105860E+01 -0.23454921789E+01  0.55337178280E+01  0.00000000000E+00 0. -1.
</event>
<event>
 7    1  0.2969156E-011  0.5052886E+02  0.7816164E-02  0.1300439E+00
        -11   -1    0    0    0    0  0.00000000000E+00  0.00000000000E+00  0.45593999997E+02  0.45594000000E+02  0.51100000000E-03 0.  1.
         11   -1    0    0    0    0 -0.00000000000E+00 -0.00000000000E+00 -0.45593999997E+02  0.45594000000E+02  0.51100000000E-03 0. -1.
    9900012    2    1    2    0    0  0.38574783471E+02 -0.97827259069E+01  0.83336466568E+01  0.50528864341E+02  0.30000013650E+02 0.  0.
         12    1    1    2    0    0 -0.38574783471E+02  0.97827259069E+01 -0.83336466568E+01  0.40659135659E+02  0.00000000000E+00 0. -1.
         11    1    3    3    0    0  0.87617063526E+01  0.36129740678E+00  0.77237908978E+01  0.11685674141E+02  0.51100000000E-03 0. -1.
        -11    1    3    3    0    0 -0.16817725885E+01  0.20275670018E+01 -0.39747013190E+01  0.47683999227E+01  0.51100000000E-03 0.  1.
        -12    1    3    3    0    0  0.31494849706E+02 -0.12171590316E+02  0.45845570780E+01  0.34074790277E+02  0.00000000000E+00 0.  1.
</event>
<event>
 7    1  0.2969156E-011  0.5052883E+02  0.7816164E-02  0.1300439E+00
        -11   -1    0    0    0    0  0.00000000000E+00  0.00000000000E+00  0.45593999997E+02  0.45594000000E+02  0.51100000000E-03 0.  1.
         11   -1    0    0    0    0 -0.00000000000E+00 -0.00000000000E+00 -0.45593999997E+02  0.45594000000E+02  0.51100000000E-03 0. -1.
    9900012    2    1    2    0    0 -0.29043811740E+02 -0.19885757183E+02  0.20351447849E+02  0.50528834137E+02  0.29999921842E+02 0.  0.
         12    1    1    2    0    0  0.29043811740E+02  0.19885757183E+02 -0.20351447849E+02  0.40659165863E+02  0.00000000000E+00 0. -1.
         11    1    3    3    0    0  0.68103119523E+00 -0.55887194892E+01 -0.38977626414E+01  0.68476377597E+01  0.51100000000E-03 0. -1.
        -11    1    3    3    0    0 -0.13680248148E+02 -0.14355689162E+02  0.99365877810E+01  0.22180414281E+02  0.51100000000E-03 0.  1.
         12    1    3    3    0    0 -0.16044594788E+02  0.58651468187E-01  0.14312622709E+02  0.21500782096E+02  0.00000000000E+00 0. -1.
</event>
<event>
 7    1  0.2969156E-011  0.5052886E+02  0.7816164E-02  0.1300439E+00
        -11   -1    0    0    0    0  0.00000000000E+00  0.00000000000E+00  0.45593999997E+02  0.45594000000E+02  0.51100000000E-03 0. -1.
         11   -1    0    0    0    0 -0.00000000000E+00 -0.00000000000E+00 -0.45593999997E+02  0.45594000000E+02  0.51100000000E-03 0.  1.
    9900012    2    1    2    0    0  0.36886631517E+02 -0.86773328505E+01 -0.14739261887E+02  0.50528861654E+02  0.30000005484E+02 0.  0.
         12    1    1    2    0    0 -0.36886631517E+02  0.86773328505E+01  0.14739261887E+02  0.40659138346E+02  0.00000000000E+00 0. -1.
         11    1    3    3    0    0  0.22099161857E+02 -0.15048918063E+02 -0.11887316309E+02  0.29260061157E+02  0.51100000000E-03 0. -1.
        -11    1    3    3    0    0  0.69355252405E+01 -0.39729558155E+01 -0.20789107057E+01  0.82587988386E+01  0.51100000000E-03 0.  1.
        -12    1    3    3    0    0  0.78519444192E+01  0.10344541028E+02 -0.77303487174E+00  0.13010001658E+02  0.00000000000E+00 0.  1.
</event>
<event>
 7    1  0.2969156E-011  0.5052890E+02  0.7816164E-02  0.1300439E+00
        -11   -1    0    0    0    0  0.00000000000E+00  0.00000000000E+00  0.45593999997E+02  0.45594000000E+02  0.51100000000E-03 0.  1.
         11   -1    0    0    0    0 -0.00000000000E+00 -0.00000000000E+00 -0.45593999997E+02  0.45594000000E+02  0.51100000000E-03 0. -1.
    9900012    2    1    2    0    0  0.58563023374E+01  0.11243178799E+02  0.38632330546E+02  0.50528901265E+02  0.30000125884E+02 0.  0.
         12    1    1    2    0    0 -0.58563023374E+01 -0.11243178799E+02 -0.38632330546E+02  0.40659098735E+02  0.00000000000E+00 0. -1.
         11    1    3    3    0    0  0.31709647720E+01  0.28424341800E+01  0.19820385731E+02  0.20272694455E+02  0.51100000000E-03 0.  1.
        -11    1    3    3    0    0 -0.56236382403E+01 -0.50068951039E+01  0.87635157638E+01  0.11553939347E+02  0.51100000000E-03 0. -1.
         12    1    3    3    0    0  0.83089758057E+01  0.13407639722E+02  0.10048429050E+02  0.18702267463E+02  0.00000000000E+00 0. -1.
</event>
<event>
 7    1  0.2969156E-011  0.5052886E+02  0.7816164E-02  0.1300439E+00
        -11   -1    0    0    0    0  0.00000000000E+00  0.00000000000E+00  0.45593999997E+02  0.45594000000E+02  0.51100000000E-03 0.  1.
         11   -1    0    0    0    0 -0.00000000000E+00 -0.00000000000E+00 -0.45593999997E+02  0.45594000000E+02  0.51100000000E-03 0. -1.
    9900012    2    1    2    0    0  0.53449825401E+01 -0.88151588169E+00  0.40296642725E+02  0.50528864206E+02  0.30000013240E+02 0.  0.
         12    1    1    2    0    0 -0.53449825401E+01  0.88151588169E+00 -0.40296642725E+02  0.40659135794E+02  0.00000000000E+00 0. -1.
         11    1    3    3    0    0  0.63241095306E+01 -0.22949746890E+01  0.32024186243E+01  0.74509566825E+01  0.51100000000E-03 0. -1.
        -11    1    3    3    0    0 -0.33703862991E+01  0.85613226349E+01  0.57717731231E+01  0.10861358769E+02  0.51100000000E-03 0.  1.
        -12    1    3    3    0    0  0.23912593086E+01 -0.71478638276E+01  0.31322450978E+02  0.32216548754E+02  0.00000000000E+00 0.  1.
</event>
<event>
 7    1  0.2969156E-011  0.5052886E+02  0.7816164E-02  0.1300439E+00
        -11   -1    0    0    0    0  0.00000000000E+00  0.00000000000E+00  0.45593999997E+02  0.45594000000E+02  0.51100000000E-03 0.  1.
         11   -1    0    0    0    0 -0.00000000000E+00 -0.00000000000E+00 -0.45593999997E+02  0.45594000000E+02  0.51100000000E-03 0. -1.
    9900012    2    1    2    0    0 -0.17583023655E+02  0.26004120845E+00  0.36659724600E+02  0.50528858961E+02  0.29999997299E+02 0.  0.
         12    1    1    2    0    0  0.17583023655E+02 -0.26004120845E+00 -0.36659724600E+02  0.40659141039E+02  0.00000000000E+00 0. -1.
         11    1    3    3    0    0  0.19551152563E+00  0.70980328512E+01  0.40028736661E+01  0.81512755420E+01  0.51100000000E-03 0. -1.
        -11    1    3    3    0    0 -0.46143486789E+01 -0.17890499541E+01  0.26559091317E+02  0.27016258907E+02  0.51100000000E-03 0.  1.
         12    1    3    3    0    0 -0.13164186502E+02 -0.50489416887E+01  0.60977596163E+01  0.15361324512E+02  0.00000000000E+00 0. -1.
</event>
<event>
 7    1  0.2969156E-011  0.5052885E+02  0.7816164E-02  0.1300439E+00
        -11   -1    0    0    0    0  0.00000000000E+00  0.00000000000E+00  0.45593999997E+02  0.45594000000E+02  0.51100000000E-03 0.  1.
         11   -1    0    0    0    0 -0.00000000000E+00 -0.00000000000E+00 -0.45593999997E+02  0.45594000000E+02  0.51100000000E-03 0. -1.
    9900012    2    1    2    0    0  0.26736324073E+02  0.12385007741E+02  0.28016899802E+02  0.50528854458E+02  0.29999983611E+02 0.  0.
         12    1    1    2    0    0 -0.26736324073E+02 -0.12385007741E+02 -0.28016899802E+02  0.40659145542E+02  0.00000000000E+00 0. -1.
         11    1    3    3    0    0  0.95874307112E+01 -0.13798623352E+01  0.47289283791E+01  0.10778942972E+02  0.51100000000E-03 0. -1.
        -11    1    3    3    0    0  0.15620894548E+02  0.11580137112E+02  0.34686147928E+01  0.19752043207E+02  0.51100000000E-03 0.  1.
         12    1    3    3    0    0  0.15279988142E+01  0.21847329646E+01  0.19819356630E+02  0.19997868280E+02  0.00000000000E+00 0. -1.
</event>
<event>
 7    1  0.2969156E-011  0.5052886E+02  0.7816164E-02  0.1300439E+00
        -11   -1    0    0    0    0  0.00000000000E+00  0.00000000000E+00  0.45593999997E+02  0.45594000000E+02  0.51100000000E-03 0.  1.
         11   -1    0    0    0    0 -0.00000000000E+00 -0.00000000000E+00 -0.45593999997E+02  0.45594000000E+02  0.51100000000E-03 0. -1.
    9900012    2    1    2    0    0  0.13687012903E+02  0.37081461879E+02  0.95287239878E+01  0.50528859354E+02  0.29999998492E+02 0.  0.
         12    1    1    2    0    0 -0.13687012903E+02 -0.37081461879E+02 -0.95287239878E+01  0.40659140646E+02  0.00000000000E+00 0. -1.
         11    1    3    3    0    0  0.54584552413E+01  0.31012327539E+01  0.19295852633E+01  0.65677757091E+01  0.51100000000E-03 0. -1.
        -11    1    3    3    0    0  0.13196259281E+02  0.33828745441E+02  0.18458844361E+01  0.36358390596E+02  0.51100000000E-03 0.  1.
         12    1    3    3    0    0 -0.49677016193E+01  0.15148368355E+00  0.57532542883E+01  0.76026930486E+01  0.00000000000E+00 0. -1.
</event>
<event>
 7    1  0.2969156E-011  0.5052887E+02  0.7816164E-02  0.1300439E+00
        -11   -1    0    0    0    0  0.00000000000E+00  0.00000000000E+00  0.45593999997E+02  0.45594000000E+02  0.51100000000E-03 0. -1.
         11   -1    0    0    0    0 -0.00000000000E+00 -0.00000000000E+00 -0.45593999997E+02  0.45594000000E+02  0.51100000000E-03 0.  1.
    9900012    2    1    2    0    0 -0.37493362506E+02  0.55662514392E+01 -0.14711553280E+02  0.50528865885E+02  0.30000018344E+02 0.  0.
         12    1    1    2    0    0  0.37493362506E+02 -0.55662514392E+01  0.14711553280E+02  0.40659134115E+02  0.00000000000E+00 0. -1.
         11    1    3    3    0    0 -0.12347831538E+02 -0.70871537256E+01  0.13624639108E+01  0.14302202621E+02  0.51100000000E-03 0. -1.
        -11    1    3    3    0    0 -0.16997264301E+02 -0.48525829913E+00 -0.82844012871E+01  0.18914908783E+02  0.51100000000E-03 0.  1.
         12    1    3    3    0    0 -0.81482666663E+01  0.13138663464E+02 -0.77896159036E+01  0.17311754481E+02  0.00000000000E+00 0. -1.
</event>
<event>
 7    1  0.2969156E-011  0.5052886E+02  0.7816164E-02  0.1300439E+00
        -11   -1    0    0    0    0  0.00000000000E+00  0.00000000000E+00  0.45593999997E+02  0.45594000000E+02  0.51100000000E-03 0.  1.
         11   -1    0    0    0    0 -0.00000000000E+00 -0.00000000000E+00 -0.45593999997E+02  0.45594000000E+02  0.51100000000E-03 0. -1.
    9900012    2    1    2    0    0 -0.29403350309E+02 -0.27823045585E+02  0.38061702843E+01  0.50528858257E+02  0.29999995158E+02 0.  0.
         12    1    1    2    0    0  0.29403350309E+02  0.27823045585E+02 -0.38061702843E+01  0.40659141743E+02  0.00000000000E+00 0. -1.
         11    1    3    3    0    0  0.68363198370E+00  0.26258320884E+01 -0.35353139458E+01  0.44565448278E+01  0.51100000000E-03 0.  1.
        -11    1    3    3    0    0 -0.68484136682E+01 -0.44897330649E+00  0.40810979462E+01  0.79848423596E+01  0.51100000000E-03 0. -1.
        -12    1    3    3    0    0 -0.23238568625E+02 -0.29999904367E+02  0.32603862840E+01  0.38087471070E+02  0.00000000000E+00 0.  1.
</event>
<event>
 7    1  0.2969156E-011  0.5052887E+02  0.7816164E-02  0.1300439E+00
        -11   -1    0    0    0    0  0.00000000000E+00  0.00000000000E+00  0.45593999997E+02  0.45594000000E+02  0.51100000000E-03 0. -1.
         11   -1    0    0    0    0 -0.00000000000E+00 -0.00000000000E+00 -0.45593999997E+02  0.45594000000E+02  0.51100000000E-03 0.  1.
    9900012    2    1    2    0    0 -0.13763820433E+02 -0.38174754920E+02  0.25319020146E+01  0.50528865800E+02  0.30000018086E+02 0.  0.
         12    1    1    2    0    0  0.13763820433E+02  0.38174754920E+02 -0.25319020146E+01  0.40659134200E+02  0.00000000000E+00 0. -1.
         11    1    3    3    0    0  0.15773352255E+01 -0.58640969835E+01 -0.50238438116E+01  0.78812833187E+01  0.51100000000E-03 0. -1.
        -11    1    3    3    0    0 -0.12903836076E+02 -0.29502550366E+02 -0.21311809992E+01  0.32271526092E+02  0.51100000000E-03 0.  1.
         12    1    3    3    0    0 -0.24373195832E+01 -0.28081075696E+01  0.96869268254E+01  0.10376056389E+02  0.00000000000E+00 0. -1.
</event>
<event>
 7    1  0.2969156E-011  0.5052885E+02  0.7816164E-02  0.1300439E+00
        -11   -1    0    0    0    0  0.00000000000E+00  0.00000000000E+00  0.45593999997E+02  0.45594000000E+02  0.51100000000E-03 0.  1.
         11   -1    0    0    0    0 -0.00000000000E+00 -0.00000000000E+00 -0.45593999997E+02  0.45594000000E+02  0.51100000000E-03 0. -1.
    9900012    2    1    2    0    0 -0.39613532265E+02 -0.61974099167E+01  0.67473693597E+01  0.50528845785E+02  0.29999957249E+02 0.  0.
         12    1    1    2    0    0  0.39613532265E+02  0.61974099167E+01 -0.67473693597E+01  0.40659154215E+02  0.00000000000E+00 0. -1.
         11    1    3    3    0    0 -0.46198910881E+00 -0.53893460261E+01  0.53479727474E+01  0.76065299114E+01  0.51100000000E-03 0. -1.
        -11    1    3    3    0    0 -0.28033186273E+01  0.17629673878E+01 -0.49286743933E+01  0.59378852189E+01  0.51100000000E-03 0.  1.
        -12    1    3    3    0    0 -0.36348224529E+02 -0.25710312784E+01  0.63280710057E+01  0.36984430655E+02  0.00000000000E+00 0.  1.
</event>
<event>
 7    1  0.2969156E-011  0.5052886E+02  0.7816164E-02  0.1300439E+00
        -11   -1    0    0    0    0  0.00000000000E+00  0.00000000000E+00  0.45593999997E+02  0.45594000000E+02  0.51100000000E-03 0.  1.
         11   -1    0    0    0    0 -0.00000000000E+00 -0.00000000000E+00 -0.45593999997E+02  0.45594000000E+02  0.51100000000E-03 0. -1.
    9900012    2    1    2    0    0 -0.38344864708E+01  0.21773669121E+01  0.40419319741E+02  0.50528860542E+02  0.30000002103E+02 0.  0.
         12    1    1    2    0    0  0.38344864708E+01 -0.21773669121E+01 -0.40419319741E+02  0.40659139458E+02  0.00000000000E+00 0. -1.
         11    1    3    3    0    0  0.13209193496E+01 -0.43739562514E+00 -0.19105169286E+01  0.23635181523E+01  0.51100000000E-03 0. -1.
        -11    1    3    3    0    0  0.67073939128E+00  0.11299783595E+02  0.14234758403E+02  0.18186900441E+02  0.51100000000E-03 0.  1.
        -12    1    3    3    0    0 -0.58261452117E+01 -0.86850210577E+01  0.28095078267E+02  0.29978441948E+02  0.00000000000E+00 0.  1.
</event>
<event>
 7    1  0.2969156E-011  0.5052886E+02  0.7816164E-02  0.1300439E+00
        -11   -1    0    0    0    0  0.00000000000E+00  0.00000000000E+00  0.45593999997E+02  0.45594000000E+02  0.51100000000E-03 0.  1.
         11   -1    0    0    0    0 -0.00000000000E+00 -0.00000000000E+00 -0.45593999997E+02  0.45594000000E+02  0.51100000000E-03 0. -1.
    9900012    2    1    2    0    0  0.23344020611E+02 -0.85498642954E+01  0.32173315042E+02  0.50528859840E+02  0.29999999969E+02 0.  0.
         12    1    1    2    0    0 -0.23344020611E+02  0.85498642954E+01 -0.32173315042E+02  0.40659140160E+02  0.00000000000E+00 0. -1.
         11    1    3    3    0    0  0.34322804736E+01 -0.56995086895E+01  0.53343917472E+00  0.66745416446E+01  0.51100000000E-03 0. -1.
        -11    1    3    3    0    0  0.12343422597E+02 -0.57964458242E+01  0.32919906654E+02  0.35632557022E+02  0.51100000000E-03 0.  1.
         12    1    3    3    0    0  0.75683175409E+01  0.29460902184E+01 -0.12800307861E+01  0.82217611731E+01  0.00000000000E+00 0. -1.
</event>
<event>
 7    1  0.2969156E-011  0.5052886E+02  0.7816164E-02  0.1300439E+00
        -11   -1    0    0    0    0  0.00000000000E+00  0.00000000000E+00  0.45593999997E+02  0.45594000000E+02  0.51100000000E-03 0.  1.
         11   -1    0    0    0    0 -0.00000000000E+00 -0.00000000000E+00 -0.45593999997E+02  0.45594000000E+02  0.51100000000E-03 0. -1.
    9900012    2    1    2    0    0  0.16263992091E+02  0.30925893752E+02  0.20790318455E+02  0.50528859766E+02  0.29999999746E+02 0.  0.
         12    1    1    2    0    0 -0.16263992091E+02 -0.30925893752E+02 -0.20790318455E+02  0.40659140234E+02  0.00000000000E+00 0. -1.
         11    1    3    3    0    0  0.12235266722E+02  0.35207169796E+01  0.76435831850E+01  0.14849968484E+02  0.51100000000E-03 0.  1.
        -11    1    3    3    0    0  0.19218412062E+01  0.80335240355E+01  0.13910361239E+02  0.16178044756E+02  0.51100000000E-03 0. -1.
         12    1    3    3    0    0  0.21068841624E+01  0.19371652737E+02 -0.76362596948E+00  0.19500846527E+02  0.00000000000E+00 0. -1.
</event>
<event>
 7    1  0.2969156E-011  0.5052886E+02  0.7816164E-02  0.1300439E+00
        -11   -1    0    0    0    0  0.00000000000E+00  0.00000000000E+00  0.45593999997E+02  0.45594000000E+02  0.51100000000E-03 0.  1.
         11   -1    0    0    0    0 -0.00000000000E+00 -0.00000000000E+00 -0.45593999997E+02  0.45594000000E+02  0.51100000000E-03 0. -1.
    9900012    2    1    2    0    0  0.61281365145E+01 -0.30751683280E+02  0.25883305318E+02  0.50528861103E+02  0.30000003808E+02 0.  0.
         12    1    1    2    0    0 -0.61281365145E+01  0.30751683280E+02 -0.25883305318E+02  0.40659138897E+02  0.00000000000E+00 0. -1.
         11    1    3    3    0    0  0.13112955261E+02 -0.27659507909E+02  0.15757724180E+02  0.34428241969E+02  0.51100000000E-03 0. -1.
        -11    1    3    3    0    0 -0.15587084083E+01 -0.38512617806E+01  0.97623086539E+01  0.10609639943E+02  0.51100000000E-03 0.  1.
        -12    1    3    3    0    0 -0.54261103381E+01  0.75908641008E+00  0.36327248432E+00  0.54909791911E+01  0.00000000000E+00 0.  1.
</event>
<event>
 7    1  0.2969156E-011  0.5052886E+02  0.7816164E-02  0.1300439E+00
        -11   -1    0    0    0    0  0.00000000000E+00  0.00000000000E+00  0.45593999997E+02  0.45594000000E+02  0.51100000000E-03 0. -1.
         11   -1    0    0    0    0 -0.00000000000E+00 -0.00000000000E+00 -0.45593999997E+02  0.45594000000E+02  0.51100000000E-03 0.  1.
    9900012    2    1    2    0    0 -0.16272654731E+02 -0.13608390907E+02 -0.34686860674E+02  0.50528857136E+02  0.29999991750E+02 0.  0.
         12    1    1    2    0    0  0.16272654731E+02  0.13608390907E+02  0.34686860674E+02  0.40659142864E+02  0.00000000000E+00 0. -1.
         11    1    3    3    0    0  0.20025229377E+01  0.16335670648E+01  0.32374419653E+00  0.26045057184E+01  0.51100000000E-03 0. -1.
        -11    1    3    3    0    0 -0.12014633624E+02 -0.40619747193E+01 -0.24283784683E+01  0.12913097304E+02  0.51100000000E-03 0.  1.
         12    1    3    3    0    0 -0.62605440442E+01 -0.11179983253E+02 -0.32582226402E+02  0.35011254113E+02  0.00000000000E+00 0. -1.
</event>
<event>
 7    1  0.2969156E-011  0.5052886E+02  0.7816164E-02  0.1300439E+00
        -11   -1    0    0    0    0  0.00000000000E+00  0.00000000000E+00  0.45593999997E+02  0.45594000000E+02  0.51100000000E-03 0.  1.
         11   -1    0    0    0    0 -0.00000000000E+00 -0.00000000000E+00 -0.45593999997E+02  0.45594000000E+02  0.51100000000E-03 0. -1.
    9900012    2    1    2    0    0 -0.21290661537E+02 -0.21733039971E+02  0.26973102994E+02  0.50528861050E+02  0.30000003647E+02 0.  0.
         12    1    1    2    0    0  0.21290661537E+02  0.21733039971E+02 -0.26973102994E+02  0.40659138950E+02  0.00000000000E+00 0. -1.
         11    1    3    3    0    0 -0.14065412375E+02 -0.39741653932E+01  0.18139045628E+02  0.23294952080E+02  0.51100000000E-03 0. -1.
        -11    1    3    3    0    0 -0.10174687576E+02 -0.35912794740E+01  0.11554494060E+01  0.10851572196E+02  0.51100000000E-03 0.  1.
         12    1    3    3    0    0  0.29494384141E+01 -0.14167595104E+02  0.76786079597E+01  0.16382336774E+02  0.00000000000E+00 0. -1.
</event>
<event>
 7    1  0.2969156E-011  0.5052886E+02  0.7816164E-02  0.1300439E+00
        -11   -1    0    0    0    0  0.00000000000E+00  0.00000000000E+00  0.45593999997E+02  0.45594000000E+02  0.51100000000E-03 0. -1.
         11   -1    0    0    0    0 -0.00000000000E+00 -0.00000000000E+00 -0.45593999997E+02  0.45594000000E+02  0.51100000000E-03 0.  1.
    9900012    2    1    2    0    0 -0.23509058293E+02 -0.78697830448E+01 -0.32226640059E+02  0.50528860358E+02  0.30000001544E+02 0.  0.
         12    1    1    2    0    0  0.23509058293E+02  0.78697830448E+01  0.32226640059E+02  0.40659139642E+02  0.00000000000E+00 0. -1.
         11    1    3    3    0    0 -0.14534201200E+02 -0.44225959639E+01 -0.73969236433E+01  0.16897243540E+02  0.51100000000E-03 0. -1.
        -11    1    3    3    0    0 -0.78471747320E+01 -0.96217262240E+01 -0.24354794484E+02  0.27337003885E+02  0.51100000000E-03 0.  1.
         12    1    3    3    0    0 -0.11276823603E+01  0.61745391432E+01 -0.47492193132E+00  0.62946129330E+01  0.00000000000E+00 0. -1.
</event>
<event>
 7    1  0.2969156E-011  0.5052886E+02  0.7816164E-02  0.1300439E+00
        -11   -1    0    0    0    0  0.00000000000E+00  0.00000000000E+00  0.45593999997E+02  0.45594000000E+02  0.51100000000E-03 0.  1.
         11   -1    0    0    0    0 -0.00000000000E+00 -0.00000000000E+00 -0.45593999997E+02  0.45594000000E+02  0.51100000000E-03 0. -1.
    9900012    2    1    2    0    0 -0.83842047865E+01  0.83391529335E+01  0.38901534880E+02  0.50528858622E+02  0.29999996268E+02 0.  0.
         12    1    1    2    0    0  0.83842047865E+01 -0.83391529335E+01 -0.38901534880E+02  0.40659141378E+02  0.00000000000E+00 0. -1.
         11    1    3    3    0    0  0.60963735026E+01 -0.50230611960E+01  0.11899549856E+02  0.14282723855E+02  0.51100000000E-03 0. -1.
        -11    1    3    3    0    0 -0.78207355465E+00  0.52220469296E+01  0.16087669357E+02  0.16932055953E+02  0.51100000000E-03 0.  1.
        -12    1    3    3    0    0 -0.13698504734E+02  0.81401672000E+01  0.10914315667E+02  0.19314078815E+02  0.00000000000E+00 0.  1.
</event>
<event>
 7    1  0.2969156E-011  0.5052873E+02  0.7816164E-02  0.1300439E+00
        -11   -1    0    0    0    0  0.00000000000E+00  0.00000000000E+00  0.45593999997E+02  0.45594000000E+02  0.51100000000E-03 0.  1.
         11   -1    0    0    0    0 -0.00000000000E+00 -0.00000000000E+00 -0.45593999997E+02  0.45594000000E+02  0.51100000000E-03 0. -1.
    9900012    2    1    2    0    0  0.38352212569E+02  0.12136343906E+02  0.59155353979E+01  0.50528725396E+02  0.29999591310E+02 0.  0.
         12    1    1    2    0    0 -0.38352212569E+02 -0.12136343906E+02 -0.59155353979E+01  0.40659274604E+02  0.00000000000E+00 0. -1.
         11    1    3    3    0    0  0.19685724383E+02  0.11117694251E+02  0.11855147789E+02  0.25527933706E+02  0.51100000000E-03 0. -1.
        -11    1    3    3    0    0  0.14292986491E+02 -0.47558375517E+01  0.82981787851E+00  0.15086286874E+02  0.51100000000E-03 0.  1.
         12    1    3    3    0    0  0.43735016942E+01  0.57744872066E+01 -0.67694302698E+01  0.99145048160E+01  0.00000000000E+00 0. -1.
</event>
<event>
 7    1  0.2969156E-011  0.5052887E+02  0.7816164E-02  0.1300439E+00
        -11   -1    0    0    0    0  0.00000000000E+00  0.00000000000E+00  0.45593999997E+02  0.45594000000E+02  0.51100000000E-03 0.  1.
         11   -1    0    0    0    0 -0.00000000000E+00 -0.00000000000E+00 -0.45593999997E+02  0.45594000000E+02  0.51100000000E-03 0. -1.
    9900012    2    1    2    0    0 -0.12570129313E+02 -0.37877325781E+02 -0.77759422587E+01  0.50528865266E+02  0.30000016463E+02 0.  0.
         12    1    1    2    0    0  0.12570129313E+02  0.37877325781E+02  0.77759422587E+01  0.40659134734E+02  0.00000000000E+00 0. -1.
         11    1    3    3    0    0  0.61381954967E+00 -0.20394961836E+02 -0.97069148970E+01  0.22595473878E+02  0.51100000000E-03 0. -1.
        -11    1    3    3    0    0  0.33452332217E+01 -0.33787767579E+01  0.38533899978E+01  0.61200761779E+01  0.51100000000E-03 0.  1.
        -12    1    3    3    0    0 -0.16529182084E+02 -0.14103587188E+02 -0.19224173596E+01  0.21813315210E+02  0.00000000000E+00 0.  1.
</event>
<event>
 7    1  0.2969156E-011  0.5052886E+02  0.7816164E-02  0.1300439E+00
        -11   -1    0    0    0    0  0.00000000000E+00  0.00000000000E+00  0.45593999997E+02  0.45594000000E+02  0.51100000000E-03 0.  1.
         11   -1    0    0    0    0 -0.00000000000E+00 -0.00000000000E+00 -0.45593999997E+02  0.45594000000E+02  0.51100000000E-03 0. -1.
    9900012    2    1    2    0    0  0.30862730900E+02 -0.25056878226E+02  0.85329117523E+01  0.50528857264E+02  0.29999992140E+02 0.  0.
         12    1    1    2    0    0 -0.30862730900E+02  0.25056878226E+02 -0.85329117523E+01  0.40659142736E+02  0.00000000000E+00 0. -1.
         11    1    3    3    0    0  0.30441065216E+01  0.10683219666E+01 -0.42664894006E+01  0.53489090855E+01  0.51100000000E-03 0. -1.
        -11    1    3    3    0    0  0.14797587400E+02 -0.14547018422E+02 -0.38218033707E+01  0.21099538362E+02  0.51100000000E-03 0.  1.
         12    1    3    3    0    0  0.13021036979E+02 -0.11578181770E+02  0.16621204524E+02  0.24080409816E+02  0.00000000000E+00 0. -1.
</event>
<event>
 7    1  0.2969156E-011  0.5052876E+02  0.7816164E-02  0.1300439E+00
        -11   -1    0    0    0    0  0.00000000000E+00  0.00000000000E+00  0.45593999997E+02  0.45594000000E+02  0.51100000000E-03 0.  1.
         11   -1    0    0    0    0 -0.00000000000E+00 -0.00000000000E+00 -0.45593999997E+02  0.45594000000E+02  0.51100000000E-03 0. -1.
    9900012    2    1    2    0    0  0.36330508801E+02 -0.16348248505E+02  0.81242252668E+01  0.50528755847E+02  0.29999683871E+02 0.  0.
         12    1    1    2    0    0 -0.36330508801E+02  0.16348248505E+02 -0.81242252668E+01  0.40659244153E+02  0.00000000000E+00 0. -1.
         11    1    3    3    0    0  0.15509859247E+02  0.40027460629E+01  0.43743613086E+01  0.16604600176E+02  0.51100000000E-03 0.  1.
        -11    1    3    3    0    0  0.14983361773E+02 -0.86936940630E+01 -0.52282651406E+01  0.18094645703E+02  0.51100000000E-03 0. -1.
        -12    1    3    3    0    0  0.58372877813E+01 -0.11657300505E+02  0.89781290988E+01  0.15829509968E+02  0.00000000000E+00 0.  1.
</event>
<event>
 7    1  0.2969156E-011  0.5052885E+02  0.7816164E-02  0.1300439E+00
        -11   -1    0    0    0    0  0.00000000000E+00  0.00000000000E+00  0.45593999997E+02  0.45594000000E+02  0.51100000000E-03 0.  1.
         11   -1    0    0    0    0 -0.00000000000E+00 -0.00000000000E+00 -0.45593999997E+02  0.45594000000E+02  0.51100000000E-03 0. -1.
    9900012    2    1    2    0    0 -0.24930882074E+02  0.28310147073E+02  0.15170790915E+02  0.50528853363E+02  0.29999980282E+02 0.  0.
         12    1    1    2    0    0  0.24930882074E+02 -0.28310147073E+02 -0.15170790915E+02  0.40659146637E+02  0.00000000000E+00 0. -1.
         11    1    3    3    0    0  0.33540237578E+01  0.64696421299E+01  0.37847074929E+01  0.82115623194E+01  0.51100000000E-03 0. -1.
        -11    1    3    3    0    0 -0.14687063115E+02  0.72178570005E+01  0.14793905892E+02  0.22060528880E+02  0.51100000000E-03 0.  1.
        -12    1    3    3    0    0 -0.13597842716E+02  0.14622647942E+02 -0.34078224697E+01  0.20256762164E+02  0.00000000000E+00 0.  1.
</event>
<event>
 7    1  0.2969156E-011  0.5052885E+02  0.7816164E-02  0.1300439E+00
        -11   -1    0    0    0    0  0.00000000000E+00  0.00000000000E+00  0.45593999997E+02  0.45594000000E+02  0.51100000000E-03 0.  1.
         11   -1    0    0    0    0 -0.00000000000E+00 -0.00000000000E+00 -0.45593999997E+02  0.45594000000E+02  0.51100000000E-03 0. -1.
    9900012    2    1    2    0    0 -0.17126122027E+02  0.15071536471E+02  0.33655769432E+02  0.50528854862E+02  0.29999984838E+02 0.  0.
         12    1    1    2    0    0  0.17126122027E+02 -0.15071536471E+02 -0.33655769432E+02  0.40659145138E+02  0.00000000000E+00 0. -1.
         11    1    3    3    0    0 -0.10618108114E+02  0.12431260770E+02  0.14370384523E+02  0.21766681324E+02  0.51100000000E-03 0. -1.
        -11    1    3    3    0    0 -0.98714355037E+00  0.70018126938E+01  0.20443335587E+02  0.21631685177E+02  0.51100000000E-03 0.  1.
        -12    1    3    3    0    0 -0.55208703626E+01 -0.43615369924E+01 -0.11579506783E+01  0.71304883613E+01  0.00000000000E+00 0.  1.
</event>
<event>
 7    1  0.2969156E-011  0.5052886E+02  0.7816164E-02  0.1300439E+00
        -11   -1    0    0    0    0  0.00000000000E+00  0.00000000000E+00  0.45593999997E+02  0.45594000000E+02  0.51100000000E-03 0.  1.
         11   -1    0    0    0    0 -0.00000000000E+00 -0.00000000000E+00 -0.45593999997E+02  0.45594000000E+02  0.51100000000E-03 0. -1.
    9900012    2    1    2    0    0  0.39429126965E+02  0.26311571627E+00  0.99217070605E+01  0.50528861370E+02  0.30000004621E+02 0.  0.
         12    1    1    2    0    0 -0.39429126965E+02 -0.26311571627E+00 -0.99217070605E+01  0.40659138630E+02  0.00000000000E+00 0. -1.
         11    1    3    3    0    0  0.45688635953E+01  0.54376979885E+01 -0.43784362631E+01  0.83434871809E+01  0.51100000000E-03 0. -1.
        -11    1    3    3    0    0  0.16281157127E+02 -0.58821884514E+01 -0.20425368889E+01  0.17431241366E+02  0.51100000000E-03 0.  1.
         12    1    3    3    0    0  0.18579106243E+02  0.70760617920E+00  0.16342680212E+02  0.24754132823E+02  0.00000000000E+00 0. -1.
</event>
<event>
 7    1  0.2969156E-011  0.5052885E+02  0.7816164E-02  0.1300439E+00
        -11   -1    0    0    0    0  0.00000000000E+00  0.00000000000E+00  0.45593999997E+02  0.45594000000E+02  0.51100000000E-03 0. -1.
         11   -1    0    0    0    0 -0.00000000000E+00 -0.00000000000E+00 -0.45593999997E+02  0.45594000000E+02  0.51100000000E-03 0.  1.
    9900012    2    1    2    0    0  0.18333938552E+02 -0.34099204880E+02 -0.12420834402E+02  0.50528853384E+02  0.29999980346E+02 0.  0.
         12    1    1    2    0    0 -0.18333938552E+02  0.34099204880E+02  0.12420834402E+02  0.40659146616E+02  0.00000000000E+00 0. -1.
         11    1    3    3    0    0  0.13870261767E+02 -0.12028967169E+02  0.56411502586E+01  0.19206842248E+02  0.51100000000E-03 0. -1.
        -11    1    3    3    0    0 -0.39217947616E+01 -0.74179064763E+01 -0.37541069796E+01  0.91923408400E+01  0.51100000000E-03 0.  1.
        -12    1    3    3    0    0  0.83854715463E+01 -0.14652331235E+02 -0.14307877681E+02  0.22129670296E+02  0.00000000000E+00 0.  1.
</event>
<event>
 7    1  0.2969156E-011  0.5052885E+02  0.7816164E-02  0.1300439E+00
        -11   -1    0    0    0    0  0.00000000000E+00  0.00000000000E+00  0.45593999997E+02  0.45594000000E+02  0.51100000000E-03 0. -1.
         11   -1    0    0    0    0 -0.00000000000E+00 -0.00000000000E+00 -0.45593999997E+02  0.45594000000E+02  0.51100000000E-03 0.  1.
    9900012    2    1    2    0    0 -0.13648479381E+02 -0.15577485100E+02 -0.34988960687E+02  0.50528850951E+02  0.29999972950E+02 0.  0.
         12    1    1    2    0    0  0.13648479381E+02  0.15577485100E+02  0.34988960687E+02  0.40659149049E+02  0.00000000000E+00 0. -1.
         11    1    3    3    0    0  0.16893914879E+01 -0.72992535245E+01 -0.72485020503E+01  0.10424678789E+02  0.51100000000E-03 0. -1.
        -11    1    3    3    0    0 -0.59975144629E+01 -0.54624677566E+01 -0.29140569298E+02  0.30248661342E+02  0.51100000000E-03 0.  1.
         12    1    3    3    0    0 -0.93403564056E+01 -0.28157638191E+01  0.14001106610E+01  0.98555108204E+01  0.00000000000E+00 0. -1.
</event>
<event>
 7    1  0.2969156E-011  0.5052884E+02  0.7816164E-02  0.1300439E+00
        -11   -1    0    0    0    0  0.00000000000E+00  0.00000000000E+00  0.45593999997E+02  0.45594000000E+02  0.51100000000E-03 0.  1.
         11   -1    0    0    0    0 -0.00000000000E+00 -0.00000000000E+00 -0.45593999997E+02  0.45594000000E+02  0.51100000000E-03 0. -1.
    9900012    2    1    2    0    0  0.15131519243E+02 -0.24722895032E+02  0.28512847760E+02  0.50528844810E+02  0.29999954285E+02 0.  0.
         12    1    1    2    0    0 -0.15131519243E+02  0.24722895032E+02 -0.28512847760E+02  0.40659155190E+02  0.00000000000E+00 0. -1.
         11    1    3    3    0    0  0.16044401886E+02 -0.27063987088E+01  0.10223559554E+02  0.19216362717E+02  0.51100000000E-03 0. -1.
        -11    1    3    3    0    0  0.49897864681E+01 -0.16717885745E+02  0.11776237387E+02  0.21049119697E+02  0.51100000000E-03 0.  1.
        -12    1    3    3    0    0 -0.59026691111E+01 -0.52986105783E+01  0.65130508197E+01  0.10263362396E+02  0.00000000000E+00 0.  1.
</event>
<event>
 7    1  0.2969156E-011  0.5052885E+02  0.7816164E-02  0.1300439E+00
        -11   -1    0    0    0    0  0.00000000000E+00  0.00000000000E+00  0.45593999997E+02  0.45594000000E+02  0.51100000000E-03 0. -1.
         11   -1    0    0    0    0 -0.00000000000E+00 -0.00000000000E+00 -0.45593999997E+02  0.45594000000E+02  0.51100000000E-03 0.  1.
    9900012    2    1    2    0    0 -0.15221282952E+02 -0.15097821686E+02 -0.34547576702E+02  0.50528846906E+02  0.29999960654E+02 0.  0.
         12    1    1    2    0    0  0.15221282952E+02  0.15097821686E+02  0.34547576702E+02  0.40659153094E+02  0.00000000000E+00 0. -1.
         11    1    3    3    0    0 -0.14361395063E+02 -0.39503493278E+01 -0.31518745114E+01  0.15224626142E+02  0.51100000000E-03 0. -1.
        -11    1    3    3    0    0 -0.23981181216E+01 -0.12439061844E+02 -0.30644601693E+02  0.33159807649E+02  0.51100000000E-03 0.  1.
         12    1    3    3    0    0  0.15382302333E+01  0.12915894857E+01 -0.75110049744E+00  0.21444131149E+01  0.00000000000E+00 0. -1.
</event>
<event>
 7    1  0.2969156E-011  0.5052886E+02  0.7816164E-02  0.1300439E+00
        -11   -1    0    0    0    0  0.00000000000E+00  0.00000000000E+00  0.45593999997E+02  0.45594000000E+02  0.51100000000E-03 0. -1.
         11   -1    0    0    0    0 -0.00000000000E+00 -0.00000000000E+00 -0.45593999997E+02  0.45594000000E+02  0.51100000000E-03 0.  1.
    9900012    2    1    2    0    0 -0.40191679676E+02 -0.49488438298E+01  0.36474075811E+01  0.50528858931E+02  0.29999997207E+02 0.  0.
         12    1    1    2    0    0  0.40191679676E+02  0.49488438298E+01 -0.36474075811E+01  0.40659141069E+02  0.00000000000E+00 0. -1.
         11    1    3    3    0    0  0.38586196344E+01  0.58861533201E+00 -0.16956000559E+01  0.42556401755E+01  0.51100000000E-03 0. -1.
        -11    1    3    3    0    0 -0.10833270051E+02  0.96139130772E+00 -0.32529964995E+01  0.11351916126E+02  0.51100000000E-03 0.  1.
        -12    1    3    3    0    0 -0.33217029259E+02 -0.64988504696E+01  0.85960041365E+01  0.34921302630E+02  0.00000000000E+00 0.  1.
</event>
<event>
 7    1  0.2969156E-011  0.5052886E+02  0.7816164E-02  0.1300439E+00
        -11   -1    0    0    0    0  0.00000000000E+00  0.00000000000E+00  0.45593999997E+02  0.45594000000E+02  0.51100000000E-03 0.  1.
         11   -1    0    0    0    0 -0.00000000000E+00 -0.00000000000E+00 -0.45593999997E+02  0.45594000000E+02  0.51100000000E-03 0. -1.
    9900012    2    1    2    0    0  0.24159779198E+01  0.37639152117E+02  0.15186280284E+02  0.50528857974E+02  0.29999994299E+02 0.  0.
         12    1    1    2    0    0 -0.24159779198E+01 -0.37639152117E+02 -0.15186280284E+02  0.40659142026E+02  0.00000000000E+00 0. -1.
         11    1    3    3    0    0  0.16291993337E+01  0.89109229638E+01 -0.27755987221E+01  0.94743225121E+01  0.51100000000E-03 0. -1.
        -11    1    3    3    0    0  0.10553849017E+02  0.61928479134E+01  0.44388241660E+01  0.13016845032E+02  0.51100000000E-03 0.  1.
        -12    1    3    3    0    0 -0.97670704313E+01  0.22535381240E+02  0.13523054840E+02  0.28037690430E+02  0.00000000000E+00 0.  1.
</event>
<event>
 7    1  0.2969156E-011  0.5052886E+02  0.7816164E-02  0.1300439E+00
        -11   -1    0    0    0    0  0.00000000000E+00  0.00000000000E+00  0.45593999997E+02  0.45594000000E+02  0.51100000000E-03 0. -1.
         11   -1    0    0    0    0 -0.00000000000E+00 -0.00000000000E+00 -0.45593999997E+02  0.45594000000E+02  0.51100000000E-03 0.  1.
    9900012    2    1    2    0    0  0.61512985140E+01 -0.27667651631E+02 -0.29151808691E+02  0.50528863633E+02  0.30000011498E+02 0.  0.
         12    1    1    2    0    0 -0.61512985140E+01  0.27667651631E+02  0.29151808691E+02  0.40659136367E+02  0.00000000000E+00 0. -1.
         11    1    3    3    0    0  0.51542646799E+01 -0.10867456751E+02 -0.90921606200E+01  0.15077647218E+02  0.51100000000E-03 0. -1.
        -11    1    3    3    0    0  0.94565638707E+01 -0.94436606012E+01 -0.20222042268E+02  0.24239231001E+02  0.51100000000E-03 0.  1.
         12    1    3    3    0    0 -0.84595300366E+01 -0.73565342792E+01  0.16239419710E+00  0.11211985414E+02  0.00000000000E+00 0. -1.
</event>
<event>
 7    1  0.2969156E-011  0.5052886E+02  0.7816164E-02  0.1300439E+00
        -11   -1    0    0    0    0  0.00000000000E+00  0.00000000000E+00  0.45593999997E+02  0.45594000000E+02  0.51100000000E-03 0. -1.
         11   -1    0    0    0    0 -0.00000000000E+00 -0.00000000000E+00 -0.45593999997E+02  0.45594000000E+02  0.51100000000E-03 0.  1.
    9900012    2    1    2    0    0 -0.28415907505E+02 -0.23243925322E+02 -0.17476324167E+02  0.50528858714E+02  0.29999996547E+02 0.  0.
         12    1    1    2    0    0  0.28415907505E+02  0.23243925322E+02  0.17476324167E+02  0.40659141286E+02  0.00000000000E+00 0. -1.
         11    1    3    3    0    0 -0.73024920819E+01 -0.56443668684E+01  0.48814303987E+01  0.10440959293E+02  0.51100000000E-03 0. -1.
        -11    1    3    3    0    0 -0.16478198458E+02 -0.55938959349E+01 -0.43203738398E+01  0.17930095553E+02  0.51100000000E-03 0.  1.
         12    1    3    3    0    0 -0.46352169650E+01 -0.12005662519E+02 -0.18037380726E+02  0.22157803868E+02  0.00000000000E+00 0. -1.
</event>
<event>
 7    1  0.2969156E-011  0.5052886E+02  0.7816164E-02  0.1300439E+00
        -11   -1    0    0    0    0  0.00000000000E+00  0.00000000000E+00  0.45593999997E+02  0.45594000000E+02  0.51100000000E-03 0.  1.
         11   -1    0    0    0    0 -0.00000000000E+00 -0.00000000000E+00 -0.45593999997E+02  0.45594000000E+02  0.51100000000E-03 0. -1.
    9900012    2    1    2    0    0  0.40269982432E+02 -0.18261140008E+01 -0.53065452524E+01  0.50528860807E+02  0.30000002908E+02 0.  0.
         12    1    1    2    0    0 -0.40269982432E+02  0.18261140008E+01  0.53065452524E+01  0.40659139193E+02  0.00000000000E+00 0. -1.
         11    1    3    3    0    0  0.43340800677E+01 -0.42963864783E+01 -0.80590592308E+01  0.10108987227E+02  0.51100000000E-03 0. -1.
        -11    1    3    3    0    0  0.20378216169E+02 -0.10372587562E+01 -0.71807019614E+01  0.21631229297E+02  0.51100000000E-03 0.  1.
         12    1    3    3    0    0  0.15557686195E+02  0.35075312337E+01  0.99332159398E+01  0.18788644283E+02  0.00000000000E+00 0. -1.
</event>
<event>
 7    1  0.2969156E-011  0.5052886E+02  0.7816164E-02  0.1300439E+00
        -11   -1    0    0    0    0  0.00000000000E+00  0.00000000000E+00  0.45593999997E+02  0.45594000000E+02  0.51100000000E-03 0.  1.
         11   -1    0    0    0    0 -0.00000000000E+00 -0.00000000000E+00 -0.45593999997E+02  0.45594000000E+02  0.51100000000E-03 0. -1.
    9900012    2    1    2    0    0 -0.21343177147E+02 -0.31976574117E+02  0.13233801327E+02  0.50528855880E+02  0.29999987934E+02 0.  0.
         12    1    1    2    0    0  0.21343177147E+02  0.31976574117E+02 -0.13233801327E+02  0.40659144120E+02  0.00000000000E+00 0. -1.
         11    1    3    3    0    0  0.16630647130E+01 -0.11164389946E+01  0.11082148744E+01  0.22891834215E+01  0.51100000000E-03 0. -1.
        -11    1    3    3    0    0  0.40659198878E+01 -0.13257761918E+02  0.36140700388E+00  0.13871934648E+02  0.51100000000E-03 0.  1.
         12    1    3    3    0    0 -0.27072161748E+02 -0.17602373205E+02  0.11764179449E+02  0.34367737811E+02  0.00000000000E+00 0. -1.
</event>
<event>
 7    1  0.2969156E-011  0.5052882E+02  0.7816164E-02  0.1300439E+00
        -11   -1    0    0    0    0  0.00000000000E+00  0.00000000000E+00  0.45593999997E+02  0.45594000000E+02  0.51100000000E-03 0. -1.
         11   -1    0    0    0    0 -0.00000000000E+00 -0.00000000000E+00 -0.45593999997E+02  0.45594000000E+02  0.51100000000E-03 0.  1.
    9900012    2    1    2    0    0 -0.38716253430E+02  0.12357003278E+02 -0.12349662482E+01  0.50528819593E+02  0.29999877636E+02 0.  0.
         12    1    1    2    0    0  0.38716253430E+02 -0.12357003278E+02  0.12349662482E+01  0.40659180407E+02  0.00000000000E+00 0. -1.
         11    1    3    3    0    0 -0.25700945886E+01  0.23344633780E+01 -0.43949006478E+01  0.56009157664E+01  0.51100000000E-03 0. -1.
        -11    1    3    3    0    0 -0.11965470999E+02  0.54388060348E+01 -0.10461383432E+02  0.16798620505E+02  0.51100000000E-03 0.  1.
         12    1    3    3    0    0 -0.24180687843E+02  0.45837338650E+01  0.13621317832E+02  0.28129283322E+02  0.00000000000E+00 0. -1.
</event>
<event>
 7    1  0.2969156E-011  0.5052886E+02  0.7816164E-02  0.1300439E+00
        -11   -1    0    0    0    0  0.00000000000E+00  0.00000000000E+00  0.45593999997E+02  0.45594000000E+02  0.51100000000E-03 0.  1.
         11   -1    0    0    0    0 -0.00000000000E+00 -0.00000000000E+00 -0.45593999997E+02  0.45594000000E+02  0.51100000000E-03 0. -1.
    9900012    2    1    2    0    0  0.22969798267E+02  0.13579181402E+02  0.30678328736E+02  0.50528860142E+02  0.30000000888E+02 0.  0.
         12    1    1    2    0    0 -0.22969798267E+02 -0.13579181402E+02 -0.30678328736E+02  0.40659139858E+02  0.00000000000E+00 0. -1.
         11    1    3    3    0    0 -0.28550967373E+01  0.68740351528E+01  0.18088784953E+01  0.76600246954E+01  0.51100000000E-03 0. -1.
        -11    1    3    3    0    0  0.15907352215E+02  0.90252010658E+01  0.86559498033E+01  0.20234217950E+02  0.51100000000E-03 0.  1.
         12    1    3    3    0    0  0.99175427889E+01 -0.23200548163E+01  0.20213500437E+02  0.22634617497E+02  0.00000000000E+00 0. -1.
</event>
<event>
 7    1  0.2969156E-011  0.5052887E+02  0.7816164E-02  0.1300439E+00
        -11   -1    0    0    0    0  0.00000000000E+00  0.00000000000E+00  0.45593999997E+02  0.45594000000E+02  0.51100000000E-03 0. -1.
         11   -1    0    0    0    0 -0.00000000000E+00 -0.00000000000E+00 -0.45593999997E+02  0.45594000000E+02  0.51100000000E-03 0.  1.
    9900012    2    1    2    0    0 -0.23739269675E+02 -0.28260523905E+02  0.17057404916E+02  0.50528865743E+02  0.30000017911E+02 0.  0.
         12    1    1    2    0    0  0.23739269675E+02  0.28260523905E+02 -0.17057404916E+02  0.40659134257E+02  0.00000000000E+00 0. -1.
         11    1    3    3    0    0  0.27657908100E+01 -0.51700162945E+01  0.91590055881E+01  0.10875019582E+02  0.51100000000E-03 0. -1.
        -11    1    3    3    0    0 -0.27626020122E+00 -0.37805384711E+01 -0.34873832185E+01  0.51507895321E+01  0.51100000000E-03 0.  1.
        -12    1    3    3    0    0 -0.26228800284E+02 -0.19309969139E+02  0.11385782546E+02  0.34503056628E+02  0.00000000000E+00 0.  1.
</event>
<event>
 7    1  0.2969156E-011  0.5052886E+02  0.7816164E-02  0.1300439E+00
        -11   -1    0    0    0    0  0.00000000000E+00  0.00000000000E+00  0.45593999997E+02  0.45594000000E+02  0.51100000000E-03 0.  1.
         11   -1    0    0    0    0 -0.00000000000E+00 -0.00000000000E+00 -0.45593999997E+02  0.45594000000E+02  0.51100000000E-03 0. -1.
    9900012    2    1    2    0    0 -0.14525644696E+02 -0.30938521594E+02  0.22022238530E+02  0.50528862501E+02  0.30000008058E+02 0.  0.
         12    1    1    2    0    0  0.14525644696E+02  0.30938521594E+02 -0.22022238530E+02  0.40659137499E+02  0.00000000000E+00 0. -1.
         11    1    3    3    0    0 -0.15351031992E+02 -0.17792795643E+02  0.67843991401E+01  0.24459473256E+02  0.51100000000E-03 0. -1.
        -11    1    3    3    0    0 -0.55720628367E+01 -0.13569641828E+02  0.11570665613E+02  0.18683237583E+02  0.51100000000E-03 0.  1.
         12    1    3    3    0    0  0.63974501324E+01  0.42391587629E+00  0.36671737767E+01  0.73861516621E+01  0.00000000000E+00 0. -1.
</event>
<event>
 7    1  0.2969156E-011  0.5052887E+02  0.7816164E-02  0.1300439E+00
        -11   -1    0    0    0    0  0.00000000000E+00  0.00000000000E+00  0.45593999997E+02  0.45594000000E+02  0.51100000000E-03 0.  1.
         11   -1    0    0    0    0 -0.00000000000E+00 -0.00000000000E+00 -0.45593999997E+02  0.45594000000E+02  0.51100000000E-03 0. -1.
    9900012    2    1    2    0    0 -0.35905703471E+02 -0.17624027160E+02  0.73033333023E+01  0.50528873689E+02  0.30000042064E+02 0.  0.
         12    1    1    2    0    0  0.35905703471E+02  0.17624027160E+02 -0.73033333023E+01  0.40659126311E+02  0.00000000000E+00 0. -1.
         11    1    3    3    0    0 -0.22650706397E+02 -0.14213219233E+02 -0.90544881919E+01  0.28232142284E+02  0.51100000000E-03 0. -1.
        -11    1    3    3    0    0 -0.18483151070E+01 -0.61651209560E+00  0.70419618208E+01  0.73065438099E+01  0.51100000000E-03 0.  1.
        -12    1    3    3    0    0 -0.11406681967E+02 -0.27942958316E+01  0.93158596733E+01  0.14990187595E+02  0.00000000000E+00 0.  1.
</event>
<event>
 7    1  0.2969156E-011  0.5052887E+02  0.7816164E-02  0.1300439E+00
        -11   -1    0    0    0    0  0.00000000000E+00  0.00000000000E+00  0.45593999997E+02  0.45594000000E+02  0.51100000000E-03 0.  1.
         11   -1    0    0    0    0 -0.00000000000E+00 -0.00000000000E+00 -0.45593999997E+02  0.45594000000E+02  0.51100000000E-03 0. -1.
    9900012    2    1    2    0    0  0.20456137173E+02  0.20262578301E+02  0.28707818935E+02  0.50528874389E+02  0.30000044192E+02 0.  0.
         12    1    1    2    0    0 -0.20456137173E+02 -0.20262578301E+02 -0.28707818935E+02  0.40659125611E+02  0.00000000000E+00 0. -1.
         11    1    3    3    0    0  0.91399940193E+01  0.12298933086E+02  0.22854072886E+02  0.27515666328E+02  0.51100000000E-03 0.  1.
        -11    1    3    3    0    0  0.14378659905E+02  0.19980061949E+01  0.71518413286E+01  0.16182914573E+02  0.51100000000E-03 0. -1.
         12    1    3    3    0    0 -0.30625167509E+01  0.59656390204E+01 -0.12980952802E+01  0.68302934876E+01  0.00000000000E+00 0. -1.
</event>
<event>
 7    1  0.2969156E-011  0.5052887E+02  0.7816164E-02  0.1300439E+00
        -11   -1    0    0    0    0  0.00000000000E+00  0.00000000000E+00  0.45593999997E+02  0.45594000000E+02  0.51100000000E-03 0.  1.
         11   -1    0    0    0    0 -0.00000000000E+00 -0.00000000000E+00 -0.45593999997E+02  0.45594000000E+02  0.51100000000E-03 0. -1.
    9900012    2    1    2    0    0  0.40525245155E+02  0.17887545595E+01  0.27694788781E+01  0.50528866328E+02  0.30000019689E+02 0.  0.
         12    1    1    2    0    0 -0.40525245155E+02 -0.17887545595E+01 -0.27694788781E+01  0.40659133672E+02  0.00000000000E+00 0. -1.
         11    1    3    3    0    0  0.45884006529E+01 -0.30399548232E+01 -0.62050871354E+01  0.82944470881E+01  0.51100000000E-03 0. -1.
        -11    1    3    3    0    0  0.29833857204E+02 -0.35663210615E+01  0.28451247368E+01  0.30180662958E+02  0.51100000000E-03 0.  1.
        -12    1    3    3    0    0  0.61029872980E+01  0.83950304442E+01  0.61294412767E+01  0.12053756281E+02  0.00000000000E+00 0.  1.
</event>
<event>
 7    1  0.2969156E-011  0.5052886E+02  0.7816164E-02  0.1300439E+00
        -11   -1    0    0    0    0  0.00000000000E+00  0.00000000000E+00  0.45593999997E+02  0.45594000000E+02  0.51100000000E-03 0.  1.
         11   -1    0    0    0    0 -0.00000000000E+00 -0.00000000000E+00 -0.45593999997E+02  0.45594000000E+02  0.51100000000E-03 0. -1.
    9900012    2    1    2    0    0  0.34189186955E+02  0.21000890320E+02  0.65747796798E+01  0.50528860477E+02  0.30000001906E+02 0.  0.
         12    1    1    2    0    0 -0.34189186955E+02 -0.21000890320E+02 -0.65747796798E+01  0.40659139523E+02  0.00000000000E+00 0. -1.
         11    1    3    3    0    0  0.73233456328E+01  0.13398163571E+02  0.82578074811E+01  0.17358962037E+02  0.51100000000E-03 0. -1.
        -11    1    3    3    0    0  0.10069081089E+02  0.99337073234E+00  0.78043139850E+01  0.12778125701E+02  0.51100000000E-03 0.  1.
         12    1    3    3    0    0  0.16796760234E+02  0.66093560168E+01 -0.94873417862E+01  0.20391772740E+02  0.00000000000E+00 0. -1.
</event>
<event>
 7    1  0.2969156E-011  0.5052887E+02  0.7816164E-02  0.1300439E+00
        -11   -1    0    0    0    0  0.00000000000E+00  0.00000000000E+00  0.45593999997E+02  0.45594000000E+02  0.51100000000E-03 0. -1.
         11   -1    0    0    0    0 -0.00000000000E+00 -0.00000000000E+00 -0.45593999997E+02  0.45594000000E+02  0.51100000000E-03 0.  1.
    9900012    2    1    2    0    0  0.35190118995E+02  0.87156419010E+01  0.18408098107E+02  0.50528868620E+02  0.30000026657E+02 0.  0.
         12    1    1    2    0    0 -0.35190118995E+02 -0.87156419010E+01 -0.18408098107E+02  0.40659131380E+02  0.00000000000E+00 0. -1.
         11    1    3    3    0    0  0.92533749586E+01 -0.49386832580E+01 -0.16561666246E+00  0.10490136776E+02  0.51100000000E-03 0. -1.
        -11    1    3    3    0    0  0.13386967162E+02 -0.29372739993E+01  0.12014140969E+02  0.18225752435E+02  0.51100000000E-03 0.  1.
        -12    1    3    3    0    0  0.12549776875E+02  0.16591599158E+02  0.65595738007E+01  0.21812979409E+02  0.00000000000E+00 0.  1.
</event>
<event>
 7    1  0.2969156E-011  0.5052886E+02  0.7816164E-02  0.1300439E+00
        -11   -1    0    0    0    0  0.00000000000E+00  0.00000000000E+00  0.45593999997E+02  0.45594000000E+02  0.51100000000E-03 0.  1.
         11   -1    0    0    0    0 -0.00000000000E+00 -0.00000000000E+00 -0.45593999997E+02  0.45594000000E+02  0.51100000000E-03 0. -1.
    9900012    2    1    2    0    0  0.33220707618E+02 -0.10424764612E+02  0.20997014988E+02  0.50528858712E+02  0.29999996542E+02 0.  0.
         12    1    1    2    0    0 -0.33220707618E+02  0.10424764612E+02 -0.20997014988E+02  0.40659141288E+02  0.00000000000E+00 0. -1.
         11    1    3    3    0    0  0.23687717299E+02 -0.10908151235E+02  0.11475391546E+02  0.28491758907E+02  0.51100000000E-03 0. -1.
        -11    1    3    3    0    0 -0.12178147645E+01 -0.62858141908E+01  0.61842439951E+01  0.89016519194E+01  0.51100000000E-03 0.  1.
        -12    1    3    3    0    0  0.10750805083E+02  0.67692008136E+01  0.33373794469E+01  0.13135447886E+02  0.00000000000E+00 0.  1.
</event>
<event>
 7    1  0.2969156E-011  0.5052886E+02  0.7816164E-02  0.1300439E+00
        -11   -1    0    0    0    0  0.00000000000E+00  0.00000000000E+00  0.45593999997E+02  0.45594000000E+02  0.51100000000E-03 0.  1.
         11   -1    0    0    0    0 -0.00000000000E+00 -0.00000000000E+00 -0.45593999997E+02  0.45594000000E+02  0.51100000000E-03 0. -1.
    9900012    2    1    2    0    0  0.26446929195E+02  0.82344622329E+01 -0.29764397100E+02  0.50528858754E+02  0.29999996669E+02 0.  0.
         12    1    1    2    0    0 -0.26446929195E+02 -0.82344622329E+01  0.29764397100E+02  0.40659141246E+02  0.00000000000E+00 0. -1.
         11    1    3    3    0    0  0.23967540542E+02  0.87497312268E+01 -0.22278284403E+02  0.33872153052E+02  0.51100000000E-03 0. -1.
        -11    1    3    3    0    0  0.29874117255E+01  0.20499439297E+01 -0.11393105510E+02  0.11955323180E+02  0.51100000000E-03 0.  1.
        -12    1    3    3    0    0 -0.50802307222E+00 -0.25652129236E+01  0.39069928120E+01  0.47013825220E+01  0.00000000000E+00 0.  1.
</event>
<event>
 7    1  0.2969156E-011  0.5052887E+02  0.7816164E-02  0.1300439E+00
        -11   -1    0    0    0    0  0.00000000000E+00  0.00000000000E+00  0.45593999997E+02  0.45594000000E+02  0.51100000000E-03 0.  1.
         11   -1    0    0    0    0 -0.00000000000E+00 -0.00000000000E+00 -0.45593999997E+02  0.45594000000E+02  0.51100000000E-03 0. -1.
    9900012    2    1    2    0    0  0.36570782561E+02 -0.13273072215E+02  0.11813913951E+02  0.50528866389E+02  0.30000019877E+02 0.  0.
         12    1    1    2    0    0 -0.36570782561E+02  0.13273072215E+02 -0.11813913951E+02  0.40659133611E+02  0.00000000000E+00 0. -1.
         11    1    3    3    0    0  0.53469727705E+01 -0.68810917196E+01  0.40610515340E+00  0.87237871776E+01  0.51100000000E-03 0. -1.
        -11    1    3    3    0    0  0.74488677437E+00 -0.92832663888E+01  0.58053401949E+00  0.93311795161E+01  0.51100000000E-03 0.  1.
         12    1    3    3    0    0  0.30478923016E+02  0.28912858932E+01  0.10827274778E+02  0.32473899696E+02  0.00000000000E+00 0. -1.
</event>
<event>
 7    1  0.2969156E-011  0.5052887E+02  0.7816164E-02  0.1300439E+00
        -11   -1    0    0    0    0  0.00000000000E+00  0.00000000000E+00  0.45593999997E+02  0.45594000000E+02  0.51100000000E-03 0. -1.
         11   -1    0    0    0    0 -0.00000000000E+00 -0.00000000000E+00 -0.45593999997E+02  0.45594000000E+02  0.51100000000E-03 0.  1.
    9900012    2    1    2    0    0  0.39743735573E+02  0.61810082422E+01  0.59493935360E+01  0.50528872321E+02  0.30000037907E+02 0.  0.
         12    1    1    2    0    0 -0.39743735573E+02 -0.61810082422E+01 -0.59493935360E+01  0.40659127679E+02  0.00000000000E+00 0. -1.
         11    1    3    3    0    0  0.35396493504E+01  0.55444560790E+01  0.53764596233E+01  0.84956711964E+01  0.51100000000E-03 0. -1.
        -11    1    3    3    0    0  0.37278322117E+02 -0.95289523482E+00  0.45993990045E+01  0.37573072548E+02  0.51100000000E-03 0.  1.
         12    1    3    3    0    0 -0.10742358949E+01  0.15894473981E+01 -0.40264650918E+01  0.44601285771E+01  0.00000000000E+00 0. -1.
</event>
<event>
 7    1  0.2969156E-011  0.5052888E+02  0.7816164E-02  0.1300439E+00
        -11   -1    0    0    0    0  0.00000000000E+00  0.00000000000E+00  0.45593999997E+02  0.45594000000E+02  0.51100000000E-03 0.  1.
         11   -1    0    0    0    0 -0.00000000000E+00 -0.00000000000E+00 -0.45593999997E+02  0.45594000000E+02  0.51100000000E-03 0. -1.
    9900012    2    1    2    0    0  0.22805445241E+01 -0.30901381633E+02  0.26326177503E+02  0.50528881809E+02  0.30000066747E+02 0.  0.
         12    1    1    2    0    0 -0.22805445241E+01  0.30901381633E+02 -0.26326177503E+02  0.40659118191E+02  0.00000000000E+00 0. -1.
         11    1    3    3    0    0  0.25171187446E+01 -0.13930309634E+01 -0.39277605175E+01  0.48686471409E+01  0.51100000000E-03 0. -1.
        -11    1    3    3    0    0  0.33686666359E+01 -0.22539120323E+02  0.11921778057E+02  0.25719421692E+02  0.51100000000E-03 0.  1.
        -12    1    3    3    0    0 -0.36052408564E+01 -0.69692303463E+01  0.18332159963E+02  0.19940812977E+02  0.00000000000E+00 0.  1.
</event>
<event>
 7    1  0.2969156E-011  0.5052886E+02  0.7816164E-02  0.1300439E+00
        -11   -1    0    0    0    0  0.00000000000E+00  0.00000000000E+00  0.45593999997E+02  0.45594000000E+02  0.51100000000E-03 0.  1.
         11   -1    0    0    0    0 -0.00000000000E+00 -0.00000000000E+00 -0.45593999997E+02  0.45594000000E+02  0.51100000000E-03 0. -1.
    9900012    2    1    2    0    0 -0.76870409545E+01  0.32000324195E+02 -0.23875814536E+02  0.50528857523E+02  0.29999992927E+02 0.  0.
         12    1    1    2    0    0  0.76870409545E+01 -0.32000324195E+02  0.23875814536E+02  0.40659142477E+02  0.00000000000E+00 0. -1.
         11    1    3    3    0    0 -0.31685149913E+01  0.98998558118E+01 -0.10725617345E+02  0.14936047002E+02  0.51100000000E-03 0. -1.
        -11    1    3    3    0    0  0.90324779648E+01  0.12858644707E+02 -0.10693455670E+02  0.19007377418E+02  0.51100000000E-03 0.  1.
         12    1    3    3    0    0 -0.13551003928E+02  0.92418236756E+01 -0.24567415207E+01  0.16585433103E+02  0.00000000000E+00 0. -1.
</event>
<event>
 7    1  0.2969156E-011  0.5052889E+02  0.7816164E-02  0.1300439E+00
        -11   -1    0    0    0    0  0.00000000000E+00  0.00000000000E+00  0.45593999997E+02  0.45594000000E+02  0.51100000000E-03 0.  1.
         11   -1    0    0    0    0 -0.00000000000E+00 -0.00000000000E+00 -0.45593999997E+02  0.45594000000E+02  0.51100000000E-03 0. -1.
    9900012    2    1    2    0    0  0.12997828397E+02 -0.65712200485E+01  0.37961017981E+02  0.50528888326E+02  0.30000086554E+02 0.  0.
         12    1    1    2    0    0 -0.12997828397E+02  0.65712200485E+01 -0.37961017981E+02  0.40659111674E+02  0.00000000000E+00 0. -1.
         11    1    3    3    0    0  0.10279177042E+02 -0.30726078647E+01  0.10419391986E+02  0.14955471553E+02  0.51100000000E-03 0. -1.
        -11    1    3    3    0    0  0.10349943444E+02 -0.73133307559E+01  0.10279035485E+02  0.16317619520E+02  0.51100000000E-03 0.  1.
        -12    1    3    3    0    0 -0.76312920882E+01  0.38147185721E+01  0.17262590511E+02  0.19255797253E+02  0.00000000000E+00 0.  1.
</event>
<event>
 7    1  0.2969156E-011  0.5052885E+02  0.7816164E-02  0.1300439E+00
        -11   -1    0    0    0    0  0.00000000000E+00  0.00000000000E+00  0.45593999997E+02  0.45594000000E+02  0.51100000000E-03 0.  1.
         11   -1    0    0    0    0 -0.00000000000E+00 -0.00000000000E+00 -0.45593999997E+02  0.45594000000E+02  0.51100000000E-03 0. -1.
    9900012    2    1    2    0    0 -0.15136461041E+02 -0.19652741644E+02  0.32215274276E+02  0.50528848464E+02  0.29999965391E+02 0.  0.
         12    1    1    2    0    0  0.15136461041E+02  0.19652741644E+02 -0.32215274276E+02  0.40659151536E+02  0.00000000000E+00 0. -1.
         11    1    3    3    0    0 -0.13097853323E+02 -0.17319220003E+01  0.33753439490E+01  0.13636211443E+02  0.51100000000E-03 0. -1.
        -11    1    3    3    0    0 -0.72712428195E+01 -0.96596824972E+01  0.10097345718E+02  0.15752359471E+02  0.51100000000E-03 0.  1.
        -12    1    3    3    0    0  0.52326351019E+01 -0.82611371461E+01  0.18742584609E+02  0.21140277550E+02  0.00000000000E+00 0.  1.
</event>
<event>
 7    1  0.2969156E-011  0.5052887E+02  0.7816164E-02  0.1300439E+00
        -11   -1    0    0    0    0  0.00000000000E+00  0.00000000000E+00  0.45593999997E+02  0.45594000000E+02  0.51100000000E-03 0.  1.
         11   -1    0    0    0    0 -0.00000000000E+00 -0.00000000000E+00 -0.45593999997E+02  0.45594000000E+02  0.51100000000E-03 0. -1.
    9900012    2    1    2    0    0 -0.37400542745E+02  0.15761253523E+02 -0.24386644267E+01  0.50528870713E+02  0.30000033019E+02 0.  0.
         12    1    1    2    0    0  0.37400542745E+02 -0.15761253523E+02  0.24386644267E+01  0.40659129287E+02  0.00000000000E+00 0. -1.
         11    1    3    3    0    0 -0.29399779962E+01 -0.59725317099E+01 -0.20044090340E+00  0.66599386229E+01  0.51100000000E-03 0. -1.
        -11    1    3    3    0    0 -0.20303466282E+02  0.33245445516E+01 -0.16167369523E+01  0.20637276423E+02  0.51100000000E-03 0.  1.
        -12    1    3    3    0    0 -0.14157098466E+02  0.18409240681E+02 -0.62148657106E+00  0.23231655667E+02  0.00000000000E+00 0.  1.
</event>
<event>
 7    1  0.2969156E-011  0.5052886E+02  0.7816164E-02  0.1300439E+00
        -11   -1    0    0    0    0  0.00000000000E+00  0.00000000000E+00  0.45593999997E+02  0.45594000000E+02  0.51100000000E-03 0. -1.
         11   -1    0    0    0    0 -0.00000000000E+00 -0.00000000000E+00 -0.45593999997E+02  0.45594000000E+02  0.51100000000E-03 0.  1.
    9900012    2    1    2    0    0  0.11551803412E+02  0.28439221989E+02 -0.26663313268E+02  0.50528858545E+02  0.29999996033E+02 0.  0.
         12    1    1    2    0    0 -0.11551803412E+02 -0.28439221989E+02  0.26663313268E+02  0.40659141455E+02  0.00000000000E+00 0. -1.
         11    1    3    3    0    0 -0.45202643151E+01  0.10511275007E+01 -0.67704181051E+01  0.82083018999E+01  0.51100000000E-03 0. -1.
        -11    1    3    3    0    0  0.96905412123E+01  0.67694240906E+01 -0.16762200615E+02  0.20511047297E+02  0.51100000000E-03 0.  1.
        -12    1    3    3    0    0  0.63815265149E+01  0.20618670398E+02 -0.31306945479E+01  0.21809509348E+02  0.00000000000E+00 0.  1.
</event>
<event>
 7    1  0.2969156E-011  0.5052886E+02  0.7816164E-02  0.1300439E+00
        -11   -1    0    0    0    0  0.00000000000E+00  0.00000000000E+00  0.45593999997E+02  0.45594000000E+02  0.51100000000E-03 0. -1.
         11   -1    0    0    0    0 -0.00000000000E+00 -0.00000000000E+00 -0.45593999997E+02  0.45594000000E+02  0.51100000000E-03 0.  1.
    9900012    2    1    2    0    0  0.90895057717E+01  0.39630119566E+02 -0.24015984793E-01  0.50528855041E+02  0.29999985383E+02 0.  0.
         12    1    1    2    0    0 -0.90895057717E+01 -0.39630119566E+02  0.24015984793E-01  0.40659144959E+02  0.00000000000E+00 0. -1.
         11    1    3    3    0    0  0.97710440582E+01  0.10008506625E+02 -0.12419365756E+00  0.13987813667E+02  0.51100000000E-03 0. -1.
        -11    1    3    3    0    0 -0.21045705885E+01  0.19686205362E+02 -0.10104349673E+02  0.22227770502E+02  0.51100000000E-03 0.  1.
         12    1    3    3    0    0  0.14230323019E+01  0.99354075794E+01  0.10204527346E+02  0.14313270872E+02  0.00000000000E+00 0. -1.
</event>
<event>
 7    1  0.2969156E-011  0.5052886E+02  0.7816164E-02  0.1300439E+00
        -11   -1    0    0    0    0  0.00000000000E+00  0.00000000000E+00  0.45593999997E+02  0.45594000000E+02  0.51100000000E-03 0.  1.
         11   -1    0    0    0    0 -0.00000000000E+00 -0.00000000000E+00 -0.45593999997E+02  0.45594000000E+02  0.51100000000E-03 0. -1.
    9900012    2    1    2    0    0 -0.35069830284E+02  0.91283522521E+00  0.20553325187E+02  0.50528862767E+02  0.30000008867E+02 0.  0.
         12    1    1    2    0    0  0.35069830284E+02 -0.91283522521E+00 -0.20553325187E+02  0.40659137233E+02  0.00000000000E+00 0. -1.
         11    1    3    3    0    0 -0.19707949412E+02 -0.78613847694E+01  0.13087948226E+02  0.24929882261E+02  0.51100000000E-03 0. -1.
        -11    1    3    3    0    0 -0.15791044044E+02  0.35157448237E+01  0.10713325800E+02  0.19403424533E+02  0.51100000000E-03 0.  1.
         12    1    3    3    0    0  0.42916317205E+00  0.52584751709E+01 -0.32479488389E+01  0.61955559728E+01  0.00000000000E+00 0. -1.
</event>
<event>
 7    1  0.2969156E-011  0.5052885E+02  0.7816164E-02  0.1300439E+00
        -11   -1    0    0    0    0  0.00000000000E+00  0.00000000000E+00  0.45593999997E+02  0.45594000000E+02  0.51100000000E-03 0. -1.
         11   -1    0    0    0    0 -0.00000000000E+00 -0.00000000000E+00 -0.45593999997E+02  0.45594000000E+02  0.51100000000E-03 0.  1.
    9900012    2    1    2    0    0 -0.34892990070E+02 -0.12449627567E+02 -0.16752678150E+02  0.50528853332E+02  0.29999980187E+02 0.  0.
         12    1    1    2    0    0  0.34892990070E+02  0.12449627567E+02  0.16752678150E+02  0.40659146668E+02  0.00000000000E+00 0. -1.
         11    1    3    3    0    0 -0.28238659390E+01 -0.91795068723E+01 -0.56056740070E+01  0.11120303350E+02  0.51100000000E-03 0. -1.
        -11    1    3    3    0    0 -0.51678441288E+01 -0.59964818021E+01 -0.94340517984E+01  0.12315264534E+02  0.51100000000E-03 0.  1.
         12    1    3    3    0    0 -0.26901280002E+02  0.27263611070E+01 -0.17129523448E+01  0.27093285448E+02  0.00000000000E+00 0. -1.
</event>
<event>
 7    1  0.2969156E-011  0.5052886E+02  0.7816164E-02  0.1300439E+00
        -11   -1    0    0    0    0  0.00000000000E+00  0.00000000000E+00  0.45593999997E+02  0.45594000000E+02  0.51100000000E-03 0. -1.
         11   -1    0    0    0    0 -0.00000000000E+00 -0.00000000000E+00 -0.45593999997E+02  0.45594000000E+02  0.51100000000E-03 0.  1.
    9900012    2    1    2    0    0 -0.15440494918E+02  0.37310341599E+02  0.47639079920E+01  0.50528864582E+02  0.30000014384E+02 0.  0.
         12    1    1    2    0    0  0.15440494918E+02 -0.37310341599E+02 -0.47639079920E+01  0.40659135418E+02  0.00000000000E+00 0. -1.
         11    1    3    3    0    0  0.22667418084E+01 -0.13864850210E+01 -0.26023319447E+01  0.37192191319E+01  0.51100000000E-03 0. -1.
        -11    1    3    3    0    0 -0.58006213175E+01  0.21878589657E+02 -0.44326655725E+01  0.23064440539E+02  0.51100000000E-03 0.  1.
         12    1    3    3    0    0 -0.11906615409E+02  0.16818236963E+02  0.11798905509E+02  0.23745204911E+02  0.00000000000E+00 0. -1.
</event>
<event>
 7    1  0.2969156E-011  0.5052886E+02  0.7816164E-02  0.1300439E+00
        -11   -1    0    0    0    0  0.00000000000E+00  0.00000000000E+00  0.45593999997E+02  0.45594000000E+02  0.51100000000E-03 0. -1.
         11   -1    0    0    0    0 -0.00000000000E+00 -0.00000000000E+00 -0.45593999997E+02  0.45594000000E+02  0.51100000000E-03 0.  1.
    9900012    2    1    2    0    0 -0.15834915057E+02 -0.35677469414E+02 -0.11381528548E+02  0.50528861412E+02  0.30000004748E+02 0.  0.
         12    1    1    2    0    0  0.15834915057E+02  0.35677469414E+02  0.11381528548E+02  0.40659138588E+02  0.00000000000E+00 0. -1.
         11    1    3    3    0    0 -0.38332879380E+01  0.40917122909E+01  0.83605757151E+00  0.56687916182E+01  0.51100000000E-03 0. -1.
        -11    1    3    3    0    0  0.15530569995E+01 -0.10558979958E+02 -0.83347292354E+00  0.10705079223E+02  0.51100000000E-03 0.  1.
         12    1    3    3    0    0 -0.13554684119E+02 -0.29210201746E+02 -0.11384113196E+02  0.34154990570E+02  0.00000000000E+00 0. -1.
</event>
<event>
 7    1  0.2969156E-011  0.5052883E+02  0.7816164E-02  0.1300439E+00
        -11   -1    0    0    0    0  0.00000000000E+00  0.00000000000E+00  0.45593999997E+02  0.45594000000E+02  0.51100000000E-03 0.  1.
         11   -1    0    0    0    0 -0.00000000000E+00 -0.00000000000E+00 -0.45593999997E+02  0.45594000000E+02  0.51100000000E-03 0. -1.
    9900012    2    1    2    0    0  0.15798346355E+02  0.87731377691E+01  0.36422687929E+02  0.50528832647E+02  0.29999917315E+02 0.  0.
         12    1    1    2    0    0 -0.15798346355E+02 -0.87731377691E+01 -0.36422687929E+02  0.40659167353E+02  0.00000000000E+00 0. -1.
         11    1    3    3    0    0  0.12081210966E+02  0.14125820006E+00  0.70288337655E+01  0.13977843777E+02  0.51100000000E-03 0. -1.
        -11    1    3    3    0    0  0.70716507573E+01 -0.21746753130E+01  0.21545346744E+02  0.22780241959E+02  0.51100000000E-03 0.  1.
         12    1    3    3    0    0 -0.33545153688E+01  0.10806554882E+02  0.78485074192E+01  0.13770746911E+02  0.00000000000E+00 0. -1.
</event>
<event>
 7    1  0.2969156E-011  0.5052889E+02  0.7816164E-02  0.1300439E+00
        -11   -1    0    0    0    0  0.00000000000E+00  0.00000000000E+00  0.45593999997E+02  0.45594000000E+02  0.51100000000E-03 0.  1.
         11   -1    0    0    0    0 -0.00000000000E+00 -0.00000000000E+00 -0.45593999997E+02  0.45594000000E+02  0.51100000000E-03 0. -1.
    9900012    2    1    2    0    0  0.72525777672E+01 -0.25154637219E+02  0.31109609482E+02  0.50528887123E+02  0.30000082898E+02 0.  0.
         12    1    1    2    0    0 -0.72525777672E+01  0.25154637219E+02 -0.31109609482E+02  0.40659112877E+02  0.00000000000E+00 0. -1.
         11    1    3    3    0    0  0.38972631396E+01  0.15211370454E+01  0.33226880350E+01  0.53425437696E+01  0.51100000000E-03 0. -1.
        -11    1    3    3    0    0  0.85169394202E+01 -0.43527152112E+00  0.96216030304E+01  0.12857020009E+02  0.51100000000E-03 0.  1.
        -12    1    3    3    0    0 -0.51616247927E+01 -0.26240502743E+02  0.18165318416E+02  0.32329323344E+02  0.00000000000E+00 0.  1.
</event>
<event>
 7    1  0.2969156E-011  0.5052885E+02  0.7816164E-02  0.1300439E+00
        -11   -1    0    0    0    0  0.00000000000E+00  0.00000000000E+00  0.45593999997E+02  0.45594000000E+02  0.51100000000E-03 0. -1.
         11   -1    0    0    0    0 -0.00000000000E+00 -0.00000000000E+00 -0.45593999997E+02  0.45594000000E+02  0.51100000000E-03 0.  1.
    9900012    2    1    2    0    0 -0.27533934499E+02  0.26552106456E+02 -0.13785303233E+02  0.50528849843E+02  0.29999969584E+02 0.  0.
         12    1    1    2    0    0  0.27533934499E+02 -0.26552106456E+02  0.13785303233E+02  0.40659150157E+02  0.00000000000E+00 0. -1.
         11    1    3    3    0    0 -0.18287231838E+02  0.81759301678E+01 -0.13959624189E+01  0.20080273746E+02  0.51100000000E-03 0. -1.
        -11    1    3    3    0    0 -0.11160742078E+02  0.21377750410E+02 -0.97284244576E+01  0.26004088506E+02  0.51100000000E-03 0.  1.
         12    1    3    3    0    0  0.19140394163E+01 -0.30015741217E+01 -0.26609163561E+01  0.44444875913E+01  0.00000000000E+00 0. -1.
</event>
<event>
 7    1  0.2969156E-011  0.5052887E+02  0.7816164E-02  0.1300439E+00
        -11   -1    0    0    0    0  0.00000000000E+00  0.00000000000E+00  0.45593999997E+02  0.45594000000E+02  0.51100000000E-03 0. -1.
         11   -1    0    0    0    0 -0.00000000000E+00 -0.00000000000E+00 -0.45593999997E+02  0.45594000000E+02  0.51100000000E-03 0.  1.
    9900012    2    1    2    0    0  0.18648845980E+02  0.23454673385E+02 -0.27482059760E+02  0.50528871030E+02  0.30000033982E+02 0.  0.
         12    1    1    2    0    0 -0.18648845980E+02 -0.23454673385E+02  0.27482059760E+02  0.40659128970E+02  0.00000000000E+00 0. -1.
         11    1    3    3    0    0 -0.10722581977E+01 -0.39221478978E+00 -0.92778172431E+01  0.93478052580E+01  0.51100000000E-03 0. -1.
        -11    1    3    3    0    0 -0.81127147986E-02  0.13938660609E+02 -0.11608024254E+02  0.18139254470E+02  0.51100000000E-03 0.  1.
        -12    1    3    3    0    0  0.19729216893E+02  0.99082275662E+01 -0.65962182625E+01  0.23041811302E+02  0.00000000000E+00 0.  1.
</event>
<event>
 7    1  0.2969156E-011  0.5052886E+02  0.7816164E-02  0.1300439E+00
        -11   -1    0    0    0    0  0.00000000000E+00  0.00000000000E+00  0.45593999997E+02  0.45594000000E+02  0.51100000000E-03 0.  1.
         11   -1    0    0    0    0 -0.00000000000E+00 -0.00000000000E+00 -0.45593999997E+02  0.45594000000E+02  0.51100000000E-03 0. -1.
    9900012    2    1    2    0    0 -0.11935173034E+02  0.12131061231E+01  0.38849010164E+02  0.50528861144E+02  0.30000003932E+02 0.  0.
         12    1    1    2    0    0  0.11935173034E+02 -0.12131061231E+01 -0.38849010164E+02  0.40659138856E+02  0.00000000000E+00 0. -1.
         11    1    3    3    0    0  0.58596131210E-01  0.14794201873E-01 -0.45566847997E+01  0.45570855818E+01  0.51100000000E-03 0. -1.
        -11    1    3    3    0    0 -0.27583811522E+01  0.45458788398E+01  0.15727261788E+02  0.16601820521E+02  0.51100000000E-03 0.  1.
        -12    1    3    3    0    0 -0.92353880132E+01 -0.33475669186E+01  0.27678433176E+02  0.29369955041E+02  0.00000000000E+00 0.  1.
</event>
<event>
 7    1  0.2969156E-011  0.5052883E+02  0.7816164E-02  0.1300439E+00
        -11   -1    0    0    0    0  0.00000000000E+00  0.00000000000E+00  0.45593999997E+02  0.45594000000E+02  0.51100000000E-03 0. -1.
         11   -1    0    0    0    0 -0.00000000000E+00 -0.00000000000E+00 -0.45593999997E+02  0.45594000000E+02  0.51100000000E-03 0.  1.
    9900012    2    1    2    0    0 -0.31611319200E+02  0.19063928062E+02 -0.17042860688E+02  0.50528831844E+02  0.29999914873E+02 0.  0.
         12    1    1    2    0    0  0.31611319200E+02 -0.19063928062E+02  0.17042860688E+02  0.40659168156E+02  0.00000000000E+00 0. -1.
         11    1    3    3    0    0 -0.60013329156E+01 -0.54212327013E+01  0.54874710536E+00  0.81059783131E+01  0.51100000000E-03 0. -1.
        -11    1    3    3    0    0 -0.15423270364E+02  0.49053799615E+01 -0.46589279800E+01  0.16841782313E+02  0.51100000000E-03 0.  1.
         12    1    3    3    0    0 -0.10186715920E+02  0.19579780802E+02 -0.12932679814E+02  0.25581071218E+02  0.00000000000E+00 0. -1.
</event>
<event>
 7    1  0.2969156E-011  0.5052885E+02  0.7816164E-02  0.1300439E+00
        -11   -1    0    0    0    0  0.00000000000E+00  0.00000000000E+00  0.45593999997E+02  0.45594000000E+02  0.51100000000E-03 0.  1.
         11   -1    0    0    0    0 -0.00000000000E+00 -0.00000000000E+00 -0.45593999997E+02  0.45594000000E+02  0.51100000000E-03 0. -1.
    9900012    2    1    2    0    0 -0.28249034040E+02 -0.28338325097E+02  0.72178622600E+01  0.50528854300E+02  0.29999983130E+02 0.  0.
         12    1    1    2    0    0  0.28249034040E+02  0.28338325097E+02 -0.72178622600E+01  0.40659145700E+02  0.00000000000E+00 0. -1.
         11    1    3    3    0    0 -0.11791372096E+02 -0.49602781264E+01  0.10686633497E+02  0.16668681734E+02  0.51100000000E-03 0. -1.
        -11    1    3    3    0    0 -0.16995012433E+02 -0.24361208313E+02  0.52913805295E+00  0.29708229591E+02  0.51100000000E-03 0.  1.
         12    1    3    3    0    0  0.53735048910E+00  0.98316134277E+00 -0.39979092901E+01  0.41519429748E+01  0.00000000000E+00 0. -1.
</event>
<event>
 7    1  0.2969156E-011  0.5052885E+02  0.7816164E-02  0.1300439E+00
        -11   -1    0    0    0    0  0.00000000000E+00  0.00000000000E+00  0.45593999997E+02  0.45594000000E+02  0.51100000000E-03 0. -1.
         11   -1    0    0    0    0 -0.00000000000E+00 -0.00000000000E+00 -0.45593999997E+02  0.45594000000E+02  0.51100000000E-03 0.  1.
    9900012    2    1    2    0    0 -0.44555673724E+00  0.39202211808E+02 -0.10777484325E+02  0.50528854660E+02  0.29999984223E+02 0.  0.
         12    1    1    2    0    0  0.44555673724E+00 -0.39202211808E+02  0.10777484325E+02  0.40659145340E+02  0.00000000000E+00 0. -1.
         11    1    3    3    0    0  0.96280043085E+00 -0.77932642516E+00  0.45620250540E+00  0.13200209595E+01  0.51100000000E-03 0. -1.
        -11    1    3    3    0    0  0.73898489216E+01  0.33524567326E+02 -0.15270894156E+02  0.37572685425E+02  0.51100000000E-03 0.  1.
        -12    1    3    3    0    0 -0.87982060897E+01  0.64569709070E+01  0.40372073250E+01  0.11636148275E+02  0.00000000000E+00 0.  1.
</event>
<event>
 7    1  0.2969156E-011  0.5052886E+02  0.7816164E-02  0.1300439E+00
        -11   -1    0    0    0    0  0.00000000000E+00  0.00000000000E+00  0.45593999997E+02  0.45594000000E+02  0.51100000000E-03 0.  1.
         11   -1    0    0    0    0 -0.00000000000E+00 -0.00000000000E+00 -0.45593999997E+02  0.45594000000E+02  0.51100000000E-03 0. -1.
    9900012    2    1    2    0    0  0.13826081862E+02 -0.26088068614E+02  0.27953851353E+02  0.50528859956E+02  0.30000000322E+02 0.  0.
         12    1    1    2    0    0 -0.13826081862E+02  0.26088068614E+02 -0.27953851353E+02  0.40659140044E+02  0.00000000000E+00 0. -1.
         11    1    3    3    0    0  0.91264433314E+01 -0.11030618767E+02  0.35812289952E+00  0.14321130211E+02  0.51100000000E-03 0. -1.
        -11    1    3    3    0    0  0.95290219357E+01 -0.15745796793E+02  0.23420105937E+02  0.29786469043E+02  0.51100000000E-03 0.  1.
         12    1    3    3    0    0 -0.48293834051E+01  0.68834694582E+00  0.41756225164E+01  0.64212607011E+01  0.00000000000E+00 0. -1.
</event>
<event>
 7    1  0.2969156E-011  0.5052886E+02  0.7816164E-02  0.1300439E+00
        -11   -1    0    0    0    0  0.00000000000E+00  0.00000000000E+00  0.45593999997E+02  0.45594000000E+02  0.51100000000E-03 0. -1.
         11   -1    0    0    0    0 -0.00000000000E+00 -0.00000000000E+00 -0.45593999997E+02  0.45594000000E+02  0.51100000000E-03 0.  1.
    9900012    2    1    2    0    0 -0.26440477682E+02  0.30655747750E+02  0.37804434354E+01  0.50528862248E+02  0.30000007289E+02 0.  0.
         12    1    1    2    0    0  0.26440477682E+02 -0.30655747750E+02 -0.37804434354E+01  0.40659137752E+02  0.00000000000E+00 0. -1.
         11    1    3    3    0    0 -0.13565883049E+02  0.62178739235E+01  0.10076446222E+02  0.18006385194E+02  0.51100000000E-03 0. -1.
        -11    1    3    3    0    0 -0.98949556677E+01  0.19233207009E+02  0.26092130591E+01  0.21786105493E+02  0.51100000000E-03 0.  1.
         12    1    3    3    0    0 -0.29796389652E+01  0.52046668176E+01 -0.89052158452E+01  0.10736371561E+02  0.00000000000E+00 0. -1.
</event>
<event>
 7    1  0.2969156E-011  0.5052882E+02  0.7816164E-02  0.1300439E+00
        -11   -1    0    0    0    0  0.00000000000E+00  0.00000000000E+00  0.45593999997E+02  0.45594000000E+02  0.51100000000E-03 0.  1.
         11   -1    0    0    0    0 -0.00000000000E+00 -0.00000000000E+00 -0.45593999997E+02  0.45594000000E+02  0.51100000000E-03 0. -1.
    9900012    2    1    2    0    0  0.28952957461E+02  0.14674726179E+02  0.24485653040E+02  0.50528824664E+02  0.29999893050E+02 0.  0.
         12    1    1    2    0    0 -0.28952957461E+02 -0.14674726179E+02 -0.24485653040E+02  0.40659175336E+02  0.00000000000E+00 0. -1.
         11    1    3    3    0    0  0.14670986918E+02 -0.10012209757E+00  0.61940851614E+01  0.15925280934E+02  0.51100000000E-03 0. -1.
        -11    1    3    3    0    0  0.18156382724E+02  0.15177629687E+02  0.10493752279E+02  0.25886937124E+02  0.51100000000E-03 0.  1.
         12    1    3    3    0    0 -0.38744121802E+01 -0.40278141011E+00  0.77978155997E+01  0.87166066066E+01  0.00000000000E+00 0. -1.
</event>
<event>
 7    1  0.2969156E-011  0.5052886E+02  0.7816164E-02  0.1300439E+00
        -11   -1    0    0    0    0  0.00000000000E+00  0.00000000000E+00  0.45593999997E+02  0.45594000000E+02  0.51100000000E-03 0. -1.
         11   -1    0    0    0    0 -0.00000000000E+00 -0.00000000000E+00 -0.45593999997E+02  0.45594000000E+02  0.51100000000E-03 0.  1.
    9900012    2    1    2    0    0 -0.32877320730E+02 -0.59757360973E+01 -0.23163282543E+02  0.50528864514E+02  0.30000014176E+02 0.  0.
         12    1    1    2    0    0  0.32877320730E+02  0.59757360973E+01  0.23163282543E+02  0.40659135486E+02  0.00000000000E+00 0. -1.
         11    1    3    3    0    0 -0.11343039474E+02  0.41495421557E+01 -0.68875743239E+01  0.13904025494E+02  0.51100000000E-03 0. -1.
        -11    1    3    3    0    0 -0.41893949244E+01  0.85905819532E+00 -0.15500603088E+02  0.16079729698E+02  0.51100000000E-03 0.  1.
         12    1    3    3    0    0 -0.17344886332E+02 -0.10984336448E+02 -0.77510513161E+00  0.20545109322E+02  0.00000000000E+00 0. -1.
</event>
<event>
 7    1  0.2969156E-011  0.5052887E+02  0.7816164E-02  0.1300439E+00
        -11   -1    0    0    0    0  0.00000000000E+00  0.00000000000E+00  0.45593999997E+02  0.45594000000E+02  0.51100000000E-03 0. -1.
         11   -1    0    0    0    0 -0.00000000000E+00 -0.00000000000E+00 -0.45593999997E+02  0.45594000000E+02  0.51100000000E-03 0.  1.
    9900012    2    1    2    0    0 -0.30477276874E+02  0.26865954955E+02 -0.15878229650E+01  0.50528866671E+02  0.30000020733E+02 0.  0.
         12    1    1    2    0    0  0.30477276874E+02 -0.26865954955E+02  0.15878229650E+01  0.40659133329E+02  0.00000000000E+00 0. -1.
         11    1    3    3    0    0 -0.18958401661E+01  0.16971200543E+01 -0.67414256889E+01  0.72056399434E+01  0.51100000000E-03 0. -1.
        -11    1    3    3    0    0 -0.12959034994E+02  0.21153688233E+02 -0.34429325983E+01  0.25045336871E+02  0.51100000000E-03 0.  1.
         12    1    3    3    0    0 -0.15622401713E+02  0.40151466676E+01  0.85965353222E+01  0.18277889856E+02  0.00000000000E+00 0. -1.
</event>
<event>
 7    1  0.2969156E-011  0.5052885E+02  0.7816164E-02  0.1300439E+00
        -11   -1    0    0    0    0  0.00000000000E+00  0.00000000000E+00  0.45593999997E+02  0.45594000000E+02  0.51100000000E-03 0. -1.
         11   -1    0    0    0    0 -0.00000000000E+00 -0.00000000000E+00 -0.45593999997E+02  0.45594000000E+02  0.51100000000E-03 0.  1.
    9900012    2    1    2    0    0  0.65351629745E+01  0.20724266491E+02  0.34365137822E+02  0.50528852515E+02  0.29999977704E+02 0.  0.
         12    1    1    2    0    0 -0.65351629745E+01 -0.20724266491E+02 -0.34365137822E+02  0.40659147485E+02  0.00000000000E+00 0. -1.
         11    1    3    3    0    0  0.41889808145E+01  0.69079236438E+01  0.15998075383E+02  0.17922203703E+02  0.51100000000E-03 0. -1.
        -11    1    3    3    0    0  0.48208879537E+01  0.15168358115E+02  0.22526178903E+02  0.27581674801E+02  0.51100000000E-03 0.  1.
        -12    1    3    3    0    0 -0.24747057937E+01 -0.13520152678E+01 -0.41591164644E+01  0.50249740113E+01  0.00000000000E+00 0.  1.
</event>
<event>
 7    1  0.2969156E-011  0.5052885E+02  0.7816164E-02  0.1300439E+00
        -11   -1    0    0    0    0  0.00000000000E+00  0.00000000000E+00  0.45593999997E+02  0.45594000000E+02  0.51100000000E-03 0.  1.
         11   -1    0    0    0    0 -0.00000000000E+00 -0.00000000000E+00 -0.45593999997E+02  0.45594000000E+02  0.51100000000E-03 0. -1.
    9900012    2    1    2    0    0 -0.19480188531E+02 -0.34172240716E+02  0.10293052132E+02  0.50528847242E+02  0.29999961678E+02 0.  0.
         12    1    1    2    0    0  0.19480188531E+02  0.34172240716E+02 -0.10293052132E+02  0.40659152758E+02  0.00000000000E+00 0. -1.
         11    1    3    3    0    0 -0.60003195013E+01 -0.15221819491E+02  0.12235784878E+02  0.20430909295E+02  0.51100000000E-03 0. -1.
        -11    1    3    3    0    0 -0.12694194910E+02 -0.29611568416E+01  0.29377905921E+01  0.13361947766E+02  0.51100000000E-03 0.  1.
         12    1    3    3    0    0 -0.78567411937E+00 -0.15989264383E+02 -0.48805233382E+01  0.16735990182E+02  0.00000000000E+00 0. -1.
</event>
<event>
 7    1  0.2969156E-011  0.5052885E+02  0.7816164E-02  0.1300439E+00
        -11   -1    0    0    0    0  0.00000000000E+00  0.00000000000E+00  0.45593999997E+02  0.45594000000E+02  0.51100000000E-03 0.  1.
         11   -1    0    0    0    0 -0.00000000000E+00 -0.00000000000E+00 -0.45593999997E+02  0.45594000000E+02  0.51100000000E-03 0. -1.
    9900012    2    1    2    0    0  0.76880928622E+01  0.27578788612E+02  0.28869876840E+02  0.50528854142E+02  0.29999982649E+02 0.  0.
         12    1    1    2    0    0 -0.76880928622E+01 -0.27578788612E+02 -0.28869876840E+02  0.40659145858E+02  0.00000000000E+00 0. -1.
         11    1    3    3    0    0 -0.40029566808E+01  0.10636777184E+02  0.12440007630E+01  0.11432944905E+02  0.51100000000E-03 0. -1.
        -11    1    3    3    0    0 -0.41308023172E+01  0.22818008202E+01  0.10644772389E+02  0.11643939292E+02  0.51100000000E-03 0.  1.
        -12    1    3    3    0    0  0.15821851860E+02  0.14660210608E+02  0.16981103688E+02  0.27451969944E+02  0.00000000000E+00 0.  1.
</event>
<event>
 7    1  0.4739220E-011  0.5052886E+02  0.7816164E-02  0.1300439E+00
        -11   -1    0    0    0    0  0.00000000000E+00  0.00000000000E+00  0.45593999997E+02  0.45594000000E+02  0.51100000000E-03 0. -1.
         11   -1    0    0    0    0 -0.00000000000E+00 -0.00000000000E+00 -0.45593999997E+02  0.45594000000E+02  0.51100000000E-03 0.  1.
    9900012    2    1    2    0    0  0.85905368394E+01 -0.25052802056E+02 -0.30850044939E+02  0.50528862198E+02  0.30000007137E+02 0.  0.
         12    1    1    2    0    0 -0.85905368394E+01  0.25052802056E+02  0.30850044939E+02  0.40659137802E+02  0.00000000000E+00 0. -1.
         11    1    3    3    0    0  0.50015633647E+01 -0.80546043187E+01  0.19164118872E+01  0.96728962366E+01  0.51100000000E-03 0. -1.
        -11    1    3    3    0    0  0.95040868474E+01 -0.44717385960E+01 -0.15406799184E+02  0.18646543224E+02  0.51100000000E-03 0.  1.
        -12    1    3    3    0    0 -0.59151133727E+01 -0.12526459141E+02 -0.17359657643E+02  0.22209422737E+02  0.00000000000E+00 0.  1.
</event>
<event>
 7    1  0.2969156E-011  0.5052885E+02  0.7816164E-02  0.1300439E+00
        -11   -1    0    0    0    0  0.00000000000E+00  0.00000000000E+00  0.45593999997E+02  0.45594000000E+02  0.51100000000E-03 0. -1.
         11   -1    0    0    0    0 -0.00000000000E+00 -0.00000000000E+00 -0.45593999997E+02  0.45594000000E+02  0.51100000000E-03 0.  1.
    9900012    2    1    2    0    0 -0.20387420143E+02  0.10965722561E+02 -0.33425629119E+02  0.50528847852E+02  0.29999963531E+02 0.  0.
         12    1    1    2    0    0  0.20387420143E+02 -0.10965722561E+02  0.33425629119E+02  0.40659152148E+02  0.00000000000E+00 0. -1.
         11    1    3    3    0    0  0.51822958251E+01  0.15725961884E+01 -0.69563832608E+01  0.88159240652E+01  0.51100000000E-03 0. -1.
        -11    1    3    3    0    0 -0.57249453883E+01 -0.46114612136E+01 -0.98154343867E+01  0.12263087975E+02  0.51100000000E-03 0.  1.
         12    1    3    3    0    0 -0.19844770579E+02  0.14004587586E+02 -0.16653811472E+02  0.29449835812E+02  0.00000000000E+00 0. -1.
</event>
<event>
 7    1  0.2969156E-011  0.5052886E+02  0.7816164E-02  0.1300439E+00
        -11   -1    0    0    0    0  0.00000000000E+00  0.00000000000E+00  0.45593999997E+02  0.45594000000E+02  0.51100000000E-03 0.  1.
         11   -1    0    0    0    0 -0.00000000000E+00 -0.00000000000E+00 -0.45593999997E+02  0.45594000000E+02  0.51100000000E-03 0. -1.
    9900012    2    1    2    0    0 -0.10112993117E+01  0.52179529610E+01  0.40310243395E+02  0.50528862258E+02  0.30000007319E+02 0.  0.
         12    1    1    2    0    0  0.10112993117E+01 -0.52179529610E+01 -0.40310243395E+02  0.40659137742E+02  0.00000000000E+00 0. -1.
         11    1    3    3    0    0 -0.35094175174E+01 -0.43667216361E+01 -0.38764778343E+00  0.56155623248E+01  0.51100000000E-03 0. -1.
        -11    1    3    3    0    0  0.60060194792E+01  0.88369398187E+01  0.12312452585E+02  0.16302155203E+02  0.51100000000E-03 0.  1.
        -12    1    3    3    0    0 -0.35079012735E+01  0.74773477835E+00  0.28385438593E+02  0.28611144730E+02  0.00000000000E+00 0.  1.
</event>
<event>
 7    1  0.2969156E-011  0.5052888E+02  0.7816164E-02  0.1300439E+00
        -11   -1    0    0    0    0  0.00000000000E+00  0.00000000000E+00  0.45593999997E+02  0.45594000000E+02  0.51100000000E-03 0.  1.
         11   -1    0    0    0    0 -0.00000000000E+00 -0.00000000000E+00 -0.45593999997E+02  0.45594000000E+02  0.51100000000E-03 0. -1.
    9900012    2    1    2    0    0 -0.31255772081E+02  0.59232903246E+00  0.25997889130E+02  0.50528875794E+02  0.30000048462E+02 0.  0.
         12    1    1    2    0    0  0.31255772081E+02 -0.59232903246E+00 -0.25997889130E+02  0.40659124206E+02  0.00000000000E+00 0. -1.
         11    1    3    3    0    0 -0.76875718309E+01 -0.29261751993E+01 -0.23278449621E+01  0.85486913841E+01  0.51100000000E-03 0. -1.
        -11    1    3    3    0    0  0.75234561253E+00 -0.49992475462E+01  0.63233731466E+01  0.80958969955E+01  0.51100000000E-03 0.  1.
        -12    1    3    3    0    0 -0.24320545862E+02  0.85177517780E+01  0.22002360945E+02  0.33884287414E+02  0.00000000000E+00 0.  1.
</event>
<event>
 7    1  0.2969156E-011  0.5052898E+02  0.7816164E-02  0.1300438E+00
        -11   -1    0    0    0    0  0.00000000000E+00  0.00000000000E+00  0.45593999997E+02  0.45594000000E+02  0.51100000000E-03 0. -1.
         11   -1    0    0    0    0 -0.00000000000E+00 -0.00000000000E+00 -0.45593999997E+02  0.45594000000E+02  0.51100000000E-03 0.  1.
    9900012    2    1    2    0    0 -0.23134342069E+02 -0.33293969997E+02  0.30772246288E+01  0.50528984609E+02  0.30000379215E+02 0.  0.
         12    1    1    2    0    0  0.23134342069E+02  0.33293969997E+02 -0.30772246288E+01  0.40659015391E+02  0.00000000000E+00 0. -1.
         11    1    3    3    0    0 -0.27542001754E+01 -0.23313548952E+02  0.23477209113E+01  0.23592773832E+02  0.51100000000E-03 0. -1.
        -11    1    3    3    0    0 -0.14383151025E+02 -0.12810381773E+02 -0.27357695414E+01  0.19454185920E+02  0.51100000000E-03 0.  1.
        -12    1    3    3    0    0 -0.59969908689E+01  0.28299607275E+01  0.34652732589E+01  0.74820248570E+01  0.00000000000E+00 0.  1.
</event>
<event>
 7    1  0.2969156E-011  0.5052885E+02  0.7816164E-02  0.1300439E+00
        -11   -1    0    0    0    0  0.00000000000E+00  0.00000000000E+00  0.45593999997E+02  0.45594000000E+02  0.51100000000E-03 0.  1.
         11   -1    0    0    0    0 -0.00000000000E+00 -0.00000000000E+00 -0.45593999997E+02  0.45594000000E+02  0.51100000000E-03 0. -1.
    9900012    2    1    2    0    0  0.87235899953E+01 -0.35349185575E+02  0.18096979061E+02  0.50528848578E+02  0.29999965738E+02 0.  0.
         12    1    1    2    0    0 -0.87235899953E+01  0.35349185575E+02 -0.18096979061E+02  0.40659151422E+02  0.00000000000E+00 0. -1.
         11    1    3    3    0    0 -0.93932792598E+00 -0.72646676115E+01 -0.24744828214E+01  0.77318043142E+01  0.51100000000E-03 0. -1.
        -11    1    3    3    0    0  0.26280724573E+01  0.35644932485E+01  0.54047503784E-01  0.44289161601E+01  0.51100000000E-03 0.  1.
        -12    1    3    3    0    0  0.70348454640E+01 -0.31649011212E+02  0.20517414378E+02  0.38368128104E+02  0.00000000000E+00 0.  1.
</event>
<event>
 7    1  0.2969156E-011  0.5052892E+02  0.7816164E-02  0.1300439E+00
        -11   -1    0    0    0    0  0.00000000000E+00  0.00000000000E+00  0.45593999997E+02  0.45594000000E+02  0.51100000000E-03 0. -1.
         11   -1    0    0    0    0 -0.00000000000E+00 -0.00000000000E+00 -0.45593999997E+02  0.45594000000E+02  0.51100000000E-03 0.  1.
    9900012    2    1    2    0    0  0.27316798352E+02 -0.46679455985E+00 -0.30112044386E+02  0.50528922459E+02  0.30000190306E+02 0.  0.
         12    1    1    2    0    0 -0.27316798352E+02  0.46679455985E+00  0.30112044386E+02  0.40659077541E+02  0.00000000000E+00 0. -1.
         11    1    3    3    0    0  0.11089127113E+00  0.29991914547E+01  0.10883713146E+01  0.31924909766E+01  0.51100000000E-03 0. -1.
        -11    1    3    3    0    0  0.17995616243E+01  0.46282402102E+01 -0.15760419321E+02  0.16524220009E+02  0.51100000000E-03 0.  1.
        -12    1    3    3    0    0  0.25406345457E+02 -0.80942262248E+01 -0.15439996379E+02  0.30812211473E+02  0.00000000000E+00 0.  1.
</event>
<event>
 7    1  0.2969156E-011  0.5052887E+02  0.7816164E-02  0.1300439E+00
        -11   -1    0    0    0    0  0.00000000000E+00  0.00000000000E+00  0.45593999997E+02  0.45594000000E+02  0.51100000000E-03 0.  1.
         11   -1    0    0    0    0 -0.00000000000E+00 -0.00000000000E+00 -0.45593999997E+02  0.45594000000E+02  0.51100000000E-03 0. -1.
    9900012    2    1    2    0    0 -0.29033351731E+02  0.10072765325E+02  0.26622714349E+02  0.50528867774E+02  0.30000024086E+02 0.  0.
         12    1    1    2    0    0  0.29033351731E+02 -0.10072765325E+02 -0.26622714349E+02  0.40659132226E+02  0.00000000000E+00 0. -1.
         11    1    3    3    0    0 -0.91863650001E+01  0.16672302384E+02  0.99703700411E+01  0.21488677198E+02  0.51100000000E-03 0. -1.
        -11    1    3    3    0    0  0.11315352456E+01  0.66053966053E+00  0.35569062166E-01  0.13107059451E+01  0.51100000000E-03 0.  1.
        -12    1    3    3    0    0 -0.20978521977E+02 -0.72600767196E+01  0.16616775246E+02  0.27729484631E+02  0.00000000000E+00 0.  1.
</event>
<event>
 7    1  0.2969156E-011  0.5052879E+02  0.7816164E-02  0.1300439E+00
        -11   -1    0    0    0    0  0.00000000000E+00  0.00000000000E+00  0.45593999997E+02  0.45594000000E+02  0.51100000000E-03 0. -1.
         11   -1    0    0    0    0 -0.00000000000E+00 -0.00000000000E+00 -0.45593999997E+02  0.45594000000E+02  0.51100000000E-03 0.  1.
    9900012    2    1    2    0    0 -0.37273771258E+02 -0.15886847271E+02  0.33831458339E+01  0.50528786829E+02  0.29999778044E+02 0.  0.
         12    1    1    2    0    0  0.37273771258E+02  0.15886847271E+02 -0.33831458339E+01  0.40659213171E+02  0.00000000000E+00 0. -1.
         11    1    3    3    0    0 -0.11621182426E+02 -0.43982452731E+01 -0.56677236599E+00  0.12438555930E+02  0.51100000000E-03 0. -1.
        -11    1    3    3    0    0 -0.18612462937E+02 -0.12849707615E+02 -0.81370000493E+01  0.24036420957E+02  0.51100000000E-03 0.  1.
         12    1    3    3    0    0 -0.70401258950E+01  0.13611056170E+01  0.12086918249E+02  0.14053809942E+02  0.00000000000E+00 0. -1.
</event>
<event>
 7    1  0.2969156E-011  0.5052887E+02  0.7816164E-02  0.1300439E+00
        -11   -1    0    0    0    0  0.00000000000E+00  0.00000000000E+00  0.45593999997E+02  0.45594000000E+02  0.51100000000E-03 0.  1.
         11   -1    0    0    0    0 -0.00000000000E+00 -0.00000000000E+00 -0.45593999997E+02  0.45594000000E+02  0.51100000000E-03 0. -1.
    9900012    2    1    2    0    0 -0.33304814788E+01  0.29688932810E+02  0.27579708653E+02  0.50528866123E+02  0.30000019067E+02 0.  0.
         12    1    1    2    0    0  0.33304814788E+01 -0.29688932810E+02 -0.27579708653E+02  0.40659133877E+02  0.00000000000E+00 0. -1.
         11    1    3    3    0    0  0.18616044010E+01  0.12867767074E+02  0.13219376338E+02  0.18541761282E+02  0.51100000000E-03 0. -1.
        -11    1    3    3    0    0 -0.88948106385E+01  0.12165102330E+02  0.19136597629E+02  0.24358093933E+02  0.51100000000E-03 0.  1.
         12    1    3    3    0    0  0.37027247587E+01  0.46560634052E+01 -0.47762653139E+01  0.76290109071E+01  0.00000000000E+00 0. -1.
</event>
<event>
 7    1  0.2969156E-011  0.5052886E+02  0.7816164E-02  0.1300439E+00
        -11   -1    0    0    0    0  0.00000000000E+00  0.00000000000E+00  0.45593999997E+02  0.45594000000E+02  0.51100000000E-03 0.  1.
         11   -1    0    0    0    0 -0.00000000000E+00 -0.00000000000E+00 -0.45593999997E+02  0.45594000000E+02  0.51100000000E-03 0. -1.
    9900012    2    1    2    0    0 -0.37619055843E+02 -0.52164637594E+01  0.14517603518E+02  0.50528859963E+02  0.30000000342E+02 0.  0.
         12    1    1    2    0    0  0.37619055843E+02  0.52164637594E+01 -0.14517603518E+02  0.40659140037E+02  0.00000000000E+00 0. -1.
         11    1    3    3    0    0 -0.38746500227E+01  0.86606810270E+01 -0.39788781273E+00  0.94962426055E+01  0.51100000000E-03 0. -1.
        -11    1    3    3    0    0 -0.72070799260E+01 -0.60348547959E+01 -0.39351078428E+00  0.94083114567E+01  0.51100000000E-03 0.  1.
        -12    1    3    3    0    0 -0.26537325894E+02 -0.78422899905E+01  0.15309002115E+02  0.31624305900E+02  0.00000000000E+00 0.  1.
</event>
<event>
 7    1  0.2969156E-011  0.5052885E+02  0.7816164E-02  0.1300439E+00
        -11   -1    0    0    0    0  0.00000000000E+00  0.00000000000E+00  0.45593999997E+02  0.45594000000E+02  0.51100000000E-03 0.  1.
         11   -1    0    0    0    0 -0.00000000000E+00 -0.00000000000E+00 -0.45593999997E+02  0.45594000000E+02  0.51100000000E-03 0. -1.
    9900012    2    1    2    0    0  0.21940754749E+01  0.48459988683E+01  0.40309656924E+02  0.50528854491E+02  0.29999983710E+02 0.  0.
         12    1    1    2    0    0 -0.21940754749E+01 -0.48459988683E+01 -0.40309656924E+02  0.40659145509E+02  0.00000000000E+00 0. -1.
         11    1    3    3    0    0 -0.75094704767E+01  0.51629094785E+01  0.51299070902E+01  0.10457711420E+02  0.51100000000E-03 0. -1.
        -11    1    3    3    0    0 -0.46478237959E+01 -0.10973727123E+01  0.77273611143E+01  0.90839750638E+01  0.51100000000E-03 0.  1.
         12    1    3    3    0    0  0.14351369747E+02  0.78046210215E+00  0.27452388719E+02  0.30987168007E+02  0.00000000000E+00 0. -1.
</event>
<event>
 7    1  0.2969156E-011  0.5052886E+02  0.7816164E-02  0.1300439E+00
        -11   -1    0    0    0    0  0.00000000000E+00  0.00000000000E+00  0.45593999997E+02  0.45594000000E+02  0.51100000000E-03 0. -1.
         11   -1    0    0    0    0 -0.00000000000E+00 -0.00000000000E+00 -0.45593999997E+02  0.45594000000E+02  0.51100000000E-03 0.  1.
    9900012    2    1    2    0    0  0.14952969555E+02 -0.15969958875E+02 -0.34271484978E+02  0.50528861205E+02  0.30000004118E+02 0.  0.
         12    1    1    2    0    0 -0.14952969555E+02  0.15969958875E+02  0.34271484978E+02  0.40659138795E+02  0.00000000000E+00 0. -1.
         11    1    3    3    0    0 -0.14524518523E+01  0.18918937099E+01 -0.70929795576E+01  0.74832638239E+01  0.51100000000E-03 0.  1.
        -11    1    3    3    0    0  0.14805807552E+02 -0.21279197064E+02 -0.14258348520E+02  0.29585751093E+02  0.51100000000E-03 0. -1.
         12    1    3    3    0    0  0.15996138557E+01  0.34173444788E+01 -0.12920156900E+02  0.13459846288E+02  0.00000000000E+00 0. -1.
</event>
<event>
 7    1  0.2969156E-011  0.5052886E+02  0.7816164E-02  0.1300439E+00
        -11   -1    0    0    0    0  0.00000000000E+00  0.00000000000E+00  0.45593999997E+02  0.45594000000E+02  0.51100000000E-03 0.  1.
         11   -1    0    0    0    0 -0.00000000000E+00 -0.00000000000E+00 -0.45593999997E+02  0.45594000000E+02  0.51100000000E-03 0. -1.
    9900012    2    1    2    0    0  0.63030137990E+01 -0.39780719054E+02 -0.55616915676E+01  0.50528855832E+02  0.29999987786E+02 0.  0.
         12    1    1    2    0    0 -0.63030137990E+01  0.39780719054E+02  0.55616915676E+01  0.40659144168E+02  0.00000000000E+00 0. -1.
         11    1    3    3    0    0 -0.12707972486E+01 -0.55006065050E+01 -0.10728156205E+02  0.12122909444E+02  0.51100000000E-03 0. -1.
        -11    1    3    3    0    0  0.66885592747E+01 -0.10559217320E+02 -0.37490122804E+01  0.13049482324E+02  0.51100000000E-03 0.  1.
        -12    1    3    3    0    0  0.88525177291E+00 -0.23720895229E+02  0.89154769174E+01  0.25356464064E+02  0.00000000000E+00 0.  1.
</event>
<event>
 7    1  0.2969156E-011  0.5052886E+02  0.7816164E-02  0.1300439E+00
        -11   -1    0    0    0    0  0.00000000000E+00  0.00000000000E+00  0.45593999997E+02  0.45594000000E+02  0.51100000000E-03 0.  1.
         11   -1    0    0    0    0 -0.00000000000E+00 -0.00000000000E+00 -0.45593999997E+02  0.45594000000E+02  0.51100000000E-03 0. -1.
    9900012    2    1    2    0    0 -0.23996394426E+01 -0.13036230305E+02  0.38437796666E+02  0.50528858561E+02  0.29999996083E+02 0.  0.
         12    1    1    2    0    0  0.23996394426E+01  0.13036230305E+02 -0.38437796666E+02  0.40659141439E+02  0.00000000000E+00 0. -1.
         11    1    3    3    0    0 -0.24214411518E+01 -0.64976083210E+00 -0.27722272346E+01  0.37377547394E+01  0.51100000000E-03 0. -1.
        -11    1    3    3    0    0 -0.79799768405E+01 -0.27387543202E+01  0.95653829382E+01  0.12754503386E+02  0.51100000000E-03 0.  1.
        -12    1    3    3    0    0  0.80017785497E+01 -0.96477151529E+01  0.31644640962E+02  0.34036600436E+02  0.00000000000E+00 0.  1.
</event>
<event>
 7    1  0.2969156E-011  0.5052885E+02  0.7816164E-02  0.1300439E+00
        -11   -1    0    0    0    0  0.00000000000E+00  0.00000000000E+00  0.45593999997E+02  0.45594000000E+02  0.51100000000E-03 0. -1.
         11   -1    0    0    0    0 -0.00000000000E+00 -0.00000000000E+00 -0.45593999997E+02  0.45594000000E+02  0.51100000000E-03 0.  1.
    9900012    2    1    2    0    0 -0.37435517024E+01 -0.95344363200E+01 -0.39347770235E+02  0.50528847552E+02  0.29999962620E+02 0.  0.
         12    1    1    2    0    0  0.37435517024E+01  0.95344363200E+01  0.39347770235E+02  0.40659152448E+02  0.00000000000E+00 0. -1.
         11    1    3    3    0    0  0.20328064395E+01 -0.15434941807E+02 -0.79746057043E+01  0.17491828578E+02  0.51100000000E-03 0.  1.
        -11    1    3    3    0    0  0.74478863279E+00  0.16715388531E+00 -0.90875401204E+01  0.91195414485E+01  0.51100000000E-03 0. -1.
        -12    1    3    3    0    0 -0.65211467747E+01  0.57333516016E+01 -0.22285624410E+02  0.23917477526E+02  0.00000000000E+00 0.  1.
</event>
<event>
 7    1  0.2969156E-011  0.5052886E+02  0.7816164E-02  0.1300439E+00
        -11   -1    0    0    0    0  0.00000000000E+00  0.00000000000E+00  0.45593999997E+02  0.45594000000E+02  0.51100000000E-03 0.  1.
         11   -1    0    0    0    0 -0.00000000000E+00 -0.00000000000E+00 -0.45593999997E+02  0.45594000000E+02  0.51100000000E-03 0. -1.
    9900012    2    1    2    0    0 -0.14771614339E+02 -0.25760402931E+02  0.27773485269E+02  0.50528862856E+02  0.30000009136E+02 0.  0.
         12    1    1    2    0    0  0.14771614339E+02  0.25760402931E+02 -0.27773485269E+02  0.40659137144E+02  0.00000000000E+00 0. -1.
         11    1    3    3    0    0 -0.62037282852E+01  0.32097705436E+01  0.79433168886E+00  0.70299242295E+01  0.51100000000E-03 0. -1.
        -11    1    3    3    0    0 -0.11960999577E+01 -0.22076954276E+01  0.11386822629E+02  0.11660373239E+02  0.51100000000E-03 0.  1.
         12    1    3    3    0    0 -0.73717860962E+01 -0.26762478047E+02  0.15592330950E+02  0.31838565388E+02  0.00000000000E+00 0. -1.
</event>
<event>
 7    1  0.2969156E-011  0.5052885E+02  0.7816164E-02  0.1300439E+00
        -11   -1    0    0    0    0  0.00000000000E+00  0.00000000000E+00  0.45593999997E+02  0.45594000000E+02  0.51100000000E-03 0.  1.
         11   -1    0    0    0    0 -0.00000000000E+00 -0.00000000000E+00 -0.45593999997E+02  0.45594000000E+02  0.51100000000E-03 0. -1.
    9900012    2    1    2    0    0  0.18636746644E+02 -0.17363418771E+02  0.31691480594E+02  0.50528848766E+02  0.29999966309E+02 0.  0.
         12    1    1    2    0    0 -0.18636746644E+02  0.17363418771E+02 -0.31691480594E+02  0.40659151234E+02  0.00000000000E+00 0. -1.
         11    1    3    3    0    0 -0.45831525899E+01 -0.59764866149E+00 -0.21964053912E+01  0.51172911280E+01  0.51100000000E-03 0. -1.
        -11    1    3    3    0    0  0.17924812822E+02 -0.13056160124E+02  0.19081482346E+02  0.29255173913E+02  0.51100000000E-03 0.  1.
        -12    1    3    3    0    0  0.52950864111E+01 -0.37096099850E+01  0.14806403639E+02  0.16156383725E+02  0.00000000000E+00 0.  1.
</event>
<event>
 7    1  0.2969156E-011  0.5052886E+02  0.7816164E-02  0.1300439E+00
        -11   -1    0    0    0    0  0.00000000000E+00  0.00000000000E+00  0.45593999997E+02  0.45594000000E+02  0.51100000000E-03 0.  1.
         11   -1    0    0    0    0 -0.00000000000E+00 -0.00000000000E+00 -0.45593999997E+02  0.45594000000E+02  0.51100000000E-03 0. -1.
    9900012    2    1    2    0    0  0.70922120727E+00  0.44099415631E+01  0.40413057903E+02  0.50528857998E+02  0.29999994370E+02 0.  0.
         12    1    1    2    0    0 -0.70922120727E+00 -0.44099415631E+01 -0.40413057903E+02  0.40659142002E+02  0.00000000000E+00 0. -1.
         11    1    3    3    0    0  0.29299321502E+01 -0.23561244619E+01  0.18941918133E+01  0.42099629181E+01  0.51100000000E-03 0. -1.
        -11    1    3    3    0    0 -0.77562019798E+01  0.18221921767E+01  0.94984615899E+00  0.80237934587E+01  0.51100000000E-03 0.  1.
        -12    1    3    3    0    0  0.55354910368E+01  0.49438738482E+01  0.37569019930E+02  0.38295101621E+02  0.00000000000E+00 0.  1.
</event>
<event>
 7    1  0.2969156E-011  0.5052886E+02  0.7816164E-02  0.1300439E+00
        -11   -1    0    0    0    0  0.00000000000E+00  0.00000000000E+00  0.45593999997E+02  0.45594000000E+02  0.51100000000E-03 0. -1.
         11   -1    0    0    0    0 -0.00000000000E+00 -0.00000000000E+00 -0.45593999997E+02  0.45594000000E+02  0.51100000000E-03 0.  1.
    9900012    2    1    2    0    0 -0.16130918289E+01 -0.14651359578E+02 -0.37893287158E+02  0.50528860629E+02  0.30000002369E+02 0.  0.
         12    1    1    2    0    0  0.16130918289E+01  0.14651359578E+02  0.37893287158E+02  0.40659139371E+02  0.00000000000E+00 0. -1.
         11    1    3    3    0    0 -0.47208611088E+01 -0.13535314936E+02 -0.17530773181E+02  0.22645513653E+02  0.51100000000E-03 0. -1.
        -11    1    3    3    0    0 -0.68806477773E+01 -0.46232048668E+01 -0.10824583258E+02  0.13634109434E+02  0.51100000000E-03 0.  1.
         12    1    3    3    0    0  0.99884170571E+01  0.35071602251E+01 -0.95379307185E+01  0.14249237543E+02  0.00000000000E+00 0. -1.
</event>
<event>
 7    1  0.2969156E-011  0.5052886E+02  0.7816164E-02  0.1300439E+00
        -11   -1    0    0    0    0  0.00000000000E+00  0.00000000000E+00  0.45593999997E+02  0.45594000000E+02  0.51100000000E-03 0. -1.
         11   -1    0    0    0    0 -0.00000000000E+00 -0.00000000000E+00 -0.45593999997E+02  0.45594000000E+02  0.51100000000E-03 0.  1.
    9900012    2    1    2    0    0 -0.12546326629E+01  0.15758423299E+02 -0.37460163248E+02  0.50528857872E+02  0.29999993989E+02 0.  0.
         12    1    1    2    0    0  0.12546326629E+01 -0.15758423299E+02  0.37460163248E+02  0.40659142128E+02  0.00000000000E+00 0. -1.
         11    1    3    3    0    0  0.20691017608E+01 -0.42785108213E+01 -0.13641966997E+01  0.49444787229E+01  0.51100000000E-03 0. -1.
        -11    1    3    3    0    0  0.38473252863E+01  0.99932890732E-01 -0.15737038877E+02  0.16200811440E+02  0.51100000000E-03 0.  1.
        -12    1    3    3    0    0 -0.71710597100E+01  0.19937001230E+02 -0.20358927671E+02  0.29383567709E+02  0.00000000000E+00 0.  1.
</event>
<event>
 7    1  0.2969156E-011  0.5052885E+02  0.7816164E-02  0.1300439E+00
        -11   -1    0    0    0    0  0.00000000000E+00  0.00000000000E+00  0.45593999997E+02  0.45594000000E+02  0.51100000000E-03 0. -1.
         11   -1    0    0    0    0 -0.00000000000E+00 -0.00000000000E+00 -0.45593999997E+02  0.45594000000E+02  0.51100000000E-03 0.  1.
    9900012    2    1    2    0    0  0.29897721589E+02 -0.26102018947E+02 -0.88304693290E+01  0.50528851732E+02  0.29999975324E+02 0.  0.
         12    1    1    2    0    0 -0.29897721589E+02  0.26102018947E+02  0.88304693290E+01  0.40659148268E+02  0.00000000000E+00 0. -1.
         11    1    3    3    0    0 -0.44927810301E-01 -0.29807716921E+01 -0.88775708140E+01  0.93647360992E+01  0.51100000000E-03 0. -1.
        -11    1    3    3    0    0  0.78792133950E+01  0.13710330816E+01  0.16278870193E+01  0.81616022841E+01  0.51100000000E-03 0.  1.
        -12    1    3    3    0    0  0.22063436005E+02 -0.24492280336E+02 -0.15807855342E+01  0.33002513348E+02  0.00000000000E+00 0.  1.
</event>
<event>
 7    1  0.2969156E-011  0.5052886E+02  0.7816164E-02  0.1300439E+00
        -11   -1    0    0    0    0  0.00000000000E+00  0.00000000000E+00  0.45593999997E+02  0.45594000000E+02  0.51100000000E-03 0.  1.
         11   -1    0    0    0    0 -0.00000000000E+00 -0.00000000000E+00 -0.45593999997E+02  0.45594000000E+02  0.51100000000E-03 0. -1.
    9900012    2    1    2    0    0 -0.21186187422E+02 -0.53081553844E+01  0.34294817457E+02  0.50528861353E+02  0.30000004570E+02 0.  0.
         12    1    1    2    0    0  0.21186187422E+02  0.53081553844E+01 -0.34294817457E+02  0.40659138647E+02  0.00000000000E+00 0. -1.
         11    1    3    3    0    0 -0.11575312471E+02  0.15291317296E+01  0.11222071046E+02  0.16194473795E+02  0.51100000000E-03 0. -1.
        -11    1    3    3    0    0 -0.14435916718E+02  0.12672872259E+01  0.79980701129E+01  0.16552064348E+02  0.51100000000E-03 0.  1.
        -12    1    3    3    0    0  0.48250417669E+01 -0.81045743399E+01  0.15074676298E+02  0.17782323210E+02  0.00000000000E+00 0.  1.
</event>
<event>
 7    1  0.3403508E-011  0.5052886E+02  0.7816164E-02  0.1300439E+00
        -11   -1    0    0    0    0  0.00000000000E+00  0.00000000000E+00  0.45593999997E+02  0.45594000000E+02  0.51100000000E-03 0.  1.
         11   -1    0    0    0    0 -0.00000000000E+00 -0.00000000000E+00 -0.45593999997E+02  0.45594000000E+02  0.51100000000E-03 0. -1.
    9900012    2    1    2    0    0 -0.19788020322E+02 -0.22647090762E+02  0.27362549932E+02  0.50528860719E+02  0.30000002642E+02 0.  0.
         12    1    1    2    0    0  0.19788020322E+02  0.22647090762E+02 -0.27362549932E+02  0.40659139281E+02  0.00000000000E+00 0. -1.
         11    1    3    3    0    0  0.28639428975E+00 -0.69956539762E+01 -0.29535198742E+01  0.75989786256E+01  0.51100000000E-03 0. -1.
        -11    1    3    3    0    0 -0.12273573054E+02 -0.58553602475E+01  0.46499617418E+01  0.14371777329E+02  0.51100000000E-03 0.  1.
        -12    1    3    3    0    0 -0.78008415584E+01 -0.97960765386E+01  0.25666108064E+02  0.28558104765E+02  0.00000000000E+00 0.  1.
</event>
<event>
 7    1  0.2969156E-011  0.5052889E+02  0.7816164E-02  0.1300439E+00
        -11   -1    0    0    0    0  0.00000000000E+00  0.00000000000E+00  0.45593999997E+02  0.45594000000E+02  0.51100000000E-03 0.  1.
         11   -1    0    0    0    0 -0.00000000000E+00 -0.00000000000E+00 -0.45593999997E+02  0.45594000000E+02  0.51100000000E-03 0. -1.
    9900012    2    1    2    0    0 -0.18747264285E+02  0.36076461154E+02  0.43872795541E+00  0.50528887248E+02  0.30000083280E+02 0.  0.
         12    1    1    2    0    0  0.18747264285E+02 -0.36076461154E+02 -0.43872795541E+00  0.40659112752E+02  0.00000000000E+00 0. -1.
         11    1    3    3    0    0  0.55602817545E+00  0.10289601066E+02 -0.23605991438E+01  0.10571541326E+02  0.51100000000E-03 0. -1.
        -11    1    3    3    0    0 -0.14415499703E+02  0.16009756292E+02 -0.94631665484E+01  0.23530202923E+02  0.51100000000E-03 0.  1.
        -12    1    3    3    0    0 -0.48877927574E+01  0.97771037962E+01  0.12262493648E+02  0.16427143000E+02  0.00000000000E+00 0.  1.
</event>
<event>
 7    1  0.2969156E-011  0.5052885E+02  0.7816164E-02  0.1300439E+00
        -11   -1    0    0    0    0  0.00000000000E+00  0.00000000000E+00  0.45593999997E+02  0.45594000000E+02  0.51100000000E-03 0.  1.
         11   -1    0    0    0    0 -0.00000000000E+00 -0.00000000000E+00 -0.45593999997E+02  0.45594000000E+02  0.51100000000E-03 0. -1.
    9900012    2    1    2    0    0 -0.26770814687E+02  0.29909742494E+02  0.64727837224E+01  0.50528854114E+02  0.29999982565E+02 0.  0.
         12    1    1    2    0    0  0.26770814687E+02 -0.29909742494E+02 -0.64727837224E+01  0.40659145886E+02  0.00000000000E+00 0. -1.
         11    1    3    3    0    0 -0.21661879075E+02  0.18095038832E+02  0.86890010316E+00  0.28238668931E+02  0.51100000000E-03 0.  1.
        -11    1    3    3    0    0 -0.18781301168E+01  0.82392766804E+01 -0.55702134226E+01  0.10121281084E+02  0.51100000000E-03 0. -1.
        -12    1    3    3    0    0 -0.32308054951E+01  0.35754269826E+01  0.11174097042E+02  0.12168904098E+02  0.00000000000E+00 0.  1.
</event>
<event>
 7    1  0.2969156E-011  0.5052885E+02  0.7816164E-02  0.1300439E+00
        -11   -1    0    0    0    0  0.00000000000E+00  0.00000000000E+00  0.45593999997E+02  0.45594000000E+02  0.51100000000E-03 0. -1.
         11   -1    0    0    0    0 -0.00000000000E+00 -0.00000000000E+00 -0.45593999997E+02  0.45594000000E+02  0.51100000000E-03 0.  1.
    9900012    2    1    2    0    0  0.34637055100E+02 -0.13756336369E+02 -0.16254361122E+02  0.50528848118E+02  0.29999964339E+02 0.  0.
         12    1    1    2    0    0 -0.34637055100E+02  0.13756336369E+02  0.16254361122E+02  0.40659151882E+02  0.00000000000E+00 0. -1.
         11    1    3    3    0    0  0.32631494618E+01  0.20382918291E+01 -0.11274448214E+02  0.11912848558E+02  0.51100000000E-03 0. -1.
        -11    1    3    3    0    0  0.15095094545E+02 -0.97161132865E+01 -0.99733282500E+01  0.20536114856E+02  0.51100000000E-03 0.  1.
         12    1    3    3    0    0  0.16278811093E+02 -0.60785149117E+01  0.49934153421E+01  0.18079884704E+02  0.00000000000E+00 0. -1.
</event>
<event>
 7    1  0.2969156E-011  0.5052886E+02  0.7816164E-02  0.1300439E+00
        -11   -1    0    0    0    0  0.00000000000E+00  0.00000000000E+00  0.45593999997E+02  0.45594000000E+02  0.51100000000E-03 0.  1.
         11   -1    0    0    0    0 -0.00000000000E+00 -0.00000000000E+00 -0.45593999997E+02  0.45594000000E+02  0.51100000000E-03 0. -1.
    9900012    2    1    2    0    0 -0.24569165673E+02 -0.19678881039E+00  0.32395729599E+02  0.50528856822E+02  0.29999990796E+02 0.  0.
         12    1    1    2    0    0  0.24569165673E+02  0.19678881039E+00 -0.32395729599E+02  0.40659143178E+02  0.00000000000E+00 0. -1.
         11    1    3    3    0    0  0.17363315451E+01 -0.33207373164E+01  0.78971721854E+01  0.87411367880E+01  0.51100000000E-03 0. -1.
        -11    1    3    3    0    0 -0.34220655307E+01  0.66763117644E+01  0.14973472610E+02  0.16747792498E+02  0.51100000000E-03 0.  1.
         12    1    3    3    0    0 -0.22883431688E+02 -0.35523632584E+01  0.95250848032E+01  0.25039927536E+02  0.00000000000E+00 0. -1.
</event>
<event>
 7    1  0.2969156E-011  0.5052886E+02  0.7816164E-02  0.1300439E+00
        -11   -1    0    0    0    0  0.00000000000E+00  0.00000000000E+00  0.45593999997E+02  0.45594000000E+02  0.51100000000E-03 0.  1.
         11   -1    0    0    0    0 -0.00000000000E+00 -0.00000000000E+00 -0.45593999997E+02  0.45594000000E+02  0.51100000000E-03 0. -1.
    9900012    2    1    2    0    0  0.64723244367E+01 -0.15112016209E+02  0.37187382241E+02  0.50528863075E+02  0.30000009803E+02 0.  0.
         12    1    1    2    0    0 -0.64723244367E+01  0.15112016209E+02 -0.37187382241E+02  0.40659136925E+02  0.00000000000E+00 0. -1.
         11    1    3    3    0    0  0.92284534267E+01 -0.93300805453E+01  0.13336309612E+02  0.18710208710E+02  0.51100000000E-03 0. -1.
        -11    1    3    3    0    0  0.76174815099E+01  0.14444567509E+01  0.13102327974E+02  0.15224436885E+02  0.51100000000E-03 0.  1.
        -12    1    3    3    0    0 -0.10373610500E+02 -0.72263924144E+01  0.10748744655E+02  0.16594217480E+02  0.00000000000E+00 0.  1.
</event>
<event>
 7    1  0.2969156E-011  0.5052890E+02  0.7816164E-02  0.1300439E+00
        -11   -1    0    0    0    0  0.00000000000E+00  0.00000000000E+00  0.45593999997E+02  0.45594000000E+02  0.51100000000E-03 0.  1.
         11   -1    0    0    0    0 -0.00000000000E+00 -0.00000000000E+00 -0.45593999997E+02  0.45594000000E+02  0.51100000000E-03 0. -1.
    9900012    2    1    2    0    0  0.30860370686E+02 -0.17539086210E+02  0.19828776541E+02  0.50528900120E+02  0.30000122403E+02 0.  0.
         12    1    1    2    0    0 -0.30860370686E+02  0.17539086210E+02 -0.19828776541E+02  0.40659099880E+02  0.00000000000E+00 0. -1.
         11    1    3    3    0    0  0.10710051475E+02 -0.12118275158E+02  0.28276378610E+01  0.16418079410E+02  0.51100000000E-03 0. -1.
        -11    1    3    3    0    0  0.21660884247E+02 -0.73259505634E+01  0.19910124156E+02  0.30319572922E+02  0.51100000000E-03 0.  1.
         12    1    3    3    0    0 -0.15105650354E+01  0.19051395107E+01 -0.29089854764E+01  0.37912477871E+01  0.00000000000E+00 0. -1.
</event>
<event>
 7    1  0.2969156E-011  0.5052886E+02  0.7816164E-02  0.1300439E+00
        -11   -1    0    0    0    0  0.00000000000E+00  0.00000000000E+00  0.45593999997E+02  0.45594000000E+02  0.51100000000E-03 0.  1.
         11   -1    0    0    0    0 -0.00000000000E+00 -0.00000000000E+00 -0.45593999997E+02  0.45594000000E+02  0.51100000000E-03 0. -1.
    9900012    2    1    2    0    0  0.37336932164E+02 -0.52793607535E+00 -0.16088509072E+02  0.50528863953E+02  0.30000012471E+02 0.  0.
         12    1    1    2    0    0 -0.37336932164E+02  0.52793607535E+00  0.16088509072E+02  0.40659136047E+02  0.00000000000E+00 0. -1.
         11    1    3    3    0    0  0.35620104233E+01 -0.25961102854E+01 -0.17468180625E+00  0.44111473410E+01  0.51100000000E-03 0. -1.
        -11    1    3    3    0    0  0.27895369850E+02  0.11428471869E+02 -0.49509748528E+01  0.30549529956E+02  0.51100000000E-03 0.  1.
        -12    1    3    3    0    0  0.58795518913E+01 -0.93602976587E+01 -0.10962852413E+02  0.15568186656E+02  0.00000000000E+00 0.  1.
</event>
<event>
 7    1  0.2969156E-011  0.5052886E+02  0.7816164E-02  0.1300439E+00
        -11   -1    0    0    0    0  0.00000000000E+00  0.00000000000E+00  0.45593999997E+02  0.45594000000E+02  0.51100000000E-03 0.  1.
         11   -1    0    0    0    0 -0.00000000000E+00 -0.00000000000E+00 -0.45593999997E+02  0.45594000000E+02  0.51100000000E-03 0. -1.
    9900012    2    1    2    0    0  0.12240074538E+01 -0.51958446294E+01  0.40307203700E+02  0.50528859997E+02  0.30000000448E+02 0.  0.
         12    1    1    2    0    0 -0.12240074538E+01  0.51958446294E+01 -0.40307203700E+02  0.40659140003E+02  0.00000000000E+00 0. -1.
         11    1    3    3    0    0 -0.21740604015E+01 -0.58769840473E+01  0.11897718488E+02  0.13446976820E+02  0.51100000000E-03 0.  1.
        -11    1    3    3    0    0 -0.64891848890E+01  0.71115100792E+01  0.21135480366E+02  0.23224806279E+02  0.51100000000E-03 0. -1.
         12    1    3    3    0    0  0.98872527442E+01 -0.64303706613E+01  0.72740048465E+01  0.13857076899E+02  0.00000000000E+00 0. -1.
</event>
<event>
 7    1  0.2969156E-011  0.5052886E+02  0.7816164E-02  0.1300439E+00
        -11   -1    0    0    0    0  0.00000000000E+00  0.00000000000E+00  0.45593999997E+02  0.45594000000E+02  0.51100000000E-03 0. -1.
         11   -1    0    0    0    0 -0.00000000000E+00 -0.00000000000E+00 -0.45593999997E+02  0.45594000000E+02  0.51100000000E-03 0.  1.
    9900012    2    1    2    0    0 -0.36353327196E+02  0.18206357853E+02  0.36012128497E+00  0.50528861398E+02  0.30000004705E+02 0.  0.
         12    1    1    2    0    0  0.36353327196E+02 -0.18206357853E+02 -0.36012128497E+00  0.40659138602E+02  0.00000000000E+00 0. -1.
         11    1    3    3    0    0 -0.31873937177E+02  0.14968078337E+02  0.46576413118E+01  0.35520203591E+02  0.51100000000E-03 0. -1.
        -11    1    3    3    0    0 -0.49524520619E+01  0.80657993364E+01 -0.21616024172E+01  0.97085748507E+01  0.51100000000E-03 0.  1.
         12    1    3    3    0    0  0.47306204309E+00 -0.48275198200E+01 -0.21359176097E+01  0.53000829564E+01  0.00000000000E+00 0. -1.
</event>
<event>
 7    1  0.2969156E-011  0.5052886E+02  0.7816164E-02  0.1300439E+00
        -11   -1    0    0    0    0  0.00000000000E+00  0.00000000000E+00  0.45593999997E+02  0.45594000000E+02  0.51100000000E-03 0.  1.
         11   -1    0    0    0    0 -0.00000000000E+00 -0.00000000000E+00 -0.45593999997E+02  0.45594000000E+02  0.51100000000E-03 0. -1.
    9900012    2    1    2    0    0 -0.70876097263E+01  0.38289176360E+02 -0.11699170578E+02  0.50528857976E+02  0.29999994303E+02 0.  0.
         12    1    1    2    0    0  0.70876097263E+01 -0.38289176360E+02  0.11699170578E+02  0.40659142024E+02  0.00000000000E+00 0. -1.
         11    1    3    3    0    0 -0.95534497134E+01  0.10932576867E+02 -0.34784163969E+01  0.14929468151E+02  0.51100000000E-03 0. -1.
        -11    1    3    3    0    0  0.17769633683E+01  0.30937089785E+02 -0.74977117223E+01  0.31882233368E+02  0.51100000000E-03 0.  1.
         12    1    3    3    0    0  0.68887661886E+00 -0.35804902922E+01 -0.72304245919E+00  0.37171564571E+01  0.00000000000E+00 0. -1.
</event>
<event>
 7    1  0.2969156E-011  0.5052886E+02  0.7816164E-02  0.1300439E+00
        -11   -1    0    0    0    0  0.00000000000E+00  0.00000000000E+00  0.45593999997E+02  0.45594000000E+02  0.51100000000E-03 0.  1.
         11   -1    0    0    0    0 -0.00000000000E+00 -0.00000000000E+00 -0.45593999997E+02  0.45594000000E+02  0.51100000000E-03 0. -1.
    9900012    2    1    2    0    0  0.24475231001E+02  0.32448312890E+02 -0.11114730307E+01  0.50528864320E+02  0.30000013587E+02 0.  0.
         12    1    1    2    0    0 -0.24475231001E+02 -0.32448312890E+02  0.11114730307E+01  0.40659135680E+02  0.00000000000E+00 0. -1.
         11    1    3    3    0    0  0.65170947990E+01  0.80435686930E+01  0.20512672160E+01  0.10553635364E+02  0.51100000000E-03 0. -1.
        -11    1    3    3    0    0  0.25393757344E-01  0.31755189981E+01  0.90718617559E+01  0.96116201407E+01  0.51100000000E-03 0.  1.
         12    1    3    3    0    0  0.17932742445E+02  0.21229225199E+02 -0.12234602003E+02  0.30363608815E+02  0.00000000000E+00 0. -1.
</event>
<event>
 7    1  0.2969156E-011  0.5052886E+02  0.7816164E-02  0.1300439E+00
        -11   -1    0    0    0    0  0.00000000000E+00  0.00000000000E+00  0.45593999997E+02  0.45594000000E+02  0.51100000000E-03 0.  1.
         11   -1    0    0    0    0 -0.00000000000E+00 -0.00000000000E+00 -0.45593999997E+02  0.45594000000E+02  0.51100000000E-03 0. -1.
    9900012    2    1    2    0    0  0.16115058783E+02  0.13661193299E+02  0.34739638890E+02  0.50528857951E+02  0.29999994228E+02 0.  0.
         12    1    1    2    0    0 -0.16115058783E+02 -0.13661193299E+02 -0.34739638890E+02  0.40659142049E+02  0.00000000000E+00 0. -1.
         11    1    3    3    0    0  0.12375941597E+02  0.13394460903E+02  0.22046209381E+02  0.28611376437E+02  0.51100000000E-03 0. -1.
        -11    1    3    3    0    0  0.72683483362E+00  0.12119407388E+01  0.16731870213E+02  0.16791443366E+02  0.51100000000E-03 0.  1.
         12    1    3    3    0    0  0.30122823524E+01 -0.94520834235E+00 -0.40384407036E+01  0.51260381483E+01  0.00000000000E+00 0. -1.
</event>
<event>
 7    1  0.2969156E-011  0.5052882E+02  0.7816164E-02  0.1300439E+00
        -11   -1    0    0    0    0  0.00000000000E+00  0.00000000000E+00  0.45593999997E+02  0.45594000000E+02  0.51100000000E-03 0. -1.
         11   -1    0    0    0    0 -0.00000000000E+00 -0.00000000000E+00 -0.45593999997E+02  0.45594000000E+02  0.51100000000E-03 0.  1.
    9900012    2    1    2    0    0  0.99297358128E+01  0.67427512746E+01 -0.38847190604E+02  0.50528824333E+02  0.29999892043E+02 0.  0.
         12    1    1    2    0    0 -0.99297358128E+01 -0.67427512746E+01  0.38847190604E+02  0.40659175667E+02  0.00000000000E+00 0. -1.
         11    1    3    3    0    0 -0.69371427405E+01  0.61109791509E+01 -0.94650532168E+01  0.13230844578E+02  0.51100000000E-03 0. -1.
        -11    1    3    3    0    0  0.45268710077E+01  0.61908016261E+01 -0.18171541258E+02  0.19723678609E+02  0.51100000000E-03 0.  1.
         12    1    3    3    0    0  0.12340007546E+02 -0.55590295023E+01 -0.11210596129E+02  0.17574301147E+02  0.00000000000E+00 0. -1.
</event>
<event>
 7    1  0.3377766E-011  0.5052886E+02  0.7816164E-02  0.1300439E+00
        -11   -1    0    0    0    0  0.00000000000E+00  0.00000000000E+00  0.45593999997E+02  0.45594000000E+02  0.51100000000E-03 0. -1.
         11   -1    0    0    0    0 -0.00000000000E+00 -0.00000000000E+00 -0.45593999997E+02  0.45594000000E+02  0.51100000000E-03 0.  1.
    9900012    2    1    2    0    0  0.36614380778E+02 -0.17504190720E+02 -0.24810938738E+01  0.50528863274E+02  0.30000010407E+02 0.  0.
         12    1    1    2    0    0 -0.36614380778E+02  0.17504190720E+02  0.24810938738E+01  0.40659136726E+02  0.00000000000E+00 0. -1.
         11    1    3    3    0    0  0.13274920807E+02 -0.33213483167E+01  0.62468290894E+01  0.15042531403E+02  0.51100000000E-03 0. -1.
        -11    1    3    3    0    0 -0.12249415469E+01 -0.61780029929E+01  0.31602325764E+01  0.70466497694E+01  0.51100000000E-03 0.  1.
        -12    1    3    3    0    0  0.24564401518E+02 -0.80048394108E+01 -0.11888155540E+02  0.28439682102E+02  0.00000000000E+00 0.  1.
</event>
<event>
 7    1  0.2969156E-011  0.5052886E+02  0.7816164E-02  0.1300439E+00
        -11   -1    0    0    0    0  0.00000000000E+00  0.00000000000E+00  0.45593999997E+02  0.45594000000E+02  0.51100000000E-03 0. -1.
         11   -1    0    0    0    0 -0.00000000000E+00 -0.00000000000E+00 -0.45593999997E+02  0.45594000000E+02  0.51100000000E-03 0.  1.
    9900012    2    1    2    0    0 -0.38018232690E+02 -0.56102618355E+01 -0.13277963394E+02  0.50528863676E+02  0.30000011629E+02 0.  0.
         12    1    1    2    0    0  0.38018232690E+02  0.56102618355E+01  0.13277963394E+02  0.40659136324E+02  0.00000000000E+00 0. -1.
         11    1    3    3    0    0 -0.10361865162E+02  0.39811719942E+01 -0.82395310128E+01  0.13824176347E+02  0.51100000000E-03 0. -1.
        -11    1    3    3    0    0 -0.23432036369E+02 -0.64996350125E+01 -0.12693789057E+02  0.27430600878E+02  0.51100000000E-03 0.  1.
         12    1    3    3    0    0 -0.42243311591E+01 -0.30917988171E+01  0.76553566755E+01  0.92740864508E+01  0.00000000000E+00 0. -1.
</event>
<event>
 7    1  0.2969156E-011  0.5052886E+02  0.7816164E-02  0.1300439E+00
        -11   -1    0    0    0    0  0.00000000000E+00  0.00000000000E+00  0.45593999997E+02  0.45594000000E+02  0.51100000000E-03 0.  1.
         11   -1    0    0    0    0 -0.00000000000E+00 -0.00000000000E+00 -0.45593999997E+02  0.45594000000E+02  0.51100000000E-03 0. -1.
    9900012    2    1    2    0    0  0.43051820866E+01 -0.27666616315E+02  0.29482017831E+02  0.50528860480E+02  0.30000001915E+02 0.  0.
         12    1    1    2    0    0 -0.43051820866E+01  0.27666616315E+02 -0.29482017831E+02  0.40659139520E+02  0.00000000000E+00 0. -1.
         11    1    3    3    0    0  0.31419002592E+01 -0.20357610390E+02  0.27541378951E+02  0.34392315898E+02  0.51100000000E-03 0. -1.
        -11    1    3    3    0    0  0.58459637477E+01 -0.92169909554E+01  0.74098819129E+00  0.10939711064E+02  0.51100000000E-03 0.  1.
         12    1    3    3    0    0 -0.46826819203E+01  0.19079850299E+01  0.11996506884E+01  0.51968335182E+01  0.00000000000E+00 0. -1.
</event>
<event>
 7    1  0.2969156E-011  0.5052885E+02  0.7816164E-02  0.1300439E+00
        -11   -1    0    0    0    0  0.00000000000E+00  0.00000000000E+00  0.45593999997E+02  0.45594000000E+02  0.51100000000E-03 0.  1.
         11   -1    0    0    0    0 -0.00000000000E+00 -0.00000000000E+00 -0.45593999997E+02  0.45594000000E+02  0.51100000000E-03 0. -1.
    9900012    2    1    2    0    0  0.10736752063E+02 -0.60749675937E+01  0.38742521958E+02  0.50528854857E+02  0.29999984822E+02 0.  0.
         12    1    1    2    0    0 -0.10736752063E+02  0.60749675937E+01 -0.38742521958E+02  0.40659145143E+02  0.00000000000E+00 0. -1.
         11    1    3    3    0    0 -0.37417808786E+01  0.13733829155E+01 -0.16474805249E+01  0.43129221089E+01  0.51100000000E-03 0. -1.
        -11    1    3    3    0    0 -0.16408015324E+01 -0.59494247561E+01  0.92609134796E+01  0.11128899466E+02  0.51100000000E-03 0.  1.
         12    1    3    3    0    0  0.16119334474E+02 -0.14989257531E+01  0.31129089003E+02  0.35087033281E+02  0.00000000000E+00 0. -1.
</event>
<event>
 7    1  0.2969156E-011  0.5052888E+02  0.7816164E-02  0.1300439E+00
        -11   -1    0    0    0    0  0.00000000000E+00  0.00000000000E+00  0.45593999997E+02  0.45594000000E+02  0.51100000000E-03 0.  1.
         11   -1    0    0    0    0 -0.00000000000E+00 -0.00000000000E+00 -0.45593999997E+02  0.45594000000E+02  0.51100000000E-03 0. -1.
    9900012    2    1    2    0    0 -0.38662991715E+02  0.11849171078E+02  0.42348876804E+01  0.50528879777E+02  0.30000060571E+02 0.  0.
         12    1    1    2    0    0  0.38662991715E+02 -0.11849171078E+02 -0.42348876804E+01  0.40659120223E+02  0.00000000000E+00 0. -1.
         11    1    3    3    0    0 -0.76181644201E+01  0.13852342021E+01 -0.43345585030E+01  0.88737647367E+01  0.51100000000E-03 0. -1.
        -11    1    3    3    0    0 -0.30377042958E+02  0.79380332590E+00  0.96957230526E+01  0.31896738209E+02  0.51100000000E-03 0.  1.
         12    1    3    3    0    0 -0.66778433754E+00  0.96701335504E+01 -0.11262768692E+01  0.97583768317E+01  0.00000000000E+00 0. -1.
</event>
<event>
 7    1  0.2969156E-011  0.5052887E+02  0.7816164E-02  0.1300439E+00
        -11   -1    0    0    0    0  0.00000000000E+00  0.00000000000E+00  0.45593999997E+02  0.45594000000E+02  0.51100000000E-03 0.  1.
         11   -1    0    0    0    0 -0.00000000000E+00 -0.00000000000E+00 -0.45593999997E+02  0.45594000000E+02  0.51100000000E-03 0. -1.
    9900012    2    1    2    0    0 -0.30591718594E+01  0.30731078652E+02  0.26446302504E+02  0.50528872566E+02  0.30000038652E+02 0.  0.
         12    1    1    2    0    0  0.30591718594E+01 -0.30731078652E+02 -0.26446302504E+02  0.40659127434E+02  0.00000000000E+00 0. -1.
         11    1    3    3    0    0  0.14394527085E+01  0.12325823942E+02 -0.16972844486E+01  0.12525124140E+02  0.51100000000E-03 0.  1.
        -11    1    3    3    0    0 -0.73995233495E+01  0.19255072234E+02  0.17860843246E+02  0.27285902482E+02  0.51100000000E-03 0. -1.
         12    1    3    3    0    0  0.29008987816E+01 -0.84981752426E+00  0.10282743706E+02  0.10717845945E+02  0.00000000000E+00 0. -1.
</event>
<event>
 7    1  0.2969156E-011  0.5052886E+02  0.7816164E-02  0.1300439E+00
        -11   -1    0    0    0    0  0.00000000000E+00  0.00000000000E+00  0.45593999997E+02  0.45594000000E+02  0.51100000000E-03 0.  1.
         11   -1    0    0    0    0 -0.00000000000E+00 -0.00000000000E+00 -0.45593999997E+02  0.45594000000E+02  0.51100000000E-03 0. -1.
    9900012    2    1    2    0    0  0.13305291159E+02 -0.35726891573E+02  0.14132370673E+02  0.50528862587E+02  0.30000008321E+02 0.  0.
         12    1    1    2    0    0 -0.13305291159E+02  0.35726891573E+02 -0.14132370673E+02  0.40659137413E+02  0.00000000000E+00 0. -1.
         11    1    3    3    0    0  0.26670622628E+01 -0.29812860762E+02  0.18822377279E+02  0.35358192468E+02  0.51100000000E-03 0.  1.
        -11    1    3    3    0    0  0.22164728270E+01 -0.24403431790E+00  0.20137025305E+01  0.30045470014E+01  0.51100000000E-03 0. -1.
        -12    1    3    3    0    0  0.84217560688E+01 -0.56699964933E+01 -0.67037091372E+01  0.12166123118E+02  0.00000000000E+00 0.  1.
</event>
<event>
 7    1  0.2969156E-011  0.5052887E+02  0.7816164E-02  0.1300439E+00
        -11   -1    0    0    0    0  0.00000000000E+00  0.00000000000E+00  0.45593999997E+02  0.45594000000E+02  0.51100000000E-03 0. -1.
         11   -1    0    0    0    0 -0.00000000000E+00 -0.00000000000E+00 -0.45593999997E+02  0.45594000000E+02  0.51100000000E-03 0.  1.
    9900012    2    1    2    0    0  0.36681846066E+02 -0.60577798079E+01  0.16459356809E+02  0.50528868755E+02  0.30000027067E+02 0.  0.
         12    1    1    2    0    0 -0.36681846066E+02  0.60577798079E+01 -0.16459356809E+02  0.40659131245E+02  0.00000000000E+00 0. -1.
         11    1    3    3    0    0  0.14901142856E+02 -0.48909708203E+01 -0.21422465855E+01  0.15828925253E+02  0.51100000000E-03 0. -1.
        -11    1    3    3    0    0  0.11120987999E+02  0.71016977181E+01  0.20604778019E+01  0.13355001070E+02  0.51100000000E-03 0.  1.
         12    1    3    3    0    0  0.10659715212E+02 -0.82685067056E+01  0.16541125593E+02  0.21344942432E+02  0.00000000000E+00 0. -1.
</event>
<event>
 7    1  0.2969156E-011  0.5052885E+02  0.7816164E-02  0.1300439E+00
        -11   -1    0    0    0    0  0.00000000000E+00  0.00000000000E+00  0.45593999997E+02  0.45594000000E+02  0.51100000000E-03 0. -1.
         11   -1    0    0    0    0 -0.00000000000E+00 -0.00000000000E+00 -0.45593999997E+02  0.45594000000E+02  0.51100000000E-03 0.  1.
    9900012    2    1    2    0    0 -0.22108973697E+02 -0.20559316875E+02 -0.27233691420E+02  0.50528853714E+02  0.29999981350E+02 0.  0.
         12    1    1    2    0    0  0.22108973697E+02  0.20559316875E+02  0.27233691420E+02  0.40659146286E+02  0.00000000000E+00 0. -1.
         11    1    3    3    0    0  0.54526928751E+01 -0.75090830199E+01 -0.11843927818E+02  0.15046488421E+02  0.51100000000E-03 0. -1.
        -11    1    3    3    0    0 -0.55018429792E+01 -0.30603971397E+01 -0.79662708733E+01  0.10153707634E+02  0.51100000000E-03 0.  1.
        -12    1    3    3    0    0 -0.22059823593E+02 -0.99898367156E+01 -0.74234927291E+01  0.25328657660E+02  0.00000000000E+00 0.  1.
</event>
<event>
 7    1  0.2969156E-011  0.5052886E+02  0.7816164E-02  0.1300439E+00
        -11   -1    0    0    0    0  0.00000000000E+00  0.00000000000E+00  0.45593999997E+02  0.45594000000E+02  0.51100000000E-03 0.  1.
         11   -1    0    0    0    0 -0.00000000000E+00 -0.00000000000E+00 -0.45593999997E+02  0.45594000000E+02  0.51100000000E-03 0. -1.
    9900012    2    1    2    0    0 -0.47245755277E+01  0.29654062577E+02  0.27413144567E+02  0.50528861589E+02  0.30000005287E+02 0.  0.
         12    1    1    2    0    0  0.47245755277E+01 -0.29654062577E+02 -0.27413144567E+02  0.40659138411E+02  0.00000000000E+00 0. -1.
         11    1    3    3    0    0 -0.76527252568E+01  0.10016396936E+02 -0.25532706133E+00  0.12607838974E+02  0.51100000000E-03 0. -1.
        -11    1    3    3    0    0  0.55358544628E+01  0.84807323783E+01  0.27495533649E+01  0.10494215086E+02  0.51100000000E-03 0.  1.
        -12    1    3    3    0    0 -0.26077047337E+01  0.11156933263E+02  0.24918918264E+02  0.27426807529E+02  0.00000000000E+00 0.  1.
</event>
<event>
 7    1  0.2969156E-011  0.5052886E+02  0.7816164E-02  0.1300439E+00
        -11   -1    0    0    0    0  0.00000000000E+00  0.00000000000E+00  0.45593999997E+02  0.45594000000E+02  0.51100000000E-03 0.  1.
         11   -1    0    0    0    0 -0.00000000000E+00 -0.00000000000E+00 -0.45593999997E+02  0.45594000000E+02  0.51100000000E-03 0. -1.
    9900012    2    1    2    0    0  0.20843307105E+01  0.29391573895E+01  0.40499167851E+02  0.50528859855E+02  0.30000000017E+02 0.  0.
         12    1    1    2    0    0 -0.20843307105E+01 -0.29391573895E+01 -0.40499167851E+02  0.40659140145E+02  0.00000000000E+00 0. -1.
         11    1    3    3    0    0 -0.27723137884E+01  0.80817755828E+00  0.28509379139E+00  0.29017500647E+01  0.51100000000E-03 0. -1.
        -11    1    3    3    0    0  0.10531033017E+02  0.10391373344E+02  0.18316374478E+02  0.23545124138E+02  0.51100000000E-03 0.  1.
        -12    1    3    3    0    0 -0.56743885184E+01 -0.82603935123E+01  0.21897699582E+02  0.24081985653E+02  0.00000000000E+00 0.  1.
</event>
<event>
 7    1  0.2969156E-011  0.5052886E+02  0.7816164E-02  0.1300439E+00
        -11   -1    0    0    0    0  0.00000000000E+00  0.00000000000E+00  0.45593999997E+02  0.45594000000E+02  0.51100000000E-03 0. -1.
         11   -1    0    0    0    0 -0.00000000000E+00 -0.00000000000E+00 -0.45593999997E+02  0.45594000000E+02  0.51100000000E-03 0.  1.
    9900012    2    1    2    0    0  0.26488801485E+02 -0.19553172233E+01 -0.30784507684E+02  0.50528858556E+02  0.29999996068E+02 0.  0.
         12    1    1    2    0    0 -0.26488801485E+02  0.19553172233E+01  0.30784507684E+02  0.40659141444E+02  0.00000000000E+00 0. -1.
         11    1    3    3    0    0 -0.46966216270E+01  0.15731874314E+01 -0.57625640862E+01  0.75987050549E+01  0.51100000000E-03 0. -1.
        -11    1    3    3    0    0  0.69964721579E+01 -0.64326901807E+01 -0.11993118561E+02  0.15302451395E+02  0.51100000000E-03 0.  1.
         12    1    3    3    0    0  0.24188950954E+02  0.29041855260E+01 -0.13028825037E+02  0.27627702106E+02  0.00000000000E+00 0. -1.
</event>
<event>
 7    1  0.2969156E-011  0.5052886E+02  0.7816164E-02  0.1300439E+00
        -11   -1    0    0    0    0  0.00000000000E+00  0.00000000000E+00  0.45593999997E+02  0.45594000000E+02  0.51100000000E-03 0. -1.
         11   -1    0    0    0    0 -0.00000000000E+00 -0.00000000000E+00 -0.45593999997E+02  0.45594000000E+02  0.51100000000E-03 0.  1.
    9900012    2    1    2    0    0 -0.84227025999E-01 -0.14248454185E+02 -0.38080705987E+02  0.50528859462E+02  0.29999998820E+02 0.  0.
         12    1    1    2    0    0  0.84227025999E-01  0.14248454185E+02  0.38080705987E+02  0.40659140538E+02  0.00000000000E+00 0. -1.
         11    1    3    3    0    0 -0.30831317394E+01  0.21446316133E+01 -0.43468322538E+00  0.37807533438E+01  0.51100000000E-03 0. -1.
        -11    1    3    3    0    0  0.11643977889E+02 -0.74726889593E+01 -0.12260925999E+02  0.18486579131E+02  0.51100000000E-03 0.  1.
        -12    1    3    3    0    0 -0.86450731754E+01 -0.89203968390E+01 -0.25385096762E+02  0.28261526987E+02  0.00000000000E+00 0.  1.
</event>
<event>
 7    1  0.2969156E-011  0.5052886E+02  0.7816164E-02  0.1300439E+00
        -11   -1    0    0    0    0  0.00000000000E+00  0.00000000000E+00  0.45593999997E+02  0.45594000000E+02  0.51100000000E-03 0. -1.
         11   -1    0    0    0    0 -0.00000000000E+00 -0.00000000000E+00 -0.45593999997E+02  0.45594000000E+02  0.51100000000E-03 0.  1.
    9900012    2    1    2    0    0 -0.22483256898E+02 -0.28417124608E+02 -0.18442776954E+02  0.50528857935E+02  0.29999994179E+02 0.  0.
         12    1    1    2    0    0  0.22483256898E+02  0.28417124608E+02  0.18442776954E+02  0.40659142065E+02  0.00000000000E+00 0. -1.
         11    1    3    3    0    0  0.23483331069E+01 -0.10421246189E+02 -0.57352665695E+01  0.12124781375E+02  0.51100000000E-03 0. -1.
        -11    1    3    3    0    0 -0.32901761082E+01 -0.26437552037E+01  0.50217836616E+01  0.65599551679E+01  0.51100000000E-03 0.  1.
        -12    1    3    3    0    0 -0.21541413896E+02 -0.15352123215E+02 -0.17729294046E+02  0.31844121392E+02  0.00000000000E+00 0.  1.
</event>
<event>
 7    1  0.2969156E-011  0.5052886E+02  0.7816164E-02  0.1300439E+00
        -11   -1    0    0    0    0  0.00000000000E+00  0.00000000000E+00  0.45593999997E+02  0.45594000000E+02  0.51100000000E-03 0. -1.
         11   -1    0    0    0    0 -0.00000000000E+00 -0.00000000000E+00 -0.45593999997E+02  0.45594000000E+02  0.51100000000E-03 0.  1.
    9900012    2    1    2    0    0  0.20073340831E+02 -0.31253221979E+02 -0.16536708599E+02  0.50528860468E+02  0.30000001879E+02 0.  0.
         12    1    1    2    0    0 -0.20073340831E+02  0.31253221979E+02  0.16536708599E+02  0.40659139532E+02  0.00000000000E+00 0. -1.
         11    1    3    3    0    0  0.78042592946E+01 -0.14341569783E+01 -0.26290124012E+01  0.83591253037E+01  0.51100000000E-03 0. -1.
        -11    1    3    3    0    0  0.35527794282E+01  0.36764581046E+01 -0.27464192495E+01  0.58035682830E+01  0.51100000000E-03 0.  1.
         12    1    3    3    0    0  0.87163021078E+01 -0.33495523105E+02 -0.11161276948E+02  0.36366166881E+02  0.00000000000E+00 0. -1.
</event>
<event>
 7    1  0.2969156E-011  0.5052885E+02  0.7816164E-02  0.1300439E+00
        -11   -1    0    0    0    0  0.00000000000E+00  0.00000000000E+00  0.45593999997E+02  0.45594000000E+02  0.51100000000E-03 0.  1.
         11   -1    0    0    0    0 -0.00000000000E+00 -0.00000000000E+00 -0.45593999997E+02  0.45594000000E+02  0.51100000000E-03 0. -1.
    9900012    2    1    2    0    0 -0.12710706591E+02 -0.23566162201E+02  0.30598041163E+02  0.50528853601E+02  0.29999981005E+02 0.  0.
         12    1    1    2    0    0  0.12710706591E+02  0.23566162201E+02 -0.30598041163E+02  0.40659146399E+02  0.00000000000E+00 0. -1.
         11    1    3    3    0    0 -0.14238435964E+01 -0.21775510657E+02  0.12986158203E+02  0.25393709853E+02  0.51100000000E-03 0. -1.
        -11    1    3    3    0    0 -0.55255432514E+01 -0.75115669498E+01  0.12289898403E+02  0.15427147153E+02  0.51100000000E-03 0.  1.
        -12    1    3    3    0    0 -0.57613197430E+01  0.57209154059E+01  0.53219845569E+01  0.97079965949E+01  0.00000000000E+00 0.  1.
</event>
<event>
 7    1  0.2969156E-011  0.5052886E+02  0.7816164E-02  0.1300439E+00
        -11   -1    0    0    0    0  0.00000000000E+00  0.00000000000E+00  0.45593999997E+02  0.45594000000E+02  0.51100000000E-03 0. -1.
         11   -1    0    0    0    0 -0.00000000000E+00 -0.00000000000E+00 -0.45593999997E+02  0.45594000000E+02  0.51100000000E-03 0.  1.
    9900012    2    1    2    0    0 -0.20266644519E+01 -0.40552393277E+02 -0.21358077649E+01  0.50528860264E+02  0.30000001258E+02 0.  0.
         12    1    1    2    0    0  0.20266644519E+01  0.40552393277E+02  0.21358077649E+01  0.40659139736E+02  0.00000000000E+00 0. -1.
         11    1    3    3    0    0  0.33863438648E+01 -0.11307846710E+02  0.43491931116E+01  0.12579753693E+02  0.51100000000E-03 0.  1.
        -11    1    3    3    0    0  0.48430119459E+01 -0.17738047093E+02 -0.11562424554E+02  0.21720560334E+02  0.51100000000E-03 0. -1.
         12    1    3    3    0    0 -0.10256020263E+02 -0.11506499474E+02  0.50774236778E+01  0.16228546237E+02  0.00000000000E+00 0. -1.
</event>
<event>
 7    1  0.2969156E-011  0.5052886E+02  0.7816164E-02  0.1300439E+00
        -11   -1    0    0    0    0  0.00000000000E+00  0.00000000000E+00  0.45593999997E+02  0.45594000000E+02  0.51100000000E-03 0.  1.
         11   -1    0    0    0    0 -0.00000000000E+00 -0.00000000000E+00 -0.45593999997E+02  0.45594000000E+02  0.51100000000E-03 0. -1.
    9900012    2    1    2    0    0  0.81531161237E+01 -0.39603648234E+02 -0.42712330246E+01  0.50528859729E+02  0.29999999634E+02 0.  0.
         12    1    1    2    0    0 -0.81531161237E+01  0.39603648234E+02  0.42712330246E+01  0.40659140271E+02  0.00000000000E+00 0. -1.
         11    1    3    3    0    0  0.50972814450E+01 -0.44210522475E+01 -0.19970594076E+01  0.70367767937E+01  0.51100000000E-03 0. -1.
        -11    1    3    3    0    0 -0.19291183701E+01 -0.26364791636E+02 -0.12373898969E+02  0.29187961759E+02  0.51100000000E-03 0.  1.
        -12    1    3    3    0    0  0.49849530488E+01 -0.88178043509E+01  0.10099725352E+02  0.14304121177E+02  0.00000000000E+00 0.  1.
</event>
<event>
 7    1  0.2969156E-011  0.5052885E+02  0.7816164E-02  0.1300439E+00
        -11   -1    0    0    0    0  0.00000000000E+00  0.00000000000E+00  0.45593999997E+02  0.45594000000E+02  0.51100000000E-03 0.  1.
         11   -1    0    0    0    0 -0.00000000000E+00 -0.00000000000E+00 -0.45593999997E+02  0.45594000000E+02  0.51100000000E-03 0. -1.
    9900012    2    1    2    0    0  0.11255465376E+02 -0.36002989889E+02  0.15174494803E+02  0.50528854973E+02  0.29999985177E+02 0.  0.
         12    1    1    2    0    0 -0.11255465376E+02  0.36002989889E+02 -0.15174494803E+02  0.40659145027E+02  0.00000000000E+00 0. -1.
         11    1    3    3    0    0  0.24678000146E+01 -0.14216468119E+02 -0.21180772155E+01  0.14583698230E+02  0.51100000000E-03 0. -1.
        -11    1    3    3    0    0  0.13052669009E+02 -0.74100797450E+01  0.31581914442E+01  0.15338044971E+02  0.51100000000E-03 0.  1.
        -12    1    3    3    0    0 -0.42650036473E+01 -0.14376442024E+02  0.14134380575E+02  0.20607111773E+02  0.00000000000E+00 0.  1.
</event>
<event>
 7    1  0.2969156E-011  0.5052886E+02  0.7816164E-02  0.1300439E+00
        -11   -1    0    0    0    0  0.00000000000E+00  0.00000000000E+00  0.45593999997E+02  0.45594000000E+02  0.51100000000E-03 0. -1.
         11   -1    0    0    0    0 -0.00000000000E+00 -0.00000000000E+00 -0.45593999997E+02  0.45594000000E+02  0.51100000000E-03 0.  1.
    9900012    2    1    2    0    0  0.20316844650E+02 -0.32436152424E+02 -0.13721794253E+02  0.50528858369E+02  0.29999995500E+02 0.  0.
         12    1    1    2    0    0 -0.20316844650E+02  0.32436152424E+02  0.13721794253E+02  0.40659141631E+02  0.00000000000E+00 0. -1.
         11    1    3    3    0    0  0.20309411333E+01  0.74607231858E+00  0.41372648647E+01  0.46688656667E+01  0.51100000000E-03 0. -1.
        -11    1    3    3    0    0 -0.34000629985E+00 -0.13231151646E+02  0.12315725001E-01  0.13235525305E+02  0.51100000000E-03 0.  1.
        -12    1    3    3    0    0  0.18625909816E+02 -0.19951073096E+02 -0.17871374843E+02  0.32624467397E+02  0.00000000000E+00 0.  1.
</event>
<event>
 7    1  0.2969156E-011  0.5052887E+02  0.7816164E-02  0.1300439E+00
        -11   -1    0    0    0    0  0.00000000000E+00  0.00000000000E+00  0.45593999997E+02  0.45594000000E+02  0.51100000000E-03 0.  1.
         11   -1    0    0    0    0 -0.00000000000E+00 -0.00000000000E+00 -0.45593999997E+02  0.45594000000E+02  0.51100000000E-03 0. -1.
    9900012    2    1    2    0    0 -0.17819027562E+02 -0.12909150747E+02  0.34190652610E+02  0.50528872585E+02  0.30000038709E+02 0.  0.
         12    1    1    2    0    0  0.17819027562E+02  0.12909150747E+02 -0.34190652610E+02  0.40659127415E+02  0.00000000000E+00 0. -1.
         11    1    3    3    0    0  0.31628682657E+01  0.18370139822E+01 -0.53534835094E+00  0.36966138769E+01  0.51100000000E-03 0. -1.
        -11    1    3    3    0    0 -0.80949872008E+01  0.28010102786E+01  0.47817304871E+01  0.98101693703E+01  0.51100000000E-03 0.  1.
        -12    1    3    3    0    0 -0.12886908627E+02 -0.17547175007E+02  0.29944270474E+02  0.37022089338E+02  0.00000000000E+00 0.  1.
</event>
<event>
 7    1  0.2969156E-011  0.5052886E+02  0.7816164E-02  0.1300439E+00
        -11   -1    0    0    0    0  0.00000000000E+00  0.00000000000E+00  0.45593999997E+02  0.45594000000E+02  0.51100000000E-03 0. -1.
         11   -1    0    0    0    0 -0.00000000000E+00 -0.00000000000E+00 -0.45593999997E+02  0.45594000000E+02  0.51100000000E-03 0.  1.
    9900012    2    1    2    0    0 -0.26968698005E+01  0.18390033267E+02 -0.36162128174E+02  0.50528856571E+02  0.29999990034E+02 0.  0.
         12    1    1    2    0    0  0.26968698005E+01 -0.18390033267E+02  0.36162128174E+02  0.40659143429E+02  0.00000000000E+00 0. -1.
         11    1    3    3    0    0  0.95508807360E+00 -0.30812229044E+01  0.15837961468E+01  0.35936803295E+01  0.51100000000E-03 0. -1.
        -11    1    3    3    0    0  0.40663445429E+01 -0.51430271971E+00 -0.29175190037E+01  0.50310617794E+01  0.51100000000E-03 0.  1.
        -12    1    3    3    0    0 -0.77183024171E+01  0.21985558891E+02 -0.34828405317E+02  0.41904114462E+02  0.00000000000E+00 0.  1.
</event>
<event>
 7    1  0.2969156E-011  0.5052886E+02  0.7816164E-02  0.1300439E+00
        -11   -1    0    0    0    0  0.00000000000E+00  0.00000000000E+00  0.45593999997E+02  0.45594000000E+02  0.51100000000E-03 0.  1.
         11   -1    0    0    0    0 -0.00000000000E+00 -0.00000000000E+00 -0.45593999997E+02  0.45594000000E+02  0.51100000000E-03 0. -1.
    9900012    2    1    2    0    0 -0.17714486908E+02  0.28356948265E+02  0.23135385060E+02  0.50528860767E+02  0.30000002786E+02 0.  0.
         12    1    1    2    0    0  0.17714486908E+02 -0.28356948265E+02 -0.23135385060E+02  0.40659139233E+02  0.00000000000E+00 0. -1.
         11    1    3    3    0    0 -0.44876704243E+00  0.21918385971E+01  0.26789317402E-02  0.22373099320E+01  0.51100000000E-03 0. -1.
        -11    1    3    3    0    0 -0.23003628301E+02  0.15607077476E+02  0.79183361410E+01  0.28904114410E+02  0.51100000000E-03 0.  1.
        -12    1    3    3    0    0  0.57379084355E+01  0.10558032193E+02  0.15214369987E+02  0.19387436424E+02  0.00000000000E+00 0.  1.
</event>
<event>
 7    1  0.2969156E-011  0.5052884E+02  0.7816164E-02  0.1300439E+00
        -11   -1    0    0    0    0  0.00000000000E+00  0.00000000000E+00  0.45593999997E+02  0.45594000000E+02  0.51100000000E-03 0.  1.
         11   -1    0    0    0    0 -0.00000000000E+00 -0.00000000000E+00 -0.45593999997E+02  0.45594000000E+02  0.51100000000E-03 0. -1.
    9900012    2    1    2    0    0 -0.61866008647E+01  0.12437065901E+02  0.38212733079E+02  0.50528836115E+02  0.29999927855E+02 0.  0.
         12    1    1    2    0    0  0.61866008647E+01 -0.12437065901E+02 -0.38212733079E+02  0.40659163885E+02  0.00000000000E+00 0. -1.
         11    1    3    3    0    0 -0.10164724763E+02  0.20473133022E+01  0.24272021996E+01  0.10649151706E+02  0.51100000000E-03 0. -1.
        -11    1    3    3    0    0 -0.43562515324E+01  0.68588764569E+01  0.12630074448E+02  0.15017985700E+02  0.51100000000E-03 0.  1.
        -12    1    3    3    0    0  0.83343754311E+01  0.35308761419E+01  0.23155456431E+02  0.24861698709E+02  0.00000000000E+00 0.  1.
</event>
<event>
 7    1  0.2969156E-011  0.5052890E+02  0.7816164E-02  0.1300439E+00
        -11   -1    0    0    0    0  0.00000000000E+00  0.00000000000E+00  0.45593999997E+02  0.45594000000E+02  0.51100000000E-03 0.  1.
         11   -1    0    0    0    0 -0.00000000000E+00 -0.00000000000E+00 -0.45593999997E+02  0.45594000000E+02  0.51100000000E-03 0. -1.
    9900012    2    1    2    0    0  0.33895883744E+01  0.16718647759E+02  0.36907451702E+02  0.50528899132E+02  0.30000119401E+02 0.  0.
         12    1    1    2    0    0 -0.33895883744E+01 -0.16718647759E+02 -0.36907451702E+02  0.40659100868E+02  0.00000000000E+00 0. -1.
         11    1    3    3    0    0 -0.98416225508E+01  0.19828831002E+01  0.41312089485E+01  0.10856161728E+02  0.51100000000E-03 0. -1.
        -11    1    3    3    0    0  0.75561917493E+01  0.27844748540E+01  0.68762051580E+01  0.10589217705E+02  0.51100000000E-03 0.  1.
        -12    1    3    3    0    0  0.56750191759E+01  0.11951289805E+02  0.25900037596E+02  0.29083519699E+02  0.00000000000E+00 0.  1.
</event>
<event>
 7    1  0.2969156E-011  0.5052887E+02  0.7816164E-02  0.1300439E+00
        -11   -1    0    0    0    0  0.00000000000E+00  0.00000000000E+00  0.45593999997E+02  0.45594000000E+02  0.51100000000E-03 0. -1.
         11   -1    0    0    0    0 -0.00000000000E+00 -0.00000000000E+00 -0.45593999997E+02  0.45594000000E+02  0.51100000000E-03 0.  1.
    9900012    2    1    2    0    0 -0.10774423544E+01 -0.14588005003E+02 -0.37936709296E+02  0.50528872068E+02  0.30000037138E+02 0.  0.
         12    1    1    2    0    0  0.10774423544E+01  0.14588005003E+02  0.37936709296E+02  0.40659127932E+02  0.00000000000E+00 0. -1.
         11    1    3    3    0    0  0.55004663079E+00 -0.97230985214E+01 -0.27561163333E+02  0.29231129309E+02  0.51100000000E-03 0. -1.
        -11    1    3    3    0    0 -0.59810339067E+01 -0.88068326219E+01 -0.11100322615E+02  0.15380189525E+02  0.51100000000E-03 0.  1.
         12    1    3    3    0    0  0.43535449215E+01  0.39419261405E+01  0.72477665152E+00  0.59175532338E+01  0.00000000000E+00 0. -1.
</event>
<event>
 7    1  0.2969156E-011  0.5052887E+02  0.7816164E-02  0.1300439E+00
        -11   -1    0    0    0    0  0.00000000000E+00  0.00000000000E+00  0.45593999997E+02  0.45594000000E+02  0.51100000000E-03 0.  1.
         11   -1    0    0    0    0 -0.00000000000E+00 -0.00000000000E+00 -0.45593999997E+02  0.45594000000E+02  0.51100000000E-03 0. -1.
    9900012    2    1    2    0    0  0.29999911443E+02 -0.58538414418E+00  0.27437709180E+02  0.50528865156E+02  0.30000016128E+02 0.  0.
         12    1    1    2    0    0 -0.29999911443E+02  0.58538414418E+00 -0.27437709180E+02  0.40659134844E+02  0.00000000000E+00 0. -1.
         11    1    3    3    0    0  0.18746279474E+01  0.39814007944E+01 -0.10211512774E+01  0.45175803722E+01  0.51100000000E-03 0. -1.
        -11    1    3    3    0    0  0.27814883018E+02 -0.85569926535E+01  0.16617077017E+02  0.33511447140E+02  0.51100000000E-03 0.  1.
         12    1    3    3    0    0  0.31040047798E+00  0.39902077149E+01  0.11841783441E+02  0.12499837644E+02  0.00000000000E+00 0. -1.
</event>
<event>
 7    1  0.2969156E-011  0.5052885E+02  0.7816164E-02  0.1300439E+00
        -11   -1    0    0    0    0  0.00000000000E+00  0.00000000000E+00  0.45593999997E+02  0.45594000000E+02  0.51100000000E-03 0.  1.
         11   -1    0    0    0    0 -0.00000000000E+00 -0.00000000000E+00 -0.45593999997E+02  0.45594000000E+02  0.51100000000E-03 0. -1.
    9900012    2    1    2    0    0  0.14684956280E+02  0.98478980028E+01  0.36613346214E+02  0.50528853956E+02  0.29999982086E+02 0.  0.
         12    1    1    2    0    0 -0.14684956280E+02 -0.98478980028E+01 -0.36613346214E+02  0.40659146044E+02  0.00000000000E+00 0. -1.
         11    1    3    3    0    0 -0.44046538172E+00  0.86730518346E+01  0.17378784115E+02  0.19427763007E+02  0.51100000000E-03 0. -1.
        -11    1    3    3    0    0  0.17414424777E+02  0.49007079814E+00  0.21592566534E+02  0.27744211820E+02  0.51100000000E-03 0.  1.
         12    1    3    3    0    0 -0.22890031154E+01  0.68477537009E+00 -0.23580044359E+01  0.33568791294E+01  0.00000000000E+00 0. -1.
</event>
<event>
 7    1  0.2969156E-011  0.5052886E+02  0.7816164E-02  0.1300439E+00
        -11   -1    0    0    0    0  0.00000000000E+00  0.00000000000E+00  0.45593999997E+02  0.45594000000E+02  0.51100000000E-03 0.  1.
         11   -1    0    0    0    0 -0.00000000000E+00 -0.00000000000E+00 -0.45593999997E+02  0.45594000000E+02  0.51100000000E-03 0. -1.
    9900012    2    1    2    0    0  0.25708596987E+02  0.21928620887E+02  0.22613474676E+02  0.50528860683E+02  0.30000002533E+02 0.  0.
         12    1    1    2    0    0 -0.25708596987E+02 -0.21928620887E+02 -0.22613474676E+02  0.40659139317E+02  0.00000000000E+00 0. -1.
         11    1    3    3    0    0  0.13701193259E+02  0.10994379223E+01  0.87829037317E+01  0.16311678598E+02  0.51100000000E-03 0. -1.
        -11    1    3    3    0    0  0.62608482434E+01  0.17868848459E+00  0.10915329737E+02  0.12584696017E+02  0.51100000000E-03 0.  1.
         12    1    3    3    0    0  0.57465554842E+01  0.20650494480E+02  0.29152412073E+01  0.21632486069E+02  0.00000000000E+00 0. -1.
</event>
<event>
 7    1  0.2969156E-011  0.5052892E+02  0.7816164E-02  0.1300439E+00
        -11   -1    0    0    0    0  0.00000000000E+00  0.00000000000E+00  0.45593999997E+02  0.45594000000E+02  0.51100000000E-03 0. -1.
         11   -1    0    0    0    0 -0.00000000000E+00 -0.00000000000E+00 -0.45593999997E+02  0.45594000000E+02  0.51100000000E-03 0.  1.
    9900012    2    1    2    0    0 -0.97543835949E+01 -0.22087124782E+02 -0.32713474931E+02  0.50528923245E+02  0.30000192696E+02 0.  0.
         12    1    1    2    0    0  0.97543835949E+01  0.22087124782E+02  0.32713474931E+02  0.40659076755E+02  0.00000000000E+00 0. -1.
         11    1    3    3    0    0 -0.80383692314E+01 -0.48536038929E+01 -0.67360596088E+00  0.94141699528E+01  0.51100000000E-03 0. -1.
        -11    1    3    3    0    0 -0.28528430020E+01 -0.20597377064E+02 -0.31152327399E+02  0.37454748134E+02  0.51100000000E-03 0.  1.
         12    1    3    3    0    0  0.11368286385E+01  0.33638561751E+01 -0.88754157156E+00  0.36600051586E+01  0.00000000000E+00 0. -1.
</event>
<event>
 7    1  0.2969156E-011  0.5052883E+02  0.7816164E-02  0.1300439E+00
        -11   -1    0    0    0    0  0.00000000000E+00  0.00000000000E+00  0.45593999997E+02  0.45594000000E+02  0.51100000000E-03 0.  1.
         11   -1    0    0    0    0 -0.00000000000E+00 -0.00000000000E+00 -0.45593999997E+02  0.45594000000E+02  0.51100000000E-03 0. -1.
    9900012    2    1    2    0    0 -0.50869876994E+01  0.13833470637E+02  0.37893610243E+02  0.50528830666E+02  0.29999911291E+02 0.  0.
         12    1    1    2    0    0  0.50869876994E+01 -0.13833470637E+02 -0.37893610243E+02  0.40659169334E+02  0.00000000000E+00 0. -1.
         11    1    3    3    0    0 -0.10038982310E+02 -0.21062956897E+01  0.17976039228E+02  0.20696754188E+02  0.51100000000E-03 0. -1.
        -11    1    3    3    0    0 -0.83924632465E+00  0.69288481527E+01  0.17515119236E+02  0.18854513339E+02  0.51100000000E-03 0.  1.
         12    1    3    3    0    0  0.57912409351E+01  0.90109181742E+01  0.24024517789E+01  0.10977563139E+02  0.00000000000E+00 0. -1.
</event>
<event>
 7    1  0.2969156E-011  0.5052886E+02  0.7816164E-02  0.1300439E+00
        -11   -1    0    0    0    0  0.00000000000E+00  0.00000000000E+00  0.45593999997E+02  0.45594000000E+02  0.51100000000E-03 0.  1.
         11   -1    0    0    0    0 -0.00000000000E+00 -0.00000000000E+00 -0.45593999997E+02  0.45594000000E+02  0.51100000000E-03 0. -1.
    9900012    2    1    2    0    0  0.34562913159E+02  0.20828683408E+02 -0.49736012567E+01  0.50528859232E+02  0.29999998120E+02 0.  0.
         12    1    1    2    0    0 -0.34562913159E+02 -0.20828683408E+02  0.49736012567E+01  0.40659140768E+02  0.00000000000E+00 0. -1.
         11    1    3    3    0    0  0.58605390958E+01  0.50144518997E+01 -0.10288916322E+02  0.12858944190E+02  0.51100000000E-03 0. -1.
        -11    1    3    3    0    0  0.19259510210E+02  0.95878858179E+01 -0.53007333118E+01  0.22157483203E+02  0.51100000000E-03 0.  1.
        -12    1    3    3    0    0  0.94428638539E+01  0.62263456904E+01  0.10616048377E+02  0.15512431839E+02  0.00000000000E+00 0.  1.
</event>
<event>
 7    1  0.2969156E-011  0.5052886E+02  0.7816164E-02  0.1300439E+00
        -11   -1    0    0    0    0  0.00000000000E+00  0.00000000000E+00  0.45593999997E+02  0.45594000000E+02  0.51100000000E-03 0. -1.
         11   -1    0    0    0    0 -0.00000000000E+00 -0.00000000000E+00 -0.45593999997E+02  0.45594000000E+02  0.51100000000E-03 0.  1.
    9900012    2    1    2    0    0  0.28588717450E+02  0.14038287314E+00  0.28910740934E+02  0.50528863091E+02  0.30000009852E+02 0.  0.
         12    1    1    2    0    0 -0.28588717450E+02 -0.14038287314E+00 -0.28910740934E+02  0.40659136909E+02  0.00000000000E+00 0. -1.
         11    1    3    3    0    0 -0.19062777364E+01  0.22313289989E+01  0.68409493357E+01  0.74438774831E+01  0.51100000000E-03 0. -1.
        -11    1    3    3    0    0  0.19637823316E+02  0.60747911431E+01  0.21111623307E+02  0.29466045390E+02  0.51100000000E-03 0.  1.
         12    1    3    3    0    0  0.10857171871E+02 -0.81657372689E+01  0.95816829083E+00  0.13618940218E+02  0.00000000000E+00 0. -1.
</event>
<event>
 7    1  0.2969156E-011  0.5052885E+02  0.7816164E-02  0.1300439E+00
        -11   -1    0    0    0    0  0.00000000000E+00  0.00000000000E+00  0.45593999997E+02  0.45594000000E+02  0.51100000000E-03 0. -1.
         11   -1    0    0    0    0 -0.00000000000E+00 -0.00000000000E+00 -0.45593999997E+02  0.45594000000E+02  0.51100000000E-03 0.  1.
    9900012    2    1    2    0    0  0.22273862196E+02  0.33375671106E+02 -0.65655152255E+01  0.50528851594E+02  0.29999974905E+02 0.  0.
         12    1    1    2    0    0 -0.22273862196E+02 -0.33375671106E+02  0.65655152255E+01  0.40659148406E+02  0.00000000000E+00 0. -1.
         11    1    3    3    0    0  0.19629368683E+01  0.32082353554E+01  0.32220829451E+01  0.49525462149E+01  0.51100000000E-03 0. -1.
        -11    1    3    3    0    0  0.38721068628E+01  0.16518052502E+02 -0.16004484097E+02  0.23323438458E+02  0.51100000000E-03 0.  1.
         12    1    3    3    0    0  0.16438818465E+02  0.13649383249E+02  0.62168859261E+01  0.22252866921E+02  0.00000000000E+00 0. -1.
</event>
<event>
 7    1  0.3380869E-011  0.5052885E+02  0.7816164E-02  0.1300439E+00
        -11   -1    0    0    0    0  0.00000000000E+00  0.00000000000E+00  0.45593999997E+02  0.45594000000E+02  0.51100000000E-03 0. -1.
         11   -1    0    0    0    0 -0.00000000000E+00 -0.00000000000E+00 -0.45593999997E+02  0.45594000000E+02  0.51100000000E-03 0.  1.
    9900012    2    1    2    0    0 -0.17433627204E+01  0.33839110487E+01 -0.40480563727E+02  0.50528853339E+02  0.29999980208E+02 0.  0.
         12    1    1    2    0    0  0.17433627204E+01 -0.33839110487E+01  0.40480563727E+02  0.40659146661E+02  0.00000000000E+00 0. -1.
         11    1    3    3    0    0  0.28168582123E+01  0.74315931271E+01 -0.55705336712E+01  0.97053651264E+01  0.51100000000E-03 0. -1.
        -11    1    3    3    0    0  0.48212724279E+01 -0.32535423556E+01 -0.13543241885E+01  0.59719678459E+01  0.51100000000E-03 0.  1.
        -12    1    3    3    0    0 -0.93814933606E+01 -0.79413972278E+00 -0.33555705868E+02  0.34851520366E+02  0.00000000000E+00 0.  1.
</event>
<event>
 7    1  0.2969156E-011  0.5052885E+02  0.7816164E-02  0.1300439E+00
        -11   -1    0    0    0    0  0.00000000000E+00  0.00000000000E+00  0.45593999997E+02  0.45594000000E+02  0.51100000000E-03 0.  1.
         11   -1    0    0    0    0 -0.00000000000E+00 -0.00000000000E+00 -0.45593999997E+02  0.45594000000E+02  0.51100000000E-03 0. -1.
    9900012    2    1    2    0    0  0.38108009921E+01 -0.39174049535E+02  0.10199896080E+02  0.50528852921E+02  0.29999978938E+02 0.  0.
         12    1    1    2    0    0 -0.38108009921E+01  0.39174049535E+02 -0.10199896080E+02  0.40659147079E+02  0.00000000000E+00 0. -1.
         11    1    3    3    0    0  0.91131232651E-01 -0.26794734973E+01 -0.39878181927E+01  0.48052655830E+01  0.51100000000E-03 0. -1.
        -11    1    3    3    0    0  0.11408469391E+02 -0.21286057033E+02  0.99306313651E+00  0.24170965486E+02  0.51100000000E-03 0.  1.
        -12    1    3    3    0    0 -0.76887996318E+01 -0.15208519005E+02  0.13194651136E+02  0.21552621852E+02  0.00000000000E+00 0.  1.
</event>
<event>
 7    1  0.2969156E-011  0.5052886E+02  0.7816164E-02  0.1300439E+00
        -11   -1    0    0    0    0  0.00000000000E+00  0.00000000000E+00  0.45593999997E+02  0.45594000000E+02  0.51100000000E-03 0. -1.
         11   -1    0    0    0    0 -0.00000000000E+00 -0.00000000000E+00 -0.45593999997E+02  0.45594000000E+02  0.51100000000E-03 0.  1.
    9900012    2    1    2    0    0  0.10751039051E+02 -0.34404152985E+02  0.18813155090E+02  0.50528863416E+02  0.30000010841E+02 0.  0.
         12    1    1    2    0    0 -0.10751039051E+02  0.34404152985E+02 -0.18813155090E+02  0.40659136584E+02  0.00000000000E+00 0. -1.
         11    1    3    3    0    0  0.46961374931E+01 -0.11724202397E+01  0.11314068019E+02  0.12305950267E+02  0.51100000000E-03 0. -1.
        -11    1    3    3    0    0  0.98102395758E+01 -0.10580550954E+02  0.41936758662E+01  0.15025836967E+02  0.51100000000E-03 0.  1.
        -12    1    3    3    0    0 -0.37553380181E+01 -0.22651181792E+02  0.33054112042E+01  0.23197076183E+02  0.00000000000E+00 0.  1.
</event>
<event>
 7    1  0.2969156E-011  0.5052887E+02  0.7816164E-02  0.1300439E+00
        -11   -1    0    0    0    0  0.00000000000E+00  0.00000000000E+00  0.45593999997E+02  0.45594000000E+02  0.51100000000E-03 0.  1.
         11   -1    0    0    0    0 -0.00000000000E+00 -0.00000000000E+00 -0.45593999997E+02  0.45594000000E+02  0.51100000000E-03 0. -1.
    9900012    2    1    2    0    0  0.96278728675E+01  0.19941974852E+02  0.34099659096E+02  0.50528867602E+02  0.30000023562E+02 0.  0.
         12    1    1    2    0    0 -0.96278728675E+01 -0.19941974852E+02 -0.34099659096E+02  0.40659132398E+02  0.00000000000E+00 0. -1.
         11    1    3    3    0    0  0.52713753813E+01  0.96752804197E+01  0.10095710497E+02  0.14943955979E+02  0.51100000000E-03 0. -1.
        -11    1    3    3    0    0 -0.41449378227E+01  0.14191329781E+02  0.21133028943E+02  0.25791069444E+02  0.51100000000E-03 0.  1.
         12    1    3    3    0    0  0.85014353089E+01 -0.39246353489E+01  0.28709196553E+01  0.97938421776E+01  0.00000000000E+00 0. -1.
</event>
<event>
 7    1  0.2969156E-011  0.5052886E+02  0.7816164E-02  0.1300439E+00
        -11   -1    0    0    0    0  0.00000000000E+00  0.00000000000E+00  0.45593999997E+02  0.45594000000E+02  0.51100000000E-03 0.  1.
         11   -1    0    0    0    0 -0.00000000000E+00 -0.00000000000E+00 -0.45593999997E+02  0.45594000000E+02  0.51100000000E-03 0. -1.
    9900012    2    1    2    0    0 -0.31534954672E+02  0.25352586330E+02 -0.39948618625E+01  0.50528856858E+02  0.29999990905E+02 0.  0.
         12    1    1    2    0    0  0.31534954672E+02 -0.25352586330E+02  0.39948618625E+01  0.40659143142E+02  0.00000000000E+00 0. -1.
         11    1    3    3    0    0 -0.53035043399E+01  0.86763622222E+01 -0.52973313972E+01  0.11465955690E+02  0.51100000000E-03 0. -1.
        -11    1    3    3    0    0 -0.25773694131E+02  0.10103045077E+02 -0.69113332451E+01  0.28532811928E+02  0.51100000000E-03 0.  1.
        -12    1    3    3    0    0 -0.45775620040E+00  0.65731790301E+01  0.82138027797E+01  0.10530089240E+02  0.00000000000E+00 0.  1.
</event>
<event>
 7    1  0.2969156E-011  0.5052885E+02  0.7816164E-02  0.1300439E+00
        -11   -1    0    0    0    0  0.00000000000E+00  0.00000000000E+00  0.45593999997E+02  0.45594000000E+02  0.51100000000E-03 0.  1.
         11   -1    0    0    0    0 -0.00000000000E+00 -0.00000000000E+00 -0.45593999997E+02  0.45594000000E+02  0.51100000000E-03 0. -1.
    9900012    2    1    2    0    0  0.38546314774E+01  0.33159907307E+01  0.40339959227E+02  0.50528852336E+02  0.29999977161E+02 0.  0.
         12    1    1    2    0    0 -0.38546314774E+01 -0.33159907307E+01 -0.40339959227E+02  0.40659147664E+02  0.00000000000E+00 0. -1.
         11    1    3    3    0    0 -0.27936201275E+01 -0.29710319102E+01  0.28153513629E+02  0.28447349155E+02  0.51100000000E-03 0. -1.
        -11    1    3    3    0    0  0.17052360051E+01  0.66740713929E+01  0.14910156683E+02  0.16424488771E+02  0.51100000000E-03 0.  1.
         12    1    3    3    0    0  0.49430155998E+01 -0.38704875196E+00 -0.27237110861E+01  0.56570144102E+01  0.00000000000E+00 0. -1.
</event>
<event>
 7    1  0.2969156E-011  0.5052886E+02  0.7816164E-02  0.1300439E+00
        -11   -1    0    0    0    0  0.00000000000E+00  0.00000000000E+00  0.45593999997E+02  0.45594000000E+02  0.51100000000E-03 0. -1.
         11   -1    0    0    0    0 -0.00000000000E+00 -0.00000000000E+00 -0.45593999997E+02  0.45594000000E+02  0.51100000000E-03 0.  1.
    9900012    2    1    2    0    0 -0.75575288146E+01  0.37611575242E+02 -0.13469182183E+02  0.50528859543E+02  0.29999999067E+02 0.  0.
         12    1    1    2    0    0  0.75575288146E+01 -0.37611575242E+02  0.13469182183E+02  0.40659140457E+02  0.00000000000E+00 0. -1.
         11    1    3    3    0    0  0.82021247403E+01  0.17255312916E+02 -0.32100159240E+01  0.19373303192E+02  0.51100000000E-03 0.  1.
        -11    1    3    3    0    0 -0.73424464014E+01  0.12392085608E+02  0.16991373219E+01  0.14503874406E+02  0.51100000000E-03 0. -1.
        -12    1    3    3    0    0 -0.84172071535E+01  0.79641767183E+01 -0.11958303581E+02  0.16651681945E+02  0.00000000000E+00 0.  1.
</event>
<event>
 7    1  0.2969156E-011  0.5052884E+02  0.7816164E-02  0.1300439E+00
        -11   -1    0    0    0    0  0.00000000000E+00  0.00000000000E+00  0.45593999997E+02  0.45594000000E+02  0.51100000000E-03 0. -1.
         11   -1    0    0    0    0 -0.00000000000E+00 -0.00000000000E+00 -0.45593999997E+02  0.45594000000E+02  0.51100000000E-03 0.  1.
    9900012    2    1    2    0    0 -0.83164680242E+01  0.35850433832E+02 -0.17284391332E+02  0.50528838301E+02  0.29999934500E+02 0.  0.
         12    1    1    2    0    0  0.83164680242E+01 -0.35850433832E+02  0.17284391332E+02  0.40659161699E+02  0.00000000000E+00 0. -1.
         11    1    3    3    0    0 -0.56842338271E+01  0.25457903479E+02 -0.14055817292E+00  0.26085151343E+02  0.51100000000E-03 0. -1.
        -11    1    3    3    0    0  0.17659022776E+01  0.12083313512E+02 -0.95318005540E+01  0.15491291048E+02  0.51100000000E-03 0.  1.
         12    1    3    3    0    0 -0.43981364747E+01 -0.16907831585E+01 -0.76120326055E+01  0.89523959098E+01  0.00000000000E+00 0. -1.
</event>
<event>
 7    1  0.2969156E-011  0.5052886E+02  0.7816164E-02  0.1300439E+00
        -11   -1    0    0    0    0  0.00000000000E+00  0.00000000000E+00  0.45593999997E+02  0.45594000000E+02  0.51100000000E-03 0.  1.
         11   -1    0    0    0    0 -0.00000000000E+00 -0.00000000000E+00 -0.45593999997E+02  0.45594000000E+02  0.51100000000E-03 0. -1.
    9900012    2    1    2    0    0  0.26516789135E+02 -0.48882824057E+01  0.30432382782E+02  0.50528864093E+02  0.30000012898E+02 0.  0.
         12    1    1    2    0    0 -0.26516789135E+02  0.48882824057E+01 -0.30432382782E+02  0.40659135907E+02  0.00000000000E+00 0. -1.
         11    1    3    3    0    0  0.72075569595E+01 -0.54228590630E+01  0.20967869828E+02  0.22825596227E+02  0.51100000000E-03 0. -1.
        -11    1    3    3    0    0  0.52558296146E+01  0.74034558650E+00  0.12272061373E+02  0.13370689852E+02  0.51100000000E-03 0.  1.
         12    1    3    3    0    0  0.14053402561E+02 -0.20576892924E+00 -0.28075484192E+01  0.14332578014E+02  0.00000000000E+00 0. -1.
</event>
<event>
 7    1  0.2969156E-011  0.5052886E+02  0.7816164E-02  0.1300439E+00
        -11   -1    0    0    0    0  0.00000000000E+00  0.00000000000E+00  0.45593999997E+02  0.45594000000E+02  0.51100000000E-03 0. -1.
         11   -1    0    0    0    0 -0.00000000000E+00 -0.00000000000E+00 -0.45593999997E+02  0.45594000000E+02  0.51100000000E-03 0.  1.
    9900012    2    1    2    0    0 -0.21836328475E+02 -0.20624274905E+01 -0.34235758375E+02  0.50528855887E+02  0.29999987955E+02 0.  0.
         12    1    1    2    0    0  0.21836328475E+02  0.20624274905E+01  0.34235758375E+02  0.40659144113E+02  0.00000000000E+00 0. -1.
         11    1    3    3    0    0 -0.14137952692E+02 -0.13153894986E+02 -0.13670840158E+02  0.23660061930E+02  0.51100000000E-03 0. -1.
        -11    1    3    3    0    0 -0.21968759134E+01  0.34627792866E+00 -0.11654380031E+02  0.11864684840E+02  0.51100000000E-03 0.  1.
        -12    1    3    3    0    0 -0.55014998699E+01  0.10745189567E+02 -0.89105381867E+01  0.15004109118E+02  0.00000000000E+00 0.  1.
</event>
<event>
 7    1  0.2969156E-011  0.5052886E+02  0.7816164E-02  0.1300439E+00
        -11   -1    0    0    0    0  0.00000000000E+00  0.00000000000E+00  0.45593999997E+02  0.45594000000E+02  0.51100000000E-03 0.  1.
         11   -1    0    0    0    0 -0.00000000000E+00 -0.00000000000E+00 -0.45593999997E+02  0.45594000000E+02  0.51100000000E-03 0. -1.
    9900012    2    1    2    0    0 -0.80413949302E+01 -0.37446345423E+02  0.13648182474E+02  0.50528859542E+02  0.29999999063E+02 0.  0.
         12    1    1    2    0    0  0.80413949302E+01  0.37446345423E+02 -0.13648182474E+02  0.40659140458E+02  0.00000000000E+00 0. -1.
         11    1    3    3    0    0 -0.13584622665E+02 -0.14282487543E+02  0.12904299021E+02  0.23559549165E+02  0.51100000000E-03 0.  1.
        -11    1    3    3    0    0  0.41513431186E+01 -0.30355429017E+01 -0.36671967594E+01  0.63163678431E+01  0.51100000000E-03 0. -1.
        -12    1    3    3    0    0  0.13918846157E+01 -0.20128314979E+02  0.44110802115E+01  0.20652942534E+02  0.00000000000E+00 0.  1.
</event>
<event>
 7    1  0.2969156E-011  0.5052887E+02  0.7816164E-02  0.1300439E+00
        -11   -1    0    0    0    0  0.00000000000E+00  0.00000000000E+00  0.45593999997E+02  0.45594000000E+02  0.51100000000E-03 0. -1.
         11   -1    0    0    0    0 -0.00000000000E+00 -0.00000000000E+00 -0.45593999997E+02  0.45594000000E+02  0.51100000000E-03 0.  1.
    9900012    2    1    2    0    0  0.40837256294E+01 -0.37393757295E+01 -0.40280331922E+02  0.50528869591E+02  0.30000029609E+02 0.  0.
         12    1    1    2    0    0 -0.40837256294E+01  0.37393757295E+01  0.40280331922E+02  0.40659130409E+02  0.00000000000E+00 0. -1.
         11    1    3    3    0    0 -0.12951903721E+01  0.61833369438E+01 -0.23475387944E+02  0.24310594670E+02  0.51100000000E-03 0.  1.
        -11    1    3    3    0    0 -0.52998511277E+01 -0.68748904752E+01 -0.97844561288E+01  0.13080065864E+02  0.51100000000E-03 0. -1.
         12    1    3    3    0    0  0.10678767129E+02 -0.30478221981E+01 -0.70204878496E+01  0.13138209056E+02  0.00000000000E+00 0. -1.
</event>
<event>
 7    1  0.2969156E-011  0.5052885E+02  0.7816164E-02  0.1300439E+00
        -11   -1    0    0    0    0  0.00000000000E+00  0.00000000000E+00  0.45593999997E+02  0.45594000000E+02  0.51100000000E-03 0. -1.
         11   -1    0    0    0    0 -0.00000000000E+00 -0.00000000000E+00 -0.45593999997E+02  0.45594000000E+02  0.51100000000E-03 0.  1.
    9900012    2    1    2    0    0  0.14362187210E+02  0.27942732113E+02 -0.25808871471E+02  0.50528849173E+02  0.29999967546E+02 0.  0.
         12    1    1    2    0    0 -0.14362187210E+02 -0.27942732113E+02  0.25808871471E+02  0.40659150827E+02  0.00000000000E+00 0. -1.
         11    1    3    3    0    0  0.57755818968E+01  0.13373586974E+01  0.72040610422E+00  0.59720063419E+01  0.51100000000E-03 0. -1.
        -11    1    3    3    0    0  0.98615986023E+01  0.30004095690E+02 -0.20947326693E+02  0.37898382300E+02  0.51100000000E-03 0.  1.
         12    1    3    3    0    0 -0.12749932894E+01 -0.33987222744E+01 -0.55819508823E+01  0.66584605307E+01  0.00000000000E+00 0. -1.
</event>
<event>
 7    1  0.2969156E-011  0.5052886E+02  0.7816164E-02  0.1300439E+00
        -11   -1    0    0    0    0  0.00000000000E+00  0.00000000000E+00  0.45593999997E+02  0.45594000000E+02  0.51100000000E-03 0.  1.
         11   -1    0    0    0    0 -0.00000000000E+00 -0.00000000000E+00 -0.45593999997E+02  0.45594000000E+02  0.51100000000E-03 0. -1.
    9900012    2    1    2    0    0 -0.58765325613E+01 -0.16721775477E+02  0.36592541249E+02  0.50528862219E+02  0.30000007200E+02 0.  0.
         12    1    1    2    0    0  0.58765325613E+01  0.16721775477E+02 -0.36592541249E+02  0.40659137781E+02  0.00000000000E+00 0. -1.
         11    1    3    3    0    0  0.24373566961E+00 -0.16586486132E+02  0.20871093898E+02  0.26660335520E+02  0.51100000000E-03 0. -1.
        -11    1    3    3    0    0  0.51059534711E+01  0.15562132885E+01  0.12625245736E+01  0.54851188873E+01  0.51100000000E-03 0.  1.
        -12    1    3    3    0    0 -0.11226221702E+02 -0.16915026333E+01  0.14458922778E+02  0.18383407811E+02  0.00000000000E+00 0.  1.
</event>
<event>
 7    1  0.2969156E-011  0.5052886E+02  0.7816164E-02  0.1300439E+00
        -11   -1    0    0    0    0  0.00000000000E+00  0.00000000000E+00  0.45593999997E+02  0.45594000000E+02  0.51100000000E-03 0. -1.
         11   -1    0    0    0    0 -0.00000000000E+00 -0.00000000000E+00 -0.45593999997E+02  0.45594000000E+02  0.51100000000E-03 0.  1.
    9900012    2    1    2    0    0  0.24388072233E+02  0.29550937906E+02 -0.13606229016E+02  0.50528862449E+02  0.30000007901E+02 0.  0.
         12    1    1    2    0    0 -0.24388072233E+02 -0.29550937906E+02  0.13606229016E+02  0.40659137551E+02  0.00000000000E+00 0. -1.
         11    1    3    3    0    0 -0.28992492487E+00 -0.28910485246E+01 -0.47351059411E+01  0.55554879685E+01  0.51100000000E-03 0. -1.
        -11    1    3    3    0    0  0.10952305692E+02  0.96329039170E+01 -0.10998847449E+02  0.18268018045E+02  0.51100000000E-03 0.  1.
         12    1    3    3    0    0  0.13725691466E+02  0.22809082513E+02  0.21277243745E+01  0.26705356435E+02  0.00000000000E+00 0. -1.
</event>
<event>
 7    1  0.2969156E-011  0.5052887E+02  0.7816164E-02  0.1300439E+00
        -11   -1    0    0    0    0  0.00000000000E+00  0.00000000000E+00  0.45593999997E+02  0.45594000000E+02  0.51100000000E-03 0.  1.
         11   -1    0    0    0    0 -0.00000000000E+00 -0.00000000000E+00 -0.45593999997E+02  0.45594000000E+02  0.51100000000E-03 0. -1.
    9900012    2    1    2    0    0  0.11244484874E+02  0.43926048673E+00  0.39070872831E+02  0.50528874412E+02  0.30000044262E+02 0.  0.
         12    1    1    2    0    0 -0.11244484874E+02 -0.43926048673E+00 -0.39070872831E+02  0.40659125588E+02  0.00000000000E+00 0. -1.
         11    1    3    3    0    0  0.21283636306E+01  0.18203345939E+01  0.42378706209E+01  0.50796749344E+01  0.51100000000E-03 0. -1.
        -11    1    3    3    0    0  0.16097854203E+01 -0.11392972345E+02  0.40131648338E+01  0.12185923035E+02  0.51100000000E-03 0.  1.
         12    1    3    3    0    0  0.75063358235E+01  0.10011898238E+02  0.30819837376E+02  0.33263276443E+02  0.00000000000E+00 0. -1.
</event>
<event>
 7    1  0.2969156E-011  0.5052890E+02  0.7816164E-02  0.1300439E+00
        -11   -1    0    0    0    0  0.00000000000E+00  0.00000000000E+00  0.45593999997E+02  0.45594000000E+02  0.51100000000E-03 0.  1.
         11   -1    0    0    0    0 -0.00000000000E+00 -0.00000000000E+00 -0.45593999997E+02  0.45594000000E+02  0.51100000000E-03 0. -1.
    9900012    2    1    2    0    0  0.20106077894E+02  0.27978382932E+02  0.21589768350E+02  0.50528900438E+02  0.30000123371E+02 0.  0.
         12    1    1    2    0    0 -0.20106077894E+02 -0.27978382932E+02 -0.21589768350E+02  0.40659099562E+02  0.00000000000E+00 0. -1.
         11    1    3    3    0    0 -0.30005422564E+01  0.96791515241E+01  0.44134452480E+00  0.10143175701E+02  0.51100000000E-03 0. -1.
        -11    1    3    3    0    0  0.72625073968E+01  0.10240947020E+02  0.18582175823E+02  0.22425839296E+02  0.51100000000E-03 0.  1.
         12    1    3    3    0    0  0.15844112754E+02  0.80582843885E+01  0.25662480027E+01  0.17959885441E+02  0.00000000000E+00 0. -1.
</event>
<event>
 7    1  0.2969156E-011  0.5052885E+02  0.7816164E-02  0.1300439E+00
        -11   -1    0    0    0    0  0.00000000000E+00  0.00000000000E+00  0.45593999997E+02  0.45594000000E+02  0.51100000000E-03 0. -1.
         11   -1    0    0    0    0 -0.00000000000E+00 -0.00000000000E+00 -0.45593999997E+02  0.45594000000E+02  0.51100000000E-03 0.  1.
    9900012    2    1    2    0    0 -0.24233056345E+02 -0.16935397165E+02 -0.27912676052E+02  0.50528853657E+02  0.29999981174E+02 0.  0.
         12    1    1    2    0    0  0.24233056345E+02  0.16935397165E+02  0.27912676052E+02  0.40659146343E+02  0.00000000000E+00 0. -1.
         11    1    3    3    0    0 -0.88204945958E+01  0.41967601751E+01 -0.16256609657E+02  0.18965528695E+02  0.51100000000E-03 0. -1.
        -11    1    3    3    0    0 -0.58349371855E+01 -0.11775026030E+02 -0.12513333405E+02  0.18146108209E+02  0.51100000000E-03 0.  1.
         12    1    3    3    0    0 -0.95776245638E+01 -0.93571313107E+01  0.85726701016E+00  0.13417216752E+02  0.00000000000E+00 0. -1.
</event>
<event>
 7    1  0.2969156E-011  0.5052892E+02  0.7816164E-02  0.1300439E+00
        -11   -1    0    0    0    0  0.00000000000E+00  0.00000000000E+00  0.45593999997E+02  0.45594000000E+02  0.51100000000E-03 0.  1.
         11   -1    0    0    0    0 -0.00000000000E+00 -0.00000000000E+00 -0.45593999997E+02  0.45594000000E+02  0.51100000000E-03 0. -1.
    9900012    2    1    2    0    0  0.12637882566E+00  0.21207733540E+02  0.34689721929E+02  0.50528920559E+02  0.30000184530E+02 0.  0.
         12    1    1    2    0    0 -0.12637882566E+00 -0.21207733540E+02 -0.34689721929E+02  0.40659079441E+02  0.00000000000E+00 0. -1.
         11    1    3    3    0    0 -0.27005306275E+00 -0.22934672041E+01 -0.19946726776E+01  0.30514979641E+01  0.51100000000E-03 0. -1.
        -11    1    3    3    0    0  0.18336131331E+01  0.11155316538E+02  0.31828402578E+01  0.11744517723E+02  0.51100000000E-03 0.  1.
        -12    1    3    3    0    0 -0.14371812447E+01  0.12345884206E+02  0.33501554349E+02  0.35732904871E+02  0.00000000000E+00 0.  1.
</event>
<event>
 7    1  0.2969156E-011  0.5052884E+02  0.7816164E-02  0.1300439E+00
        -11   -1    0    0    0    0  0.00000000000E+00  0.00000000000E+00  0.45593999997E+02  0.45594000000E+02  0.51100000000E-03 0. -1.
         11   -1    0    0    0    0 -0.00000000000E+00 -0.00000000000E+00 -0.45593999997E+02  0.45594000000E+02  0.51100000000E-03 0.  1.
    9900012    2    1    2    0    0  0.21872733493E+02 -0.15384870289E+02  0.30627715964E+02  0.50528835112E+02  0.29999924806E+02 0.  0.
         12    1    1    2    0    0 -0.21872733493E+02  0.15384870289E+02 -0.30627715964E+02  0.40659164888E+02  0.00000000000E+00 0. -1.
         11    1    3    3    0    0  0.46734188928E+01  0.42573973389E+01  0.94907769225E+01  0.11403557476E+02  0.51100000000E-03 0. -1.
        -11    1    3    3    0    0  0.16864424050E+02 -0.40896179378E+01  0.10556342442E+02  0.20311822651E+02  0.51100000000E-03 0.  1.
        -12    1    3    3    0    0  0.33489055032E+00 -0.15552649690E+02  0.10580596599E+02  0.18813454985E+02  0.00000000000E+00 0.  1.
</event>
<event>
 7    1  0.2969156E-011  0.5052887E+02  0.7816164E-02  0.1300439E+00
        -11   -1    0    0    0    0  0.00000000000E+00  0.00000000000E+00  0.45593999997E+02  0.45594000000E+02  0.51100000000E-03 0. -1.
         11   -1    0    0    0    0 -0.00000000000E+00 -0.00000000000E+00 -0.45593999997E+02  0.45594000000E+02  0.51100000000E-03 0.  1.
    9900012    2    1    2    0    0 -0.67210309806E+01 -0.33998382767E+02 -0.21262707657E+02  0.50528867875E+02  0.30000024394E+02 0.  0.
         12    1    1    2    0    0  0.67210309806E+01  0.33998382767E+02  0.21262707657E+02  0.40659132125E+02  0.00000000000E+00 0. -1.
         11    1    3    3    0    0  0.97573947236E+00  0.21246374644E+01  0.12193043312E+01  0.26368267267E+01  0.51100000000E-03 0. -1.
        -11    1    3    3    0    0  0.56434987209E+01 -0.22584459419E+02 -0.12170682009E+02  0.26268467521E+02  0.51100000000E-03 0.  1.
        -12    1    3    3    0    0 -0.13340269174E+02 -0.13538560812E+02 -0.10311329979E+02  0.21623573628E+02  0.00000000000E+00 0.  1.
</event>
<event>
 7    1  0.2969156E-011  0.5052887E+02  0.7816164E-02  0.1300439E+00
        -11   -1    0    0    0    0  0.00000000000E+00  0.00000000000E+00  0.45593999997E+02  0.45594000000E+02  0.51100000000E-03 0. -1.
         11   -1    0    0    0    0 -0.00000000000E+00 -0.00000000000E+00 -0.45593999997E+02  0.45594000000E+02  0.51100000000E-03 0.  1.
    9900012    2    1    2    0    0 -0.31785076759E+02  0.58483435979E+01 -0.24671253233E+02  0.50528868633E+02  0.30000026696E+02 0.  0.
         12    1    1    2    0    0  0.31785076759E+02 -0.58483435979E+01  0.24671253233E+02  0.40659131367E+02  0.00000000000E+00 0. -1.
         11    1    3    3    0    0 -0.16061112949E+01 -0.38702940335E+01 -0.47173127697E+01  0.63096600087E+01  0.51100000000E-03 0. -1.
        -11    1    3    3    0    0 -0.23579146441E+02 -0.23953231309E+01 -0.56864540232E+01  0.24373130275E+02  0.51100000000E-03 0.  1.
         12    1    3    3    0    0 -0.65998190234E+01  0.12113960762E+02 -0.14267486441E+02  0.19846078349E+02  0.00000000000E+00 0. -1.
</event>
<event>
 7    1  0.2969156E-011  0.5052886E+02  0.7816164E-02  0.1300439E+00
        -11   -1    0    0    0    0  0.00000000000E+00  0.00000000000E+00  0.45593999997E+02  0.45594000000E+02  0.51100000000E-03 0. -1.
         11   -1    0    0    0    0 -0.00000000000E+00 -0.00000000000E+00 -0.45593999997E+02  0.45594000000E+02  0.51100000000E-03 0.  1.
    9900012    2    1    2    0    0 -0.22224619784E+02  0.33606627610E+02 -0.54613997552E+01  0.50528855504E+02  0.29999986790E+02 0.  0.
         12    1    1    2    0    0  0.22224619784E+02 -0.33606627610E+02  0.54613997552E+01  0.40659144496E+02  0.00000000000E+00 0. -1.
         11    1    3    3    0    0 -0.11569815988E+02  0.31621792097E+02 -0.27867515037E+01  0.33787044287E+02  0.51100000000E-03 0. -1.
        -11    1    3    3    0    0 -0.69066181208E+01  0.59595317212E+01 -0.54372001570E+01  0.10619818172E+02  0.51100000000E-03 0.  1.
         12    1    3    3    0    0 -0.37481856760E+01 -0.39746962087E+01  0.27625519055E+01  0.61219930450E+01  0.00000000000E+00 0. -1.
</event>
<event>
 7    1  0.2969156E-011  0.5052886E+02  0.7816164E-02  0.1300439E+00
        -11   -1    0    0    0    0  0.00000000000E+00  0.00000000000E+00  0.45593999997E+02  0.45594000000E+02  0.51100000000E-03 0.  1.
         11   -1    0    0    0    0 -0.00000000000E+00 -0.00000000000E+00 -0.45593999997E+02  0.45594000000E+02  0.51100000000E-03 0. -1.
    9900012    2    1    2    0    0  0.19342077099E+02  0.26589372208E+02 -0.23917671970E+02  0.50528859658E+02  0.29999999416E+02 0.  0.
         12    1    1    2    0    0 -0.19342077099E+02 -0.26589372208E+02  0.23917671970E+02  0.40659140342E+02  0.00000000000E+00 0. -1.
         11    1    3    3    0    0  0.24447182684E+01 -0.48401480251E+01 -0.86967952457E+01  0.10248801302E+02  0.51100000000E-03 0. -1.
        -11    1    3    3    0    0  0.79006449451E+01  0.62969728523E+01 -0.72021835458E+01  0.12407397219E+02  0.51100000000E-03 0.  1.
        -12    1    3    3    0    0  0.89967138851E+01  0.25132547381E+02 -0.80186931781E+01  0.27872661137E+02  0.00000000000E+00 0.  1.
</event>
<event>
 7    1  0.2969156E-011  0.5052888E+02  0.7816164E-02  0.1300439E+00
        -11   -1    0    0    0    0  0.00000000000E+00  0.00000000000E+00  0.45593999997E+02  0.45594000000E+02  0.51100000000E-03 0.  1.
         11   -1    0    0    0    0 -0.00000000000E+00 -0.00000000000E+00 -0.45593999997E+02  0.45594000000E+02  0.51100000000E-03 0. -1.
    9900012    2    1    2    0    0 -0.37021539482E+02  0.11279296692E+02  0.12463846013E+02  0.50528875847E+02  0.30000048624E+02 0.  0.
         12    1    1    2    0    0  0.37021539482E+02 -0.11279296692E+02 -0.12463846013E+02  0.40659124153E+02  0.00000000000E+00 0. -1.
         11    1    3    3    0    0 -0.10048262536E+02 -0.35057068637E+01  0.33446386142E+01  0.11155454645E+02  0.51100000000E-03 0.  1.
        -11    1    3    3    0    0 -0.97482916711E+01 -0.51873824356E+01  0.66348236593E+01  0.12882507997E+02  0.51100000000E-03 0. -1.
         12    1    3    3    0    0 -0.17224985275E+02  0.19972385991E+02  0.24843837399E+01  0.26490913205E+02  0.00000000000E+00 0. -1.
</event>
<event>
 7    1  0.2969156E-011  0.5052886E+02  0.7816164E-02  0.1300439E+00
        -11   -1    0    0    0    0  0.00000000000E+00  0.00000000000E+00  0.45593999997E+02  0.45594000000E+02  0.51100000000E-03 0.  1.
         11   -1    0    0    0    0 -0.00000000000E+00 -0.00000000000E+00 -0.45593999997E+02  0.45594000000E+02  0.51100000000E-03 0. -1.
    9900012    2    1    2    0    0 -0.39881444416E+02  0.71816041177E+01 -0.33257956715E+01  0.50528856339E+02  0.29999989327E+02 0.  0.
         12    1    1    2    0    0  0.39881444416E+02 -0.71816041177E+01  0.33257956715E+01  0.40659143661E+02  0.00000000000E+00 0. -1.
         11    1    3    3    0    0 -0.11330748359E+02  0.15284799198E+02 -0.52193930267E+01  0.19729495907E+02  0.51100000000E-03 0. -1.
        -11    1    3    3    0    0 -0.87153232556E+01 -0.60799541461E+01 -0.90785340092E+00  0.10665219169E+02  0.51100000000E-03 0.  1.
        -12    1    3    3    0    0 -0.19835372801E+02 -0.20232409347E+01  0.28014507561E+01  0.20134141263E+02  0.00000000000E+00 0.  1.
</event>
<event>
 7    1  0.2969156E-011  0.5052886E+02  0.7816164E-02  0.1300439E+00
        -11   -1    0    0    0    0  0.00000000000E+00  0.00000000000E+00  0.45593999997E+02  0.45594000000E+02  0.51100000000E-03 0.  1.
         11   -1    0    0    0    0 -0.00000000000E+00 -0.00000000000E+00 -0.45593999997E+02  0.45594000000E+02  0.51100000000E-03 0. -1.
    9900012    2    1    2    0    0 -0.25751509781E+02 -0.14564213261E+02  0.27891025690E+02  0.50528857388E+02  0.29999992516E+02 0.  0.
         12    1    1    2    0    0  0.25751509781E+02  0.14564213261E+02 -0.27891025690E+02  0.40659142612E+02  0.00000000000E+00 0. -1.
         11    1    3    3    0    0 -0.89164682027E+01 -0.16551974294E+01  0.16508906415E+02  0.18835792392E+02  0.51100000000E-03 0. -1.
        -11    1    3    3    0    0  0.39898614324E+01  0.12844290487E+00  0.48279614063E+01  0.62645593166E+01  0.51100000000E-03 0.  1.
         12    1    3    3    0    0 -0.20824903011E+02 -0.13037458736E+02  0.65541578682E+01  0.25428505679E+02  0.00000000000E+00 0. -1.
</event>
<event>
 7    1  0.2969156E-011  0.5052886E+02  0.7816164E-02  0.1300439E+00
        -11   -1    0    0    0    0  0.00000000000E+00  0.00000000000E+00  0.45593999997E+02  0.45594000000E+02  0.51100000000E-03 0.  1.
         11   -1    0    0    0    0 -0.00000000000E+00 -0.00000000000E+00 -0.45593999997E+02  0.45594000000E+02  0.51100000000E-03 0. -1.
    9900012    2    1    2    0    0  0.24915222288E+02 -0.20095625609E+02  0.25071165471E+02  0.50528858244E+02  0.29999995118E+02 0.  0.
         12    1    1    2    0    0 -0.24915222288E+02  0.20095625609E+02 -0.25071165471E+02  0.40659141756E+02  0.00000000000E+00 0. -1.
         11    1    3    3    0    0  0.21221141331E+02 -0.12871250633E+02  0.71341965738E+01  0.25824459206E+02  0.51100000000E-03 0. -1.
        -11    1    3    3    0    0  0.21167911275E+01 -0.11296322019E+02  0.84636707051E+01  0.14273101201E+02  0.51100000000E-03 0.  1.
         12    1    3    3    0    0  0.15772898294E+01  0.40719470429E+01  0.94732981921E+01  0.10431297837E+02  0.00000000000E+00 0. -1.
</event>
<event>
 7    1  0.2969156E-011  0.5052886E+02  0.7816164E-02  0.1300439E+00
        -11   -1    0    0    0    0  0.00000000000E+00  0.00000000000E+00  0.45593999997E+02  0.45594000000E+02  0.51100000000E-03 0. -1.
         11   -1    0    0    0    0 -0.00000000000E+00 -0.00000000000E+00 -0.45593999997E+02  0.45594000000E+02  0.51100000000E-03 0.  1.
    9900012    2    1    2    0    0  0.35686123093E+02 -0.17936932848E+02  0.76113644685E+01  0.50528858217E+02  0.29999995038E+02 0.  0.
         12    1    1    2    0    0 -0.35686123093E+02  0.17936932848E+02 -0.76113644685E+01  0.40659141783E+02  0.00000000000E+00 0. -1.
         11    1    3    3    0    0 -0.15277307450E+01 -0.58315000533E+01  0.35744639381E-01  0.60284021134E+01  0.51100000000E-03 0. -1.
        -11    1    3    3    0    0  0.17482762217E+02 -0.14876664369E+02 -0.60024138959E+00  0.22963501637E+02  0.51100000000E-03 0.  1.
        -12    1    3    3    0    0  0.19731091622E+02  0.27712315745E+01  0.81758612187E+01  0.21536954467E+02  0.00000000000E+00 0.  1.
</event>
<event>
 7    1  0.2969156E-011  0.5052887E+02  0.7816164E-02  0.1300439E+00
        -11   -1    0    0    0    0  0.00000000000E+00  0.00000000000E+00  0.45593999997E+02  0.45594000000E+02  0.51100000000E-03 0.  1.
         11   -1    0    0    0    0 -0.00000000000E+00 -0.00000000000E+00 -0.45593999997E+02  0.45594000000E+02  0.51100000000E-03 0. -1.
    9900012    2    1    2    0    0 -0.54698228427E+01  0.25320228938E+00  0.40288726639E+02  0.50528873503E+02  0.30000041499E+02 0.  0.
         12    1    1    2    0    0  0.54698228427E+01 -0.25320228938E+00 -0.40288726639E+02  0.40659126497E+02  0.00000000000E+00 0. -1.
         11    1    3    3    0    0 -0.12734592891E+02  0.68975990774E+01  0.14356134186E+02  0.20392285752E+02  0.51100000000E-03 0. -1.
        -11    1    3    3    0    0  0.38834894416E+01 -0.53847574551E+01  0.36748312339E+01  0.75882466981E+01  0.51100000000E-03 0.  1.
        -12    1    3    3    0    0  0.33812806068E+01 -0.12596393330E+01  0.22257761219E+02  0.22548341053E+02  0.00000000000E+00 0.  1.
</event>
<event>
 7    1  0.2969156E-011  0.5052885E+02  0.7816164E-02  0.1300439E+00
        -11   -1    0    0    0    0  0.00000000000E+00  0.00000000000E+00  0.45593999997E+02  0.45594000000E+02  0.51100000000E-03 0.  1.
         11   -1    0    0    0    0 -0.00000000000E+00 -0.00000000000E+00 -0.45593999997E+02  0.45594000000E+02  0.51100000000E-03 0. -1.
    9900012    2    1    2    0    0 -0.24569100491E+00  0.39761162415E+02  0.84944784832E+01  0.50528848934E+02  0.29999966821E+02 0.  0.
         12    1    1    2    0    0  0.24569100491E+00 -0.39761162415E+02 -0.84944784832E+01  0.40659151066E+02  0.00000000000E+00 0. -1.
         11    1    3    3    0    0 -0.32517596559E+01  0.23392693200E+02 -0.56453460313E+01  0.24282956330E+02  0.51100000000E-03 0. -1.
        -11    1    3    3    0    0  0.86253765067E+01  0.83577297562E+01  0.55722136133E+01  0.13240027620E+02  0.51100000000E-03 0.  1.
        -12    1    3    3    0    0 -0.56193078558E+01  0.80107394585E+01  0.85676109012E+01  0.13005864985E+02  0.00000000000E+00 0.  1.
</event>
<event>
 7    1  0.2969156E-011  0.5052885E+02  0.7816164E-02  0.1300439E+00
        -11   -1    0    0    0    0  0.00000000000E+00  0.00000000000E+00  0.45593999997E+02  0.45594000000E+02  0.51100000000E-03 0. -1.
         11   -1    0    0    0    0 -0.00000000000E+00 -0.00000000000E+00 -0.45593999997E+02  0.45594000000E+02  0.51100000000E-03 0.  1.
    9900012    2    1    2    0    0  0.95369178512E+01  0.14905864771E+02 -0.36606405510E+02  0.50528849357E+02  0.29999968104E+02 0.  0.
         12    1    1    2    0    0 -0.95369178512E+01 -0.14905864771E+02  0.36606405510E+02  0.40659150643E+02  0.00000000000E+00 0. -1.
         11    1    3    3    0    0  0.49633992985E+01 -0.64069548753E+01 -0.83782448126E+01  0.11656731522E+02  0.51100000000E-03 0. -1.
        -11    1    3    3    0    0  0.26234517934E+01  0.36722784732E+01  0.10509604347E+01  0.46338587153E+01  0.51100000000E-03 0.  1.
         12    1    3    3    0    0  0.19500667593E+01  0.17640541174E+02 -0.29279121132E+02  0.34238259119E+02  0.00000000000E+00 0. -1.
</event>
<event>
 7    1  0.2969156E-011  0.5052886E+02  0.7816164E-02  0.1300439E+00
        -11   -1    0    0    0    0  0.00000000000E+00  0.00000000000E+00  0.45593999997E+02  0.45594000000E+02  0.51100000000E-03 0.  1.
         11   -1    0    0    0    0 -0.00000000000E+00 -0.00000000000E+00 -0.45593999997E+02  0.45594000000E+02  0.51100000000E-03 0. -1.
    9900012    2    1    2    0    0  0.20891085662E+02  0.31462690932E+02  0.15060791802E+02  0.50528857971E+02  0.29999994289E+02 0.  0.
         12    1    1    2    0    0 -0.20891085662E+02 -0.31462690932E+02 -0.15060791802E+02  0.40659142029E+02  0.00000000000E+00 0. -1.
         11    1    3    3    0    0  0.18550895706E+02  0.76174041818E+01  0.42352744747E+01  0.20496295473E+02  0.51100000000E-03 0. -1.
        -11    1    3    3    0    0  0.32654831750E+01  0.25524197413E+01  0.73500422456E+01  0.84380891306E+01  0.51100000000E-03 0.  1.
         12    1    3    3    0    0 -0.92529321909E+00  0.21292867009E+02  0.34754750819E+01  0.21594473368E+02  0.00000000000E+00 0. -1.
</event>
<event>
 7    1  0.2969156E-011  0.5052886E+02  0.7816164E-02  0.1300439E+00
        -11   -1    0    0    0    0  0.00000000000E+00  0.00000000000E+00  0.45593999997E+02  0.45594000000E+02  0.51100000000E-03 0.  1.
         11   -1    0    0    0    0 -0.00000000000E+00 -0.00000000000E+00 -0.45593999997E+02  0.45594000000E+02  0.51100000000E-03 0. -1.
    9900012    2    1    2    0    0  0.39773541780E+02  0.74983318181E-02  0.84398425067E+01  0.50528860517E+02  0.30000002029E+02 0.  0.
         12    1    1    2    0    0 -0.39773541780E+02 -0.74983318181E-02 -0.84398425067E+01  0.40659139483E+02  0.00000000000E+00 0. -1.
         11    1    3    3    0    0  0.97714162228E+01 -0.75829982938E+01 -0.12438649260E+01  0.12430995066E+02  0.51100000000E-03 0. -1.
        -11    1    3    3    0    0  0.22563288187E+02  0.74572844200E+01 -0.24239272260E+01  0.23886994122E+02  0.51100000000E-03 0.  1.
         12    1    3    3    0    0  0.74388373702E+01  0.13321220559E+00  0.12107634659E+02  0.14210871329E+02  0.00000000000E+00 0. -1.
</event>
<event>
 7    1  0.2969156E-011  0.5052888E+02  0.7816164E-02  0.1300439E+00
        -11   -1    0    0    0    0  0.00000000000E+00  0.00000000000E+00  0.45593999997E+02  0.45594000000E+02  0.51100000000E-03 0.  1.
         11   -1    0    0    0    0 -0.00000000000E+00 -0.00000000000E+00 -0.45593999997E+02  0.45594000000E+02  0.51100000000E-03 0. -1.
    9900012    2    1    2    0    0 -0.28159903391E+02  0.18533594264E+02  0.22730803510E+02  0.50528884128E+02  0.30000073795E+02 0.  0.
         12    1    1    2    0    0  0.28159903391E+02 -0.18533594264E+02 -0.22730803510E+02  0.40659115872E+02  0.00000000000E+00 0. -1.
         11    1    3    3    0    0 -0.19895737343E+02  0.21522443709E+02  0.15687764518E+02  0.33243975446E+02  0.51100000000E-03 0. -1.
        -11    1    3    3    0    0 -0.81588616963E+01  0.37803565626E+01  0.35570215663E+01  0.96700838985E+01  0.51100000000E-03 0.  1.
        -12    1    3    3    0    0 -0.10530435142E+00 -0.67692060079E+01  0.34860174250E+01  0.76148247827E+01  0.00000000000E+00 0.  1.
</event>
<event>
 7    1  0.2969156E-011  0.5052885E+02  0.7816164E-02  0.1300439E+00
        -11   -1    0    0    0    0  0.00000000000E+00  0.00000000000E+00  0.45593999997E+02  0.45594000000E+02  0.51100000000E-03 0.  1.
         11   -1    0    0    0    0 -0.00000000000E+00 -0.00000000000E+00 -0.45593999997E+02  0.45594000000E+02  0.51100000000E-03 0. -1.
    9900012    2    1    2    0    0 -0.26211622858E+02 -0.30294964083E+02 -0.69521345914E+01  0.50528853464E+02  0.29999980589E+02 0.  0.
         12    1    1    2    0    0  0.26211622858E+02  0.30294964083E+02  0.69521345914E+01  0.40659146536E+02  0.00000000000E+00 0. -1.
         11    1    3    3    0    0 -0.15821760483E+02 -0.96452073151E+01 -0.32215928641E+01  0.18807891689E+02  0.51100000000E-03 0.  1.
        -11    1    3    3    0    0 -0.73742291453E+01 -0.17316793082E+02  0.70047042838E+01  0.20082740363E+02  0.51100000000E-03 0. -1.
         12    1    3    3    0    0 -0.30156332293E+01 -0.33329636860E+01 -0.10735246011E+02  0.11638221412E+02  0.00000000000E+00 0. -1.
</event>
<event>
 7    1  0.2969156E-011  0.5052888E+02  0.7816164E-02  0.1300439E+00
        -11   -1    0    0    0    0  0.00000000000E+00  0.00000000000E+00  0.45593999997E+02  0.45594000000E+02  0.51100000000E-03 0. -1.
         11   -1    0    0    0    0 -0.00000000000E+00 -0.00000000000E+00 -0.45593999997E+02  0.45594000000E+02  0.51100000000E-03 0.  1.
    9900012    2    1    2    0    0 -0.40590326198E+02  0.23628379148E+01  0.78037431761E-01  0.50528884494E+02  0.30000074908E+02 0.  0.
         12    1    1    2    0    0  0.40590326198E+02 -0.23628379148E+01 -0.78037431761E-01  0.40659115506E+02  0.00000000000E+00 0. -1.
         11    1    3    3    0    0 -0.32711770558E+02 -0.23599608294E+01  0.28431919229E+01  0.32919797824E+02  0.51100000000E-03 0. -1.
        -11    1    3    3    0    0 -0.10927329056E+02  0.72497778687E+01 -0.67380056014E+00  0.13130872283E+02  0.51100000000E-03 0.  1.
         12    1    3    3    0    0  0.30487734163E+01 -0.25269791245E+01 -0.20913539310E+01  0.44782143879E+01  0.00000000000E+00 0. -1.
</event>
<event>
 7    1  0.2969156E-011  0.5052887E+02  0.7816164E-02  0.1300439E+00
        -11   -1    0    0    0    0  0.00000000000E+00  0.00000000000E+00  0.45593999997E+02  0.45594000000E+02  0.51100000000E-03 0.  1.
         11   -1    0    0    0    0 -0.00000000000E+00 -0.00000000000E+00 -0.45593999997E+02  0.45594000000E+02  0.51100000000E-03 0. -1.
    9900012    2    1    2    0    0 -0.39238685435E+02 -0.18334953190E+01 -0.10494229730E+02  0.50528868217E+02  0.30000025432E+02 0.  0.
         12    1    1    2    0    0  0.39238685435E+02  0.18334953190E+01  0.10494229730E+02  0.40659131783E+02  0.00000000000E+00 0. -1.
         11    1    3    3    0    0 -0.17202764533E+02 -0.73665917311E+01  0.98251242420E-02  0.18713681575E+02  0.51100000000E-03 0. -1.
        -11    1    3    3    0    0 -0.15274133900E+02 -0.52532911792E+01 -0.10155984967E+02  0.19079839243E+02  0.51100000000E-03 0.  1.
        -12    1    3    3    0    0 -0.67617870018E+01  0.10786387591E+02 -0.34806988726E+00  0.12735347399E+02  0.00000000000E+00 0.  1.
</event>
<event>
 7    1  0.2969156E-011  0.5052886E+02  0.7816164E-02  0.1300439E+00
        -11   -1    0    0    0    0  0.00000000000E+00  0.00000000000E+00  0.45593999997E+02  0.45594000000E+02  0.51100000000E-03 0.  1.
         11   -1    0    0    0    0 -0.00000000000E+00 -0.00000000000E+00 -0.45593999997E+02  0.45594000000E+02  0.51100000000E-03 0. -1.
    9900012    2    1    2    0    0  0.12036285257E+02  0.32576521933E+02 -0.21143872680E+02  0.50528864545E+02  0.30000014270E+02 0.  0.
         12    1    1    2    0    0 -0.12036285257E+02 -0.32576521933E+02  0.21143872680E+02  0.40659135455E+02  0.00000000000E+00 0. -1.
         11    1    3    3    0    0  0.63624696150E+01  0.34375220950E+00 -0.33725153186E+01  0.72092333170E+01  0.51100000000E-03 0. -1.
        -11    1    3    3    0    0  0.13118350570E+02  0.20189341634E+02 -0.16320095359E+02  0.29086872470E+02  0.51100000000E-03 0.  1.
        -12    1    3    3    0    0 -0.74445349278E+01  0.12043428090E+02 -0.14512620020E+01  0.14232758757E+02  0.00000000000E+00 0.  1.
</event>
<event>
 7    1  0.2969156E-011  0.5052885E+02  0.7816164E-02  0.1300439E+00
        -11   -1    0    0    0    0  0.00000000000E+00  0.00000000000E+00  0.45593999997E+02  0.45594000000E+02  0.51100000000E-03 0.  1.
         11   -1    0    0    0    0 -0.00000000000E+00 -0.00000000000E+00 -0.45593999997E+02  0.45594000000E+02  0.51100000000E-03 0. -1.
    9900012    2    1    2    0    0 -0.30713428432E+01  0.23538069732E+02  0.33010488975E+02  0.50528852740E+02  0.29999978388E+02 0.  0.
         12    1    1    2    0    0  0.30713428432E+01 -0.23538069732E+02 -0.33010488975E+02  0.40659147260E+02  0.00000000000E+00 0. -1.
         11    1    3    3    0    0 -0.54789661746E+01  0.27677463268E+01 -0.63145220382E+00  0.61707554010E+01  0.51100000000E-03 0. -1.
        -11    1    3    3    0    0 -0.31569049170E+01  0.20222714171E+02  0.16385752395E+02  0.26218640295E+02  0.51100000000E-03 0.  1.
         12    1    3    3    0    0  0.55645282484E+01  0.54760923412E+00  0.17256188784E+02  0.18139457044E+02  0.00000000000E+00 0. -1.
</event>
<event>
 7    1  0.2969156E-011  0.5052886E+02  0.7816164E-02  0.1300439E+00
        -11   -1    0    0    0    0  0.00000000000E+00  0.00000000000E+00  0.45593999997E+02  0.45594000000E+02  0.51100000000E-03 0.  1.
         11   -1    0    0    0    0 -0.00000000000E+00 -0.00000000000E+00 -0.45593999997E+02  0.45594000000E+02  0.51100000000E-03 0. -1.
    9900012    2    1    2    0    0  0.25594573924E+02  0.22135119547E+02  0.22541513657E+02  0.50528861179E+02  0.30000004041E+02 0.  0.
         12    1    1    2    0    0 -0.25594573924E+02 -0.22135119547E+02 -0.22541513657E+02  0.40659138821E+02  0.00000000000E+00 0. -1.
         11    1    3    3    0    0  0.25275227367E+02  0.14651571319E+02  0.18405197907E+02  0.34529074283E+02  0.51100000000E-03 0. -1.
        -11    1    3    3    0    0  0.26325123662E+01  0.96001323936E+01  0.66582411887E+01  0.11976010994E+02  0.51100000000E-03 0.  1.
        -12    1    3    3    0    0 -0.23131658098E+01 -0.21165841663E+01 -0.25219254386E+01  0.40237759026E+01  0.00000000000E+00 0.  1.
</event>
<event>
 7    1  0.2969156E-011  0.5052886E+02  0.7816164E-02  0.1300439E+00
        -11   -1    0    0    0    0  0.00000000000E+00  0.00000000000E+00  0.45593999997E+02  0.45594000000E+02  0.51100000000E-03 0. -1.
         11   -1    0    0    0    0 -0.00000000000E+00 -0.00000000000E+00 -0.45593999997E+02  0.45594000000E+02  0.51100000000E-03 0.  1.
    9900012    2    1    2    0    0  0.35485446493E+02 -0.15444686336E+02  0.12466370218E+02  0.50528860372E+02  0.30000001587E+02 0.  0.
         12    1    1    2    0    0 -0.35485446493E+02  0.15444686336E+02 -0.12466370218E+02  0.40659139628E+02  0.00000000000E+00 0. -1.
         11    1    3    3    0    0  0.12771009826E+02  0.30504522360E+01  0.99887649781E+01  0.16497859766E+02  0.51100000000E-03 0. -1.
        -11    1    3    3    0    0  0.40039091778E+01  0.43064619191E+00  0.59577721869E+01  0.71910913315E+01  0.51100000000E-03 0.  1.
        -12    1    3    3    0    0  0.18710527490E+02 -0.18925784764E+02 -0.34801669471E+01  0.26839909275E+02  0.00000000000E+00 0.  1.
</event>
<event>
 7    1  0.2969156E-011  0.5052887E+02  0.7816164E-02  0.1300439E+00
        -11   -1    0    0    0    0  0.00000000000E+00  0.00000000000E+00  0.45593999997E+02  0.45594000000E+02  0.51100000000E-03 0.  1.
         11   -1    0    0    0    0 -0.00000000000E+00 -0.00000000000E+00 -0.45593999997E+02  0.45594000000E+02  0.51100000000E-03 0. -1.
    9900012    2    1    2    0    0 -0.22711077494E+02  0.27706847632E+02  0.19227647910E+02  0.50528869527E+02  0.30000029416E+02 0.  0.
         12    1    1    2    0    0  0.22711077494E+02 -0.27706847632E+02 -0.19227647910E+02  0.40659130473E+02  0.00000000000E+00 0. -1.
         11    1    3    3    0    0 -0.19253967125E+00  0.12497141250E+02  0.67772394099E+01  0.14217826319E+02  0.51100000000E-03 0. -1.
        -11    1    3    3    0    0 -0.16084872508E+02  0.15015912872E+02  0.17512202721E+02  0.28122553358E+02  0.51100000000E-03 0.  1.
         12    1    3    3    0    0 -0.64336653145E+01  0.19379351065E+00 -0.50617942211E+01  0.81884898510E+01  0.00000000000E+00 0. -1.
</event>
<event>
 7    1  0.2969156E-011  0.5052886E+02  0.7816164E-02  0.1300439E+00
        -11   -1    0    0    0    0  0.00000000000E+00  0.00000000000E+00  0.45593999997E+02  0.45594000000E+02  0.51100000000E-03 0. -1.
         11   -1    0    0    0    0 -0.00000000000E+00 -0.00000000000E+00 -0.45593999997E+02  0.45594000000E+02  0.51100000000E-03 0.  1.
    9900012    2    1    2    0    0  0.76311456760E+01  0.21195928421E+02 -0.33847657822E+02  0.50528859503E+02  0.29999998944E+02 0.  0.
         12    1    1    2    0    0 -0.76311456760E+01 -0.21195928421E+02  0.33847657822E+02  0.40659140497E+02  0.00000000000E+00 0. -1.
         11    1    3    3    0    0 -0.89025345457E+01  0.10239069314E+02 -0.11182294406E+02  0.17582302756E+02  0.51100000000E-03 0. -1.
        -11    1    3    3    0    0  0.69812758414E+01  0.12158514713E+02 -0.15788856983E+02  0.21115295345E+02  0.51100000000E-03 0.  1.
        -12    1    3    3    0    0  0.95524043804E+01 -0.12016556060E+01 -0.68765064331E+01  0.11831261402E+02  0.00000000000E+00 0.  1.
</event>
<event>
 7    1  0.2969156E-011  0.5052886E+02  0.7816164E-02  0.1300439E+00
        -11   -1    0    0    0    0  0.00000000000E+00  0.00000000000E+00  0.45593999997E+02  0.45594000000E+02  0.51100000000E-03 0. -1.
         11   -1    0    0    0    0 -0.00000000000E+00 -0.00000000000E+00 -0.45593999997E+02  0.45594000000E+02  0.51100000000E-03 0.  1.
    9900012    2    1    2    0    0  0.37570758681E+02 -0.10266516834E+02 -0.11670576287E+02  0.50528860479E+02  0.30000001911E+02 0.  0.
         12    1    1    2    0    0 -0.37570758681E+02  0.10266516834E+02  0.11670576287E+02  0.40659139521E+02  0.00000000000E+00 0. -1.
         11    1    3    3    0    0  0.30025849339E+02 -0.13347643217E+02 -0.14948158779E+02  0.36099288900E+02  0.51100000000E-03 0. -1.
        -11    1    3    3    0    0 -0.69857635784E+00 -0.30672236218E+01 -0.98639416824E+00  0.32967928946E+01  0.51100000000E-03 0.  1.
         12    1    3    3    0    0  0.82434856999E+01  0.61483500047E+01  0.42639766604E+01  0.11132778684E+02  0.00000000000E+00 0. -1.
</event>
<event>
 7    1  0.2969156E-011  0.5052887E+02  0.7816164E-02  0.1300439E+00
        -11   -1    0    0    0    0  0.00000000000E+00  0.00000000000E+00  0.45593999997E+02  0.45594000000E+02  0.51100000000E-03 0.  1.
         11   -1    0    0    0    0 -0.00000000000E+00 -0.00000000000E+00 -0.45593999997E+02  0.45594000000E+02  0.51100000000E-03 0. -1.
    9900012    2    1    2    0    0  0.17099468989E+02  0.33180391232E+02  0.16119386442E+02  0.50528870382E+02  0.30000032013E+02 0.  0.
         12    1    1    2    0    0 -0.17099468989E+02 -0.33180391232E+02 -0.16119386442E+02  0.40659129618E+02  0.00000000000E+00 0. -1.
         11    1    3    3    0    0 -0.59683235303E+01  0.35517773825E+01 -0.14220002062E+01  0.70892942656E+01  0.51100000000E-03 0.  1.
        -11    1    3    3    0    0  0.78223307449E+01  0.36417568729E+01  0.10508354343E+00  0.86291537370E+01  0.51100000000E-03 0. -1.
        -12    1    3    3    0    0  0.15245461774E+02  0.25986856977E+02  0.17436303105E+02  0.34810422379E+02  0.00000000000E+00 0.  1.
</event>
<event>
 7    1  0.2969156E-011  0.5052880E+02  0.7816164E-02  0.1300439E+00
        -11   -1    0    0    0    0  0.00000000000E+00  0.00000000000E+00  0.45593999997E+02  0.45594000000E+02  0.51100000000E-03 0. -1.
         11   -1    0    0    0    0 -0.00000000000E+00 -0.00000000000E+00 -0.45593999997E+02  0.45594000000E+02  0.51100000000E-03 0.  1.
    9900012    2    1    2    0    0 -0.19787693235E+02 -0.17029091556E+02 -0.31170938919E+02  0.50528804288E+02  0.29999831114E+02 0.  0.
         12    1    1    2    0    0  0.19787693235E+02  0.17029091556E+02  0.31170938919E+02  0.40659195712E+02  0.00000000000E+00 0. -1.
         11    1    3    3    0    0 -0.94450169572E+01  0.39014146230E+01 -0.12796610764E+02  0.16376282505E+02  0.51100000000E-03 0. -1.
        -11    1    3    3    0    0 -0.65620681308E+01 -0.13844239374E+01  0.49232439494E+00  0.67245632841E+01  0.51100000000E-03 0.  1.
        -12    1    3    3    0    0 -0.37806081471E+01 -0.19546082242E+02 -0.18866652550E+02  0.27427958499E+02  0.00000000000E+00 0.  1.
</event>
<event>
 7    1  0.2969156E-011  0.5052886E+02  0.7816164E-02  0.1300439E+00
        -11   -1    0    0    0    0  0.00000000000E+00  0.00000000000E+00  0.45593999997E+02  0.45594000000E+02  0.51100000000E-03 0.  1.
         11   -1    0    0    0    0 -0.00000000000E+00 -0.00000000000E+00 -0.45593999997E+02  0.45594000000E+02  0.51100000000E-03 0. -1.
    9900012    2    1    2    0    0  0.18728546765E+02  0.11844514925E+01  0.36069436863E+02  0.50528860008E+02  0.30000000480E+02 0.  0.
         12    1    1    2    0    0 -0.18728546765E+02 -0.11844514925E+01 -0.36069436863E+02  0.40659139992E+02  0.00000000000E+00 0. -1.
         11    1    3    3    0    0  0.32004145619E+01  0.75913029498E+00  0.73408973772E+00  0.33701365220E+01  0.51100000000E-03 0. -1.
        -11    1    3    3    0    0  0.15947864724E+02 -0.24878325766E+01  0.39146429280E+02  0.42343436632E+02  0.51100000000E-03 0.  1.
        -12    1    3    3    0    0 -0.41973252102E+00  0.29131537740E+01 -0.38110821543E+01  0.48152868541E+01  0.00000000000E+00 0.  1.
</event>
<event>
 7    1  0.2969156E-011  0.5052886E+02  0.7816164E-02  0.1300439E+00
        -11   -1    0    0    0    0  0.00000000000E+00  0.00000000000E+00  0.45593999997E+02  0.45594000000E+02  0.51100000000E-03 0. -1.
         11   -1    0    0    0    0 -0.00000000000E+00 -0.00000000000E+00 -0.45593999997E+02  0.45594000000E+02  0.51100000000E-03 0.  1.
    9900012    2    1    2    0    0 -0.40349860459E+02 -0.38281845959E+01 -0.32248330239E+01  0.50528858538E+02  0.29999996013E+02 0.  0.
         12    1    1    2    0    0  0.40349860459E+02  0.38281845959E+01  0.32248330239E+01  0.40659141462E+02  0.00000000000E+00 0. -1.
         11    1    3    3    0    0 -0.14749624837E+02 -0.56806981211E+01  0.93059212287E+01  0.18341808367E+02  0.51100000000E-03 0. -1.
        -11    1    3    3    0    0 -0.22411163326E+01  0.54923238693E+01 -0.16164819436E+01  0.61482711421E+01  0.51100000000E-03 0.  1.
        -12    1    3    3    0    0 -0.23359119289E+02 -0.36398103440E+01 -0.10914272309E+02  0.26038779030E+02  0.00000000000E+00 0.  1.
</event>
<event>
 7    1  0.2969156E-011  0.5052887E+02  0.7816164E-02  0.1300439E+00
        -11   -1    0    0    0    0  0.00000000000E+00  0.00000000000E+00  0.45593999997E+02  0.45594000000E+02  0.51100000000E-03 0.  1.
         11   -1    0    0    0    0 -0.00000000000E+00 -0.00000000000E+00 -0.45593999997E+02  0.45594000000E+02  0.51100000000E-03 0. -1.
    9900012    2    1    2    0    0 -0.37276614816E+02  0.10893549561E+02  0.12039483307E+02  0.50528873196E+02  0.30000040566E+02 0.  0.
         12    1    1    2    0    0  0.37276614816E+02 -0.10893549561E+02 -0.12039483307E+02  0.40659126804E+02  0.00000000000E+00 0. -1.
         11    1    3    3    0    0 -0.51751679986E+01 -0.51607874794E+01  0.62049888846E+01  0.95873864291E+01  0.51100000000E-03 0. -1.
        -11    1    3    3    0    0 -0.24513421094E+02  0.12021806136E+02 -0.43165854468E+01  0.27641717506E+02  0.51100000000E-03 0.  1.
         12    1    3    3    0    0 -0.75880257236E+01  0.40325309044E+01  0.10151079869E+02  0.13299769261E+02  0.00000000000E+00 0. -1.
</event>
<event>
 7    1  0.2969156E-011  0.5052886E+02  0.7816164E-02  0.1300439E+00
        -11   -1    0    0    0    0  0.00000000000E+00  0.00000000000E+00  0.45593999997E+02  0.45594000000E+02  0.51100000000E-03 0.  1.
         11   -1    0    0    0    0 -0.00000000000E+00 -0.00000000000E+00 -0.45593999997E+02  0.45594000000E+02  0.51100000000E-03 0. -1.
    9900012    2    1    2    0    0  0.12914508373E+02 -0.37115772467E+02  0.10430761017E+02  0.50528857514E+02  0.29999992900E+02 0.  0.
         12    1    1    2    0    0 -0.12914508373E+02  0.37115772467E+02 -0.10430761017E+02  0.40659142486E+02  0.00000000000E+00 0. -1.
         11    1    3    3    0    0 -0.62531443909E+01 -0.78359063289E-01  0.34587673292E+01  0.71463995561E+01  0.51100000000E-03 0. -1.
        -11    1    3    3    0    0  0.95422712735E+01 -0.89770111787E+01  0.31243965078E+01  0.13468612570E+02  0.51100000000E-03 0.  1.
        -12    1    3    3    0    0  0.96253814900E+01 -0.28060402225E+02  0.38475971801E+01  0.29913845388E+02  0.00000000000E+00 0.  1.
</event>
<event>
 7    1  0.2969156E-011  0.5052887E+02  0.7816164E-02  0.1300439E+00
        -11   -1    0    0    0    0  0.00000000000E+00  0.00000000000E+00  0.45593999997E+02  0.45594000000E+02  0.51100000000E-03 0.  1.
         11   -1    0    0    0    0 -0.00000000000E+00 -0.00000000000E+00 -0.45593999997E+02  0.45594000000E+02  0.51100000000E-03 0. -1.
    9900012    2    1    2    0    0 -0.40564832800E+02  0.27311604920E+01 -0.44730007811E+00  0.50528868490E+02  0.30000026263E+02 0.  0.
         12    1    1    2    0    0  0.40564832800E+02 -0.27311604920E+01  0.44730007811E+00  0.40659131510E+02  0.00000000000E+00 0. -1.
         11    1    3    3    0    0 -0.98622223989E+01  0.88753861605E+00 -0.10559679600E+02  0.14476117883E+02  0.51100000000E-03 0. -1.
        -11    1    3    3    0    0 -0.13143165295E+02 -0.68269004066E+01  0.23917359983E+01  0.15002325302E+02  0.51100000000E-03 0.  1.
        -12    1    3    3    0    0 -0.17559445107E+02  0.86705222826E+01  0.77206435238E+01  0.21050425305E+02  0.00000000000E+00 0.  1.
</event>
<event>
 7    1  0.2969156E-011  0.5052887E+02  0.7816164E-02  0.1300439E+00
        -11   -1    0    0    0    0  0.00000000000E+00  0.00000000000E+00  0.45593999997E+02  0.45594000000E+02  0.51100000000E-03 0. -1.
         11   -1    0    0    0    0 -0.00000000000E+00 -0.00000000000E+00 -0.45593999997E+02  0.45594000000E+02  0.51100000000E-03 0.  1.
    9900012    2    1    2    0    0  0.93975862910E+01  0.36944084759E+02 -0.14141611927E+02  0.50528865545E+02  0.30000017310E+02 0.  0.
         12    1    1    2    0    0 -0.93975862910E+01 -0.36944084759E+02  0.14141611927E+02  0.40659134455E+02  0.00000000000E+00 0. -1.
         11    1    3    3    0    0  0.15739031022E+02  0.15898567351E+02 -0.16439418130E+02  0.27762132664E+02  0.51100000000E-03 0. -1.
        -11    1    3    3    0    0 -0.23734458013E+00  0.34598004498E+01  0.22826407983E+01  0.41517467261E+01  0.51100000000E-03 0.  1.
        -12    1    3    3    0    0 -0.61041001505E+01  0.17585716958E+02  0.15165404405E-01  0.18614986155E+02  0.00000000000E+00 0.  1.
</event>
<event>
 7    1  0.2969156E-011  0.5052886E+02  0.7816164E-02  0.1300439E+00
        -11   -1    0    0    0    0  0.00000000000E+00  0.00000000000E+00  0.45593999997E+02  0.45594000000E+02  0.51100000000E-03 0. -1.
         11   -1    0    0    0    0 -0.00000000000E+00 -0.00000000000E+00 -0.45593999997E+02  0.45594000000E+02  0.51100000000E-03 0.  1.
    9900012    2    1    2    0    0 -0.25607003743E+02 -0.25961222868E+02 -0.17985051448E+02  0.50528858235E+02  0.29999995090E+02 0.  0.
         12    1    1    2    0    0  0.25607003743E+02  0.25961222868E+02  0.17985051448E+02  0.40659141765E+02  0.00000000000E+00 0. -1.
         11    1    3    3    0    0 -0.76898091695E+01 -0.18311159284E+02 -0.34532662353E+01  0.20158292768E+02  0.51100000000E-03 0. -1.
        -11    1    3    3    0    0 -0.46853427579E+01 -0.10215734439E+02 -0.12381705284E+02  0.16721850762E+02  0.51100000000E-03 0.  1.
         12    1    3    3    0    0 -0.13231851815E+02  0.25656708548E+01 -0.21500799289E+01  0.13648714705E+02  0.00000000000E+00 0. -1.
</event>
<event>
 7    1  0.2969156E-011  0.5052886E+02  0.7816164E-02  0.1300439E+00
        -11   -1    0    0    0    0  0.00000000000E+00  0.00000000000E+00  0.45593999997E+02  0.45594000000E+02  0.51100000000E-03 0.  1.
         11   -1    0    0    0    0 -0.00000000000E+00 -0.00000000000E+00 -0.45593999997E+02  0.45594000000E+02  0.51100000000E-03 0. -1.
    9900012    2    1    2    0    0 -0.22957932233E+02  0.15360672343E+02  0.29835358131E+02  0.50528862010E+02  0.30000006566E+02 0.  0.
         12    1    1    2    0    0  0.22957932233E+02 -0.15360672343E+02 -0.29835358131E+02  0.40659137990E+02  0.00000000000E+00 0. -1.
         11    1    3    3    0    0  0.11409497766E+00 -0.40636724789E+01  0.17907601989E+01  0.44422149915E+01  0.51100000000E-03 0. -1.
        -11    1    3    3    0    0 -0.18385890459E+02  0.30470027319E+01  0.19698120128E+02  0.27117174087E+02  0.51100000000E-03 0.  1.
         12    1    3    3    0    0 -0.46861367519E+01  0.16377342090E+02  0.83464778043E+01  0.18969472932E+02  0.00000000000E+00 0. -1.
</event>
<event>
 7    1  0.2969156E-011  0.5052884E+02  0.7816164E-02  0.1300439E+00
        -11   -1    0    0    0    0  0.00000000000E+00  0.00000000000E+00  0.45593999997E+02  0.45594000000E+02  0.51100000000E-03 0. -1.
         11   -1    0    0    0    0 -0.00000000000E+00 -0.00000000000E+00 -0.45593999997E+02  0.45594000000E+02  0.51100000000E-03 0.  1.
    9900012    2    1    2    0    0 -0.34238455803E+02 -0.14509827126E+02 -0.16442628875E+02  0.50528843795E+02  0.29999951200E+02 0.  0.
         12    1    1    2    0    0  0.34238455803E+02  0.14509827126E+02  0.16442628875E+02  0.40659156205E+02  0.00000000000E+00 0. -1.
         11    1    3    3    0    0 -0.24732037548E+02  0.27535121883E+01 -0.59399802640E+01  0.25583957404E+02  0.51100000000E-03 0. -1.
        -11    1    3    3    0    0 -0.96552337321E+01 -0.76337779568E+01 -0.88825437393E+01  0.15178856606E+02  0.51100000000E-03 0.  1.
        -12    1    3    3    0    0  0.14881547715E+00 -0.96295613576E+01 -0.16201048714E+01  0.97660297860E+01  0.00000000000E+00 0.  1.
</event>
<event>
 7    1  0.2969156E-011  0.5052886E+02  0.7816164E-02  0.1300439E+00
        -11   -1    0    0    0    0  0.00000000000E+00  0.00000000000E+00  0.45593999997E+02  0.45594000000E+02  0.51100000000E-03 0.  1.
         11   -1    0    0    0    0 -0.00000000000E+00 -0.00000000000E+00 -0.45593999997E+02  0.45594000000E+02  0.51100000000E-03 0. -1.
    9900012    2    1    2    0    0  0.30434753112E+02  0.20145568007E+02  0.17917810334E+02  0.50528855463E+02  0.29999986666E+02 0.  0.
         12    1    1    2    0    0 -0.30434753112E+02 -0.20145568007E+02 -0.17917810334E+02  0.40659144537E+02  0.00000000000E+00 0. -1.
         11    1    3    3    0    0  0.27474020532E+02  0.94130134828E+01  0.78390259946E+01  0.30081172780E+02  0.51100000000E-03 0. -1.
        -11    1    3    3    0    0  0.99519048201E+00  0.97982487886E+00 -0.34111060899E+01  0.36859335189E+01  0.51100000000E-03 0.  1.
        -12    1    3    3    0    0  0.19655420983E+01  0.97527296450E+01  0.13489890429E+02  0.16761749165E+02  0.00000000000E+00 0.  1.
</event>
<event>
 7    1  0.2969156E-011  0.5052885E+02  0.7816164E-02  0.1300439E+00
        -11   -1    0    0    0    0  0.00000000000E+00  0.00000000000E+00  0.45593999997E+02  0.45594000000E+02  0.51100000000E-03 0.  1.
         11   -1    0    0    0    0 -0.00000000000E+00 -0.00000000000E+00 -0.45593999997E+02  0.45594000000E+02  0.51100000000E-03 0. -1.
    9900012    2    1    2    0    0 -0.59478184251E+01 -0.58638050506E+01  0.39792030498E+02  0.50528850416E+02  0.29999971325E+02 0.  0.
         12    1    1    2    0    0  0.59478184251E+01  0.58638050506E+01 -0.39792030498E+02  0.40659149584E+02  0.00000000000E+00 0. -1.
         11    1    3    3    0    0  0.17380553241E+01 -0.40165767809E+00 -0.10075325168E+01  0.20487281990E+01  0.51100000000E-03 0. -1.
        -11    1    3    3    0    0 -0.72536109424E+01 -0.12572016567E+02  0.12059926811E+02  0.18870938165E+02  0.51100000000E-03 0.  1.
         12    1    3    3    0    0 -0.43226280683E+00  0.71098691946E+01  0.28739636204E+02  0.29609184053E+02  0.00000000000E+00 0. -1.
</event>
<event>
 7    1  0.2969156E-011  0.5052885E+02  0.7816164E-02  0.1300439E+00
        -11   -1    0    0    0    0  0.00000000000E+00  0.00000000000E+00  0.45593999997E+02  0.45594000000E+02  0.51100000000E-03 0. -1.
         11   -1    0    0    0    0 -0.00000000000E+00 -0.00000000000E+00 -0.45593999997E+02  0.45594000000E+02  0.51100000000E-03 0.  1.
    9900012    2    1    2    0    0 -0.29284907955E+02 -0.28055351696E+02 -0.29081907335E+01  0.50528853845E+02  0.29999981747E+02 0.  0.
         12    1    1    2    0    0  0.29284907955E+02  0.28055351696E+02  0.29081907335E+01  0.40659146155E+02  0.00000000000E+00 0. -1.
         11    1    3    3    0    0 -0.27723141368E+01 -0.10118879337E+02 -0.42171432612E+01  0.11307596661E+02  0.51100000000E-03 0. -1.
        -11    1    3    3    0    0  0.31625247467E+01  0.17244327200E+01  0.13821495886E+00  0.36047655423E+01  0.51100000000E-03 0.  1.
        -12    1    3    3    0    0 -0.29675118565E+02 -0.19660905079E+02  0.11707375689E+01  0.35616491641E+02  0.00000000000E+00 0.  1.
</event>
<event>
 7    1  0.2969156E-011  0.5052886E+02  0.7816164E-02  0.1300439E+00
        -11   -1    0    0    0    0  0.00000000000E+00  0.00000000000E+00  0.45593999997E+02  0.45594000000E+02  0.51100000000E-03 0.  1.
         11   -1    0    0    0    0 -0.00000000000E+00 -0.00000000000E+00 -0.45593999997E+02  0.45594000000E+02  0.51100000000E-03 0. -1.
    9900012    2    1    2    0    0  0.36767591325E+02 -0.10552347631E+02  0.13782511617E+02  0.50528862788E+02  0.30000008930E+02 0.  0.
         12    1    1    2    0    0 -0.36767591325E+02  0.10552347631E+02 -0.13782511617E+02  0.40659137212E+02  0.00000000000E+00 0. -1.
         11    1    3    3    0    0  0.56811879641E+01 -0.20068846784E+01 -0.40241675157E+01  0.72455094542E+01  0.51100000000E-03 0. -1.
        -11    1    3    3    0    0  0.31997326376E+02 -0.65078999996E+01  0.21409325748E+02  0.39045369596E+02  0.51100000000E-03 0.  1.
         12    1    3    3    0    0 -0.91092301541E+00 -0.20375629533E+01 -0.36026466151E+01  0.42379837378E+01  0.00000000000E+00 0. -1.
</event>
<event>
 7    1  0.2969156E-011  0.5052885E+02  0.7816164E-02  0.1300439E+00
        -11   -1    0    0    0    0  0.00000000000E+00  0.00000000000E+00  0.45593999997E+02  0.45594000000E+02  0.51100000000E-03 0.  1.
         11   -1    0    0    0    0 -0.00000000000E+00 -0.00000000000E+00 -0.45593999997E+02  0.45594000000E+02  0.51100000000E-03 0. -1.
    9900012    2    1    2    0    0 -0.34779257046E+02  0.20973343872E+02  0.19206705292E+01  0.50528845444E+02  0.29999956213E+02 0.  0.
         12    1    1    2    0    0  0.34779257046E+02 -0.20973343872E+02 -0.19206705292E+01  0.40659154556E+02  0.00000000000E+00 0. -1.
         11    1    3    3    0    0 -0.70887228155E+01 -0.34334695584E+01 -0.58825616833E+01  0.98307291989E+01  0.51100000000E-03 0. -1.
        -11    1    3    3    0    0 -0.65507861918E+01  0.13762102431E+01  0.66193388627E+01  0.94139471851E+01  0.51100000000E-03 0.  1.
         12    1    3    3    0    0 -0.21139748039E+02  0.23030603188E+02  0.11838933498E+01  0.31284169060E+02  0.00000000000E+00 0. -1.
</event>
<event>
 7    1  0.2969156E-011  0.5052886E+02  0.7816164E-02  0.1300439E+00
        -11   -1    0    0    0    0  0.00000000000E+00  0.00000000000E+00  0.45593999997E+02  0.45594000000E+02  0.51100000000E-03 0.  1.
         11   -1    0    0    0    0 -0.00000000000E+00 -0.00000000000E+00 -0.45593999997E+02  0.45594000000E+02  0.51100000000E-03 0. -1.
    9900012    2    1    2    0    0  0.84445924592E+01 -0.18111038352E+00  0.39772125371E+02  0.50528857125E+02  0.29999991718E+02 0.  0.
         12    1    1    2    0    0 -0.84445924592E+01  0.18111038352E+00 -0.39772125371E+02  0.40659142875E+02  0.00000000000E+00 0. -1.
         11    1    3    3    0    0 -0.68068198156E+01 -0.45083134857E+01  0.56673501868E+01  0.99386389858E+01  0.51100000000E-03 0. -1.
        -11    1    3    3    0    0  0.10405144826E+02  0.25044755608E+00  0.65062357466E+01  0.12274398832E+02  0.51100000000E-03 0.  1.
        -12    1    3    3    0    0  0.48462674484E+01  0.40767555461E+01  0.27598539438E+02  0.28315819308E+02  0.00000000000E+00 0.  1.
</event>
<event>
 7    1  0.2969156E-011  0.5052884E+02  0.7816164E-02  0.1300439E+00
        -11   -1    0    0    0    0  0.00000000000E+00  0.00000000000E+00  0.45593999997E+02  0.45594000000E+02  0.51100000000E-03 0. -1.
         11   -1    0    0    0    0 -0.00000000000E+00 -0.00000000000E+00 -0.45593999997E+02  0.45594000000E+02  0.51100000000E-03 0.  1.
    9900012    2    1    2    0    0  0.37105966196E+02  0.16597318003E+02 -0.91853182643E+00  0.50528838758E+02  0.29999935888E+02 0.  0.
         12    1    1    2    0    0 -0.37105966196E+02 -0.16597318003E+02  0.91853182643E+00  0.40659161242E+02  0.00000000000E+00 0. -1.
         11    1    3    3    0    0  0.23753877653E+01 -0.58497720686E+01 -0.11433604012E+01  0.64163520445E+01  0.51100000000E-03 0. -1.
        -11    1    3    3    0    0  0.19486648900E+02  0.45578482688E+01 -0.34987300393E+01  0.20316116222E+02  0.51100000000E-03 0.  1.
         12    1    3    3    0    0  0.15243929530E+02  0.17889241803E+02  0.37235586140E+01  0.23796370491E+02  0.00000000000E+00 0. -1.
</event>
<event>
 7    1  0.2969156E-011  0.5052885E+02  0.7816164E-02  0.1300439E+00
        -11   -1    0    0    0    0  0.00000000000E+00  0.00000000000E+00  0.45593999997E+02  0.45594000000E+02  0.51100000000E-03 0.  1.
         11   -1    0    0    0    0 -0.00000000000E+00 -0.00000000000E+00 -0.45593999997E+02  0.45594000000E+02  0.51100000000E-03 0. -1.
    9900012    2    1    2    0    0 -0.52672363516E+01  0.33813387243E+02  0.21956270456E+02  0.50528846689E+02  0.29999959996E+02 0.  0.
         12    1    1    2    0    0  0.52672363516E+01 -0.33813387243E+02 -0.21956270456E+02  0.40659153311E+02  0.00000000000E+00 0. -1.
         11    1    3    3    0    0 -0.67478582364E+01  0.12596558232E+01  0.31227905569E+01  0.75413622572E+01  0.51100000000E-03 0. -1.
        -11    1    3    3    0    0 -0.71379155912E+00  0.13735397478E+02 -0.30027185041E+01  0.14077889080E+02  0.51100000000E-03 0.  1.
        -12    1    3    3    0    0  0.21944134439E+01  0.18818333941E+02  0.21836198404E+02  0.28909595352E+02  0.00000000000E+00 0.  1.
</event>
<event>
 7    1  0.2969156E-011  0.5052885E+02  0.7816164E-02  0.1300439E+00
        -11   -1    0    0    0    0  0.00000000000E+00  0.00000000000E+00  0.45593999997E+02  0.45594000000E+02  0.51100000000E-03 0. -1.
         11   -1    0    0    0    0 -0.00000000000E+00 -0.00000000000E+00 -0.45593999997E+02  0.45594000000E+02  0.51100000000E-03 0.  1.
    9900012    2    1    2    0    0  0.27075467873E+02  0.29493287985E+02  0.70874196801E+01  0.50528849561E+02  0.29999968726E+02 0.  0.
         12    1    1    2    0    0 -0.27075467873E+02 -0.29493287985E+02 -0.70874196801E+01  0.40659150439E+02  0.00000000000E+00 0. -1.
         11    1    3    3    0    0 -0.76575444992E+00  0.14101121924E+02 -0.38848287178E+01  0.14646498347E+02  0.51100000000E-03 0. -1.
        -11    1    3    3    0    0  0.81620893328E+01  0.10869417388E+02  0.18244719806E+01  0.13714686832E+02  0.51100000000E-03 0.  1.
         12    1    3    3    0    0  0.19679132990E+02  0.45227486735E+01  0.91477764173E+01  0.22167664383E+02  0.00000000000E+00 0. -1.
</event>
<event>
 7    1  0.2969156E-011  0.5052885E+02  0.7816164E-02  0.1300439E+00
        -11   -1    0    0    0    0  0.00000000000E+00  0.00000000000E+00  0.45593999997E+02  0.45594000000E+02  0.51100000000E-03 0.  1.
         11   -1    0    0    0    0 -0.00000000000E+00 -0.00000000000E+00 -0.45593999997E+02  0.45594000000E+02  0.51100000000E-03 0. -1.
    9900012    2    1    2    0    0  0.15085070472E+02 -0.28506654252E+02  0.24758384872E+02  0.50528852084E+02  0.29999976394E+02 0.  0.
         12    1    1    2    0    0 -0.15085070472E+02  0.28506654252E+02 -0.24758384872E+02  0.40659147916E+02  0.00000000000E+00 0. -1.
         11    1    3    3    0    0  0.11618607210E+02  0.93429256085E+00  0.75898342390E+01  0.13909368071E+02  0.51100000000E-03 0. -1.
        -11    1    3    3    0    0  0.57496239127E+01 -0.18830875390E+02  0.16597630571E+02  0.25751531681E+02  0.51100000000E-03 0.  1.
        -12    1    3    3    0    0 -0.22831606507E+01 -0.10610071423E+02  0.57092006157E+00  0.10867952332E+02  0.00000000000E+00 0.  1.
</event>
<event>
 7    1  0.2969156E-011  0.5052886E+02  0.7816164E-02  0.1300439E+00
        -11   -1    0    0    0    0  0.00000000000E+00  0.00000000000E+00  0.45593999997E+02  0.45594000000E+02  0.51100000000E-03 0.  1.
         11   -1    0    0    0    0 -0.00000000000E+00 -0.00000000000E+00 -0.45593999997E+02  0.45594000000E+02  0.51100000000E-03 0. -1.
    9900012    2    1    2    0    0  0.31846650509E+01 -0.51635324081E+01  0.40203998527E+02  0.50528860118E+02  0.30000000814E+02 0.  0.
         12    1    1    2    0    0 -0.31846650509E+01  0.51635324081E+01 -0.40203998527E+02  0.40659139882E+02  0.00000000000E+00 0. -1.
         11    1    3    3    0    0 -0.33434794079E+01 -0.11740738074E+02  0.23646584415E+02  0.26611740639E+02  0.51100000000E-03 0.  1.
        -11    1    3    3    0    0 -0.44746975058E+01  0.17645403777E+01  0.73514358151E+01  0.87852222122E+01  0.51100000000E-03 0. -1.
        -12    1    3    3    0    0  0.11002841965E+02  0.48126652886E+01  0.92059782964E+01  0.15131897266E+02  0.00000000000E+00 0.  1.
</event>
<event>
 7    1  0.2969156E-011  0.5052887E+02  0.7816164E-02  0.1300439E+00
        -11   -1    0    0    0    0  0.00000000000E+00  0.00000000000E+00  0.45593999997E+02  0.45594000000E+02  0.51100000000E-03 0.  1.
         11   -1    0    0    0    0 -0.00000000000E+00 -0.00000000000E+00 -0.45593999997E+02  0.45594000000E+02  0.51100000000E-03 0. -1.
    9900012    2    1    2    0    0  0.18088617345E+02 -0.55463288387E+01  0.35988960031E+02  0.50528867137E+02  0.30000022150E+02 0.  0.
         12    1    1    2    0    0 -0.18088617345E+02  0.55463288387E+01 -0.35988960031E+02  0.40659132863E+02  0.00000000000E+00 0. -1.
         11    1    3    3    0    0  0.15690601079E+02  0.15511543610E+01  0.98641093821E+01  0.18598432629E+02  0.51100000000E-03 0. -1.
        -11    1    3    3    0    0  0.77399339756E+01 -0.24598129692E+01  0.22623743722E+02  0.24037284332E+02  0.51100000000E-03 0.  1.
        -12    1    3    3    0    0 -0.53419177101E+01 -0.46376702306E+01  0.35011069268E+01  0.78931501761E+01  0.00000000000E+00 0.  1.
</event>
<event>
 7    1  0.2969156E-011  0.5052886E+02  0.7816164E-02  0.1300439E+00
        -11   -1    0    0    0    0  0.00000000000E+00  0.00000000000E+00  0.45593999997E+02  0.45594000000E+02  0.51100000000E-03 0. -1.
         11   -1    0    0    0    0 -0.00000000000E+00 -0.00000000000E+00 -0.45593999997E+02  0.45594000000E+02  0.51100000000E-03 0.  1.
    9900012    2    1    2    0    0  0.26163856180E+02 -0.21782018563E+02 -0.22229747308E+02  0.50528863655E+02  0.30000011566E+02 0.  0.
         12    1    1    2    0    0 -0.26163856180E+02  0.21782018563E+02  0.22229747308E+02  0.40659136345E+02  0.00000000000E+00 0. -1.
         11    1    3    3    0    0  0.22682949137E+02 -0.59627707043E+01 -0.18584632132E+02  0.29924227103E+02  0.51100000000E-03 0. -1.
        -11    1    3    3    0    0  0.80516429537E+01 -0.92816358698E+01 -0.26016781661E+01  0.12559715292E+02  0.51100000000E-03 0.  1.
         12    1    3    3    0    0 -0.45707359101E+01 -0.65376119893E+01 -0.10434370103E+01  0.80449212598E+01  0.00000000000E+00 0. -1.
</event>
<event>
 7    1  0.2969156E-011  0.5052886E+02  0.7816164E-02  0.1300439E+00
        -11   -1    0    0    0    0  0.00000000000E+00  0.00000000000E+00  0.45593999997E+02  0.45594000000E+02  0.51100000000E-03 0.  1.
         11   -1    0    0    0    0 -0.00000000000E+00 -0.00000000000E+00 -0.45593999997E+02  0.45594000000E+02  0.51100000000E-03 0. -1.
    9900012    2    1    2    0    0  0.27918208044E+02  0.13958254300E+02  0.26055829854E+02  0.50528862369E+02  0.30000007657E+02 0.  0.
         12    1    1    2    0    0 -0.27918208044E+02 -0.13958254300E+02 -0.26055829854E+02  0.40659137631E+02  0.00000000000E+00 0. -1.
         11    1    3    3    0    0 -0.13781759599E+01 -0.34325552679E+01  0.35911088438E+01  0.51553726959E+01  0.51100000000E-03 0. -1.
        -11    1    3    3    0    0  0.12893293293E+02  0.11496730741E+02  0.21954851918E+02  0.27936129880E+02  0.51100000000E-03 0.  1.
        -12    1    3    3    0    0  0.16403090710E+02  0.58940788274E+01  0.50986909283E+00  0.17437359794E+02  0.00000000000E+00 0.  1.
</event>
<event>
 7    1  0.2969156E-011  0.5052886E+02  0.7816164E-02  0.1300439E+00
        -11   -1    0    0    0    0  0.00000000000E+00  0.00000000000E+00  0.45593999997E+02  0.45594000000E+02  0.51100000000E-03 0.  1.
         11   -1    0    0    0    0 -0.00000000000E+00 -0.00000000000E+00 -0.45593999997E+02  0.45594000000E+02  0.51100000000E-03 0. -1.
    9900012    2    1    2    0    0  0.17443619979E+02 -0.95226671824E+01  0.35471177121E+02  0.50528862349E+02  0.30000007595E+02 0.  0.
         12    1    1    2    0    0 -0.17443619979E+02  0.95226671824E+01 -0.35471177121E+02  0.40659137651E+02  0.00000000000E+00 0. -1.
         11    1    3    3    0    0  0.74875537773E+00  0.11260270708E+01 -0.37300121684E+01  0.39675638139E+01  0.51100000000E-03 0. -1.
        -11    1    3    3    0    0 -0.28023178032E+01 -0.31336533685E+01  0.58177457222E+01  0.71776691239E+01  0.51100000000E-03 0.  1.
        -12    1    3    3    0    0  0.19497182404E+02 -0.75150408847E+01  0.33383443567E+02  0.39383629411E+02  0.00000000000E+00 0.  1.
</event>
<event>
 7    1  0.2969156E-011  0.5052886E+02  0.7816164E-02  0.1300439E+00
        -11   -1    0    0    0    0  0.00000000000E+00  0.00000000000E+00  0.45593999997E+02  0.45594000000E+02  0.51100000000E-03 0. -1.
         11   -1    0    0    0    0 -0.00000000000E+00 -0.00000000000E+00 -0.45593999997E+02  0.45594000000E+02  0.51100000000E-03 0.  1.
    9900012    2    1    2    0    0 -0.33475134014E+02  0.22538971665E+02  0.49573986634E+01  0.50528860284E+02  0.30000001319E+02 0.  0.
         12    1    1    2    0    0  0.33475134014E+02 -0.22538971665E+02 -0.49573986634E+01  0.40659139716E+02  0.00000000000E+00 0. -1.
         11    1    3    3    0    0 -0.91861826229E+01  0.48343965773E+01  0.40032389751E+01  0.11125792736E+02  0.51100000000E-03 0. -1.
        -11    1    3    3    0    0 -0.26081230534E+02  0.22308935367E+02  0.18962162923E+01  0.34373170058E+02  0.51100000000E-03 0.  1.
        -12    1    3    3    0    0  0.17922791429E+01 -0.46043602796E+01 -0.94205660395E+00  0.50298974896E+01  0.00000000000E+00 0.  1.
</event>
<event>
 7    1  0.2969156E-011  0.5052883E+02  0.7816164E-02  0.1300439E+00
        -11   -1    0    0    0    0  0.00000000000E+00  0.00000000000E+00  0.45593999997E+02  0.45594000000E+02  0.51100000000E-03 0.  1.
         11   -1    0    0    0    0 -0.00000000000E+00 -0.00000000000E+00 -0.45593999997E+02  0.45594000000E+02  0.51100000000E-03 0. -1.
    9900012    2    1    2    0    0 -0.13384547325E+02 -0.12252578048E+02  0.36385382367E+02  0.50528833433E+02  0.29999919703E+02 0.  0.
         12    1    1    2    0    0  0.13384547325E+02  0.12252578048E+02 -0.36385382367E+02  0.40659166567E+02  0.00000000000E+00 0. -1.
         11    1    3    3    0    0 -0.38381031344E+01  0.39579870977E+01  0.29733076438E+00  0.55213316673E+01  0.51100000000E-03 0. -1.
        -11    1    3    3    0    0 -0.12151193524E+02 -0.58664316781E+01  0.99155049836E+01  0.16744663748E+02  0.51100000000E-03 0.  1.
        -12    1    3    3    0    0  0.26047493335E+01 -0.10344133468E+02  0.26172546619E+02  0.28262838018E+02  0.00000000000E+00 0.  1.
</event>
<event>
 7    1  0.2969156E-011  0.5052886E+02  0.7816164E-02  0.1300439E+00
        -11   -1    0    0    0    0  0.00000000000E+00  0.00000000000E+00  0.45593999997E+02  0.45594000000E+02  0.51100000000E-03 0. -1.
         11   -1    0    0    0    0 -0.00000000000E+00 -0.00000000000E+00 -0.45593999997E+02  0.45594000000E+02  0.51100000000E-03 0.  1.
    9900012    2    1    2    0    0  0.29885400615E+02 -0.27400111453E+02 -0.30433547748E+01  0.50528864670E+02  0.30000014650E+02 0.  0.
         12    1    1    2    0    0 -0.29885400615E+02  0.27400111453E+02  0.30433547748E+01  0.40659135330E+02  0.00000000000E+00 0. -1.
         11    1    3    3    0    0  0.17077950502E+02 -0.30991734067E+02 -0.53511645839E+01  0.35787971953E+02  0.51100000000E-03 0.  1.
        -11    1    3    3    0    0  0.34700866974E+01 -0.26793683663E+00 -0.16975564832E+01  0.38723365183E+01  0.51100000000E-03 0. -1.
        -12    1    3    3    0    0  0.93373634149E+01  0.38595594509E+01  0.40053662923E+01  0.10868556198E+02  0.00000000000E+00 0.  1.
</event>
<event>
 7    1  0.2969156E-011  0.5052896E+02  0.7816164E-02  0.1300438E+00
        -11   -1    0    0    0    0  0.00000000000E+00  0.00000000000E+00  0.45593999997E+02  0.45594000000E+02  0.51100000000E-03 0.  1.
         11   -1    0    0    0    0 -0.00000000000E+00 -0.00000000000E+00 -0.45593999997E+02  0.45594000000E+02  0.51100000000E-03 0. -1.
    9900012    2    1    2    0    0 -0.15297155549E+01 -0.19132110956E+01  0.40585185352E+02  0.50528958245E+02  0.30000299081E+02 0.  0.
         12    1    1    2    0    0  0.15297155549E+01  0.19132110956E+01 -0.40585185352E+02  0.40659041755E+02  0.00000000000E+00 0. -1.
         11    1    3    3    0    0 -0.45503527882E+01  0.35795562778E+01 -0.18496701605E+01  0.60778461322E+01  0.51100000000E-03 0. -1.
        -11    1    3    3    0    0 -0.21539733192E+01 -0.59156181813E+01  0.11751568714E+02  0.13331673077E+02  0.51100000000E-03 0.  1.
        -12    1    3    3    0    0  0.51746105525E+01  0.42285080789E+00  0.30683286798E+02  0.31119439036E+02  0.00000000000E+00 0.  1.
</event>
<event>
 7    1  0.2969156E-011  0.5052887E+02  0.7816164E-02  0.1300439E+00
        -11   -1    0    0    0    0  0.00000000000E+00  0.00000000000E+00  0.45593999997E+02  0.45594000000E+02  0.51100000000E-03 0.  1.
         11   -1    0    0    0    0 -0.00000000000E+00 -0.00000000000E+00 -0.45593999997E+02  0.45594000000E+02  0.51100000000E-03 0. -1.
    9900012    2    1    2    0    0 -0.23214657344E+02 -0.17936170015E+02  0.28152064262E+02  0.50528865324E+02  0.30000016638E+02 0.  0.
         12    1    1    2    0    0  0.23214657344E+02  0.17936170015E+02 -0.28152064262E+02  0.40659134676E+02  0.00000000000E+00 0. -1.
         11    1    3    3    0    0 -0.69316247845E+00 -0.25206405278E+01 -0.44302543777E+01  0.51440506417E+01  0.51100000000E-03 0.  1.
        -11    1    3    3    0    0 -0.66970639606E+01 -0.10107827456E+02  0.49371034227E+01  0.13091746715E+02  0.51100000000E-03 0. -1.
        -12    1    3    3    0    0 -0.15824430905E+02 -0.53077020309E+01  0.27645215217E+02  0.32293067967E+02  0.00000000000E+00 0.  1.
</event>
<event>
 7    1  0.2969156E-011  0.5052881E+02  0.7816164E-02  0.1300439E+00
        -11   -1    0    0    0    0  0.00000000000E+00  0.00000000000E+00  0.45593999997E+02  0.45594000000E+02  0.51100000000E-03 0.  1.
         11   -1    0    0    0    0 -0.00000000000E+00 -0.00000000000E+00 -0.45593999997E+02  0.45594000000E+02  0.51100000000E-03 0. -1.
    9900012    2    1    2    0    0 -0.23348190271E+02 -0.32965596086E+02  0.46153257963E+01  0.50528809816E+02  0.29999847915E+02 0.  0.
         12    1    1    2    0    0  0.23348190271E+02  0.32965596086E+02 -0.46153257963E+01  0.40659190184E+02  0.00000000000E+00 0. -1.
         11    1    3    3    0    0 -0.12406095134E+02 -0.12455537038E+02 -0.53087266996E+01  0.18363936909E+02  0.51100000000E-03 0. -1.
        -11    1    3    3    0    0 -0.76006462561E+00 -0.20092876638E+02  0.44370800771E+01  0.20590994869E+02  0.51100000000E-03 0.  1.
        -12    1    3    3    0    0 -0.10182030511E+02 -0.41718241029E+00  0.54869724188E+01  0.11573878037E+02  0.00000000000E+00 0.  1.
</event>
<event>
 7    1  0.2969156E-011  0.5052885E+02  0.7816164E-02  0.1300439E+00
        -11   -1    0    0    0    0  0.00000000000E+00  0.00000000000E+00  0.45593999997E+02  0.45594000000E+02  0.51100000000E-03 0. -1.
         11   -1    0    0    0    0 -0.00000000000E+00 -0.00000000000E+00 -0.45593999997E+02  0.45594000000E+02  0.51100000000E-03 0.  1.
    9900012    2    1    2    0    0  0.26978761494E+02 -0.30393617762E+02  0.12413813618E+01  0.50528848507E+02  0.29999965523E+02 0.  0.
         12    1    1    2    0    0 -0.26978761494E+02  0.30393617762E+02 -0.12413813618E+01  0.40659151493E+02  0.00000000000E+00 0. -1.
         11    1    3    3    0    0  0.16004818324E+02 -0.59323083066E+01 -0.56184204849E+01  0.17969784095E+02  0.51100000000E-03 0. -1.
        -11    1    3    3    0    0 -0.40116540048E+01 -0.60830382699E+01 -0.14540573629E+01  0.74304108583E+01  0.51100000000E-03 0.  1.
        -12    1    3    3    0    0  0.14985597175E+02 -0.18378271186E+02  0.83138592096E+01  0.25128653554E+02  0.00000000000E+00 0.  1.
</event>
<event>
 7    1  0.2969156E-011  0.5052886E+02  0.7816164E-02  0.1300439E+00
        -11   -1    0    0    0    0  0.00000000000E+00  0.00000000000E+00  0.45593999997E+02  0.45594000000E+02  0.51100000000E-03 0.  1.
         11   -1    0    0    0    0 -0.00000000000E+00 -0.00000000000E+00 -0.45593999997E+02  0.45594000000E+02  0.51100000000E-03 0. -1.
    9900012    2    1    2    0    0 -0.30453568165E+02  0.15254518908E+02  0.22204627800E+02  0.50528860107E+02  0.30000000780E+02 0.  0.
         12    1    1    2    0    0  0.30453568165E+02 -0.15254518908E+02 -0.22204627800E+02  0.40659139893E+02  0.00000000000E+00 0. -1.
         11    1    3    3    0    0  0.26257108023E+01  0.26271145879E+01  0.21681959968E+01  0.43008327585E+01  0.51100000000E-03 0. -1.
        -11    1    3    3    0    0 -0.12691262733E+02 -0.57363178397E+01  0.93839812759E+01  0.16793826156E+02  0.51100000000E-03 0.  1.
        -12    1    3    3    0    0 -0.20388016235E+02  0.18363722160E+02  0.10652450528E+02  0.29434201192E+02  0.00000000000E+00 0.  1.
</event>
<event>
 7    1  0.2969156E-011  0.5052887E+02  0.7816164E-02  0.1300439E+00
        -11   -1    0    0    0    0  0.00000000000E+00  0.00000000000E+00  0.45593999997E+02  0.45594000000E+02  0.51100000000E-03 0.  1.
         11   -1    0    0    0    0 -0.00000000000E+00 -0.00000000000E+00 -0.45593999997E+02  0.45594000000E+02  0.51100000000E-03 0. -1.
    9900012    2    1    2    0    0  0.66077796195E+01  0.32046780398E+02  0.24135164258E+02  0.50528867703E+02  0.30000023870E+02 0.  0.
         12    1    1    2    0    0 -0.66077796195E+01 -0.32046780398E+02 -0.24135164258E+02  0.40659132297E+02  0.00000000000E+00 0. -1.
         11    1    3    3    0    0 -0.20182090375E+01  0.11702203499E+02 -0.15411582617E+01  0.11974552330E+02  0.51100000000E-03 0. -1.
        -11    1    3    3    0    0  0.45843312895E+01 -0.19558610874E+01  0.10634539281E+01  0.50963144020E+01  0.51100000000E-03 0.  1.
        -12    1    3    3    0    0  0.40416573675E+01  0.22300437987E+02  0.24612868592E+02  0.33458000971E+02  0.00000000000E+00 0.  1.
</event>
<event>
 7    1  0.2969156E-011  0.5052887E+02  0.7816164E-02  0.1300439E+00
        -11   -1    0    0    0    0  0.00000000000E+00  0.00000000000E+00  0.45593999997E+02  0.45594000000E+02  0.51100000000E-03 0.  1.
         11   -1    0    0    0    0 -0.00000000000E+00 -0.00000000000E+00 -0.45593999997E+02  0.45594000000E+02  0.51100000000E-03 0. -1.
    9900012    2    1    2    0    0 -0.27604523687E+02 -0.52055532409E+01  0.29394856662E+02  0.50528866823E+02  0.30000021194E+02 0.  0.
         12    1    1    2    0    0  0.27604523687E+02  0.52055532409E+01 -0.29394856662E+02  0.40659133177E+02  0.00000000000E+00 0. -1.
         11    1    3    3    0    0 -0.11567869475E+01 -0.58230726635E+01  0.11923323141E+02  0.13319608338E+02  0.51100000000E-03 0. -1.
        -11    1    3    3    0    0 -0.22495323275E+02 -0.73953381749E+01  0.10630916561E+02  0.25956636591E+02  0.51100000000E-03 0.  1.
         12    1    3    3    0    0 -0.39524134649E+01  0.80128575975E+01  0.68406169600E+01  0.11252621893E+02  0.00000000000E+00 0. -1.
</event>
<event>
 7    1  0.2969156E-011  0.5052886E+02  0.7816164E-02  0.1300439E+00
        -11   -1    0    0    0    0  0.00000000000E+00  0.00000000000E+00  0.45593999997E+02  0.45594000000E+02  0.51100000000E-03 0.  1.
         11   -1    0    0    0    0 -0.00000000000E+00 -0.00000000000E+00 -0.45593999997E+02  0.45594000000E+02  0.51100000000E-03 0. -1.
    9900012    2    1    2    0    0 -0.12003487072E+02 -0.32897030672E+02  0.20660771022E+02  0.50528858493E+02  0.29999995875E+02 0.  0.
         12    1    1    2    0    0  0.12003487072E+02  0.32897030672E+02 -0.20660771022E+02  0.40659141507E+02  0.00000000000E+00 0. -1.
         11    1    3    3    0    0  0.38446525233E+01 -0.70484853397E+01  0.88402711962E+01  0.11942064047E+02  0.51100000000E-03 0. -1.
        -11    1    3    3    0    0 -0.94518273824E+00 -0.62779969570E+01 -0.55826814441E+01  0.84541675266E+01  0.51100000000E-03 0.  1.
        -12    1    3    3    0    0 -0.14902956857E+02 -0.19570548375E+02  0.17403181269E+02  0.30132626920E+02  0.00000000000E+00 0.  1.
</event>
<event>
 7    1  0.2969156E-011  0.5052885E+02  0.7816164E-02  0.1300439E+00
        -11   -1    0    0    0    0  0.00000000000E+00  0.00000000000E+00  0.45593999997E+02  0.45594000000E+02  0.51100000000E-03 0. -1.
         11   -1    0    0    0    0 -0.00000000000E+00 -0.00000000000E+00 -0.45593999997E+02  0.45594000000E+02  0.51100000000E-03 0.  1.
    9900012    2    1    2    0    0  0.28098417996E+02  0.62612866495E+01 -0.28713097164E+02  0.50528846625E+02  0.29999959801E+02 0.  0.
         12    1    1    2    0    0 -0.28098417996E+02 -0.62612866495E+01  0.28713097164E+02  0.40659153375E+02  0.00000000000E+00 0. -1.
         11    1    3    3    0    0  0.99709977297E+01  0.83363454907E+01 -0.48668655868E+01  0.13878106238E+02  0.51100000000E-03 0. -1.
        -11    1    3    3    0    0  0.77406864090E+01  0.18944047476E+01 -0.24248134770E+02  0.25524087359E+02  0.51100000000E-03 0.  1.
         12    1    3    3    0    0  0.10386733858E+02 -0.39694635889E+01  0.40190319214E+00  0.11126653027E+02  0.00000000000E+00 0. -1.
</event>
<event>
 7    1  0.2969156E-011  0.5052886E+02  0.7816164E-02  0.1300439E+00
        -11   -1    0    0    0    0  0.00000000000E+00  0.00000000000E+00  0.45593999997E+02  0.45594000000E+02  0.51100000000E-03 0.  1.
         11   -1    0    0    0    0 -0.00000000000E+00 -0.00000000000E+00 -0.45593999997E+02  0.45594000000E+02  0.51100000000E-03 0. -1.
    9900012    2    1    2    0    0 -0.23764877214E+02 -0.62212824089E+01  0.32398952329E+02  0.50528857660E+02  0.29999993342E+02 0.  0.
         12    1    1    2    0    0  0.23764877214E+02  0.62212824089E+01 -0.32398952329E+02  0.40659142340E+02  0.00000000000E+00 0. -1.
         11    1    3    3    0    0  0.16125940911E+01 -0.72871047951E+01  0.33502130409E+01  0.81808485915E+01  0.51100000000E-03 0. -1.
        -11    1    3    3    0    0 -0.17489794642E+02 -0.24593059580E+01  0.76055944108E+01  0.19229824986E+02  0.51100000000E-03 0.  1.
        -12    1    3    3    0    0 -0.78876766636E+01  0.35251283442E+01  0.21443144878E+02  0.23118184082E+02  0.00000000000E+00 0.  1.
</event>
<event>
 7    1  0.2969156E-011  0.5052885E+02  0.7816164E-02  0.1300439E+00
        -11   -1    0    0    0    0  0.00000000000E+00  0.00000000000E+00  0.45593999997E+02  0.45594000000E+02  0.51100000000E-03 0.  1.
         11   -1    0    0    0    0 -0.00000000000E+00 -0.00000000000E+00 -0.45593999997E+02  0.45594000000E+02  0.51100000000E-03 0. -1.
    9900012    2    1    2    0    0 -0.26417211488E+02 -0.30089507861E+01  0.30761072505E+02  0.50528850608E+02  0.29999971909E+02 0.  0.
         12    1    1    2    0    0  0.26417211488E+02  0.30089507861E+01 -0.30761072505E+02  0.40659149392E+02  0.00000000000E+00 0. -1.
         11    1    3    3    0    0 -0.70859988797E+01 -0.50087482777E+01  0.12365861408E+02  0.15106735850E+02  0.51100000000E-03 0. -1.
        -11    1    3    3    0    0 -0.13341141532E+02  0.58867266394E+01  0.22776432579E+02  0.27044509409E+02  0.51100000000E-03 0.  1.
         12    1    3    3    0    0 -0.59900710764E+01 -0.38869291478E+01 -0.43812214821E+01  0.83776053485E+01  0.00000000000E+00 0. -1.
</event>
<event>
 7    1  0.2969156E-011  0.5052886E+02  0.7816164E-02  0.1300439E+00
        -11   -1    0    0    0    0  0.00000000000E+00  0.00000000000E+00  0.45593999997E+02  0.45594000000E+02  0.51100000000E-03 0.  1.
         11   -1    0    0    0    0 -0.00000000000E+00 -0.00000000000E+00 -0.45593999997E+02  0.45594000000E+02  0.51100000000E-03 0. -1.
    9900012    2    1    2    0    0  0.37993938837E+02 -0.13860054383E+01 -0.14411986233E+02  0.50528859003E+02  0.29999997425E+02 0.  0.
         12    1    1    2    0    0 -0.37993938837E+02  0.13860054383E+01  0.14411986233E+02  0.40659140997E+02  0.00000000000E+00 0. -1.
         11    1    3    3    0    0  0.17388586789E+02  0.26509493202E+01 -0.89340844399E+01  0.19728364044E+02  0.51100000000E-03 0. -1.
        -11    1    3    3    0    0  0.13747098296E+02  0.80361603913E+01 -0.57015251648E+01  0.16913603249E+02  0.51100000000E-03 0.  1.
        -12    1    3    3    0    0  0.68582537524E+01 -0.12073115150E+02  0.22362337214E+00  0.13886891710E+02  0.00000000000E+00 0.  1.
</event>
<event>
 7    1  0.2969156E-011  0.5052885E+02  0.7816164E-02  0.1300439E+00
        -11   -1    0    0    0    0  0.00000000000E+00  0.00000000000E+00  0.45593999997E+02  0.45594000000E+02  0.51100000000E-03 0.  1.
         11   -1    0    0    0    0 -0.00000000000E+00 -0.00000000000E+00 -0.45593999997E+02  0.45594000000E+02  0.51100000000E-03 0. -1.
    9900012    2    1    2    0    0  0.24896374868E+02 -0.20274842188E+02  0.24945289702E+02  0.50528853605E+02  0.29999981016E+02 0.  0.
         12    1    1    2    0    0 -0.24896374868E+02  0.20274842188E+02 -0.24945289702E+02  0.40659146395E+02  0.00000000000E+00 0. -1.
         11    1    3    3    0    0  0.46055590714E+01 -0.55746312179E+01  0.57218337049E+01  0.92210123514E+01  0.51100000000E-03 0. -1.
        -11    1    3    3    0    0  0.78731192806E+01  0.31777330875E+01  0.17526173595E+02  0.19474361502E+02  0.51100000000E-03 0.  1.
        -12    1    3    3    0    0  0.12417696516E+02 -0.17877944058E+02  0.16972824019E+01  0.21833479751E+02  0.00000000000E+00 0.  1.
</event>
<event>
 7    1  0.2969156E-011  0.5052886E+02  0.7816164E-02  0.1300439E+00
        -11   -1    0    0    0    0  0.00000000000E+00  0.00000000000E+00  0.45593999997E+02  0.45594000000E+02  0.51100000000E-03 0. -1.
         11   -1    0    0    0    0 -0.00000000000E+00 -0.00000000000E+00 -0.45593999997E+02  0.45594000000E+02  0.51100000000E-03 0.  1.
    9900012    2    1    2    0    0 -0.38170727602E+02 -0.13968820844E+02 -0.10166903192E+01  0.50528855141E+02  0.29999985686E+02 0.  0.
         12    1    1    2    0    0  0.38170727602E+02  0.13968820844E+02  0.10166903192E+01  0.40659144859E+02  0.00000000000E+00 0. -1.
         11    1    3    3    0    0 -0.53981608020E+01 -0.65829015676E+01  0.57905641532E+01  0.10295890761E+02  0.51100000000E-03 0. -1.
        -11    1    3    3    0    0 -0.13369942847E+02 -0.13548349280E+02 -0.55922163354E+01  0.19839002590E+02  0.51100000000E-03 0.  1.
         12    1    3    3    0    0 -0.19402623953E+02  0.61624300030E+01 -0.12150381371E+01  0.20393961790E+02  0.00000000000E+00 0. -1.
</event>
<event>
 7    1  0.2969156E-011  0.5052886E+02  0.7816164E-02  0.1300439E+00
        -11   -1    0    0    0    0  0.00000000000E+00  0.00000000000E+00  0.45593999997E+02  0.45594000000E+02  0.51100000000E-03 0.  1.
         11   -1    0    0    0    0 -0.00000000000E+00 -0.00000000000E+00 -0.45593999997E+02  0.45594000000E+02  0.51100000000E-03 0. -1.
    9900012    2    1    2    0    0  0.49937480337E+01 -0.37997043166E+02  0.13581338112E+02  0.50528861376E+02  0.30000004638E+02 0.  0.
         12    1    1    2    0    0 -0.49937480337E+01  0.37997043166E+02 -0.13581338112E+02  0.40659138624E+02  0.00000000000E+00 0. -1.
         11    1    3    3    0    0 -0.30159413500E+01 -0.10223154856E+02  0.13160553411E+01  0.10739683392E+02  0.51100000000E-03 0. -1.
        -11    1    3    3    0    0  0.84813605597E+00 -0.30098270522E+02  0.11458328754E+02  0.32216742872E+02  0.51100000000E-03 0.  1.
         12    1    3    3    0    0  0.71615533277E+01  0.23243822124E+01  0.80695401658E+00  0.75724351117E+01  0.00000000000E+00 0. -1.
</event>
<event>
 7    1  0.2969156E-011  0.5052886E+02  0.7816164E-02  0.1300439E+00
        -11   -1    0    0    0    0  0.00000000000E+00  0.00000000000E+00  0.45593999997E+02  0.45594000000E+02  0.51100000000E-03 0.  1.
         11   -1    0    0    0    0 -0.00000000000E+00 -0.00000000000E+00 -0.45593999997E+02  0.45594000000E+02  0.51100000000E-03 0. -1.
    9900012    2    1    2    0    0  0.49912257432E+01 -0.55190353414E+01  0.39972412071E+02  0.50528858195E+02  0.29999994970E+02 0.  0.
         12    1    1    2    0    0 -0.49912257432E+01  0.55190353414E+01 -0.39972412071E+02  0.40659141805E+02  0.00000000000E+00 0. -1.
         11    1    3    3    0    0 -0.54716708096E+01 -0.70796677784E+01  0.13638418049E+02  0.16311570263E+02  0.51100000000E-03 0.  1.
        -11    1    3    3    0    0  0.12385758788E+02 -0.34876021020E+01  0.25747185347E+02  0.28783466482E+02  0.51100000000E-03 0. -1.
         12    1    3    3    0    0 -0.19228622349E+01  0.50482345389E+01  0.58680867565E+00  0.54338214506E+01  0.00000000000E+00 0. -1.
</event>
<event>
 7    1  0.2969156E-011  0.5052891E+02  0.7816164E-02  0.1300439E+00
        -11   -1    0    0    0    0  0.00000000000E+00  0.00000000000E+00  0.45593999997E+02  0.45594000000E+02  0.51100000000E-03 0.  1.
         11   -1    0    0    0    0 -0.00000000000E+00 -0.00000000000E+00 -0.45593999997E+02  0.45594000000E+02  0.51100000000E-03 0. -1.
    9900012    2    1    2    0    0  0.28006328430E+02 -0.23891416763E+02 -0.17262895227E+02  0.50528907798E+02  0.30000145741E+02 0.  0.
         12    1    1    2    0    0 -0.28006328430E+02  0.23891416763E+02  0.17262895227E+02  0.40659092202E+02  0.00000000000E+00 0. -1.
         11    1    3    3    0    0 -0.66386360653E+00 -0.10522380756E+02 -0.76501652200E+01  0.13026367100E+02  0.51100000000E-03 0. -1.
        -11    1    3    3    0    0  0.14878221355E+02 -0.17720337190E+01 -0.12168942887E+02  0.19302454389E+02  0.51100000000E-03 0.  1.
        -12    1    3    3    0    0  0.13791970682E+02 -0.11597002288E+02  0.25562128800E+01  0.18200086309E+02  0.00000000000E+00 0.  1.
</event>
<event>
 7    1  0.2969156E-011  0.5052889E+02  0.7816164E-02  0.1300439E+00
        -11   -1    0    0    0    0  0.00000000000E+00  0.00000000000E+00  0.45593999997E+02  0.45594000000E+02  0.51100000000E-03 0.  1.
         11   -1    0    0    0    0 -0.00000000000E+00 -0.00000000000E+00 -0.45593999997E+02  0.45594000000E+02  0.51100000000E-03 0. -1.
    9900012    2    1    2    0    0  0.16941659874E+02  0.10088087629E+02  0.35558033402E+02  0.50528891663E+02  0.30000096699E+02 0.  0.
         12    1    1    2    0    0 -0.16941659874E+02 -0.10088087629E+02 -0.35558033402E+02  0.40659108337E+02  0.00000000000E+00 0. -1.
         11    1    3    3    0    0  0.54384763782E+01  0.11651250969E+02  0.10417657317E+02  0.16548602923E+02  0.51100000000E-03 0. -1.
        -11    1    3    3    0    0  0.98004731111E+01  0.51830093609E+01  0.24622461560E+02  0.27003304849E+02  0.51100000000E-03 0.  1.
         12    1    3    3    0    0  0.17027103849E+01 -0.67461727007E+01  0.51791452499E+00  0.69769838912E+01  0.00000000000E+00 0. -1.
</event>
<event>
 7    1  0.2969156E-011  0.5052886E+02  0.7816164E-02  0.1300439E+00
        -11   -1    0    0    0    0  0.00000000000E+00  0.00000000000E+00  0.45593999997E+02  0.45594000000E+02  0.51100000000E-03 0.  1.
         11   -1    0    0    0    0 -0.00000000000E+00 -0.00000000000E+00 -0.45593999997E+02  0.45594000000E+02  0.51100000000E-03 0. -1.
    9900012    2    1    2    0    0  0.12558845101E+02 -0.78457628737E+01  0.37866671676E+02  0.50528863153E+02  0.30000010039E+02 0.  0.
         12    1    1    2    0    0 -0.12558845101E+02  0.78457628737E+01 -0.37866671676E+02  0.40659136847E+02  0.00000000000E+00 0. -1.
         11    1    3    3    0    0  0.10524086219E+02 -0.82675884945E+01  0.24406290199E+01  0.13603899460E+02  0.51100000000E-03 0. -1.
        -11    1    3    3    0    0  0.20494905275E+01  0.38436685835E+01  0.66721342949E+01  0.79681601334E+01  0.51100000000E-03 0.  1.
        -12    1    3    3    0    0 -0.14731645326E-01 -0.34218429627E+01  0.28753908361E+02  0.28956803559E+02  0.00000000000E+00 0.  1.
</event>
<event>
 7    1  0.2969156E-011  0.5052886E+02  0.7816164E-02  0.1300439E+00
        -11   -1    0    0    0    0  0.00000000000E+00  0.00000000000E+00  0.45593999997E+02  0.45594000000E+02  0.51100000000E-03 0. -1.
         11   -1    0    0    0    0 -0.00000000000E+00 -0.00000000000E+00 -0.45593999997E+02  0.45594000000E+02  0.51100000000E-03 0.  1.
    9900012    2    1    2    0    0  0.34543869941E+02 -0.18370845342E+02 -0.11063406817E+02  0.50528857369E+02  0.29999992459E+02 0.  0.
         12    1    1    2    0    0 -0.34543869941E+02  0.18370845342E+02  0.11063406817E+02  0.40659142631E+02  0.00000000000E+00 0. -1.
         11    1    3    3    0    0  0.21522703296E+02 -0.15202821984E+02 -0.32921992023E+01  0.26555435023E+02  0.51100000000E-03 0. -1.
        -11    1    3    3    0    0  0.12862853159E+02 -0.67165596716E+01 -0.11726844277E+02  0.18657010536E+02  0.51100000000E-03 0.  1.
         12    1    3    3    0    0  0.15831348624E+00  0.35485363134E+01  0.39556366615E+01  0.53164118092E+01  0.00000000000E+00 0. -1.
</event>
<event>
 7    1  0.2969156E-011  0.5052888E+02  0.7816164E-02  0.1300439E+00
        -11   -1    0    0    0    0  0.00000000000E+00  0.00000000000E+00  0.45593999997E+02  0.45594000000E+02  0.51100000000E-03 0.  1.
         11   -1    0    0    0    0 -0.00000000000E+00 -0.00000000000E+00 -0.45593999997E+02  0.45594000000E+02  0.51100000000E-03 0. -1.
    9900012    2    1    2    0    0 -0.13305005599E+02  0.31037036666E+02  0.22646047593E+02  0.50528876908E+02  0.30000051850E+02 0.  0.
         12    1    1    2    0    0  0.13305005599E+02 -0.31037036666E+02 -0.22646047593E+02  0.40659123092E+02  0.00000000000E+00 0. -1.
         11    1    3    3    0    0 -0.80145016881E+01  0.12175130282E+02  0.24775056920E+02  0.28744903555E+02  0.51100000000E-03 0.  1.
        -11    1    3    3    0    0  0.16428241331E+01  0.11250266875E+02 -0.15092221627E+01  0.11469312433E+02  0.51100000000E-03 0. -1.
        -12    1    3    3    0    0 -0.69333280437E+01  0.76116395088E+01 -0.61978716431E+00  0.10314660920E+02  0.00000000000E+00 0.  1.
</event>
<event>
 7    1  0.2969156E-011  0.5052886E+02  0.7816164E-02  0.1300439E+00
        -11   -1    0    0    0    0  0.00000000000E+00  0.00000000000E+00  0.45593999997E+02  0.45594000000E+02  0.51100000000E-03 0. -1.
         11   -1    0    0    0    0 -0.00000000000E+00 -0.00000000000E+00 -0.45593999997E+02  0.45594000000E+02  0.51100000000E-03 0.  1.
    9900012    2    1    2    0    0  0.38714474025E+02  0.11368346867E+02 -0.50116103987E+01  0.50528855293E+02  0.29999986149E+02 0.  0.
         12    1    1    2    0    0 -0.38714474025E+02 -0.11368346867E+02  0.50116103987E+01  0.40659144707E+02  0.00000000000E+00 0. -1.
         11    1    3    3    0    0  0.14531936718E+02 -0.15893711781E+01  0.47373687623E+01  0.15367040983E+02  0.51100000000E-03 0. -1.
        -11    1    3    3    0    0  0.10455671627E+02 -0.28161155128E+01 -0.92568381280E+01  0.14245723153E+02  0.51100000000E-03 0.  1.
         12    1    3    3    0    0  0.13726865680E+02  0.15773833558E+02 -0.49214103297E+00  0.20916091158E+02  0.00000000000E+00 0. -1.
</event>
<event>
 7    1  0.2969156E-011  0.5052885E+02  0.7816164E-02  0.1300439E+00
        -11   -1    0    0    0    0  0.00000000000E+00  0.00000000000E+00  0.45593999997E+02  0.45594000000E+02  0.51100000000E-03 0. -1.
         11   -1    0    0    0    0 -0.00000000000E+00 -0.00000000000E+00 -0.45593999997E+02  0.45594000000E+02  0.51100000000E-03 0.  1.
    9900012    2    1    2    0    0 -0.25592962423E+02 -0.30561028931E+02  0.80118620309E+01  0.50528854066E+02  0.29999982418E+02 0.  0.
         12    1    1    2    0    0  0.25592962423E+02  0.30561028931E+02 -0.80118620309E+01  0.40659145934E+02  0.00000000000E+00 0. -1.
         11    1    3    3    0    0 -0.87646062348E+01 -0.81110721089E+00 -0.51603337000E+01  0.10203198592E+02  0.51100000000E-03 0. -1.
        -11    1    3    3    0    0 -0.81809850711E+01 -0.23630952836E+02  0.22467005836E+01  0.25107730133E+02  0.51100000000E-03 0.  1.
         12    1    3    3    0    0 -0.86473711168E+01 -0.61189688849E+01  0.10925495147E+02  0.15217925340E+02  0.00000000000E+00 0. -1.
</event>
<event>
 7    1  0.2969156E-011  0.5052886E+02  0.7816164E-02  0.1300439E+00
        -11   -1    0    0    0    0  0.00000000000E+00  0.00000000000E+00  0.45593999997E+02  0.45594000000E+02  0.51100000000E-03 0. -1.
         11   -1    0    0    0    0 -0.00000000000E+00 -0.00000000000E+00 -0.45593999997E+02  0.45594000000E+02  0.51100000000E-03 0.  1.
    9900012    2    1    2    0    0  0.27902069257E+02  0.24477026581E+02 -0.16598664487E+02  0.50528856356E+02  0.29999989381E+02 0.  0.
         12    1    1    2    0    0 -0.27902069257E+02 -0.24477026581E+02  0.16598664487E+02  0.40659143644E+02  0.00000000000E+00 0. -1.
         11    1    3    3    0    0  0.24793895380E+02  0.69827518881E+01 -0.29614283477E+01  0.25928095383E+02  0.51100000000E-03 0. -1.
        -11    1    3    3    0    0 -0.14182401627E+01  0.39228526885E-01  0.68231839291E+00  0.15743261057E+01  0.51100000000E-03 0.  1.
        -12    1    3    3    0    0  0.45264140391E+01  0.17455046166E+02 -0.14319554532E+02  0.23026434868E+02  0.00000000000E+00 0.  1.
</event>
<event>
 7    1  0.2969156E-011  0.5052886E+02  0.7816164E-02  0.1300439E+00
        -11   -1    0    0    0    0  0.00000000000E+00  0.00000000000E+00  0.45593999997E+02  0.45594000000E+02  0.51100000000E-03 0.  1.
         11   -1    0    0    0    0 -0.00000000000E+00 -0.00000000000E+00 -0.45593999997E+02  0.45594000000E+02  0.51100000000E-03 0. -1.
    9900012    2    1    2    0    0  0.19409470274E+02  0.43650177255E+01  0.35459620218E+02  0.50528861027E+02  0.30000003577E+02 0.  0.
         12    1    1    2    0    0 -0.19409470274E+02 -0.43650177255E+01 -0.35459620218E+02  0.40659138973E+02  0.00000000000E+00 0. -1.
         11    1    3    3    0    0 -0.19121181208E+01  0.48725879825E+01  0.14534316431E+01  0.54323819047E+01  0.51100000000E-03 0. -1.
        -11    1    3    3    0    0 -0.12059755483E+01 -0.55788056541E+01  0.11565447750E+02  0.12897171452E+02  0.51100000000E-03 0.  1.
        -12    1    3    3    0    0  0.22527563943E+02  0.50712353970E+01  0.22440740825E+02  0.32199307670E+02  0.00000000000E+00 0.  1.
</event>
<event>
 7    1  0.2969156E-011  0.5052886E+02  0.7816164E-02  0.1300439E+00
        -11   -1    0    0    0    0  0.00000000000E+00  0.00000000000E+00  0.45593999997E+02  0.45594000000E+02  0.51100000000E-03 0.  1.
         11   -1    0    0    0    0 -0.00000000000E+00 -0.00000000000E+00 -0.45593999997E+02  0.45594000000E+02  0.51100000000E-03 0. -1.
    9900012    2    1    2    0    0 -0.52243982515E+01  0.18396181418E+01  0.40280107623E+02  0.50528860779E+02  0.30000002825E+02 0.  0.
         12    1    1    2    0    0  0.52243982515E+01 -0.18396181418E+01 -0.40280107623E+02  0.40659139221E+02  0.00000000000E+00 0. -1.
         11    1    3    3    0    0 -0.68347066295E+01 -0.39966939039E+01  0.27283671418E+02  0.28409250310E+02  0.51100000000E-03 0.  1.
        -11    1    3    3    0    0  0.70517138017E+00  0.10565334163E+02  0.13633745321E+02  0.17262750777E+02  0.51100000000E-03 0. -1.
        -12    1    3    3    0    0  0.90513699785E+00 -0.47290221172E+01 -0.63730911490E+00  0.48568596931E+01  0.00000000000E+00 0.  1.
</event>
<event>
 7    1  0.2969156E-011  0.5052885E+02  0.7816164E-02  0.1300439E+00
        -11   -1    0    0    0    0  0.00000000000E+00  0.00000000000E+00  0.45593999997E+02  0.45594000000E+02  0.51100000000E-03 0.  1.
         11   -1    0    0    0    0 -0.00000000000E+00 -0.00000000000E+00 -0.45593999997E+02  0.45594000000E+02  0.51100000000E-03 0. -1.
    9900012    2    1    2    0    0  0.26338139315E+02 -0.29622869143E+02  0.90528527497E+01  0.50528854636E+02  0.29999984152E+02 0.  0.
         12    1    1    2    0    0 -0.26338139315E+02  0.29622869143E+02 -0.90528527497E+01  0.40659145364E+02  0.00000000000E+00 0. -1.
         11    1    3    3    0    0  0.18160142453E+01 -0.28961381938E+01  0.73161664565E+01  0.80753833381E+01  0.51100000000E-03 0. -1.
        -11    1    3    3    0    0  0.13811513822E+02 -0.25940293706E+00  0.15488079978E+01  0.13900503963E+02  0.51100000000E-03 0.  1.
         12    1    3    3    0    0  0.10710611247E+02 -0.26467328012E+02  0.18787829541E+00  0.28552967335E+02  0.00000000000E+00 0. -1.
</event>
<event>
 7    1  0.2969156E-011  0.5052886E+02  0.7816164E-02  0.1300439E+00
        -11   -1    0    0    0    0  0.00000000000E+00  0.00000000000E+00  0.45593999997E+02  0.45594000000E+02  0.51100000000E-03 0.  1.
         11   -1    0    0    0    0 -0.00000000000E+00 -0.00000000000E+00 -0.45593999997E+02  0.45594000000E+02  0.51100000000E-03 0. -1.
    9900012    2    1    2    0    0 -0.37888398860E+02 -0.15871553093E+01  0.14666819461E+02  0.50528862979E+02  0.30000009512E+02 0.  0.
         12    1    1    2    0    0  0.37888398860E+02  0.15871553093E+01 -0.14666819461E+02  0.40659137021E+02  0.00000000000E+00 0. -1.
         11    1    3    3    0    0 -0.82426493541E+00  0.38925664610E+01 -0.14818338841E+01  0.42458589541E+01  0.51100000000E-03 0. -1.
        -11    1    3    3    0    0 -0.16101031663E+02  0.76209470970E+01  0.11290236499E+02  0.21090080505E+02  0.51100000000E-03 0.  1.
         12    1    3    3    0    0 -0.20963102262E+02 -0.13100668867E+02  0.48584168462E+01  0.25192923520E+02  0.00000000000E+00 0. -1.
</event>
<event>
 7    1  0.2969156E-011  0.5052885E+02  0.7816164E-02  0.1300439E+00
        -11   -1    0    0    0    0  0.00000000000E+00  0.00000000000E+00  0.45593999997E+02  0.45594000000E+02  0.51100000000E-03 0.  1.
         11   -1    0    0    0    0 -0.00000000000E+00 -0.00000000000E+00 -0.45593999997E+02  0.45594000000E+02  0.51100000000E-03 0. -1.
    9900012    2    1    2    0    0  0.19814570695E+02  0.13857721090E+02  0.32688109983E+02  0.50528853675E+02  0.29999981230E+02 0.  0.
         12    1    1    2    0    0 -0.19814570695E+02 -0.13857721090E+02 -0.32688109983E+02  0.40659146325E+02  0.00000000000E+00 0. -1.
         11    1    3    3    0    0 -0.47806037741E+01  0.12974542206E+00  0.18066434672E+01  0.51122370053E+01  0.51100000000E-03 0. -1.
        -11    1    3    3    0    0  0.10673102127E+02  0.14068309880E+02  0.24233681219E+02  0.29985058906E+02  0.51100000000E-03 0.  1.
        -12    1    3    3    0    0  0.13922072341E+02 -0.34033421220E+00  0.66477852973E+01  0.15431557764E+02  0.00000000000E+00 0.  1.
</event>
<event>
 7    1  0.2969156E-011  0.5052871E+02  0.7816164E-02  0.1300439E+00
        -11   -1    0    0    0    0  0.00000000000E+00  0.00000000000E+00  0.45593999997E+02  0.45594000000E+02  0.51100000000E-03 0. -1.
         11   -1    0    0    0    0 -0.00000000000E+00 -0.00000000000E+00 -0.45593999997E+02  0.45594000000E+02  0.51100000000E-03 0.  1.
    9900012    2    1    2    0    0 -0.66932020941E+01 -0.38551902298E+02  0.11051219620E+02  0.50528713482E+02  0.29999555096E+02 0.  0.
         12    1    1    2    0    0  0.66932020941E+01  0.38551902298E+02 -0.11051219620E+02  0.40659286518E+02  0.00000000000E+00 0. -1.
         11    1    3    3    0    0 -0.18644067757E+01 -0.16626859355E+02 -0.80309887588E+01  0.18558697296E+02  0.51100000000E-03 0. -1.
        -11    1    3    3    0    0 -0.30869626951E+01 -0.15825947910E+02  0.55977840649E+01  0.17068249841E+02  0.51100000000E-03 0.  1.
         12    1    3    3    0    0 -0.17418326234E+01 -0.60990950330E+01  0.13484424313E+02  0.14901766344E+02  0.00000000000E+00 0. -1.
</event>
<event>
 7    1  0.2969156E-011  0.5052886E+02  0.7816164E-02  0.1300439E+00
        -11   -1    0    0    0    0  0.00000000000E+00  0.00000000000E+00  0.45593999997E+02  0.45594000000E+02  0.51100000000E-03 0. -1.
         11   -1    0    0    0    0 -0.00000000000E+00 -0.00000000000E+00 -0.45593999997E+02  0.45594000000E+02  0.51100000000E-03 0.  1.
    9900012    2    1    2    0    0  0.17065411263E+02 -0.33698814842E+02 -0.15044183478E+02  0.50528857856E+02  0.29999993940E+02 0.  0.
         12    1    1    2    0    0 -0.17065411263E+02  0.33698814842E+02  0.15044183478E+02  0.40659142144E+02  0.00000000000E+00 0. -1.
         11    1    3    3    0    0  0.20509960632E+01 -0.11258840687E+02 -0.76181854242E+01  0.13747902672E+02  0.51100000000E-03 0. -1.
        -11    1    3    3    0    0  0.12137809799E+01 -0.17544656752E+02  0.42030357311E+01  0.18081862582E+02  0.51100000000E-03 0.  1.
         12    1    3    3    0    0  0.13800634220E+02 -0.48953174020E+01 -0.11629033785E+02  0.18699092602E+02  0.00000000000E+00 0. -1.
</event>
<event>
 7    1  0.2969156E-011  0.5052886E+02  0.7816164E-02  0.1300439E+00
        -11   -1    0    0    0    0  0.00000000000E+00  0.00000000000E+00  0.45593999997E+02  0.45594000000E+02  0.51100000000E-03 0.  1.
         11   -1    0    0    0    0 -0.00000000000E+00 -0.00000000000E+00 -0.45593999997E+02  0.45594000000E+02  0.51100000000E-03 0. -1.
    9900012    2    1    2    0    0 -0.22143508754E+02 -0.32951687399E+02  0.87759156876E+01  0.50528863530E+02  0.30000011185E+02 0.  0.
         12    1    1    2    0    0  0.22143508754E+02  0.32951687399E+02 -0.87759156876E+01  0.40659136470E+02  0.00000000000E+00 0. -1.
         11    1    3    3    0    0 -0.33994192603E+00 -0.95331158404E+01 -0.48242230563E+01  0.10689667277E+02  0.51100000000E-03 0. -1.
        -11    1    3    3    0    0 -0.82783965089E+00 -0.12281520395E+02  0.99150564736E+01  0.15805992750E+02  0.51100000000E-03 0.  1.
         12    1    3    3    0    0 -0.20975727177E+02 -0.11137051164E+02  0.36850822702E+01  0.24033203502E+02  0.00000000000E+00 0. -1.
</event>
<event>
 7    1  0.2969156E-011  0.5052886E+02  0.7816164E-02  0.1300439E+00
        -11   -1    0    0    0    0  0.00000000000E+00  0.00000000000E+00  0.45593999997E+02  0.45594000000E+02  0.51100000000E-03 0.  1.
         11   -1    0    0    0    0 -0.00000000000E+00 -0.00000000000E+00 -0.45593999997E+02  0.45594000000E+02  0.51100000000E-03 0. -1.
    9900012    2    1    2    0    0 -0.15157895365E+02  0.11215670754E+01  0.37711349208E+02  0.50528861253E+02  0.30000004264E+02 0.  0.
         12    1    1    2    0    0  0.15157895365E+02 -0.11215670754E+01 -0.37711349208E+02  0.40659138747E+02  0.00000000000E+00 0. -1.
         11    1    3    3    0    0  0.11166136768E+01  0.51180984816E+01 -0.68706007067E+00  0.52833521530E+01  0.51100000000E-03 0. -1.
        -11    1    3    3    0    0 -0.88448145699E+01 -0.76942716522E+01  0.92334586786E+01  0.14922778577E+02  0.51100000000E-03 0.  1.
        -12    1    3    3    0    0 -0.74296944721E+01  0.36977402460E+01  0.29164950600E+02  0.30322730523E+02  0.00000000000E+00 0.  1.
</event>
<event>
 7    1  0.2969156E-011  0.5052886E+02  0.7816164E-02  0.1300439E+00
        -11   -1    0    0    0    0  0.00000000000E+00  0.00000000000E+00  0.45593999997E+02  0.45594000000E+02  0.51100000000E-03 0.  1.
         11   -1    0    0    0    0 -0.00000000000E+00 -0.00000000000E+00 -0.45593999997E+02  0.45594000000E+02  0.51100000000E-03 0. -1.
    9900012    2    1    2    0    0  0.85896035267E+01 -0.32980626761E+02  0.22173465619E+02  0.50528860710E+02  0.30000002613E+02 0.  0.
         12    1    1    2    0    0 -0.85896035267E+01  0.32980626761E+02 -0.22173465619E+02  0.40659139290E+02  0.00000000000E+00 0. -1.
         11    1    3    3    0    0  0.45569540907E+01 -0.39986784498E+01 -0.14279620641E+01  0.62285099219E+01  0.51100000000E-03 0. -1.
        -11    1    3    3    0    0 -0.46065067463E+01  0.20426047900E+01  0.50513331078E+01  0.71349916018E+01  0.51100000000E-03 0.  1.
        -12    1    3    3    0    0  0.86391561823E+01 -0.31024553101E+02  0.18550094575E+02  0.37165359186E+02  0.00000000000E+00 0.  1.
</event>
<event>
 7    1  0.2969156E-011  0.5052900E+02  0.7816164E-02  0.1300438E+00
        -11   -1    0    0    0    0  0.00000000000E+00  0.00000000000E+00  0.45593999997E+02  0.45594000000E+02  0.51100000000E-03 0.  1.
         11   -1    0    0    0    0 -0.00000000000E+00 -0.00000000000E+00 -0.45593999997E+02  0.45594000000E+02  0.51100000000E-03 0. -1.
    9900012    2    1    2    0    0 -0.10882936216E+01  0.40565579346E+02  0.25304745358E+01  0.50529004537E+02  0.30000439789E+02 0.  0.
         12    1    1    2    0    0  0.10882936216E+01 -0.40565579346E+02 -0.25304745358E+01  0.40658995463E+02  0.00000000000E+00 0. -1.
         11    1    3    3    0    0  0.10665909898E+01  0.13621889753E+01 -0.24684545376E+01  0.30143727721E+01  0.51100000000E-03 0. -1.
        -11    1    3    3    0    0 -0.11733272824E+02  0.34748862946E+02  0.43089767037E+01  0.36928585780E+02  0.51100000000E-03 0.  1.
         12    1    3    3    0    0  0.95783882129E+01  0.44545274241E+01  0.68995236970E+00  0.10586045985E+02  0.00000000000E+00 0. -1.
</event>
<event>
 7    1  0.2969156E-011  0.5052887E+02  0.7816164E-02  0.1300439E+00
        -11   -1    0    0    0    0  0.00000000000E+00  0.00000000000E+00  0.45593999997E+02  0.45594000000E+02  0.51100000000E-03 0. -1.
         11   -1    0    0    0    0 -0.00000000000E+00 -0.00000000000E+00 -0.45593999997E+02  0.45594000000E+02  0.51100000000E-03 0.  1.
    9900012    2    1    2    0    0 -0.29840842582E+02  0.25788880944E+02 -0.98804166013E+01  0.50528869432E+02  0.30000029127E+02 0.  0.
         12    1    1    2    0    0  0.29840842582E+02 -0.25788880944E+02  0.98804166013E+01  0.40659130568E+02  0.00000000000E+00 0. -1.
         11    1    3    3    0    0  0.19237509907E+01 -0.24001599775E+01 -0.20311279189E+01  0.36860638459E+01  0.51100000000E-03 0. -1.
        -11    1    3    3    0    0 -0.57354779596E+01  0.15195930062E+02 -0.71398467215E+01  0.17742305638E+02  0.51100000000E-03 0.  1.
        -12    1    3    3    0    0 -0.26029115613E+02  0.12993110859E+02 -0.70944196085E+00  0.29100499949E+02  0.00000000000E+00 0.  1.
</event>
<event>
 7    1  0.2969156E-011  0.5052886E+02  0.7816164E-02  0.1300439E+00
        -11   -1    0    0    0    0  0.00000000000E+00  0.00000000000E+00  0.45593999997E+02  0.45594000000E+02  0.51100000000E-03 0. -1.
         11   -1    0    0    0    0 -0.00000000000E+00 -0.00000000000E+00 -0.45593999997E+02  0.45594000000E+02  0.51100000000E-03 0.  1.
    9900012    2    1    2    0    0 -0.30603742750E+02 -0.20900293083E+02 -0.16725868745E+02  0.50528855806E+02  0.29999987708E+02 0.  0.
         12    1    1    2    0    0  0.30603742750E+02  0.20900293083E+02  0.16725868745E+02  0.40659144194E+02  0.00000000000E+00 0. -1.
         11    1    3    3    0    0 -0.63621073927E+00  0.41179580200E+01  0.20042210182E+01  0.46237695130E+01  0.51100000000E-03 0. -1.
        -11    1    3    3    0    0 -0.14885983479E+02 -0.18627128349E+02 -0.17307169230E+02  0.29463545640E+02  0.51100000000E-03 0.  1.
         12    1    3    3    0    0 -0.15081548533E+02 -0.63911227540E+01 -0.14229205327E+01  0.16441540653E+02  0.00000000000E+00 0. -1.
</event>
<event>
 7    1  0.2969156E-011  0.5052886E+02  0.7816164E-02  0.1300439E+00
        -11   -1    0    0    0    0  0.00000000000E+00  0.00000000000E+00  0.45593999997E+02  0.45594000000E+02  0.51100000000E-03 0.  1.
         11   -1    0    0    0    0 -0.00000000000E+00 -0.00000000000E+00 -0.45593999997E+02  0.45594000000E+02  0.51100000000E-03 0. -1.
    9900012    2    1    2    0    0  0.28877917234E+02 -0.22840749097E+02  0.17249111330E+02  0.50528858780E+02  0.29999996746E+02 0.  0.
         12    1    1    2    0    0 -0.28877917234E+02  0.22840749097E+02 -0.17249111330E+02  0.40659141220E+02  0.00000000000E+00 0. -1.
         11    1    3    3    0    0  0.23251657528E+02 -0.12659918780E+02  0.70141753601E+01  0.27388168569E+02  0.51100000000E-03 0. -1.
        -11    1    3    3    0    0  0.10022489345E+02 -0.10785033255E+02  0.11320777611E+02  0.18572216910E+02  0.51100000000E-03 0.  1.
        -12    1    3    3    0    0 -0.43962296385E+01  0.60420293843E+00 -0.10858416411E+01  0.45684733002E+01  0.00000000000E+00 0.  1.
</event>
<event>
 7    1  0.2969156E-011  0.5052885E+02  0.7816164E-02  0.1300439E+00
        -11   -1    0    0    0    0  0.00000000000E+00  0.00000000000E+00  0.45593999997E+02  0.45594000000E+02  0.51100000000E-03 0. -1.
         11   -1    0    0    0    0 -0.00000000000E+00 -0.00000000000E+00 -0.45593999997E+02  0.45594000000E+02  0.51100000000E-03 0.  1.
    9900012    2    1    2    0    0 -0.38942068310E+02 -0.32818479804E+01 -0.11221018270E+02  0.50528850213E+02  0.29999970706E+02 0.  0.
         12    1    1    2    0    0  0.38942068310E+02  0.32818479804E+01  0.11221018270E+02  0.40659149787E+02  0.00000000000E+00 0. -1.
         11    1    3    3    0    0 -0.12822126399E+02 -0.96730359048E+01  0.42739244769E+01  0.16620498780E+02  0.51100000000E-03 0. -1.
        -11    1    3    3    0    0 -0.54775844428E+01 -0.30782144558E+01 -0.76079127985E+01  0.98671005354E+01  0.51100000000E-03 0.  1.
         12    1    3    3    0    0 -0.20642357468E+02  0.94694023803E+01 -0.78870299485E+01  0.24041250897E+02  0.00000000000E+00 0. -1.
</event>
<event>
 7    1  0.2969156E-011  0.5052886E+02  0.7816164E-02  0.1300439E+00
        -11   -1    0    0    0    0  0.00000000000E+00  0.00000000000E+00  0.45593999997E+02  0.45594000000E+02  0.51100000000E-03 0. -1.
         11   -1    0    0    0    0 -0.00000000000E+00 -0.00000000000E+00 -0.45593999997E+02  0.45594000000E+02  0.51100000000E-03 0.  1.
    9900012    2    1    2    0    0 -0.25422588024E+02 -0.19607819947E+02  0.24947769730E+02  0.50528858354E+02  0.29999995453E+02 0.  0.
         12    1    1    2    0    0  0.25422588024E+02  0.19607819947E+02 -0.24947769730E+02  0.40659141646E+02  0.00000000000E+00 0. -1.
         11    1    3    3    0    0  0.20009660657E+01 -0.10460299909E+02  0.43030476995E+01  0.11486424994E+02  0.51100000000E-03 0. -1.
        -11    1    3    3    0    0 -0.81412181183E+01 -0.44234495667E+01 -0.14061969549E+01  0.93714315158E+01  0.51100000000E-03 0.  1.
         12    1    3    3    0    0 -0.19282335971E+02 -0.47240704709E+01  0.22050918985E+02  0.29671001844E+02  0.00000000000E+00 0. -1.
</event>
<event>
 7    1  0.2969156E-011  0.5052886E+02  0.7816164E-02  0.1300439E+00
        -11   -1    0    0    0    0  0.00000000000E+00  0.00000000000E+00  0.45593999997E+02  0.45594000000E+02  0.51100000000E-03 0.  1.
         11   -1    0    0    0    0 -0.00000000000E+00 -0.00000000000E+00 -0.45593999997E+02  0.45594000000E+02  0.51100000000E-03 0. -1.
    9900012    2    1    2    0    0 -0.69104576149E+01 -0.37285457629E+01  0.39893724738E+02  0.50528858944E+02  0.29999997245E+02 0.  0.
         12    1    1    2    0    0  0.69104576149E+01  0.37285457629E+01 -0.39893724738E+02  0.40659141056E+02  0.00000000000E+00 0. -1.
         11    1    3    3    0    0 -0.31508876999E+01 -0.35525504418E+01  0.29568218181E+01  0.55938808947E+01  0.51100000000E-03 0. -1.
        -11    1    3    3    0    0 -0.12821463754E+02 -0.64251843122E+01  0.17805734498E+02  0.22863007403E+02  0.51100000000E-03 0.  1.
         12    1    3    3    0    0  0.90618938391E+01  0.62491889911E+01  0.19131168422E+02  0.22071970646E+02  0.00000000000E+00 0. -1.
</event>
<event>
 7    1  0.2969156E-011  0.5052886E+02  0.7816164E-02  0.1300439E+00
        -11   -1    0    0    0    0  0.00000000000E+00  0.00000000000E+00  0.45593999997E+02  0.45594000000E+02  0.51100000000E-03 0.  1.
         11   -1    0    0    0    0 -0.00000000000E+00 -0.00000000000E+00 -0.45593999997E+02  0.45594000000E+02  0.51100000000E-03 0. -1.
    9900012    2    1    2    0    0  0.15340848134E+02  0.29963380158E+01  0.37534594623E+02  0.50528862571E+02  0.30000008270E+02 0.  0.
         12    1    1    2    0    0 -0.15340848134E+02 -0.29963380158E+01 -0.37534594623E+02  0.40659137429E+02  0.00000000000E+00 0. -1.
         11    1    3    3    0    0  0.12945768595E+02  0.30860719581E+01  0.73546912886E+01  0.15205533495E+02  0.51100000000E-03 0. -1.
        -11    1    3    3    0    0  0.54676017776E+01  0.26040813358E+01  0.30620325245E+02  0.31213462275E+02  0.51100000000E-03 0.  1.
         12    1    3    3    0    0 -0.30725222390E+01 -0.26938152781E+01 -0.44042191060E+00  0.41098668008E+01  0.00000000000E+00 0. -1.
</event>
<event>
 7    1  0.2969156E-011  0.5052888E+02  0.7816164E-02  0.1300439E+00
        -11   -1    0    0    0    0  0.00000000000E+00  0.00000000000E+00  0.45593999997E+02  0.45594000000E+02  0.51100000000E-03 0. -1.
         11   -1    0    0    0    0 -0.00000000000E+00 -0.00000000000E+00 -0.45593999997E+02  0.45594000000E+02  0.51100000000E-03 0.  1.
    9900012    2    1    2    0    0 -0.30464996777E+02  0.18972976090E+02 -0.19106914561E+02  0.50528880059E+02  0.30000061428E+02 0.  0.
         12    1    1    2    0    0  0.30464996777E+02 -0.18972976090E+02  0.19106914561E+02  0.40659119941E+02  0.00000000000E+00 0. -1.
         11    1    3    3    0    0 -0.19012610140E+02  0.23617159256E+02 -0.66019512668E+01  0.31029587758E+02  0.51100000000E-03 0. -1.
        -11    1    3    3    0    0 -0.10285212847E+02 -0.11685198583E+00 -0.85379170161E+01  0.13367695573E+02  0.51100000000E-03 0.  1.
        -12    1    3    3    0    0 -0.11671737902E+01 -0.45273311803E+01 -0.39670462776E+01  0.61315967285E+01  0.00000000000E+00 0.  1.
</event>
<event>
 7    1  0.2969156E-011  0.5052887E+02  0.7816164E-02  0.1300439E+00
        -11   -1    0    0    0    0  0.00000000000E+00  0.00000000000E+00  0.45593999997E+02  0.45594000000E+02  0.51100000000E-03 0. -1.
         11   -1    0    0    0    0 -0.00000000000E+00 -0.00000000000E+00 -0.45593999997E+02  0.45594000000E+02  0.51100000000E-03 0.  1.
    9900012    2    1    2    0    0  0.27057990012E+02 -0.27369928663E+02 -0.13111728079E+02  0.50528865335E+02  0.30000016672E+02 0.  0.
         12    1    1    2    0    0 -0.27057990012E+02  0.27369928663E+02  0.13111728079E+02  0.40659134665E+02  0.00000000000E+00 0. -1.
         11    1    3    3    0    0  0.15367927623E+02 -0.13865189007E+02  0.34503746167E+01  0.20983844998E+02  0.51100000000E-03 0. -1.
        -11    1    3    3    0    0  0.16004857067E+02 -0.10049164013E+02 -0.13508376864E+02  0.23229666223E+02  0.51100000000E-03 0.  1.
        -12    1    3    3    0    0 -0.43147946775E+01 -0.34555756427E+01 -0.30537258316E+01  0.63153541141E+01  0.00000000000E+00 0.  1.
</event>
<event>
 7    1  0.2969156E-011  0.5052886E+02  0.7816164E-02  0.1300439E+00
        -11   -1    0    0    0    0  0.00000000000E+00  0.00000000000E+00  0.45593999997E+02  0.45594000000E+02  0.51100000000E-03 0. -1.
         11   -1    0    0    0    0 -0.00000000000E+00 -0.00000000000E+00 -0.45593999997E+02  0.45594000000E+02  0.51100000000E-03 0.  1.
    9900012    2    1    2    0    0  0.22703746275E+02 -0.33018720361E+02  0.68898205676E+01  0.50528860601E+02  0.30000002284E+02 0.  0.
         12    1    1    2    0    0 -0.22703746275E+02  0.33018720361E+02 -0.68898205676E+01  0.40659139399E+02  0.00000000000E+00 0. -1.
         11    1    3    3    0    0  0.65613729385E+01 -0.66326008998E+01  0.10293673898E+02  0.13892542320E+02  0.51100000000E-03 0. -1.
        -11    1    3    3    0    0 -0.39587216827E+01 -0.20777517913E+01 -0.24072594224E+01  0.50777384784E+01  0.51100000000E-03 0.  1.
        -12    1    3    3    0    0  0.20101095019E+02 -0.24308367670E+02 -0.99659390834E+00  0.31558579803E+02  0.00000000000E+00 0.  1.
</event>
<event>
 7    1  0.2969156E-011  0.5052886E+02  0.7816164E-02  0.1300439E+00
        -11   -1    0    0    0    0  0.00000000000E+00  0.00000000000E+00  0.45593999997E+02  0.45594000000E+02  0.51100000000E-03 0.  1.
         11   -1    0    0    0    0 -0.00000000000E+00 -0.00000000000E+00 -0.45593999997E+02  0.45594000000E+02  0.51100000000E-03 0. -1.
    9900012    2    1    2    0    0 -0.13345031300E+02  0.19725238093E+02  0.32954380294E+02  0.50528855164E+02  0.29999985756E+02 0.  0.
         12    1    1    2    0    0  0.13345031300E+02 -0.19725238093E+02 -0.32954380294E+02  0.40659144836E+02  0.00000000000E+00 0. -1.
         11    1    3    3    0    0 -0.18235422633E+01  0.68617503276E+01 -0.43432250390E+01  0.83230119515E+01  0.51100000000E-03 0. -1.
        -11    1    3    3    0    0 -0.34779961577E+01  0.62656850769E+01  0.64151026359E+01  0.96181499701E+01  0.51100000000E-03 0.  1.
        -12    1    3    3    0    0 -0.80434928790E+01  0.65978026889E+01  0.30882502697E+02  0.32587693242E+02  0.00000000000E+00 0.  1.
</event>
<event>
 7    1  0.2969156E-011  0.5052887E+02  0.7816164E-02  0.1300439E+00
        -11   -1    0    0    0    0  0.00000000000E+00  0.00000000000E+00  0.45593999997E+02  0.45594000000E+02  0.51100000000E-03 0.  1.
         11   -1    0    0    0    0 -0.00000000000E+00 -0.00000000000E+00 -0.45593999997E+02  0.45594000000E+02  0.51100000000E-03 0. -1.
    9900012    2    1    2    0    0 -0.21942431438E+02 -0.32256872887E+02 -0.11453760302E+02  0.50528871001E+02  0.30000033895E+02 0.  0.
         12    1    1    2    0    0  0.21942431438E+02  0.32256872887E+02  0.11453760302E+02  0.40659128999E+02  0.00000000000E+00 0. -1.
         11    1    3    3    0    0 -0.17643875320E+02 -0.31401169101E+02 -0.19178540667E+02  0.40806325240E+02  0.51100000000E-03 0. -1.
        -11    1    3    3    0    0 -0.17964095342E+01 -0.18315390055E+01  0.15710850615E+01  0.30083103023E+01  0.51100000000E-03 0.  1.
         12    1    3    3    0    0 -0.25021465841E+01  0.97583521891E+00  0.61536953039E+01  0.67142354588E+01  0.00000000000E+00 0. -1.
</event>
<event>
 7    1  0.2969156E-011  0.5052887E+02  0.7816164E-02  0.1300439E+00
        -11   -1    0    0    0    0  0.00000000000E+00  0.00000000000E+00  0.45593999997E+02  0.45594000000E+02  0.51100000000E-03 0.  1.
         11   -1    0    0    0    0 -0.00000000000E+00 -0.00000000000E+00 -0.45593999997E+02  0.45594000000E+02  0.51100000000E-03 0. -1.
    9900012    2    1    2    0    0 -0.55937340439E+01 -0.26954610795E+02  0.29921970579E+02  0.50528865394E+02  0.30000016850E+02 0.  0.
         12    1    1    2    0    0  0.55937340439E+01  0.26954610795E+02 -0.29921970579E+02  0.40659134606E+02  0.00000000000E+00 0. -1.
         11    1    3    3    0    0  0.33288515318E+01 -0.12038215327E+02  0.21463359154E+02  0.24832955266E+02  0.51100000000E-03 0. -1.
        -11    1    3    3    0    0  0.43137993036E+01 -0.85427127749E+01  0.35236713699E+01  0.10198189357E+02  0.51100000000E-03 0.  1.
         12    1    3    3    0    0 -0.13236384879E+02 -0.63736826929E+01  0.49349400542E+01  0.15497720770E+02  0.00000000000E+00 0. -1.
</event>
<event>
 7    1  0.2969156E-011  0.5052887E+02  0.7816164E-02  0.1300439E+00
        -11   -1    0    0    0    0  0.00000000000E+00  0.00000000000E+00  0.45593999997E+02  0.45594000000E+02  0.51100000000E-03 0.  1.
         11   -1    0    0    0    0 -0.00000000000E+00 -0.00000000000E+00 -0.45593999997E+02  0.45594000000E+02  0.51100000000E-03 0. -1.
    9900012    2    1    2    0    0  0.33149872374E+00  0.17465448358E+02  0.36715292195E+02  0.50528874841E+02  0.30000045566E+02 0.  0.
         12    1    1    2    0    0 -0.33149872374E+00 -0.17465448358E+02 -0.36715292195E+02  0.40659125159E+02  0.00000000000E+00 0. -1.
         11    1    3    3    0    0  0.13489016586E+00 -0.51687768322E+01  0.72414905238E+01  0.88979567635E+01  0.51100000000E-03 0. -1.
        -11    1    3    3    0    0 -0.55913762776E+00  0.87257238140E+01  0.25777163016E+02  0.27219717566E+02  0.51100000000E-03 0.  1.
         12    1    3    3    0    0  0.75574618565E+00  0.13908501376E+02  0.36966386555E+01  0.14411200511E+02  0.00000000000E+00 0. -1.
</event>
<event>
 7    1  0.2969156E-011  0.5052886E+02  0.7816164E-02  0.1300439E+00
        -11   -1    0    0    0    0  0.00000000000E+00  0.00000000000E+00  0.45593999997E+02  0.45594000000E+02  0.51100000000E-03 0.  1.
         11   -1    0    0    0    0 -0.00000000000E+00 -0.00000000000E+00 -0.45593999997E+02  0.45594000000E+02  0.51100000000E-03 0. -1.
    9900012    2    1    2    0    0 -0.25171054032E+02 -0.11849916587E+02  0.29650683889E+02  0.50528861553E+02  0.30000005177E+02 0.  0.
         12    1    1    2    0    0  0.25171054032E+02  0.11849916587E+02 -0.29650683889E+02  0.40659138447E+02  0.00000000000E+00 0. -1.
         11    1    3    3    0    0 -0.21271408804E+01  0.18872391473E+01  0.11690145631E+02  0.12031039235E+02  0.51100000000E-03 0. -1.
        -11    1    3    3    0    0 -0.70962275967E+01  0.49120571889E+01  0.10434649739E+01  0.86933061227E+01  0.51100000000E-03 0.  1.
         12    1    3    3    0    0 -0.15947685554E+02 -0.18649212923E+02  0.16917073284E+02  0.29804516196E+02  0.00000000000E+00 0. -1.
</event>
<event>
 7    1  0.2969156E-011  0.5052886E+02  0.7816164E-02  0.1300439E+00
        -11   -1    0    0    0    0  0.00000000000E+00  0.00000000000E+00  0.45593999997E+02  0.45594000000E+02  0.51100000000E-03 0.  1.
         11   -1    0    0    0    0 -0.00000000000E+00 -0.00000000000E+00 -0.45593999997E+02  0.45594000000E+02  0.51100000000E-03 0. -1.
    9900012    2    1    2    0    0  0.13879071637E+02  0.28389238746E+02  0.25584921891E+02  0.50528859155E+02  0.29999997887E+02 0.  0.
         12    1    1    2    0    0 -0.13879071637E+02 -0.28389238746E+02 -0.25584921891E+02  0.40659140845E+02  0.00000000000E+00 0. -1.
         11    1    3    3    0    0  0.95967302523E+01  0.16228191940E+02  0.24554777468E+02  0.30957851055E+02  0.51100000000E-03 0. -1.
        -11    1    3    3    0    0 -0.40023075475E+01  0.73959453604E+01  0.43317486384E+01  0.94595200727E+01  0.51100000000E-03 0.  1.
         12    1    3    3    0    0  0.82846489323E+01  0.47651014459E+01 -0.33016042154E+01  0.10111488027E+02  0.00000000000E+00 0. -1.
</event>
<event>
 7    1  0.2969156E-011  0.5052885E+02  0.7816164E-02  0.1300439E+00
        -11   -1    0    0    0    0  0.00000000000E+00  0.00000000000E+00  0.45593999997E+02  0.45594000000E+02  0.51100000000E-03 0.  1.
         11   -1    0    0    0    0 -0.00000000000E+00 -0.00000000000E+00 -0.45593999997E+02  0.45594000000E+02  0.51100000000E-03 0. -1.
    9900012    2    1    2    0    0 -0.20334273910E+02 -0.33077753668E+02  0.12064244095E+02  0.50528850122E+02  0.29999970432E+02 0.  0.
         12    1    1    2    0    0  0.20334273910E+02  0.33077753668E+02 -0.12064244095E+02  0.40659149878E+02  0.00000000000E+00 0. -1.
         11    1    3    3    0    0 -0.78416528358E+01 -0.79561940968E+01  0.16214349289E+02  0.19690039787E+02  0.51100000000E-03 0. -1.
        -11    1    3    3    0    0 -0.85995119326E+01 -0.20095040216E+02  0.20558122839E+01  0.21954239025E+02  0.51100000000E-03 0.  1.
         12    1    3    3    0    0 -0.38931091416E+01 -0.50265193556E+01 -0.62059174778E+01  0.88845713099E+01  0.00000000000E+00 0. -1.
</event>
<event>
 7    1  0.2969156E-011  0.5052885E+02  0.7816164E-02  0.1300439E+00
        -11   -1    0    0    0    0  0.00000000000E+00  0.00000000000E+00  0.45593999997E+02  0.45594000000E+02  0.51100000000E-03 0.  1.
         11   -1    0    0    0    0 -0.00000000000E+00 -0.00000000000E+00 -0.45593999997E+02  0.45594000000E+02  0.51100000000E-03 0. -1.
    9900012    2    1    2    0    0  0.16058150294E+02 -0.13657730334E+02  0.34767345885E+02  0.50528854305E+02  0.29999983146E+02 0.  0.
         12    1    1    2    0    0 -0.16058150294E+02  0.13657730334E+02 -0.34767345885E+02  0.40659145695E+02  0.00000000000E+00 0. -1.
         11    1    3    3    0    0  0.13338054823E+02 -0.12707975272E+02  0.94654132853E+01  0.20712083210E+02  0.51100000000E-03 0. -1.
        -11    1    3    3    0    0  0.71125390423E+01 -0.55252422626E+01  0.18121279508E+02  0.20236039260E+02  0.51100000000E-03 0.  1.
        -12    1    3    3    0    0 -0.43924435722E+01  0.45754872002E+01  0.71806530923E+01  0.95807318346E+01  0.00000000000E+00 0.  1.
</event>
<event>
 7    1  0.2969156E-011  0.5052889E+02  0.7816164E-02  0.1300439E+00
        -11   -1    0    0    0    0  0.00000000000E+00  0.00000000000E+00  0.45593999997E+02  0.45594000000E+02  0.51100000000E-03 0. -1.
         11   -1    0    0    0    0 -0.00000000000E+00 -0.00000000000E+00 -0.45593999997E+02  0.45594000000E+02  0.51100000000E-03 0.  1.
    9900012    2    1    2    0    0 -0.49888191145E+01 -0.39220687337E+02  0.94875016347E+01  0.50528888861E+02  0.30000088182E+02 0.  0.
         12    1    1    2    0    0  0.49888191145E+01  0.39220687337E+02 -0.94875016347E+01  0.40659111139E+02  0.00000000000E+00 0. -1.
         11    1    3    3    0    0  0.82497492917E+01 -0.18392614230E+02  0.59202942210E+01  0.21009438486E+02  0.51100000000E-03 0. -1.
        -11    1    3    3    0    0 -0.86615741297E+01 -0.22622127759E+02  0.17811526677E+01  0.24289010598E+02  0.51100000000E-03 0.  1.
         12    1    3    3    0    0 -0.45769942765E+01  0.17940546518E+01  0.17860547461E+01  0.52304397766E+01  0.00000000000E+00 0. -1.
</event>
<event>
 7    1  0.2969156E-011  0.5052884E+02  0.7816164E-02  0.1300439E+00
        -11   -1    0    0    0    0  0.00000000000E+00  0.00000000000E+00  0.45593999997E+02  0.45594000000E+02  0.51100000000E-03 0. -1.
         11   -1    0    0    0    0 -0.00000000000E+00 -0.00000000000E+00 -0.45593999997E+02  0.45594000000E+02  0.51100000000E-03 0.  1.
    9900012    2    1    2    0    0 -0.32680905652E+02  0.19409071563E+02 -0.14436525891E+02  0.50528844414E+02  0.29999953081E+02 0.  0.
         12    1    1    2    0    0  0.32680905652E+02 -0.19409071563E+02  0.14436525891E+02  0.40659155586E+02  0.00000000000E+00 0. -1.
         11    1    3    3    0    0 -0.88128086850E+01  0.57906052779E+00 -0.21041433791E+01  0.90790047711E+01  0.51100000000E-03 0. -1.
        -11    1    3    3    0    0 -0.44252718647E+01  0.53930544471E+01  0.77559651747E+01  0.10431829341E+02  0.51100000000E-03 0.  1.
        -12    1    3    3    0    0 -0.19442825102E+02  0.13436956588E+02 -0.20088347687E+02  0.31018010302E+02  0.00000000000E+00 0.  1.
</event>
<event>
 7    1  0.2969156E-011  0.5052888E+02  0.7816164E-02  0.1300439E+00
        -11   -1    0    0    0    0  0.00000000000E+00  0.00000000000E+00  0.45593999997E+02  0.45594000000E+02  0.51100000000E-03 0.  1.
         11   -1    0    0    0    0 -0.00000000000E+00 -0.00000000000E+00 -0.45593999997E+02  0.45594000000E+02  0.51100000000E-03 0. -1.
    9900012    2    1    2    0    0 -0.26489424226E+02 -0.21404480448E+02 -0.22210876360E+02  0.50528875467E+02  0.30000047470E+02 0.  0.
         12    1    1    2    0    0  0.26489424226E+02  0.21404480448E+02  0.22210876360E+02  0.40659124533E+02  0.00000000000E+00 0. -1.
         11    1    3    3    0    0 -0.75127668548E+01 -0.12611269763E+02 -0.16027241339E+02  0.21733804454E+02  0.51100000000E-03 0. -1.
        -11    1    3    3    0    0 -0.20536756096E+02 -0.12455384279E+02 -0.62326944055E+01  0.24814137670E+02  0.51100000000E-03 0.  1.
         12    1    3    3    0    0  0.15600987248E+01  0.36621735939E+01  0.49059383907E-01  0.39809333436E+01  0.00000000000E+00 0. -1.
</event>
<event>
 7    1  0.2969156E-011  0.5052879E+02  0.7816164E-02  0.1300439E+00
        -11   -1    0    0    0    0  0.00000000000E+00  0.00000000000E+00  0.45593999997E+02  0.45594000000E+02  0.51100000000E-03 0.  1.
         11   -1    0    0    0    0 -0.00000000000E+00 -0.00000000000E+00 -0.45593999997E+02  0.45594000000E+02  0.51100000000E-03 0. -1.
    9900012    2    1    2    0    0  0.17379043206E+02  0.10139327379E+02  0.35331773025E+02  0.50528790864E+02  0.29999790309E+02 0.  0.
         12    1    1    2    0    0 -0.17379043206E+02 -0.10139327379E+02 -0.35331773025E+02  0.40659209136E+02  0.00000000000E+00 0. -1.
         11    1    3    3    0    0  0.44030971547E+01 -0.42281642872E+01  0.35789952834E+01  0.70762875361E+01  0.51100000000E-03 0. -1.
        -11    1    3    3    0    0  0.98993138537E+01  0.47908763754E+00  0.26493015226E+02  0.28286141408E+02  0.51100000000E-03 0.  1.
         12    1    3    3    0    0  0.30766321981E+01  0.13888404029E+02  0.52597625157E+01  0.15166361919E+02  0.00000000000E+00 0. -1.
</event>
<event>
 7    1  0.2969156E-011  0.5052886E+02  0.7816164E-02  0.1300439E+00
        -11   -1    0    0    0    0  0.00000000000E+00  0.00000000000E+00  0.45593999997E+02  0.45594000000E+02  0.51100000000E-03 0. -1.
         11   -1    0    0    0    0 -0.00000000000E+00 -0.00000000000E+00 -0.45593999997E+02  0.45594000000E+02  0.51100000000E-03 0.  1.
    9900012    2    1    2    0    0  0.20515050134E+02 -0.22772886729E+02 -0.26715055543E+02  0.50528857797E+02  0.29999993760E+02 0.  0.
         12    1    1    2    0    0 -0.20515050134E+02  0.22772886729E+02  0.26715055543E+02  0.40659142203E+02  0.00000000000E+00 0. -1.
         11    1    3    3    0    0 -0.15228970534E-01  0.31084386105E+01  0.93671485143E+00  0.32465454703E+01  0.51100000000E-03 0. -1.
        -11    1    3    3    0    0  0.13996893517E+02 -0.18415569802E+02 -0.66703445504E+01  0.24073631548E+02  0.51100000000E-03 0.  1.
         12    1    3    3    0    0  0.65333855876E+01 -0.74657555383E+01 -0.20981425845E+02  0.23208680778E+02  0.00000000000E+00 0. -1.
</event>
<event>
 7    1  0.2969156E-011  0.5052886E+02  0.7816164E-02  0.1300439E+00
        -11   -1    0    0    0    0  0.00000000000E+00  0.00000000000E+00  0.45593999997E+02  0.45594000000E+02  0.51100000000E-03 0.  1.
         11   -1    0    0    0    0 -0.00000000000E+00 -0.00000000000E+00 -0.45593999997E+02  0.45594000000E+02  0.51100000000E-03 0. -1.
    9900012    2    1    2    0    0 -0.28718318210E+02 -0.14245710631E+02  0.25009667170E+02  0.50528861739E+02  0.30000005741E+02 0.  0.
         12    1    1    2    0    0  0.28718318210E+02  0.14245710631E+02 -0.25009667170E+02  0.40659138261E+02  0.00000000000E+00 0. -1.
         11    1    3    3    0    0 -0.11669995578E+02  0.40548864940E+01  0.41235585141E+01  0.13024386218E+02  0.51100000000E-03 0. -1.
        -11    1    3    3    0    0  0.56008544773E+00 -0.88308241010E+00 -0.29502506131E+01  0.31300973137E+01  0.51100000000E-03 0.  1.
        -12    1    3    3    0    0 -0.17608408080E+02 -0.17417514715E+02  0.23836359269E+02  0.34374378207E+02  0.00000000000E+00 0.  1.
</event>
<event>
 7    1  0.2969156E-011  0.5052886E+02  0.7816164E-02  0.1300439E+00
        -11   -1    0    0    0    0  0.00000000000E+00  0.00000000000E+00  0.45593999997E+02  0.45594000000E+02  0.51100000000E-03 0. -1.
         11   -1    0    0    0    0 -0.00000000000E+00 -0.00000000000E+00 -0.45593999997E+02  0.45594000000E+02  0.51100000000E-03 0.  1.
    9900012    2    1    2    0    0  0.29955315009E+02  0.13734248888E+02 -0.23816282888E+02  0.50528858095E+02  0.29999994667E+02 0.  0.
         12    1    1    2    0    0 -0.29955315009E+02 -0.13734248888E+02  0.23816282888E+02  0.40659141905E+02  0.00000000000E+00 0. -1.
         11    1    3    3    0    0 -0.77724213490E+00  0.12070608462E+01  0.36362076826E+01  0.39093615585E+01  0.51100000000E-03 0. -1.
        -11    1    3    3    0    0  0.10851956771E+02 -0.40420350866E+01 -0.10869406807E+02  0.15882286296E+02  0.51100000000E-03 0.  1.
        -12    1    3    3    0    0  0.19880600373E+02  0.16569223129E+02 -0.16583083764E+02  0.30737210241E+02  0.00000000000E+00 0.  1.
</event>
<event>
 7    1  0.2969156E-011  0.5052886E+02  0.7816164E-02  0.1300439E+00
        -11   -1    0    0    0    0  0.00000000000E+00  0.00000000000E+00  0.45593999997E+02  0.45594000000E+02  0.51100000000E-03 0.  1.
         11   -1    0    0    0    0 -0.00000000000E+00 -0.00000000000E+00 -0.45593999997E+02  0.45594000000E+02  0.51100000000E-03 0. -1.
    9900012    2    1    2    0    0 -0.53665974572E+00 -0.19380801000E+02  0.35738810506E+02  0.50528855549E+02  0.29999986928E+02 0.  0.
         12    1    1    2    0    0  0.53665974572E+00  0.19380801000E+02 -0.35738810506E+02  0.40659144451E+02  0.00000000000E+00 0. -1.
         11    1    3    3    0    0  0.20822823950E+01 -0.19796872894E+01 -0.70594017351E+00  0.29586168265E+01  0.51100000000E-03 0. -1.
        -11    1    3    3    0    0  0.53288154351E+01 -0.21059190850E+02  0.24181546245E+02  0.32505891347E+02  0.51100000000E-03 0.  1.
        -12    1    3    3    0    0 -0.79477575758E+01  0.36580771403E+01  0.12263204434E+02  0.15064347375E+02  0.00000000000E+00 0.  1.
</event>
<event>
 7    1  0.2969156E-011  0.5052886E+02  0.7816164E-02  0.1300439E+00
        -11   -1    0    0    0    0  0.00000000000E+00  0.00000000000E+00  0.45593999997E+02  0.45594000000E+02  0.51100000000E-03 0. -1.
         11   -1    0    0    0    0 -0.00000000000E+00 -0.00000000000E+00 -0.45593999997E+02  0.45594000000E+02  0.51100000000E-03 0.  1.
    9900012    2    1    2    0    0 -0.18509506744E+02  0.10154475161E+02 -0.34748389249E+02  0.50528858825E+02  0.29999996885E+02 0.  0.
         12    1    1    2    0    0  0.18509506744E+02 -0.10154475161E+02  0.34748389249E+02  0.40659141175E+02  0.00000000000E+00 0. -1.
         11    1    3    3    0    0 -0.13361627938E+02 -0.24681172994E+01 -0.27078907910E+02  0.30296731804E+02  0.51100000000E-03 0. -1.
        -11    1    3    3    0    0  0.34983929010E+01  0.13204340326E+00 -0.18917646861E+01  0.39793168056E+01  0.51100000000E-03 0.  1.
        -12    1    3    3    0    0 -0.86462717073E+01  0.12490549057E+02 -0.57777166525E+01  0.16252810215E+02  0.00000000000E+00 0.  1.
</event>
<event>
 7    1  0.2969156E-011  0.5052886E+02  0.7816164E-02  0.1300439E+00
        -11   -1    0    0    0    0  0.00000000000E+00  0.00000000000E+00  0.45593999997E+02  0.45594000000E+02  0.51100000000E-03 0.  1.
         11   -1    0    0    0    0 -0.00000000000E+00 -0.00000000000E+00 -0.45593999997E+02  0.45594000000E+02  0.51100000000E-03 0. -1.
    9900012    2    1    2    0    0  0.28003316824E+02 -0.24527064819E+02  0.16352463482E+02  0.50528859285E+02  0.29999998282E+02 0.  0.
         12    1    1    2    0    0 -0.28003316824E+02  0.24527064819E+02 -0.16352463482E+02  0.40659140715E+02  0.00000000000E+00 0. -1.
         11    1    3    3    0    0 -0.23116041397E+01  0.18757963895E+00  0.11915350586E+01  0.26073848731E+01  0.51100000000E-03 0. -1.
        -11    1    3    3    0    0 -0.30383193835E+01 -0.27245600956E+01  0.54492107760E+01  0.68079740549E+01  0.51100000000E-03 0.  1.
        -12    1    3    3    0    0  0.33353240347E+02 -0.21990084362E+02  0.97117176474E+01  0.41113500357E+02  0.00000000000E+00 0.  1.
</event>
<event>
 7    1  0.2969156E-011  0.5052886E+02  0.7816164E-02  0.1300439E+00
        -11   -1    0    0    0    0  0.00000000000E+00  0.00000000000E+00  0.45593999997E+02  0.45594000000E+02  0.51100000000E-03 0.  1.
         11   -1    0    0    0    0 -0.00000000000E+00 -0.00000000000E+00 -0.45593999997E+02  0.45594000000E+02  0.51100000000E-03 0. -1.
    9900012    2    1    2    0    0 -0.22691885603E+02 -0.14850395222E+02  0.30293726852E+02  0.50528858383E+02  0.29999995540E+02 0.  0.
         12    1    1    2    0    0  0.22691885603E+02  0.14850395222E+02 -0.30293726852E+02  0.40659141617E+02  0.00000000000E+00 0. -1.
         11    1    3    3    0    0 -0.27806060451E+01 -0.64251728964E+01 -0.26451157292E+00  0.70060390636E+01  0.51100000000E-03 0. -1.
        -11    1    3    3    0    0 -0.23660774845E+02 -0.89992012187E+01  0.19869470327E+02  0.32180953065E+02  0.51100000000E-03 0.  1.
         12    1    3    3    0    0  0.37494952864E+01  0.57397889340E+00  0.10688768098E+02  0.11341866254E+02  0.00000000000E+00 0. -1.
</event>
<event>
 7    1  0.2969156E-011  0.5052886E+02  0.7816164E-02  0.1300439E+00
        -11   -1    0    0    0    0  0.00000000000E+00  0.00000000000E+00  0.45593999997E+02  0.45594000000E+02  0.51100000000E-03 0.  1.
         11   -1    0    0    0    0 -0.00000000000E+00 -0.00000000000E+00 -0.45593999997E+02  0.45594000000E+02  0.51100000000E-03 0. -1.
    9900012    2    1    2    0    0 -0.40460979161E+02  0.26047277787E+01 -0.30479937136E+01  0.50528859489E+02  0.29999998901E+02 0.  0.
         12    1    1    2    0    0  0.40460979161E+02 -0.26047277787E+01  0.30479937136E+01  0.40659140511E+02  0.00000000000E+00 0. -1.
         11    1    3    3    0    0 -0.10624751719E+02  0.49168283327E+00 -0.93318814482E+01  0.14149597617E+02  0.51100000000E-03 0. -1.
        -11    1    3    3    0    0 -0.26336786760E+02 -0.48052784670E+01  0.62175310314E+00  0.26778790398E+02  0.51100000000E-03 0.  1.
         12    1    3    3    0    0 -0.34994406812E+01  0.69183234125E+01  0.56621346315E+01  0.96004714731E+01  0.00000000000E+00 0. -1.
</event>
<event>
 7    1  0.2969156E-011  0.5052887E+02  0.7816164E-02  0.1300439E+00
        -11   -1    0    0    0    0  0.00000000000E+00  0.00000000000E+00  0.45593999997E+02  0.45594000000E+02  0.51100000000E-03 0.  1.
         11   -1    0    0    0    0 -0.00000000000E+00 -0.00000000000E+00 -0.45593999997E+02  0.45594000000E+02  0.51100000000E-03 0. -1.
    9900012    2    1    2    0    0  0.24083750687E+02  0.82624340966E+01  0.31699686161E+02  0.50528868590E+02  0.30000026566E+02 0.  0.
         12    1    1    2    0    0 -0.24083750687E+02 -0.82624340966E+01 -0.31699686161E+02  0.40659131410E+02  0.00000000000E+00 0. -1.
         11    1    3    3    0    0  0.88620530048E+01  0.93659748650E+01  0.17524021616E+00  0.12895277354E+02  0.51100000000E-03 0. -1.
        -11    1    3    3    0    0 -0.13704612368E+01 -0.32926636607E+01  0.80438941384E+01  0.87990926325E+01  0.51100000000E-03 0.  1.
         12    1    3    3    0    0  0.16592158919E+02  0.21891228923E+01  0.23480551806E+02  0.28834498604E+02  0.00000000000E+00 0. -1.
</event>
<event>
 7    1  0.2969156E-011  0.5052886E+02  0.7816164E-02  0.1300439E+00
        -11   -1    0    0    0    0  0.00000000000E+00  0.00000000000E+00  0.45593999997E+02  0.45594000000E+02  0.51100000000E-03 0. -1.
         11   -1    0    0    0    0 -0.00000000000E+00 -0.00000000000E+00 -0.45593999997E+02  0.45594000000E+02  0.51100000000E-03 0.  1.
    9900012    2    1    2    0    0 -0.31301938226E+02 -0.23022035817E+02 -0.11972471085E+02  0.50528861621E+02  0.30000005382E+02 0.  0.
         12    1    1    2    0    0  0.31301938226E+02  0.23022035817E+02  0.11972471085E+02  0.40659138379E+02  0.00000000000E+00 0. -1.
         11    1    3    3    0    0 -0.19182846016E+01 -0.10943040722E+02 -0.90417094348E+01  0.14324191629E+02  0.51100000000E-03 0. -1.
        -11    1    3    3    0    0 -0.89894069534E+01  0.24706286051E+00 -0.77746103561E+01  0.11887600426E+02  0.51100000000E-03 0.  1.
         12    1    3    3    0    0 -0.20394246671E+02 -0.12326057955E+02  0.48438487055E+01  0.24317069566E+02  0.00000000000E+00 0. -1.
</event>
<event>
 7    1  0.2969156E-011  0.5052886E+02  0.7816164E-02  0.1300439E+00
        -11   -1    0    0    0    0  0.00000000000E+00  0.00000000000E+00  0.45593999997E+02  0.45594000000E+02  0.51100000000E-03 0. -1.
         11   -1    0    0    0    0 -0.00000000000E+00 -0.00000000000E+00 -0.45593999997E+02  0.45594000000E+02  0.51100000000E-03 0.  1.
    9900012    2    1    2    0    0 -0.27389947676E+02 -0.23569424286E+02  0.18639711251E+02  0.50528857973E+02  0.29999994295E+02 0.  0.
         12    1    1    2    0    0  0.27389947676E+02  0.23569424286E+02 -0.18639711251E+02  0.40659142027E+02  0.00000000000E+00 0. -1.
         11    1    3    3    0    0 -0.10137272645E+02 -0.12362661545E+02  0.63564147415E+01  0.17204758231E+02  0.51100000000E-03 0. -1.
        -11    1    3    3    0    0 -0.13940871419E+02 -0.94982040940E+01 -0.33964931669E+01  0.17207554824E+02  0.51100000000E-03 0.  1.
         12    1    3    3    0    0 -0.33118036117E+01 -0.17085586474E+01  0.15679789676E+02  0.16116544918E+02  0.00000000000E+00 0. -1.
</event>
<event>
 7    1  0.2969156E-011  0.5052886E+02  0.7816164E-02  0.1300439E+00
        -11   -1    0    0    0    0  0.00000000000E+00  0.00000000000E+00  0.45593999997E+02  0.45594000000E+02  0.51100000000E-03 0.  1.
         11   -1    0    0    0    0 -0.00000000000E+00 -0.00000000000E+00 -0.45593999997E+02  0.45594000000E+02  0.51100000000E-03 0. -1.
    9900012    2    1    2    0    0 -0.14835017756E+02  0.35600654359E+02  0.12871731635E+02  0.50528858126E+02  0.29999994760E+02 0.  0.
         12    1    1    2    0    0  0.14835017756E+02 -0.35600654359E+02 -0.12871731635E+02  0.40659141874E+02  0.00000000000E+00 0. -1.
         11    1    3    3    0    0 -0.16575781053E+01  0.14262838532E+02 -0.43253230946E+01  0.14996151117E+02  0.51100000000E-03 0. -1.
        -11    1    3    3    0    0  0.34490048325E+01 -0.31228836318E+00  0.41241167618E+00  0.34875839787E+01  0.51100000000E-03 0.  1.
         12    1    3    3    0    0 -0.16626444484E+02  0.21650104190E+02  0.16784643054E+02  0.32045123031E+02  0.00000000000E+00 0. -1.
</event>
<event>
 7    1  0.2969156E-011  0.5052886E+02  0.7816164E-02  0.1300439E+00
        -11   -1    0    0    0    0  0.00000000000E+00  0.00000000000E+00  0.45593999997E+02  0.45594000000E+02  0.51100000000E-03 0. -1.
         11   -1    0    0    0    0 -0.00000000000E+00 -0.00000000000E+00 -0.45593999997E+02  0.45594000000E+02  0.51100000000E-03 0.  1.
    9900012    2    1    2    0    0 -0.20387822943E+02 -0.10066643251E+01 -0.35163742350E+02  0.50528862362E+02  0.30000007635E+02 0.  0.
         12    1    1    2    0    0  0.20387822943E+02  0.10066643251E+01  0.35163742350E+02  0.40659137638E+02  0.00000000000E+00 0. -1.
         11    1    3    3    0    0 -0.13843259847E+01 -0.58562903391E+01 -0.11482200452E+02  0.12963542048E+02  0.51100000000E-03 0. -1.
        -11    1    3    3    0    0 -0.66017683602E+00  0.15992264444E+01  0.39088310637E+01  0.42746133417E+01  0.51100000000E-03 0.  1.
        -12    1    3    3    0    0 -0.18343320122E+02  0.32503995697E+01 -0.27590372962E+02  0.33290706972E+02  0.00000000000E+00 0.  1.
</event>
<event>
 7    1  0.2969156E-011  0.5052886E+02  0.7816164E-02  0.1300439E+00
        -11   -1    0    0    0    0  0.00000000000E+00  0.00000000000E+00  0.45593999997E+02  0.45594000000E+02  0.51100000000E-03 0.  1.
         11   -1    0    0    0    0 -0.00000000000E+00 -0.00000000000E+00 -0.45593999997E+02  0.45594000000E+02  0.51100000000E-03 0. -1.
    9900012    2    1    2    0    0 -0.31662519375E+00  0.40637023066E+02  0.13030020394E+01  0.50528859460E+02  0.29999998814E+02 0.  0.
         12    1    1    2    0    0  0.31662519375E+00 -0.40637023066E+02 -0.13030020394E+01  0.40659140540E+02  0.00000000000E+00 0. -1.
         11    1    3    3    0    0  0.87071411103E+01  0.31876470751E+02 -0.44451262816E+00  0.33047258367E+02  0.51100000000E-03 0. -1.
        -11    1    3    3    0    0 -0.89722422024E+00  0.56207216717E+01  0.55736992346E+01  0.79664073980E+01  0.51100000000E-03 0.  1.
         12    1    3    3    0    0 -0.81265420838E+01  0.31398306434E+01 -0.38261845671E+01  0.95151936948E+01  0.00000000000E+00 0. -1.
</event>
<event>
 7    1  0.2969156E-011  0.5052886E+02  0.7816164E-02  0.1300439E+00
        -11   -1    0    0    0    0  0.00000000000E+00  0.00000000000E+00  0.45593999997E+02  0.45594000000E+02  0.51100000000E-03 0.  1.
         11   -1    0    0    0    0 -0.00000000000E+00 -0.00000000000E+00 -0.45593999997E+02  0.45594000000E+02  0.51100000000E-03 0. -1.
    9900012    2    1    2    0    0 -0.40224729709E+01  0.29926163306E+02  0.27228844585E+02  0.50528861833E+02  0.30000006029E+02 0.  0.
         12    1    1    2    0    0  0.40224729709E+01 -0.29926163306E+02 -0.27228844585E+02  0.40659138167E+02  0.00000000000E+00 0. -1.
         11    1    3    3    0    0 -0.10910685383E+02  0.28703785833E+01  0.15423826709E+02  0.19109593385E+02  0.51100000000E-03 0. -1.
        -11    1    3    3    0    0  0.32154945322E+01  0.10197249031E+02  0.32885005477E+00  0.10697262991E+02  0.51100000000E-03 0.  1.
        -12    1    3    3    0    0  0.36727178801E+01  0.16858535691E+02  0.11476167822E+02  0.20722005457E+02  0.00000000000E+00 0.  1.
</event>
<event>
 7    1  0.5671639E-011  0.5052885E+02  0.7816164E-02  0.1300439E+00
        -11   -1    0    0    0    0  0.00000000000E+00  0.00000000000E+00  0.45593999997E+02  0.45594000000E+02  0.51100000000E-03 0. -1.
         11   -1    0    0    0    0 -0.00000000000E+00 -0.00000000000E+00 -0.45593999997E+02  0.45594000000E+02  0.51100000000E-03 0.  1.
    9900012    2    1    2    0    0  0.15558332007E+02  0.60359527509E+00 -0.37559826052E+02  0.50528849060E+02  0.29999967202E+02 0.  0.
         12    1    1    2    0    0 -0.15558332007E+02 -0.60359527509E+00  0.37559826052E+02  0.40659150940E+02  0.00000000000E+00 0. -1.
         11    1    3    3    0    0  0.14590494228E+02 -0.67023646878E+01 -0.98637031899E+01  0.18844013774E+02  0.51100000000E-03 0. -1.
        -11    1    3    3    0    0 -0.41060847248E+00 -0.11656286547E+01 -0.20349559690E+02  0.20387051511E+02  0.51100000000E-03 0.  1.
        -12    1    3    3    0    0  0.13784462511E+01  0.84715886177E+01 -0.73465631727E+01  0.11297783775E+02  0.00000000000E+00 0.  1.
</event>
<event>
 7    1  0.2969156E-011  0.5052884E+02  0.7816164E-02  0.1300439E+00
        -11   -1    0    0    0    0  0.00000000000E+00  0.00000000000E+00  0.45593999997E+02  0.45594000000E+02  0.51100000000E-03 0.  1.
         11   -1    0    0    0    0 -0.00000000000E+00 -0.00000000000E+00 -0.45593999997E+02  0.45594000000E+02  0.51100000000E-03 0. -1.
    9900012    2    1    2    0    0  0.91821098079E+01  0.10832561901E+02  0.38098714474E+02  0.50528836428E+02  0.29999928805E+02 0.  0.
         12    1    1    2    0    0 -0.91821098079E+01 -0.10832561901E+02 -0.38098714474E+02  0.40659163572E+02  0.00000000000E+00 0. -1.
         11    1    3    3    0    0  0.12463571129E+01  0.12754548734E+02  0.12525051264E+02  0.17919509728E+02  0.51100000000E-03 0. -1.
        -11    1    3    3    0    0  0.95745373255E+01  0.50220006788E+01  0.22251449254E+02  0.24739022818E+02  0.51100000000E-03 0.  1.
        -12    1    3    3    0    0 -0.16387846305E+01 -0.69439875116E+01  0.33222139554E+01  0.78703038818E+01  0.00000000000E+00 0.  1.
</event>
<event>
 7    1  0.2969156E-011  0.5052885E+02  0.7816164E-02  0.1300439E+00
        -11   -1    0    0    0    0  0.00000000000E+00  0.00000000000E+00  0.45593999997E+02  0.45594000000E+02  0.51100000000E-03 0. -1.
         11   -1    0    0    0    0 -0.00000000000E+00 -0.00000000000E+00 -0.45593999997E+02  0.45594000000E+02  0.51100000000E-03 0.  1.
    9900012    2    1    2    0    0 -0.32325783489E+02  0.24275766377E+02  0.43471552591E+01  0.50528845186E+02  0.29999955427E+02 0.  0.
         12    1    1    2    0    0  0.32325783489E+02 -0.24275766377E+02 -0.43471552591E+01  0.40659154814E+02  0.00000000000E+00 0. -1.
         11    1    3    3    0    0  0.22438979039E+01  0.17984632516E+01 -0.40032577283E+01  0.49290587915E+01  0.51100000000E-03 0. -1.
        -11    1    3    3    0    0 -0.20564412753E+02  0.14550125606E+02 -0.37448804851E+01  0.25468124335E+02  0.51100000000E-03 0.  1.
         12    1    3    3    0    0 -0.14005268640E+02  0.79271775192E+01  0.12095293472E+02  0.20131662060E+02  0.00000000000E+00 0. -1.
</event>
<event>
 7    1  0.2969156E-011  0.5052886E+02  0.7816164E-02  0.1300439E+00
        -11   -1    0    0    0    0  0.00000000000E+00  0.00000000000E+00  0.45593999997E+02  0.45594000000E+02  0.51100000000E-03 0. -1.
         11   -1    0    0    0    0 -0.00000000000E+00 -0.00000000000E+00 -0.45593999997E+02  0.45594000000E+02  0.51100000000E-03 0.  1.
    9900012    2    1    2    0    0 -0.15076511759E+02 -0.49095486972E+01 -0.37440093879E+02  0.50528861976E+02  0.30000006462E+02 0.  0.
         12    1    1    2    0    0  0.15076511759E+02  0.49095486972E+01  0.37440093879E+02  0.40659138024E+02  0.00000000000E+00 0. -1.
         11    1    3    3    0    0 -0.71987589308E+01  0.41906754290E+01 -0.14077318788E+02  0.16357102286E+02  0.51100000000E-03 0. -1.
        -11    1    3    3    0    0  0.66944492127E+01  0.91346325002E+00 -0.97271232703E+01  0.11843436695E+02  0.51100000000E-03 0.  1.
         12    1    3    3    0    0 -0.14572202041E+02 -0.10013687376E+02 -0.13635651821E+02  0.22328322995E+02  0.00000000000E+00 0. -1.
</event>
<event>
 7    1  0.2969156E-011  0.5052887E+02  0.7816164E-02  0.1300439E+00
        -11   -1    0    0    0    0  0.00000000000E+00  0.00000000000E+00  0.45593999997E+02  0.45594000000E+02  0.51100000000E-03 0.  1.
         11   -1    0    0    0    0 -0.00000000000E+00 -0.00000000000E+00 -0.45593999997E+02  0.45594000000E+02  0.51100000000E-03 0. -1.
    9900012    2    1    2    0    0  0.26072702294E+02 -0.51601200698E+01  0.30769333220E+02  0.50528874199E+02  0.30000043616E+02 0.  0.
         12    1    1    2    0    0 -0.26072702294E+02  0.51601200698E+01 -0.30769333220E+02  0.40659125801E+02  0.00000000000E+00 0. -1.
         11    1    3    3    0    0  0.54194395361E+01  0.47592506233E+01 -0.14112299612E+01  0.73493102836E+01  0.51100000000E-03 0. -1.
        -11    1    3    3    0    0  0.13852907850E+02  0.16365460714E+01  0.23102358885E+02  0.26987039949E+02  0.51100000000E-03 0.  1.
        -12    1    3    3    0    0  0.68003549083E+01 -0.11555916764E+02  0.90782042968E+01  0.16192523966E+02  0.00000000000E+00 0.  1.
</event>
<event>
 7    1  0.2969156E-011  0.5052886E+02  0.7816164E-02  0.1300439E+00
        -11   -1    0    0    0    0  0.00000000000E+00  0.00000000000E+00  0.45593999997E+02  0.45594000000E+02  0.51100000000E-03 0.  1.
         11   -1    0    0    0    0 -0.00000000000E+00 -0.00000000000E+00 -0.45593999997E+02  0.45594000000E+02  0.51100000000E-03 0. -1.
    9900012    2    1    2    0    0 -0.50898772859E+01  0.12712087047E+02  0.38283963407E+02  0.50528857584E+02  0.29999993112E+02 0.  0.
         12    1    1    2    0    0  0.50898772859E+01 -0.12712087047E+02 -0.38283963407E+02  0.40659142416E+02  0.00000000000E+00 0. -1.
         11    1    3    3    0    0 -0.78407643882E+01  0.44220616115E+01  0.15910174750E+02  0.18280204483E+02  0.51100000000E-03 0. -1.
        -11    1    3    3    0    0 -0.20559944790E+01 -0.66807842053E+01  0.39552733270E+01  0.80314493243E+01  0.51100000000E-03 0.  1.
        -12    1    3    3    0    0  0.48068815813E+01  0.14970809641E+02  0.18418515330E+02  0.24217203777E+02  0.00000000000E+00 0.  1.
</event>
<event>
 7    1  0.2969156E-011  0.5052886E+02  0.7816164E-02  0.1300439E+00
        -11   -1    0    0    0    0  0.00000000000E+00  0.00000000000E+00  0.45593999997E+02  0.45594000000E+02  0.51100000000E-03 0.  1.
         11   -1    0    0    0    0 -0.00000000000E+00 -0.00000000000E+00 -0.45593999997E+02  0.45594000000E+02  0.51100000000E-03 0. -1.
    9900012    2    1    2    0    0  0.14103755974E+02  0.30621561470E+02  0.22728167507E+02  0.50528861326E+02  0.30000004488E+02 0.  0.
         12    1    1    2    0    0 -0.14103755974E+02 -0.30621561470E+02 -0.22728167507E+02  0.40659138674E+02  0.00000000000E+00 0. -1.
         11    1    3    3    0    0  0.12930835421E+01  0.72547236878E+01  0.18523763217E+02  0.19935718818E+02  0.51100000000E-03 0.  1.
        -11    1    3    3    0    0  0.12875729825E+02  0.99846755035E+01  0.53813439589E+01  0.17159167419E+02  0.51100000000E-03 0. -1.
         12    1    3    3    0    0 -0.65057392912E-01  0.13382162279E+02 -0.11769396686E+01  0.13433975089E+02  0.00000000000E+00 0. -1.
</event>
<event>
 7    1  0.2969156E-011  0.5052885E+02  0.7816164E-02  0.1300439E+00
        -11   -1    0    0    0    0  0.00000000000E+00  0.00000000000E+00  0.45593999997E+02  0.45594000000E+02  0.51100000000E-03 0.  1.
         11   -1    0    0    0    0 -0.00000000000E+00 -0.00000000000E+00 -0.45593999997E+02  0.45594000000E+02  0.51100000000E-03 0. -1.
    9900012    2    1    2    0    0  0.44803507163E+01  0.17591545507E+02  0.36381730985E+02  0.50528851395E+02  0.29999974299E+02 0.  0.
         12    1    1    2    0    0 -0.44803507163E+01 -0.17591545507E+02 -0.36381730985E+02  0.40659148605E+02  0.00000000000E+00 0. -1.
         11    1    3    3    0    0  0.14807874718E+01 -0.48437833181E+01  0.30399288143E+01  0.59072951362E+01  0.51100000000E-03 0. -1.
        -11    1    3    3    0    0  0.93433452249E+01  0.68499432173E+01  0.75578717882E+01  0.13832615382E+02  0.51100000000E-03 0.  1.
         12    1    3    3    0    0 -0.63437819804E+01  0.15585385607E+02  0.25783930382E+02  0.30788940877E+02  0.00000000000E+00 0. -1.
</event>
<event>
 7    1  0.2969156E-011  0.5052887E+02  0.7816164E-02  0.1300439E+00
        -11   -1    0    0    0    0  0.00000000000E+00  0.00000000000E+00  0.45593999997E+02  0.45594000000E+02  0.51100000000E-03 0.  1.
         11   -1    0    0    0    0 -0.00000000000E+00 -0.00000000000E+00 -0.45593999997E+02  0.45594000000E+02  0.51100000000E-03 0. -1.
    9900012    2    1    2    0    0  0.38013171922E+02 -0.16703575597E+01  0.14330867731E+02  0.50528866907E+02  0.30000021450E+02 0.  0.
         12    1    1    2    0    0 -0.38013171922E+02  0.16703575597E+01 -0.14330867731E+02  0.40659133093E+02  0.00000000000E+00 0. -1.
         11    1    3    3    0    0  0.11901058199E+02 -0.11069265211E+02  0.29526574317E+01  0.16519140557E+02  0.51100000000E-03 0.  1.
        -11    1    3    3    0    0  0.12989694923E+02  0.25016827026E+01 -0.27721751122E+01  0.13515751761E+02  0.51100000000E-03 0. -1.
         12    1    3    3    0    0  0.13122418800E+02  0.68972249489E+01  0.14150385412E+02  0.20493974589E+02  0.00000000000E+00 0. -1.
</event>
<event>
 7    1  0.2969156E-011  0.5052885E+02  0.7816164E-02  0.1300439E+00
        -11   -1    0    0    0    0  0.00000000000E+00  0.00000000000E+00  0.45593999997E+02  0.45594000000E+02  0.51100000000E-03 0. -1.
         11   -1    0    0    0    0 -0.00000000000E+00 -0.00000000000E+00 -0.45593999997E+02  0.45594000000E+02  0.51100000000E-03 0.  1.
    9900012    2    1    2    0    0  0.89307696402E+01 -0.14483965725E+02 -0.36927256325E+02  0.50528853807E+02  0.29999981631E+02 0.  0.
         12    1    1    2    0    0 -0.89307696402E+01  0.14483965725E+02  0.36927256325E+02  0.40659146193E+02  0.00000000000E+00 0. -1.
         11    1    3    3    0    0  0.35188490743E+01  0.23420875575E-02 -0.11146519531E+02  0.11688763930E+02  0.51100000000E-03 0. -1.
        -11    1    3    3    0    0 -0.32347595954E+01 -0.11667852957E+02 -0.27070243845E+02  0.29654688741E+02  0.51100000000E-03 0.  1.
         12    1    3    3    0    0  0.86466801613E+01 -0.28184548552E+01  0.12895070512E+01  0.91854011353E+01  0.00000000000E+00 0. -1.
</event>
<event>
 7    1  0.2969156E-011  0.5052886E+02  0.7816164E-02  0.1300439E+00
        -11   -1    0    0    0    0  0.00000000000E+00  0.00000000000E+00  0.45593999997E+02  0.45594000000E+02  0.51100000000E-03 0. -1.
         11   -1    0    0    0    0 -0.00000000000E+00 -0.00000000000E+00 -0.45593999997E+02  0.45594000000E+02  0.51100000000E-03 0.  1.
    9900012    2    1    2    0    0  0.26347235584E+02 -0.29197603094E+02 -0.10319329273E+02  0.50528863191E+02  0.30000010157E+02 0.  0.
         12    1    1    2    0    0 -0.26347235584E+02  0.29197603094E+02  0.10319329273E+02  0.40659136809E+02  0.00000000000E+00 0. -1.
         11    1    3    3    0    0 -0.71121707737E+00  0.14535016408E+01 -0.56849129197E+01  0.59107302355E+01  0.51100000000E-03 0. -1.
        -11    1    3    3    0    0  0.88198410089E+01 -0.22857205690E+02 -0.15857488041E+01  0.24551090544E+02  0.51100000000E-03 0.  1.
         12    1    3    3    0    0  0.18238611653E+02 -0.77938990452E+01 -0.30486675495E+01  0.20067042412E+02  0.00000000000E+00 0. -1.
</event>
<event>
 7    1  0.4374471E-011  0.5052885E+02  0.7816164E-02  0.1300439E+00
        -11   -1    0    0    0    0  0.00000000000E+00  0.00000000000E+00  0.45593999997E+02  0.45594000000E+02  0.51100000000E-03 0.  1.
         11   -1    0    0    0    0 -0.00000000000E+00 -0.00000000000E+00 -0.45593999997E+02  0.45594000000E+02  0.51100000000E-03 0. -1.
    9900012    2    1    2    0    0 -0.13099064172E+02 -0.24790216861E+02  0.29445302072E+02  0.50528854063E+02  0.29999982409E+02 0.  0.
         12    1    1    2    0    0  0.13099064172E+02  0.24790216861E+02 -0.29445302072E+02  0.40659145937E+02  0.00000000000E+00 0. -1.
         11    1    3    3    0    0  0.43645901835E+01 -0.10399186656E+01  0.10154455285E+01  0.46002400137E+01  0.51100000000E-03 0. -1.
        -11    1    3    3    0    0 -0.10637770460E+02 -0.78705969508E+01  0.69806600489E+00  0.13251254775E+02  0.51100000000E-03 0.  1.
        -12    1    3    3    0    0 -0.68258838961E+01 -0.15879701245E+02  0.27731790539E+02  0.32677359274E+02  0.00000000000E+00 0.  1.
</event>
<event>
 7    1  0.2969156E-011  0.5052885E+02  0.7816164E-02  0.1300439E+00
        -11   -1    0    0    0    0  0.00000000000E+00  0.00000000000E+00  0.45593999997E+02  0.45594000000E+02  0.51100000000E-03 0.  1.
         11   -1    0    0    0    0 -0.00000000000E+00 -0.00000000000E+00 -0.45593999997E+02  0.45594000000E+02  0.51100000000E-03 0. -1.
    9900012    2    1    2    0    0  0.22662633224E+02 -0.32588170283E+02  0.88080862869E+01  0.50528853783E+02  0.29999981560E+02 0.  0.
         12    1    1    2    0    0 -0.22662633224E+02  0.32588170283E+02 -0.88080862869E+01  0.40659146217E+02  0.00000000000E+00 0. -1.
         11    1    3    3    0    0  0.38797686749E+01 -0.15795827100E+02  0.10109660139E+02  0.19151135401E+02  0.51100000000E-03 0. -1.
        -11    1    3    3    0    0  0.99352533373E+01 -0.44532850256E+01  0.80546092627E+01  0.13543180462E+02  0.51100000000E-03 0.  1.
        -12    1    3    3    0    0  0.88476112122E+01 -0.12339058157E+02 -0.93561831147E+01  0.17834537920E+02  0.00000000000E+00 0.  1.
</event>
<event>
 7    1  0.2969156E-011  0.5052885E+02  0.7816164E-02  0.1300439E+00
        -11   -1    0    0    0    0  0.00000000000E+00  0.00000000000E+00  0.45593999997E+02  0.45594000000E+02  0.51100000000E-03 0.  1.
         11   -1    0    0    0    0 -0.00000000000E+00 -0.00000000000E+00 -0.45593999997E+02  0.45594000000E+02  0.51100000000E-03 0. -1.
    9900012    2    1    2    0    0  0.24126613492E+02  0.24037646838E+02  0.22209551683E+02  0.50528854287E+02  0.29999983092E+02 0.  0.
         12    1    1    2    0    0 -0.24126613492E+02 -0.24037646838E+02 -0.22209551683E+02  0.40659145713E+02  0.00000000000E+00 0. -1.
         11    1    3    3    0    0  0.56602793801E+01 -0.21437664714E+01  0.67176208192E+01  0.90421749085E+01  0.51100000000E-03 0. -1.
        -11    1    3    3    0    0  0.20361347448E+01  0.18107088706E+02  0.14260779691E+02  0.23138330618E+02  0.51100000000E-03 0.  1.
         12    1    3    3    0    0  0.16430199367E+02  0.80743246031E+01  0.12311511730E+01  0.18348348761E+02  0.00000000000E+00 0. -1.
</event>
<event>
 7    1  0.2969156E-011  0.5052886E+02  0.7816164E-02  0.1300439E+00
        -11   -1    0    0    0    0  0.00000000000E+00  0.00000000000E+00  0.45593999997E+02  0.45594000000E+02  0.51100000000E-03 0. -1.
         11   -1    0    0    0    0 -0.00000000000E+00 -0.00000000000E+00 -0.45593999997E+02  0.45594000000E+02  0.51100000000E-03 0.  1.
    9900012    2    1    2    0    0  0.11638689284E+02  0.22866067298E+02 -0.31541237141E+02  0.50528858809E+02  0.29999996837E+02 0.  0.
         12    1    1    2    0    0 -0.11638689284E+02 -0.22866067298E+02  0.31541237141E+02  0.40659141191E+02  0.00000000000E+00 0. -1.
         11    1    3    3    0    0 -0.23489411608E+01  0.31770253051E+01 -0.62727658199E+01  0.74134071559E+01  0.51100000000E-03 0. -1.
        -11    1    3    3    0    0  0.13056440691E+02  0.21201579257E+02 -0.29454184358E+02  0.38568466173E+02  0.51100000000E-03 0.  1.
        -12    1    3    3    0    0  0.93118975413E+00 -0.15125372635E+01  0.41857130367E+01  0.45469854802E+01  0.00000000000E+00 0.  1.
</event>
<event>
 7    1  0.2969156E-011  0.5052884E+02  0.7816164E-02  0.1300439E+00
        -11   -1    0    0    0    0  0.00000000000E+00  0.00000000000E+00  0.45593999997E+02  0.45594000000E+02  0.51100000000E-03 0.  1.
         11   -1    0    0    0    0 -0.00000000000E+00 -0.00000000000E+00 -0.45593999997E+02  0.45594000000E+02  0.51100000000E-03 0. -1.
    9900012    2    1    2    0    0 -0.29744768602E+02  0.23530822145E+02  0.14653192834E+02  0.50528844693E+02  0.29999953930E+02 0.  0.
         12    1    1    2    0    0  0.29744768602E+02 -0.23530822145E+02 -0.14653192834E+02  0.40659155307E+02  0.00000000000E+00 0. -1.
         11    1    3    3    0    0 -0.45038654657E+01 -0.33820591410E+01 -0.23261752157E+01  0.60937853229E+01  0.51100000000E-03 0. -1.
        -11    1    3    3    0    0 -0.11715804585E+02  0.71560165072E+01  0.15116180674E+02  0.20419783734E+02  0.51100000000E-03 0.  1.
         12    1    3    3    0    0 -0.13525098551E+02  0.19756864778E+02  0.18631873762E+01  0.24015275636E+02  0.00000000000E+00 0. -1.
</event>
<event>
 7    1  0.2969156E-011  0.5052886E+02  0.7816164E-02  0.1300439E+00
        -11   -1    0    0    0    0  0.00000000000E+00  0.00000000000E+00  0.45593999997E+02  0.45594000000E+02  0.51100000000E-03 0. -1.
         11   -1    0    0    0    0 -0.00000000000E+00 -0.00000000000E+00 -0.45593999997E+02  0.45594000000E+02  0.51100000000E-03 0.  1.
    9900012    2    1    2    0    0 -0.37805604128E+02  0.30866104130E+01 -0.14641530445E+02  0.50528864728E+02  0.30000014827E+02 0.  0.
         12    1    1    2    0    0  0.37805604128E+02 -0.30866104130E+01  0.14641530445E+02  0.40659135272E+02  0.00000000000E+00 0. -1.
         11    1    3    3    0    0 -0.67951600922E+01  0.62838650959E+01  0.18109575382E+01  0.94308392356E+01  0.51100000000E-03 0. -1.
        -11    1    3    3    0    0 -0.62020369796E+01 -0.48328009336E+01  0.40756394632E+01  0.88561879415E+01  0.51100000000E-03 0.  1.
        -12    1    3    3    0    0 -0.24808407056E+02  0.16355462507E+01 -0.20528127446E+02  0.32241837551E+02  0.00000000000E+00 0.  1.
</event>
<event>
 7    1  0.2969156E-011  0.5052886E+02  0.7816164E-02  0.1300439E+00
        -11   -1    0    0    0    0  0.00000000000E+00  0.00000000000E+00  0.45593999997E+02  0.45594000000E+02  0.51100000000E-03 0. -1.
         11   -1    0    0    0    0 -0.00000000000E+00 -0.00000000000E+00 -0.45593999997E+02  0.45594000000E+02  0.51100000000E-03 0.  1.
    9900012    2    1    2    0    0  0.24074302976E+02  0.20419032571E+02 -0.25625307489E+02  0.50528864017E+02  0.30000012667E+02 0.  0.
         12    1    1    2    0    0 -0.24074302976E+02 -0.20419032571E+02  0.25625307489E+02  0.40659135983E+02  0.00000000000E+00 0. -1.
         11    1    3    3    0    0  0.14110779619E+02 -0.20199695554E+01 -0.38439400852E+01  0.14763815703E+02  0.51100000000E-03 0. -1.
        -11    1    3    3    0    0  0.32405022874E+01  0.54064178061E+01  0.11628461160E+01  0.64095569206E+01  0.51100000000E-03 0.  1.
         12    1    3    3    0    0  0.67230210700E+01  0.17032584320E+02 -0.22944213520E+02  0.29355491394E+02  0.00000000000E+00 0. -1.
</event>
<event>
 7    1  0.2969156E-011  0.5052886E+02  0.7816164E-02  0.1300439E+00
        -11   -1    0    0    0    0  0.00000000000E+00  0.00000000000E+00  0.45593999997E+02  0.45594000000E+02  0.51100000000E-03 0.  1.
         11   -1    0    0    0    0 -0.00000000000E+00 -0.00000000000E+00 -0.45593999997E+02  0.45594000000E+02  0.51100000000E-03 0. -1.
    9900012    2    1    2    0    0  0.34135570449E+02 -0.90996792298E+00  0.22070350101E+02  0.50528861236E+02  0.30000004212E+02 0.  0.
         12    1    1    2    0    0 -0.34135570449E+02  0.90996792298E+00 -0.22070350101E+02  0.40659138764E+02  0.00000000000E+00 0. -1.
         11    1    3    3    0    0  0.11624197151E+02  0.36556294291E+01  0.11133189604E+02  0.16505559577E+02  0.51100000000E-03 0.  1.
        -11    1    3    3    0    0  0.86810923500E+01 -0.45081586104E+01 -0.65169128428E+01  0.11753936009E+02  0.51100000000E-03 0. -1.
         12    1    3    3    0    0  0.13830280948E+02 -0.57438741655E-01  0.17454073340E+02  0.22269365650E+02  0.00000000000E+00 0. -1.
</event>
<event>
 7    1  0.2969156E-011  0.5052886E+02  0.7816164E-02  0.1300439E+00
        -11   -1    0    0    0    0  0.00000000000E+00  0.00000000000E+00  0.45593999997E+02  0.45594000000E+02  0.51100000000E-03 0. -1.
         11   -1    0    0    0    0 -0.00000000000E+00 -0.00000000000E+00 -0.45593999997E+02  0.45594000000E+02  0.51100000000E-03 0.  1.
    9900012    2    1    2    0    0  0.17092432665E+02  0.14739061063E+02 -0.33819737522E+02  0.50528858082E+02  0.29999994626E+02 0.  0.
         12    1    1    2    0    0 -0.17092432665E+02 -0.14739061063E+02  0.33819737522E+02  0.40659141918E+02  0.00000000000E+00 0. -1.
         11    1    3    3    0    0  0.11778901564E+01 -0.57351519080E+00 -0.60550006462E+01  0.61951091984E+01  0.51100000000E-03 0. -1.
        -11    1    3    3    0    0  0.50603758088E+01  0.21348253444E+02 -0.19994129729E+02  0.29683674845E+02  0.51100000000E-03 0.  1.
         12    1    3    3    0    0  0.10854166700E+02 -0.60356771903E+01 -0.77706071471E+01  0.14650074039E+02  0.00000000000E+00 0. -1.
</event>
<event>
 7    1  0.2969156E-011  0.5052886E+02  0.7816164E-02  0.1300439E+00
        -11   -1    0    0    0    0  0.00000000000E+00  0.00000000000E+00  0.45593999997E+02  0.45594000000E+02  0.51100000000E-03 0. -1.
         11   -1    0    0    0    0 -0.00000000000E+00 -0.00000000000E+00 -0.45593999997E+02  0.45594000000E+02  0.51100000000E-03 0.  1.
    9900012    2    1    2    0    0 -0.36249579970E+02 -0.18142875971E+02 -0.31574981565E+01  0.50528858456E+02  0.29999995763E+02 0.  0.
         12    1    1    2    0    0  0.36249579970E+02  0.18142875971E+02  0.31574981565E+01  0.40659141544E+02  0.00000000000E+00 0. -1.
         11    1    3    3    0    0 -0.20069606469E+02 -0.15444087147E+02 -0.10576273959E+02  0.27443879149E+02  0.51100000000E-03 0.  1.
        -11    1    3    3    0    0 -0.48179362271E+01  0.17271615497E+01 -0.39100735571E+01  0.64408285174E+01  0.51100000000E-03 0. -1.
         12    1    3    3    0    0 -0.11362037274E+02 -0.44259503731E+01  0.11328849359E+02  0.16644150790E+02  0.00000000000E+00 0. -1.
</event>
<event>
 7    1  0.3354909E-011  0.5052886E+02  0.7816164E-02  0.1300439E+00
        -11   -1    0    0    0    0  0.00000000000E+00  0.00000000000E+00  0.45593999997E+02  0.45594000000E+02  0.51100000000E-03 0. -1.
         11   -1    0    0    0    0 -0.00000000000E+00 -0.00000000000E+00 -0.45593999997E+02  0.45594000000E+02  0.51100000000E-03 0.  1.
    9900012    2    1    2    0    0  0.25585893692E+01 -0.67335887094E+01 -0.40015970932E+02  0.50528861715E+02  0.30000005669E+02 0.  0.
         12    1    1    2    0    0 -0.25585893692E+01  0.67335887094E+01  0.40015970932E+02  0.40659138285E+02  0.00000000000E+00 0. -1.
         11    1    3    3    0    0  0.97110497993E+01 -0.55391860546E+00 -0.76033515814E+01  0.12345941420E+02  0.51100000000E-03 0. -1.
        -11    1    3    3    0    0 -0.81093825398E+00 -0.96782427814E+01 -0.75925312979E+01  0.12327714142E+02  0.51100000000E-03 0.  1.
        -12    1    3    3    0    0 -0.63415221762E+01  0.34985726774E+01 -0.24820088052E+02  0.25855206153E+02  0.00000000000E+00 0.  1.
</event>
<event>
 7    1  0.2969156E-011  0.5052881E+02  0.7816164E-02  0.1300439E+00
        -11   -1    0    0    0    0  0.00000000000E+00  0.00000000000E+00  0.45593999997E+02  0.45594000000E+02  0.51100000000E-03 0.  1.
         11   -1    0    0    0    0 -0.00000000000E+00 -0.00000000000E+00 -0.45593999997E+02  0.45594000000E+02  0.51100000000E-03 0. -1.
    9900012    2    1    2    0    0 -0.39961811037E+02  0.36055171320E+01 -0.65744459947E+01  0.50528813642E+02  0.29999859545E+02 0.  0.
         12    1    1    2    0    0  0.39961811037E+02 -0.36055171320E+01  0.65744459947E+01  0.40659186358E+02  0.00000000000E+00 0. -1.
         11    1    3    3    0    0  0.48165951622E+00  0.48026818248E-01 -0.67039814559E+01  0.67214336333E+01  0.51100000000E-03 0. -1.
        -11    1    3    3    0    0 -0.13401582895E+02 -0.21654405682E+01  0.70734246624E+01  0.15307674339E+02  0.51100000000E-03 0.  1.
        -12    1    3    3    0    0 -0.27041887658E+02  0.57229308819E+01 -0.69438892012E+01  0.28499705669E+02  0.00000000000E+00 0.  1.
</event>
<event>
 7    1  0.2969156E-011  0.5052886E+02  0.7816164E-02  0.1300439E+00
        -11   -1    0    0    0    0  0.00000000000E+00  0.00000000000E+00  0.45593999997E+02  0.45594000000E+02  0.51100000000E-03 0.  1.
         11   -1    0    0    0    0 -0.00000000000E+00 -0.00000000000E+00 -0.45593999997E+02  0.45594000000E+02  0.51100000000E-03 0. -1.
    9900012    2    1    2    0    0 -0.26922726690E+01  0.18727547393E+02  0.35988836219E+02  0.50528859627E+02  0.29999999323E+02 0.  0.
         12    1    1    2    0    0  0.26922726690E+01 -0.18727547393E+02 -0.35988836219E+02  0.40659140373E+02  0.00000000000E+00 0. -1.
         11    1    3    3    0    0 -0.11107542758E+02  0.17983388618E+01  0.21337168058E+02  0.24122318914E+02  0.51100000000E-03 0. -1.
        -11    1    3    3    0    0  0.29565902004E+01  0.10551698920E+02  0.14284987070E+02  0.18003906009E+02  0.51100000000E-03 0.  1.
        -12    1    3    3    0    0  0.54586798886E+01  0.63775096106E+01  0.36668109102E+00  0.84026347048E+01  0.00000000000E+00 0.  1.
</event>
<event>
 7    1  0.2969156E-011  0.5052886E+02  0.7816164E-02  0.1300439E+00
        -11   -1    0    0    0    0  0.00000000000E+00  0.00000000000E+00  0.45593999997E+02  0.45594000000E+02  0.51100000000E-03 0.  1.
         11   -1    0    0    0    0 -0.00000000000E+00 -0.00000000000E+00 -0.45593999997E+02  0.45594000000E+02  0.51100000000E-03 0. -1.
    9900012    2    1    2    0    0 -0.36632201964E+00 -0.39160679216E+02  0.10930358426E+02  0.50528859284E+02  0.29999998279E+02 0.  0.
         12    1    1    2    0    0  0.36632201964E+00  0.39160679216E+02 -0.10930358426E+02  0.40659140716E+02  0.00000000000E+00 0. -1.
         11    1    3    3    0    0  0.34310525522E+01 -0.69595479309E+01  0.27470212680E+01  0.82312547723E+01  0.51100000000E-03 0. -1.
        -11    1    3    3    0    0 -0.64972127221E+01 -0.18985458423E+02  0.16902262165E+02  0.26236384492E+02  0.51100000000E-03 0.  1.
         12    1    3    3    0    0  0.26998381503E+01 -0.13215672862E+02 -0.87189250067E+01  0.16061220019E+02  0.00000000000E+00 0. -1.
</event>
<event>
 7    1  0.2969156E-011  0.5052886E+02  0.7816164E-02  0.1300439E+00
        -11   -1    0    0    0    0  0.00000000000E+00  0.00000000000E+00  0.45593999997E+02  0.45594000000E+02  0.51100000000E-03 0.  1.
         11   -1    0    0    0    0 -0.00000000000E+00 -0.00000000000E+00 -0.45593999997E+02  0.45594000000E+02  0.51100000000E-03 0. -1.
    9900012    2    1    2    0    0  0.19257097640E+01 -0.33690642454E+02  0.22680342613E+02  0.50528859723E+02  0.29999999613E+02 0.  0.
         12    1    1    2    0    0 -0.19257097640E+01  0.33690642454E+02 -0.22680342613E+02  0.40659140277E+02  0.00000000000E+00 0. -1.
         11    1    3    3    0    0 -0.72478629841E+01 -0.17064815026E+02  0.77072286973E+01  0.20078366571E+02  0.51100000000E-03 0. -1.
        -11    1    3    3    0    0 -0.46958100392E+01 -0.67800447676E+01  0.75528334440E+00  0.82819135570E+01  0.51100000000E-03 0.  1.
        -12    1    3    3    0    0  0.13869382787E+02 -0.98457826601E+01  0.14217830571E+02  0.22168579595E+02  0.00000000000E+00 0.  1.
</event>
<event>
 7    1  0.2969156E-011  0.5052886E+02  0.7816164E-02  0.1300439E+00
        -11   -1    0    0    0    0  0.00000000000E+00  0.00000000000E+00  0.45593999997E+02  0.45594000000E+02  0.51100000000E-03 0.  1.
         11   -1    0    0    0    0 -0.00000000000E+00 -0.00000000000E+00 -0.45593999997E+02  0.45594000000E+02  0.51100000000E-03 0. -1.
    9900012    2    1    2    0    0  0.16850014581E+02  0.19208283181E+01  0.36953387466E+02  0.50528863044E+02  0.30000009708E+02 0.  0.
         12    1    1    2    0    0 -0.16850014581E+02 -0.19208283181E+01 -0.36953387466E+02  0.40659136956E+02  0.00000000000E+00 0. -1.
         11    1    3    3    0    0  0.44473828501E+01  0.28738764203E+01  0.74925473264E+01  0.91747831361E+01  0.51100000000E-03 0.  1.
        -11    1    3    3    0    0 -0.54945178651E+01  0.53900344852E+01  0.19731939272E+01  0.79457971820E+01  0.51100000000E-03 0. -1.
         12    1    3    3    0    0  0.17897149596E+02 -0.63430825873E+01  0.27487646212E+02  0.33408282726E+02  0.00000000000E+00 0. -1.
</event>
<event>
 7    1  0.2969156E-011  0.5052885E+02  0.7816164E-02  0.1300439E+00
        -11   -1    0    0    0    0  0.00000000000E+00  0.00000000000E+00  0.45593999997E+02  0.45594000000E+02  0.51100000000E-03 0.  1.
         11   -1    0    0    0    0 -0.00000000000E+00 -0.00000000000E+00 -0.45593999997E+02  0.45594000000E+02  0.51100000000E-03 0. -1.
    9900012    2    1    2    0    0  0.59717513388E+01 -0.27451760671E+02  0.29392267943E+02  0.50528851056E+02  0.29999973271E+02 0.  0.
         12    1    1    2    0    0 -0.59717513388E+01  0.27451760671E+02 -0.29392267943E+02  0.40659148944E+02  0.00000000000E+00 0. -1.
         11    1    3    3    0    0 -0.66762878372E+01 -0.14342704635E+00  0.60657102391E+01  0.90214317914E+01  0.51100000000E-03 0. -1.
        -11    1    3    3    0    0 -0.39326043686E+01 -0.47037304591E+01  0.26800513974E+01  0.66912729062E+01  0.51100000000E-03 0.  1.
         12    1    3    3    0    0  0.16580643545E+02 -0.22604603165E+02  0.20646506307E+02  0.34816146359E+02  0.00000000000E+00 0. -1.
</event>
<event>
 7    1  0.2969156E-011  0.5052885E+02  0.7816164E-02  0.1300439E+00
        -11   -1    0    0    0    0  0.00000000000E+00  0.00000000000E+00  0.45593999997E+02  0.45594000000E+02  0.51100000000E-03 0. -1.
         11   -1    0    0    0    0 -0.00000000000E+00 -0.00000000000E+00 -0.45593999997E+02  0.45594000000E+02  0.51100000000E-03 0.  1.
    9900012    2    1    2    0    0 -0.21120204763E+01 -0.33182320205E+02 -0.23401702597E+02  0.50528847413E+02  0.29999962195E+02 0.  0.
         12    1    1    2    0    0  0.21120204763E+01  0.33182320205E+02  0.23401702597E+02  0.40659152587E+02  0.00000000000E+00 0. -1.
         11    1    3    3    0    0  0.97465700528E+01 -0.30982954163E+01 -0.47138433971E+01  0.11261233596E+02  0.51100000000E-03 0. -1.
        -11    1    3    3    0    0  0.18377103636E+01 -0.10365157757E+02 -0.56768200863E+01  0.11959931491E+02  0.51100000000E-03 0.  1.
         12    1    3    3    0    0 -0.13696300893E+02 -0.19718867032E+02 -0.13011039113E+02  0.27307682325E+02  0.00000000000E+00 0. -1.
</event>
<event>
 7    1  0.2969156E-011  0.5052886E+02  0.7816164E-02  0.1300439E+00
        -11   -1    0    0    0    0  0.00000000000E+00  0.00000000000E+00  0.45593999997E+02  0.45594000000E+02  0.51100000000E-03 0.  1.
         11   -1    0    0    0    0 -0.00000000000E+00 -0.00000000000E+00 -0.45593999997E+02  0.45594000000E+02  0.51100000000E-03 0. -1.
    9900012    2    1    2    0    0 -0.12661948818E+02  0.15352619767E+02  0.35456143160E+02  0.50528856264E+02  0.29999989101E+02 0.  0.
         12    1    1    2    0    0  0.12661948818E+02 -0.15352619767E+02 -0.35456143160E+02  0.40659143736E+02  0.00000000000E+00 0. -1.
         11    1    3    3    0    0  0.16961692346E+01  0.91600057786E+01  0.88032464006E+01  0.12817169866E+02  0.51100000000E-03 0. -1.
        -11    1    3    3    0    0 -0.47679140130E+01  0.39292558118E+01  0.27151339857E+02  0.27845418143E+02  0.51100000000E-03 0.  1.
         12    1    3    3    0    0 -0.95902040391E+01  0.22633581764E+01 -0.49844309835E+00  0.98662682544E+01  0.00000000000E+00 0. -1.
</event>
<event>
 7    1  0.2969156E-011  0.5052886E+02  0.7816164E-02  0.1300439E+00
        -11   -1    0    0    0    0  0.00000000000E+00  0.00000000000E+00  0.45593999997E+02  0.45594000000E+02  0.51100000000E-03 0.  1.
         11   -1    0    0    0    0 -0.00000000000E+00 -0.00000000000E+00 -0.45593999997E+02  0.45594000000E+02  0.51100000000E-03 0. -1.
    9900012    2    1    2    0    0 -0.48168204931E+01 -0.29186600355E+02  0.27894551693E+02  0.50528863092E+02  0.30000009855E+02 0.  0.
         12    1    1    2    0    0  0.48168204931E+01  0.29186600355E+02 -0.27894551693E+02  0.40659136908E+02  0.00000000000E+00 0. -1.
         11    1    3    3    0    0 -0.16157663790E+01 -0.23054069545E+02  0.18253382033E+02  0.29449733097E+02  0.51100000000E-03 0. -1.
        -11    1    3    3    0    0 -0.78347125611E+01 -0.71395127972E+01  0.11806257799E+02  0.15866413816E+02  0.51100000000E-03 0.  1.
         12    1    3    3    0    0  0.46336584469E+01  0.10069819873E+01 -0.21650881386E+01  0.52127161800E+01  0.00000000000E+00 0. -1.
</event>
<event>
 7    1  0.2969156E-011  0.5052886E+02  0.7816164E-02  0.1300439E+00
        -11   -1    0    0    0    0  0.00000000000E+00  0.00000000000E+00  0.45593999997E+02  0.45594000000E+02  0.51100000000E-03 0.  1.
         11   -1    0    0    0    0 -0.00000000000E+00 -0.00000000000E+00 -0.45593999997E+02  0.45594000000E+02  0.51100000000E-03 0. -1.
    9900012    2    1    2    0    0  0.36886718054E+01 -0.40489591529E+02  0.39057455183E+00  0.50528857481E+02  0.29999992799E+02 0.  0.
         12    1    1    2    0    0 -0.36886718054E+01  0.40489591529E+02 -0.39057455183E+00  0.40659142519E+02  0.00000000000E+00 0. -1.
         11    1    3    3    0    0  0.66557379895E+00 -0.81433544901E+00 -0.54358898466E+01  0.55366984197E+01  0.51100000000E-03 0. -1.
        -11    1    3    3    0    0 -0.37318931079E+01 -0.36441380849E+02  0.22722148765E+01  0.36702373562E+02  0.51100000000E-03 0.  1.
         12    1    3    3    0    0  0.67549911143E+01 -0.32338752314E+01  0.35542495220E+01  0.82897854997E+01  0.00000000000E+00 0. -1.
</event>
<event>
 7    1  0.2969156E-011  0.5052887E+02  0.7816164E-02  0.1300439E+00
        -11   -1    0    0    0    0  0.00000000000E+00  0.00000000000E+00  0.45593999997E+02  0.45594000000E+02  0.51100000000E-03 0.  1.
         11   -1    0    0    0    0 -0.00000000000E+00 -0.00000000000E+00 -0.45593999997E+02  0.45594000000E+02  0.51100000000E-03 0. -1.
    9900012    2    1    2    0    0 -0.31987561771E+02 -0.10151835678E+02  0.22954324603E+02  0.50528869492E+02  0.30000029307E+02 0.  0.
         12    1    1    2    0    0  0.31987561771E+02  0.10151835678E+02 -0.22954324603E+02  0.40659130508E+02  0.00000000000E+00 0. -1.
         11    1    3    3    0    0 -0.14100422499E+02 -0.67365170170E+01  0.28152470347E+01  0.15878545031E+02  0.51100000000E-03 0. -1.
        -11    1    3    3    0    0 -0.16415481837E+02 -0.71910409239E+01  0.23382007462E+02  0.29460098213E+02  0.51100000000E-03 0.  1.
         12    1    3    3    0    0 -0.14716574357E+01  0.37757222625E+01 -0.32429298936E+01  0.51902262481E+01  0.00000000000E+00 0. -1.
</event>
<event>
 7    1  0.2969156E-011  0.5052886E+02  0.7816164E-02  0.1300439E+00
        -11   -1    0    0    0    0  0.00000000000E+00  0.00000000000E+00  0.45593999997E+02  0.45594000000E+02  0.51100000000E-03 0.  1.
         11   -1    0    0    0    0 -0.00000000000E+00 -0.00000000000E+00 -0.45593999997E+02  0.45594000000E+02  0.51100000000E-03 0. -1.
    9900012    2    1    2    0    0 -0.18076520726E+02 -0.14807344608E+02  0.33273823565E+02  0.50528863382E+02  0.30000010735E+02 0.  0.
         12    1    1    2    0    0  0.18076520726E+02  0.14807344608E+02 -0.33273823565E+02  0.40659136618E+02  0.00000000000E+00 0. -1.
         11    1    3    3    0    0 -0.49810702143E+01 -0.54308109072E+01  0.22994106722E+02  0.24146091025E+02  0.51100000000E-03 0.  1.
        -11    1    3    3    0    0 -0.77815599814E+01 -0.14578410141E+02  0.90642470847E+01  0.18847898914E+02  0.51100000000E-03 0. -1.
         12    1    3    3    0    0 -0.53138905302E+01  0.52018764402E+01  0.12154697588E+01  0.75348734429E+01  0.00000000000E+00 0. -1.
</event>
<event>
 7    1  0.2969156E-011  0.5052887E+02  0.7816164E-02  0.1300439E+00
        -11   -1    0    0    0    0  0.00000000000E+00  0.00000000000E+00  0.45593999997E+02  0.45594000000E+02  0.51100000000E-03 0.  1.
         11   -1    0    0    0    0 -0.00000000000E+00 -0.00000000000E+00 -0.45593999997E+02  0.45594000000E+02  0.51100000000E-03 0. -1.
    9900012    2    1    2    0    0  0.10649732974E+02 -0.56873830561E+01  0.38825271698E+02  0.50528869896E+02  0.30000030535E+02 0.  0.
         12    1    1    2    0    0 -0.10649732974E+02  0.56873830561E+01 -0.38825271698E+02  0.40659130104E+02  0.00000000000E+00 0. -1.
         11    1    3    3    0    0  0.79062511983E+01  0.44222960716E+01  0.20143956850E+02  0.22087202366E+02  0.51100000000E-03 0. -1.
        -11    1    3    3    0    0 -0.67227542642E+01 -0.99118993767E+01  0.10287149635E+02  0.15788179820E+02  0.51100000000E-03 0.  1.
         12    1    3    3    0    0  0.94662360395E+01 -0.19777975100E+00  0.83941652132E+01  0.12653487709E+02  0.00000000000E+00 0. -1.
</event>
<event>
 7    1  0.2969156E-011  0.5052887E+02  0.7816164E-02  0.1300439E+00
        -11   -1    0    0    0    0  0.00000000000E+00  0.00000000000E+00  0.45593999997E+02  0.45594000000E+02  0.51100000000E-03 0.  1.
         11   -1    0    0    0    0 -0.00000000000E+00 -0.00000000000E+00 -0.45593999997E+02  0.45594000000E+02  0.51100000000E-03 0. -1.
    9900012    2    1    2    0    0  0.30913072450E+02  0.10619953841E+02  0.24181878541E+02  0.50528871657E+02  0.30000035889E+02 0.  0.
         12    1    1    2    0    0 -0.30913072450E+02 -0.10619953841E+02 -0.24181878541E+02  0.40659128343E+02  0.00000000000E+00 0. -1.
         11    1    3    3    0    0  0.15428305860E+02  0.13934157538E+02  0.16669389752E+02  0.26646987127E+02  0.51100000000E-03 0. -1.
        -11    1    3    3    0    0  0.15169754622E+02  0.10394051512E+01  0.13856620969E-01  0.15205328363E+02  0.51100000000E-03 0.  1.
         12    1    3    3    0    0  0.31501196845E+00 -0.43536088481E+01  0.74986321672E+01  0.86765561671E+01  0.00000000000E+00 0. -1.
</event>
<event>
 7    1  0.2969156E-011  0.5052886E+02  0.7816164E-02  0.1300439E+00
        -11   -1    0    0    0    0  0.00000000000E+00  0.00000000000E+00  0.45593999997E+02  0.45594000000E+02  0.51100000000E-03 0. -1.
         11   -1    0    0    0    0 -0.00000000000E+00 -0.00000000000E+00 -0.45593999997E+02  0.45594000000E+02  0.51100000000E-03 0.  1.
    9900012    2    1    2    0    0  0.71666946648E+01  0.29609577902E+02 -0.26927257410E+02  0.50528858254E+02  0.29999995148E+02 0.  0.
         12    1    1    2    0    0 -0.71666946648E+01 -0.29609577902E+02  0.26927257410E+02  0.40659141746E+02  0.00000000000E+00 0. -1.
         11    1    3    3    0    0  0.35361625266E+01 -0.18497117381E+00 -0.59542705238E+01  0.69276256741E+01  0.51100000000E-03 0. -1.
        -11    1    3    3    0    0  0.22656688335E+01  0.33122828063E+02 -0.22038964139E+02  0.39849353002E+02  0.51100000000E-03 0.  1.
         12    1    3    3    0    0  0.13648633048E+01 -0.33282789873E+01  0.10659772529E+01  0.37518795771E+01  0.00000000000E+00 0. -1.
</event>
<event>
 7    1  0.2969156E-011  0.5052886E+02  0.7816164E-02  0.1300439E+00
        -11   -1    0    0    0    0  0.00000000000E+00  0.00000000000E+00  0.45593999997E+02  0.45594000000E+02  0.51100000000E-03 0.  1.
         11   -1    0    0    0    0 -0.00000000000E+00 -0.00000000000E+00 -0.45593999997E+02  0.45594000000E+02  0.51100000000E-03 0. -1.
    9900012    2    1    2    0    0 -0.34257989487E+02 -0.99254857900E+01  0.19520256305E+02  0.50528861813E+02  0.30000005967E+02 0.  0.
         12    1    1    2    0    0  0.34257989487E+02  0.99254857900E+01 -0.19520256305E+02  0.40659138187E+02  0.00000000000E+00 0. -1.
         11    1    3    3    0    0 -0.58713966504E+01 -0.31397773345E+01  0.39242412428E+01  0.77285943049E+01  0.51100000000E-03 0. -1.
        -11    1    3    3    0    0 -0.21281674900E+02  0.84348969687E+01  0.70453647951E+01  0.23951917226E+02  0.51100000000E-03 0.  1.
         12    1    3    3    0    0 -0.71049179368E+01 -0.15220605424E+02  0.85506502675E+01  0.18848350282E+02  0.00000000000E+00 0. -1.
</event>
<event>
 7    1  0.3209772E-011  0.5052887E+02  0.7816164E-02  0.1300439E+00
        -11   -1    0    0    0    0  0.00000000000E+00  0.00000000000E+00  0.45593999997E+02  0.45594000000E+02  0.51100000000E-03 0. -1.
         11   -1    0    0    0    0 -0.00000000000E+00 -0.00000000000E+00 -0.45593999997E+02  0.45594000000E+02  0.51100000000E-03 0.  1.
    9900012    2    1    2    0    0  0.30631588631E+01  0.30703713744E+02 -0.26477618214E+02  0.50528865157E+02  0.30000016131E+02 0.  0.
         12    1    1    2    0    0 -0.30631588631E+01 -0.30703713744E+02  0.26477618214E+02  0.40659134843E+02  0.00000000000E+00 0. -1.
         11    1    3    3    0    0 -0.50035728755E+01 -0.32880994786E+01 -0.23208538327E+01  0.64213474034E+01  0.51100000000E-03 0. -1.
        -11    1    3    3    0    0 -0.29363435746E+01  0.91303033578E+01 -0.79384148561E+01  0.12450019425E+02  0.51100000000E-03 0.  1.
        -12    1    3    3    0    0  0.11003075313E+02  0.24861509865E+02 -0.16218349525E+02  0.31657498329E+02  0.00000000000E+00 0.  1.
</event>
<event>
 7    1  0.2969156E-011  0.5052886E+02  0.7816164E-02  0.1300439E+00
        -11   -1    0    0    0    0  0.00000000000E+00  0.00000000000E+00  0.45593999997E+02  0.45594000000E+02  0.51100000000E-03 0.  1.
         11   -1    0    0    0    0 -0.00000000000E+00 -0.00000000000E+00 -0.45593999997E+02  0.45594000000E+02  0.51100000000E-03 0. -1.
    9900012    2    1    2    0    0  0.19637358143E+02 -0.17533602726E+02  0.30985684485E+02  0.50528859547E+02  0.29999999079E+02 0.  0.
         12    1    1    2    0    0 -0.19637358143E+02  0.17533602726E+02 -0.30985684485E+02  0.40659140453E+02  0.00000000000E+00 0. -1.
         11    1    3    3    0    0  0.41612323373E+00  0.20835048390E+01 -0.82374341904E-01  0.21262494569E+01  0.51100000000E-03 0. -1.
        -11    1    3    3    0    0  0.81745476458E+01 -0.18634872642E+02  0.63600119147E+01  0.21319743418E+02  0.51100000000E-03 0.  1.
         12    1    3    3    0    0  0.11046687263E+02 -0.98223492260E+00  0.24708046912E+02  0.27082866672E+02  0.00000000000E+00 0. -1.
</event>
<event>
 7    1  0.2969156E-011  0.5052877E+02  0.7816164E-02  0.1300439E+00
        -11   -1    0    0    0    0  0.00000000000E+00  0.00000000000E+00  0.45593999997E+02  0.45594000000E+02  0.51100000000E-03 0. -1.
         11   -1    0    0    0    0 -0.00000000000E+00 -0.00000000000E+00 -0.45593999997E+02  0.45594000000E+02  0.51100000000E-03 0.  1.
    9900012    2    1    2    0    0 -0.23149789648E+02  0.21515890940E+02 -0.25579808535E+02  0.50528770686E+02  0.29999728976E+02 0.  0.
         12    1    1    2    0    0  0.23149789648E+02 -0.21515890940E+02  0.25579808535E+02  0.40659229314E+02  0.00000000000E+00 0. -1.
         11    1    3    3    0    0  0.59964567564E+01  0.61728491950E+01 -0.29264729967E+01  0.90898737767E+01  0.51100000000E-03 0. -1.
        -11    1    3    3    0    0 -0.80240821732E+00  0.78865534850E+00  0.11940759688E+01  0.16406260654E+01  0.51100000000E-03 0.  1.
        -12    1    3    3    0    0 -0.28343838187E+02  0.14554386397E+02 -0.23847411507E+02  0.39798270844E+02  0.00000000000E+00 0.  1.
</event>
<event>
 7    1  0.2969156E-011  0.5052896E+02  0.7816164E-02  0.1300438E+00
        -11   -1    0    0    0    0  0.00000000000E+00  0.00000000000E+00  0.45593999997E+02  0.45594000000E+02  0.51100000000E-03 0. -1.
         11   -1    0    0    0    0 -0.00000000000E+00 -0.00000000000E+00 -0.45593999997E+02  0.45594000000E+02  0.51100000000E-03 0.  1.
    9900012    2    1    2    0    0 -0.97098983901E+01 -0.34920587874E+02 -0.18423576611E+02  0.50528957225E+02  0.30000295981E+02 0.  0.
         12    1    1    2    0    0  0.97098983901E+01  0.34920587874E+02  0.18423576611E+02  0.40659042775E+02  0.00000000000E+00 0. -1.
         11    1    3    3    0    0 -0.42502598706E+01 -0.19598754125E+02 -0.45191961932E+01  0.20557213010E+02  0.51100000000E-03 0. -1.
        -11    1    3    3    0    0  0.31053131638E+01 -0.15569245534E+02 -0.14338192993E+02  0.21392245205E+02  0.51100000000E-03 0.  1.
         12    1    3    3    0    0 -0.85649516833E+01  0.24741178522E+00  0.43381257520E+00  0.85794990109E+01  0.00000000000E+00 0. -1.
</event>
<event>
 7    1  0.2969156E-011  0.5052886E+02  0.7816164E-02  0.1300439E+00
        -11   -1    0    0    0    0  0.00000000000E+00  0.00000000000E+00  0.45593999997E+02  0.45594000000E+02  0.51100000000E-03 0.  1.
         11   -1    0    0    0    0 -0.00000000000E+00 -0.00000000000E+00 -0.45593999997E+02  0.45594000000E+02  0.51100000000E-03 0. -1.
    9900012    2    1    2    0    0 -0.25031975913E+02 -0.20149952552E+02  0.24910741719E+02  0.50528862541E+02  0.30000008179E+02 0.  0.
         12    1    1    2    0    0  0.25031975913E+02  0.20149952552E+02 -0.24910741719E+02  0.40659137459E+02  0.00000000000E+00 0. -1.
         11    1    3    3    0    0 -0.21442700264E+00 -0.69381776123E+01  0.14739726934E+00  0.69430550722E+01  0.51100000000E-03 0. -1.
        -11    1    3    3    0    0 -0.23438398109E+02 -0.18837093223E+02  0.20466138696E+02  0.36373856276E+02  0.51100000000E-03 0.  1.
         12    1    3    3    0    0 -0.13791508013E+01  0.56253182830E+01  0.42972057531E+01  0.72119511925E+01  0.00000000000E+00 0. -1.
</event>
<event>
 7    1  0.2969156E-011  0.5052880E+02  0.7816164E-02  0.1300439E+00
        -11   -1    0    0    0    0  0.00000000000E+00  0.00000000000E+00  0.45593999997E+02  0.45594000000E+02  0.51100000000E-03 0.  1.
         11   -1    0    0    0    0 -0.00000000000E+00 -0.00000000000E+00 -0.45593999997E+02  0.45594000000E+02  0.51100000000E-03 0. -1.
    9900012    2    1    2    0    0  0.18249904471E+02 -0.36237693652E+02 -0.26346350810E+01  0.50528797396E+02  0.29999810164E+02 0.  0.
         12    1    1    2    0    0 -0.18249904471E+02  0.36237693652E+02  0.26346350810E+01  0.40659202604E+02  0.00000000000E+00 0. -1.
         11    1    3    3    0    0  0.14151464561E+02 -0.28783066820E+02 -0.57416300405E+01  0.32583664628E+02  0.51100000000E-03 0. -1.
        -11    1    3    3    0    0  0.88154879704E+01 -0.73745284315E+01  0.54011521645E+01  0.12699170946E+02  0.51100000000E-03 0.  1.
         12    1    3    3    0    0 -0.47170480609E+01 -0.80098400287E-01 -0.22941572049E+01  0.52459618226E+01  0.00000000000E+00 0. -1.
</event>
<event>
 7    1  0.2969156E-011  0.5052886E+02  0.7816164E-02  0.1300439E+00
        -11   -1    0    0    0    0  0.00000000000E+00  0.00000000000E+00  0.45593999997E+02  0.45594000000E+02  0.51100000000E-03 0.  1.
         11   -1    0    0    0    0 -0.00000000000E+00 -0.00000000000E+00 -0.45593999997E+02  0.45594000000E+02  0.51100000000E-03 0. -1.
    9900012    2    1    2    0    0 -0.23880755470E+02  0.16241614506E+02  0.28619658162E+02  0.50528863796E+02  0.30000011993E+02 0.  0.
         12    1    1    2    0    0  0.23880755470E+02 -0.16241614506E+02 -0.28619658162E+02  0.40659136204E+02  0.00000000000E+00 0. -1.
         11    1    3    3    0    0  0.38467188216E+01  0.27132664886E+00  0.26319597958E+01  0.46688410200E+01  0.51100000000E-03 0. -1.
        -11    1    3    3    0    0 -0.84562522667E+01  0.94482288522E+01 -0.22074842390E+00  0.12681717587E+02  0.51100000000E-03 0.  1.
        -12    1    3    3    0    0 -0.19271222025E+02  0.65220590046E+01  0.26208446790E+02  0.33178305188E+02  0.00000000000E+00 0.  1.
</event>
<event>
 7    1  0.3054810E-011  0.5052885E+02  0.7816164E-02  0.1300439E+00
        -11   -1    0    0    0    0  0.00000000000E+00  0.00000000000E+00  0.45593999997E+02  0.45594000000E+02  0.51100000000E-03 0. -1.
         11   -1    0    0    0    0 -0.00000000000E+00 -0.00000000000E+00 -0.45593999997E+02  0.45594000000E+02  0.51100000000E-03 0.  1.
    9900012    2    1    2    0    0  0.34562867997E+02  0.40632819762E+01 -0.21025321204E+02  0.50528852981E+02  0.29999979121E+02 0.  0.
         12    1    1    2    0    0 -0.34562867997E+02 -0.40632819762E+01  0.21025321204E+02  0.40659147019E+02  0.00000000000E+00 0. -1.
         11    1    3    3    0    0 -0.21426673909E+01 -0.20994006219E-01  0.34240124411E+01  0.40392234098E+01  0.51100000000E-03 0. -1.
        -11    1    3    3    0    0  0.18891063179E+02  0.67345792505E+01 -0.65517623947E+01  0.21098635417E+02  0.51100000000E-03 0.  1.
        -12    1    3    3    0    0  0.17814472209E+02 -0.26503032680E+01 -0.17897571250E+02  0.25390994154E+02  0.00000000000E+00 0.  1.
</event>
<event>
 7    1  0.2969156E-011  0.5052886E+02  0.7816164E-02  0.1300439E+00
        -11   -1    0    0    0    0  0.00000000000E+00  0.00000000000E+00  0.45593999997E+02  0.45594000000E+02  0.51100000000E-03 0.  1.
         11   -1    0    0    0    0 -0.00000000000E+00 -0.00000000000E+00 -0.45593999997E+02  0.45594000000E+02  0.51100000000E-03 0. -1.
    9900012    2    1    2    0    0 -0.57889495153E+01 -0.28302673607E+01  0.40145280763E+02  0.50528856904E+02  0.29999991045E+02 0.  0.
         12    1    1    2    0    0  0.57889495153E+01  0.28302673607E+01 -0.40145280763E+02  0.40659143096E+02  0.00000000000E+00 0. -1.
         11    1    3    3    0    0  0.90570761571E+00  0.25773170454E+01  0.10949724146E+02  0.11285359036E+02  0.51100000000E-03 0.  1.
        -11    1    3    3    0    0  0.63239411121E+01  0.74830606654E+00 -0.34750716063E+00  0.63775351544E+01  0.51100000000E-03 0. -1.
         12    1    3    3    0    0 -0.13018598243E+02 -0.61558904727E+01  0.29543063777E+02  0.32865962713E+02  0.00000000000E+00 0. -1.
</event>
<event>
 7    1  0.2969156E-011  0.5052887E+02  0.7816164E-02  0.1300439E+00
        -11   -1    0    0    0    0  0.00000000000E+00  0.00000000000E+00  0.45593999997E+02  0.45594000000E+02  0.51100000000E-03 0.  1.
         11   -1    0    0    0    0 -0.00000000000E+00 -0.00000000000E+00 -0.45593999997E+02  0.45594000000E+02  0.51100000000E-03 0. -1.
    9900012    2    1    2    0    0  0.49649678873E+01  0.39730431148E+02 -0.70715489777E+01  0.50528869780E+02  0.30000030184E+02 0.  0.
         12    1    1    2    0    0 -0.49649678873E+01 -0.39730431148E+02  0.70715489777E+01  0.40659130220E+02  0.00000000000E+00 0. -1.
         11    1    3    3    0    0 -0.61074318077E+01  0.11752236436E+02 -0.42122723557E+01  0.13898166181E+02  0.51100000000E-03 0. -1.
        -11    1    3    3    0    0 -0.52308025584E+01  0.14286747691E+02 -0.67346371094E+00  0.15229117132E+02  0.51100000000E-03 0.  1.
         12    1    3    3    0    0  0.16303202253E+02  0.13691447021E+02 -0.21858129110E+01  0.21401586468E+02  0.00000000000E+00 0. -1.
</event>
<event>
 7    1  0.2969156E-011  0.5052885E+02  0.7816164E-02  0.1300439E+00
        -11   -1    0    0    0    0  0.00000000000E+00  0.00000000000E+00  0.45593999997E+02  0.45594000000E+02  0.51100000000E-03 0.  1.
         11   -1    0    0    0    0 -0.00000000000E+00 -0.00000000000E+00 -0.45593999997E+02  0.45594000000E+02  0.51100000000E-03 0. -1.
    9900012    2    1    2    0    0  0.24048708354E+01 -0.43579520870E+01  0.40353327599E+02  0.50528853447E+02  0.29999980536E+02 0.  0.
         12    1    1    2    0    0 -0.24048708354E+01  0.43579520870E+01 -0.40353327599E+02  0.40659146553E+02  0.00000000000E+00 0. -1.
         11    1    3    3    0    0  0.15500435858E+01  0.17993732669E+01  0.15147425496E+01  0.28168820573E+01  0.51100000000E-03 0. -1.
        -11    1    3    3    0    0  0.72886831195E+01 -0.14485543041E+02  0.29399749296E+02  0.33575305178E+02  0.51100000000E-03 0.  1.
        -12    1    3    3    0    0 -0.64338558699E+01  0.83282176875E+01  0.94388357533E+01  0.14136666212E+02  0.00000000000E+00 0.  1.
</event>
<event>
 7    1  0.2969156E-011  0.5052886E+02  0.7816164E-02  0.1300439E+00
        -11   -1    0    0    0    0  0.00000000000E+00  0.00000000000E+00  0.45593999997E+02  0.45594000000E+02  0.51100000000E-03 0.  1.
         11   -1    0    0    0    0 -0.00000000000E+00 -0.00000000000E+00 -0.45593999997E+02  0.45594000000E+02  0.51100000000E-03 0. -1.
    9900012    2    1    2    0    0  0.30764487445E+02  0.12026677231E+02  0.23708043316E+02  0.50528856246E+02  0.29999989045E+02 0.  0.
         12    1    1    2    0    0 -0.30764487445E+02 -0.12026677231E+02 -0.23708043316E+02  0.40659143754E+02  0.00000000000E+00 0. -1.
         11    1    3    3    0    0  0.21580906645E+01  0.12990961520E-01 -0.45153562974E+01  0.50045945725E+01  0.51100000000E-03 0. -1.
        -11    1    3    3    0    0  0.36289369848E+00  0.41805673229E+01  0.10415046737E+02  0.11228625641E+02  0.51100000000E-03 0.  1.
        -12    1    3    3    0    0  0.28243503082E+02  0.78331189461E+01  0.17808352876E+02  0.34295636033E+02  0.00000000000E+00 0.  1.
</event>
<event>
 7    1  0.2969156E-011  0.5052888E+02  0.7816164E-02  0.1300439E+00
        -11   -1    0    0    0    0  0.00000000000E+00  0.00000000000E+00  0.45593999997E+02  0.45594000000E+02  0.51100000000E-03 0.  1.
         11   -1    0    0    0    0 -0.00000000000E+00 -0.00000000000E+00 -0.45593999997E+02  0.45594000000E+02  0.51100000000E-03 0. -1.
    9900012    2    1    2    0    0 -0.11588733627E+02 -0.22627642266E+01  0.38906880821E+02  0.50528877724E+02  0.30000054331E+02 0.  0.
         12    1    1    2    0    0  0.11588733627E+02  0.22627642266E+01 -0.38906880821E+02  0.40659122276E+02  0.00000000000E+00 0. -1.
         11    1    3    3    0    0 -0.86415477675E+01  0.65876498428E+01  0.75929416440E+01  0.13256177478E+02  0.51100000000E-03 0. -1.
        -11    1    3    3    0    0 -0.49295665843E+01 -0.95971448423E+01  0.69875410177E+01  0.12854242318E+02  0.51100000000E-03 0.  1.
        -12    1    3    3    0    0  0.19823807244E+01  0.74673077292E+00  0.24326398159E+02  0.24418457928E+02  0.00000000000E+00 0.  1.
</event>
<event>
 7    1  0.2969156E-011  0.5052886E+02  0.7816164E-02  0.1300439E+00
        -11   -1    0    0    0    0  0.00000000000E+00  0.00000000000E+00  0.45593999997E+02  0.45594000000E+02  0.51100000000E-03 0. -1.
         11   -1    0    0    0    0 -0.00000000000E+00 -0.00000000000E+00 -0.45593999997E+02  0.45594000000E+02  0.51100000000E-03 0.  1.
    9900012    2    1    2    0    0 -0.23079230790E+02 -0.31415369406E+02 -0.11558100940E+02  0.50528855566E+02  0.29999986980E+02 0.  0.
         12    1    1    2    0    0  0.23079230790E+02  0.31415369406E+02  0.11558100940E+02  0.40659144434E+02  0.00000000000E+00 0. -1.
         11    1    3    3    0    0 -0.10306962484E+02 -0.18518454715E+02  0.20346718858E+01  0.21290996468E+02  0.51100000000E-03 0. -1.
        -11    1    3    3    0    0  0.26006868149E+01 -0.98322655479E+01 -0.45572653738E+01  0.11144760458E+02  0.51100000000E-03 0.  1.
        -12    1    3    3    0    0 -0.15372955120E+02 -0.30646491431E+01 -0.90355074519E+01  0.18093098640E+02  0.00000000000E+00 0.  1.
</event>
<event>
 7    1  0.2969156E-011  0.5052887E+02  0.7816164E-02  0.1300439E+00
        -11   -1    0    0    0    0  0.00000000000E+00  0.00000000000E+00  0.45593999997E+02  0.45594000000E+02  0.51100000000E-03 0.  1.
         11   -1    0    0    0    0 -0.00000000000E+00 -0.00000000000E+00 -0.45593999997E+02  0.45594000000E+02  0.51100000000E-03 0. -1.
    9900012    2    1    2    0    0 -0.23007645106E+02 -0.29012558029E+02  0.16795385340E+02  0.50528865413E+02  0.30000016908E+02 0.  0.
         12    1    1    2    0    0  0.23007645106E+02  0.29012558029E+02 -0.16795385340E+02  0.40659134587E+02  0.00000000000E+00 0. -1.
         11    1    3    3    0    0 -0.10035804425E+02 -0.14100147962E+02  0.70110371704E+01  0.18673140750E+02  0.51100000000E-03 0. -1.
        -11    1    3    3    0    0  0.15708983094E+01 -0.15643785271E+02  0.43446264380E+01  0.16311698816E+02  0.51100000000E-03 0.  1.
         12    1    3    3    0    0 -0.14542738990E+02  0.73137520379E+00  0.54397217314E+01  0.15544025847E+02  0.00000000000E+00 0. -1.
</event>
<event>
 7    1  0.2969156E-011  0.5052886E+02  0.7816164E-02  0.1300439E+00
        -11   -1    0    0    0    0  0.00000000000E+00  0.00000000000E+00  0.45593999997E+02  0.45594000000E+02  0.51100000000E-03 0. -1.
         11   -1    0    0    0    0 -0.00000000000E+00 -0.00000000000E+00 -0.45593999997E+02  0.45594000000E+02  0.51100000000E-03 0.  1.
    9900012    2    1    2    0    0  0.21543343500E+02  0.70692461880E+01 -0.33750199833E+02  0.50528857368E+02  0.29999992455E+02 0.  0.
         12    1    1    2    0    0 -0.21543343500E+02 -0.70692461880E+01  0.33750199833E+02  0.40659142632E+02  0.00000000000E+00 0. -1.
         11    1    3    3    0    0  0.42758443598E+01  0.37903221365E+01  0.11247097160E+01  0.58236036175E+01  0.51100000000E-03 0. -1.
        -11    1    3    3    0    0  0.31397573632E+01 -0.86268290833E+01 -0.14856822923E+02  0.17464405056E+02  0.51100000000E-03 0.  1.
         12    1    3    3    0    0  0.14127741777E+02  0.11905753135E+02 -0.20018086626E+02  0.27240848695E+02  0.00000000000E+00 0. -1.
</event>
<event>
 7    1  0.2969156E-011  0.5052886E+02  0.7816164E-02  0.1300439E+00
        -11   -1    0    0    0    0  0.00000000000E+00  0.00000000000E+00  0.45593999997E+02  0.45594000000E+02  0.51100000000E-03 0. -1.
         11   -1    0    0    0    0 -0.00000000000E+00 -0.00000000000E+00 -0.45593999997E+02  0.45594000000E+02  0.51100000000E-03 0.  1.
    9900012    2    1    2    0    0  0.40645754675E+02 -0.94188080128E+00 -0.44818240325E+00  0.50528863511E+02  0.30000011129E+02 0.  0.
         12    1    1    2    0    0 -0.40645754675E+02  0.94188080128E+00  0.44818240325E+00  0.40659136489E+02  0.00000000000E+00 0. -1.
         11    1    3    3    0    0  0.85139268476E+01  0.63936865700E+01 -0.85966626605E+01  0.13684618646E+02  0.51100000000E-03 0. -1.
        -11    1    3    3    0    0 -0.25876850309E+00 -0.17537422494E+01  0.31274235912E+01  0.35949063403E+01  0.51100000000E-03 0.  1.
        -12    1    3    3    0    0  0.32390596330E+02 -0.55818251219E+01  0.50210566660E+01  0.33249338525E+02  0.00000000000E+00 0.  1.
</event>
<event>
 7    1  0.2969156E-011  0.5052887E+02  0.7816164E-02  0.1300439E+00
        -11   -1    0    0    0    0  0.00000000000E+00  0.00000000000E+00  0.45593999997E+02  0.45594000000E+02  0.51100000000E-03 0.  1.
         11   -1    0    0    0    0 -0.00000000000E+00 -0.00000000000E+00 -0.45593999997E+02  0.45594000000E+02  0.51100000000E-03 0. -1.
    9900012    2    1    2    0    0 -0.12592514368E+02  0.41051463536E+00  0.38657791899E+02  0.50528870461E+02  0.30000032253E+02 0.  0.
         12    1    1    2    0    0  0.12592514368E+02 -0.41051463536E+00 -0.38657791899E+02  0.40659129539E+02  0.00000000000E+00 0. -1.
         11    1    3    3    0    0 -0.41440462284E+01 -0.70671310046E+00  0.14018319358E+01  0.44314439618E+01  0.51100000000E-03 0. -1.
        -11    1    3    3    0    0 -0.14449885281E+02  0.13827157229E+01  0.37368748265E+02  0.40089081238E+02  0.51100000000E-03 0.  1.
         12    1    3    3    0    0  0.60014171412E+01 -0.26548798705E+00 -0.11278830166E+00  0.60083452610E+01  0.00000000000E+00 0. -1.
</event>
<event>
 7    1  0.2969156E-011  0.5052886E+02  0.7816164E-02  0.1300439E+00
        -11   -1    0    0    0    0  0.00000000000E+00  0.00000000000E+00  0.45593999997E+02  0.45594000000E+02  0.51100000000E-03 0. -1.
         11   -1    0    0    0    0 -0.00000000000E+00 -0.00000000000E+00 -0.45593999997E+02  0.45594000000E+02  0.51100000000E-03 0.  1.
    9900012    2    1    2    0    0  0.40616289047E+02  0.17897753297E+01  0.52832331923E+00  0.50528863792E+02  0.30000011982E+02 0.  0.
         12    1    1    2    0    0 -0.40616289047E+02 -0.17897753297E+01 -0.52832331923E+00  0.40659136208E+02  0.00000000000E+00 0. -1.
         11    1    3    3    0    0  0.14799323702E+02  0.12069414339E+01 -0.80254261917E+01  0.16878511649E+02  0.51100000000E-03 0. -1.
        -11    1    3    3    0    0  0.22040093094E+02 -0.30694060197E+00 -0.22635624099E+01  0.22158150446E+02  0.51100000000E-03 0.  1.
         12    1    3    3    0    0  0.37768722499E+01  0.88977449781E+00  0.10817311921E+02  0.11492201697E+02  0.00000000000E+00 0. -1.
</event>
<event>
 7    1  0.2969156E-011  0.5052886E+02  0.7816164E-02  0.1300439E+00
        -11   -1    0    0    0    0  0.00000000000E+00  0.00000000000E+00  0.45593999997E+02  0.45594000000E+02  0.51100000000E-03 0. -1.
         11   -1    0    0    0    0 -0.00000000000E+00 -0.00000000000E+00 -0.45593999997E+02  0.45594000000E+02  0.51100000000E-03 0.  1.
    9900012    2    1    2    0    0 -0.22521371512E+02  0.31023170709E+02 -0.13546809335E+02  0.50528864018E+02  0.30000012669E+02 0.  0.
         12    1    1    2    0    0  0.22521371512E+02 -0.31023170709E+02  0.13546809335E+02  0.40659135982E+02  0.00000000000E+00 0. -1.
         11    1    3    3    0    0 -0.89231943341E+01  0.16150940770E+00 -0.86302745483E+01  0.12414955556E+02  0.51100000000E-03 0. -1.
        -11    1    3    3    0    0 -0.11756938619E+02  0.18959968560E+02 -0.10713093901E+02  0.24748260437E+02  0.51100000000E-03 0.  1.
         12    1    3    3    0    0 -0.18412385588E+01  0.11901692742E+02  0.57965591147E+01  0.13365648025E+02  0.00000000000E+00 0. -1.
</event>
<event>
 7    1  0.2969156E-011  0.5052887E+02  0.7816164E-02  0.1300439E+00
        -11   -1    0    0    0    0  0.00000000000E+00  0.00000000000E+00  0.45593999997E+02  0.45594000000E+02  0.51100000000E-03 0.  1.
         11   -1    0    0    0    0 -0.00000000000E+00 -0.00000000000E+00 -0.45593999997E+02  0.45594000000E+02  0.51100000000E-03 0. -1.
    9900012    2    1    2    0    0  0.11136479804E+02  0.33848412330E+02 -0.19581338867E+02  0.50528867797E+02  0.30000024155E+02 0.  0.
         12    1    1    2    0    0 -0.11136479804E+02 -0.33848412330E+02  0.19581338867E+02  0.40659132203E+02  0.00000000000E+00 0. -1.
         11    1    3    3    0    0  0.10610350705E+02  0.18586624376E+02 -0.66854202151E+01  0.22421797240E+02  0.51100000000E-03 0.  1.
        -11    1    3    3    0    0  0.55622471539E+01  0.26379565742E+01  0.32831540875E+01  0.69768552595E+01  0.51100000000E-03 0. -1.
        -12    1    3    3    0    0 -0.50361180552E+01  0.12623831380E+02 -0.16179072739E+02  0.21130215297E+02  0.00000000000E+00 0.  1.
</event>
<event>
 7    1  0.2969156E-011  0.5052888E+02  0.7816164E-02  0.1300439E+00
        -11   -1    0    0    0    0  0.00000000000E+00  0.00000000000E+00  0.45593999997E+02  0.45594000000E+02  0.51100000000E-03 0.  1.
         11   -1    0    0    0    0 -0.00000000000E+00 -0.00000000000E+00 -0.45593999997E+02  0.45594000000E+02  0.51100000000E-03 0. -1.
    9900012    2    1    2    0    0  0.84565915386E+01  0.36681578014E+02  0.15365943181E+02  0.50528876598E+02  0.30000050906E+02 0.  0.
         12    1    1    2    0    0 -0.84565915386E+01 -0.36681578014E+02 -0.15365943181E+02  0.40659123402E+02  0.00000000000E+00 0. -1.
         11    1    3    3    0    0 -0.28670340335E+01  0.24116354695E+01  0.11369302459E+02  0.11970668672E+02  0.51100000000E-03 0. -1.
        -11    1    3    3    0    0 -0.23330860689E+01  0.76731564497E+01 -0.14999543600E+01  0.81590737127E+01  0.51100000000E-03 0.  1.
        -12    1    3    3    0    0  0.13656711641E+02  0.26596786095E+02  0.54965950817E+01  0.30399134213E+02  0.00000000000E+00 0.  1.
</event>
<event>
 7    1  0.2969156E-011  0.5052887E+02  0.7816164E-02  0.1300439E+00
        -11   -1    0    0    0    0  0.00000000000E+00  0.00000000000E+00  0.45593999997E+02  0.45594000000E+02  0.51100000000E-03 0.  1.
         11   -1    0    0    0    0 -0.00000000000E+00 -0.00000000000E+00 -0.45593999997E+02  0.45594000000E+02  0.51100000000E-03 0. -1.
    9900012    2    1    2    0    0  0.16134059647E+02 -0.35704324353E+02  0.10865454147E+02  0.50528871234E+02  0.30000034603E+02 0.  0.
         12    1    1    2    0    0 -0.16134059647E+02  0.35704324353E+02 -0.10865454147E+02  0.40659128766E+02  0.00000000000E+00 0. -1.
         11    1    3    3    0    0  0.39769812462E+01 -0.67392401545E+01 -0.16213738325E+01  0.79914073265E+01  0.51100000000E-03 0. -1.
        -11    1    3    3    0    0  0.26303981442E+01 -0.29331374925E+02  0.14450776737E+02  0.32803559227E+02  0.51100000000E-03 0.  1.
         12    1    3    3    0    0  0.95266802569E+01  0.36629072665E+00 -0.19639487578E+01  0.97339046809E+01  0.00000000000E+00 0. -1.
</event>
<event>
 7    1  0.2969156E-011  0.5052891E+02  0.7816164E-02  0.1300439E+00
        -11   -1    0    0    0    0  0.00000000000E+00  0.00000000000E+00  0.45593999997E+02  0.45594000000E+02  0.51100000000E-03 0. -1.
         11   -1    0    0    0    0 -0.00000000000E+00 -0.00000000000E+00 -0.45593999997E+02  0.45594000000E+02  0.51100000000E-03 0.  1.
    9900012    2    1    2    0    0  0.37298539092E+02  0.12114852564E+02 -0.10733653883E+02  0.50528905117E+02  0.30000137592E+02 0.  0.
         12    1    1    2    0    0 -0.37298539092E+02 -0.12114852564E+02  0.10733653883E+02  0.40659094883E+02  0.00000000000E+00 0. -1.
         11    1    3    3    0    0  0.26434051396E+02  0.20188293458E+01  0.18912672111E+01  0.26578405465E+02  0.51100000000E-03 0. -1.
        -11    1    3    3    0    0  0.12996038843E+02  0.38237140261E+01 -0.99402679290E+01  0.16802581389E+02  0.51100000000E-03 0.  1.
         12    1    3    3    0    0 -0.21315511462E+01  0.62723091916E+01 -0.26846531648E+01  0.71479182634E+01  0.00000000000E+00 0. -1.
</event>
<event>
 7    1  0.2969156E-011  0.5052886E+02  0.7816164E-02  0.1300439E+00
        -11   -1    0    0    0    0  0.00000000000E+00  0.00000000000E+00  0.45593999997E+02  0.45594000000E+02  0.51100000000E-03 0.  1.
         11   -1    0    0    0    0 -0.00000000000E+00 -0.00000000000E+00 -0.45593999997E+02  0.45594000000E+02  0.51100000000E-03 0. -1.
    9900012    2    1    2    0    0 -0.68784160694E+00  0.40414682974E+02  0.43983605769E+01  0.50528864473E+02  0.30000014053E+02 0.  0.
         12    1    1    2    0    0  0.68784160694E+00 -0.40414682974E+02 -0.43983605769E+01  0.40659135527E+02  0.00000000000E+00 0. -1.
         11    1    3    3    0    0  0.56106932125E+01  0.19975491962E+02 -0.34756954503E+01  0.21037600067E+02  0.51100000000E-03 0. -1.
        -11    1    3    3    0    0 -0.12364815911E+02  0.14022806969E+02  0.18176792641E+01  0.18783816066E+02  0.51100000000E-03 0.  1.
         12    1    3    3    0    0  0.60662810919E+01  0.64163840431E+01  0.60563767631E+01  0.10707448341E+02  0.00000000000E+00 0. -1.
</event>
<event>
 7    1  0.2969156E-011  0.5052885E+02  0.7816164E-02  0.1300439E+00
        -11   -1    0    0    0    0  0.00000000000E+00  0.00000000000E+00  0.45593999997E+02  0.45594000000E+02  0.51100000000E-03 0.  1.
         11   -1    0    0    0    0 -0.00000000000E+00 -0.00000000000E+00 -0.45593999997E+02  0.45594000000E+02  0.51100000000E-03 0. -1.
    9900012    2    1    2    0    0 -0.16189965627E+02 -0.26482955783E+02  0.26262234265E+02  0.50528845034E+02  0.29999954965E+02 0.  0.
         12    1    1    2    0    0  0.16189965627E+02  0.26482955783E+02 -0.26262234265E+02  0.40659154966E+02  0.00000000000E+00 0. -1.
         11    1    3    3    0    0 -0.85532562161E+01 -0.16902746983E+02  0.92183189532E+01  0.21067473794E+02  0.51100000000E-03 0.  1.
        -11    1    3    3    0    0 -0.12115384112E+02 -0.47608264467E+01  0.21693336882E+01  0.13196742384E+02  0.51100000000E-03 0. -1.
        -12    1    3    3    0    0  0.44786747013E+01 -0.48193823528E+01  0.14874581624E+02  0.16264628856E+02  0.00000000000E+00 0.  1.
</event>
<event>
 7    1  0.3201105E-011  0.5052887E+02  0.7816164E-02  0.1300439E+00
        -11   -1    0    0    0    0  0.00000000000E+00  0.00000000000E+00  0.45593999997E+02  0.45594000000E+02  0.51100000000E-03 0. -1.
         11   -1    0    0    0    0 -0.00000000000E+00 -0.00000000000E+00 -0.45593999997E+02  0.45594000000E+02  0.51100000000E-03 0.  1.
    9900012    2    1    2    0    0 -0.97100517098E+01 -0.13890002898E+02 -0.36958727769E+02  0.50528870115E+02  0.30000031201E+02 0.  0.
         12    1    1    2    0    0  0.97100517098E+01  0.13890002898E+02  0.36958727769E+02  0.40659129885E+02  0.00000000000E+00 0. -1.
         11    1    3    3    0    0 -0.10173198272E+02 -0.70147426672E+00 -0.91272872184E+01  0.13685517946E+02  0.51100000000E-03 0. -1.
        -11    1    3    3    0    0 -0.47610609470E+00  0.15164941664E+01 -0.20175720350E+02  0.20238234199E+02  0.51100000000E-03 0.  1.
        -12    1    3    3    0    0  0.93925265640E+00 -0.14705022797E+02 -0.76557202007E+01  0.16605117970E+02  0.00000000000E+00 0.  1.
</event>
<event>
 7    1  0.2969156E-011  0.5052887E+02  0.7816164E-02  0.1300439E+00
        -11   -1    0    0    0    0  0.00000000000E+00  0.00000000000E+00  0.45593999997E+02  0.45594000000E+02  0.51100000000E-03 0. -1.
         11   -1    0    0    0    0 -0.00000000000E+00 -0.00000000000E+00 -0.45593999997E+02  0.45594000000E+02  0.51100000000E-03 0.  1.
    9900012    2    1    2    0    0 -0.30693955898E+02 -0.17661126751E+02  0.19978246824E+02  0.50528872206E+02  0.30000037558E+02 0.  0.
         12    1    1    2    0    0  0.30693955898E+02  0.17661126751E+02 -0.19978246824E+02  0.40659127794E+02  0.00000000000E+00 0. -1.
         11    1    3    3    0    0 -0.22822683642E+01 -0.77981219923E+01  0.24262255379E+01  0.84797421019E+01  0.51100000000E-03 0. -1.
        -11    1    3    3    0    0 -0.17745100624E+02 -0.10277869339E+02  0.22361774070E+02  0.30340931662E+02  0.51100000000E-03 0.  1.
        -12    1    3    3    0    0 -0.10666586910E+02  0.41486458048E+00 -0.48097527838E+01  0.11708198442E+02  0.00000000000E+00 0.  1.
</event>
<event>
 7    1  0.2969156E-011  0.5052884E+02  0.7816164E-02  0.1300439E+00
        -11   -1    0    0    0    0  0.00000000000E+00  0.00000000000E+00  0.45593999997E+02  0.45594000000E+02  0.51100000000E-03 0. -1.
         11   -1    0    0    0    0 -0.00000000000E+00 -0.00000000000E+00 -0.45593999997E+02  0.45594000000E+02  0.51100000000E-03 0.  1.
    9900012    2    1    2    0    0 -0.16662993823E+02 -0.36848028949E+02  0.42113041483E+01  0.50528835188E+02  0.29999925037E+02 0.  0.
         12    1    1    2    0    0  0.16662993823E+02  0.36848028949E+02 -0.42113041483E+01  0.40659164812E+02  0.00000000000E+00 0. -1.
         11    1    3    3    0    0  0.57175668331E+01 -0.68570834997E+01  0.32005724472E+01  0.94843992358E+01  0.51100000000E-03 0. -1.
        -11    1    3    3    0    0  0.15586460915E+01 -0.60526550390E+01  0.33829490380E+01  0.71069230412E+01  0.51100000000E-03 0.  1.
         12    1    3    3    0    0 -0.23939206748E+02 -0.23938290410E+02 -0.23722173369E+01  0.33937512911E+02  0.00000000000E+00 0. -1.
</event>
<event>
 7    1  0.2969156E-011  0.5052886E+02  0.7816164E-02  0.1300439E+00
        -11   -1    0    0    0    0  0.00000000000E+00  0.00000000000E+00  0.45593999997E+02  0.45594000000E+02  0.51100000000E-03 0.  1.
         11   -1    0    0    0    0 -0.00000000000E+00 -0.00000000000E+00 -0.45593999997E+02  0.45594000000E+02  0.51100000000E-03 0. -1.
    9900012    2    1    2    0    0  0.33064218883E+02  0.20109985242E+02  0.12470415157E+02  0.50528864114E+02  0.30000012962E+02 0.  0.
         12    1    1    2    0    0 -0.33064218883E+02 -0.20109985242E+02 -0.12470415157E+02  0.40659135886E+02  0.00000000000E+00 0. -1.
         11    1    3    3    0    0  0.14413821811E+02 -0.17791408876E+01  0.99240374546E+00  0.14557076181E+02  0.51100000000E-03 0. -1.
        -11    1    3    3    0    0 -0.19106141909E+01 -0.18585793070E+01  0.11790555583E+01  0.29146073316E+01  0.51100000000E-03 0.  1.
        -12    1    3    3    0    0  0.20561011263E+02  0.23747705437E+02  0.10298955853E+02  0.33057180602E+02  0.00000000000E+00 0.  1.
</event>
<event>
 7    1  0.2969156E-011  0.5052886E+02  0.7816164E-02  0.1300439E+00
        -11   -1    0    0    0    0  0.00000000000E+00  0.00000000000E+00  0.45593999997E+02  0.45594000000E+02  0.51100000000E-03 0. -1.
         11   -1    0    0    0    0 -0.00000000000E+00 -0.00000000000E+00 -0.45593999997E+02  0.45594000000E+02  0.51100000000E-03 0.  1.
    9900012    2    1    2    0    0  0.75966571999E+01  0.24907547330E+02 -0.31226122845E+02  0.50528857578E+02  0.29999993093E+02 0.  0.
         12    1    1    2    0    0 -0.75966571999E+01 -0.24907547330E+02  0.31226122845E+02  0.40659142422E+02  0.00000000000E+00 0. -1.
         11    1    3    3    0    0 -0.33836118642E+01  0.16157031619E+01 -0.12151592988E+01  0.39415654679E+01  0.51100000000E-03 0. -1.
        -11    1    3    3    0    0  0.63646320124E+01  0.26733761208E+01  0.28919028637E+01  0.74845562975E+01  0.51100000000E-03 0.  1.
        -12    1    3    3    0    0  0.46156370517E+01  0.20618468047E+02 -0.32902866410E+02  0.39102735812E+02  0.00000000000E+00 0.  1.
</event>
<event>
 7    1  0.2969156E-011  0.5052886E+02  0.7816164E-02  0.1300439E+00
        -11   -1    0    0    0    0  0.00000000000E+00  0.00000000000E+00  0.45593999997E+02  0.45594000000E+02  0.51100000000E-03 0.  1.
         11   -1    0    0    0    0 -0.00000000000E+00 -0.00000000000E+00 -0.45593999997E+02  0.45594000000E+02  0.51100000000E-03 0. -1.
    9900012    2    1    2    0    0  0.19720469007E+02  0.31793423146E+02  0.15920031549E+02  0.50528855178E+02  0.29999985798E+02 0.  0.
         12    1    1    2    0    0 -0.19720469007E+02 -0.31793423146E+02 -0.15920031549E+02  0.40659144822E+02  0.00000000000E+00 0. -1.
         11    1    3    3    0    0 -0.31269073430E+01  0.65660869919E+01  0.37726658549E+01  0.81929271833E+01  0.51100000000E-03 0. -1.
        -11    1    3    3    0    0  0.43784004343E+01  0.16603487045E+02  0.13595052838E+02  0.21901407131E+02  0.51100000000E-03 0.  1.
        -12    1    3    3    0    0  0.18468975916E+02  0.86238491092E+01 -0.14476871438E+01  0.20434520863E+02  0.00000000000E+00 0.  1.
</event>
<event>
 7    1  0.2969156E-011  0.5052886E+02  0.7816164E-02  0.1300439E+00
        -11   -1    0    0    0    0  0.00000000000E+00  0.00000000000E+00  0.45593999997E+02  0.45594000000E+02  0.51100000000E-03 0.  1.
         11   -1    0    0    0    0 -0.00000000000E+00 -0.00000000000E+00 -0.45593999997E+02  0.45594000000E+02  0.51100000000E-03 0. -1.
    9900012    2    1    2    0    0 -0.32803336570E+02  0.19196602425E+02 -0.14442889959E+02  0.50528861973E+02  0.30000006453E+02 0.  0.
         12    1    1    2    0    0  0.32803336570E+02 -0.19196602425E+02  0.14442889959E+02  0.40659138027E+02  0.00000000000E+00 0. -1.
         11    1    3    3    0    0  0.28742913782E+01  0.10023009425E+01  0.39736113099E+01  0.50055714169E+01  0.51100000000E-03 0. -1.
        -11    1    3    3    0    0 -0.10524232351E+02  0.82459408328E+01 -0.11200937776E+01  0.13416766269E+02  0.51100000000E-03 0.  1.
        -12    1    3    3    0    0 -0.25153395597E+02  0.99483606493E+01 -0.17296407491E+02  0.32106524287E+02  0.00000000000E+00 0.  1.
</event>
<event>
 7    1  0.2969156E-011  0.5052885E+02  0.7816164E-02  0.1300439E+00
        -11   -1    0    0    0    0  0.00000000000E+00  0.00000000000E+00  0.45593999997E+02  0.45594000000E+02  0.51100000000E-03 0.  1.
         11   -1    0    0    0    0 -0.00000000000E+00 -0.00000000000E+00 -0.45593999997E+02  0.45594000000E+02  0.51100000000E-03 0. -1.
    9900012    2    1    2    0    0 -0.12378282158E+02  0.28023006545E+02  0.26733041548E+02  0.50528852500E+02  0.29999977660E+02 0.  0.
         12    1    1    2    0    0  0.12378282158E+02 -0.28023006545E+02 -0.26733041548E+02  0.40659147500E+02  0.00000000000E+00 0. -1.
         11    1    3    3    0    0  0.18385741227E+01 -0.15171108949E+01 -0.17393894165E+01  0.29508398932E+01  0.51100000000E-03 0. -1.
        -11    1    3    3    0    0  0.29831890496E+01  0.83799252176E+01  0.14313538812E+02  0.16852298275E+02  0.51100000000E-03 0.  1.
        -12    1    3    3    0    0 -0.17200045330E+02  0.21160192222E+02  0.14158892153E+02  0.30725714332E+02  0.00000000000E+00 0.  1.
</event>
<event>
 7    1  0.2969156E-011  0.5052885E+02  0.7816164E-02  0.1300439E+00
        -11   -1    0    0    0    0  0.00000000000E+00  0.00000000000E+00  0.45593999997E+02  0.45594000000E+02  0.51100000000E-03 0.  1.
         11   -1    0    0    0    0 -0.00000000000E+00 -0.00000000000E+00 -0.45593999997E+02  0.45594000000E+02  0.51100000000E-03 0. -1.
    9900012    2    1    2    0    0  0.38567456535E+02 -0.29640903802E-01  0.12873101964E+02  0.50528851751E+02  0.29999975381E+02 0.  0.
         12    1    1    2    0    0 -0.38567456535E+02  0.29640903802E-01 -0.12873101964E+02  0.40659148249E+02  0.00000000000E+00 0. -1.
         11    1    3    3    0    0  0.69962285321E+01 -0.19189173510E+00 -0.77727732950E+01  0.10459447455E+02  0.51100000000E-03 0. -1.
        -11    1    3    3    0    0  0.38936550235E+01 -0.46070789296E+01  0.54859477339E+01  0.81536095385E+01  0.51100000000E-03 0.  1.
        -12    1    3    3    0    0  0.27677572980E+02  0.47693297609E+01  0.15159927525E+02  0.31915794757E+02  0.00000000000E+00 0.  1.
</event>
<event>
 7    1  0.2969156E-011  0.5052892E+02  0.7816164E-02  0.1300439E+00
        -11   -1    0    0    0    0  0.00000000000E+00  0.00000000000E+00  0.45593999997E+02  0.45594000000E+02  0.51100000000E-03 0. -1.
         11   -1    0    0    0    0 -0.00000000000E+00 -0.00000000000E+00 -0.45593999997E+02  0.45594000000E+02  0.51100000000E-03 0.  1.
    9900012    2    1    2    0    0  0.25609776584E+02  0.18405911429E+02 -0.25661688544E+02  0.50528923632E+02  0.30000193870E+02 0.  0.
         12    1    1    2    0    0 -0.25609776584E+02 -0.18405911429E+02  0.25661688544E+02  0.40659076368E+02  0.00000000000E+00 0. -1.
         11    1    3    3    0    0  0.16849039719E+01 -0.94486252663E+00 -0.68272481809E+01  0.70952790342E+01  0.51100000000E-03 0. -1.
        -11    1    3    3    0    0  0.96102244645E+01 -0.36621464598E+01  0.24887350617E+00  0.10287354822E+02  0.51100000000E-03 0.  1.
         12    1    3    3    0    0  0.14314648148E+02  0.23012920416E+02 -0.19083313869E+02  0.33146289775E+02  0.00000000000E+00 0. -1.
</event>
<event>
 7    1  0.2969156E-011  0.5052886E+02  0.7816164E-02  0.1300439E+00
        -11   -1    0    0    0    0  0.00000000000E+00  0.00000000000E+00  0.45593999997E+02  0.45594000000E+02  0.51100000000E-03 0.  1.
         11   -1    0    0    0    0 -0.00000000000E+00 -0.00000000000E+00 -0.45593999997E+02  0.45594000000E+02  0.51100000000E-03 0. -1.
    9900012    2    1    2    0    0 -0.24605656213E+02  0.32092196965E+02 -0.42211452974E+01  0.50528862142E+02  0.30000006968E+02 0.  0.
         12    1    1    2    0    0  0.24605656213E+02 -0.32092196965E+02  0.42211452974E+01  0.40659137858E+02  0.00000000000E+00 0. -1.
         11    1    3    3    0    0  0.22192713722E+01  0.52839154093E+01  0.83231185640E+01  0.10105405997E+02  0.51100000000E-03 0. -1.
        -11    1    3    3    0    0 -0.13244846657E+01  0.33768262220E+01 -0.11359767583E+00  0.36290659482E+01  0.51100000000E-03 0.  1.
         12    1    3    3    0    0 -0.25500442920E+02  0.23431455334E+02 -0.12430666186E+02  0.36794390197E+02  0.00000000000E+00 0. -1.
</event>
<event>
 7    1  0.2969156E-011  0.5052886E+02  0.7816164E-02  0.1300439E+00
        -11   -1    0    0    0    0  0.00000000000E+00  0.00000000000E+00  0.45593999997E+02  0.45594000000E+02  0.51100000000E-03 0.  1.
         11   -1    0    0    0    0 -0.00000000000E+00 -0.00000000000E+00 -0.45593999997E+02  0.45594000000E+02  0.51100000000E-03 0. -1.
    9900012    2    1    2    0    0 -0.15892370258E+00 -0.40254606874E+02  0.57190277809E+01  0.50528856993E+02  0.29999991315E+02 0.  0.
         12    1    1    2    0    0  0.15892370258E+00  0.40254606874E+02 -0.57190277809E+01  0.40659143007E+02  0.00000000000E+00 0. -1.
         11    1    3    3    0    0  0.40618078628E+01 -0.73205764872E+01 -0.32311312987E+01  0.89738137350E+01  0.51100000000E-03 0. -1.
        -11    1    3    3    0    0 -0.99062365965E+01 -0.27643504037E+02 -0.44155257893E+00  0.29368210839E+02  0.51100000000E-03 0.  1.
         12    1    3    3    0    0  0.56855050311E+01 -0.52905263500E+01  0.93917116586E+01  0.12186832419E+02  0.00000000000E+00 0. -1.
</event>
<event>
 7    1  0.2969156E-011  0.5052886E+02  0.7816164E-02  0.1300439E+00
        -11   -1    0    0    0    0  0.00000000000E+00  0.00000000000E+00  0.45593999997E+02  0.45594000000E+02  0.51100000000E-03 0. -1.
         11   -1    0    0    0    0 -0.00000000000E+00 -0.00000000000E+00 -0.45593999997E+02  0.45594000000E+02  0.51100000000E-03 0.  1.
    9900012    2    1    2    0    0  0.36499172357E+02 -0.23432668232E+01 -0.17761904384E+02  0.50528859213E+02  0.29999998065E+02 0.  0.
         12    1    1    2    0    0 -0.36499172357E+02  0.23432668232E+01  0.17761904384E+02  0.40659140787E+02  0.00000000000E+00 0. -1.
         11    1    3    3    0    0  0.60731213538E+01  0.21373027328E+01  0.37307162308E+01  0.74410422526E+01  0.51100000000E-03 0. -1.
        -11    1    3    3    0    0  0.19282177221E+02 -0.84646257510E+01 -0.31990654932E+01  0.21299912389E+02  0.51100000000E-03 0.  1.
        -12    1    3    3    0    0  0.11143873782E+02  0.39840561951E+01 -0.18293555121E+02  0.21787904571E+02  0.00000000000E+00 0.  1.
</event>
<event>
 7    1  0.2969156E-011  0.5052887E+02  0.7816164E-02  0.1300439E+00
        -11   -1    0    0    0    0  0.00000000000E+00  0.00000000000E+00  0.45593999997E+02  0.45594000000E+02  0.51100000000E-03 0. -1.
         11   -1    0    0    0    0 -0.00000000000E+00 -0.00000000000E+00 -0.45593999997E+02  0.45594000000E+02  0.51100000000E-03 0.  1.
    9900012    2    1    2    0    0 -0.28000616384E+02  0.14287392011E-01 -0.29481017789E+02  0.50528866562E+02  0.30000020403E+02 0.  0.
         12    1    1    2    0    0  0.28000616384E+02 -0.14287392011E-01  0.29481017789E+02  0.40659133438E+02  0.00000000000E+00 0. -1.
         11    1    3    3    0    0 -0.14606724262E+02  0.46079445876E+01 -0.43890778178E+01  0.15932782285E+02  0.51100000000E-03 0. -1.
        -11    1    3    3    0    0  0.41539652614E+00  0.30835361433E+01  0.16601900235E+01  0.35266103550E+01  0.51100000000E-03 0.  1.
        -12    1    3    3    0    0 -0.13809288648E+02 -0.76771933389E+01 -0.26752129995E+02  0.31069473922E+02  0.00000000000E+00 0.  1.
</event>
<event>
 7    1  0.2969156E-011  0.5052886E+02  0.7816164E-02  0.1300439E+00
        -11   -1    0    0    0    0  0.00000000000E+00  0.00000000000E+00  0.45593999997E+02  0.45594000000E+02  0.51100000000E-03 0.  1.
         11   -1    0    0    0    0 -0.00000000000E+00 -0.00000000000E+00 -0.45593999997E+02  0.45594000000E+02  0.51100000000E-03 0. -1.
    9900012    2    1    2    0    0  0.14135289355E+02  0.37488191429E+02 -0.69278227931E+01  0.50528860432E+02  0.30000001769E+02 0.  0.
         12    1    1    2    0    0 -0.14135289355E+02 -0.37488191429E+02  0.69278227931E+01  0.40659139568E+02  0.00000000000E+00 0. -1.
         11    1    3    3    0    0  0.41441659680E+01  0.84229858536E+01  0.42446361524E+01  0.10302317146E+02  0.51100000000E-03 0. -1.
        -11    1    3    3    0    0  0.17202936027E+02  0.16438346132E+02 -0.93758526742E+01  0.25574730598E+02  0.51100000000E-03 0.  1.
         12    1    3    3    0    0 -0.72118126402E+01  0.12626859443E+02 -0.17966062713E+01  0.14651812688E+02  0.00000000000E+00 0. -1.
</event>
<event>
 7    1  0.3011491E-011  0.5052886E+02  0.7816164E-02  0.1300439E+00
        -11   -1    0    0    0    0  0.00000000000E+00  0.00000000000E+00  0.45593999997E+02  0.45594000000E+02  0.51100000000E-03 0.  1.
         11   -1    0    0    0    0 -0.00000000000E+00 -0.00000000000E+00 -0.45593999997E+02  0.45594000000E+02  0.51100000000E-03 0. -1.
    9900012    2    1    2    0    0  0.26834938779E+02  0.29613412030E+02 -0.74898257925E+01  0.50528860784E+02  0.30000002840E+02 0.  0.
         12    1    1    2    0    0 -0.26834938779E+02 -0.29613412030E+02  0.74898257925E+01  0.40659139216E+02  0.00000000000E+00 0. -1.
         11    1    3    3    0    0  0.74401991187E+01 -0.10611220109E+01  0.47717026867E+01  0.89023418064E+01  0.51100000000E-03 0. -1.
        -11    1    3    3    0    0 -0.26821191702E+01  0.65278868034E+01 -0.24170436575E+01  0.74598371071E+01  0.51100000000E-03 0.  1.
        -12    1    3    3    0    0  0.22076858831E+02  0.24146647238E+02 -0.98444848217E+01  0.34166681871E+02  0.00000000000E+00 0.  1.
</event>
<event>
 7    1  0.2969156E-011  0.5052886E+02  0.7816164E-02  0.1300439E+00
        -11   -1    0    0    0    0  0.00000000000E+00  0.00000000000E+00  0.45593999997E+02  0.45594000000E+02  0.51100000000E-03 0.  1.
         11   -1    0    0    0    0 -0.00000000000E+00 -0.00000000000E+00 -0.45593999997E+02  0.45594000000E+02  0.51100000000E-03 0. -1.
    9900012    2    1    2    0    0 -0.25794043169E+01  0.40560689316E+02  0.11589343329E+01  0.50528856216E+02  0.29999988955E+02 0.  0.
         12    1    1    2    0    0  0.25794043169E+01 -0.40560689316E+02 -0.11589343329E+01  0.40659143784E+02  0.00000000000E+00 0. -1.
         11    1    3    3    0    0 -0.67180242556E+01  0.53794082174E+01  0.16506826147E+01  0.87632548761E+01  0.51100000000E-03 0. -1.
        -11    1    3    3    0    0 -0.31364387159E+01  0.10195579990E+02  0.91096426268E+01  0.14027568863E+02  0.51100000000E-03 0.  1.
        -12    1    3    3    0    0  0.72750586546E+01  0.24985701109E+02 -0.96013909086E+01  0.27738032477E+02  0.00000000000E+00 0.  1.
</event>
<event>
 7    1  0.2969156E-011  0.5052884E+02  0.7816164E-02  0.1300439E+00
        -11   -1    0    0    0    0  0.00000000000E+00  0.00000000000E+00  0.45593999997E+02  0.45594000000E+02  0.51100000000E-03 0. -1.
         11   -1    0    0    0    0 -0.00000000000E+00 -0.00000000000E+00 -0.45593999997E+02  0.45594000000E+02  0.51100000000E-03 0.  1.
    9900012    2    1    2    0    0 -0.35869584169E+02  0.16541586715E+02 -0.96393052845E+01  0.50528839090E+02  0.29999936899E+02 0.  0.
         12    1    1    2    0    0  0.35869584169E+02 -0.16541586715E+02  0.96393052845E+01  0.40659160910E+02  0.00000000000E+00 0. -1.
         11    1    3    3    0    0 -0.69722302921E+01 -0.24402925671E+00 -0.49761079992E+01  0.85693171609E+01  0.51100000000E-03 0. -1.
        -11    1    3    3    0    0 -0.20951144143E+02  0.19718991147E+02 -0.11589504069E+02  0.31017828060E+02  0.51100000000E-03 0.  1.
         12    1    3    3    0    0 -0.79462097339E+01 -0.29333751752E+01  0.69263067840E+01  0.10941693869E+02  0.00000000000E+00 0. -1.
</event>
<event>
 7    1  0.2969156E-011  0.5052888E+02  0.7816164E-02  0.1300439E+00
        -11   -1    0    0    0    0  0.00000000000E+00  0.00000000000E+00  0.45593999997E+02  0.45594000000E+02  0.51100000000E-03 0.  1.
         11   -1    0    0    0    0 -0.00000000000E+00 -0.00000000000E+00 -0.45593999997E+02  0.45594000000E+02  0.51100000000E-03 0. -1.
    9900012    2    1    2    0    0 -0.28169633093E+01 -0.69139207392E+01  0.39967815153E+02  0.50528882568E+02  0.30000069053E+02 0.  0.
         12    1    1    2    0    0  0.28169633093E+01  0.69139207392E+01 -0.39967815153E+02  0.40659117432E+02  0.00000000000E+00 0. -1.
         11    1    3    3    0    0  0.32125774799E+01 -0.34420381528E+01 -0.21451009785E+01  0.51739481229E+01  0.51100000000E-03 0. -1.
        -11    1    3    3    0    0  0.92939121237E-01 -0.85880274580E+01  0.17747107129E+02  0.19716050949E+02  0.51100000000E-03 0.  1.
         12    1    3    3    0    0 -0.61224799104E+01  0.51161448717E+01  0.24365809002E+02  0.25638883496E+02  0.00000000000E+00 0. -1.
</event>
<event>
 7    1  0.2969156E-011  0.5052884E+02  0.7816164E-02  0.1300439E+00
        -11   -1    0    0    0    0  0.00000000000E+00  0.00000000000E+00  0.45593999997E+02  0.45594000000E+02  0.51100000000E-03 0. -1.
         11   -1    0    0    0    0 -0.00000000000E+00 -0.00000000000E+00 -0.45593999997E+02  0.45594000000E+02  0.51100000000E-03 0.  1.
    9900012    2    1    2    0    0 -0.31354975527E+02  0.25623919355E+02 -0.36670898663E+01  0.50528840128E+02  0.29999940053E+02 0.  0.
         12    1    1    2    0    0  0.31354975527E+02 -0.25623919355E+02  0.36670898663E+01  0.40659159872E+02  0.00000000000E+00 0. -1.
         11    1    3    3    0    0 -0.20611741490E+02  0.80088226257E+01  0.10718426454E+02  0.24573762288E+02  0.51100000000E-03 0. -1.
        -11    1    3    3    0    0 -0.53661682279E+00  0.37922838363E+01 -0.52387041473E+01  0.64894834705E+01  0.51100000000E-03 0.  1.
        -12    1    3    3    0    0 -0.10206617215E+02  0.13822812893E+02 -0.91468121725E+01  0.19465594370E+02  0.00000000000E+00 0.  1.
</event>
<event>
 7    1  0.2969156E-011  0.5052887E+02  0.7816164E-02  0.1300439E+00
        -11   -1    0    0    0    0  0.00000000000E+00  0.00000000000E+00  0.45593999997E+02  0.45594000000E+02  0.51100000000E-03 0.  1.
         11   -1    0    0    0    0 -0.00000000000E+00 -0.00000000000E+00 -0.45593999997E+02  0.45594000000E+02  0.51100000000E-03 0. -1.
    9900012    2    1    2    0    0 -0.13662726633E+02 -0.38245495250E+01  0.38103381435E+02  0.50528868739E+02  0.30000027019E+02 0.  0.
         12    1    1    2    0    0  0.13662726633E+02  0.38245495250E+01 -0.38103381435E+02  0.40659131261E+02  0.00000000000E+00 0. -1.
         11    1    3    3    0    0  0.13034053525E+01  0.33475233022E+01  0.12178281888E+02  0.12697059808E+02  0.51100000000E-03 0. -1.
        -11    1    3    3    0    0 -0.54960037095E+01 -0.12226715879E+02  0.23138863427E+02  0.26741459177E+02  0.51100000000E-03 0.  1.
        -12    1    3    3    0    0 -0.94701282756E+01  0.50546430522E+01  0.27862361204E+01  0.11090349754E+02  0.00000000000E+00 0.  1.
</event>
<event>
 7    1  0.2969156E-011  0.5052884E+02  0.7816164E-02  0.1300439E+00
        -11   -1    0    0    0    0  0.00000000000E+00  0.00000000000E+00  0.45593999997E+02  0.45594000000E+02  0.51100000000E-03 0.  1.
         11   -1    0    0    0    0 -0.00000000000E+00 -0.00000000000E+00 -0.45593999997E+02  0.45594000000E+02  0.51100000000E-03 0. -1.
    9900012    2    1    2    0    0  0.18606935784E+02  0.34364460094E+02  0.11226455352E+02  0.50528837729E+02  0.29999932760E+02 0.  0.
         12    1    1    2    0    0 -0.18606935784E+02 -0.34364460094E+02 -0.11226455352E+02  0.40659162271E+02  0.00000000000E+00 0. -1.
         11    1    3    3    0    0 -0.11245997304E+01  0.40831193984E+01 -0.48900363846E+01  0.64690837588E+01  0.51100000000E-03 0. -1.
        -11    1    3    3    0    0  0.12030298203E+02  0.86252403268E+01 -0.18071046068E+01  0.14912695024E+02  0.51100000000E-03 0.  1.
        -12    1    3    3    0    0  0.77012373114E+01  0.21656100369E+02  0.17923596343E+02  0.29147058946E+02  0.00000000000E+00 0.  1.
</event>
<event>
 7    1  0.2969156E-011  0.5052885E+02  0.7816164E-02  0.1300439E+00
        -11   -1    0    0    0    0  0.00000000000E+00  0.00000000000E+00  0.45593999997E+02  0.45594000000E+02  0.51100000000E-03 0.  1.
         11   -1    0    0    0    0 -0.00000000000E+00 -0.00000000000E+00 -0.45593999997E+02  0.45594000000E+02  0.51100000000E-03 0. -1.
    9900012    2    1    2    0    0 -0.32242389333E+02  0.22222736623E+02 -0.10942799894E+02  0.50528848971E+02  0.29999966932E+02 0.  0.
         12    1    1    2    0    0  0.32242389333E+02 -0.22222736623E+02  0.10942799894E+02  0.40659151029E+02  0.00000000000E+00 0. -1.
         11    1    3    3    0    0  0.21897386251E+01  0.26917906505E+00  0.85953741336E+00  0.23677452231E+01  0.51100000000E-03 0. -1.
        -11    1    3    3    0    0 -0.17319452203E+02  0.15960915655E+02  0.42642358158E+01  0.23935286932E+02  0.51100000000E-03 0.  1.
         12    1    3    3    0    0 -0.17112675755E+02  0.59926419024E+01 -0.16066573123E+02  0.24225816815E+02  0.00000000000E+00 0. -1.
</event>
<event>
 7    1  0.2969156E-011  0.5052886E+02  0.7816164E-02  0.1300439E+00
        -11   -1    0    0    0    0  0.00000000000E+00  0.00000000000E+00  0.45593999997E+02  0.45594000000E+02  0.51100000000E-03 0.  1.
         11   -1    0    0    0    0 -0.00000000000E+00 -0.00000000000E+00 -0.45593999997E+02  0.45594000000E+02  0.51100000000E-03 0. -1.
    9900012    2    1    2    0    0  0.37640726967E+02  0.82951433345E+01  0.12943418142E+02  0.50528858313E+02  0.29999995328E+02 0.  0.
         12    1    1    2    0    0 -0.37640726967E+02 -0.82951433345E+01 -0.12943418142E+02  0.40659141687E+02  0.00000000000E+00 0. -1.
         11    1    3    3    0    0  0.29103526409E+01 -0.63174699175E+00  0.54016372147E+01  0.61682202957E+01  0.51100000000E-03 0. -1.
        -11    1    3    3    0    0  0.34170715777E+02  0.13020086078E+02  0.11803639872E+02  0.38425074791E+02  0.51100000000E-03 0.  1.
        -12    1    3    3    0    0  0.55965854875E+00 -0.40931957521E+01 -0.42618589437E+01  0.59355632262E+01  0.00000000000E+00 0.  1.
</event>
<event>
 7    1  0.2969156E-011  0.5052891E+02  0.7816164E-02  0.1300439E+00
        -11   -1    0    0    0    0  0.00000000000E+00  0.00000000000E+00  0.45593999997E+02  0.45594000000E+02  0.51100000000E-03 0. -1.
         11   -1    0    0    0    0 -0.00000000000E+00 -0.00000000000E+00 -0.45593999997E+02  0.45594000000E+02  0.51100000000E-03 0.  1.
    9900012    2    1    2    0    0 -0.34329883381E+02  0.15838155847E+02 -0.14959058471E+02  0.50528911177E+02  0.30000156013E+02 0.  0.
         12    1    1    2    0    0  0.34329883381E+02 -0.15838155847E+02  0.14959058471E+02  0.40659088823E+02  0.00000000000E+00 0. -1.
         11    1    3    3    0    0 -0.20125289209E+01  0.89120281637E+01  0.82723140760E-01  0.91368135599E+01  0.51100000000E-03 0. -1.
        -11    1    3    3    0    0 -0.21419287488E+01  0.23516707174E+01 -0.99550730349E+01  0.10450918300E+02  0.51100000000E-03 0.  1.
        -12    1    3    3    0    0 -0.30175425711E+02  0.45744569663E+01 -0.50867085769E+01  0.30941179317E+02  0.00000000000E+00 0.  1.
</event>
<event>
 7    1  0.2969156E-011  0.5052882E+02  0.7816164E-02  0.1300439E+00
        -11   -1    0    0    0    0  0.00000000000E+00  0.00000000000E+00  0.45593999997E+02  0.45594000000E+02  0.51100000000E-03 0.  1.
         11   -1    0    0    0    0 -0.00000000000E+00 -0.00000000000E+00 -0.45593999997E+02  0.45594000000E+02  0.51100000000E-03 0. -1.
    9900012    2    1    2    0    0  0.14078299101E+02 -0.19652641744E+02  0.32691650420E+02  0.50528820959E+02  0.29999881787E+02 0.  0.
         12    1    1    2    0    0 -0.14078299101E+02  0.19652641744E+02 -0.32691650420E+02  0.40659179041E+02  0.00000000000E+00 0. -1.
         11    1    3    3    0    0 -0.68255034127E+01 -0.30111081795E+01 -0.11327767501E+00  0.74610388953E+01  0.51100000000E-03 0. -1.
        -11    1    3    3    0    0  0.13436667901E+02 -0.83966757917E+01  0.13632025465E+02  0.20901682401E+02  0.51100000000E-03 0.  1.
        -12    1    3    3    0    0  0.74671346128E+01 -0.82448577728E+01  0.19172902630E+02  0.22166099663E+02  0.00000000000E+00 0.  1.
</event>
<event>
 7    1  0.2969156E-011  0.5052886E+02  0.7816164E-02  0.1300439E+00
        -11   -1    0    0    0    0  0.00000000000E+00  0.00000000000E+00  0.45593999997E+02  0.45594000000E+02  0.51100000000E-03 0.  1.
         11   -1    0    0    0    0 -0.00000000000E+00 -0.00000000000E+00 -0.45593999997E+02  0.45594000000E+02  0.51100000000E-03 0. -1.
    9900012    2    1    2    0    0 -0.12907895062E+02 -0.12726531203E+02 -0.36394877869E+02  0.50528862202E+02  0.30000007150E+02 0.  0.
         12    1    1    2    0    0  0.12907895062E+02  0.12726531203E+02  0.36394877869E+02  0.40659137798E+02  0.00000000000E+00 0. -1.
         11    1    3    3    0    0  0.38190057723E+01  0.16302541538E+01 -0.60823070029E+01  0.73645768672E+01  0.51100000000E-03 0. -1.
        -11    1    3    3    0    0 -0.47501860036E+01  0.35417706057E+01  0.67005687787E-01  0.59256135645E+01  0.51100000000E-03 0.  1.
         12    1    3    3    0    0 -0.11976714831E+02 -0.17898555962E+02 -0.30379576554E+02  0.37238671771E+02  0.00000000000E+00 0. -1.
</event>
<event>
 7    1  0.2969156E-011  0.5052887E+02  0.7816164E-02  0.1300439E+00
        -11   -1    0    0    0    0  0.00000000000E+00  0.00000000000E+00  0.45593999997E+02  0.45594000000E+02  0.51100000000E-03 0.  1.
         11   -1    0    0    0    0 -0.00000000000E+00 -0.00000000000E+00 -0.45593999997E+02  0.45594000000E+02  0.51100000000E-03 0. -1.
    9900012    2    1    2    0    0  0.10095828576E+01 -0.40141345660E+02  0.63889253641E+01  0.50528865033E+02  0.30000015755E+02 0.  0.
         12    1    1    2    0    0 -0.10095828576E+01  0.40141345660E+02 -0.63889253641E+01  0.40659134967E+02  0.00000000000E+00 0. -1.
         11    1    3    3    0    0 -0.22968039642E+01  0.38725343006E+01  0.15471836375E+01  0.47608410841E+01  0.51100000000E-03 0. -1.
        -11    1    3    3    0    0  0.89660811382E+00 -0.58594964195E+01 -0.31478670957E+01  0.67116817500E+01  0.51100000000E-03 0.  1.
         12    1    3    3    0    0  0.24097787079E+01 -0.38154383541E+02  0.79896088223E+01  0.39056342199E+02  0.00000000000E+00 0. -1.
</event>
<event>
 7    1  0.2969156E-011  0.5052886E+02  0.7816164E-02  0.1300439E+00
        -11   -1    0    0    0    0  0.00000000000E+00  0.00000000000E+00  0.45593999997E+02  0.45594000000E+02  0.51100000000E-03 0.  1.
         11   -1    0    0    0    0 -0.00000000000E+00 -0.00000000000E+00 -0.45593999997E+02  0.45594000000E+02  0.51100000000E-03 0. -1.
    9900012    2    1    2    0    0 -0.33869061348E+01  0.29072198723E+02  0.28222363563E+02  0.50528859861E+02  0.30000000035E+02 0.  0.
         12    1    1    2    0    0  0.33869061348E+01 -0.29072198723E+02 -0.28222363563E+02  0.40659140139E+02  0.00000000000E+00 0. -1.
         11    1    3    3    0    0  0.29471688880E+01  0.78521550223E+01 -0.12033234253E+01  0.84729056690E+01  0.51100000000E-03 0. -1.
        -11    1    3    3    0    0  0.51866372057E+01 -0.21474774580E+00  0.85079271910E+01  0.99665514320E+01  0.51100000000E-03 0.  1.
        -12    1    3    3    0    0 -0.11520712229E+02  0.21434791446E+02  0.20917759797E+02  0.32089402760E+02  0.00000000000E+00 0.  1.
</event>
<event>
 7    1  0.2969156E-011  0.5052887E+02  0.7816164E-02  0.1300439E+00
        -11   -1    0    0    0    0  0.00000000000E+00  0.00000000000E+00  0.45593999997E+02  0.45594000000E+02  0.51100000000E-03 0.  1.
         11   -1    0    0    0    0 -0.00000000000E+00 -0.00000000000E+00 -0.45593999997E+02  0.45594000000E+02  0.51100000000E-03 0. -1.
    9900012    2    1    2    0    0 -0.31059712675E+02  0.19225616742E+02  0.17855943332E+02  0.50528870609E+02  0.30000032703E+02 0.  0.
         12    1    1    2    0    0  0.31059712675E+02 -0.19225616742E+02 -0.17855943332E+02  0.40659129391E+02  0.00000000000E+00 0. -1.
         11    1    3    3    0    0 -0.17325305114E+01  0.85952771856E+01 -0.39786201956E+00  0.87771718861E+01  0.51100000000E-03 0. -1.
        -11    1    3    3    0    0 -0.10158176421E+01  0.38562410118E+01 -0.35831601465E+01  0.53611115563E+01  0.51100000000E-03 0.  1.
        -12    1    3    3    0    0 -0.28311364521E+02  0.67740985450E+01  0.21836965498E+02  0.36390587166E+02  0.00000000000E+00 0.  1.
</event>
<event>
 7    1  0.2969156E-011  0.5052886E+02  0.7816164E-02  0.1300439E+00
        -11   -1    0    0    0    0  0.00000000000E+00  0.00000000000E+00  0.45593999997E+02  0.45594000000E+02  0.51100000000E-03 0.  1.
         11   -1    0    0    0    0 -0.00000000000E+00 -0.00000000000E+00 -0.45593999997E+02  0.45594000000E+02  0.51100000000E-03 0. -1.
    9900012    2    1    2    0    0  0.24633927004E+02  0.12205748111E+02  0.29955886201E+02  0.50528858781E+02  0.29999996752E+02 0.  0.
         12    1    1    2    0    0 -0.24633927004E+02 -0.12205748111E+02 -0.29955886201E+02  0.40659141219E+02  0.00000000000E+00 0. -1.
         11    1    3    3    0    0  0.92627862213E+01  0.14820857183E+02  0.22671810753E+01  0.17623765957E+02  0.51100000000E-03 0. -1.
        -11    1    3    3    0    0  0.11137553803E+02 -0.10304903146E+00  0.11606074347E+02  0.16085915760E+02  0.51100000000E-03 0.  1.
        -12    1    3    3    0    0  0.42335869795E+01 -0.25120600412E+01  0.16082630778E+02  0.16819177064E+02  0.00000000000E+00 0.  1.
</event>
<event>
 7    1  0.2969156E-011  0.5052885E+02  0.7816164E-02  0.1300439E+00
        -11   -1    0    0    0    0  0.00000000000E+00  0.00000000000E+00  0.45593999997E+02  0.45594000000E+02  0.51100000000E-03 0.  1.
         11   -1    0    0    0    0 -0.00000000000E+00 -0.00000000000E+00 -0.45593999997E+02  0.45594000000E+02  0.51100000000E-03 0. -1.
    9900012    2    1    2    0    0 -0.31440918751E+02  0.69267473470E+01  0.24832540153E+02  0.50528852798E+02  0.29999978566E+02 0.  0.
         12    1    1    2    0    0  0.31440918751E+02 -0.69267473470E+01 -0.24832540153E+02  0.40659147202E+02  0.00000000000E+00 0. -1.
         11    1    3    3    0    0 -0.13350442933E+02 -0.12591341117E+01  0.37799238386E+01  0.13932249269E+02  0.51100000000E-03 0. -1.
        -11    1    3    3    0    0 -0.11312121084E+02  0.11887077414E+02  0.26275103053E+01  0.16618378486E+02  0.51100000000E-03 0.  1.
         12    1    3    3    0    0 -0.67783547343E+01 -0.37011959550E+01  0.18425106009E+02  0.19978225043E+02  0.00000000000E+00 0. -1.
</event>
<event>
 7    1  0.2969156E-011  0.5052886E+02  0.7816164E-02  0.1300439E+00
        -11   -1    0    0    0    0  0.00000000000E+00  0.00000000000E+00  0.45593999997E+02  0.45594000000E+02  0.51100000000E-03 0.  1.
         11   -1    0    0    0    0 -0.00000000000E+00 -0.00000000000E+00 -0.45593999997E+02  0.45594000000E+02  0.51100000000E-03 0. -1.
    9900012    2    1    2    0    0  0.30265141375E+02  0.69331903993E+01  0.26251059119E+02  0.50528855685E+02  0.29999987340E+02 0.  0.
         12    1    1    2    0    0 -0.30265141375E+02 -0.69331903993E+01 -0.26251059119E+02  0.40659144315E+02  0.00000000000E+00 0. -1.
         11    1    3    3    0    0  0.12815132376E+02 -0.30254518877E+01 -0.21924808778E+00  0.13169246255E+02  0.51100000000E-03 0. -1.
        -11    1    3    3    0    0  0.18249174196E+02  0.80109883262E+01  0.13157889326E+02  0.23881757569E+02  0.51100000000E-03 0.  1.
         12    1    3    3    0    0 -0.79916519663E+00  0.19476539608E+01  0.13312417881E+02  0.13477851861E+02  0.00000000000E+00 0. -1.
</event>
<event>
 7    1  0.2969156E-011  0.5052884E+02  0.7816164E-02  0.1300439E+00
        -11   -1    0    0    0    0  0.00000000000E+00  0.00000000000E+00  0.45593999997E+02  0.45594000000E+02  0.51100000000E-03 0.  1.
         11   -1    0    0    0    0 -0.00000000000E+00 -0.00000000000E+00 -0.45593999997E+02  0.45594000000E+02  0.51100000000E-03 0. -1.
    9900012    2    1    2    0    0  0.17138153672E+01 -0.22664046807E+02  0.33713073265E+02  0.50528837567E+02  0.29999932269E+02 0.  0.
         12    1    1    2    0    0 -0.17138153672E+01  0.22664046807E+02 -0.33713073265E+02  0.40659162433E+02  0.00000000000E+00 0. -1.
         11    1    3    3    0    0  0.70589386261E+01 -0.11482196825E+02  0.30305707885E+02  0.33167836666E+02  0.51100000000E-03 0.  1.
        -11    1    3    3    0    0  0.30179958785E+01 -0.36923542938E+01 -0.16523501702E+01  0.50469833267E+01  0.51100000000E-03 0. -1.
        -12    1    3    3    0    0 -0.83631191374E+01 -0.74894956881E+01  0.50597155498E+01  0.12314017574E+02  0.00000000000E+00 0.  1.
</event>
<event>
 7    1  0.2969156E-011  0.5052885E+02  0.7816164E-02  0.1300439E+00
        -11   -1    0    0    0    0  0.00000000000E+00  0.00000000000E+00  0.45593999997E+02  0.45594000000E+02  0.51100000000E-03 0.  1.
         11   -1    0    0    0    0 -0.00000000000E+00 -0.00000000000E+00 -0.45593999997E+02  0.45594000000E+02  0.51100000000E-03 0. -1.
    9900012    2    1    2    0    0 -0.92796065130E+01 -0.87540552910E+01  0.38605982982E+02  0.50528849700E+02  0.29999969148E+02 0.  0.
         12    1    1    2    0    0  0.92796065130E+01  0.87540552910E+01 -0.38605982982E+02  0.40659150300E+02  0.00000000000E+00 0. -1.
         11    1    3    3    0    0  0.37917828617E+01 -0.13323163739E+02  0.16682977891E+02  0.21684235307E+02  0.51100000000E-03 0. -1.
        -11    1    3    3    0    0 -0.57646944423E+01  0.13772808913E+01  0.45576015098E+00  0.59444362427E+01  0.51100000000E-03 0.  1.
        -12    1    3    3    0    0 -0.73066949324E+01  0.31918275565E+01  0.21467244940E+02  0.22900178150E+02  0.00000000000E+00 0.  1.
</event>
<event>
 7    1  0.2969156E-011  0.5052886E+02  0.7816164E-02  0.1300439E+00
        -11   -1    0    0    0    0  0.00000000000E+00  0.00000000000E+00  0.45593999997E+02  0.45594000000E+02  0.51100000000E-03 0. -1.
         11   -1    0    0    0    0 -0.00000000000E+00 -0.00000000000E+00 -0.45593999997E+02  0.45594000000E+02  0.51100000000E-03 0.  1.
    9900012    2    1    2    0    0 -0.13891143632E+02 -0.22207256875E+02 -0.31097259320E+02  0.50528859987E+02  0.30000000417E+02 0.  0.
         12    1    1    2    0    0  0.13891143632E+02  0.22207256875E+02  0.31097259320E+02  0.40659140013E+02  0.00000000000E+00 0. -1.
         11    1    3    3    0    0 -0.11043285978E+02 -0.61230489834E+01 -0.17955769799E+01  0.12754214637E+02  0.51100000000E-03 0. -1.
        -11    1    3    3    0    0 -0.83508409657E+01 -0.14292886136E+02 -0.26732482929E+02  0.31442785862E+02  0.51100000000E-03 0.  1.
         12    1    3    3    0    0  0.55029833120E+01 -0.17913217565E+01 -0.25691994111E+01  0.63318594884E+01  0.00000000000E+00 0. -1.
</event>
<event>
 7    1  0.2969156E-011  0.5052886E+02  0.7816164E-02  0.1300439E+00
        -11   -1    0    0    0    0  0.00000000000E+00  0.00000000000E+00  0.45593999997E+02  0.45594000000E+02  0.51100000000E-03 0.  1.
         11   -1    0    0    0    0 -0.00000000000E+00 -0.00000000000E+00 -0.45593999997E+02  0.45594000000E+02  0.51100000000E-03 0. -1.
    9900012    2    1    2    0    0 -0.40052109857E+02 -0.24157009947E+01  0.65695110529E+01  0.50528860919E+02  0.30000003250E+02 0.  0.
         12    1    1    2    0    0  0.40052109857E+02  0.24157009947E+01 -0.65695110529E+01  0.40659139081E+02  0.00000000000E+00 0. -1.
         11    1    3    3    0    0 -0.25684971601E+00  0.40316221347E+01 -0.38380804593E+01  0.55723254290E+01  0.51100000000E-03 0. -1.
        -11    1    3    3    0    0 -0.14669108885E+02  0.47219843232E+01  0.79766617678E+01  0.17352435698E+02  0.51100000000E-03 0.  1.
         12    1    3    3    0    0 -0.25126151256E+02 -0.11169307453E+02  0.24309297444E+01  0.27604099792E+02  0.00000000000E+00 0. -1.
</event>
<event>
 7    1  0.2969156E-011  0.5052885E+02  0.7816164E-02  0.1300439E+00
        -11   -1    0    0    0    0  0.00000000000E+00  0.00000000000E+00  0.45593999997E+02  0.45594000000E+02  0.51100000000E-03 0.  1.
         11   -1    0    0    0    0 -0.00000000000E+00 -0.00000000000E+00 -0.45593999997E+02  0.45594000000E+02  0.51100000000E-03 0. -1.
    9900012    2    1    2    0    0  0.27387991716E+01  0.64287844005E+01  0.40054161296E+02  0.50528854327E+02  0.29999983211E+02 0.  0.
         12    1    1    2    0    0 -0.27387991716E+01 -0.64287844005E+01 -0.40054161296E+02  0.40659145673E+02  0.00000000000E+00 0. -1.
         11    1    3    3    0    0  0.23521780370E+01 -0.70994926052E+01  0.10164541969E+02  0.12619566176E+02  0.51100000000E-03 0. -1.
        -11    1    3    3    0    0  0.91701681762E+01  0.35862600749E+01  0.15253857402E+02  0.18155809307E+02  0.51100000000E-03 0.  1.
         12    1    3    3    0    0 -0.87835470417E+01  0.99420169307E+01  0.14635761926E+02  0.19753478844E+02  0.00000000000E+00 0. -1.
</event>
<event>
 7    1  0.2969156E-011  0.5052887E+02  0.7816164E-02  0.1300439E+00
        -11   -1    0    0    0    0  0.00000000000E+00  0.00000000000E+00  0.45593999997E+02  0.45594000000E+02  0.51100000000E-03 0. -1.
         11   -1    0    0    0    0 -0.00000000000E+00 -0.00000000000E+00 -0.45593999997E+02  0.45594000000E+02  0.51100000000E-03 0.  1.
    9900012    2    1    2    0    0  0.21756741244E+02 -0.17289362502E+02 -0.29679739822E+02  0.50528870629E+02  0.30000032765E+02 0.  0.
         12    1    1    2    0    0 -0.21756741244E+02  0.17289362502E+02  0.29679739822E+02  0.40659129371E+02  0.00000000000E+00 0. -1.
         11    1    3    3    0    0  0.75605024373E+01 -0.12139031197E+02 -0.15034505722E+01  0.14379764928E+02  0.51100000000E-03 0. -1.
        -11    1    3    3    0    0 -0.10544520165E+01 -0.69165077465E+01 -0.11670921621E+02  0.13607364190E+02  0.51100000000E-03 0.  1.
         12    1    3    3    0    0  0.15250690823E+02  0.17661764409E+01 -0.16505367629E+02  0.22541741511E+02  0.00000000000E+00 0. -1.
</event>
<event>
 7    1  0.2969156E-011  0.5052886E+02  0.7816164E-02  0.1300439E+00
        -11   -1    0    0    0    0  0.00000000000E+00  0.00000000000E+00  0.45593999997E+02  0.45594000000E+02  0.51100000000E-03 0. -1.
         11   -1    0    0    0    0 -0.00000000000E+00 -0.00000000000E+00 -0.45593999997E+02  0.45594000000E+02  0.51100000000E-03 0.  1.
    9900012    2    1    2    0    0  0.28514053731E+02 -0.31598324276E+01 -0.28811977402E+02  0.50528857818E+02  0.29999993823E+02 0.  0.
         12    1    1    2    0    0 -0.28514053731E+02  0.31598324276E+01  0.28811977402E+02  0.40659142182E+02  0.00000000000E+00 0. -1.
         11    1    3    3    0    0  0.41045567181E+01 -0.44786016803E+01 -0.27656024993E+00  0.60812617684E+01  0.51100000000E-03 0. -1.
        -11    1    3    3    0    0  0.64448432334E+01 -0.10680509658E+02 -0.10531721675E+02  0.16325637891E+02  0.51100000000E-03 0.  1.
        -12    1    3    3    0    0  0.17964653780E+02  0.11999278911E+02 -0.18003695477E+02  0.28121958158E+02  0.00000000000E+00 0.  1.
</event>
<event>
 7    1  0.2969156E-011  0.5052886E+02  0.7816164E-02  0.1300439E+00
        -11   -1    0    0    0    0  0.00000000000E+00  0.00000000000E+00  0.45593999997E+02  0.45594000000E+02  0.51100000000E-03 0.  1.
         11   -1    0    0    0    0 -0.00000000000E+00 -0.00000000000E+00 -0.45593999997E+02  0.45594000000E+02  0.51100000000E-03 0. -1.
    9900012    2    1    2    0    0  0.35747939022E+02  0.10841788230E+02 -0.16053226965E+02  0.50528860655E+02  0.30000002446E+02 0.  0.
         12    1    1    2    0    0 -0.35747939022E+02 -0.10841788230E+02  0.16053226965E+02  0.40659139345E+02  0.00000000000E+00 0. -1.
         11    1    3    3    0    0  0.25340527928E+02  0.20626032547E+01 -0.22831100403E+01  0.25526638627E+02  0.51100000000E-03 0.  1.
        -11    1    3    3    0    0  0.72752213617E+01 -0.32765195206E+01 -0.79146758428E+01  0.11238617352E+02  0.51100000000E-03 0. -1.
         12    1    3    3    0    0  0.31321897315E+01  0.12055704496E+02 -0.58554410819E+01  0.13763604675E+02  0.00000000000E+00 0. -1.
</event>
<event>
 7    1  0.2969156E-011  0.5052886E+02  0.7816164E-02  0.1300439E+00
        -11   -1    0    0    0    0  0.00000000000E+00  0.00000000000E+00  0.45593999997E+02  0.45594000000E+02  0.51100000000E-03 0.  1.
         11   -1    0    0    0    0 -0.00000000000E+00 -0.00000000000E+00 -0.45593999997E+02  0.45594000000E+02  0.51100000000E-03 0. -1.
    9900012    2    1    2    0    0 -0.22670930449E+02  0.45415167754E+01  0.33445019486E+02  0.50528858464E+02  0.29999995787E+02 0.  0.
         12    1    1    2    0    0  0.22670930449E+02 -0.45415167754E+01 -0.33445019486E+02  0.40659141536E+02  0.00000000000E+00 0. -1.
         11    1    3    3    0    0 -0.12787006473E+02  0.88331852336E+01  0.88059544745E+01  0.17862741401E+02  0.51100000000E-03 0. -1.
        -11    1    3    3    0    0 -0.43978749926E+01 -0.62660829777E+01  0.32451747721E+00  0.76622719991E+01  0.51100000000E-03 0.  1.
        -12    1    3    3    0    0 -0.54860489833E+01  0.19744145195E+01  0.24314547534E+02  0.25003845063E+02  0.00000000000E+00 0.  1.
</event>
<event>
 7    1  0.2969156E-011  0.5052886E+02  0.7816164E-02  0.1300439E+00
        -11   -1    0    0    0    0  0.00000000000E+00  0.00000000000E+00  0.45593999997E+02  0.45594000000E+02  0.51100000000E-03 0.  1.
         11   -1    0    0    0    0 -0.00000000000E+00 -0.00000000000E+00 -0.45593999997E+02  0.45594000000E+02  0.51100000000E-03 0. -1.
    9900012    2    1    2    0    0  0.37049629579E+02 -0.14718269864E+02  0.79914253664E+01  0.50528863276E+02  0.30000010414E+02 0.  0.
         12    1    1    2    0    0 -0.37049629579E+02  0.14718269864E+02 -0.79914253664E+01  0.40659136724E+02  0.00000000000E+00 0. -1.
         11    1    3    3    0    0  0.21845017971E+02 -0.28937687240E+01  0.17079280130E+02  0.27879751031E+02  0.51100000000E-03 0.  1.
        -11    1    3    3    0    0  0.51372991724E-01 -0.12589753507E+01 -0.29090087752E+01  0.31701719879E+01  0.51100000000E-03 0. -1.
        -12    1    3    3    0    0  0.15153238617E+02 -0.10565525789E+02 -0.61788459879E+01  0.19478940257E+02  0.00000000000E+00 0.  1.
</event>
<event>
 7    1  0.3898104E-011  0.5052885E+02  0.7816164E-02  0.1300439E+00
        -11   -1    0    0    0    0  0.00000000000E+00  0.00000000000E+00  0.45593999997E+02  0.45594000000E+02  0.51100000000E-03 0.  1.
         11   -1    0    0    0    0 -0.00000000000E+00 -0.00000000000E+00 -0.45593999997E+02  0.45594000000E+02  0.51100000000E-03 0. -1.
    9900012    2    1    2    0    0  0.16337308108E+02 -0.28614382639E+02  0.23821758025E+02  0.50528847458E+02  0.29999962333E+02 0.  0.
         12    1    1    2    0    0 -0.16337308108E+02  0.28614382639E+02 -0.23821758025E+02  0.40659152542E+02  0.00000000000E+00 0. -1.
         11    1    3    3    0    0  0.14737060050E+02 -0.12005619841E+02  0.16233725630E+01  0.19077504696E+02  0.51100000000E-03 0.  1.
        -11    1    3    3    0    0 -0.35942716149E+01 -0.37287425338E+00  0.19711492625E+00  0.36189332967E+01  0.51100000000E-03 0. -1.
        -12    1    3    3    0    0  0.51945196736E+01 -0.16235888544E+02  0.22001270536E+02  0.27832409465E+02  0.00000000000E+00 0.  1.
</event>
<event>
 7    1  0.2969156E-011  0.5052875E+02  0.7816164E-02  0.1300439E+00
        -11   -1    0    0    0    0  0.00000000000E+00  0.00000000000E+00  0.45593999997E+02  0.45594000000E+02  0.51100000000E-03 0.  1.
         11   -1    0    0    0    0 -0.00000000000E+00 -0.00000000000E+00 -0.45593999997E+02  0.45594000000E+02  0.51100000000E-03 0. -1.
    9900012    2    1    2    0    0 -0.36789897108E+01 -0.30708933381E+02  0.26393194937E+02  0.50528753897E+02  0.29999677943E+02 0.  0.
         12    1    1    2    0    0  0.36789897108E+01  0.30708933381E+02 -0.26393194937E+02  0.40659246103E+02  0.00000000000E+00 0. -1.
         11    1    3    3    0    0 -0.10992891625E+02 -0.10008104121E+02  0.16696132734E+02  0.22355461590E+02  0.51100000000E-03 0. -1.
        -11    1    3    3    0    0  0.64189628711E+01 -0.15534850189E+02  0.13612652345E+02  0.21629585267E+02  0.51100000000E-03 0.  1.
         12    1    3    3    0    0  0.89493904279E+00 -0.51659790717E+01 -0.39155901418E+01  0.65437070395E+01  0.00000000000E+00 0. -1.
</event>
<event>
 7    1  0.2969156E-011  0.5052887E+02  0.7816164E-02  0.1300439E+00
        -11   -1    0    0    0    0  0.00000000000E+00  0.00000000000E+00  0.45593999997E+02  0.45594000000E+02  0.51100000000E-03 0.  1.
         11   -1    0    0    0    0 -0.00000000000E+00 -0.00000000000E+00 -0.45593999997E+02  0.45594000000E+02  0.51100000000E-03 0. -1.
    9900012    2    1    2    0    0  0.36369172462E+02 -0.16469097229E+02  0.76952603550E+01  0.50528869402E+02  0.30000029033E+02 0.  0.
         12    1    1    2    0    0 -0.36369172462E+02  0.16469097229E+02 -0.76952603550E+01  0.40659130598E+02  0.00000000000E+00 0. -1.
         11    1    3    3    0    0  0.46733118364E+01 -0.96454617303E+01  0.66347735903E+01  0.12605355860E+02  0.51100000000E-03 0. -1.
        -11    1    3    3    0    0  0.29019110698E+02 -0.11708400125E+02  0.41303063901E+01  0.31563505038E+02  0.51100000000E-03 0.  1.
         12    1    3    3    0    0  0.26767499273E+01  0.48847646258E+01 -0.30698196254E+01  0.63600085028E+01  0.00000000000E+00 0. -1.
</event>
<event>
 7    1  0.2969156E-011  0.5052886E+02  0.7816164E-02  0.1300439E+00
        -11   -1    0    0    0    0  0.00000000000E+00  0.00000000000E+00  0.45593999997E+02  0.45594000000E+02  0.51100000000E-03 0.  1.
         11   -1    0    0    0    0 -0.00000000000E+00 -0.00000000000E+00 -0.45593999997E+02  0.45594000000E+02  0.51100000000E-03 0. -1.
    9900012    2    1    2    0    0 -0.11661871814E+02  0.28627883348E+02  0.26412326410E+02  0.50528856556E+02  0.29999989988E+02 0.  0.
         12    1    1    2    0    0  0.11661871814E+02 -0.28627883348E+02 -0.26412326410E+02  0.40659143444E+02  0.00000000000E+00 0. -1.
         11    1    3    3    0    0  0.15480508135E+01  0.78310109539E+01 -0.20544651482E+01  0.82426950197E+01  0.51100000000E-03 0. -1.
        -11    1    3    3    0    0 -0.12152203015E+02  0.11080570999E+02  0.55242958916E+01  0.17348571617E+02  0.51100000000E-03 0.  1.
         12    1    3    3    0    0 -0.10577196116E+01  0.97163013955E+01  0.22942495667E+02  0.24937589920E+02  0.00000000000E+00 0. -1.
</event>
<event>
 7    1  0.2969156E-011  0.5052886E+02  0.7816164E-02  0.1300439E+00
        -11   -1    0    0    0    0  0.00000000000E+00  0.00000000000E+00  0.45593999997E+02  0.45594000000E+02  0.51100000000E-03 0. -1.
         11   -1    0    0    0    0 -0.00000000000E+00 -0.00000000000E+00 -0.45593999997E+02  0.45594000000E+02  0.51100000000E-03 0.  1.
    9900012    2    1    2    0    0 -0.38765535524E+02  0.84911020310E+01 -0.88487391291E+01  0.50528859055E+02  0.29999997584E+02 0.  0.
         12    1    1    2    0    0  0.38765535524E+02 -0.84911020310E+01  0.88487391291E+01  0.40659140945E+02  0.00000000000E+00 0. -1.
         11    1    3    3    0    0  0.15024371786E+01 -0.38326612075E+01 -0.22096217351E+01  0.46721555925E+01  0.51100000000E-03 0. -1.
        -11    1    3    3    0    0 -0.38000344526E+01  0.76025483529E+01 -0.54421778060E-01  0.84995273569E+01  0.51100000000E-03 0.  1.
        -12    1    3    3    0    0 -0.36467938250E+02  0.47212148856E+01 -0.65846956160E+01  0.37357176106E+02  0.00000000000E+00 0.  1.
</event>
<event>
 7    1  0.2969156E-011  0.5052886E+02  0.7816164E-02  0.1300439E+00
        -11   -1    0    0    0    0  0.00000000000E+00  0.00000000000E+00  0.45593999997E+02  0.45594000000E+02  0.51100000000E-03 0.  1.
         11   -1    0    0    0    0 -0.00000000000E+00 -0.00000000000E+00 -0.45593999997E+02  0.45594000000E+02  0.51100000000E-03 0. -1.
    9900012    2    1    2    0    0  0.36523431296E+02 -0.14519401499E+02  0.10411124186E+02  0.50528861294E+02  0.30000004389E+02 0.  0.
         12    1    1    2    0    0 -0.36523431296E+02  0.14519401499E+02 -0.10411124186E+02  0.40659138706E+02  0.00000000000E+00 0. -1.
         11    1    3    3    0    0  0.16019306966E+02 -0.98155674247E+01 -0.13191160923E+01  0.18833577118E+02  0.51100000000E-03 0. -1.
        -11    1    3    3    0    0  0.21758183044E+02 -0.98069180080E+01  0.11347357095E+02  0.26426439100E+02  0.51100000000E-03 0.  1.
        -12    1    3    3    0    0 -0.12540587149E+01  0.51030839341E+01  0.38288318328E+00  0.52688450756E+01  0.00000000000E+00 0.  1.
</event>
<event>
 7    1  0.2969156E-011  0.5052886E+02  0.7816164E-02  0.1300439E+00
        -11   -1    0    0    0    0  0.00000000000E+00  0.00000000000E+00  0.45593999997E+02  0.45594000000E+02  0.51100000000E-03 0.  1.
         11   -1    0    0    0    0 -0.00000000000E+00 -0.00000000000E+00 -0.45593999997E+02  0.45594000000E+02  0.51100000000E-03 0. -1.
    9900012    2    1    2    0    0  0.32983827832E+02  0.23768730736E+02  0.52934471407E+00  0.50528860005E+02  0.30000000471E+02 0.  0.
         12    1    1    2    0    0 -0.32983827832E+02 -0.23768730736E+02 -0.52934471407E+00  0.40659139995E+02  0.00000000000E+00 0. -1.
         11    1    3    3    0    0  0.25070098417E+02  0.13818336487E+02  0.62157802801E+01  0.29293210521E+02  0.51100000000E-03 0. -1.
        -11    1    3    3    0    0  0.10777214532E+02  0.10704156822E+01 -0.48542630980E+01  0.11868361862E+02  0.51100000000E-03 0.  1.
         12    1    3    3    0    0 -0.28634851165E+01  0.88799785675E+01 -0.83217246803E+00  0.93672876218E+01  0.00000000000E+00 0. -1.
</event>
<event>
 7    1  0.2969156E-011  0.5052886E+02  0.7816164E-02  0.1300439E+00
        -11   -1    0    0    0    0  0.00000000000E+00  0.00000000000E+00  0.45593999997E+02  0.45594000000E+02  0.51100000000E-03 0. -1.
         11   -1    0    0    0    0 -0.00000000000E+00 -0.00000000000E+00 -0.45593999997E+02  0.45594000000E+02  0.51100000000E-03 0.  1.
    9900012    2    1    2    0    0  0.35097464042E+02 -0.16566140168E+02 -0.12120094839E+02  0.50528859808E+02  0.29999999872E+02 0.  0.
         12    1    1    2    0    0 -0.35097464042E+02  0.16566140168E+02  0.12120094839E+02  0.40659140192E+02  0.00000000000E+00 0. -1.
         11    1    3    3    0    0  0.27488919133E+01  0.12444386685E+01 -0.11908887423E+02  0.12285220155E+02  0.51100000000E-03 0. -1.
        -11    1    3    3    0    0  0.14938387471E+01 -0.17650192508E+01  0.24445077199E+01  0.33648871321E+01  0.51100000000E-03 0.  1.
        -12    1    3    3    0    0  0.30854733382E+02 -0.16045559586E+02 -0.26557151357E+01  0.34878752520E+02  0.00000000000E+00 0.  1.
</event>
<event>
 7    1  0.2969156E-011  0.5052886E+02  0.7816164E-02  0.1300439E+00
        -11   -1    0    0    0    0  0.00000000000E+00  0.00000000000E+00  0.45593999997E+02  0.45594000000E+02  0.51100000000E-03 0.  1.
         11   -1    0    0    0    0 -0.00000000000E+00 -0.00000000000E+00 -0.45593999997E+02  0.45594000000E+02  0.51100000000E-03 0. -1.
    9900012    2    1    2    0    0 -0.12284769968E+02  0.84289785232E+01  0.37831234950E+02  0.50528860929E+02  0.30000003280E+02 0.  0.
         12    1    1    2    0    0  0.12284769968E+02 -0.84289785232E+01 -0.37831234950E+02  0.40659139071E+02  0.00000000000E+00 0. -1.
         11    1    3    3    0    0  0.23628703795E+01  0.33671925027E+01  0.19862592940E+02  0.20284076029E+02  0.51100000000E-03 0. -1.
        -11    1    3    3    0    0 -0.11921974220E+02  0.11383501604E+02  0.16254984584E+02  0.23150423369E+02  0.51100000000E-03 0.  1.
        -12    1    3    3    0    0 -0.27256661268E+01 -0.63217155840E+01  0.17136574266E+01  0.70943615312E+01  0.00000000000E+00 0.  1.
</event>
<event>
 7    1  0.2969156E-011  0.5052886E+02  0.7816164E-02  0.1300439E+00
        -11   -1    0    0    0    0  0.00000000000E+00  0.00000000000E+00  0.45593999997E+02  0.45594000000E+02  0.51100000000E-03 0.  1.
         11   -1    0    0    0    0 -0.00000000000E+00 -0.00000000000E+00 -0.45593999997E+02  0.45594000000E+02  0.51100000000E-03 0. -1.
    9900012    2    1    2    0    0  0.11952608757E+02  0.33743021200E+02  0.19279771007E+02  0.50528857044E+02  0.29999991471E+02 0.  0.
         12    1    1    2    0    0 -0.11952608757E+02 -0.33743021200E+02 -0.19279771007E+02  0.40659142956E+02  0.00000000000E+00 0. -1.
         11    1    3    3    0    0 -0.38045071125E+01  0.32806785252E+01  0.31246351018E+01  0.59161195674E+01  0.51100000000E-03 0. -1.
        -11    1    3    3    0    0  0.14027043972E+02  0.43479313567E+01  0.18920186600E+01  0.14806829659E+02  0.51100000000E-03 0.  1.
         12    1    3    3    0    0  0.17300718977E+01  0.26114411319E+02  0.14263117245E+02  0.29805907818E+02  0.00000000000E+00 0. -1.
</event>
<event>
 7    1  0.2969156E-011  0.5052885E+02  0.7816164E-02  0.1300439E+00
        -11   -1    0    0    0    0  0.00000000000E+00  0.00000000000E+00  0.45593999997E+02  0.45594000000E+02  0.51100000000E-03 0.  1.
         11   -1    0    0    0    0 -0.00000000000E+00 -0.00000000000E+00 -0.45593999997E+02  0.45594000000E+02  0.51100000000E-03 0. -1.
    9900012    2    1    2    0    0 -0.36667648012E+02 -0.17477510629E+02 -0.17850647847E+01  0.50528852877E+02  0.29999978805E+02 0.  0.
         12    1    1    2    0    0  0.36667648012E+02  0.17477510629E+02  0.17850647847E+01  0.40659147123E+02  0.00000000000E+00 0. -1.
         11    1    3    3    0    0  0.19768145877E+01 -0.17740866426E+01  0.16770933712E+00  0.26614481044E+01  0.51100000000E-03 0. -1.
        -11    1    3    3    0    0 -0.17170571002E+02 -0.17305103461E+02  0.56621372200E+01  0.25027083580E+02  0.51100000000E-03 0.  1.
         12    1    3    3    0    0 -0.21473891597E+02  0.16016794747E+01 -0.76149113418E+01  0.22840321193E+02  0.00000000000E+00 0. -1.
</event>
<event>
 7    1  0.2969156E-011  0.5052885E+02  0.7816164E-02  0.1300439E+00
        -11   -1    0    0    0    0  0.00000000000E+00  0.00000000000E+00  0.45593999997E+02  0.45594000000E+02  0.51100000000E-03 0.  1.
         11   -1    0    0    0    0 -0.00000000000E+00 -0.00000000000E+00 -0.45593999997E+02  0.45594000000E+02  0.51100000000E-03 0. -1.
    9900012    2    1    2    0    0  0.21251188269E+02  0.45402941140E+01  0.34364792513E+02  0.50528852961E+02  0.29999979061E+02 0.  0.
         12    1    1    2    0    0 -0.21251188269E+02 -0.45402941140E+01 -0.34364792513E+02  0.40659147039E+02  0.00000000000E+00 0. -1.
         11    1    3    3    0    0  0.84303486758E+01 -0.21173830917E+01  0.50151315111E+01  0.10035219693E+02  0.51100000000E-03 0. -1.
        -11    1    3    3    0    0 -0.56935032022E+01 -0.70106562545E+00  0.96852055318E+00  0.58176888924E+01  0.51100000000E-03 0.  1.
        -12    1    3    3    0    0  0.18514342795E+02  0.73587428312E+01  0.28381140449E+02  0.34675944376E+02  0.00000000000E+00 0.  1.
</event>
<event>
 7    1  0.2969156E-011  0.5052888E+02  0.7816164E-02  0.1300439E+00
        -11   -1    0    0    0    0  0.00000000000E+00  0.00000000000E+00  0.45593999997E+02  0.45594000000E+02  0.51100000000E-03 0.  1.
         11   -1    0    0    0    0 -0.00000000000E+00 -0.00000000000E+00 -0.45593999997E+02  0.45594000000E+02  0.51100000000E-03 0. -1.
    9900012    2    1    2    0    0  0.16856156024E+01  0.16124067467E+02  0.37287230932E+02  0.50528875044E+02  0.30000046183E+02 0.  0.
         12    1    1    2    0    0 -0.16856156024E+01 -0.16124067467E+02 -0.37287230932E+02  0.40659124956E+02  0.00000000000E+00 0. -1.
         11    1    3    3    0    0 -0.44244985400E+00 -0.47570737614E+01  0.16567718236E+01  0.50567188750E+01  0.51100000000E-03 0. -1.
        -11    1    3    3    0    0  0.29098524746E+00 -0.36404752404E+01  0.42147949807E+01  0.55769372760E+01  0.51100000000E-03 0.  1.
        -12    1    3    3    0    0  0.18370802089E+01  0.24521616469E+02  0.31415664128E+02  0.39895218893E+02  0.00000000000E+00 0.  1.
</event>
<event>
 7    1  0.2969156E-011  0.5052886E+02  0.7816164E-02  0.1300439E+00
        -11   -1    0    0    0    0  0.00000000000E+00  0.00000000000E+00  0.45593999997E+02  0.45594000000E+02  0.51100000000E-03 0.  1.
         11   -1    0    0    0    0 -0.00000000000E+00 -0.00000000000E+00 -0.45593999997E+02  0.45594000000E+02  0.51100000000E-03 0. -1.
    9900012    2    1    2    0    0  0.23504738507E+02  0.30576883570E+02  0.12874288485E+02  0.50528857792E+02  0.29999993744E+02 0.  0.
         12    1    1    2    0    0 -0.23504738507E+02 -0.30576883570E+02 -0.12874288485E+02  0.40659142208E+02  0.00000000000E+00 0. -1.
         11    1    3    3    0    0  0.57818161198E+01 -0.49039390710E+01  0.47937248293E+01  0.89698279835E+01  0.51100000000E-03 0. -1.
        -11    1    3    3    0    0  0.46049318172E+01  0.19383001962E+02  0.26763636066E+01  0.20101469710E+02  0.51100000000E-03 0.  1.
        -12    1    3    3    0    0  0.13117990570E+02  0.16097820678E+02  0.54042000495E+01  0.21457560098E+02  0.00000000000E+00 0.  1.
</event>
<event>
 7    1  0.2969156E-011  0.5052885E+02  0.7816164E-02  0.1300439E+00
        -11   -1    0    0    0    0  0.00000000000E+00  0.00000000000E+00  0.45593999997E+02  0.45594000000E+02  0.51100000000E-03 0.  1.
         11   -1    0    0    0    0 -0.00000000000E+00 -0.00000000000E+00 -0.45593999997E+02  0.45594000000E+02  0.51100000000E-03 0. -1.
    9900012    2    1    2    0    0 -0.24062574724E+02 -0.17828615086E+02  0.27500894081E+02  0.50528853508E+02  0.29999980724E+02 0.  0.
         12    1    1    2    0    0  0.24062574724E+02  0.17828615086E+02 -0.27500894081E+02  0.40659146492E+02  0.00000000000E+00 0. -1.
         11    1    3    3    0    0  0.40062126677E+01  0.32094681751E+01  0.58660794432E+01  0.77949544066E+01  0.51100000000E-03 0. -1.
        -11    1    3    3    0    0 -0.57603233474E+01 -0.31945631498E+01  0.98106825418E+01  0.11816769905E+02  0.51100000000E-03 0.  1.
        -12    1    3    3    0    0 -0.22308464044E+02 -0.17843520111E+02  0.11824132096E+02  0.30917129197E+02  0.00000000000E+00 0.  1.
</event>
<event>
 7    1  0.2969156E-011  0.5052882E+02  0.7816164E-02  0.1300439E+00
        -11   -1    0    0    0    0  0.00000000000E+00  0.00000000000E+00  0.45593999997E+02  0.45594000000E+02  0.51100000000E-03 0.  1.
         11   -1    0    0    0    0 -0.00000000000E+00 -0.00000000000E+00 -0.45593999997E+02  0.45594000000E+02  0.51100000000E-03 0. -1.
    9900012    2    1    2    0    0 -0.35170999700E+02  0.13184150156E+02  0.15567532381E+02  0.50528817769E+02  0.29999872092E+02 0.  0.
         12    1    1    2    0    0  0.35170999700E+02 -0.13184150156E+02 -0.15567532381E+02  0.40659182231E+02  0.00000000000E+00 0. -1.
         11    1    3    3    0    0 -0.15878697110E+02 -0.66799917620E+00  0.28636379802E+00  0.15895321617E+02  0.51100000000E-03 0. -1.
        -11    1    3    3    0    0 -0.91218125183E+01 -0.36648196008E+01  0.10668643253E+01  0.98882033795E+01  0.51100000000E-03 0.  1.
        -12    1    3    3    0    0 -0.10170490071E+02  0.17516968933E+02  0.14214304258E+02  0.24745292773E+02  0.00000000000E+00 0.  1.
</event>
<event>
 7    1  0.2969156E-011  0.5052887E+02  0.7816164E-02  0.1300439E+00
        -11   -1    0    0    0    0  0.00000000000E+00  0.00000000000E+00  0.45593999997E+02  0.45594000000E+02  0.51100000000E-03 0. -1.
         11   -1    0    0    0    0 -0.00000000000E+00 -0.00000000000E+00 -0.45593999997E+02  0.45594000000E+02  0.51100000000E-03 0.  1.
    9900012    2    1    2    0    0  0.86023562524E+01 -0.31530393201E+02 -0.24186741502E+02  0.50528871960E+02  0.30000036810E+02 0.  0.
         12    1    1    2    0    0 -0.86023562524E+01  0.31530393201E+02  0.24186741502E+02  0.40659128040E+02  0.00000000000E+00 0. -1.
         11    1    3    3    0    0  0.23605338467E+01 -0.99530766335E+01  0.42690441956E+01  0.11084249777E+02  0.51100000000E-03 0. -1.
        -11    1    3    3    0    0  0.77325539225E+01 -0.98603420244E+01 -0.56163492102E+01  0.13731792080E+02  0.51100000000E-03 0.  1.
         12    1    3    3    0    0 -0.14907315168E+01 -0.11716974543E+02 -0.22839436487E+02  0.25712830104E+02  0.00000000000E+00 0. -1.
</event>
<event>
 7    1  0.2969156E-011  0.5052887E+02  0.7816164E-02  0.1300439E+00
        -11   -1    0    0    0    0  0.00000000000E+00  0.00000000000E+00  0.45593999997E+02  0.45594000000E+02  0.51100000000E-03 0.  1.
         11   -1    0    0    0    0 -0.00000000000E+00 -0.00000000000E+00 -0.45593999997E+02  0.45594000000E+02  0.51100000000E-03 0. -1.
    9900012    2    1    2    0    0 -0.13358895322E+02  0.32766583126E+02  0.20026376713E+02  0.50528870420E+02  0.30000032128E+02 0.  0.
         12    1    1    2    0    0  0.13358895322E+02 -0.32766583126E+02 -0.20026376713E+02  0.40659129580E+02  0.00000000000E+00 0. -1.
         11    1    3    3    0    0 -0.38319211790E+01  0.74717636299E+01  0.19607977157E+02  0.21330345523E+02  0.51100000000E-03 0. -1.
        -11    1    3    3    0    0 -0.98760168805E+00  0.46519314320E+00  0.26309483069E+01  0.28484471224E+01  0.51100000000E-03 0.  1.
         12    1    3    3    0    0 -0.85393724550E+01  0.24829626353E+02 -0.22125487514E+01  0.26350077774E+02  0.00000000000E+00 0. -1.
</event>
<event>
 7    1  0.2969156E-011  0.5052886E+02  0.7816164E-02  0.1300439E+00
        -11   -1    0    0    0    0  0.00000000000E+00  0.00000000000E+00  0.45593999997E+02  0.45594000000E+02  0.51100000000E-03 0. -1.
         11   -1    0    0    0    0 -0.00000000000E+00 -0.00000000000E+00 -0.45593999997E+02  0.45594000000E+02  0.51100000000E-03 0.  1.
    9900012    2    1    2    0    0  0.20380496598E+02 -0.26999759136E+02 -0.22556907704E+02  0.50528859329E+02  0.29999998416E+02 0.  0.
         12    1    1    2    0    0 -0.20380496598E+02  0.26999759136E+02  0.22556907704E+02  0.40659140671E+02  0.00000000000E+00 0. -1.
         11    1    3    3    0    0  0.59845298584E+01  0.34023734157E+01 -0.77450943515E+01  0.10362298455E+02  0.51100000000E-03 0. -1.
        -11    1    3    3    0    0 -0.13267022119E+01  0.13454999306E+01 -0.47784094598E+00  0.19490615827E+01  0.51100000000E-03 0.  1.
        -12    1    3    3    0    0  0.15722668951E+02 -0.31747632482E+02 -0.14333972407E+02  0.38217499292E+02  0.00000000000E+00 0.  1.
</event>
<event>
 7    1  0.2969156E-011  0.5052887E+02  0.7816164E-02  0.1300439E+00
        -11   -1    0    0    0    0  0.00000000000E+00  0.00000000000E+00  0.45593999997E+02  0.45594000000E+02  0.51100000000E-03 0.  1.
         11   -1    0    0    0    0 -0.00000000000E+00 -0.00000000000E+00 -0.45593999997E+02  0.45594000000E+02  0.51100000000E-03 0. -1.
    9900012    2    1    2    0    0  0.39545984154E+02 -0.18476122348E+01  0.92664164015E+01  0.50528868103E+02  0.30000025087E+02 0.  0.
         12    1    1    2    0    0 -0.39545984154E+02  0.18476122348E+01 -0.92664164015E+01  0.40659131897E+02  0.00000000000E+00 0. -1.
         11    1    3    3    0    0  0.15465640700E+02 -0.75895940514E+01  0.82110402073E+01  0.19084264767E+02  0.51100000000E-03 0. -1.
        -11    1    3    3    0    0  0.22483713186E+02  0.65293972383E+01  0.76368181420E+01  0.24626639610E+02  0.51100000000E-03 0.  1.
         12    1    3    3    0    0  0.15966302679E+01 -0.78741542177E+00 -0.65814419479E+01  0.68179637262E+01  0.00000000000E+00 0. -1.
</event>
<event>
 7    1  0.2969156E-011  0.5052886E+02  0.7816164E-02  0.1300439E+00
        -11   -1    0    0    0    0  0.00000000000E+00  0.00000000000E+00  0.45593999997E+02  0.45594000000E+02  0.51100000000E-03 0.  1.
         11   -1    0    0    0    0 -0.00000000000E+00 -0.00000000000E+00 -0.45593999997E+02  0.45594000000E+02  0.51100000000E-03 0. -1.
    9900012    2    1    2    0    0 -0.18843066386E+02  0.23397891993E+02  0.27397866993E+02  0.50528860605E+02  0.30000002296E+02 0.  0.
         12    1    1    2    0    0  0.18843066386E+02 -0.23397891993E+02 -0.27397866993E+02  0.40659139395E+02  0.00000000000E+00 0. -1.
         11    1    3    3    0    0 -0.23799576780E+02  0.20265529540E+02  0.15258836529E+02  0.34784244062E+02  0.51100000000E-03 0. -1.
        -11    1    3    3    0    0 -0.11098569776E+01 -0.18423175000E+01  0.21260302641E+01  0.30242224169E+01  0.51100000000E-03 0.  1.
        -12    1    3    3    0    0  0.60663673722E+01  0.49746799536E+01  0.10013000200E+02  0.12720394127E+02  0.00000000000E+00 0.  1.
</event>
<event>
 7    1  0.2969156E-011  0.5052886E+02  0.7816164E-02  0.1300439E+00
        -11   -1    0    0    0    0  0.00000000000E+00  0.00000000000E+00  0.45593999997E+02  0.45594000000E+02  0.51100000000E-03 0. -1.
         11   -1    0    0    0    0 -0.00000000000E+00 -0.00000000000E+00 -0.45593999997E+02  0.45594000000E+02  0.51100000000E-03 0.  1.
    9900012    2    1    2    0    0  0.21156778860E+02 -0.14134330460E+02 -0.31713990664E+02  0.50528858431E+02  0.29999995688E+02 0.  0.
         12    1    1    2    0    0 -0.21156778860E+02  0.14134330460E+02  0.31713990664E+02  0.40659141569E+02  0.00000000000E+00 0. -1.
         11    1    3    3    0    0 -0.27580305737E+01 -0.66984252814E+00 -0.59642546464E+01  0.66051309909E+01  0.51100000000E-03 0. -1.
        -11    1    3    3    0    0  0.82367454727E+01  0.19426212068E+01  0.18275136265E+01  0.86578033849E+01  0.51100000000E-03 0.  1.
        -12    1    3    3    0    0  0.15678063961E+02 -0.15407109138E+02 -0.27577249644E+02  0.35265924056E+02  0.00000000000E+00 0.  1.
</event>
<event>
 7    1  0.2969156E-011  0.5052885E+02  0.7816164E-02  0.1300439E+00
        -11   -1    0    0    0    0  0.00000000000E+00  0.00000000000E+00  0.45593999997E+02  0.45594000000E+02  0.51100000000E-03 0.  1.
         11   -1    0    0    0    0 -0.00000000000E+00 -0.00000000000E+00 -0.45593999997E+02  0.45594000000E+02  0.51100000000E-03 0. -1.
    9900012    2    1    2    0    0 -0.30400962187E+02  0.18990169930E+02  0.19191691560E+02  0.50528854893E+02  0.29999984934E+02 0.  0.
         12    1    1    2    0    0  0.30400962187E+02 -0.18990169930E+02 -0.19191691560E+02  0.40659145107E+02  0.00000000000E+00 0. -1.
         11    1    3    3    0    0 -0.36340691497E+01 -0.65514105335E+00 -0.35021240459E+01  0.50892574585E+01  0.51100000000E-03 0. -1.
        -11    1    3    3    0    0 -0.19646682320E+02  0.14627542642E+01  0.94907391193E+01  0.21867919552E+02  0.51100000000E-03 0.  1.
         12    1    3    3    0    0 -0.71202107168E+01  0.18182556720E+02  0.13203076487E+02  0.23571677883E+02  0.00000000000E+00 0. -1.
</event>
<event>
 7    1  0.2969156E-011  0.5052889E+02  0.7816164E-02  0.1300439E+00
        -11   -1    0    0    0    0  0.00000000000E+00  0.00000000000E+00  0.45593999997E+02  0.45594000000E+02  0.51100000000E-03 0.  1.
         11   -1    0    0    0    0 -0.00000000000E+00 -0.00000000000E+00 -0.45593999997E+02  0.45594000000E+02  0.51100000000E-03 0. -1.
    9900012    2    1    2    0    0 -0.17740099196E+02  0.26680388833E+02  0.25032154112E+02  0.50528892691E+02  0.30000099822E+02 0.  0.
         12    1    1    2    0    0  0.17740099196E+02 -0.26680388833E+02 -0.25032154112E+02  0.40659107309E+02  0.00000000000E+00 0. -1.
         11    1    3    3    0    0  0.19083940724E+01  0.10813378850E+02  0.12504931344E+02  0.16641647703E+02  0.51100000000E-03 0. -1.
        -11    1    3    3    0    0 -0.21296034231E+01  0.98329197635E+01 -0.21033996805E+01  0.10278414873E+02  0.51100000000E-03 0.  1.
        -12    1    3    3    0    0 -0.17518889845E+02  0.60340902188E+01  0.14630622448E+02  0.23608830115E+02  0.00000000000E+00 0.  1.
</event>
<event>
 7    1  0.2969156E-011  0.5052885E+02  0.7816164E-02  0.1300439E+00
        -11   -1    0    0    0    0  0.00000000000E+00  0.00000000000E+00  0.45593999997E+02  0.45594000000E+02  0.51100000000E-03 0.  1.
         11   -1    0    0    0    0 -0.00000000000E+00 -0.00000000000E+00 -0.45593999997E+02  0.45594000000E+02  0.51100000000E-03 0. -1.
    9900012    2    1    2    0    0  0.16114246371E+00 -0.34431299262E+02  0.21624665747E+02  0.50528849684E+02  0.29999969099E+02 0.  0.
         12    1    1    2    0    0 -0.16114246371E+00  0.34431299262E+02 -0.21624665747E+02  0.40659150316E+02  0.00000000000E+00 0. -1.
         11    1    3    3    0    0  0.29018667134E+01 -0.17759246995E+01  0.80886375500E+01  0.87750097799E+01  0.51100000000E-03 0. -1.
        -11    1    3    3    0    0 -0.28328470644E+01  0.18809538431E+01 -0.19328333712E+01  0.39113750718E+01  0.51100000000E-03 0.  1.
        -12    1    3    3    0    0  0.92122814728E-01 -0.34536328406E+02  0.15468861568E+02  0.37842464832E+02  0.00000000000E+00 0.  1.
</event>
<event>
 7    1  0.2969156E-011  0.5052886E+02  0.7816164E-02  0.1300439E+00
        -11   -1    0    0    0    0  0.00000000000E+00  0.00000000000E+00  0.45593999997E+02  0.45594000000E+02  0.51100000000E-03 0. -1.
         11   -1    0    0    0    0 -0.00000000000E+00 -0.00000000000E+00 -0.45593999997E+02  0.45594000000E+02  0.51100000000E-03 0.  1.
    9900012    2    1    2    0    0 -0.24492595137E+01  0.14427715233E+02  0.37934260469E+02  0.50528856424E+02  0.29999989586E+02 0.  0.
         12    1    1    2    0    0  0.24492595137E+01 -0.14427715233E+02 -0.37934260469E+02  0.40659143576E+02  0.00000000000E+00 0. -1.
         11    1    3    3    0    0 -0.34180315271E+01  0.70036576870E+01  0.37557381685E+02  0.38357412319E+02  0.51100000000E-03 0. -1.
        -11    1    3    3    0    0  0.19987501342E+01  0.91337153037E+01  0.20442151762E+01  0.95707143566E+01  0.51100000000E-03 0.  1.
        -12    1    3    3    0    0 -0.10299781207E+01 -0.17096577574E+01 -0.16673363926E+01  0.26007297481E+01  0.00000000000E+00 0.  1.
</event>
<event>
 7    1  0.2969156E-011  0.5052888E+02  0.7816164E-02  0.1300439E+00
        -11   -1    0    0    0    0  0.00000000000E+00  0.00000000000E+00  0.45593999997E+02  0.45594000000E+02  0.51100000000E-03 0. -1.
         11   -1    0    0    0    0 -0.00000000000E+00 -0.00000000000E+00 -0.45593999997E+02  0.45594000000E+02  0.51100000000E-03 0.  1.
    9900012    2    1    2    0    0  0.28004770922E+02  0.28275928765E+02 -0.83288052544E+01  0.50528876315E+02  0.30000050046E+02 0.  0.
         12    1    1    2    0    0 -0.28004770922E+02 -0.28275928765E+02  0.83288052544E+01  0.40659123685E+02  0.00000000000E+00 0. -1.
         11    1    3    3    0    0  0.15116048598E+02  0.19506092777E+01 -0.62525927786E+01  0.16474061991E+02  0.51100000000E-03 0. -1.
        -11    1    3    3    0    0 -0.72509419076E+00 -0.21892073708E+01  0.47401276323E+00  0.23543744092E+01  0.51100000000E-03 0.  1.
        -12    1    3    3    0    0  0.13613816515E+02  0.28514526858E+02 -0.25502252391E+01  0.31700439915E+02  0.00000000000E+00 0.  1.
</event>
<event>
 7    1  0.2969156E-011  0.5052885E+02  0.7816164E-02  0.1300439E+00
        -11   -1    0    0    0    0  0.00000000000E+00  0.00000000000E+00  0.45593999997E+02  0.45594000000E+02  0.51100000000E-03 0.  1.
         11   -1    0    0    0    0 -0.00000000000E+00 -0.00000000000E+00 -0.45593999997E+02  0.45594000000E+02  0.51100000000E-03 0. -1.
    9900012    2    1    2    0    0  0.31868813426E+02  0.24641263684E+02  0.55093553382E+01  0.50528854149E+02  0.29999982670E+02 0.  0.
         12    1    1    2    0    0 -0.31868813426E+02 -0.24641263684E+02 -0.55093553382E+01  0.40659145851E+02  0.00000000000E+00 0. -1.
         11    1    3    3    0    0  0.31611362608E+02  0.19559466820E+02 -0.23747816829E+01  0.37249034572E+02  0.51100000000E-03 0. -1.
        -11    1    3    3    0    0  0.10047382546E+00  0.16867396655E+01 -0.21218029320E+01  0.27124220970E+01  0.51100000000E-03 0.  1.
        -12    1    3    3    0    0  0.15697699254E+00  0.33950571984E+01  0.10005939953E+02  0.10567397480E+02  0.00000000000E+00 0.  1.
</event>
<event>
 7    1  0.2969156E-011  0.5052886E+02  0.7816164E-02  0.1300439E+00
        -11   -1    0    0    0    0  0.00000000000E+00  0.00000000000E+00  0.45593999997E+02  0.45594000000E+02  0.51100000000E-03 0. -1.
         11   -1    0    0    0    0 -0.00000000000E+00 -0.00000000000E+00 -0.45593999997E+02  0.45594000000E+02  0.51100000000E-03 0.  1.
    9900012    2    1    2    0    0 -0.13482648986E+02  0.33121685719E+02 -0.19347812818E+02  0.50528858969E+02  0.29999997324E+02 0.  0.
         12    1    1    2    0    0  0.13482648986E+02 -0.33121685719E+02  0.19347812818E+02  0.40659141031E+02  0.00000000000E+00 0. -1.
         11    1    3    3    0    0 -0.59553413236E+01  0.24797811723E+02 -0.10968282646E+02  0.27761498176E+02  0.51100000000E-03 0.  1.
        -11    1    3    3    0    0 -0.11068602942E+02  0.94298071436E+01 -0.10821141190E+01  0.14581022086E+02  0.51100000000E-03 0. -1.
        -12    1    3    3    0    0  0.35412952796E+01 -0.11059331477E+01 -0.72974160531E+01  0.81863387076E+01  0.00000000000E+00 0.  1.
</event>
<event>
 7    1  0.2969156E-011  0.5052886E+02  0.7816164E-02  0.1300439E+00
        -11   -1    0    0    0    0  0.00000000000E+00  0.00000000000E+00  0.45593999997E+02  0.45594000000E+02  0.51100000000E-03 0.  1.
         11   -1    0    0    0    0 -0.00000000000E+00 -0.00000000000E+00 -0.45593999997E+02  0.45594000000E+02  0.51100000000E-03 0. -1.
    9900012    2    1    2    0    0 -0.14196703709E+02  0.15155604775E+02  0.34956070164E+02  0.50528860884E+02  0.30000003144E+02 0.  0.
         12    1    1    2    0    0  0.14196703709E+02 -0.15155604775E+02 -0.34956070164E+02  0.40659139116E+02  0.00000000000E+00 0. -1.
         11    1    3    3    0    0 -0.78502299738E+00 -0.19038829207E+01 -0.35174704077E+01  0.40759820427E+01  0.51100000000E-03 0. -1.
        -11    1    3    3    0    0  0.68298961873E-01  0.87089189141E+01  0.21640611151E+02  0.23327365574E+02  0.51100000000E-03 0.  1.
         12    1    3    3    0    0 -0.13479979674E+02  0.83505687812E+01  0.16832929421E+02  0.23125513267E+02  0.00000000000E+00 0. -1.
</event>
<event>
 7    1  0.2969156E-011  0.5052885E+02  0.7816164E-02  0.1300439E+00
        -11   -1    0    0    0    0  0.00000000000E+00  0.00000000000E+00  0.45593999997E+02  0.45594000000E+02  0.51100000000E-03 0. -1.
         11   -1    0    0    0    0 -0.00000000000E+00 -0.00000000000E+00 -0.45593999997E+02  0.45594000000E+02  0.51100000000E-03 0.  1.
    9900012    2    1    2    0    0  0.11364492676E+02 -0.36366409077E+02 -0.14195023569E+02  0.50528854693E+02  0.29999984326E+02 0.  0.
         12    1    1    2    0    0 -0.11364492676E+02  0.36366409077E+02  0.14195023569E+02  0.40659145307E+02  0.00000000000E+00 0. -1.
         11    1    3    3    0    0  0.74019797915E+01 -0.30343103511E+00 -0.26660058146E+01  0.78733069603E+01  0.51100000000E-03 0. -1.
        -11    1    3    3    0    0  0.89633313006E+01 -0.75262523991E+01 -0.60321429717E+01  0.13167100374E+02  0.51100000000E-03 0.  1.
        -12    1    3    3    0    0 -0.50008184163E+01 -0.28536725643E+02 -0.54968747822E+01  0.29488447359E+02  0.00000000000E+00 0.  1.
</event>
<event>
 7    1  0.2969156E-011  0.5052886E+02  0.7816164E-02  0.1300439E+00
        -11   -1    0    0    0    0  0.00000000000E+00  0.00000000000E+00  0.45593999997E+02  0.45594000000E+02  0.51100000000E-03 0. -1.
         11   -1    0    0    0    0 -0.00000000000E+00 -0.00000000000E+00 -0.45593999997E+02  0.45594000000E+02  0.51100000000E-03 0.  1.
    9900012    2    1    2    0    0  0.26279161135E+02  0.29852976488E+02 -0.84481412702E+01  0.50528860731E+02  0.30000002679E+02 0.  0.
         12    1    1    2    0    0 -0.26279161135E+02 -0.29852976488E+02  0.84481412702E+01  0.40659139269E+02  0.00000000000E+00 0. -1.
         11    1    3    3    0    0  0.91062410847E+01  0.15324208237E+02  0.24741659889E+01  0.17996568628E+02  0.51100000000E-03 0. -1.
        -11    1    3    3    0    0  0.22047861335E+02  0.11108702152E+02 -0.87125951137E+01  0.26180541760E+02  0.51100000000E-03 0.  1.
         12    1    3    3    0    0 -0.48749412855E+01  0.34200660994E+01 -0.22097121453E+01  0.63517503435E+01  0.00000000000E+00 0. -1.
</event>
<event>
 7    1  0.2969156E-011  0.5052886E+02  0.7816164E-02  0.1300439E+00
        -11   -1    0    0    0    0  0.00000000000E+00  0.00000000000E+00  0.45593999997E+02  0.45594000000E+02  0.51100000000E-03 0.  1.
         11   -1    0    0    0    0 -0.00000000000E+00 -0.00000000000E+00 -0.45593999997E+02  0.45594000000E+02  0.51100000000E-03 0. -1.
    9900012    2    1    2    0    0  0.32882929651E+02  0.66536482637E+01  0.22969706822E+02  0.50528861678E+02  0.30000005555E+02 0.  0.
         12    1    1    2    0    0 -0.32882929651E+02 -0.66536482637E+01 -0.22969706822E+02  0.40659138322E+02  0.00000000000E+00 0. -1.
         11    1    3    3    0    0  0.10575066096E+02 -0.54931068709E+01 -0.19174497909E+01  0.12069915492E+02  0.51100000000E-03 0. -1.
        -11    1    3    3    0    0  0.22591826904E+02  0.12006672405E+02  0.17343623374E+02  0.30908770553E+02  0.51100000000E-03 0.  1.
        -12    1    3    3    0    0 -0.28396334896E+00  0.14008272949E+00  0.75435332385E+01  0.75501756320E+01  0.00000000000E+00 0.  1.
</event>
<event>
 7    1  0.2969156E-011  0.5052886E+02  0.7816164E-02  0.1300439E+00
        -11   -1    0    0    0    0  0.00000000000E+00  0.00000000000E+00  0.45593999997E+02  0.45594000000E+02  0.51100000000E-03 0.  1.
         11   -1    0    0    0    0 -0.00000000000E+00 -0.00000000000E+00 -0.45593999997E+02  0.45594000000E+02  0.51100000000E-03 0. -1.
    9900012    2    1    2    0    0  0.35418363260E+01 -0.26155731214E+02  0.30927319549E+02  0.50528856202E+02  0.29999988911E+02 0.  0.
         12    1    1    2    0    0 -0.35418363260E+01  0.26155731214E+02 -0.30927319549E+02  0.40659143798E+02  0.00000000000E+00 0. -1.
         11    1    3    3    0    0 -0.77105906977E+01 -0.14523443027E+02  0.44258938365E+01  0.17028568430E+02  0.51100000000E-03 0. -1.
        -11    1    3    3    0    0 -0.16858971674E+01 -0.27568721854E+01  0.10919505890E+02  0.11387633760E+02  0.51100000000E-03 0.  1.
         12    1    3    3    0    0  0.12938324191E+02 -0.88754160019E+01  0.15581919823E+02  0.22112654012E+02  0.00000000000E+00 0. -1.
</event>
<event>
 7    1  0.2969156E-011  0.5052887E+02  0.7816164E-02  0.1300439E+00
        -11   -1    0    0    0    0  0.00000000000E+00  0.00000000000E+00  0.45593999997E+02  0.45594000000E+02  0.51100000000E-03 0.  1.
         11   -1    0    0    0    0 -0.00000000000E+00 -0.00000000000E+00 -0.45593999997E+02  0.45594000000E+02  0.51100000000E-03 0. -1.
    9900012    2    1    2    0    0 -0.18958373159E+02  0.13812168832E+02  0.33210975603E+02  0.50528870383E+02  0.30000032017E+02 0.  0.
         12    1    1    2    0    0  0.18958373159E+02 -0.13812168832E+02 -0.33210975603E+02  0.40659129617E+02  0.00000000000E+00 0. -1.
         11    1    3    3    0    0 -0.98873356950E+01  0.15927151624E+02  0.18555367684E+02  0.26376793515E+02  0.51100000000E-03 0. -1.
        -11    1    3    3    0    0 -0.73918236385E+01  0.27967671968E+01  0.16776334953E+02  0.18544712944E+02  0.51100000000E-03 0.  1.
         12    1    3    3    0    0 -0.16792138254E+01 -0.49117499886E+01 -0.21207270339E+01  0.56073639238E+01  0.00000000000E+00 0. -1.
</event>
<event>
 7    1  0.2969156E-011  0.5052888E+02  0.7816164E-02  0.1300439E+00
        -11   -1    0    0    0    0  0.00000000000E+00  0.00000000000E+00  0.45593999997E+02  0.45594000000E+02  0.51100000000E-03 0.  1.
         11   -1    0    0    0    0 -0.00000000000E+00 -0.00000000000E+00 -0.45593999997E+02  0.45594000000E+02  0.51100000000E-03 0. -1.
    9900012    2    1    2    0    0 -0.16090345080E+01  0.27442567323E+02  0.29957982782E+02  0.50528877706E+02  0.30000054276E+02 0.  0.
         12    1    1    2    0    0  0.16090345080E+01 -0.27442567323E+02 -0.29957982782E+02  0.40659122294E+02  0.00000000000E+00 0. -1.
         11    1    3    3    0    0  0.17787211493E+01 -0.42891044866E+00 -0.14890913504E+01  0.23590689712E+01  0.51100000000E-03 0. -1.
        -11    1    3    3    0    0  0.99158672539E+01  0.14954983630E+02  0.15740985020E+02  0.23869532220E+02  0.51100000000E-03 0.  1.
        -12    1    3    3    0    0 -0.13303622911E+02  0.12916494141E+02  0.15706089113E+02  0.24300276515E+02  0.00000000000E+00 0.  1.
</event>
<event>
 7    1  0.6580950E-011  0.5052886E+02  0.7816164E-02  0.1300439E+00
        -11   -1    0    0    0    0  0.00000000000E+00  0.00000000000E+00  0.45593999997E+02  0.45594000000E+02  0.51100000000E-03 0. -1.
         11   -1    0    0    0    0 -0.00000000000E+00 -0.00000000000E+00 -0.45593999997E+02  0.45594000000E+02  0.51100000000E-03 0.  1.
    9900012    2    1    2    0    0 -0.87061732726E+01  0.18199319386E+02 -0.35300891579E+02  0.50528860494E+02  0.30000001956E+02 0.  0.
         12    1    1    2    0    0  0.87061732726E+01 -0.18199319386E+02  0.35300891579E+02  0.40659139506E+02  0.00000000000E+00 0. -1.
         11    1    3    3    0    0 -0.35682164368E+01  0.65742967652E+01  0.69010766377E+00  0.75119767935E+01  0.51100000000E-03 0. -1.
        -11    1    3    3    0    0 -0.81526725041E+01  0.14150413537E+02 -0.16809136790E+02  0.23436026799E+02  0.51100000000E-03 0.  1.
        -12    1    3    3    0    0  0.30147156683E+01 -0.25253909167E+01 -0.19181862452E+02  0.19580856901E+02  0.00000000000E+00 0.  1.
</event>
<event>
 7    1  0.4628405E-011  0.5052887E+02  0.7816164E-02  0.1300439E+00
        -11   -1    0    0    0    0  0.00000000000E+00  0.00000000000E+00  0.45593999997E+02  0.45594000000E+02  0.51100000000E-03 0. -1.
         11   -1    0    0    0    0 -0.00000000000E+00 -0.00000000000E+00 -0.45593999997E+02  0.45594000000E+02  0.51100000000E-03 0.  1.
    9900012    2    1    2    0    0  0.18187022190E+02  0.81504848908E+01 -0.35439624352E+02  0.50528866287E+02  0.30000019566E+02 0.  0.
         12    1    1    2    0    0 -0.18187022190E+02 -0.81504848908E+01  0.35439624352E+02  0.40659133713E+02  0.00000000000E+00 0. -1.
         11    1    3    3    0    0  0.16268508985E+02 -0.38082789043E+01 -0.13550318943E+02  0.21512287571E+02  0.51100000000E-03 0. -1.
        -11    1    3    3    0    0  0.68696339575E+01  0.88594171843E+01 -0.19909775032E+02  0.22849076253E+02  0.51100000000E-03 0.  1.
        -12    1    3    3    0    0 -0.49511207522E+01  0.30993466108E+01 -0.19795303766E+01  0.61675024628E+01  0.00000000000E+00 0.  1.
</event>
<event>
 7    1  0.2969156E-011  0.5052873E+02  0.7816164E-02  0.1300439E+00
        -11   -1    0    0    0    0  0.00000000000E+00  0.00000000000E+00  0.45593999997E+02  0.45594000000E+02  0.51100000000E-03 0.  1.
         11   -1    0    0    0    0 -0.00000000000E+00 -0.00000000000E+00 -0.45593999997E+02  0.45594000000E+02  0.51100000000E-03 0. -1.
    9900012    2    1    2    0    0  0.13804423998E+02 -0.38084753067E+02  0.34879565392E+01  0.50528728254E+02  0.29999599997E+02 0.  0.
         12    1    1    2    0    0 -0.13804423998E+02  0.38084753067E+02 -0.34879565392E+01  0.40659271746E+02  0.00000000000E+00 0. -1.
         11    1    3    3    0    0  0.16340883718E+01 -0.70219609524E+01 -0.43257315546E+01  0.84077425132E+01  0.51100000000E-03 0. -1.
        -11    1    3    3    0    0  0.17176566827E+02 -0.31941009450E+02  0.62336701878E+01  0.36798385520E+02  0.51100000000E-03 0.  1.
        -12    1    3    3    0    0 -0.50062312006E+01  0.87821733472E+00  0.15800179060E+01  0.53226002202E+01  0.00000000000E+00 0.  1.
</event>
<event>
 7    1  0.2969156E-011  0.5052886E+02  0.7816164E-02  0.1300439E+00
        -11   -1    0    0    0    0  0.00000000000E+00  0.00000000000E+00  0.45593999997E+02  0.45594000000E+02  0.51100000000E-03 0.  1.
         11   -1    0    0    0    0 -0.00000000000E+00 -0.00000000000E+00 -0.45593999997E+02  0.45594000000E+02  0.51100000000E-03 0. -1.
    9900012    2    1    2    0    0 -0.72504015999E+00 -0.38962598466E+02  0.11599813655E+02  0.50528862782E+02  0.30000008913E+02 0.  0.
         12    1    1    2    0    0  0.72504015999E+00  0.38962598466E+02 -0.11599813655E+02  0.40659137218E+02  0.00000000000E+00 0. -1.
         11    1    3    3    0    0 -0.67703378492E+00 -0.70080609597E+01 -0.56728883653E+01  0.90417341162E+01  0.51100000000E-03 0. -1.
        -11    1    3    3    0    0 -0.67909943841E+01 -0.28044311310E+02  0.17392943788E+02  0.33691475116E+02  0.51100000000E-03 0.  1.
         12    1    3    3    0    0  0.67429880090E+01 -0.39102261962E+01 -0.12024176749E+00  0.77956535504E+01  0.00000000000E+00 0. -1.
</event>
<event>
 7    1  0.2969156E-011  0.5052886E+02  0.7816164E-02  0.1300439E+00
        -11   -1    0    0    0    0  0.00000000000E+00  0.00000000000E+00  0.45593999997E+02  0.45594000000E+02  0.51100000000E-03 0. -1.
         11   -1    0    0    0    0 -0.00000000000E+00 -0.00000000000E+00 -0.45593999997E+02  0.45594000000E+02  0.51100000000E-03 0.  1.
    9900012    2    1    2    0    0 -0.31673763767E+02  0.16002131977E+02 -0.19846151469E+02  0.50528864900E+02  0.30000015349E+02 0.  0.
         12    1    1    2    0    0  0.31673763767E+02 -0.16002131977E+02  0.19846151469E+02  0.40659135100E+02  0.00000000000E+00 0. -1.
         11    1    3    3    0    0 -0.66006064113E+01  0.58289688481E+01  0.70327096102E+01  0.11269600150E+02  0.51100000000E-03 0.  1.
        -11    1    3    3    0    0 -0.20799151305E+02  0.45299153419E+01 -0.17810471921E+02  0.27754958806E+02  0.51100000000E-03 0. -1.
        -12    1    3    3    0    0 -0.42740060504E+01  0.56432477867E+01 -0.90683891584E+01  0.11504305943E+02  0.00000000000E+00 0.  1.
</event>
<event>
 7    1  0.2969156E-011  0.5052887E+02  0.7816164E-02  0.1300439E+00
        -11   -1    0    0    0    0  0.00000000000E+00  0.00000000000E+00  0.45593999997E+02  0.45594000000E+02  0.51100000000E-03 0.  1.
         11   -1    0    0    0    0 -0.00000000000E+00 -0.00000000000E+00 -0.45593999997E+02  0.45594000000E+02  0.51100000000E-03 0. -1.
    9900012    2    1    2    0    0 -0.27862985228E+02  0.17880480703E+02  0.23603125054E+02  0.50528867590E+02  0.30000023527E+02 0.  0.
         12    1    1    2    0    0  0.27862985228E+02 -0.17880480703E+02 -0.23603125054E+02  0.40659132410E+02  0.00000000000E+00 0. -1.
         11    1    3    3    0    0 -0.14635199306E+02 -0.92124817973E+00  0.10593699734E+02  0.18090445855E+02  0.51100000000E-03 0. -1.
        -11    1    3    3    0    0 -0.94015214900E+01  0.79122494080E+01  0.16321965694E+02  0.20430341686E+02  0.51100000000E-03 0.  1.
         12    1    3    3    0    0 -0.38262644325E+01  0.10889479474E+02 -0.33125403737E+01  0.12008080049E+02  0.00000000000E+00 0. -1.
</event>
<event>
 7    1  0.2969156E-011  0.5052885E+02  0.7816164E-02  0.1300439E+00
        -11   -1    0    0    0    0  0.00000000000E+00  0.00000000000E+00  0.45593999997E+02  0.45594000000E+02  0.51100000000E-03 0. -1.
         11   -1    0    0    0    0 -0.00000000000E+00 -0.00000000000E+00 -0.45593999997E+02  0.45594000000E+02  0.51100000000E-03 0.  1.
    9900012    2    1    2    0    0 -0.64701162993E+01  0.32272485326E+02 -0.23870285042E+02  0.50528853157E+02  0.29999979656E+02 0.  0.
         12    1    1    2    0    0  0.64701162993E+01 -0.32272485326E+02  0.23870285042E+02  0.40659146843E+02  0.00000000000E+00 0. -1.
         11    1    3    3    0    0  0.55988352532E+01  0.50447658752E+01  0.10451044123E+01  0.76084730677E+01  0.51100000000E-03 0. -1.
        -11    1    3    3    0    0 -0.14300309841E+02  0.14681927564E+02 -0.86199971078E+01  0.22234257553E+02  0.51100000000E-03 0.  1.
        -12    1    3    3    0    0  0.22313582881E+01  0.12545791887E+02 -0.16295392346E+02  0.20686122536E+02  0.00000000000E+00 0.  1.
</event>
<event>
 7    1  0.2969156E-011  0.5052886E+02  0.7816164E-02  0.1300439E+00
        -11   -1    0    0    0    0  0.00000000000E+00  0.00000000000E+00  0.45593999997E+02  0.45594000000E+02  0.51100000000E-03 0.  1.
         11   -1    0    0    0    0 -0.00000000000E+00 -0.00000000000E+00 -0.45593999997E+02  0.45594000000E+02  0.51100000000E-03 0. -1.
    9900012    2    1    2    0    0  0.38169298709E+02  0.13021416880E+02 -0.51684745446E+01  0.50528858462E+02  0.29999995782E+02 0.  0.
         12    1    1    2    0    0 -0.38169298709E+02 -0.13021416880E+02  0.51684745446E+01  0.40659141538E+02  0.00000000000E+00 0. -1.
         11    1    3    3    0    0  0.93770211348E+01  0.12750525431E+02  0.54103193525E+01  0.16726505310E+02  0.51100000000E-03 0. -1.
        -11    1    3    3    0    0  0.14216188652E+02  0.71638271160E+01 -0.42109095501E+01  0.16466699676E+02  0.51100000000E-03 0.  1.
        -12    1    3    3    0    0  0.14576088922E+02 -0.68929356672E+01 -0.63678843470E+01  0.17335653476E+02  0.00000000000E+00 0.  1.
</event>
<event>
 7    1  0.2969156E-011  0.5052886E+02  0.7816164E-02  0.1300439E+00
        -11   -1    0    0    0    0  0.00000000000E+00  0.00000000000E+00  0.45593999997E+02  0.45594000000E+02  0.51100000000E-03 0.  1.
         11   -1    0    0    0    0 -0.00000000000E+00 -0.00000000000E+00 -0.45593999997E+02  0.45594000000E+02  0.51100000000E-03 0. -1.
    9900012    2    1    2    0    0  0.19419005847E+02  0.31938416064E+02  0.16000170689E+02  0.50528859935E+02  0.30000000257E+02 0.  0.
         12    1    1    2    0    0 -0.19419005847E+02 -0.31938416064E+02 -0.16000170689E+02  0.40659140065E+02  0.00000000000E+00 0. -1.
         11    1    3    3    0    0  0.68954664651E+01  0.27862210177E+02  0.11943676784E+02  0.31088609314E+02  0.51100000000E-03 0. -1.
        -11    1    3    3    0    0  0.11094213769E+02  0.87464398034E+01  0.30975545281E+01  0.14462939974E+02  0.51100000000E-03 0.  1.
        -12    1    3    3    0    0  0.14293256136E+01 -0.46702339160E+01  0.95893937659E+00  0.49773106461E+01  0.00000000000E+00 0.  1.
</event>
<event>
 7    1  0.2969156E-011  0.5052886E+02  0.7816164E-02  0.1300439E+00
        -11   -1    0    0    0    0  0.00000000000E+00  0.00000000000E+00  0.45593999997E+02  0.45594000000E+02  0.51100000000E-03 0. -1.
         11   -1    0    0    0    0 -0.00000000000E+00 -0.00000000000E+00 -0.45593999997E+02  0.45594000000E+02  0.51100000000E-03 0.  1.
    9900012    2    1    2    0    0  0.11928927945E+02  0.16052237382E+02 -0.35400454062E+02  0.50528858412E+02  0.29999995628E+02 0.  0.
         12    1    1    2    0    0 -0.11928927945E+02 -0.16052237382E+02  0.35400454062E+02  0.40659141588E+02  0.00000000000E+00 0. -1.
         11    1    3    3    0    0 -0.11536813129E+01 -0.64032608345E+01 -0.11804639520E+01  0.66125808342E+01  0.51100000000E-03 0. -1.
        -11    1    3    3    0    0  0.91677322094E-01  0.44151409188E+01 -0.21952572823E+01  0.49316355158E+01  0.51100000000E-03 0.  1.
        -12    1    3    3    0    0  0.12990931936E+02  0.18040357297E+02 -0.32024732828E+02  0.38984642062E+02  0.00000000000E+00 0.  1.
</event>
<event>
 7    1  0.2969156E-011  0.5052886E+02  0.7816164E-02  0.1300439E+00
        -11   -1    0    0    0    0  0.00000000000E+00  0.00000000000E+00  0.45593999997E+02  0.45594000000E+02  0.51100000000E-03 0.  1.
         11   -1    0    0    0    0 -0.00000000000E+00 -0.00000000000E+00 -0.45593999997E+02  0.45594000000E+02  0.51100000000E-03 0. -1.
    9900012    2    1    2    0    0  0.36860825402E+02 -0.14064278361E+02  0.98306250737E+01  0.50528861243E+02  0.30000004234E+02 0.  0.
         12    1    1    2    0    0 -0.36860825402E+02  0.14064278361E+02 -0.98306250737E+01  0.40659138757E+02  0.00000000000E+00 0. -1.
         11    1    3    3    0    0 -0.22316421879E+01 -0.26082146509E+01  0.33295851083E+01  0.47821697768E+01  0.51100000000E-03 0. -1.
        -11    1    3    3    0    0  0.17610617717E+02 -0.11327065007E+02  0.11215252009E+02  0.23753276320E+02  0.51100000000E-03 0.  1.
         12    1    3    3    0    0  0.21481849873E+02 -0.12899870334E+00 -0.47142120433E+01  0.21993415146E+02  0.00000000000E+00 0. -1.
</event>
<event>
 7    1  0.2969156E-011  0.5052886E+02  0.7816164E-02  0.1300439E+00
        -11   -1    0    0    0    0  0.00000000000E+00  0.00000000000E+00  0.45593999997E+02  0.45594000000E+02  0.51100000000E-03 0. -1.
         11   -1    0    0    0    0 -0.00000000000E+00 -0.00000000000E+00 -0.45593999997E+02  0.45594000000E+02  0.51100000000E-03 0.  1.
    9900012    2    1    2    0    0 -0.12432992080E+02  0.34100429431E+02 -0.18323412432E+02  0.50528855609E+02  0.29999987108E+02 0.  0.
         12    1    1    2    0    0  0.12432992080E+02 -0.34100429431E+02  0.18323412432E+02  0.40659144391E+02  0.00000000000E+00 0. -1.
         11    1    3    3    0    0 -0.53993601362E+01  0.11516911578E+02  0.12736120222E+01  0.12783365363E+02  0.51100000000E-03 0. -1.
        -11    1    3    3    0    0 -0.32528623626E+01  0.13414328375E+02  0.20310829986E+01  0.13951724543E+02  0.51100000000E-03 0.  1.
         12    1    3    3    0    0 -0.37807695817E+01  0.91691894784E+01 -0.21628107453E+02  0.23793765703E+02  0.00000000000E+00 0. -1.
</event>
<event>
 7    1  0.2969156E-011  0.5052886E+02  0.7816164E-02  0.1300439E+00
        -11   -1    0    0    0    0  0.00000000000E+00  0.00000000000E+00  0.45593999997E+02  0.45594000000E+02  0.51100000000E-03 0. -1.
         11   -1    0    0    0    0 -0.00000000000E+00 -0.00000000000E+00 -0.45593999997E+02  0.45594000000E+02  0.51100000000E-03 0.  1.
    9900012    2    1    2    0    0 -0.31233381815E+02  0.26000688175E+02  0.12672671596E+01  0.50528857225E+02  0.29999992020E+02 0.  0.
         12    1    1    2    0    0  0.31233381815E+02 -0.26000688175E+02 -0.12672671596E+01  0.40659142775E+02  0.00000000000E+00 0. -1.
         11    1    3    3    0    0 -0.16042281268E+02  0.20417933861E+02  0.96748987693E+01  0.27710115083E+02  0.51100000000E-03 0. -1.
        -11    1    3    3    0    0 -0.37146488968E+01 -0.86033167132E+00  0.34212363047E+01  0.51228551731E+01  0.51100000000E-03 0.  1.
        -12    1    3    3    0    0 -0.11476451650E+02  0.64430859855E+01 -0.11828867914E+02  0.17695886969E+02  0.00000000000E+00 0.  1.
</event>
<event>
 7    1  0.2969156E-011  0.5052886E+02  0.7816164E-02  0.1300439E+00
        -11   -1    0    0    0    0  0.00000000000E+00  0.00000000000E+00  0.45593999997E+02  0.45594000000E+02  0.51100000000E-03 0.  1.
         11   -1    0    0    0    0 -0.00000000000E+00 -0.00000000000E+00 -0.45593999997E+02  0.45594000000E+02  0.51100000000E-03 0. -1.
    9900012    2    1    2    0    0  0.20746063458E+02 -0.17248050123E+02  0.30418276020E+02  0.50528857141E+02  0.29999991765E+02 0.  0.
         12    1    1    2    0    0 -0.20746063458E+02  0.17248050123E+02 -0.30418276020E+02  0.40659142859E+02  0.00000000000E+00 0. -1.
         11    1    3    3    0    0  0.54978039485E+01  0.40966212030E+01  0.71106695718E+01  0.98777414199E+01  0.51100000000E-03 0.  1.
        -11    1    3    3    0    0  0.13899827541E+00 -0.36609938870E+01 -0.35640063606E+01  0.51111973510E+01  0.51100000000E-03 0. -1.
         12    1    3    3    0    0  0.15109261234E+02 -0.17683677439E+02  0.26871612808E+02  0.35539918370E+02  0.00000000000E+00 0. -1.
</event>
<event>
 7    1  0.2969156E-011  0.5052887E+02  0.7816164E-02  0.1300439E+00
        -11   -1    0    0    0    0  0.00000000000E+00  0.00000000000E+00  0.45593999997E+02  0.45594000000E+02  0.51100000000E-03 0.  1.
         11   -1    0    0    0    0 -0.00000000000E+00 -0.00000000000E+00 -0.45593999997E+02  0.45594000000E+02  0.51100000000E-03 0. -1.
    9900012    2    1    2    0    0  0.31447794635E+02  0.21156865809E+02  0.14716937143E+02  0.50528868219E+02  0.30000025439E+02 0.  0.
         12    1    1    2    0    0 -0.31447794635E+02 -0.21156865809E+02 -0.14716937143E+02  0.40659131781E+02  0.00000000000E+00 0. -1.
         11    1    3    3    0    0  0.59567969766E+01  0.11506941803E+01 -0.32298227356E+01  0.68730839134E+01  0.51100000000E-03 0. -1.
        -11    1    3    3    0    0 -0.31469298784E+00  0.39297223532E+01 -0.44113808053E+01  0.59162513740E+01  0.51100000000E-03 0.  1.
        -12    1    3    3    0    0  0.25805690646E+02  0.16076449276E+02  0.22358140684E+02  0.37739532932E+02  0.00000000000E+00 0.  1.
</event>
<event>
 7    1  0.2969156E-011  0.5052886E+02  0.7816164E-02  0.1300439E+00
        -11   -1    0    0    0    0  0.00000000000E+00  0.00000000000E+00  0.45593999997E+02  0.45594000000E+02  0.51100000000E-03 0.  1.
         11   -1    0    0    0    0 -0.00000000000E+00 -0.00000000000E+00 -0.45593999997E+02  0.45594000000E+02  0.51100000000E-03 0. -1.
    9900012    2    1    2    0    0  0.31214150322E+02 -0.11223831229E+00  0.26054363700E+02  0.50528860246E+02  0.30000001203E+02 0.  0.
         12    1    1    2    0    0 -0.31214150322E+02  0.11223831229E+00 -0.26054363700E+02  0.40659139754E+02  0.00000000000E+00 0. -1.
         11    1    3    3    0    0  0.13503611478E+02  0.14062606286E+01  0.24068362091E+02  0.27633514904E+02  0.51100000000E-03 0. -1.
        -11    1    3    3    0    0  0.92173992434E+01 -0.50931572759E+01  0.67634302342E+01  0.12515777588E+02  0.51100000000E-03 0.  1.
         12    1    3    3    0    0  0.84931395999E+01  0.35746583350E+01 -0.47774286255E+01  0.10379567753E+02  0.00000000000E+00 0. -1.
</event>
<event>
 7    1  0.2969156E-011  0.5052886E+02  0.7816164E-02  0.1300439E+00
        -11   -1    0    0    0    0  0.00000000000E+00  0.00000000000E+00  0.45593999997E+02  0.45594000000E+02  0.51100000000E-03 0.  1.
         11   -1    0    0    0    0 -0.00000000000E+00 -0.00000000000E+00 -0.45593999997E+02  0.45594000000E+02  0.51100000000E-03 0. -1.
    9900012    2    1    2    0    0  0.35756045095E+02 -0.18477651699E+02  0.57660527815E+01  0.50528859111E+02  0.29999997754E+02 0.  0.
         12    1    1    2    0    0 -0.35756045095E+02  0.18477651699E+02 -0.57660527815E+01  0.40659140889E+02  0.00000000000E+00 0. -1.
         11    1    3    3    0    0  0.36137353294E+00 -0.48915690808E+01 -0.53100047683E+01  0.72287059563E+01  0.51100000000E-03 0. -1.
        -11    1    3    3    0    0  0.40901649110E+01  0.72138801537E+00 -0.39613662556E+01  0.57395359168E+01  0.51100000000E-03 0.  1.
        -12    1    3    3    0    0  0.31304506651E+02 -0.14307470633E+02  0.15037423805E+02  0.37560617238E+02  0.00000000000E+00 0.  1.
</event>
<event>
 7    1  0.2969156E-011  0.5052884E+02  0.7816164E-02  0.1300439E+00
        -11   -1    0    0    0    0  0.00000000000E+00  0.00000000000E+00  0.45593999997E+02  0.45594000000E+02  0.51100000000E-03 0. -1.
         11   -1    0    0    0    0 -0.00000000000E+00 -0.00000000000E+00 -0.45593999997E+02  0.45594000000E+02  0.51100000000E-03 0.  1.
    9900012    2    1    2    0    0 -0.10009101481E+02  0.38825238884E+02  0.67517135688E+01  0.50528844537E+02  0.29999953455E+02 0.  0.
         12    1    1    2    0    0  0.10009101481E+02 -0.38825238884E+02 -0.67517135688E+01  0.40659155463E+02  0.00000000000E+00 0. -1.
         11    1    3    3    0    0  0.28873918345E+00  0.23284423677E+01  0.17331330432E+01  0.29169786736E+01  0.51100000000E-03 0. -1.
        -11    1    3    3    0    0 -0.14854583140E+02  0.34924308494E+02 -0.31969383042E+01  0.38086564282E+02  0.51100000000E-03 0.  1.
         12    1    3    3    0    0  0.45567424757E+01  0.15724880219E+01  0.82155188298E+01  0.95253015812E+01  0.00000000000E+00 0. -1.
</event>
<event>
 7    1  0.2969156E-011  0.5052886E+02  0.7816164E-02  0.1300439E+00
        -11   -1    0    0    0    0  0.00000000000E+00  0.00000000000E+00  0.45593999997E+02  0.45594000000E+02  0.51100000000E-03 0. -1.
         11   -1    0    0    0    0 -0.00000000000E+00 -0.00000000000E+00 -0.45593999997E+02  0.45594000000E+02  0.51100000000E-03 0.  1.
    9900012    2    1    2    0    0 -0.14352135372E+02  0.10943504759E+02 -0.36433796334E+02  0.50528860788E+02  0.30000002851E+02 0.  0.
         12    1    1    2    0    0  0.14352135372E+02 -0.10943504759E+02  0.36433796334E+02  0.40659139212E+02  0.00000000000E+00 0. -1.
         11    1    3    3    0    0 -0.30094465078E+01  0.40051667906E+01 -0.24973360504E+02  0.25470902309E+02  0.51100000000E-03 0. -1.
        -11    1    3    3    0    0 -0.34390529807E+01  0.10068138323E+02 -0.12588955870E+02  0.16482606130E+02  0.51100000000E-03 0.  1.
         12    1    3    3    0    0 -0.79036358831E+01 -0.31298003544E+01  0.11285200395E+01  0.85753523490E+01  0.00000000000E+00 0. -1.
</event>
<event>
 7    1  0.2969156E-011  0.5052886E+02  0.7816164E-02  0.1300439E+00
        -11   -1    0    0    0    0  0.00000000000E+00  0.00000000000E+00  0.45593999997E+02  0.45594000000E+02  0.51100000000E-03 0.  1.
         11   -1    0    0    0    0 -0.00000000000E+00 -0.00000000000E+00 -0.45593999997E+02  0.45594000000E+02  0.51100000000E-03 0. -1.
    9900012    2    1    2    0    0 -0.30978486345E+02  0.15713249564E+02  0.21132744251E+02  0.50528859482E+02  0.29999998882E+02 0.  0.
         12    1    1    2    0    0  0.30978486345E+02 -0.15713249564E+02 -0.21132744251E+02  0.40659140518E+02  0.00000000000E+00 0. -1.
         11    1    3    3    0    0 -0.20682577113E+02  0.11931187322E+02  0.18182643166E+01  0.23946363238E+02  0.51100000000E-03 0.  1.
        -11    1    3    3    0    0 -0.52518699390E+01  0.93579443341E+01  0.11873670761E+02  0.16004290600E+02  0.51100000000E-03 0. -1.
        -12    1    3    3    0    0 -0.50440392927E+01 -0.55758820917E+01  0.74408091734E+01  0.10578205644E+02  0.00000000000E+00 0.  1.
</event>
<event>
 7    1  0.2969156E-011  0.5052884E+02  0.7816164E-02  0.1300439E+00
        -11   -1    0    0    0    0  0.00000000000E+00  0.00000000000E+00  0.45593999997E+02  0.45594000000E+02  0.51100000000E-03 0. -1.
         11   -1    0    0    0    0 -0.00000000000E+00 -0.00000000000E+00 -0.45593999997E+02  0.45594000000E+02  0.51100000000E-03 0.  1.
    9900012    2    1    2    0    0 -0.11157994451E+02  0.22745432081E+02 -0.31801127024E+02  0.50528841122E+02  0.29999943074E+02 0.  0.
         12    1    1    2    0    0  0.11157994451E+02 -0.22745432081E+02  0.31801127024E+02  0.40659158878E+02  0.00000000000E+00 0. -1.
         11    1    3    3    0    0 -0.70663399415E+01  0.83145071505E+01 -0.52170988315E+01  0.12094722395E+02  0.51100000000E-03 0. -1.
        -11    1    3    3    0    0 -0.34454566727E+01  0.19119310672E+02 -0.27443628485E+02  0.33623978898E+02  0.51100000000E-03 0.  1.
         12    1    3    3    0    0 -0.64619783685E+00 -0.46883857422E+01  0.85960029271E+00  0.48101398291E+01  0.00000000000E+00 0. -1.
</event>
<event>
 7    1  0.2969156E-011  0.5052887E+02  0.7816164E-02  0.1300439E+00
        -11   -1    0    0    0    0  0.00000000000E+00  0.00000000000E+00  0.45593999997E+02  0.45594000000E+02  0.51100000000E-03 0.  1.
         11   -1    0    0    0    0 -0.00000000000E+00 -0.00000000000E+00 -0.45593999997E+02  0.45594000000E+02  0.51100000000E-03 0. -1.
    9900012    2    1    2    0    0  0.25980633884E+02  0.29317674046E+02  0.10892438051E+02  0.50528873654E+02  0.30000041960E+02 0.  0.
         12    1    1    2    0    0 -0.25980633884E+02 -0.29317674046E+02 -0.10892438051E+02  0.40659126346E+02  0.00000000000E+00 0. -1.
         11    1    3    3    0    0  0.42779603091E+01  0.11784569456E+02  0.34965431391E+01  0.13015484465E+02  0.51100000000E-03 0. -1.
        -11    1    3    3    0    0  0.38154286130E+01  0.78775712661E+01 -0.81216065545E+01  0.11940440437E+02  0.51100000000E-03 0.  1.
        -12    1    3    3    0    0  0.17887244962E+02  0.96555333241E+01  0.15517501467E+02  0.25572948752E+02  0.00000000000E+00 0.  1.
</event>
<event>
 7    1  0.2969156E-011  0.5052885E+02  0.7816164E-02  0.1300439E+00
        -11   -1    0    0    0    0  0.00000000000E+00  0.00000000000E+00  0.45593999997E+02  0.45594000000E+02  0.51100000000E-03 0.  1.
         11   -1    0    0    0    0 -0.00000000000E+00 -0.00000000000E+00 -0.45593999997E+02  0.45594000000E+02  0.51100000000E-03 0. -1.
    9900012    2    1    2    0    0 -0.35495935182E+02 -0.13995776789E+02  0.14047189271E+02  0.50528847170E+02  0.29999961459E+02 0.  0.
         12    1    1    2    0    0  0.35495935182E+02  0.13995776789E+02 -0.14047189271E+02  0.40659152830E+02  0.00000000000E+00 0. -1.
         11    1    3    3    0    0 -0.21163419530E+02 -0.57453888953E+01 -0.34698162753E+01  0.22202239640E+02  0.51100000000E-03 0. -1.
        -11    1    3    3    0    0 -0.15040148805E+02 -0.97583618797E+01  0.98005138541E+01  0.20432370756E+02  0.51100000000E-03 0.  1.
         12    1    3    3    0    0  0.70763315246E+00  0.15079739862E+01  0.77164916922E+01  0.78942367748E+01  0.00000000000E+00 0. -1.
</event>
<event>
 7    1  0.2969156E-011  0.5052884E+02  0.7816164E-02  0.1300439E+00
        -11   -1    0    0    0    0  0.00000000000E+00  0.00000000000E+00  0.45593999997E+02  0.45594000000E+02  0.51100000000E-03 0. -1.
         11   -1    0    0    0    0 -0.00000000000E+00 -0.00000000000E+00 -0.45593999997E+02  0.45594000000E+02  0.51100000000E-03 0.  1.
    9900012    2    1    2    0    0  0.22548603993E+02  0.41894171299E+01 -0.33573449312E+02  0.50528840434E+02  0.29999940983E+02 0.  0.
         12    1    1    2    0    0 -0.22548603993E+02 -0.41894171299E+01  0.33573449312E+02  0.40659159566E+02  0.00000000000E+00 0. -1.
         11    1    3    3    0    0  0.71195805866E+01 -0.70488744375E+01 -0.14856621631E+02  0.17919103357E+02  0.51100000000E-03 0. -1.
        -11    1    3    3    0    0  0.19284613437E+02  0.61270674614E+01 -0.15178004874E+02  0.25294448073E+02  0.51100000000E-03 0.  1.
        -12    1    3    3    0    0 -0.38555900312E+01  0.51112241061E+01 -0.35388228064E+01  0.73152890036E+01  0.00000000000E+00 0.  1.
</event>
<event>
 7    1  0.2969156E-011  0.5052886E+02  0.7816164E-02  0.1300439E+00
        -11   -1    0    0    0    0  0.00000000000E+00  0.00000000000E+00  0.45593999997E+02  0.45594000000E+02  0.51100000000E-03 0.  1.
         11   -1    0    0    0    0 -0.00000000000E+00 -0.00000000000E+00 -0.45593999997E+02  0.45594000000E+02  0.51100000000E-03 0. -1.
    9900012    2    1    2    0    0  0.21671400157E+02 -0.30358929006E+02  0.16181820424E+02  0.50528862437E+02  0.30000007864E+02 0.  0.
         12    1    1    2    0    0 -0.21671400157E+02  0.30358929006E+02 -0.16181820424E+02  0.40659137563E+02  0.00000000000E+00 0. -1.
         11    1    3    3    0    0 -0.23786349474E+01 -0.68504253851E+01 -0.46077273476E+01  0.85917043559E+01  0.51100000000E-03 0.  1.
        -11    1    3    3    0    0  0.37792448529E-01 -0.42412707161E+01  0.70417292181E+01  0.82204474451E+01  0.51100000000E-03 0. -1.
        -12    1    3    3    0    0  0.24012242655E+02 -0.19267232905E+02  0.13747818553E+02  0.33716710636E+02  0.00000000000E+00 0.  1.
</event>
<event>
 7    1  0.2969156E-011  0.5052888E+02  0.7816164E-02  0.1300439E+00
        -11   -1    0    0    0    0  0.00000000000E+00  0.00000000000E+00  0.45593999997E+02  0.45594000000E+02  0.51100000000E-03 0.  1.
         11   -1    0    0    0    0 -0.00000000000E+00 -0.00000000000E+00 -0.45593999997E+02  0.45594000000E+02  0.51100000000E-03 0. -1.
    9900012    2    1    2    0    0 -0.28777555818E+01  0.26812940201E+02  0.30429407424E+02  0.50528879552E+02  0.30000059887E+02 0.  0.
         12    1    1    2    0    0  0.28777555818E+01 -0.26812940201E+02 -0.30429407424E+02  0.40659120448E+02  0.00000000000E+00 0. -1.
         11    1    3    3    0    0 -0.62878053000E+01  0.45699648049E+01  0.15678478479E+02  0.17499593181E+02  0.51100000000E-03 0.  1.
        -11    1    3    3    0    0  0.13660211727E+01  0.40175914773E+01 -0.46751747967E+01  0.63138193484E+01  0.51100000000E-03 0. -1.
         12    1    3    3    0    0  0.20440285455E+01  0.18225383919E+02  0.19426103742E+02  0.26715467023E+02  0.00000000000E+00 0. -1.
</event>
<event>
 7    1  0.2969156E-011  0.5052886E+02  0.7816164E-02  0.1300439E+00
        -11   -1    0    0    0    0  0.00000000000E+00  0.00000000000E+00  0.45593999997E+02  0.45594000000E+02  0.51100000000E-03 0. -1.
         11   -1    0    0    0    0 -0.00000000000E+00 -0.00000000000E+00 -0.45593999997E+02  0.45594000000E+02  0.51100000000E-03 0.  1.
    9900012    2    1    2    0    0  0.33310403394E+00 -0.23874161411E+02 -0.32910168249E+02  0.50528859385E+02  0.29999998587E+02 0.  0.
         12    1    1    2    0    0 -0.33310403394E+00  0.23874161411E+02  0.32910168249E+02  0.40659140615E+02  0.00000000000E+00 0. -1.
         11    1    3    3    0    0 -0.41113010011E+00 -0.95358975435E+01 -0.15657551797E+01  0.96723295779E+01  0.51100000000E-03 0.  1.
        -11    1    3    3    0    0 -0.98489717604E+01 -0.98764123171E+01 -0.12221286836E+02  0.18544692426E+02  0.51100000000E-03 0. -1.
         12    1    3    3    0    0  0.10593205894E+02 -0.44618515506E+01 -0.19123126233E+02  0.22311837381E+02  0.00000000000E+00 0. -1.
</event>
<event>
 7    1  0.2969156E-011  0.5052886E+02  0.7816164E-02  0.1300439E+00
        -11   -1    0    0    0    0  0.00000000000E+00  0.00000000000E+00  0.45593999997E+02  0.45594000000E+02  0.51100000000E-03 0.  1.
         11   -1    0    0    0    0 -0.00000000000E+00 -0.00000000000E+00 -0.45593999997E+02  0.45594000000E+02  0.51100000000E-03 0. -1.
    9900012    2    1    2    0    0 -0.69150247074E+01  0.91597120224E+01  0.39005736785E+02  0.50528863350E+02  0.30000010638E+02 0.  0.
         12    1    1    2    0    0  0.69150247074E+01 -0.91597120224E+01 -0.39005736785E+02  0.40659136650E+02  0.00000000000E+00 0. -1.
         11    1    3    3    0    0 -0.55671311182E+01 -0.68580739946E+00  0.31440746106E+02  0.31937185171E+02  0.51100000000E-03 0. -1.
        -11    1    3    3    0    0 -0.66960707906E+01  0.57873411649E+01  0.79088649929E+01  0.11869322960E+02  0.51100000000E-03 0.  1.
         12    1    3    3    0    0  0.53481772014E+01  0.40581782569E+01 -0.34387431436E+00  0.67223552187E+01  0.00000000000E+00 0. -1.
</event>
<event>
 7    1  0.2969156E-011  0.5052879E+02  0.7816164E-02  0.1300439E+00
        -11   -1    0    0    0    0  0.00000000000E+00  0.00000000000E+00  0.45593999997E+02  0.45594000000E+02  0.51100000000E-03 0.  1.
         11   -1    0    0    0    0 -0.00000000000E+00 -0.00000000000E+00 -0.45593999997E+02  0.45594000000E+02  0.51100000000E-03 0. -1.
    9900012    2    1    2    0    0  0.60669882988E+01  0.27432302761E+01  0.40110318946E+02  0.50528790153E+02  0.29999788150E+02 0.  0.
         12    1    1    2    0    0 -0.60669882988E+01 -0.27432302761E+01 -0.40110318946E+02  0.40659209847E+02  0.00000000000E+00 0. -1.
         11    1    3    3    0    0 -0.59896674265E+01 -0.35470095656E+01  0.24515523946E+02  0.25484668084E+02  0.51100000000E-03 0. -1.
        -11    1    3    3    0    0  0.31038052780E+01 -0.31840266358E+01 -0.33695036542E+00  0.44592789362E+01  0.51100000000E-03 0.  1.
        -12    1    3    3    0    0  0.89528504473E+01  0.94742664774E+01  0.15931745365E+02  0.20584843133E+02  0.00000000000E+00 0.  1.
</event>
<event>
 7    1  0.2969156E-011  0.5052891E+02  0.7816164E-02  0.1300439E+00
        -11   -1    0    0    0    0  0.00000000000E+00  0.00000000000E+00  0.45593999997E+02  0.45594000000E+02  0.51100000000E-03 0.  1.
         11   -1    0    0    0    0 -0.00000000000E+00 -0.00000000000E+00 -0.45593999997E+02  0.45594000000E+02  0.51100000000E-03 0. -1.
    9900012    2    1    2    0    0 -0.70036408971E+01 -0.58988840575E+01  0.39614564118E+02  0.50528911112E+02  0.30000155816E+02 0.  0.
         12    1    1    2    0    0  0.70036408971E+01  0.58988840575E+01 -0.39614564118E+02  0.40659088888E+02  0.00000000000E+00 0. -1.
         11    1    3    3    0    0 -0.58045289287E+01  0.21539726977E+01  0.46314399393E+00  0.62085954199E+01  0.51100000000E-03 0. -1.
        -11    1    3    3    0    0  0.32981293796E+01  0.44914234421E+01  0.21459041998E+02  0.22170724518E+02  0.51100000000E-03 0.  1.
        -12    1    3    3    0    0 -0.44972413479E+01 -0.12544280197E+02  0.17692378126E+02  0.22149591174E+02  0.00000000000E+00 0.  1.
</event>
<event>
 7    1  0.2969156E-011  0.5052889E+02  0.7816164E-02  0.1300439E+00
        -11   -1    0    0    0    0  0.00000000000E+00  0.00000000000E+00  0.45593999997E+02  0.45594000000E+02  0.51100000000E-03 0. -1.
         11   -1    0    0    0    0 -0.00000000000E+00 -0.00000000000E+00 -0.45593999997E+02  0.45594000000E+02  0.51100000000E-03 0.  1.
    9900012    2    1    2    0    0 -0.23489293938E+02 -0.25816447062E+02 -0.20854916061E+02  0.50528887952E+02  0.30000085418E+02 0.  0.
         12    1    1    2    0    0  0.23489293938E+02  0.25816447062E+02  0.20854916061E+02  0.40659112048E+02  0.00000000000E+00 0. -1.
         11    1    3    3    0    0 -0.62007062785E+01  0.26262350233E+01 -0.75010370554E+01  0.10080249298E+02  0.51100000000E-03 0. -1.
        -11    1    3    3    0    0 -0.73302239130E+01 -0.11425480632E+02 -0.15513192857E+02  0.20613901697E+02  0.51100000000E-03 0.  1.
         12    1    3    3    0    0 -0.99583637469E+01 -0.17017201453E+02  0.21593138518E+01  0.19834736956E+02  0.00000000000E+00 0. -1.
</event>
<event>
 7    1  0.2969156E-011  0.5052886E+02  0.7816164E-02  0.1300439E+00
        -11   -1    0    0    0    0  0.00000000000E+00  0.00000000000E+00  0.45593999997E+02  0.45594000000E+02  0.51100000000E-03 0.  1.
         11   -1    0    0    0    0 -0.00000000000E+00 -0.00000000000E+00 -0.45593999997E+02  0.45594000000E+02  0.51100000000E-03 0. -1.
    9900012    2    1    2    0    0 -0.13770016641E+02  0.26406620968E+02  0.27681089883E+02  0.50528859252E+02  0.29999998183E+02 0.  0.
         12    1    1    2    0    0  0.13770016641E+02 -0.26406620968E+02 -0.27681089883E+02  0.40659140748E+02  0.00000000000E+00 0. -1.
         11    1    3    3    0    0 -0.57852978249E+01  0.20749723860E+02  0.37954691705E+01  0.21872958138E+02  0.51100000000E-03 0. -1.
        -11    1    3    3    0    0 -0.10637074490E+01 -0.29935404211E+01  0.11749081643E+01  0.33872064072E+01  0.51100000000E-03 0.  1.
        -12    1    3    3    0    0 -0.69210113675E+01  0.86504375284E+01  0.22710712548E+02  0.25268694707E+02  0.00000000000E+00 0.  1.
</event>
<event>
 7    1  0.2969156E-011  0.5052884E+02  0.7816164E-02  0.1300439E+00
        -11   -1    0    0    0    0  0.00000000000E+00  0.00000000000E+00  0.45593999997E+02  0.45594000000E+02  0.51100000000E-03 0. -1.
         11   -1    0    0    0    0 -0.00000000000E+00 -0.00000000000E+00 -0.45593999997E+02  0.45594000000E+02  0.51100000000E-03 0.  1.
    9900012    2    1    2    0    0 -0.46063036384E+00 -0.37118356864E+02  0.16588630060E+02  0.50528840591E+02  0.29999941459E+02 0.  0.
         12    1    1    2    0    0  0.46063036384E+00  0.37118356864E+02 -0.16588630060E+02  0.40659159409E+02  0.00000000000E+00 0. -1.
         11    1    3    3    0    0  0.13153896363E+02 -0.16911925852E+02  0.10750850736E+02  0.23971212263E+02  0.51100000000E-03 0. -1.
        -11    1    3    3    0    0 -0.62733913064E+01 -0.70451560702E+01  0.65275376219E+01  0.11471635028E+02  0.51100000000E-03 0.  1.
        -12    1    3    3    0    0 -0.73411354202E+01 -0.13161274942E+02 -0.68975829784E+00  0.15085993300E+02  0.00000000000E+00 0.  1.
</event>
<event>
 7    1  0.2969156E-011  0.5052886E+02  0.7816164E-02  0.1300439E+00
        -11   -1    0    0    0    0  0.00000000000E+00  0.00000000000E+00  0.45593999997E+02  0.45594000000E+02  0.51100000000E-03 0.  1.
         11   -1    0    0    0    0 -0.00000000000E+00 -0.00000000000E+00 -0.45593999997E+02  0.45594000000E+02  0.51100000000E-03 0. -1.
    9900012    2    1    2    0    0  0.33079101706E+02 -0.22723881465E+02 -0.65240953375E+01  0.50528861071E+02  0.30000003710E+02 0.  0.
         12    1    1    2    0    0 -0.33079101706E+02  0.22723881465E+02  0.65240953375E+01  0.40659138929E+02  0.00000000000E+00 0. -1.
         11    1    3    3    0    0  0.59976109771E+01  0.20271346302E+01 -0.22291236549E+01  0.67119002355E+01  0.51100000000E-03 0. -1.
        -11    1    3    3    0    0  0.79349800035E+01 -0.52067802048E+01  0.92805848361E+01  0.13274175037E+02  0.51100000000E-03 0.  1.
        -12    1    3    3    0    0  0.19146510725E+02 -0.19544235890E+02 -0.13575556519E+02  0.30542785798E+02  0.00000000000E+00 0.  1.
</event>
<event>
 7    1  0.2969156E-011  0.5052886E+02  0.7816164E-02  0.1300439E+00
        -11   -1    0    0    0    0  0.00000000000E+00  0.00000000000E+00  0.45593999997E+02  0.45594000000E+02  0.51100000000E-03 0.  1.
         11   -1    0    0    0    0 -0.00000000000E+00 -0.00000000000E+00 -0.45593999997E+02  0.45594000000E+02  0.51100000000E-03 0. -1.
    9900012    2    1    2    0    0  0.13999853714E+02  0.56619048018E+00  0.38168693701E+02  0.50528860136E+02  0.30000000869E+02 0.  0.
         12    1    1    2    0    0 -0.13999853714E+02 -0.56619048018E+00 -0.38168693701E+02  0.40659139864E+02  0.00000000000E+00 0. -1.
         11    1    3    3    0    0  0.13940577240E+02 -0.24822745832E+01  0.14249074086E+02  0.20088242667E+02  0.51100000000E-03 0. -1.
        -11    1    3    3    0    0 -0.16938094196E+00 -0.64204849064E+00 -0.30994152243E+01  0.31697462299E+01  0.51100000000E-03 0.  1.
        -12    1    3    3    0    0  0.22865741653E+00  0.36905135541E+01  0.27019034839E+02  0.27270871239E+02  0.00000000000E+00 0.  1.
</event>
<event>
 7    1  0.2969156E-011  0.5052886E+02  0.7816164E-02  0.1300439E+00
        -11   -1    0    0    0    0  0.00000000000E+00  0.00000000000E+00  0.45593999997E+02  0.45594000000E+02  0.51100000000E-03 0.  1.
         11   -1    0    0    0    0 -0.00000000000E+00 -0.00000000000E+00 -0.45593999997E+02  0.45594000000E+02  0.51100000000E-03 0. -1.
    9900012    2    1    2    0    0  0.31982817775E+02 -0.22642345232E+02  0.10843863144E+02  0.50528858367E+02  0.29999995493E+02 0.  0.
         12    1    1    2    0    0 -0.31982817775E+02  0.22642345232E+02 -0.10843863144E+02  0.40659141633E+02  0.00000000000E+00 0. -1.
         11    1    3    3    0    0  0.18223417766E+00  0.36038393399E+01 -0.58609693245E+00  0.36557320961E+01  0.51100000000E-03 0. -1.
        -11    1    3    3    0    0  0.31724492912E+02 -0.18748715349E+02  0.53847906945E+01  0.37241827947E+02  0.51100000000E-03 0.  1.
         12    1    3    3    0    0  0.76090685269E-01 -0.74974692236E+01  0.60451693821E+01  0.96312983242E+01  0.00000000000E+00 0. -1.
</event>
<event>
 7    1  0.2969156E-011  0.5052887E+02  0.7816164E-02  0.1300439E+00
        -11   -1    0    0    0    0  0.00000000000E+00  0.00000000000E+00  0.45593999997E+02  0.45594000000E+02  0.51100000000E-03 0.  1.
         11   -1    0    0    0    0 -0.00000000000E+00 -0.00000000000E+00 -0.45593999997E+02  0.45594000000E+02  0.51100000000E-03 0. -1.
    9900012    2    1    2    0    0  0.38783987729E+02  0.88377862912E+01 -0.84178783388E+01  0.50528870073E+02  0.30000031073E+02 0.  0.
         12    1    1    2    0    0 -0.38783987729E+02 -0.88377862912E+01  0.84178783388E+01  0.40659129927E+02  0.00000000000E+00 0. -1.
         11    1    3    3    0    0  0.26257508757E+02  0.49508726478E+01 -0.10816917853E+02  0.28826613020E+02  0.51100000000E-03 0. -1.
        -11    1    3    3    0    0 -0.55284381403E+00  0.15675692174E+01 -0.58395027509E+01  0.60714662293E+01  0.51100000000E-03 0.  1.
        -12    1    3    3    0    0  0.13079322786E+02  0.23193444260E+01  0.82385422652E+01  0.15630790824E+02  0.00000000000E+00 0.  1.
</event>
<event>
 7    1  0.2969156E-011  0.5052885E+02  0.7816164E-02  0.1300439E+00
        -11   -1    0    0    0    0  0.00000000000E+00  0.00000000000E+00  0.45593999997E+02  0.45594000000E+02  0.51100000000E-03 0.  1.
         11   -1    0    0    0    0 -0.00000000000E+00 -0.00000000000E+00 -0.45593999997E+02  0.45594000000E+02  0.51100000000E-03 0. -1.
    9900012    2    1    2    0    0 -0.30889873234E+02  0.56645460163E+01  0.25824313948E+02  0.50528849236E+02  0.29999967738E+02 0.  0.
         12    1    1    2    0    0  0.30889873234E+02 -0.56645460163E+01 -0.25824313948E+02  0.40659150764E+02  0.00000000000E+00 0. -1.
         11    1    3    3    0    0 -0.16552235160E+02  0.47221402600E+01  0.21406266228E+01  0.17345240847E+02  0.51100000000E-03 0. -1.
        -11    1    3    3    0    0  0.42861480343E+01  0.16691481171E+01  0.49737487566E+01  0.67746068051E+01  0.51100000000E-03 0.  1.
         12    1    3    3    0    0 -0.18623786107E+02 -0.72674236080E+00  0.18709938568E+02  0.26409001584E+02  0.00000000000E+00 0. -1.
</event>
<event>
 7    1  0.2969156E-011  0.5052890E+02  0.7816164E-02  0.1300439E+00
        -11   -1    0    0    0    0  0.00000000000E+00  0.00000000000E+00  0.45593999997E+02  0.45594000000E+02  0.51100000000E-03 0. -1.
         11   -1    0    0    0    0 -0.00000000000E+00 -0.00000000000E+00 -0.45593999997E+02  0.45594000000E+02  0.51100000000E-03 0.  1.
    9900012    2    1    2    0    0 -0.12595741166E+02 -0.33836744843E+01 -0.38510529089E+02  0.50528895248E+02  0.30000107595E+02 0.  0.
         12    1    1    2    0    0  0.12595741166E+02  0.33836744843E+01  0.38510529089E+02  0.40659104752E+02  0.00000000000E+00 0. -1.
         11    1    3    3    0    0 -0.15617540129E+01 -0.72846134799E+01 -0.12153717305E+01  0.75486288723E+01  0.51100000000E-03 0. -1.
        -11    1    3    3    0    0 -0.13716615868E+02 -0.26734887770E+01 -0.21240124093E+02  0.25425105011E+02  0.51100000000E-03 0.  1.
         12    1    3    3    0    0  0.26826287144E+01  0.65744277726E+01 -0.16055033266E+02  0.17555161364E+02  0.00000000000E+00 0. -1.
</event>
<event>
 7    1  0.2969156E-011  0.5052886E+02  0.7816164E-02  0.1300439E+00
        -11   -1    0    0    0    0  0.00000000000E+00  0.00000000000E+00  0.45593999997E+02  0.45594000000E+02  0.51100000000E-03 0.  1.
         11   -1    0    0    0    0 -0.00000000000E+00 -0.00000000000E+00 -0.45593999997E+02  0.45594000000E+02  0.51100000000E-03 0. -1.
    9900012    2    1    2    0    0  0.39027771883E+02  0.76482679581E+01  0.84559221680E+01  0.50528860798E+02  0.30000002883E+02 0.  0.
         12    1    1    2    0    0 -0.39027771883E+02 -0.76482679581E+01 -0.84559221680E+01  0.40659139202E+02  0.00000000000E+00 0. -1.
         11    1    3    3    0    0  0.16610360368E+02 -0.46046901387E+01  0.12635870656E+02  0.21372235970E+02  0.51100000000E-03 0. -1.
        -11    1    3    3    0    0  0.17713465665E+02  0.65376901667E+01  0.26725099717E+01  0.19069624233E+02  0.51100000000E-03 0.  1.
         12    1    3    3    0    0  0.47039458498E+01  0.57152679302E+01 -0.68524584601E+01  0.10087000596E+02  0.00000000000E+00 0. -1.
</event>
<event>
 7    1  0.2969156E-011  0.5052886E+02  0.7816164E-02  0.1300439E+00
        -11   -1    0    0    0    0  0.00000000000E+00  0.00000000000E+00  0.45593999997E+02  0.45594000000E+02  0.51100000000E-03 0.  1.
         11   -1    0    0    0    0 -0.00000000000E+00 -0.00000000000E+00 -0.45593999997E+02  0.45594000000E+02  0.51100000000E-03 0. -1.
    9900012    2    1    2    0    0 -0.17805194594E+02 -0.19276000931E+02  0.31057630469E+02  0.50528861092E+02  0.30000003774E+02 0.  0.
         12    1    1    2    0    0  0.17805194594E+02  0.19276000931E+02 -0.31057630469E+02  0.40659138908E+02  0.00000000000E+00 0. -1.
         11    1    3    3    0    0 -0.44151840856E+01  0.36726279984E+01 -0.47234668546E+00  0.57623917410E+01  0.51100000000E-03 0. -1.
        -11    1    3    3    0    0  0.16171941714E+01 -0.26488009279E+01  0.13223293025E+02  0.13582597029E+02  0.51100000000E-03 0.  1.
        -12    1    3    3    0    0 -0.15007204680E+02 -0.20299828002E+02  0.18306684129E+02  0.31183872322E+02  0.00000000000E+00 0.  1.
</event>
<event>
 7    1  0.2969156E-011  0.5052886E+02  0.7816164E-02  0.1300439E+00
        -11   -1    0    0    0    0  0.00000000000E+00  0.00000000000E+00  0.45593999997E+02  0.45594000000E+02  0.51100000000E-03 0.  1.
         11   -1    0    0    0    0 -0.00000000000E+00 -0.00000000000E+00 -0.45593999997E+02  0.45594000000E+02  0.51100000000E-03 0. -1.
    9900012    2    1    2    0    0  0.93200545443E+01 -0.34437083272E+02  0.19503567671E+02  0.50528864828E+02  0.30000015132E+02 0.  0.
         12    1    1    2    0    0 -0.93200545443E+01  0.34437083272E+02 -0.19503567671E+02  0.40659135172E+02  0.00000000000E+00 0. -1.
         11    1    3    3    0    0  0.42819901175E+01 -0.33303583319E+01 -0.46682433002E+01  0.71567605630E+01  0.51100000000E-03 0. -1.
        -11    1    3    3    0    0  0.92986988384E+01 -0.78302220702E+01  0.61237163136E+01  0.13611689076E+02  0.51100000000E-03 0.  1.
        -12    1    3    3    0    0 -0.42606344116E+01 -0.23276502870E+02  0.18048094658E+02  0.29760415189E+02  0.00000000000E+00 0.  1.
</event>
<event>
 7    1  0.2969156E-011  0.5052886E+02  0.7816164E-02  0.1300439E+00
        -11   -1    0    0    0    0  0.00000000000E+00  0.00000000000E+00  0.45593999997E+02  0.45594000000E+02  0.51100000000E-03 0.  1.
         11   -1    0    0    0    0 -0.00000000000E+00 -0.00000000000E+00 -0.45593999997E+02  0.45594000000E+02  0.51100000000E-03 0. -1.
    9900012    2    1    2    0    0 -0.14173525469E+02  0.17669216496E+02  0.33765003857E+02  0.50528861774E+02  0.30000005849E+02 0.  0.
         12    1    1    2    0    0  0.14173525469E+02 -0.17669216496E+02 -0.33765003857E+02  0.40659138226E+02  0.00000000000E+00 0. -1.
         11    1    3    3    0    0  0.31233478706E+01  0.52064153406E+01 -0.97567716776E-01  0.60721974886E+01  0.51100000000E-03 0. -1.
        -11    1    3    3    0    0 -0.69189093770E+00  0.66205310872E+00 -0.25550786479E+01  0.27286360231E+01  0.51100000000E-03 0.  1.
        -12    1    3    3    0    0 -0.16604982402E+02  0.11800748046E+02  0.36417650222E+02  0.41728028263E+02  0.00000000000E+00 0.  1.
</event>
<event>
 7    1  0.2969156E-011  0.5052885E+02  0.7816164E-02  0.1300439E+00
        -11   -1    0    0    0    0  0.00000000000E+00  0.00000000000E+00  0.45593999997E+02  0.45594000000E+02  0.51100000000E-03 0.  1.
         11   -1    0    0    0    0 -0.00000000000E+00 -0.00000000000E+00 -0.45593999997E+02  0.45594000000E+02  0.51100000000E-03 0. -1.
    9900012    2    1    2    0    0  0.27619337972E+02  0.21365631283E+02  0.20829026056E+02  0.50528851502E+02  0.29999974626E+02 0.  0.
         12    1    1    2    0    0 -0.27619337972E+02 -0.21365631283E+02 -0.20829026056E+02  0.40659148498E+02  0.00000000000E+00 0. -1.
         11    1    3    3    0    0  0.13132401440E+01 -0.94038508439E+00  0.36708198497E+01  0.40104666079E+01  0.51100000000E-03 0. -1.
        -11    1    3    3    0    0  0.27341033570E+02  0.81044412507E+01  0.81106648327E+01  0.29647883043E+02  0.51100000000E-03 0.  1.
         12    1    3    3    0    0 -0.10349357420E+01  0.14201575117E+02  0.90475413734E+01  0.16870501851E+02  0.00000000000E+00 0. -1.
</event>
<event>
 7    1  0.2969156E-011  0.5052887E+02  0.7816164E-02  0.1300439E+00
        -11   -1    0    0    0    0  0.00000000000E+00  0.00000000000E+00  0.45593999997E+02  0.45594000000E+02  0.51100000000E-03 0.  1.
         11   -1    0    0    0    0 -0.00000000000E+00 -0.00000000000E+00 -0.45593999997E+02  0.45594000000E+02  0.51100000000E-03 0. -1.
    9900012    2    1    2    0    0  0.14041911598E+02 -0.33211316530E+02  0.18788246504E+02  0.50528867770E+02  0.30000024074E+02 0.  0.
         12    1    1    2    0    0 -0.14041911598E+02  0.33211316530E+02 -0.18788246504E+02  0.40659132230E+02  0.00000000000E+00 0. -1.
         11    1    3    3    0    0  0.16505159378E+02 -0.18303071998E+02  0.15108708892E+02  0.28908403887E+02  0.51100000000E-03 0. -1.
        -11    1    3    3    0    0 -0.38968189789E+01 -0.11746960432E+02  0.89754268024E+01  0.15288380035E+02  0.51100000000E-03 0.  1.
         12    1    3    3    0    0  0.14335711998E+01 -0.31612841004E+01 -0.52958891903E+01  0.63320838485E+01  0.00000000000E+00 0. -1.
</event>
<event>
 7    1  0.2969156E-011  0.5052886E+02  0.7816164E-02  0.1300439E+00
        -11   -1    0    0    0    0  0.00000000000E+00  0.00000000000E+00  0.45593999997E+02  0.45594000000E+02  0.51100000000E-03 0.  1.
         11   -1    0    0    0    0 -0.00000000000E+00 -0.00000000000E+00 -0.45593999997E+02  0.45594000000E+02  0.51100000000E-03 0. -1.
    9900012    2    1    2    0    0  0.38570046629E+01  0.21081652152E+02  0.34552181452E+02  0.50528858525E+02  0.29999995972E+02 0.  0.
         12    1    1    2    0    0 -0.38570046629E+01 -0.21081652152E+02 -0.34552181452E+02  0.40659141475E+02  0.00000000000E+00 0. -1.
         11    1    3    3    0    0 -0.64167166932E+01  0.58128858360E+01  0.98980653308E+01  0.13150497801E+02  0.51100000000E-03 0. -1.
        -11    1    3    3    0    0  0.64071555302E+01  0.16114597737E+02  0.27494532436E+02  0.32506633420E+02  0.51100000000E-03 0.  1.
        -12    1    3    3    0    0  0.38665658259E+01 -0.84583142074E+00 -0.28404163147E+01  0.48717273035E+01  0.00000000000E+00 0.  1.
</event>
<event>
 7    1  0.2969156E-011  0.5052886E+02  0.7816164E-02  0.1300439E+00
        -11   -1    0    0    0    0  0.00000000000E+00  0.00000000000E+00  0.45593999997E+02  0.45594000000E+02  0.51100000000E-03 0.  1.
         11   -1    0    0    0    0 -0.00000000000E+00 -0.00000000000E+00 -0.45593999997E+02  0.45594000000E+02  0.51100000000E-03 0. -1.
    9900012    2    1    2    0    0  0.21253944781E+02 -0.33677400723E+02  0.82016989114E+01  0.50528863840E+02  0.30000012129E+02 0.  0.
         12    1    1    2    0    0 -0.21253944781E+02  0.33677400723E+02 -0.82016989114E+01  0.40659136160E+02  0.00000000000E+00 0. -1.
         11    1    3    3    0    0  0.12568924260E+02 -0.10541725900E+02  0.70738853012E+01  0.17864649326E+02  0.51100000000E-03 0. -1.
        -11    1    3    3    0    0 -0.17719152544E+01 -0.68636917161E+01  0.92770054275E+01  0.11675306317E+02  0.51100000000E-03 0.  1.
         12    1    3    3    0    0  0.10456935776E+02 -0.16271983107E+02 -0.81491918174E+01  0.20988908197E+02  0.00000000000E+00 0. -1.
</event>
<event>
 7    1  0.2969156E-011  0.5052886E+02  0.7816164E-02  0.1300439E+00
        -11   -1    0    0    0    0  0.00000000000E+00  0.00000000000E+00  0.45593999997E+02  0.45594000000E+02  0.51100000000E-03 0.  1.
         11   -1    0    0    0    0 -0.00000000000E+00 -0.00000000000E+00 -0.45593999997E+02  0.45594000000E+02  0.51100000000E-03 0. -1.
    9900012    2    1    2    0    0 -0.29997468304E+02 -0.15949801722E+02  0.22336553206E+02  0.50528857255E+02  0.29999992113E+02 0.  0.
         12    1    1    2    0    0  0.29997468304E+02  0.15949801722E+02 -0.22336553206E+02  0.40659142745E+02  0.00000000000E+00 0. -1.
         11    1    3    3    0    0 -0.15155822671E+02 -0.13289794778E+01  0.25061071482E+01  0.15419005175E+02  0.51100000000E-03 0. -1.
        -11    1    3    3    0    0 -0.48133112063E+01 -0.55953158704E+01 -0.34927677291E+01  0.81654731111E+01  0.51100000000E-03 0.  1.
        -12    1    3    3    0    0 -0.10028334426E+02 -0.90255063741E+01  0.23323213786E+02  0.26944378969E+02  0.00000000000E+00 0.  1.
</event>
<event>
 7    1  0.2969156E-011  0.5052889E+02  0.7816164E-02  0.1300439E+00
        -11   -1    0    0    0    0  0.00000000000E+00  0.00000000000E+00  0.45593999997E+02  0.45594000000E+02  0.51100000000E-03 0.  1.
         11   -1    0    0    0    0 -0.00000000000E+00 -0.00000000000E+00 -0.45593999997E+02  0.45594000000E+02  0.51100000000E-03 0. -1.
    9900012    2    1    2    0    0  0.22756340687E+02 -0.33607697610E+02 -0.24155566273E+01  0.50528889165E+02  0.30000089105E+02 0.  0.
         12    1    1    2    0    0 -0.22756340687E+02  0.33607697610E+02  0.24155566273E+01  0.40659110835E+02  0.00000000000E+00 0. -1.
         11    1    3    3    0    0  0.22706304818E+02 -0.12590523843E+02 -0.54381444273E+01  0.26526797474E+02  0.51100000000E-03 0. -1.
        -11    1    3    3    0    0  0.44336033173E+01 -0.17687216569E+02  0.31030157586E+01  0.18496571991E+02  0.51100000000E-03 0.  1.
        -12    1    3    3    0    0 -0.43835674489E+01 -0.33299571972E+01 -0.80427958614E-01  0.55055197004E+01  0.00000000000E+00 0.  1.
</event>
<event>
 7    1  0.2969156E-011  0.5052886E+02  0.7816164E-02  0.1300439E+00
        -11   -1    0    0    0    0  0.00000000000E+00  0.00000000000E+00  0.45593999997E+02  0.45594000000E+02  0.51100000000E-03 0.  1.
         11   -1    0    0    0    0 -0.00000000000E+00 -0.00000000000E+00 -0.45593999997E+02  0.45594000000E+02  0.51100000000E-03 0. -1.
    9900012    2    1    2    0    0 -0.19975944905E+02  0.15719023583E+02  0.31733892461E+02  0.50528855789E+02  0.29999987657E+02 0.  0.
         12    1    1    2    0    0  0.19975944905E+02 -0.15719023583E+02 -0.31733892461E+02  0.40659144211E+02  0.00000000000E+00 0. -1.
         11    1    3    3    0    0 -0.57195309526E+01  0.94657993947E+01  0.47300007609E+01  0.12028603408E+02  0.51100000000E-03 0. -1.
        -11    1    3    3    0    0 -0.91884188866E+01 -0.78471238819E+01  0.89397728184E+01  0.15030766220E+02  0.51100000000E-03 0.  1.
         12    1    3    3    0    0 -0.50679950659E+01  0.14100348070E+02  0.18064118881E+02  0.23469486161E+02  0.00000000000E+00 0. -1.
</event>
<event>
 7    1  0.2969156E-011  0.5052886E+02  0.7816164E-02  0.1300439E+00
        -11   -1    0    0    0    0  0.00000000000E+00  0.00000000000E+00  0.45593999997E+02  0.45594000000E+02  0.51100000000E-03 0. -1.
         11   -1    0    0    0    0 -0.00000000000E+00 -0.00000000000E+00 -0.45593999997E+02  0.45594000000E+02  0.51100000000E-03 0.  1.
    9900012    2    1    2    0    0  0.19554339026E+02  0.19337054561E+02 -0.29947824065E+02  0.50528855641E+02  0.29999987205E+02 0.  0.
         12    1    1    2    0    0 -0.19554339026E+02 -0.19337054561E+02  0.29947824065E+02  0.40659144359E+02  0.00000000000E+00 0. -1.
         11    1    3    3    0    0  0.64098994660E+01  0.85427301855E+01 -0.26637593706E+01  0.11007300506E+02  0.51100000000E-03 0. -1.
        -11    1    3    3    0    0  0.12369429050E+02  0.13245605714E+02 -0.30454939032E+02  0.35439415309E+02  0.51100000000E-03 0.  1.
         12    1    3    3    0    0  0.77501050926E+00 -0.24512813389E+01  0.31708743372E+01  0.40821398254E+01  0.00000000000E+00 0. -1.
</event>
<event>
 7    1  0.2969156E-011  0.5052886E+02  0.7816164E-02  0.1300439E+00
        -11   -1    0    0    0    0  0.00000000000E+00  0.00000000000E+00  0.45593999997E+02  0.45594000000E+02  0.51100000000E-03 0.  1.
         11   -1    0    0    0    0 -0.00000000000E+00 -0.00000000000E+00 -0.45593999997E+02  0.45594000000E+02  0.51100000000E-03 0. -1.
    9900012    2    1    2    0    0  0.32105759176E+02  0.24114363063E+02  0.63939989625E+01  0.50528862024E+02  0.30000006607E+02 0.  0.
         12    1    1    2    0    0 -0.32105759176E+02 -0.24114363063E+02 -0.63939989625E+01  0.40659137976E+02  0.00000000000E+00 0. -1.
         11    1    3    3    0    0  0.22555110486E+02  0.10781456414E+02  0.79673066576E+00  0.25012148877E+02  0.51100000000E-03 0.  1.
        -11    1    3    3    0    0  0.43824079810E+01 -0.24299899071E+01  0.72855460253E+01  0.88424844816E+01  0.51100000000E-03 0. -1.
         12    1    3    3    0    0  0.51682407096E+01  0.15762896557E+02 -0.16882777285E+01  0.16674228665E+02  0.00000000000E+00 0. -1.
</event>
<event>
 7    1  0.2969156E-011  0.5052888E+02  0.7816164E-02  0.1300439E+00
        -11   -1    0    0    0    0  0.00000000000E+00  0.00000000000E+00  0.45593999997E+02  0.45594000000E+02  0.51100000000E-03 0.  1.
         11   -1    0    0    0    0 -0.00000000000E+00 -0.00000000000E+00 -0.45593999997E+02  0.45594000000E+02  0.51100000000E-03 0. -1.
    9900012    2    1    2    0    0  0.28858066317E+02  0.18295436622E+02  0.22037535649E+02  0.50528880847E+02  0.30000063824E+02 0.  0.
         12    1    1    2    0    0 -0.28858066317E+02 -0.18295436622E+02 -0.22037535649E+02  0.40659119153E+02  0.00000000000E+00 0. -1.
         11    1    3    3    0    0  0.83891800136E+01 -0.10783521763E+01  0.12116213705E+01  0.85445427803E+01  0.51100000000E-03 0. -1.
        -11    1    3    3    0    0  0.16984594115E+02  0.14441112481E+02  0.25844911887E+02  0.34131827341E+02  0.51100000000E-03 0.  1.
         12    1    3    3    0    0  0.34842921883E+01  0.49326763179E+01 -0.50189976082E+01  0.78525107260E+01  0.00000000000E+00 0. -1.
</event>
<event>
 7    1  0.2969156E-011  0.5052886E+02  0.7816164E-02  0.1300439E+00
        -11   -1    0    0    0    0  0.00000000000E+00  0.00000000000E+00  0.45593999997E+02  0.45594000000E+02  0.51100000000E-03 0.  1.
         11   -1    0    0    0    0 -0.00000000000E+00 -0.00000000000E+00 -0.45593999997E+02  0.45594000000E+02  0.51100000000E-03 0. -1.
    9900012    2    1    2    0    0  0.97572645201E+01  0.11765336255E+02  0.37676765038E+02  0.50528856234E+02  0.29999989008E+02 0.  0.
         12    1    1    2    0    0 -0.97572645201E+01 -0.11765336255E+02 -0.37676765038E+02  0.40659143766E+02  0.00000000000E+00 0. -1.
         11    1    3    3    0    0  0.32303888190E+01 -0.51845351535E+01  0.86235225983E+00  0.61691545905E+01  0.51100000000E-03 0. -1.
        -11    1    3    3    0    0  0.28409147189E+01 -0.23602406436E+01  0.15907030031E+01  0.40214261949E+01  0.51100000000E-03 0.  1.
        -12    1    3    3    0    0  0.36859609822E+01  0.19310112052E+02  0.35223709775E+02  0.40338275448E+02  0.00000000000E+00 0.  1.
</event>
<event>
 7    1  0.2969156E-011  0.5052887E+02  0.7816164E-02  0.1300439E+00
        -11   -1    0    0    0    0  0.00000000000E+00  0.00000000000E+00  0.45593999997E+02  0.45594000000E+02  0.51100000000E-03 0.  1.
         11   -1    0    0    0    0 -0.00000000000E+00 -0.00000000000E+00 -0.45593999997E+02  0.45594000000E+02  0.51100000000E-03 0. -1.
    9900012    2    1    2    0    0 -0.15783964010E+02  0.12631628951E+02  0.35277092469E+02  0.50528870362E+02  0.30000031953E+02 0.  0.
         12    1    1    2    0    0  0.15783964010E+02 -0.12631628951E+02 -0.35277092469E+02  0.40659129638E+02  0.00000000000E+00 0. -1.
         11    1    3    3    0    0  0.30278622605E+01 -0.18661652596E+01 -0.56556693933E+00  0.36014426094E+01  0.51100000000E-03 0. -1.
        -11    1    3    3    0    0 -0.17220508730E+02  0.56643762926E+01  0.12781166784E+02  0.22180831912E+02  0.51100000000E-03 0.  1.
         12    1    3    3    0    0 -0.15913175409E+01  0.88334179178E+01  0.23061492625E+02  0.24746595841E+02  0.00000000000E+00 0. -1.
</event>
<event>
 7    1  0.2969156E-011  0.5052886E+02  0.7816164E-02  0.1300439E+00
        -11   -1    0    0    0    0  0.00000000000E+00  0.00000000000E+00  0.45593999997E+02  0.45594000000E+02  0.51100000000E-03 0.  1.
         11   -1    0    0    0    0 -0.00000000000E+00 -0.00000000000E+00 -0.45593999997E+02  0.45594000000E+02  0.51100000000E-03 0. -1.
    9900012    2    1    2    0    0 -0.33822242696E+01 -0.34678306996E+02  0.20955706004E+02  0.50528855503E+02  0.29999986787E+02 0.  0.
         12    1    1    2    0    0  0.33822242696E+01  0.34678306996E+02 -0.20955706004E+02  0.40659144497E+02  0.00000000000E+00 0. -1.
         11    1    3    3    0    0 -0.45948350452E+01 -0.14918033805E+01  0.71982522305E+01  0.86690727217E+01  0.51100000000E-03 0. -1.
        -11    1    3    3    0    0 -0.76856058258E+00  0.26851686134E+01  0.35392578824E+01  0.45085654559E+01  0.51100000000E-03 0.  1.
        -12    1    3    3    0    0  0.19811713582E+01 -0.35871672228E+02  0.10218195891E+02  0.37351217325E+02  0.00000000000E+00 0.  1.
</event>
<event>
 7    1  0.2969156E-011  0.5052887E+02  0.7816164E-02  0.1300439E+00
        -11   -1    0    0    0    0  0.00000000000E+00  0.00000000000E+00  0.45593999997E+02  0.45594000000E+02  0.51100000000E-03 0.  1.
         11   -1    0    0    0    0 -0.00000000000E+00 -0.00000000000E+00 -0.45593999997E+02  0.45594000000E+02  0.51100000000E-03 0. -1.
    9900012    2    1    2    0    0 -0.34115701783E+02 -0.20845682613E+02  0.73987464616E+01  0.50528867681E+02  0.30000023804E+02 0.  0.
         12    1    1    2    0    0  0.34115701783E+02  0.20845682613E+02 -0.73987464616E+01  0.40659132319E+02  0.00000000000E+00 0. -1.
         11    1    3    3    0    0 -0.79486285755E+01  0.23765759633E+01  0.64293841290E+01  0.10495989238E+02  0.51100000000E-03 0.  1.
        -11    1    3    3    0    0 -0.80799588935E+01 -0.13753239151E+02 -0.78684658871E+01  0.17786232838E+02  0.51100000000E-03 0. -1.
         12    1    3    3    0    0 -0.18087114314E+02 -0.94690194244E+01  0.88378282198E+01  0.22246645606E+02  0.00000000000E+00 0. -1.
</event>
<event>
 7    1  0.2969156E-011  0.5052885E+02  0.7816164E-02  0.1300439E+00
        -11   -1    0    0    0    0  0.00000000000E+00  0.00000000000E+00  0.45593999997E+02  0.45594000000E+02  0.51100000000E-03 0.  1.
         11   -1    0    0    0    0 -0.00000000000E+00 -0.00000000000E+00 -0.45593999997E+02  0.45594000000E+02  0.51100000000E-03 0. -1.
    9900012    2    1    2    0    0  0.95599001612E+01  0.14736393893E+02  0.36668970084E+02  0.50528851422E+02  0.29999974382E+02 0.  0.
         12    1    1    2    0    0 -0.95599001612E+01 -0.14736393893E+02 -0.36668970084E+02  0.40659148578E+02  0.00000000000E+00 0. -1.
         11    1    3    3    0    0  0.12359068266E+02  0.31917201372E+01  0.57505801920E+01  0.14000100665E+02  0.51100000000E-03 0. -1.
        -11    1    3    3    0    0  0.81999672359E+00 -0.36369975940E+01  0.76610626091E+01  0.85200954623E+01  0.51100000000E-03 0.  1.
         12    1    3    3    0    0 -0.36191648283E+01  0.15181671350E+02  0.23257327283E+02  0.28008655294E+02  0.00000000000E+00 0. -1.
</event>
<event>
 7    1  0.2969156E-011  0.5052885E+02  0.7816164E-02  0.1300439E+00
        -11   -1    0    0    0    0  0.00000000000E+00  0.00000000000E+00  0.45593999997E+02  0.45594000000E+02  0.51100000000E-03 0.  1.
         11   -1    0    0    0    0 -0.00000000000E+00 -0.00000000000E+00 -0.45593999997E+02  0.45594000000E+02  0.51100000000E-03 0. -1.
    9900012    2    1    2    0    0  0.12996414009E+02  0.10191153732E+02  0.37153732709E+02  0.50528852865E+02  0.29999978769E+02 0.  0.
         12    1    1    2    0    0 -0.12996414009E+02 -0.10191153732E+02 -0.37153732709E+02  0.40659147135E+02  0.00000000000E+00 0. -1.
         11    1    3    3    0    0  0.93554645068E+01  0.81343731851E+01  0.37748723736E+01  0.12959259429E+02  0.51100000000E-03 0. -1.
        -11    1    3    3    0    0  0.10290201450E+02  0.24582407138E+01  0.20200837045E+02  0.22803618372E+02  0.51100000000E-03 0.  1.
        -12    1    3    3    0    0 -0.66492519475E+01 -0.40146016691E+00  0.13178023291E+02  0.14765975064E+02  0.00000000000E+00 0.  1.
</event>
<event>
 7    1  0.2969156E-011  0.5052886E+02  0.7816164E-02  0.1300439E+00
        -11   -1    0    0    0    0  0.00000000000E+00  0.00000000000E+00  0.45593999997E+02  0.45594000000E+02  0.51100000000E-03 0.  1.
         11   -1    0    0    0    0 -0.00000000000E+00 -0.00000000000E+00 -0.45593999997E+02  0.45594000000E+02  0.51100000000E-03 0. -1.
    9900012    2    1    2    0    0  0.21387549766E+02  0.32527185804E+02 -0.11735436412E+02  0.50528861186E+02  0.30000004061E+02 0.  0.
         12    1    1    2    0    0 -0.21387549766E+02 -0.32527185804E+02  0.11735436412E+02  0.40659138814E+02  0.00000000000E+00 0. -1.
         11    1    3    3    0    0 -0.17608842542E+01 -0.75200687829E+00  0.11041811172E+01  0.22103040294E+01  0.51100000000E-03 0. -1.
        -11    1    3    3    0    0  0.16575553861E+02  0.33175141491E+02 -0.39972773846E+01  0.37300364951E+02  0.51100000000E-03 0.  1.
         12    1    3    3    0    0  0.65728801596E+01  0.10405119087E+00 -0.88423401443E+01  0.11018192205E+02  0.00000000000E+00 0. -1.
</event>
<event>
 7    1  0.2969156E-011  0.5052886E+02  0.7816164E-02  0.1300439E+00
        -11   -1    0    0    0    0  0.00000000000E+00  0.00000000000E+00  0.45593999997E+02  0.45594000000E+02  0.51100000000E-03 0. -1.
         11   -1    0    0    0    0 -0.00000000000E+00 -0.00000000000E+00 -0.45593999997E+02  0.45594000000E+02  0.51100000000E-03 0.  1.
    9900012    2    1    2    0    0 -0.21897560728E+02 -0.32302000479E+02 -0.11412412246E+02  0.50528861371E+02  0.30000004623E+02 0.  0.
         12    1    1    2    0    0  0.21897560728E+02  0.32302000479E+02  0.11412412246E+02  0.40659138629E+02  0.00000000000E+00 0. -1.
         11    1    3    3    0    0 -0.16197064421E+02 -0.26378177177E+02  0.60657930081E+00  0.30959991372E+02  0.51100000000E-03 0. -1.
        -11    1    3    3    0    0  0.16164245737E+01 -0.53555035322E+01 -0.12814919971E+00  0.55955937097E+01  0.51100000000E-03 0.  1.
        -12    1    3    3    0    0 -0.73169208804E+01 -0.56831977008E+00 -0.11890842347E+02  0.13973276289E+02  0.00000000000E+00 0.  1.
</event>
<event>
 7    1  0.2969156E-011  0.5052886E+02  0.7816164E-02  0.1300439E+00
        -11   -1    0    0    0    0  0.00000000000E+00  0.00000000000E+00  0.45593999997E+02  0.45594000000E+02  0.51100000000E-03 0. -1.
         11   -1    0    0    0    0 -0.00000000000E+00 -0.00000000000E+00 -0.45593999997E+02  0.45594000000E+02  0.51100000000E-03 0.  1.
    9900012    2    1    2    0    0 -0.30029667004E+02  0.24500137454E+02 -0.12293398026E+02  0.50528864856E+02  0.30000015215E+02 0.  0.
         12    1    1    2    0    0  0.30029667004E+02 -0.24500137454E+02  0.12293398026E+02  0.40659135144E+02  0.00000000000E+00 0. -1.
         11    1    3    3    0    0 -0.52027677632E+01  0.10170492516E+02 -0.11145350109E+02  0.15960154752E+02  0.51100000000E-03 0. -1.
        -11    1    3    3    0    0 -0.18909219604E+02  0.17772689942E+02  0.36534962070E+01  0.26206394804E+02  0.51100000000E-03 0.  1.
         12    1    3    3    0    0 -0.59176796371E+01 -0.34430450040E+01 -0.48015441248E+01  0.83623152996E+01  0.00000000000E+00 0. -1.
</event>
<event>
 7    1  0.2969156E-011  0.5052887E+02  0.7816164E-02  0.1300439E+00
        -11   -1    0    0    0    0  0.00000000000E+00  0.00000000000E+00  0.45593999997E+02  0.45594000000E+02  0.51100000000E-03 0. -1.
         11   -1    0    0    0    0 -0.00000000000E+00 -0.00000000000E+00 -0.45593999997E+02  0.45594000000E+02  0.51100000000E-03 0.  1.
    9900012    2    1    2    0    0  0.10939884425E+02 -0.38235132931E+02 -0.84592402791E+01  0.50528865632E+02  0.30000017574E+02 0.  0.
         12    1    1    2    0    0 -0.10939884425E+02  0.38235132931E+02  0.84592402791E+01  0.40659134368E+02  0.00000000000E+00 0. -1.
         11    1    3    3    0    0  0.36596950856E+01  0.34461383323E+01  0.26499311068E+01  0.56825498376E+01  0.51100000000E-03 0. -1.
        -11    1    3    3    0    0 -0.15819351536E+01 -0.74816931729E+01 -0.45955477219E+01  0.89217324937E+01  0.51100000000E-03 0.  1.
        -12    1    3    3    0    0  0.88621244935E+01 -0.34199578090E+02 -0.65136236640E+01  0.35924583301E+02  0.00000000000E+00 0.  1.
</event>
<event>
 7    1  0.2969156E-011  0.5052886E+02  0.7816164E-02  0.1300439E+00
        -11   -1    0    0    0    0  0.00000000000E+00  0.00000000000E+00  0.45593999997E+02  0.45594000000E+02  0.51100000000E-03 0.  1.
         11   -1    0    0    0    0 -0.00000000000E+00 -0.00000000000E+00 -0.45593999997E+02  0.45594000000E+02  0.51100000000E-03 0. -1.
    9900012    2    1    2    0    0  0.94238069495E+01 -0.99664859763E+01  0.38275669377E+02  0.50528857776E+02  0.29999993695E+02 0.  0.
         12    1    1    2    0    0 -0.94238069495E+01  0.99664859763E+01 -0.38275669377E+02  0.40659142224E+02  0.00000000000E+00 0. -1.
         11    1    3    3    0    0  0.33014296398E+01 -0.64469076753E+01  0.11324751946E+02  0.13442918699E+02  0.51100000000E-03 0. -1.
        -11    1    3    3    0    0 -0.66520298353E+01  0.26794698322E+00 -0.39246273819E+00  0.66689822145E+01  0.51100000000E-03 0.  1.
        -12    1    3    3    0    0  0.12774407145E+02 -0.37875252843E+01  0.27343380169E+02  0.30416956862E+02  0.00000000000E+00 0.  1.
</event>
<event>
 7    1  0.3218982E-011  0.5052887E+02  0.7816164E-02  0.1300439E+00
        -11   -1    0    0    0    0  0.00000000000E+00  0.00000000000E+00  0.45593999997E+02  0.45594000000E+02  0.51100000000E-03 0.  1.
         11   -1    0    0    0    0 -0.00000000000E+00 -0.00000000000E+00 -0.45593999997E+02  0.45594000000E+02  0.51100000000E-03 0. -1.
    9900012    2    1    2    0    0 -0.18274239767E+02 -0.36032744214E+02  0.45671137248E+01  0.50528867908E+02  0.30000024493E+02 0.  0.
         12    1    1    2    0    0  0.18274239767E+02  0.36032744214E+02 -0.45671137248E+01  0.40659132092E+02  0.00000000000E+00 0. -1.
         11    1    3    3    0    0 -0.13954997675E+01  0.28201295836E+01  0.27329501604E+00  0.31583604760E+01  0.51100000000E-03 0. -1.
        -11    1    3    3    0    0 -0.20675180778E+01 -0.12745542589E+02 -0.77148649466E+01  0.15041363911E+02  0.51100000000E-03 0.  1.
        -12    1    3    3    0    0 -0.14811221922E+02 -0.26107331209E+02  0.12008683655E+02  0.32329143521E+02  0.00000000000E+00 0.  1.
</event>
<event>
 7    1  0.2969156E-011  0.5052886E+02  0.7816164E-02  0.1300439E+00
        -11   -1    0    0    0    0  0.00000000000E+00  0.00000000000E+00  0.45593999997E+02  0.45594000000E+02  0.51100000000E-03 0.  1.
         11   -1    0    0    0    0 -0.00000000000E+00 -0.00000000000E+00 -0.45593999997E+02  0.45594000000E+02  0.51100000000E-03 0. -1.
    9900012    2    1    2    0    0 -0.36596143984E+02 -0.17209795399E+02 -0.42084674554E+01  0.50528855758E+02  0.29999987562E+02 0.  0.
         12    1    1    2    0    0  0.36596143984E+02  0.17209795399E+02  0.42084674554E+01  0.40659144242E+02  0.00000000000E+00 0. -1.
         11    1    3    3    0    0  0.52953533719E+00  0.18052844173E+01 -0.10846520669E+01  0.21716191812E+01  0.51100000000E-03 0. -1.
        -11    1    3    3    0    0 -0.25062641008E+02 -0.82429864794E+01  0.92882695660E+01  0.27970605145E+02  0.51100000000E-03 0.  1.
         12    1    3    3    0    0 -0.12063038313E+02 -0.10772093337E+02 -0.12412084955E+02  0.20386631431E+02  0.00000000000E+00 0. -1.
</event>
<event>
 7    1  0.2969156E-011  0.5052886E+02  0.7816164E-02  0.1300439E+00
        -11   -1    0    0    0    0  0.00000000000E+00  0.00000000000E+00  0.45593999997E+02  0.45594000000E+02  0.51100000000E-03 0.  1.
         11   -1    0    0    0    0 -0.00000000000E+00 -0.00000000000E+00 -0.45593999997E+02  0.45594000000E+02  0.51100000000E-03 0. -1.
    9900012    2    1    2    0    0  0.15889775157E+02  0.33168637262E+02  0.17335565974E+02  0.50528864495E+02  0.30000014119E+02 0.  0.
         12    1    1    2    0    0 -0.15889775157E+02 -0.33168637262E+02 -0.17335565974E+02  0.40659135505E+02  0.00000000000E+00 0. -1.
         11    1    3    3    0    0  0.62592886273E+01  0.23403931959E+02  0.13737418016E+01  0.24265405252E+02  0.51100000000E-03 0. -1.
        -11    1    3    3    0    0  0.87818173373E+00  0.10296217274E+02  0.13786257990E+02  0.17229167216E+02  0.51100000000E-03 0.  1.
         12    1    3    3    0    0  0.87523047958E+01 -0.53151197055E+00  0.21755661821E+01  0.90342920269E+01  0.00000000000E+00 0. -1.
</event>
<event>
 7    1  0.2969156E-011  0.5052886E+02  0.7816164E-02  0.1300439E+00
        -11   -1    0    0    0    0  0.00000000000E+00  0.00000000000E+00  0.45593999997E+02  0.45594000000E+02  0.51100000000E-03 0.  1.
         11   -1    0    0    0    0 -0.00000000000E+00 -0.00000000000E+00 -0.45593999997E+02  0.45594000000E+02  0.51100000000E-03 0. -1.
    9900012    2    1    2    0    0  0.21240528916E+02 -0.56483050617E+01  0.34206757773E+02  0.50528859625E+02  0.29999999316E+02 0.  0.
         12    1    1    2    0    0 -0.21240528916E+02  0.56483050617E+01 -0.34206757773E+02  0.40659140375E+02  0.00000000000E+00 0. -1.
         11    1    3    3    0    0 -0.11537992643E+01  0.53858985982E+01  0.17216609778E+01  0.57708988239E+01  0.51100000000E-03 0. -1.
        -11    1    3    3    0    0  0.13877830074E+02  0.22328399313E+01  0.98108615557E+01  0.17141550293E+02  0.51100000000E-03 0.  1.
        -12    1    3    3    0    0  0.85164981063E+01 -0.13267043591E+02  0.22674235239E+02  0.27616410508E+02  0.00000000000E+00 0.  1.
</event>
<event>
 7    1  0.2969156E-011  0.5052887E+02  0.7816164E-02  0.1300439E+00
        -11   -1    0    0    0    0  0.00000000000E+00  0.00000000000E+00  0.45593999997E+02  0.45594000000E+02  0.51100000000E-03 0.  1.
         11   -1    0    0    0    0 -0.00000000000E+00 -0.00000000000E+00 -0.45593999997E+02  0.45594000000E+02  0.51100000000E-03 0. -1.
    9900012    2    1    2    0    0  0.29965936218E+02  0.24655008633E+01  0.27370221794E+02  0.50528867336E+02  0.30000022754E+02 0.  0.
         12    1    1    2    0    0 -0.29965936218E+02 -0.24655008633E+01 -0.27370221794E+02  0.40659132664E+02  0.00000000000E+00 0. -1.
         11    1    3    3    0    0  0.16716637966E+02 -0.35697732489E+01  0.10071361279E+02  0.19839898795E+02  0.51100000000E-03 0. -1.
        -11    1    3    3    0    0  0.38596390007E+01 -0.49461791657E+01  0.14734660743E+02  0.16014734747E+02  0.51100000000E-03 0.  1.
        -12    1    3    3    0    0  0.93896592517E+01  0.10981453278E+02  0.25641997722E+01  0.14674233794E+02  0.00000000000E+00 0.  1.
</event>
<event>
 7    1  0.2969156E-011  0.5052888E+02  0.7816164E-02  0.1300439E+00
        -11   -1    0    0    0    0  0.00000000000E+00  0.00000000000E+00  0.45593999997E+02  0.45594000000E+02  0.51100000000E-03 0.  1.
         11   -1    0    0    0    0 -0.00000000000E+00 -0.00000000000E+00 -0.45593999997E+02  0.45594000000E+02  0.51100000000E-03 0. -1.
    9900012    2    1    2    0    0  0.34865656760E+02  0.11688160527E+02  0.17347533916E+02  0.50528879857E+02  0.30000060812E+02 0.  0.
         12    1    1    2    0    0 -0.34865656760E+02 -0.11688160527E+02 -0.17347533916E+02  0.40659120143E+02  0.00000000000E+00 0. -1.
         11    1    3    3    0    0  0.14867797040E+02  0.23101575549E+01 -0.76273017027E+00  0.15065522704E+02  0.51100000000E-03 0. -1.
        -11    1    3    3    0    0  0.21601084023E+02  0.12411336186E+02  0.10347633710E+02  0.26976315918E+02  0.51100000000E-03 0.  1.
         12    1    3    3    0    0 -0.16032243025E+01 -0.30333332138E+01  0.77626303769E+01  0.84870412346E+01  0.00000000000E+00 0. -1.
</event>
<event>
 7    1  0.2969156E-011  0.5052887E+02  0.7816164E-02  0.1300439E+00
        -11   -1    0    0    0    0  0.00000000000E+00  0.00000000000E+00  0.45593999997E+02  0.45594000000E+02  0.51100000000E-03 0.  1.
         11   -1    0    0    0    0 -0.00000000000E+00 -0.00000000000E+00 -0.45593999997E+02  0.45594000000E+02  0.51100000000E-03 0. -1.
    9900012    2    1    2    0    0  0.40555685484E+02  0.28395694494E+01  0.58139628038E+00  0.50528870627E+02  0.30000032758E+02 0.  0.
         12    1    1    2    0    0 -0.40555685484E+02 -0.28395694494E+01 -0.58139628038E+00  0.40659129373E+02  0.00000000000E+00 0. -1.
         11    1    3    3    0    0  0.20709935998E+02 -0.62842704758E+01  0.75787674533E+01  0.22931010026E+02  0.51100000000E-03 0. -1.
        -11    1    3    3    0    0  0.19202440890E+02  0.70271612169E+01 -0.19298539812E+00  0.20448764621E+02  0.51100000000E-03 0.  1.
         12    1    3    3    0    0  0.64330859578E+00  0.20966787084E+01 -0.68043857748E+01  0.71490959797E+01  0.00000000000E+00 0. -1.
</event>
<event>
 7    1  0.2969156E-011  0.5052886E+02  0.7816164E-02  0.1300439E+00
        -11   -1    0    0    0    0  0.00000000000E+00  0.00000000000E+00  0.45593999997E+02  0.45594000000E+02  0.51100000000E-03 0.  1.
         11   -1    0    0    0    0 -0.00000000000E+00 -0.00000000000E+00 -0.45593999997E+02  0.45594000000E+02  0.51100000000E-03 0. -1.
    9900012    2    1    2    0    0  0.21073560232E+01 -0.11438265952E+02  0.38960114113E+02  0.50528863646E+02  0.30000011538E+02 0.  0.
         12    1    1    2    0    0 -0.21073560232E+01  0.11438265952E+02 -0.38960114113E+02  0.40659136354E+02  0.00000000000E+00 0. -1.
         11    1    3    3    0    0 -0.65943886680E+00  0.34456542546E+01  0.20188378479E+02  0.20490925278E+02  0.51100000000E-03 0.  1.
        -11    1    3    3    0    0 -0.50827371689E+01 -0.37674320118E+00  0.64174336552E-01  0.50970845760E+01  0.51100000000E-03 0. -1.
         12    1    3    3    0    0  0.78495320589E+01 -0.14507177005E+02  0.18707561297E+02  0.24940853792E+02  0.00000000000E+00 0. -1.
</event>
<event>
 7    1  0.2969156E-011  0.5052885E+02  0.7816164E-02  0.1300439E+00
        -11   -1    0    0    0    0  0.00000000000E+00  0.00000000000E+00  0.45593999997E+02  0.45594000000E+02  0.51100000000E-03 0. -1.
         11   -1    0    0    0    0 -0.00000000000E+00 -0.00000000000E+00 -0.45593999997E+02  0.45594000000E+02  0.51100000000E-03 0.  1.
    9900012    2    1    2    0    0 -0.38936595081E+02  0.90232888905E+01 -0.74624406991E+01  0.50528853427E+02  0.29999980476E+02 0.  0.
         12    1    1    2    0    0  0.38936595081E+02 -0.90232888905E+01  0.74624406991E+01  0.40659146573E+02  0.00000000000E+00 0. -1.
         11    1    3    3    0    0  0.96253715800E+00  0.53834989044E+01  0.21344852379E+00  0.54730337809E+01  0.51100000000E-03 0. -1.
        -11    1    3    3    0    0 -0.31988744059E+02 -0.18049392690E+01  0.10834268799E+01  0.32057937649E+02  0.51100000000E-03 0.  1.
         12    1    3    3    0    0 -0.79103881799E+01  0.54447292551E+01 -0.87593161027E+01  0.12997881997E+02  0.00000000000E+00 0. -1.
</event>
<event>
 7    1  0.3571973E-011  0.5052884E+02  0.7816164E-02  0.1300439E+00
        -11   -1    0    0    0    0  0.00000000000E+00  0.00000000000E+00  0.45593999997E+02  0.45594000000E+02  0.51100000000E-03 0. -1.
         11   -1    0    0    0    0 -0.00000000000E+00 -0.00000000000E+00 -0.45593999997E+02  0.45594000000E+02  0.51100000000E-03 0.  1.
    9900012    2    1    2    0    0  0.26213094877E+01  0.27393251741E+02 -0.29931680806E+02  0.50528843341E+02  0.29999949819E+02 0.  0.
         12    1    1    2    0    0 -0.26213094877E+01 -0.27393251741E+02  0.29931680806E+02  0.40659156659E+02  0.00000000000E+00 0. -1.
         11    1    3    3    0    0 -0.76917221931E+01  0.70450470342E+01 -0.63310861537E+01  0.12201554416E+02  0.51100000000E-03 0. -1.
        -11    1    3    3    0    0  0.16909484014E-01  0.18121210501E+02 -0.87585895686E+01  0.20126883699E+02  0.51100000000E-03 0.  1.
        -12    1    3    3    0    0  0.10296122197E+02  0.22269942054E+01 -0.14842005084E+02  0.18200405226E+02  0.00000000000E+00 0.  1.
</event>
<event>
 7    1  0.2969156E-011  0.5052887E+02  0.7816164E-02  0.1300439E+00
        -11   -1    0    0    0    0  0.00000000000E+00  0.00000000000E+00  0.45593999997E+02  0.45594000000E+02  0.51100000000E-03 0.  1.
         11   -1    0    0    0    0 -0.00000000000E+00 -0.00000000000E+00 -0.45593999997E+02  0.45594000000E+02  0.51100000000E-03 0. -1.
    9900012    2    1    2    0    0  0.12890120559E+02 -0.36146837836E+02  0.13431897965E+02  0.50528868474E+02  0.30000026212E+02 0.  0.
         12    1    1    2    0    0 -0.12890120559E+02  0.36146837836E+02 -0.13431897965E+02  0.40659131526E+02  0.00000000000E+00 0. -1.
         11    1    3    3    0    0  0.21222950310E+02 -0.24737850843E+02  0.77942006707E+01  0.33513048929E+02  0.51100000000E-03 0. -1.
        -11    1    3    3    0    0 -0.29258481829E+01 -0.81687620175E+01  0.18143470271E+00  0.86788351350E+01  0.51100000000E-03 0.  1.
        -12    1    3    3    0    0 -0.54069815684E+01 -0.32402249752E+01  0.54562625914E+01  0.83369844091E+01  0.00000000000E+00 0.  1.
</event>
<event>
 7    1  0.2969156E-011  0.5052886E+02  0.7816164E-02  0.1300439E+00
        -11   -1    0    0    0    0  0.00000000000E+00  0.00000000000E+00  0.45593999997E+02  0.45594000000E+02  0.51100000000E-03 0. -1.
         11   -1    0    0    0    0 -0.00000000000E+00 -0.00000000000E+00 -0.45593999997E+02  0.45594000000E+02  0.51100000000E-03 0.  1.
    9900012    2    1    2    0    0 -0.20333422133E+02 -0.32343204075E+02 -0.13915279204E+02  0.50528857107E+02  0.29999991661E+02 0.  0.
         12    1    1    2    0    0  0.20333422133E+02  0.32343204075E+02  0.13915279204E+02  0.40659142893E+02  0.00000000000E+00 0. -1.
         11    1    3    3    0    0  0.24242619415E+01 -0.14018798613E+02 -0.10146957093E+02  0.17474681657E+02  0.51100000000E-03 0. -1.
        -11    1    3    3    0    0 -0.37413092694E+00 -0.21762006684E+01 -0.49585818302E+01  0.54280159660E+01  0.51100000000E-03 0.  1.
         12    1    3    3    0    0 -0.22383553148E+02 -0.16148204794E+02  0.11902597196E+01  0.27626159483E+02  0.00000000000E+00 0. -1.
</event>
<event>
 7    1  0.2969156E-011  0.5052886E+02  0.7816164E-02  0.1300439E+00
        -11   -1    0    0    0    0  0.00000000000E+00  0.00000000000E+00  0.45593999997E+02  0.45594000000E+02  0.51100000000E-03 0.  1.
         11   -1    0    0    0    0 -0.00000000000E+00 -0.00000000000E+00 -0.45593999997E+02  0.45594000000E+02  0.51100000000E-03 0. -1.
    9900012    2    1    2    0    0 -0.73692027048E+01 -0.18985810962E+02  0.35190900079E+02  0.50528860624E+02  0.30000002354E+02 0.  0.
         12    1    1    2    0    0  0.73692027048E+01  0.18985810962E+02 -0.35190900079E+02  0.40659139376E+02  0.00000000000E+00 0. -1.
         11    1    3    3    0    0 -0.52430321465E+01 -0.16735936826E+01  0.78619648629E+00  0.55595329912E+01  0.51100000000E-03 0.  1.
        -11    1    3    3    0    0 -0.52646844028E+01 -0.22037591515E+02  0.23303344455E+02  0.32502587661E+02  0.51100000000E-03 0. -1.
        -12    1    3    3    0    0  0.31385138446E+01  0.47253742352E+01  0.11101359138E+02  0.12466739972E+02  0.00000000000E+00 0.  1.
</event>
<event>
 7    1  0.2969156E-011  0.5052887E+02  0.7816164E-02  0.1300439E+00
        -11   -1    0    0    0    0  0.00000000000E+00  0.00000000000E+00  0.45593999997E+02  0.45594000000E+02  0.51100000000E-03 0.  1.
         11   -1    0    0    0    0 -0.00000000000E+00 -0.00000000000E+00 -0.45593999997E+02  0.45594000000E+02  0.51100000000E-03 0. -1.
    9900012    2    1    2    0    0 -0.84974482302E+01  0.39212832755E+02  0.65811935892E+01  0.50528868330E+02  0.30000025776E+02 0.  0.
         12    1    1    2    0    0  0.84974482302E+01 -0.39212832755E+02 -0.65811935892E+01  0.40659131670E+02  0.00000000000E+00 0. -1.
         11    1    3    3    0    0 -0.45886298484E+01  0.13326948691E+02 -0.33507842333E+00  0.14098771688E+02  0.51100000000E-03 0. -1.
        -11    1    3    3    0    0  0.87985268548E+01  0.44803616374E+01 -0.18364454895E+01  0.10042920268E+02  0.51100000000E-03 0.  1.
         12    1    3    3    0    0 -0.12707345237E+02  0.21405522427E+02  0.87527175019E+01  0.26387176374E+02  0.00000000000E+00 0. -1.
</event>
<event>
 7    1  0.2969156E-011  0.5052887E+02  0.7816164E-02  0.1300439E+00
        -11   -1    0    0    0    0  0.00000000000E+00  0.00000000000E+00  0.45593999997E+02  0.45594000000E+02  0.51100000000E-03 0. -1.
         11   -1    0    0    0    0 -0.00000000000E+00 -0.00000000000E+00 -0.45593999997E+02  0.45594000000E+02  0.51100000000E-03 0.  1.
    9900012    2    1    2    0    0 -0.54152922577E+01 -0.39121068565E+02 -0.96634050822E+01  0.50528870722E+02  0.30000033046E+02 0.  0.
         12    1    1    2    0    0  0.54152922577E+01  0.39121068565E+02  0.96634050822E+01  0.40659129278E+02  0.00000000000E+00 0. -1.
         11    1    3    3    0    0  0.31464641557E+01 -0.26500400178E+02  0.11144600170E+01  0.26709800967E+02  0.51100000000E-03 0. -1.
        -11    1    3    3    0    0  0.25689351081E+00 -0.97731862802E+01 -0.10778795340E+02  0.14552099285E+02  0.51100000000E-03 0.  1.
        -12    1    3    3    0    0 -0.88186499243E+01 -0.28474821060E+01  0.93024103322E-03  0.92669704702E+01  0.00000000000E+00 0.  1.
</event>
<event>
 7    1  0.2969156E-011  0.5052889E+02  0.7816164E-02  0.1300439E+00
        -11   -1    0    0    0    0  0.00000000000E+00  0.00000000000E+00  0.45593999997E+02  0.45594000000E+02  0.51100000000E-03 0.  1.
         11   -1    0    0    0    0 -0.00000000000E+00 -0.00000000000E+00 -0.45593999997E+02  0.45594000000E+02  0.51100000000E-03 0. -1.
    9900012    2    1    2    0    0  0.33741900235E+02  0.18619320015E+02  0.12960269555E+02  0.50528886677E+02  0.30000081542E+02 0.  0.
         12    1    1    2    0    0 -0.33741900235E+02 -0.18619320015E+02 -0.12960269555E+02  0.40659113323E+02  0.00000000000E+00 0. -1.
         11    1    3    3    0    0  0.16482082689E+02  0.27046818713E+01 -0.11581043503E+01  0.16742627027E+02  0.51100000000E-03 0. -1.
        -11    1    3    3    0    0  0.20877710187E+02  0.87078350264E+01  0.10788386147E+02  0.25061812573E+02  0.51100000000E-03 0.  1.
         12    1    3    3    0    0 -0.36178926414E+01  0.72068031172E+01  0.33299877582E+01  0.87244470773E+01  0.00000000000E+00 0. -1.
</event>
<event>
 7    1  0.2969156E-011  0.5052886E+02  0.7816164E-02  0.1300439E+00
        -11   -1    0    0    0    0  0.00000000000E+00  0.00000000000E+00  0.45593999997E+02  0.45594000000E+02  0.51100000000E-03 0. -1.
         11   -1    0    0    0    0 -0.00000000000E+00 -0.00000000000E+00 -0.45593999997E+02  0.45594000000E+02  0.51100000000E-03 0.  1.
    9900012    2    1    2    0    0 -0.84871993017E+01 -0.39280425703E+02  0.61790712140E+01  0.50528864292E+02  0.30000013503E+02 0.  0.
         12    1    1    2    0    0  0.84871993017E+01  0.39280425703E+02 -0.61790712140E+01  0.40659135708E+02  0.00000000000E+00 0. -1.
         11    1    3    3    0    0 -0.23009125421E+01  0.10578567962E+01 -0.29029521673E+00  0.25490255200E+01  0.51100000000E-03 0. -1.
        -11    1    3    3    0    0  0.32114961018E+01 -0.32480617407E+02  0.11682488912E+02  0.34666767398E+02  0.51100000000E-03 0.  1.
         12    1    3    3    0    0 -0.93977828613E+01 -0.78576650920E+01 -0.52131224818E+01  0.13313071374E+02  0.00000000000E+00 0. -1.
</event>
<event>
 7    1  0.2969156E-011  0.5052886E+02  0.7816164E-02  0.1300439E+00
        -11   -1    0    0    0    0  0.00000000000E+00  0.00000000000E+00  0.45593999997E+02  0.45594000000E+02  0.51100000000E-03 0. -1.
         11   -1    0    0    0    0 -0.00000000000E+00 -0.00000000000E+00 -0.45593999997E+02  0.45594000000E+02  0.51100000000E-03 0.  1.
    9900012    2    1    2    0    0 -0.18576014619E+02 -0.35442567877E+02 -0.72056859756E+01  0.50528857766E+02  0.29999993665E+02 0.  0.
         12    1    1    2    0    0  0.18576014619E+02  0.35442567877E+02  0.72056859756E+01  0.40659142234E+02  0.00000000000E+00 0. -1.
         11    1    3    3    0    0 -0.18908337207E+01 -0.17177847381E+02 -0.98948742818E+01  0.19913870295E+02  0.51100000000E-03 0. -1.
        -11    1    3    3    0    0 -0.13258477988E+02 -0.20940915719E+02  0.55646492845E+01  0.25402254066E+02  0.51100000000E-03 0.  1.
         12    1    3    3    0    0 -0.34267029107E+01  0.26761952236E+01 -0.28754609783E+01  0.52127334050E+01  0.00000000000E+00 0. -1.
</event>
<event>
 7    1  0.2969156E-011  0.5052885E+02  0.7816164E-02  0.1300439E+00
        -11   -1    0    0    0    0  0.00000000000E+00  0.00000000000E+00  0.45593999997E+02  0.45594000000E+02  0.51100000000E-03 0.  1.
         11   -1    0    0    0    0 -0.00000000000E+00 -0.00000000000E+00 -0.45593999997E+02  0.45594000000E+02  0.51100000000E-03 0. -1.
    9900012    2    1    2    0    0  0.70488953224E+01 -0.33188465320E+02  0.22405466921E+02  0.50528854614E+02  0.29999984086E+02 0.  0.
         12    1    1    2    0    0 -0.70488953224E+01  0.33188465320E+02 -0.22405466921E+02  0.40659145386E+02  0.00000000000E+00 0. -1.
         11    1    3    3    0    0  0.33694505037E+01 -0.70959428750E+01  0.24595168377E+01  0.82313319286E+01  0.51100000000E-03 0.  1.
        -11    1    3    3    0    0  0.27267754842E+01 -0.19566656041E+02  0.26464187968E+02  0.33024878171E+02  0.51100000000E-03 0. -1.
         12    1    3    3    0    0  0.95266933443E+00 -0.65258664031E+01 -0.65182378843E+01  0.92726445143E+01  0.00000000000E+00 0. -1.
</event>
<event>
 7    1  0.2969156E-011  0.5052886E+02  0.7816164E-02  0.1300439E+00
        -11   -1    0    0    0    0  0.00000000000E+00  0.00000000000E+00  0.45593999997E+02  0.45594000000E+02  0.51100000000E-03 0. -1.
         11   -1    0    0    0    0 -0.00000000000E+00 -0.00000000000E+00 -0.45593999997E+02  0.45594000000E+02  0.51100000000E-03 0.  1.
    9900012    2    1    2    0    0  0.59395815611E+01  0.38345759551E+02 -0.12144523144E+02  0.50528863916E+02  0.30000012360E+02 0.  0.
         12    1    1    2    0    0 -0.59395815611E+01 -0.38345759551E+02  0.12144523144E+02  0.40659136084E+02  0.00000000000E+00 0. -1.
         11    1    3    3    0    0  0.10101496725E+02  0.23408109188E+02 -0.77257806515E+01  0.26639585184E+02  0.51100000000E-03 0. -1.
        -11    1    3    3    0    0  0.94078789505E+00  0.11368186961E+02  0.51154867634E+01  0.12501558372E+02  0.51100000000E-03 0.  1.
         12    1    3    3    0    0 -0.51027030594E+01  0.35694634019E+01 -0.95342292555E+01  0.11387720360E+02  0.00000000000E+00 0. -1.
</event>
<event>
 7    1  0.2969156E-011  0.5052886E+02  0.7816164E-02  0.1300439E+00
        -11   -1    0    0    0    0  0.00000000000E+00  0.00000000000E+00  0.45593999997E+02  0.45594000000E+02  0.51100000000E-03 0.  1.
         11   -1    0    0    0    0 -0.00000000000E+00 -0.00000000000E+00 -0.45593999997E+02  0.45594000000E+02  0.51100000000E-03 0. -1.
    9900012    2    1    2    0    0  0.69845234243E+01 -0.16829622909E+02  0.36347569596E+02  0.50528860926E+02  0.30000003269E+02 0.  0.
         12    1    1    2    0    0 -0.69845234243E+01  0.16829622909E+02 -0.36347569596E+02  0.40659139074E+02  0.00000000000E+00 0. -1.
         11    1    3    3    0    0 -0.64014766354E+01 -0.29112070508E+01  0.32969520366E+01  0.77668476616E+01  0.51100000000E-03 0. -1.
        -11    1    3    3    0    0  0.46207414222E+00 -0.32275327345E+01  0.22954982557E+02  0.23185376955E+02  0.51100000000E-03 0.  1.
        -12    1    3    3    0    0  0.12923925917E+02 -0.10690883124E+02  0.10095635002E+02  0.19576636309E+02  0.00000000000E+00 0.  1.
</event>
<event>
 7    1  0.2969156E-011  0.5052886E+02  0.7816164E-02  0.1300439E+00
        -11   -1    0    0    0    0  0.00000000000E+00  0.00000000000E+00  0.45593999997E+02  0.45594000000E+02  0.51100000000E-03 0. -1.
         11   -1    0    0    0    0 -0.00000000000E+00 -0.00000000000E+00 -0.45593999997E+02  0.45594000000E+02  0.51100000000E-03 0.  1.
    9900012    2    1    2    0    0  0.44755336304E+01 -0.32424061026E+02 -0.24120853326E+02  0.50528859578E+02  0.29999999172E+02 0.  0.
         12    1    1    2    0    0 -0.44755336304E+01  0.32424061026E+02  0.24120853326E+02  0.40659140422E+02  0.00000000000E+00 0. -1.
         11    1    3    3    0    0  0.30973388602E+00 -0.59130401761E+01 -0.17548236696E+02  0.18520275122E+02  0.51100000000E-03 0.  1.
        -11    1    3    3    0    0  0.53249189102E+00  0.20085927447E+01 -0.20241471642E+01  0.29008902826E+01  0.51100000000E-03 0. -1.
         12    1    3    3    0    0  0.36333078534E+01 -0.28519613595E+02 -0.45484694655E+01  0.29107694173E+02  0.00000000000E+00 0. -1.
</event>
<event>
 7    1  0.2969156E-011  0.5052888E+02  0.7816164E-02  0.1300439E+00
        -11   -1    0    0    0    0  0.00000000000E+00  0.00000000000E+00  0.45593999997E+02  0.45594000000E+02  0.51100000000E-03 0.  1.
         11   -1    0    0    0    0 -0.00000000000E+00 -0.00000000000E+00 -0.45593999997E+02  0.45594000000E+02  0.51100000000E-03 0. -1.
    9900012    2    1    2    0    0  0.57243111736E+01 -0.40191961235E+02 -0.22366996856E+01  0.50528876647E+02  0.30000051056E+02 0.  0.
         12    1    1    2    0    0 -0.57243111736E+01  0.40191961235E+02  0.22366996856E+01  0.40659123353E+02  0.00000000000E+00 0. -1.
         11    1    3    3    0    0  0.85259757291E+01 -0.96809850165E+01 -0.28914288132E+01  0.13220215349E+02  0.51100000000E-03 0. -1.
        -11    1    3    3    0    0  0.38621160054E+01 -0.13004452859E+02  0.95318601262E+01  0.16579749453E+02  0.51100000000E-03 0.  1.
        -12    1    3    3    0    0 -0.66637805608E+01 -0.17506523360E+02 -0.88771309986E+01  0.20728911845E+02  0.00000000000E+00 0.  1.
</event>
<event>
 7    1  0.2969156E-011  0.5052886E+02  0.7816164E-02  0.1300439E+00
        -11   -1    0    0    0    0  0.00000000000E+00  0.00000000000E+00  0.45593999997E+02  0.45594000000E+02  0.51100000000E-03 0.  1.
         11   -1    0    0    0    0 -0.00000000000E+00 -0.00000000000E+00 -0.45593999997E+02  0.45594000000E+02  0.51100000000E-03 0. -1.
    9900012    2    1    2    0    0  0.19579561691E+02 -0.25574666692E+02  0.24814162094E+02  0.50528862615E+02  0.30000008406E+02 0.  0.
         12    1    1    2    0    0 -0.19579561691E+02  0.25574666692E+02 -0.24814162094E+02  0.40659137385E+02  0.00000000000E+00 0. -1.
         11    1    3    3    0    0  0.48774304773E+01 -0.11831850503E+02  0.14670473811E+02  0.19468046036E+02  0.51100000000E-03 0. -1.
        -11    1    3    3    0    0  0.89961151462E+01  0.84763977827E+00  0.12283289503E+02  0.15248861669E+02  0.51100000000E-03 0.  1.
         12    1    3    3    0    0  0.57060160675E+01 -0.14590455968E+02 -0.21396012195E+01  0.15811954910E+02  0.00000000000E+00 0. -1.
</event>
<event>
 7    1  0.2969156E-011  0.5052885E+02  0.7816164E-02  0.1300439E+00
        -11   -1    0    0    0    0  0.00000000000E+00  0.00000000000E+00  0.45593999997E+02  0.45594000000E+02  0.51100000000E-03 0. -1.
         11   -1    0    0    0    0 -0.00000000000E+00 -0.00000000000E+00 -0.45593999997E+02  0.45594000000E+02  0.51100000000E-03 0.  1.
    9900012    2    1    2    0    0 -0.24514490779E+02  0.16710460560E+02 -0.27802275609E+02  0.50528852452E+02  0.29999977513E+02 0.  0.
         12    1    1    2    0    0  0.24514490779E+02 -0.16710460560E+02  0.27802275609E+02  0.40659147548E+02  0.00000000000E+00 0. -1.
         11    1    3    3    0    0 -0.55419676568E+01  0.15038540178E+00 -0.18239337905E+02  0.19063301623E+02  0.51100000000E-03 0. -1.
        -11    1    3    3    0    0 -0.19585158275E+02  0.10622989970E+02 -0.11649995165E+02  0.25142568051E+02  0.51100000000E-03 0.  1.
         12    1    3    3    0    0  0.61263515284E+00  0.59370851887E+01  0.20870574619E+01  0.63229827785E+01  0.00000000000E+00 0. -1.
</event>
<event>
 7    1  0.2969156E-011  0.5052886E+02  0.7816164E-02  0.1300439E+00
        -11   -1    0    0    0    0  0.00000000000E+00  0.00000000000E+00  0.45593999997E+02  0.45594000000E+02  0.51100000000E-03 0. -1.
         11   -1    0    0    0    0 -0.00000000000E+00 -0.00000000000E+00 -0.45593999997E+02  0.45594000000E+02  0.51100000000E-03 0.  1.
    9900012    2    1    2    0    0 -0.33096860928E+02 -0.18804573281E+02  0.14288171201E+02  0.50528855692E+02  0.29999987363E+02 0.  0.
         12    1    1    2    0    0  0.33096860928E+02  0.18804573281E+02 -0.14288171201E+02  0.40659144308E+02  0.00000000000E+00 0. -1.
         11    1    3    3    0    0 -0.15170340081E+02 -0.96532514998E+01  0.57278690931E+01  0.18871485562E+02  0.51100000000E-03 0. -1.
        -11    1    3    3    0    0 -0.18445172061E+02 -0.15108839378E+02  0.40908814577E+01  0.24191666149E+02  0.51100000000E-03 0.  1.
         12    1    3    3    0    0  0.51865121417E+00  0.59575175967E+01  0.44694206499E+01  0.74657039818E+01  0.00000000000E+00 0. -1.
</event>
<event>
 7    1  0.2969156E-011  0.5052885E+02  0.7816164E-02  0.1300439E+00
        -11   -1    0    0    0    0  0.00000000000E+00  0.00000000000E+00  0.45593999997E+02  0.45594000000E+02  0.51100000000E-03 0. -1.
         11   -1    0    0    0    0 -0.00000000000E+00 -0.00000000000E+00 -0.45593999997E+02  0.45594000000E+02  0.51100000000E-03 0.  1.
    9900012    2    1    2    0    0 -0.10058956892E+02 -0.38984036944E+02  0.56770523152E+01  0.50528847608E+02  0.29999962790E+02 0.  0.
         12    1    1    2    0    0  0.10058956892E+02  0.38984036944E+02 -0.56770523152E+01  0.40659152392E+02  0.00000000000E+00 0. -1.
         11    1    3    3    0    0  0.48561021578E+01 -0.15788070803E+02 -0.62555545755E+00  0.16529858673E+02  0.51100000000E-03 0. -1.
        -11    1    3    3    0    0 -0.13898085714E+02 -0.24811694374E+02  0.11034625608E+01  0.28460403969E+02  0.51100000000E-03 0.  1.
         12    1    3    3    0    0 -0.10169733357E+01  0.16157282331E+01  0.51991452119E+01  0.55385849658E+01  0.00000000000E+00 0. -1.
</event>
<event>
 7    1  0.2969156E-011  0.5052883E+02  0.7816164E-02  0.1300439E+00
        -11   -1    0    0    0    0  0.00000000000E+00  0.00000000000E+00  0.45593999997E+02  0.45594000000E+02  0.51100000000E-03 0.  1.
         11   -1    0    0    0    0 -0.00000000000E+00 -0.00000000000E+00 -0.45593999997E+02  0.45594000000E+02  0.51100000000E-03 0. -1.
    9900012    2    1    2    0    0 -0.36584451152E+01  0.11573875781E+02  0.38805011781E+02  0.50528834237E+02  0.29999922146E+02 0.  0.
         12    1    1    2    0    0  0.36584451152E+01 -0.11573875781E+02 -0.38805011781E+02  0.40659165763E+02  0.00000000000E+00 0. -1.
         11    1    3    3    0    0 -0.64363786189E+01  0.27131066119E+01  0.12220627208E+01  0.70909346893E+01  0.51100000000E-03 0. -1.
        -11    1    3    3    0    0 -0.49625243708E+01  0.11911602734E+02  0.17878074957E+02  0.22048548529E+02  0.51100000000E-03 0.  1.
         12    1    3    3    0    0  0.77404578746E+01 -0.30508335647E+01  0.19704874103E+02  0.21389351018E+02  0.00000000000E+00 0. -1.
</event>
<event>
 7    1  0.2969156E-011  0.5052886E+02  0.7816164E-02  0.1300439E+00
        -11   -1    0    0    0    0  0.00000000000E+00  0.00000000000E+00  0.45593999997E+02  0.45594000000E+02  0.51100000000E-03 0.  1.
         11   -1    0    0    0    0 -0.00000000000E+00 -0.00000000000E+00 -0.45593999997E+02  0.45594000000E+02  0.51100000000E-03 0. -1.
    9900012    2    1    2    0    0 -0.18016872253E+02 -0.27133251358E+02  0.24338134179E+02  0.50528858466E+02  0.29999995792E+02 0.  0.
         12    1    1    2    0    0  0.18016872253E+02  0.27133251358E+02 -0.24338134179E+02  0.40659141534E+02  0.00000000000E+00 0. -1.
         11    1    3    3    0    0  0.24980613998E+01 -0.13251528074E+02  0.75893146896E+01  0.15473881374E+02  0.51100000000E-03 0. -1.
        -11    1    3    3    0    0 -0.11570136618E+02 -0.17203654147E+02  0.14356519110E+02  0.25217918602E+02  0.51100000000E-03 0.  1.
        -12    1    3    3    0    0 -0.89447970339E+01  0.33219308630E+01  0.23923003794E+01  0.98370584903E+01  0.00000000000E+00 0.  1.
</event>
<event>
 7    1  0.2969156E-011  0.5052887E+02  0.7816164E-02  0.1300439E+00
        -11   -1    0    0    0    0  0.00000000000E+00  0.00000000000E+00  0.45593999997E+02  0.45594000000E+02  0.51100000000E-03 0.  1.
         11   -1    0    0    0    0 -0.00000000000E+00 -0.00000000000E+00 -0.45593999997E+02  0.45594000000E+02  0.51100000000E-03 0. -1.
    9900012    2    1    2    0    0  0.64570066691E+01  0.39363168089E+02  0.78748480891E+01  0.50528866100E+02  0.30000018996E+02 0.  0.
         12    1    1    2    0    0 -0.64570066691E+01 -0.39363168089E+02 -0.78748480891E+01  0.40659133900E+02  0.00000000000E+00 0. -1.
         11    1    3    3    0    0  0.33841336043E+01  0.27153093407E+02 -0.13217016162E+01  0.27395067754E+02  0.51100000000E-03 0. -1.
        -11    1    3    3    0    0 -0.47636662703E+01  0.12365063764E+02  0.44888118116E+01  0.13990595054E+02  0.51100000000E-03 0.  1.
         12    1    3    3    0    0  0.78365393351E+01 -0.15498908166E+00  0.47077378938E+01  0.91432032922E+01  0.00000000000E+00 0. -1.
</event>
<event>
 7    1  0.2969156E-011  0.5052886E+02  0.7816164E-02  0.1300439E+00
        -11   -1    0    0    0    0  0.00000000000E+00  0.00000000000E+00  0.45593999997E+02  0.45594000000E+02  0.51100000000E-03 0. -1.
         11   -1    0    0    0    0 -0.00000000000E+00 -0.00000000000E+00 -0.45593999997E+02  0.45594000000E+02  0.51100000000E-03 0.  1.
    9900012    2    1    2    0    0  0.10403309756E+02  0.10075432159E+02 -0.37992398050E+02  0.50528862077E+02  0.30000006769E+02 0.  0.
         12    1    1    2    0    0 -0.10403309756E+02 -0.10075432159E+02  0.37992398050E+02  0.40659137923E+02  0.00000000000E+00 0. -1.
         11    1    3    3    0    0 -0.54479493144E+00  0.86979174860E+01 -0.38174488086E+01  0.95143831002E+01  0.51100000000E-03 0. -1.
        -11    1    3    3    0    0 -0.29579825268E+01 -0.30746481869E+01 -0.48194421498E+00  0.42936456059E+01  0.51100000000E-03 0.  1.
         12    1    3    3    0    0  0.13906087214E+02  0.44521628595E+01 -0.33693005027E+02  0.36720833371E+02  0.00000000000E+00 0. -1.
</event>
<event>
 7    1  0.2969156E-011  0.5052890E+02  0.7816164E-02  0.1300439E+00
        -11   -1    0    0    0    0  0.00000000000E+00  0.00000000000E+00  0.45593999997E+02  0.45594000000E+02  0.51100000000E-03 0.  1.
         11   -1    0    0    0    0 -0.00000000000E+00 -0.00000000000E+00 -0.45593999997E+02  0.45594000000E+02  0.51100000000E-03 0. -1.
    9900012    2    1    2    0    0  0.28777221881E+02 -0.20750899032E+02  0.19860361569E+02  0.50528901738E+02  0.30000127323E+02 0.  0.
         12    1    1    2    0    0 -0.28777221881E+02  0.20750899032E+02 -0.19860361569E+02  0.40659098262E+02  0.00000000000E+00 0. -1.
         11    1    3    3    0    0 -0.22227079718E+01 -0.23936979346E+01  0.37893609900E+01  0.50029468820E+01  0.51100000000E-03 0. -1.
        -11    1    3    3    0    0  0.25187411254E+02 -0.79988689128E+01  0.19860978774E+02  0.33058222391E+02  0.51100000000E-03 0.  1.
         12    1    3    3    0    0  0.58125185986E+01 -0.10358332185E+02 -0.37899781941E+01  0.12467732465E+02  0.00000000000E+00 0. -1.
</event>
<event>
 7    1  0.3015486E-011  0.5052886E+02  0.7816164E-02  0.1300439E+00
        -11   -1    0    0    0    0  0.00000000000E+00  0.00000000000E+00  0.45593999997E+02  0.45594000000E+02  0.51100000000E-03 0. -1.
         11   -1    0    0    0    0 -0.00000000000E+00 -0.00000000000E+00 -0.45593999997E+02  0.45594000000E+02  0.51100000000E-03 0.  1.
    9900012    2    1    2    0    0 -0.18667187908E+02 -0.21239770518E+02 -0.29215984624E+02  0.50528861869E+02  0.30000006136E+02 0.  0.
         12    1    1    2    0    0  0.18667187908E+02  0.21239770518E+02  0.29215984624E+02  0.40659138131E+02  0.00000000000E+00 0. -1.
         11    1    3    3    0    0  0.35429345043E+01  0.27903087467E+01 -0.18144649661E+01  0.48611203624E+01  0.51100000000E-03 0.  1.
        -11    1    3    3    0    0 -0.77215603476E+01 -0.12752539145E+00 -0.21918676121E+01  0.80276422950E+01  0.51100000000E-03 0. -1.
        -12    1    3    3    0    0 -0.14488562065E+02 -0.23902553873E+02 -0.25209652046E+02  0.37640099211E+02  0.00000000000E+00 0.  1.
</event>
<event>
 7    1  0.2969156E-011  0.5052886E+02  0.7816164E-02  0.1300439E+00
        -11   -1    0    0    0    0  0.00000000000E+00  0.00000000000E+00  0.45593999997E+02  0.45594000000E+02  0.51100000000E-03 0. -1.
         11   -1    0    0    0    0 -0.00000000000E+00 -0.00000000000E+00 -0.45593999997E+02  0.45594000000E+02  0.51100000000E-03 0.  1.
    9900012    2    1    2    0    0 -0.57843157293E+01 -0.35881302058E+02 -0.18227432091E+02  0.50528862940E+02  0.30000009393E+02 0.  0.
         12    1    1    2    0    0  0.57843157293E+01  0.35881302058E+02  0.18227432091E+02  0.40659137060E+02  0.00000000000E+00 0. -1.
         11    1    3    3    0    0 -0.57936943043E+01 -0.51273932566E+01 -0.48223958488E+01  0.91166088697E+01  0.51100000000E-03 0. -1.
        -11    1    3    3    0    0 -0.40039441361E+00 -0.26563889423E+02  0.81771884993E+00  0.26579488357E+02  0.51100000000E-03 0.  1.
         12    1    3    3    0    0  0.40977298857E+00 -0.41900193785E+01 -0.14222755092E+02  0.14832765713E+02  0.00000000000E+00 0. -1.
</event>
<event>
 7    1  0.2969156E-011  0.5052888E+02  0.7816164E-02  0.1300439E+00
        -11   -1    0    0    0    0  0.00000000000E+00  0.00000000000E+00  0.45593999997E+02  0.45594000000E+02  0.51100000000E-03 0.  1.
         11   -1    0    0    0    0 -0.00000000000E+00 -0.00000000000E+00 -0.45593999997E+02  0.45594000000E+02  0.51100000000E-03 0. -1.
    9900012    2    1    2    0    0  0.42526109617E+01 -0.21816585392E+02  0.34045790690E+02  0.50528880951E+02  0.30000064138E+02 0.  0.
         12    1    1    2    0    0 -0.42526109617E+01  0.21816585392E+02 -0.34045790690E+02  0.40659119049E+02  0.00000000000E+00 0. -1.
         11    1    3    3    0    0  0.28983533772E+01 -0.14099467082E+01  0.48045098514E+01  0.57854746730E+01  0.51100000000E-03 0. -1.
        -11    1    3    3    0    0 -0.87201783874E+01 -0.14008893033E+01  0.50298624259E+00  0.88462985123E+01  0.51100000000E-03 0.  1.
        -12    1    3    3    0    0  0.10074435972E+02 -0.19005749380E+02  0.28738294596E+02  0.35897107766E+02  0.00000000000E+00 0.  1.
</event>
<event>
 7    1  0.2969156E-011  0.5052886E+02  0.7816164E-02  0.1300439E+00
        -11   -1    0    0    0    0  0.00000000000E+00  0.00000000000E+00  0.45593999997E+02  0.45594000000E+02  0.51100000000E-03 0.  1.
         11   -1    0    0    0    0 -0.00000000000E+00 -0.00000000000E+00 -0.45593999997E+02  0.45594000000E+02  0.51100000000E-03 0. -1.
    9900012    2    1    2    0    0 -0.10993696051E+02 -0.11602296052E+02  0.37385709248E+02  0.50528857332E+02  0.29999992345E+02 0.  0.
         12    1    1    2    0    0  0.10993696051E+02  0.11602296052E+02 -0.37385709248E+02  0.40659142668E+02  0.00000000000E+00 0. -1.
         11    1    3    3    0    0 -0.76319084733E+01 -0.71544970700E+01  0.34579639619E+01  0.11017729816E+02  0.51100000000E-03 0. -1.
        -11    1    3    3    0    0 -0.10564262595E+02 -0.65206507609E+01  0.24512943046E+02  0.27477389023E+02  0.51100000000E-03 0.  1.
         12    1    3    3    0    0  0.72024750173E+01  0.20728517793E+01  0.94148022409E+01  0.12033738493E+02  0.00000000000E+00 0. -1.
</event>
<event>
 7    1  0.2969156E-011  0.5052886E+02  0.7816164E-02  0.1300439E+00
        -11   -1    0    0    0    0  0.00000000000E+00  0.00000000000E+00  0.45593999997E+02  0.45594000000E+02  0.51100000000E-03 0.  1.
         11   -1    0    0    0    0 -0.00000000000E+00 -0.00000000000E+00 -0.45593999997E+02  0.45594000000E+02  0.51100000000E-03 0. -1.
    9900012    2    1    2    0    0 -0.27714319386E+02  0.24993619336E+02  0.16136952609E+02  0.50528859010E+02  0.29999997447E+02 0.  0.
         12    1    1    2    0    0  0.27714319386E+02 -0.24993619336E+02 -0.16136952609E+02  0.40659140990E+02  0.00000000000E+00 0. -1.
         11    1    3    3    0    0 -0.17413142877E+02  0.98188214320E+01  0.72650972053E+01  0.21269895083E+02  0.51100000000E-03 0. -1.
        -11    1    3    3    0    0 -0.83609671860E+01 -0.24524576480E+01  0.74576494975E+01  0.11468951874E+02  0.51100000000E-03 0.  1.
         12    1    3    3    0    0 -0.19402093230E+01  0.17627255552E+02  0.14142059061E+01  0.17790012053E+02  0.00000000000E+00 0. -1.
</event>
<event>
 7    1  0.2969156E-011  0.5052886E+02  0.7816164E-02  0.1300439E+00
        -11   -1    0    0    0    0  0.00000000000E+00  0.00000000000E+00  0.45593999997E+02  0.45594000000E+02  0.51100000000E-03 0. -1.
         11   -1    0    0    0    0 -0.00000000000E+00 -0.00000000000E+00 -0.45593999997E+02  0.45594000000E+02  0.51100000000E-03 0.  1.
    9900012    2    1    2    0    0  0.60325546527E+01  0.65360180087E+01 -0.39674355162E+02  0.50528859521E+02  0.29999998999E+02 0.  0.
         12    1    1    2    0    0 -0.60325546527E+01 -0.65360180087E+01  0.39674355162E+02  0.40659140479E+02  0.00000000000E+00 0. -1.
         11    1    3    3    0    0 -0.25076022116E+01  0.53254374686E+01 -0.37366614405E+01  0.69721583506E+01  0.51100000000E-03 0. -1.
        -11    1    3    3    0    0  0.12610055451E+01  0.43466698232E+01 -0.35317702459E+02  0.35606513180E+02  0.51100000000E-03 0.  1.
        -12    1    3    3    0    0  0.72791513191E+01 -0.31360892831E+01 -0.61999126166E+00  0.79501879904E+01  0.00000000000E+00 0.  1.
</event>
<event>
 7    1  0.2969156E-011  0.5052887E+02  0.7816164E-02  0.1300439E+00
        -11   -1    0    0    0    0  0.00000000000E+00  0.00000000000E+00  0.45593999997E+02  0.45594000000E+02  0.51100000000E-03 0. -1.
         11   -1    0    0    0    0 -0.00000000000E+00 -0.00000000000E+00 -0.45593999997E+02  0.45594000000E+02  0.51100000000E-03 0.  1.
    9900012    2    1    2    0    0  0.30004737807E+02  0.64938346103E+01 -0.26659164750E+02  0.50528865184E+02  0.30000016214E+02 0.  0.
         12    1    1    2    0    0 -0.30004737807E+02 -0.64938346103E+01  0.26659164750E+02  0.40659134816E+02  0.00000000000E+00 0. -1.
         11    1    3    3    0    0  0.16684816534E+02  0.51423179869E+01 -0.32236264054E+01  0.17754388318E+02  0.51100000000E-03 0. -1.
        -11    1    3    3    0    0 -0.23692992688E+01  0.58748981644E+01 -0.44954954154E+01  0.77677208214E+01  0.51100000000E-03 0.  1.
        -12    1    3    3    0    0  0.15689220542E+02 -0.45233815410E+01 -0.18940042929E+02  0.25006756045E+02  0.00000000000E+00 0.  1.
</event>
<event>
 7    1  0.2969156E-011  0.5052886E+02  0.7816164E-02  0.1300439E+00
        -11   -1    0    0    0    0  0.00000000000E+00  0.00000000000E+00  0.45593999997E+02  0.45594000000E+02  0.51100000000E-03 0.  1.
         11   -1    0    0    0    0 -0.00000000000E+00 -0.00000000000E+00 -0.45593999997E+02  0.45594000000E+02  0.51100000000E-03 0. -1.
    9900012    2    1    2    0    0 -0.37941883930E+02 -0.10298375706E+02  0.10369320060E+02  0.50528857155E+02  0.29999991809E+02 0.  0.
         12    1    1    2    0    0  0.37941883930E+02  0.10298375706E+02 -0.10369320060E+02  0.40659142845E+02  0.00000000000E+00 0. -1.
         11    1    3    3    0    0 -0.51693466131E+01 -0.84711247457E+01  0.49021183853E+01  0.11068552922E+02  0.51100000000E-03 0. -1.
        -11    1    3    3    0    0 -0.22664336119E+02 -0.82261418762E-01  0.13545272105E+02  0.26403660642E+02  0.51100000000E-03 0.  1.
         12    1    3    3    0    0 -0.10108201198E+02 -0.17449895420E+01 -0.80780704309E+01  0.13056643591E+02  0.00000000000E+00 0. -1.
</event>
<event>
 7    1  0.2969156E-011  0.5052885E+02  0.7816164E-02  0.1300439E+00
        -11   -1    0    0    0    0  0.00000000000E+00  0.00000000000E+00  0.45593999997E+02  0.45594000000E+02  0.51100000000E-03 0.  1.
         11   -1    0    0    0    0 -0.00000000000E+00 -0.00000000000E+00 -0.45593999997E+02  0.45594000000E+02  0.51100000000E-03 0. -1.
    9900012    2    1    2    0    0  0.16578172291E+02  0.16782346528E+02  0.33116211412E+02  0.50528850848E+02  0.29999972637E+02 0.  0.
         12    1    1    2    0    0 -0.16578172291E+02 -0.16782346528E+02 -0.33116211412E+02  0.40659149152E+02  0.00000000000E+00 0. -1.
         11    1    3    3    0    0  0.19722165669E+01  0.69450436303E+01 -0.21174388749E+01  0.75237501861E+01  0.51100000000E-03 0. -1.
        -11    1    3    3    0    0  0.20333420298E+01  0.10825048685E+02  0.10379439160E+02  0.15134362107E+02  0.51100000000E-03 0.  1.
         12    1    3    3    0    0  0.12572613695E+02 -0.98774578731E+00  0.24854211127E+02  0.27870738555E+02  0.00000000000E+00 0. -1.
</event>
<event>
 7    1  0.2969156E-011  0.5052882E+02  0.7816164E-02  0.1300439E+00
        -11   -1    0    0    0    0  0.00000000000E+00  0.00000000000E+00  0.45593999997E+02  0.45594000000E+02  0.51100000000E-03 0.  1.
         11   -1    0    0    0    0 -0.00000000000E+00 -0.00000000000E+00 -0.45593999997E+02  0.45594000000E+02  0.51100000000E-03 0. -1.
    9900012    2    1    2    0    0  0.28999211903E+02  0.21138172306E+02  0.19115242906E+02  0.50528817387E+02  0.29999870928E+02 0.  0.
         12    1    1    2    0    0 -0.28999211903E+02 -0.21138172306E+02 -0.19115242906E+02  0.40659182613E+02  0.00000000000E+00 0. -1.
         11    1    3    3    0    0  0.13054579449E+02  0.70446240350E+01 -0.90035336453E+00  0.14861339402E+02  0.51100000000E-03 0. -1.
        -11    1    3    3    0    0  0.20852766178E+02  0.10045183776E+02  0.15251352905E+02  0.27719078990E+02  0.51100000000E-03 0.  1.
         12    1    3    3    0    0 -0.49081337234E+01  0.40483644950E+01  0.47642433651E+01  0.79483989944E+01  0.00000000000E+00 0. -1.
</event>
<event>
 7    1  0.2969156E-011  0.5052876E+02  0.7816164E-02  0.1300439E+00
        -11   -1    0    0    0    0  0.00000000000E+00  0.00000000000E+00  0.45593999997E+02  0.45594000000E+02  0.51100000000E-03 0. -1.
         11   -1    0    0    0    0 -0.00000000000E+00 -0.00000000000E+00 -0.45593999997E+02  0.45594000000E+02  0.51100000000E-03 0.  1.
    9900012    2    1    2    0    0  0.70018733024E+01  0.28751369509E+02  0.27883794314E+02  0.50528764103E+02  0.29999708965E+02 0.  0.
         12    1    1    2    0    0 -0.70018733024E+01 -0.28751369509E+02 -0.27883794314E+02  0.40659235897E+02  0.00000000000E+00 0. -1.
         11    1    3    3    0    0 -0.23627552704E+01  0.13769000578E+02  0.16587382573E+02  0.21686614541E+02  0.51100000000E-03 0. -1.
        -11    1    3    3    0    0  0.80414619189E+01  0.18909005145E+02  0.13051173913E+02  0.24342323762E+02  0.51100000000E-03 0.  1.
        -12    1    3    3    0    0  0.13231666539E+01 -0.39266362129E+01 -0.17547621724E+01  0.44998257993E+01  0.00000000000E+00 0.  1.
</event>
<event>
 7    1  0.2969156E-011  0.5052884E+02  0.7816164E-02  0.1300439E+00
        -11   -1    0    0    0    0  0.00000000000E+00  0.00000000000E+00  0.45593999997E+02  0.45594000000E+02  0.51100000000E-03 0.  1.
         11   -1    0    0    0    0 -0.00000000000E+00 -0.00000000000E+00 -0.45593999997E+02  0.45594000000E+02  0.51100000000E-03 0. -1.
    9900012    2    1    2    0    0  0.15194763679E+02  0.31304266257E+02  0.21031626153E+02  0.50528840789E+02  0.29999942061E+02 0.  0.
         12    1    1    2    0    0 -0.15194763679E+02 -0.31304266257E+02 -0.21031626153E+02  0.40659159211E+02  0.00000000000E+00 0. -1.
         11    1    3    3    0    0  0.48548341437E+01  0.84516888694E+01 -0.41881764453E+01  0.10608547568E+02  0.51100000000E-03 0. -1.
        -11    1    3    3    0    0  0.48406774365E+01 -0.20148384357E+01  0.62828698404E+01  0.81832869715E+01  0.51100000000E-03 0.  1.
         12    1    3    3    0    0  0.54992520990E+01  0.24867415823E+02  0.18936932758E+02  0.31737006249E+02  0.00000000000E+00 0. -1.
</event>
<event>
 7    1  0.2969156E-011  0.5052886E+02  0.7816164E-02  0.1300439E+00
        -11   -1    0    0    0    0  0.00000000000E+00  0.00000000000E+00  0.45593999997E+02  0.45594000000E+02  0.51100000000E-03 0. -1.
         11   -1    0    0    0    0 -0.00000000000E+00 -0.00000000000E+00 -0.45593999997E+02  0.45594000000E+02  0.51100000000E-03 0.  1.
    9900012    2    1    2    0    0  0.16014819703E+02  0.26515272196E+02 -0.26336888999E+02  0.50528857954E+02  0.29999994238E+02 0.  0.
         12    1    1    2    0    0 -0.16014819703E+02 -0.26515272196E+02  0.26336888999E+02  0.40659142046E+02  0.00000000000E+00 0. -1.
         11    1    3    3    0    0  0.42582072066E+01 -0.46773057950E+01 -0.14563569196E+01  0.64908007097E+01  0.51100000000E-03 0. -1.
        -11    1    3    3    0    0  0.81092529133E+01  0.16719314593E+02 -0.51210605784E+01  0.19274872891E+02  0.51100000000E-03 0.  1.
         12    1    3    3    0    0  0.36473595827E+01  0.14473263398E+02 -0.19759471501E+02  0.24763184353E+02  0.00000000000E+00 0. -1.
</event>
<event>
 7    1  0.2969156E-011  0.5052891E+02  0.7816164E-02  0.1300439E+00
        -11   -1    0    0    0    0  0.00000000000E+00  0.00000000000E+00  0.45593999997E+02  0.45594000000E+02  0.51100000000E-03 0.  1.
         11   -1    0    0    0    0 -0.00000000000E+00 -0.00000000000E+00 -0.45593999997E+02  0.45594000000E+02  0.51100000000E-03 0. -1.
    9900012    2    1    2    0    0 -0.11277873844E+01  0.19942657836E+02  0.35414400710E+02  0.50528913886E+02  0.30000164248E+02 0.  0.
         12    1    1    2    0    0  0.11277873844E+01 -0.19942657836E+02 -0.35414400710E+02  0.40659086114E+02  0.00000000000E+00 0. -1.
         11    1    3    3    0    0  0.43011706477E+01  0.93781984481E+01  0.14240141859E+02  0.17585002573E+02  0.51100000000E-03 0. -1.
        -11    1    3    3    0    0 -0.11667778634E+02  0.73029349914E+01  0.21900112101E+02  0.25866674081E+02  0.51100000000E-03 0.  1.
         12    1    3    3    0    0  0.62388206023E+01  0.32615243967E+01 -0.72585324931E+00  0.70772372320E+01  0.00000000000E+00 0. -1.
</event>
<event>
 7    1  0.2969156E-011  0.5052886E+02  0.7816164E-02  0.1300439E+00
        -11   -1    0    0    0    0  0.00000000000E+00  0.00000000000E+00  0.45593999997E+02  0.45594000000E+02  0.51100000000E-03 0.  1.
         11   -1    0    0    0    0 -0.00000000000E+00 -0.00000000000E+00 -0.45593999997E+02  0.45594000000E+02  0.51100000000E-03 0. -1.
    9900012    2    1    2    0    0 -0.43708491870E+01  0.11352410787E+02  0.38796705690E+02  0.50528856801E+02  0.29999990731E+02 0.  0.
         12    1    1    2    0    0  0.43708491870E+01 -0.11352410787E+02 -0.38796705690E+02  0.40659143199E+02  0.00000000000E+00 0. -1.
         11    1    3    3    0    0 -0.34262260225E+01  0.38986596792E+01  0.10149733709E+01  0.52885483127E+01  0.51100000000E-03 0. -1.
        -11    1    3    3    0    0 -0.11025982116E+02 -0.14361923737E+01  0.20773319662E+02  0.23561955356E+02  0.51100000000E-03 0.  1.
        -12    1    3    3    0    0  0.10081358951E+02  0.88899434810E+01  0.17008412657E+02  0.21678353132E+02  0.00000000000E+00 0.  1.
</event>
<event>
 7    1  0.2969156E-011  0.5052886E+02  0.7816164E-02  0.1300439E+00
        -11   -1    0    0    0    0  0.00000000000E+00  0.00000000000E+00  0.45593999997E+02  0.45594000000E+02  0.51100000000E-03 0.  1.
         11   -1    0    0    0    0 -0.00000000000E+00 -0.00000000000E+00 -0.45593999997E+02  0.45594000000E+02  0.51100000000E-03 0. -1.
    9900012    2    1    2    0    0 -0.45086226131E+01 -0.38371477389E+02  0.12667586942E+02  0.50528859407E+02  0.29999998653E+02 0.  0.
         12    1    1    2    0    0  0.45086226131E+01  0.38371477389E+02 -0.12667586942E+02  0.40659140593E+02  0.00000000000E+00 0. -1.
         11    1    3    3    0    0  0.63777288224E+01  0.17719142643E+01  0.22005416854E+01  0.69754920302E+01  0.51100000000E-03 0.  1.
        -11    1    3    3    0    0 -0.27864477270E+01 -0.90133712760E+01 -0.80606202331E+00  0.94686265604E+01  0.51100000000E-03 0. -1.
        -12    1    3    3    0    0 -0.80999037085E+01 -0.31130020377E+02  0.11273107280E+02  0.34084740816E+02  0.00000000000E+00 0.  1.
</event>
<event>
 7    1  0.2969156E-011  0.5052886E+02  0.7816164E-02  0.1300439E+00
        -11   -1    0    0    0    0  0.00000000000E+00  0.00000000000E+00  0.45593999997E+02  0.45594000000E+02  0.51100000000E-03 0.  1.
         11   -1    0    0    0    0 -0.00000000000E+00 -0.00000000000E+00 -0.45593999997E+02  0.45594000000E+02  0.51100000000E-03 0. -1.
    9900012    2    1    2    0    0 -0.36462240672E+01 -0.55361548884E+01  0.40115101500E+02  0.50528864136E+02  0.30000013027E+02 0.  0.
         12    1    1    2    0    0  0.36462240672E+01  0.55361548884E+01 -0.40115101500E+02  0.40659135864E+02  0.00000000000E+00 0. -1.
         11    1    3    3    0    0 -0.11885704377E+00  0.10550396866E+01 -0.35712669237E+01  0.37257460245E+01  0.51100000000E-03 0. -1.
        -11    1    3    3    0    0 -0.75468504614E+01 -0.51289995784E+01  0.13372870444E+02  0.16189356155E+02  0.51100000000E-03 0.  1.
        -12    1    3    3    0    0  0.40194834380E+01 -0.14621949966E+01  0.30313497980E+02  0.30613761956E+02  0.00000000000E+00 0.  1.
</event>
<event>
 7    1  0.2969156E-011  0.5052883E+02  0.7816164E-02  0.1300439E+00
        -11   -1    0    0    0    0  0.00000000000E+00  0.00000000000E+00  0.45593999997E+02  0.45594000000E+02  0.51100000000E-03 0.  1.
         11   -1    0    0    0    0 -0.00000000000E+00 -0.00000000000E+00 -0.45593999997E+02  0.45594000000E+02  0.51100000000E-03 0. -1.
    9900012    2    1    2    0    0 -0.35783745974E+02  0.95942638712E+01  0.16752365541E+02  0.50528829738E+02  0.29999908473E+02 0.  0.
         12    1    1    2    0    0  0.35783745974E+02 -0.95942638712E+01 -0.16752365541E+02  0.40659170262E+02  0.00000000000E+00 0. -1.
         11    1    3    3    0    0  0.14117696362E+00 -0.31273001246E+01 -0.17154981083E+01  0.35697158186E+01  0.51100000000E-03 0. -1.
        -11    1    3    3    0    0 -0.55141258847E+01  0.11430494953E+02  0.64299260482E+01  0.14226937421E+02  0.51100000000E-03 0.  1.
        -12    1    3    3    0    0 -0.30410797053E+02  0.12910690428E+01  0.12037937601E+02  0.32732176499E+02  0.00000000000E+00 0.  1.
</event>
<event>
 7    1  0.2969156E-011  0.5052885E+02  0.7816164E-02  0.1300439E+00
        -11   -1    0    0    0    0  0.00000000000E+00  0.00000000000E+00  0.45593999997E+02  0.45594000000E+02  0.51100000000E-03 0.  1.
         11   -1    0    0    0    0 -0.00000000000E+00 -0.00000000000E+00 -0.45593999997E+02  0.45594000000E+02  0.51100000000E-03 0. -1.
    9900012    2    1    2    0    0  0.22244335613E+02 -0.37334363789E+01  0.33829235642E+02  0.50528853450E+02  0.29999980545E+02 0.  0.
         12    1    1    2    0    0 -0.22244335613E+02  0.37334363789E+01 -0.33829235642E+02  0.40659146550E+02  0.00000000000E+00 0. -1.
         11    1    3    3    0    0  0.19687073796E+01 -0.49190472156E+01 -0.18497775010E+01  0.56119970884E+01  0.51100000000E-03 0. -1.
        -11    1    3    3    0    0  0.65022107577E+01  0.92591756728E+01  0.14310601197E+02  0.18242927006E+02  0.51100000000E-03 0.  1.
        -12    1    3    3    0    0  0.13773417476E+02 -0.80735648360E+01  0.21368411946E+02  0.26673929355E+02  0.00000000000E+00 0.  1.
</event>
<event>
 7    1  0.2969156E-011  0.5052885E+02  0.7816164E-02  0.1300439E+00
        -11   -1    0    0    0    0  0.00000000000E+00  0.00000000000E+00  0.45593999997E+02  0.45594000000E+02  0.51100000000E-03 0.  1.
         11   -1    0    0    0    0 -0.00000000000E+00 -0.00000000000E+00 -0.45593999997E+02  0.45594000000E+02  0.51100000000E-03 0. -1.
    9900012    2    1    2    0    0  0.24928683043E+02  0.83386640965E+01  0.31019244274E+02  0.50528854995E+02  0.29999985244E+02 0.  0.
         12    1    1    2    0    0 -0.24928683043E+02 -0.83386640965E+01 -0.31019244274E+02  0.40659145005E+02  0.00000000000E+00 0. -1.
         11    1    3    3    0    0 -0.40029955791E+01  0.38212681624E+01  0.47973865519E+01  0.73240004073E+01  0.51100000000E-03 0. -1.
        -11    1    3    3    0    0  0.74215304110E+01  0.92306593581E+01  0.12691624590E+02  0.17359767303E+02  0.51100000000E-03 0.  1.
        -12    1    3    3    0    0  0.21510148211E+02 -0.47132634240E+01  0.13530233132E+02  0.25845087285E+02  0.00000000000E+00 0.  1.
</event>
<event>
 7    1  0.2969156E-011  0.5052886E+02  0.7816164E-02  0.1300439E+00
        -11   -1    0    0    0    0  0.00000000000E+00  0.00000000000E+00  0.45593999997E+02  0.45594000000E+02  0.51100000000E-03 0.  1.
         11   -1    0    0    0    0 -0.00000000000E+00 -0.00000000000E+00 -0.45593999997E+02  0.45594000000E+02  0.51100000000E-03 0. -1.
    9900012    2    1    2    0    0 -0.28517331472E+02  0.15318256549E+01  0.28940987661E+02  0.50528862639E+02  0.30000008478E+02 0.  0.
         12    1    1    2    0    0  0.28517331472E+02 -0.15318256549E+01 -0.28940987661E+02  0.40659137361E+02  0.00000000000E+00 0. -1.
         11    1    3    3    0    0 -0.17442300564E+02 -0.29800503458E+01  0.22839604292E+02  0.28892249367E+02  0.51100000000E-03 0.  1.
        -11    1    3    3    0    0 -0.13274225155E+02  0.86318040268E+01  0.32475436381E+01  0.16163527900E+02  0.51100000000E-03 0. -1.
         12    1    3    3    0    0  0.21991942470E+01 -0.41199280262E+01  0.28538397314E+01  0.54730853720E+01  0.00000000000E+00 0. -1.
</event>
<event>
 7    1  0.2969156E-011  0.5052887E+02  0.7816164E-02  0.1300439E+00
        -11   -1    0    0    0    0  0.00000000000E+00  0.00000000000E+00  0.45593999997E+02  0.45594000000E+02  0.51100000000E-03 0.  1.
         11   -1    0    0    0    0 -0.00000000000E+00 -0.00000000000E+00 -0.45593999997E+02  0.45594000000E+02  0.51100000000E-03 0. -1.
    9900012    2    1    2    0    0  0.13574839705E+02 -0.29014491505E+02  0.25040930574E+02  0.50528865795E+02  0.30000018069E+02 0.  0.
         12    1    1    2    0    0 -0.13574839705E+02  0.29014491505E+02 -0.25040930574E+02  0.40659134205E+02  0.00000000000E+00 0. -1.
         11    1    3    3    0    0 -0.46010455739E+01 -0.14729014053E+01  0.15631402175E+00  0.48335797560E+01  0.51100000000E-03 0. -1.
        -11    1    3    3    0    0  0.16628714282E+02 -0.83367359107E+01  0.87131821891E+01  0.20541052759E+02  0.51100000000E-03 0.  1.
        -12    1    3    3    0    0  0.15471709964E+01 -0.19204854189E+02  0.16171434363E+02  0.25154233280E+02  0.00000000000E+00 0.  1.
</event>
<event>
 7    1  0.2969156E-011  0.5052888E+02  0.7816164E-02  0.1300439E+00
        -11   -1    0    0    0    0  0.00000000000E+00  0.00000000000E+00  0.45593999997E+02  0.45594000000E+02  0.51100000000E-03 0.  1.
         11   -1    0    0    0    0 -0.00000000000E+00 -0.00000000000E+00 -0.45593999997E+02  0.45594000000E+02  0.51100000000E-03 0. -1.
    9900012    2    1    2    0    0 -0.15377631089E+02  0.15150234507E+02  0.34455234159E+02  0.50528876738E+02  0.30000051331E+02 0.  0.
         12    1    1    2    0    0  0.15377631089E+02 -0.15150234507E+02 -0.34455234159E+02  0.40659123262E+02  0.00000000000E+00 0. -1.
         11    1    3    3    0    0  0.51681443776E+01  0.86842698947E+01  0.90282003135E+01  0.13551186704E+02  0.51100000000E-03 0. -1.
        -11    1    3    3    0    0 -0.29927170388E+01  0.13615181491E+01  0.16144181502E+02  0.16475578399E+02  0.51100000000E-03 0.  1.
        -12    1    3    3    0    0 -0.17553058428E+02  0.51044464633E+01  0.92828523434E+01  0.20502111635E+02  0.00000000000E+00 0.  1.
</event>
<event>
 7    1  0.2969156E-011  0.5052886E+02  0.7816164E-02  0.1300439E+00
        -11   -1    0    0    0    0  0.00000000000E+00  0.00000000000E+00  0.45593999997E+02  0.45594000000E+02  0.51100000000E-03 0.  1.
         11   -1    0    0    0    0 -0.00000000000E+00 -0.00000000000E+00 -0.45593999997E+02  0.45594000000E+02  0.51100000000E-03 0. -1.
    9900012    2    1    2    0    0  0.62101131296E+01 -0.22063770635E+02  0.33582593138E+02  0.50528855376E+02  0.29999986401E+02 0.  0.
         12    1    1    2    0    0 -0.62101131296E+01  0.22063770635E+02 -0.33582593138E+02  0.40659144624E+02  0.00000000000E+00 0. -1.
         11    1    3    3    0    0 -0.11067746290E+02 -0.82335380149E+01  0.99356003698E+01  0.17000067975E+02  0.51100000000E-03 0. -1.
        -11    1    3    3    0    0  0.74665902877E+01 -0.12555507465E+01  0.99641334684E+01  0.12514405069E+02  0.51100000000E-03 0.  1.
        -12    1    3    3    0    0  0.98112691318E+01 -0.12574681873E+02  0.13682859299E+02  0.21014382332E+02  0.00000000000E+00 0.  1.
</event>
<event>
 7    1  0.2969156E-011  0.5052886E+02  0.7816164E-02  0.1300439E+00
        -11   -1    0    0    0    0  0.00000000000E+00  0.00000000000E+00  0.45593999997E+02  0.45594000000E+02  0.51100000000E-03 0.  1.
         11   -1    0    0    0    0 -0.00000000000E+00 -0.00000000000E+00 -0.45593999997E+02  0.45594000000E+02  0.51100000000E-03 0. -1.
    9900012    2    1    2    0    0 -0.30103078732E+02 -0.21286460832E+02  0.17142257807E+02  0.50528858757E+02  0.29999996678E+02 0.  0.
         12    1    1    2    0    0  0.30103078732E+02  0.21286460832E+02 -0.17142257807E+02  0.40659141243E+02  0.00000000000E+00 0. -1.
         11    1    3    3    0    0 -0.18140378244E+01  0.52018465189E+01  0.49343470056E+01  0.73957907669E+01  0.51100000000E-03 0. -1.
        -11    1    3    3    0    0 -0.12247315785E+02 -0.30583305843E+01  0.12064121141E+01  0.12680913230E+02  0.51100000000E-03 0.  1.
        -12    1    3    3    0    0 -0.16041725123E+02 -0.23429976766E+02  0.11001498687E+02  0.30452154760E+02  0.00000000000E+00 0.  1.
</event>
<event>
 7    1  0.2969156E-011  0.5052890E+02  0.7816164E-02  0.1300439E+00
        -11   -1    0    0    0    0  0.00000000000E+00  0.00000000000E+00  0.45593999997E+02  0.45594000000E+02  0.51100000000E-03 0.  1.
         11   -1    0    0    0    0 -0.00000000000E+00 -0.00000000000E+00 -0.45593999997E+02  0.45594000000E+02  0.51100000000E-03 0. -1.
    9900012    2    1    2    0    0  0.36241749879E+01 -0.30823977586E+02  0.26266147823E+02  0.50528895731E+02  0.30000109063E+02 0.  0.
         12    1    1    2    0    0 -0.36241749879E+01  0.30823977586E+02 -0.26266147823E+02  0.40659104269E+02  0.00000000000E+00 0. -1.
         11    1    3    3    0    0 -0.43146328559E+01  0.36821962593E+01  0.26563311518E+01  0.62634432561E+01  0.51100000000E-03 0. -1.
        -11    1    3    3    0    0  0.56427483696E+01 -0.26466357829E+02  0.11167955973E+02  0.29275107972E+02  0.51100000000E-03 0.  1.
        -12    1    3    3    0    0  0.22960594742E+01 -0.80398160161E+01  0.12441860698E+02  0.14990344503E+02  0.00000000000E+00 0.  1.
</event>
<event>
 7    1  0.2969156E-011  0.5052886E+02  0.7816164E-02  0.1300439E+00
        -11   -1    0    0    0    0  0.00000000000E+00  0.00000000000E+00  0.45593999997E+02  0.45594000000E+02  0.51100000000E-03 0.  1.
         11   -1    0    0    0    0 -0.00000000000E+00 -0.00000000000E+00 -0.45593999997E+02  0.45594000000E+02  0.51100000000E-03 0. -1.
    9900012    2    1    2    0    0  0.74414536944E+01  0.39969058299E+02  0.51422156537E+00  0.50528864763E+02  0.30000014935E+02 0.  0.
         12    1    1    2    0    0 -0.74414536944E+01 -0.39969058299E+02 -0.51422156537E+00  0.40659135237E+02  0.00000000000E+00 0. -1.
         11    1    3    3    0    0 -0.48559774186E+01  0.18338606194E+02  0.19402549846E+01  0.19069598409E+02  0.51100000000E-03 0. -1.
        -11    1    3    3    0    0  0.69756070832E+01  0.24424217337E+02 -0.76344541292E+00  0.25412287104E+02  0.51100000000E-03 0.  1.
         12    1    3    3    0    0  0.53218240299E+01 -0.27937652325E+01 -0.66258800632E+00  0.60469792496E+01  0.00000000000E+00 0. -1.
</event>
<event>
 7    1  0.2969156E-011  0.5052887E+02  0.7816164E-02  0.1300439E+00
        -11   -1    0    0    0    0  0.00000000000E+00  0.00000000000E+00  0.45593999997E+02  0.45594000000E+02  0.51100000000E-03 0.  1.
         11   -1    0    0    0    0 -0.00000000000E+00 -0.00000000000E+00 -0.45593999997E+02  0.45594000000E+02  0.51100000000E-03 0. -1.
    9900012    2    1    2    0    0  0.35039482040E+01 -0.28834875136E+02  0.28450611120E+02  0.50528868796E+02  0.30000027193E+02 0.  0.
         12    1    1    2    0    0 -0.35039482040E+01  0.28834875136E+02 -0.28450611120E+02  0.40659131204E+02  0.00000000000E+00 0. -1.
         11    1    3    3    0    0 -0.63280036799E+01 -0.21553802850E+01  0.12725208826E+02  0.14374290753E+02  0.51100000000E-03 0. -1.
        -11    1    3    3    0    0 -0.11988506244E+01 -0.13012471526E+02  0.77613702134E+00  0.13090609114E+02  0.51100000000E-03 0.  1.
         12    1    3    3    0    0  0.11030802508E+02 -0.13667023325E+02  0.14949265273E+02  0.23063968929E+02  0.00000000000E+00 0. -1.
</event>
<event>
 7    1  0.2969156E-011  0.5052885E+02  0.7816164E-02  0.1300439E+00
        -11   -1    0    0    0    0  0.00000000000E+00  0.00000000000E+00  0.45593999997E+02  0.45594000000E+02  0.51100000000E-03 0. -1.
         11   -1    0    0    0    0 -0.00000000000E+00 -0.00000000000E+00 -0.45593999997E+02  0.45594000000E+02  0.51100000000E-03 0.  1.
    9900012    2    1    2    0    0 -0.25187795054E+02  0.31917731176E+02 -0.38674963436E-02  0.50528848533E+02  0.29999965600E+02 0.  0.
         12    1    1    2    0    0  0.25187795054E+02 -0.31917731176E+02  0.38674963436E-02  0.40659151467E+02  0.00000000000E+00 0. -1.
         11    1    3    3    0    0 -0.44525615744E+01  0.32937771336E+00 -0.48398770245E+01  0.65846946873E+01  0.51100000000E-03 0.  1.
        -11    1    3    3    0    0 -0.99202975773E+01  0.59595273442E+01 -0.72053824981E+01  0.13632527550E+02  0.51100000000E-03 0. -1.
         12    1    3    3    0    0 -0.10814935902E+02  0.25628826118E+02  0.12041392026E+02  0.30311626296E+02  0.00000000000E+00 0. -1.
</event>
<event>
 7    1  0.2969156E-011  0.5052886E+02  0.7816164E-02  0.1300439E+00
        -11   -1    0    0    0    0  0.00000000000E+00  0.00000000000E+00  0.45593999997E+02  0.45594000000E+02  0.51100000000E-03 0.  1.
         11   -1    0    0    0    0 -0.00000000000E+00 -0.00000000000E+00 -0.45593999997E+02  0.45594000000E+02  0.51100000000E-03 0. -1.
    9900012    2    1    2    0    0 -0.20702416870E+01  0.31513725330E+01  0.40483932529E+02  0.50528857824E+02  0.29999993840E+02 0.  0.
         12    1    1    2    0    0  0.20702416870E+01 -0.31513725330E+01 -0.40483932529E+02  0.40659142176E+02  0.00000000000E+00 0. -1.
         11    1    3    3    0    0 -0.42331177153E+01  0.13291740402E+01  0.14550440806E+02  0.15211880789E+02  0.51100000000E-03 0. -1.
        -11    1    3    3    0    0 -0.36123700360E+01 -0.14215446263E+00  0.28478609593E+02  0.28707152937E+02  0.51100000000E-03 0.  1.
        -12    1    3    3    0    0  0.57752460642E+01  0.19643529555E+01 -0.25451178691E+01  0.66098240978E+01  0.00000000000E+00 0.  1.
</event>
<event>
 7    1  0.2969156E-011  0.5052886E+02  0.7816164E-02  0.1300439E+00
        -11   -1    0    0    0    0  0.00000000000E+00  0.00000000000E+00  0.45593999997E+02  0.45594000000E+02  0.51100000000E-03 0.  1.
         11   -1    0    0    0    0 -0.00000000000E+00 -0.00000000000E+00 -0.45593999997E+02  0.45594000000E+02  0.51100000000E-03 0. -1.
    9900012    2    1    2    0    0  0.27823968953E+02 -0.70130783560E+01  0.28806404605E+02  0.50528862496E+02  0.30000008042E+02 0.  0.
         12    1    1    2    0    0 -0.27823968953E+02  0.70130783560E+01 -0.28806404605E+02  0.40659137504E+02  0.00000000000E+00 0. -1.
         11    1    3    3    0    0  0.44198741819E+01 -0.56117284380E+01  0.11284442660E+02  0.13355352120E+02  0.51100000000E-03 0. -1.
        -11    1    3    3    0    0  0.35492312780E+01  0.93040081998E+01  0.32246954560E+01  0.10467104293E+02  0.51100000000E-03 0.  1.
         12    1    3    3    0    0  0.19854863493E+02 -0.10705358118E+02  0.14297266489E+02  0.26706406082E+02  0.00000000000E+00 0. -1.
</event>
<event>
 7    1  0.2969156E-011  0.5052889E+02  0.7816164E-02  0.1300439E+00
        -11   -1    0    0    0    0  0.00000000000E+00  0.00000000000E+00  0.45593999997E+02  0.45594000000E+02  0.51100000000E-03 0. -1.
         11   -1    0    0    0    0 -0.00000000000E+00 -0.00000000000E+00 -0.45593999997E+02  0.45594000000E+02  0.51100000000E-03 0.  1.
    9900012    2    1    2    0    0 -0.31346098627E+02  0.25877458237E+02 -0.97090705985E+00  0.50528887806E+02  0.30000084974E+02 0.  0.
         12    1    1    2    0    0  0.31346098627E+02 -0.25877458237E+02  0.97090705985E+00  0.40659112194E+02  0.00000000000E+00 0. -1.
         11    1    3    3    0    0 -0.79293256636E+01  0.76692369001E+00 -0.51728749558E+01  0.94984742457E+01  0.51100000000E-03 0. -1.
        -11    1    3    3    0    0 -0.14751499966E+02  0.18464481817E+02 -0.77203606529E+01  0.24862578484E+02  0.51100000000E-03 0.  1.
         12    1    3    3    0    0 -0.86652729977E+01  0.66460527302E+01  0.11922328549E+02  0.16167835076E+02  0.00000000000E+00 0. -1.
</event>
<event>
 7    1  0.2969156E-011  0.5052888E+02  0.7816164E-02  0.1300439E+00
        -11   -1    0    0    0    0  0.00000000000E+00  0.00000000000E+00  0.45593999997E+02  0.45594000000E+02  0.51100000000E-03 0. -1.
         11   -1    0    0    0    0 -0.00000000000E+00 -0.00000000000E+00 -0.45593999997E+02  0.45594000000E+02  0.51100000000E-03 0.  1.
    9900012    2    1    2    0    0  0.42237787590E+00 -0.44361248433E+01 -0.40414190517E+02  0.50528875540E+02  0.30000047691E+02 0.  0.
         12    1    1    2    0    0 -0.42237787590E+00  0.44361248433E+01  0.40414190517E+02  0.40659124460E+02  0.00000000000E+00 0. -1.
         11    1    3    3    0    0 -0.52030878262E+01  0.89726006973E+00 -0.26265452797E+02  0.26790879222E+02  0.51100000000E-03 0. -1.
        -11    1    3    3    0    0  0.66164225789E+01  0.37605269503E+01 -0.12209181879E+02  0.14386894492E+02  0.51100000000E-03 0.  1.
         12    1    3    3    0    0 -0.99095687683E+00 -0.90939118634E+01 -0.19395558407E+01  0.93511018265E+01  0.00000000000E+00 0. -1.
</event>
<event>
 7    1  0.2969156E-011  0.5052886E+02  0.7816164E-02  0.1300439E+00
        -11   -1    0    0    0    0  0.00000000000E+00  0.00000000000E+00  0.45593999997E+02  0.45594000000E+02  0.51100000000E-03 0.  1.
         11   -1    0    0    0    0 -0.00000000000E+00 -0.00000000000E+00 -0.45593999997E+02  0.45594000000E+02  0.51100000000E-03 0. -1.
    9900012    2    1    2    0    0 -0.20620151357E+02 -0.34605707544E+02 -0.55154296810E+01  0.50528860792E+02  0.30000002863E+02 0.  0.
         12    1    1    2    0    0  0.20620151357E+02  0.34605707544E+02  0.55154296810E+01  0.40659139208E+02  0.00000000000E+00 0. -1.
         11    1    3    3    0    0  0.16988184469E+01 -0.14204096169E+01  0.76751867192E+00  0.23436366545E+01  0.51100000000E-03 0. -1.
        -11    1    3    3    0    0  0.97843585799E+00 -0.65040421680E+01 -0.10627988393E+02  0.12498561469E+02  0.51100000000E-03 0.  1.
        -12    1    3    3    0    0 -0.23297405662E+02 -0.26681255759E+02  0.43450400402E+01  0.35686662668E+02  0.00000000000E+00 0.  1.
</event>
<event>
 7    1  0.2969156E-011  0.5052886E+02  0.7816164E-02  0.1300439E+00
        -11   -1    0    0    0    0  0.00000000000E+00  0.00000000000E+00  0.45593999997E+02  0.45594000000E+02  0.51100000000E-03 0. -1.
         11   -1    0    0    0    0 -0.00000000000E+00 -0.00000000000E+00 -0.45593999997E+02  0.45594000000E+02  0.51100000000E-03 0.  1.
    9900012    2    1    2    0    0  0.26382004139E+02 -0.16671255376E+02 -0.26061940191E+02  0.50528860502E+02  0.30000001983E+02 0.  0.
         12    1    1    2    0    0 -0.26382004139E+02  0.16671255376E+02  0.26061940191E+02  0.40659139498E+02  0.00000000000E+00 0. -1.
         11    1    3    3    0    0  0.70789620278E+01 -0.13075682056E+02 -0.54257361703E+01  0.15827942945E+02  0.51100000000E-03 0. -1.
        -11    1    3    3    0    0 -0.60738699319E+00 -0.75590560179E+01 -0.60976396420E+01  0.97308507493E+01  0.51100000000E-03 0.  1.
        -12    1    3    3    0    0  0.19910429104E+02  0.39634826979E+01 -0.14538564379E+02  0.24970066808E+02  0.00000000000E+00 0.  1.
</event>
<event>
 7    1  0.2969156E-011  0.5052886E+02  0.7816164E-02  0.1300439E+00
        -11   -1    0    0    0    0  0.00000000000E+00  0.00000000000E+00  0.45593999997E+02  0.45594000000E+02  0.51100000000E-03 0.  1.
         11   -1    0    0    0    0 -0.00000000000E+00 -0.00000000000E+00 -0.45593999997E+02  0.45594000000E+02  0.51100000000E-03 0. -1.
    9900012    2    1    2    0    0  0.40555525576E+02  0.75166973677E+00  0.28017647739E+01  0.50528861445E+02  0.30000004849E+02 0.  0.
         12    1    1    2    0    0 -0.40555525576E+02 -0.75166973677E+00 -0.28017647739E+01  0.40659138555E+02  0.00000000000E+00 0. -1.
         11    1    3    3    0    0  0.20573637897E+02  0.43963835165E+01 -0.87950945033E+01  0.22802553627E+02  0.51100000000E-03 0. -1.
        -11    1    3    3    0    0  0.17436571585E+01  0.46785869085E+01  0.11657610006E+01  0.51272326570E+01  0.51100000000E-03 0.  1.
         12    1    3    3    0    0  0.18238230521E+02 -0.83233006883E+01  0.10431098277E+02  0.22599075161E+02  0.00000000000E+00 0. -1.
</event>
<event>
 7    1  0.2969156E-011  0.5052886E+02  0.7816164E-02  0.1300439E+00
        -11   -1    0    0    0    0  0.00000000000E+00  0.00000000000E+00  0.45593999997E+02  0.45594000000E+02  0.51100000000E-03 0.  1.
         11   -1    0    0    0    0 -0.00000000000E+00 -0.00000000000E+00 -0.45593999997E+02  0.45594000000E+02  0.51100000000E-03 0. -1.
    9900012    2    1    2    0    0  0.87061846801E+01  0.31208917712E+02  0.24563617366E+02  0.50528862103E+02  0.30000006848E+02 0.  0.
         12    1    1    2    0    0 -0.87061846801E+01 -0.31208917712E+02 -0.24563617366E+02  0.40659137897E+02  0.00000000000E+00 0. -1.
         11    1    3    3    0    0  0.18297971096E+02  0.18671160215E+02  0.73436820835E+01  0.27154329983E+02  0.51100000000E-03 0. -1.
        -11    1    3    3    0    0 -0.23316990271E+01  0.32051582123E+01  0.48287539910E+01  0.62471373353E+01  0.51100000000E-03 0.  1.
         12    1    3    3    0    0 -0.72600873892E+01  0.93325992849E+01  0.12391181291E+02  0.17127394785E+02  0.00000000000E+00 0. -1.
</event>
<event>
 7    1  0.2969156E-011  0.5052886E+02  0.7816164E-02  0.1300439E+00
        -11   -1    0    0    0    0  0.00000000000E+00  0.00000000000E+00  0.45593999997E+02  0.45594000000E+02  0.51100000000E-03 0. -1.
         11   -1    0    0    0    0 -0.00000000000E+00 -0.00000000000E+00 -0.45593999997E+02  0.45594000000E+02  0.51100000000E-03 0.  1.
    9900012    2    1    2    0    0 -0.99276971087E+01  0.28587869868E+02 -0.27154011518E+02  0.50528858162E+02  0.29999994869E+02 0.  0.
         12    1    1    2    0    0  0.99276971087E+01 -0.28587869868E+02  0.27154011518E+02  0.40659141838E+02  0.00000000000E+00 0. -1.
         11    1    3    3    0    0  0.32586931442E+01  0.18490664198E+02 -0.14669467585E+02  0.23826813110E+02  0.51100000000E-03 0. -1.
        -11    1    3    3    0    0 -0.37803790310E+01  0.74691237990E+01 -0.14487781488E+02  0.16732450169E+02  0.51100000000E-03 0.  1.
         12    1    3    3    0    0 -0.94060112219E+01  0.26280818715E+01  0.20032375555E+01  0.99695948831E+01  0.00000000000E+00 0. -1.
</event>
<event>
 7    1  0.5594969E-011  0.5052886E+02  0.7816164E-02  0.1300439E+00
        -11   -1    0    0    0    0  0.00000000000E+00  0.00000000000E+00  0.45593999997E+02  0.45594000000E+02  0.51100000000E-03 0. -1.
         11   -1    0    0    0    0 -0.00000000000E+00 -0.00000000000E+00 -0.45593999997E+02  0.45594000000E+02  0.51100000000E-03 0.  1.
    9900012    2    1    2    0    0  0.30358875544E+01  0.12965140741E+02 -0.38416850751E+02  0.50528857003E+02  0.29999991345E+02 0.  0.
         12    1    1    2    0    0 -0.30358875544E+01 -0.12965140741E+02  0.38416850751E+02  0.40659142997E+02  0.00000000000E+00 0. -1.
         11    1    3    3    0    0  0.17125296462E+01  0.30249749356E+01  0.29834408193E+01  0.45808460500E+01  0.51100000000E-03 0. -1.
        -11    1    3    3    0    0  0.11413263047E+01  0.14537331817E+02 -0.25281277448E+02  0.29185263949E+02  0.51100000000E-03 0.  1.
        -12    1    3    3    0    0  0.18203160352E+00 -0.45971660117E+01 -0.16119014122E+02  0.16762747004E+02  0.00000000000E+00 0.  1.
</event>
<event>
 7    1  0.2969156E-011  0.5052887E+02  0.7816164E-02  0.1300439E+00
        -11   -1    0    0    0    0  0.00000000000E+00  0.00000000000E+00  0.45593999997E+02  0.45594000000E+02  0.51100000000E-03 0.  1.
         11   -1    0    0    0    0 -0.00000000000E+00 -0.00000000000E+00 -0.45593999997E+02  0.45594000000E+02  0.51100000000E-03 0. -1.
    9900012    2    1    2    0    0  0.75768916342E+01 -0.83623413080E+01  0.39061832646E+02  0.50528870537E+02  0.30000032484E+02 0.  0.
         12    1    1    2    0    0 -0.75768916342E+01  0.83623413080E+01 -0.39061832646E+02  0.40659129463E+02  0.00000000000E+00 0. -1.
         11    1    3    3    0    0 -0.39380457622E+01  0.49549841362E+01  0.27416886484E+01  0.68976031432E+01  0.51100000000E-03 0. -1.
        -11    1    3    3    0    0  0.12593739748E+02 -0.82852905327E+01  0.13493671318E+02  0.20231843365E+02  0.51100000000E-03 0.  1.
         12    1    3    3    0    0 -0.10788023518E+01 -0.50320349114E+01  0.22826472680E+02  0.23399424028E+02  0.00000000000E+00 0. -1.
</event>
<event>
 7    1  0.2969156E-011  0.5052885E+02  0.7816164E-02  0.1300439E+00
        -11   -1    0    0    0    0  0.00000000000E+00  0.00000000000E+00  0.45593999997E+02  0.45594000000E+02  0.51100000000E-03 0. -1.
         11   -1    0    0    0    0 -0.00000000000E+00 -0.00000000000E+00 -0.45593999997E+02  0.45594000000E+02  0.51100000000E-03 0.  1.
    9900012    2    1    2    0    0  0.42631536782E+01 -0.40020016564E+02 -0.57784046295E+01  0.50528853856E+02  0.29999981782E+02 0.  0.
         12    1    1    2    0    0 -0.42631536782E+01  0.40020016564E+02  0.57784046295E+01  0.40659146144E+02  0.00000000000E+00 0. -1.
         11    1    3    3    0    0  0.23516629665E+00  0.38006701021E+01  0.27259535417E+01  0.46830779819E+01  0.51100000000E-03 0. -1.
        -11    1    3    3    0    0 -0.28782880125E+01 -0.94260403818E+01 -0.32228984089E+01  0.10369274496E+02  0.51100000000E-03 0.  1.
        -12    1    3    3    0    0  0.69062753940E+01 -0.34394646284E+02 -0.52814597624E+01  0.35476501378E+02  0.00000000000E+00 0.  1.
</event>
<event>
 7    1  0.2969156E-011  0.5052884E+02  0.7816164E-02  0.1300439E+00
        -11   -1    0    0    0    0  0.00000000000E+00  0.00000000000E+00  0.45593999997E+02  0.45594000000E+02  0.51100000000E-03 0. -1.
         11   -1    0    0    0    0 -0.00000000000E+00 -0.00000000000E+00 -0.45593999997E+02  0.45594000000E+02  0.51100000000E-03 0.  1.
    9900012    2    1    2    0    0  0.15731641026E+01 -0.37325597048E+02 -0.16046565944E+02  0.50528839668E+02  0.29999938654E+02 0.  0.
         12    1    1    2    0    0 -0.15731641026E+01  0.37325597048E+02  0.16046565944E+02  0.40659160332E+02  0.00000000000E+00 0. -1.
         11    1    3    3    0    0  0.63379913797E+01 -0.92216849498E+01  0.54116427568E+00  0.11202788362E+02  0.51100000000E-03 0. -1.
        -11    1    3    3    0    0  0.74985985013E+01 -0.10200100227E+02 -0.11347818893E+02  0.17001294598E+02  0.51100000000E-03 0.  1.
         12    1    3    3    0    0 -0.12263425778E+02 -0.17903811872E+02 -0.52399113275E+01  0.22324756708E+02  0.00000000000E+00 0. -1.
</event>
<event>
 7    1  0.2969156E-011  0.5052885E+02  0.7816164E-02  0.1300439E+00
        -11   -1    0    0    0    0  0.00000000000E+00  0.00000000000E+00  0.45593999997E+02  0.45594000000E+02  0.51100000000E-03 0.  1.
         11   -1    0    0    0    0 -0.00000000000E+00 -0.00000000000E+00 -0.45593999997E+02  0.45594000000E+02  0.51100000000E-03 0. -1.
    9900012    2    1    2    0    0  0.29731205043E+02  0.39178470790E+01 -0.27456741926E+02  0.50528846587E+02  0.29999959687E+02 0.  0.
         12    1    1    2    0    0 -0.29731205043E+02 -0.39178470790E+01  0.27456741926E+02  0.40659153413E+02  0.00000000000E+00 0. -1.
         11    1    3    3    0    0 -0.38778028718E+01  0.18296145657E+01 -0.12326213933E+02  0.13050685605E+02  0.51100000000E-03 0. -1.
        -11    1    3    3    0    0  0.50289748260E+01 -0.20067792251E+01 -0.22544575490E+01  0.58651794312E+01  0.51100000000E-03 0.  1.
        -12    1    3    3    0    0  0.28580033089E+02  0.40950117385E+01 -0.12876070445E+02  0.31612981552E+02  0.00000000000E+00 0.  1.
</event>
<event>
 7    1  0.2969156E-011  0.5052889E+02  0.7816164E-02  0.1300439E+00
        -11   -1    0    0    0    0  0.00000000000E+00  0.00000000000E+00  0.45593999997E+02  0.45594000000E+02  0.51100000000E-03 0. -1.
         11   -1    0    0    0    0 -0.00000000000E+00 -0.00000000000E+00 -0.45593999997E+02  0.45594000000E+02  0.51100000000E-03 0.  1.
    9900012    2    1    2    0    0  0.29537369839E+02 -0.89243021067E+01 -0.26477608984E+02  0.50528890780E+02  0.30000094014E+02 0.  0.
         12    1    1    2    0    0 -0.29537369839E+02  0.89243021067E+01  0.26477608984E+02  0.40659109220E+02  0.00000000000E+00 0. -1.
         11    1    3    3    0    0  0.33196050295E+01 -0.88027518962E+00 -0.15128483628E+02  0.15513403208E+02  0.51100000000E-03 0. -1.
        -11    1    3    3    0    0 -0.22066919222E+00 -0.17507086796E+01  0.35920173382E+01  0.40020325576E+01  0.51100000000E-03 0.  1.
        -12    1    3    3    0    0  0.26438434001E+02 -0.62933182375E+01 -0.14941142694E+02  0.31013455014E+02  0.00000000000E+00 0.  1.
</event>
<event>
 7    1  0.2969156E-011  0.5052886E+02  0.7816164E-02  0.1300439E+00
        -11   -1    0    0    0    0  0.00000000000E+00  0.00000000000E+00  0.45593999997E+02  0.45594000000E+02  0.51100000000E-03 0. -1.
         11   -1    0    0    0    0 -0.00000000000E+00 -0.00000000000E+00 -0.45593999997E+02  0.45594000000E+02  0.51100000000E-03 0.  1.
    9900012    2    1    2    0    0  0.62739136638E+00  0.23260473330E+02 -0.33342502406E+02  0.50528859500E+02  0.29999998938E+02 0.  0.
         12    1    1    2    0    0 -0.62739136638E+00 -0.23260473330E+02  0.33342502406E+02  0.40659140500E+02  0.00000000000E+00 0. -1.
         11    1    3    3    0    0  0.23303887769E+01  0.86123534030E+01 -0.73708907304E+01  0.11572958715E+02  0.51100000000E-03 0. -1.
        -11    1    3    3    0    0  0.78992908578E+01  0.30516381467E+01 -0.21718035754E+02  0.23310606356E+02  0.51100000000E-03 0.  1.
         12    1    3    3    0    0 -0.96022882684E+01  0.11596481780E+02 -0.42535759222E+01  0.15645294430E+02  0.00000000000E+00 0. -1.
</event>
<event>
 7    1  0.2969156E-011  0.5052881E+02  0.7816164E-02  0.1300439E+00
        -11   -1    0    0    0    0  0.00000000000E+00  0.00000000000E+00  0.45593999997E+02  0.45594000000E+02  0.51100000000E-03 0.  1.
         11   -1    0    0    0    0 -0.00000000000E+00 -0.00000000000E+00 -0.45593999997E+02  0.45594000000E+02  0.51100000000E-03 0. -1.
    9900012    2    1    2    0    0  0.15790888259E+01  0.15879923983E+02  0.37396584222E+02  0.50528806468E+02  0.29999837739E+02 0.  0.
         12    1    1    2    0    0 -0.15790888259E+01 -0.15879923983E+02 -0.37396584222E+02  0.40659193532E+02  0.00000000000E+00 0. -1.
         11    1    3    3    0    0 -0.10286655621E+02  0.46504157660E+01  0.18260396575E+02  0.21468202859E+02  0.51100000000E-03 0. -1.
        -11    1    3    3    0    0 -0.70691516809E-01 -0.31653394579E+01  0.25659376527E+01  0.40753413935E+01  0.51100000000E-03 0.  1.
         12    1    3    3    0    0  0.11936435964E+02  0.14394847675E+02  0.16570249994E+02  0.24985262215E+02  0.00000000000E+00 0. -1.
</event>
<event>
 7    1  0.2969156E-011  0.5052887E+02  0.7816164E-02  0.1300439E+00
        -11   -1    0    0    0    0  0.00000000000E+00  0.00000000000E+00  0.45593999997E+02  0.45594000000E+02  0.51100000000E-03 0.  1.
         11   -1    0    0    0    0 -0.00000000000E+00 -0.00000000000E+00 -0.45593999997E+02  0.45594000000E+02  0.51100000000E-03 0. -1.
    9900012    2    1    2    0    0 -0.28091302145E+02 -0.29207233016E+02  0.33138050292E+01  0.50528867934E+02  0.30000024571E+02 0.  0.
         12    1    1    2    0    0  0.28091302145E+02  0.29207233016E+02 -0.33138050292E+01  0.40659132066E+02  0.00000000000E+00 0. -1.
         11    1    3    3    0    0 -0.62934125292E+01 -0.11417892570E+01 -0.23456208174E+01  0.68126838507E+01  0.51100000000E-03 0. -1.
        -11    1    3    3    0    0 -0.18315750311E+02 -0.13495062679E+02 -0.73155628477E+01  0.23897717176E+02  0.51100000000E-03 0.  1.
         12    1    3    3    0    0 -0.34821393046E+01 -0.14570381079E+02  0.12974988694E+02  0.19818466907E+02  0.00000000000E+00 0. -1.
</event>
<event>
 7    1  0.2969156E-011  0.5052886E+02  0.7816164E-02  0.1300439E+00
        -11   -1    0    0    0    0  0.00000000000E+00  0.00000000000E+00  0.45593999997E+02  0.45594000000E+02  0.51100000000E-03 0. -1.
         11   -1    0    0    0    0 -0.00000000000E+00 -0.00000000000E+00 -0.45593999997E+02  0.45594000000E+02  0.51100000000E-03 0.  1.
    9900012    2    1    2    0    0  0.36025002953E+02  0.18404662802E+02 -0.40784153043E+01  0.50528856846E+02  0.29999990869E+02 0.  0.
         12    1    1    2    0    0 -0.36025002953E+02 -0.18404662802E+02  0.40784153043E+01  0.40659143154E+02  0.00000000000E+00 0. -1.
         11    1    3    3    0    0  0.27774715804E+02  0.21021897295E+02  0.21913984513E+01  0.34902109268E+02  0.51100000000E-03 0. -1.
        -11    1    3    3    0    0  0.97971919478E+01  0.48895242297E+00 -0.70375867649E+01  0.12072765726E+02  0.51100000000E-03 0.  1.
        -12    1    3    3    0    0 -0.15469047992E+01 -0.31061869159E+01  0.76777300934E+00  0.35539818526E+01  0.00000000000E+00 0.  1.
</event>
<event>
 7    1  0.2969156E-011  0.5052886E+02  0.7816164E-02  0.1300439E+00
        -11   -1    0    0    0    0  0.00000000000E+00  0.00000000000E+00  0.45593999997E+02  0.45594000000E+02  0.51100000000E-03 0.  1.
         11   -1    0    0    0    0 -0.00000000000E+00 -0.00000000000E+00 -0.45593999997E+02  0.45594000000E+02  0.51100000000E-03 0. -1.
    9900012    2    1    2    0    0 -0.25206283704E+02 -0.27061040809E+02  0.16897016138E+02  0.50528858073E+02  0.29999994600E+02 0.  0.
         12    1    1    2    0    0  0.25206283704E+02  0.27061040809E+02 -0.16897016138E+02  0.40659141927E+02  0.00000000000E+00 0. -1.
         11    1    3    3    0    0 -0.94406899105E+01 -0.59843196385E+01 -0.18743466784E+01  0.11333661511E+02  0.51100000000E-03 0. -1.
        -11    1    3    3    0    0 -0.11368312075E+02 -0.24530674066E+02  0.10068365296E+02  0.28850727366E+02  0.51100000000E-03 0.  1.
        -12    1    3    3    0    0 -0.43972817192E+01  0.34539528947E+01  0.87029975201E+01  0.10344469196E+02  0.00000000000E+00 0.  1.
</event>
<event>
 7    1  0.2969156E-011  0.5052884E+02  0.7816164E-02  0.1300439E+00
        -11   -1    0    0    0    0  0.00000000000E+00  0.00000000000E+00  0.45593999997E+02  0.45594000000E+02  0.51100000000E-03 0.  1.
         11   -1    0    0    0    0 -0.00000000000E+00 -0.00000000000E+00 -0.45593999997E+02  0.45594000000E+02  0.51100000000E-03 0. -1.
    9900012    2    1    2    0    0 -0.23554759886E+02 -0.31936229895E+02  0.88553874360E+01  0.50528838919E+02  0.29999936377E+02 0.  0.
         12    1    1    2    0    0  0.23554759886E+02  0.31936229895E+02 -0.88553874360E+01  0.40659161081E+02  0.00000000000E+00 0. -1.
         11    1    3    3    0    0  0.14628145779E+01  0.27221347895E+01  0.39568614447E+01  0.50206171986E+01  0.51100000000E-03 0. -1.
        -11    1    3    3    0    0 -0.36172490860E+01 -0.16514080068E+02 -0.60600979585E+00  0.16916458837E+02  0.51100000000E-03 0.  1.
        -12    1    3    3    0    0 -0.21400325378E+02 -0.18144284616E+02  0.55045357872E+01  0.28591762883E+02  0.00000000000E+00 0.  1.
</event>
<event>
 7    1  0.2969156E-011  0.5052886E+02  0.7816164E-02  0.1300439E+00
        -11   -1    0    0    0    0  0.00000000000E+00  0.00000000000E+00  0.45593999997E+02  0.45594000000E+02  0.51100000000E-03 0.  1.
         11   -1    0    0    0    0 -0.00000000000E+00 -0.00000000000E+00 -0.45593999997E+02  0.45594000000E+02  0.51100000000E-03 0. -1.
    9900012    2    1    2    0    0 -0.97839322106E+01  0.26552468980E+02  0.29196010278E+02  0.50528856446E+02  0.29999989653E+02 0.  0.
         12    1    1    2    0    0  0.97839322106E+01 -0.26552468980E+02 -0.29196010278E+02  0.40659143554E+02  0.00000000000E+00 0. -1.
         11    1    3    3    0    0  0.47930301416E+01  0.77328317176E+00  0.43281632480E+00  0.48742625118E+01  0.51100000000E-03 0. -1.
        -11    1    3    3    0    0 -0.16872003151E+01  0.18202140579E+02  0.23566874642E+02  0.29825528448E+02  0.51100000000E-03 0.  1.
        -12    1    3    3    0    0 -0.12889762037E+02  0.75770452290E+01  0.51963193107E+01  0.15829065486E+02  0.00000000000E+00 0.  1.
</event>
<event>
 7    1  0.2969156E-011  0.5052886E+02  0.7816164E-02  0.1300439E+00
        -11   -1    0    0    0    0  0.00000000000E+00  0.00000000000E+00  0.45593999997E+02  0.45594000000E+02  0.51100000000E-03 0. -1.
         11   -1    0    0    0    0 -0.00000000000E+00 -0.00000000000E+00 -0.45593999997E+02  0.45594000000E+02  0.51100000000E-03 0.  1.
    9900012    2    1    2    0    0  0.21629925562E+02 -0.55344620582E+00 -0.34423905949E+02  0.50528864701E+02  0.30000014744E+02 0.  0.
         12    1    1    2    0    0 -0.21629925562E+02  0.55344620582E+00  0.34423905949E+02  0.40659135299E+02  0.00000000000E+00 0. -1.
         11    1    3    3    0    0  0.83695229942E+01  0.41601596983E+01 -0.42842515744E+00  0.93562488340E+01  0.51100000000E-03 0. -1.
        -11    1    3    3    0    0  0.10429567489E+01 -0.97200169350E+01 -0.11550301697E+02  0.15131951545E+02  0.51100000000E-03 0.  1.
        -12    1    3    3    0    0  0.12217445819E+02  0.50064110309E+01 -0.22445179094E+02  0.26040664322E+02  0.00000000000E+00 0.  1.
</event>
<event>
 7    1  0.2969156E-011  0.5052886E+02  0.7816164E-02  0.1300439E+00
        -11   -1    0    0    0    0  0.00000000000E+00  0.00000000000E+00  0.45593999997E+02  0.45594000000E+02  0.51100000000E-03 0.  1.
         11   -1    0    0    0    0 -0.00000000000E+00 -0.00000000000E+00 -0.45593999997E+02  0.45594000000E+02  0.51100000000E-03 0. -1.
    9900012    2    1    2    0    0  0.15179537830E+02 -0.50141646734E+01  0.37384556683E+02  0.50528864562E+02  0.30000014324E+02 0.  0.
         12    1    1    2    0    0 -0.15179537830E+02  0.50141646734E+01 -0.37384556683E+02  0.40659135438E+02  0.00000000000E+00 0. -1.
         11    1    3    3    0    0 -0.41758095428E+01 -0.43151619177E+01  0.34825830030E+01  0.69416419058E+01  0.51100000000E-03 0. -1.
        -11    1    3    3    0    0 -0.14312968731E+00  0.59837636668E+01  0.37493167763E+01  0.70628103668E+01  0.51100000000E-03 0.  1.
        -12    1    3    3    0    0  0.19498477060E+02 -0.66827664225E+01  0.30152656904E+02  0.36524412290E+02  0.00000000000E+00 0.  1.
</event>
<event>
 7    1  0.2969156E-011  0.5052886E+02  0.7816164E-02  0.1300439E+00
        -11   -1    0    0    0    0  0.00000000000E+00  0.00000000000E+00  0.45593999997E+02  0.45594000000E+02  0.51100000000E-03 0. -1.
         11   -1    0    0    0    0 -0.00000000000E+00 -0.00000000000E+00 -0.45593999997E+02  0.45594000000E+02  0.51100000000E-03 0.  1.
    9900012    2    1    2    0    0  0.36573904685E+02  0.13868758276E+02 -0.11098322188E+02  0.50528859386E+02  0.29999998591E+02 0.  0.
         12    1    1    2    0    0 -0.36573904685E+02 -0.13868758276E+02  0.11098322188E+02  0.40659140614E+02  0.00000000000E+00 0. -1.
         11    1    3    3    0    0  0.53227564240E+00 -0.25783345392E+01  0.14303189907E+01  0.29961540400E+01  0.51100000000E-03 0. -1.
        -11    1    3    3    0    0  0.10289932173E+02  0.26113313246E+01 -0.14797358907E+02  0.18211633268E+02  0.51100000000E-03 0.  1.
         12    1    3    3    0    0  0.25751696870E+02  0.13835761490E+02  0.22687177275E+01  0.29321072078E+02  0.00000000000E+00 0. -1.
</event>
<event>
 7    1  0.2969156E-011  0.5052885E+02  0.7816164E-02  0.1300439E+00
        -11   -1    0    0    0    0  0.00000000000E+00  0.00000000000E+00  0.45593999997E+02  0.45594000000E+02  0.51100000000E-03 0. -1.
         11   -1    0    0    0    0 -0.00000000000E+00 -0.00000000000E+00 -0.45593999997E+02  0.45594000000E+02  0.51100000000E-03 0.  1.
    9900012    2    1    2    0    0 -0.38027731266E+02 -0.10098870513E+02 -0.10250418796E+02  0.50528848308E+02  0.29999964916E+02 0.  0.
         12    1    1    2    0    0  0.38027731266E+02  0.10098870513E+02  0.10250418796E+02  0.40659151692E+02  0.00000000000E+00 0. -1.
         11    1    3    3    0    0 -0.74179334828E+00  0.16701866470E+01  0.13785892167E+01  0.22891678175E+01  0.51100000000E-03 0. -1.
        -11    1    3    3    0    0 -0.23018657409E+02 -0.19858596466E+02 -0.69721932448E+01  0.31190285690E+02  0.51100000000E-03 0.  1.
         12    1    3    3    0    0 -0.14267280509E+02  0.80895393054E+01 -0.46568147679E+01  0.17049394801E+02  0.00000000000E+00 0. -1.
</event>
<event>
 7    1  0.2969156E-011  0.5052885E+02  0.7816164E-02  0.1300439E+00
        -11   -1    0    0    0    0  0.00000000000E+00  0.00000000000E+00  0.45593999997E+02  0.45594000000E+02  0.51100000000E-03 0. -1.
         11   -1    0    0    0    0 -0.00000000000E+00 -0.00000000000E+00 -0.45593999997E+02  0.45594000000E+02  0.51100000000E-03 0.  1.
    9900012    2    1    2    0    0  0.66760268143E+01 -0.25505298893E+02 -0.30952813207E+02  0.50528852799E+02  0.29999978569E+02 0.  0.
         12    1    1    2    0    0 -0.66760268143E+01  0.25505298893E+02  0.30952813207E+02  0.40659147201E+02  0.00000000000E+00 0. -1.
         11    1    3    3    0    0  0.53564254321E+01 -0.76938612260E+01  0.17516304319E+01  0.95370332602E+01  0.51100000000E-03 0. -1.
        -11    1    3    3    0    0  0.66534155004E+01 -0.66891296866E+00 -0.75165357700E+01  0.10060501609E+02  0.51100000000E-03 0.  1.
         12    1    3    3    0    0 -0.53338141182E+01 -0.17142524698E+02 -0.25187907869E+02  0.30931317930E+02  0.00000000000E+00 0. -1.
</event>
<event>
 7    1  0.2969156E-011  0.5052886E+02  0.7816164E-02  0.1300439E+00
        -11   -1    0    0    0    0  0.00000000000E+00  0.00000000000E+00  0.45593999997E+02  0.45594000000E+02  0.51100000000E-03 0.  1.
         11   -1    0    0    0    0 -0.00000000000E+00 -0.00000000000E+00 -0.45593999997E+02  0.45594000000E+02  0.51100000000E-03 0. -1.
    9900012    2    1    2    0    0  0.16771507254E+02 -0.85006670106E+01  0.36050257383E+02  0.50528857700E+02  0.29999993465E+02 0.  0.
         12    1    1    2    0    0 -0.16771507254E+02  0.85006670106E+01 -0.36050257383E+02  0.40659142300E+02  0.00000000000E+00 0. -1.
         11    1    3    3    0    0 -0.54707790069E+01  0.17313335402E+01  0.88838248082E+01  0.10575882103E+02  0.51100000000E-03 0. -1.
        -11    1    3    3    0    0  0.69897802886E+01 -0.12054274339E+02  0.13009101390E+02  0.19063034322E+02  0.51100000000E-03 0.  1.
        -12    1    3    3    0    0  0.15252505972E+02  0.18222737885E+01  0.14157331185E+02  0.20889941275E+02  0.00000000000E+00 0.  1.
</event>
<event>
 7    1  0.2969156E-011  0.5052886E+02  0.7816164E-02  0.1300439E+00
        -11   -1    0    0    0    0  0.00000000000E+00  0.00000000000E+00  0.45593999997E+02  0.45594000000E+02  0.51100000000E-03 0.  1.
         11   -1    0    0    0    0 -0.00000000000E+00 -0.00000000000E+00 -0.45593999997E+02  0.45594000000E+02  0.51100000000E-03 0. -1.
    9900012    2    1    2    0    0 -0.28129150571E+02  0.29349906822E+02 -0.70666912677E+00  0.50528861746E+02  0.30000005763E+02 0.  0.
         12    1    1    2    0    0  0.28129150571E+02 -0.29349906822E+02  0.70666912677E+00  0.40659138254E+02  0.00000000000E+00 0. -1.
         11    1    3    3    0    0 -0.10768248777E+02  0.18099202961E+02 -0.95747271004E+01  0.23134643478E+02  0.51100000000E-03 0. -1.
        -11    1    3    3    0    0 -0.16698966837E+02  0.12880472483E+02  0.30410830153E+01  0.21307516302E+02  0.51100000000E-03 0.  1.
        -12    1    3    3    0    0 -0.66193495717E+00 -0.16297686222E+01  0.58269749584E+01  0.60867019654E+01  0.00000000000E+00 0.  1.
</event>
<event>
 7    1  0.2969156E-011  0.5052885E+02  0.7816164E-02  0.1300439E+00
        -11   -1    0    0    0    0  0.00000000000E+00  0.00000000000E+00  0.45593999997E+02  0.45594000000E+02  0.51100000000E-03 0.  1.
         11   -1    0    0    0    0 -0.00000000000E+00 -0.00000000000E+00 -0.45593999997E+02  0.45594000000E+02  0.51100000000E-03 0. -1.
    9900012    2    1    2    0    0  0.24308951665E+01  0.12662346688E+02  0.38560626080E+02  0.50528853936E+02  0.29999982025E+02 0.  0.
         12    1    1    2    0    0 -0.24308951665E+01 -0.12662346688E+02 -0.38560626080E+02  0.40659146064E+02  0.00000000000E+00 0. -1.
         11    1    3    3    0    0  0.10640778966E+02  0.72938056940E+01  0.11314005267E+02  0.17159035344E+02  0.51100000000E-03 0. -1.
        -11    1    3    3    0    0  0.46704604245E+01  0.42699517807E+01  0.84444199937E+01  0.10552436594E+02  0.51100000000E-03 0.  1.
         12    1    3    3    0    0 -0.12880344224E+02  0.10985892138E+01  0.18802200819E+02  0.22817381998E+02  0.00000000000E+00 0. -1.
</event>
<event>
 7    1  0.3540342E-011  0.5052885E+02  0.7816164E-02  0.1300439E+00
        -11   -1    0    0    0    0  0.00000000000E+00  0.00000000000E+00  0.45593999997E+02  0.45594000000E+02  0.51100000000E-03 0. -1.
         11   -1    0    0    0    0 -0.00000000000E+00 -0.00000000000E+00 -0.45593999997E+02  0.45594000000E+02  0.51100000000E-03 0.  1.
    9900012    2    1    2    0    0 -0.10928199384E+02  0.52364192591E+00 -0.39159503286E+02  0.50528850473E+02  0.29999971497E+02 0.  0.
         12    1    1    2    0    0  0.10928199384E+02 -0.52364192591E+00  0.39159503286E+02  0.40659149527E+02  0.00000000000E+00 0. -1.
         11    1    3    3    0    0  0.25164635130E+01  0.38116064190E+01 -0.39496836418E+01  0.60382889329E+01  0.51100000000E-03 0. -1.
        -11    1    3    3    0    0  0.17012255572E+01 -0.74591327200E+01 -0.24004007551E+02  0.25193753354E+02  0.51100000000E-03 0.  1.
        -12    1    3    3    0    0 -0.15145888455E+02  0.41711682269E+01 -0.11205812094E+02  0.19296808185E+02  0.00000000000E+00 0.  1.
</event>
<event>
 7    1  0.2969156E-011  0.5052886E+02  0.7816164E-02  0.1300439E+00
        -11   -1    0    0    0    0  0.00000000000E+00  0.00000000000E+00  0.45593999997E+02  0.45594000000E+02  0.51100000000E-03 0.  1.
         11   -1    0    0    0    0 -0.00000000000E+00 -0.00000000000E+00 -0.45593999997E+02  0.45594000000E+02  0.51100000000E-03 0. -1.
    9900012    2    1    2    0    0 -0.17022962651E+02  0.30205575328E+02  0.21236947273E+02  0.50528856283E+02  0.29999989159E+02 0.  0.
         12    1    1    2    0    0  0.17022962651E+02 -0.30205575328E+02 -0.21236947273E+02  0.40659143717E+02  0.00000000000E+00 0. -1.
         11    1    3    3    0    0  0.50137287209E+01  0.66789906698E+01  0.99084192408E+01  0.12958517051E+02  0.51100000000E-03 0. -1.
        -11    1    3    3    0    0 -0.21241127065E+02  0.25658179429E+02  0.11616307531E+02  0.35276993232E+02  0.51100000000E-03 0.  1.
         12    1    3    3    0    0 -0.79556430682E+00 -0.21315947712E+01 -0.28777949853E+00  0.22933459998E+01  0.00000000000E+00 0. -1.
</event>
<event>
 7    1  0.2969156E-011  0.5052885E+02  0.7816164E-02  0.1300439E+00
        -11   -1    0    0    0    0  0.00000000000E+00  0.00000000000E+00  0.45593999997E+02  0.45594000000E+02  0.51100000000E-03 0. -1.
         11   -1    0    0    0    0 -0.00000000000E+00 -0.00000000000E+00 -0.45593999997E+02  0.45594000000E+02  0.51100000000E-03 0.  1.
    9900012    2    1    2    0    0  0.35565860876E+02  0.14567774357E+02 -0.13267098808E+02  0.50528850717E+02  0.29999972240E+02 0.  0.
         12    1    1    2    0    0 -0.35565860876E+02 -0.14567774357E+02  0.13267098808E+02  0.40659149283E+02  0.00000000000E+00 0. -1.
         11    1    3    3    0    0  0.45373157192E+01  0.23495314798E+00  0.72529867477E+01  0.85585193779E+01  0.51100000000E-03 0. -1.
        -11    1    3    3    0    0  0.89484651949E+01  0.92259756331E+01 -0.26828437556E+01  0.13129786998E+02  0.51100000000E-03 0.  1.
        -12    1    3    3    0    0  0.22080079962E+02  0.51068455763E+01 -0.17837241800E+02  0.28840544342E+02  0.00000000000E+00 0.  1.
</event>
<event>
 7    1  0.2969156E-011  0.5052886E+02  0.7816164E-02  0.1300439E+00
        -11   -1    0    0    0    0  0.00000000000E+00  0.00000000000E+00  0.45593999997E+02  0.45594000000E+02  0.51100000000E-03 0. -1.
         11   -1    0    0    0    0 -0.00000000000E+00 -0.00000000000E+00 -0.45593999997E+02  0.45594000000E+02  0.51100000000E-03 0.  1.
    9900012    2    1    2    0    0  0.16341727421E+02 -0.70651174929E+01 -0.36554040496E+02  0.50528858139E+02  0.29999994799E+02 0.  0.
         12    1    1    2    0    0 -0.16341727421E+02  0.70651174929E+01  0.36554040496E+02  0.40659141861E+02  0.00000000000E+00 0. -1.
         11    1    3    3    0    0  0.16227395919E+01 -0.34650508082E+01  0.12936013117E+01  0.40389683709E+01  0.51100000000E-03 0. -1.
        -11    1    3    3    0    0 -0.24526398442E+01 -0.79243588947E+01 -0.67103421044E+01  0.10669564073E+02  0.51100000000E-03 0.  1.
        -12    1    3    3    0    0  0.17171627673E+02  0.43242922100E+01 -0.31137299704E+02  0.35820325695E+02  0.00000000000E+00 0.  1.
</event>
<event>
 7    1  0.2969156E-011  0.5052886E+02  0.7816164E-02  0.1300439E+00
        -11   -1    0    0    0    0  0.00000000000E+00  0.00000000000E+00  0.45593999997E+02  0.45594000000E+02  0.51100000000E-03 0. -1.
         11   -1    0    0    0    0 -0.00000000000E+00 -0.00000000000E+00 -0.45593999997E+02  0.45594000000E+02  0.51100000000E-03 0.  1.
    9900012    2    1    2    0    0  0.17811127517E+02  0.18104888408E+02 -0.31751260739E+02  0.50528858270E+02  0.29999995199E+02 0.  0.
         12    1    1    2    0    0 -0.17811127517E+02 -0.18104888408E+02  0.31751260739E+02  0.40659141730E+02  0.00000000000E+00 0. -1.
         11    1    3    3    0    0  0.62232305389E+01  0.15950584002E+02 -0.15071312138E+02  0.22809957873E+02  0.51100000000E-03 0. -1.
        -11    1    3    3    0    0  0.12042481109E+02 -0.20003548104E+01 -0.19263190293E+02  0.22805553516E+02  0.51100000000E-03 0.  1.
         12    1    3    3    0    0 -0.45458413119E+00  0.41546592159E+01  0.25832416926E+01  0.49133468812E+01  0.00000000000E+00 0. -1.
</event>
<event>
 7    1  0.2969156E-011  0.5052886E+02  0.7816164E-02  0.1300439E+00
        -11   -1    0    0    0    0  0.00000000000E+00  0.00000000000E+00  0.45593999997E+02  0.45594000000E+02  0.51100000000E-03 0.  1.
         11   -1    0    0    0    0 -0.00000000000E+00 -0.00000000000E+00 -0.45593999997E+02  0.45594000000E+02  0.51100000000E-03 0. -1.
    9900012    2    1    2    0    0  0.59605516938E+01 -0.16931286766E+02  0.36482448934E+02  0.50528859228E+02  0.29999998111E+02 0.  0.
         12    1    1    2    0    0 -0.59605516938E+01  0.16931286766E+02 -0.36482448934E+02  0.40659140772E+02  0.00000000000E+00 0. -1.
         11    1    3    3    0    0 -0.23600673758E+01  0.48821206093E+01  0.71502023246E+01  0.89738739241E+01  0.51100000000E-03 0. -1.
        -11    1    3    3    0    0  0.69164499985E+00 -0.57877201149E+01 -0.14642227325E+01  0.60099937942E+01  0.51100000000E-03 0.  1.
        -12    1    3    3    0    0  0.76289740698E+01 -0.16025687260E+02  0.30796469342E+02  0.35544991510E+02  0.00000000000E+00 0.  1.
</event>
<event>
 7    1  0.2969156E-011  0.5052886E+02  0.7816164E-02  0.1300439E+00
        -11   -1    0    0    0    0  0.00000000000E+00  0.00000000000E+00  0.45593999997E+02  0.45594000000E+02  0.51100000000E-03 0.  1.
         11   -1    0    0    0    0 -0.00000000000E+00 -0.00000000000E+00 -0.45593999997E+02  0.45594000000E+02  0.51100000000E-03 0. -1.
    9900012    2    1    2    0    0  0.20494520210E+02  0.31794138138E+02  0.14908826758E+02  0.50528859652E+02  0.29999999397E+02 0.  0.
         12    1    1    2    0    0 -0.20494520210E+02 -0.31794138138E+02 -0.14908826758E+02  0.40659140348E+02  0.00000000000E+00 0. -1.
         11    1    3    3    0    0  0.39786781828E+01  0.38168167560E+01 -0.30341211853E+01  0.62931599264E+01  0.51100000000E-03 0. -1.
        -11    1    3    3    0    0 -0.14067991885E-01  0.23236311161E+02  0.10195881078E+02  0.25374836856E+02  0.51100000000E-03 0.  1.
         12    1    3    3    0    0  0.16529910019E+02  0.47410102216E+01  0.77470668649E+01  0.18860862869E+02  0.00000000000E+00 0. -1.
</event>
<event>
 7    1  0.2969156E-011  0.5052885E+02  0.7816164E-02  0.1300439E+00
        -11   -1    0    0    0    0  0.00000000000E+00  0.00000000000E+00  0.45593999997E+02  0.45594000000E+02  0.51100000000E-03 0.  1.
         11   -1    0    0    0    0 -0.00000000000E+00 -0.00000000000E+00 -0.45593999997E+02  0.45594000000E+02  0.51100000000E-03 0. -1.
    9900012    2    1    2    0    0 -0.10937484440E+02  0.32865415693E+02  0.21293240044E+02  0.50528853598E+02  0.29999980998E+02 0.  0.
         12    1    1    2    0    0  0.10937484440E+02 -0.32865415693E+02 -0.21293240044E+02  0.40659146402E+02  0.00000000000E+00 0. -1.
         11    1    3    3    0    0  0.17103013789E+00  0.18119024638E+02  0.93936012151E+01  0.20409998755E+02  0.51100000000E-03 0.  1.
        -11    1    3    3    0    0 -0.65564744687E-01  0.70581000333E+01  0.14761421189E+02  0.16362170718E+02  0.51100000000E-03 0. -1.
         12    1    3    3    0    0 -0.11042949834E+02  0.76882910218E+01 -0.28617823601E+01  0.13756684126E+02  0.00000000000E+00 0. -1.
</event>
<event>
 7    1  0.2969156E-011  0.5052886E+02  0.7816164E-02  0.1300439E+00
        -11   -1    0    0    0    0  0.00000000000E+00  0.00000000000E+00  0.45593999997E+02  0.45594000000E+02  0.51100000000E-03 0. -1.
         11   -1    0    0    0    0 -0.00000000000E+00 -0.00000000000E+00 -0.45593999997E+02  0.45594000000E+02  0.51100000000E-03 0.  1.
    9900012    2    1    2    0    0 -0.22975050072E+02  0.17431593868E+02 -0.28660988124E+02  0.50528860427E+02  0.30000001753E+02 0.  0.
         12    1    1    2    0    0  0.22975050072E+02 -0.17431593868E+02  0.28660988124E+02  0.40659139573E+02  0.00000000000E+00 0. -1.
         11    1    3    3    0    0 -0.43617495167E+01  0.12491003755E+02 -0.41084695140E+01  0.13853864286E+02  0.51100000000E-03 0. -1.
        -11    1    3    3    0    0 -0.83201415689E+01  0.32012721421E+01  0.10975154473E+01  0.89820620947E+01  0.51100000000E-03 0.  1.
        -12    1    3    3    0    0 -0.10293158987E+02  0.17393179711E+01 -0.25650034057E+02  0.27692934046E+02  0.00000000000E+00 0.  1.
</event>
<event>
 7    1  0.2969156E-011  0.5052886E+02  0.7816164E-02  0.1300439E+00
        -11   -1    0    0    0    0  0.00000000000E+00  0.00000000000E+00  0.45593999997E+02  0.45594000000E+02  0.51100000000E-03 0. -1.
         11   -1    0    0    0    0 -0.00000000000E+00 -0.00000000000E+00 -0.45593999997E+02  0.45594000000E+02  0.51100000000E-03 0.  1.
    9900012    2    1    2    0    0 -0.22090965576E+02  0.33793697661E+02  0.48105261882E+01  0.50528856823E+02  0.29999990799E+02 0.  0.
         12    1    1    2    0    0  0.22090965576E+02 -0.33793697661E+02 -0.48105261882E+01  0.40659143177E+02  0.00000000000E+00 0. -1.
         11    1    3    3    0    0 -0.49315807899E+01  0.15670241144E+02  0.56548499650E+01  0.17373953925E+02  0.51100000000E-03 0. -1.
        -11    1    3    3    0    0 -0.14183331110E+02  0.22539674916E+02 -0.40530260641E+01  0.26937536028E+02  0.51100000000E-03 0.  1.
        -12    1    3    3    0    0 -0.29760536759E+01 -0.44162183993E+01  0.32087022872E+01  0.62173668703E+01  0.00000000000E+00 0.  1.
</event>
<event>
 7    1  0.2969156E-011  0.5052886E+02  0.7816164E-02  0.1300439E+00
        -11   -1    0    0    0    0  0.00000000000E+00  0.00000000000E+00  0.45593999997E+02  0.45594000000E+02  0.51100000000E-03 0. -1.
         11   -1    0    0    0    0 -0.00000000000E+00 -0.00000000000E+00 -0.45593999997E+02  0.45594000000E+02  0.51100000000E-03 0.  1.
    9900012    2    1    2    0    0  0.18820705613E+02 -0.30437034865E+02 -0.19301123375E+02  0.50528863085E+02  0.30000009833E+02 0.  0.
         12    1    1    2    0    0 -0.18820705613E+02  0.30437034865E+02  0.19301123375E+02  0.40659136915E+02  0.00000000000E+00 0. -1.
         11    1    3    3    0    0  0.15428414903E+02 -0.22368795724E+02 -0.20886399182E+02  0.34273031375E+02  0.51100000000E-03 0. -1.
        -11    1    3    3    0    0  0.18258160833E+01  0.23868572512E+01 -0.34253469296E+01  0.45567196268E+01  0.51100000000E-03 0.  1.
         12    1    3    3    0    0  0.15664746264E+01 -0.10455096392E+02  0.50106227366E+01  0.11699112083E+02  0.00000000000E+00 0. -1.
</event>
<event>
 7    1  0.2969156E-011  0.5052883E+02  0.7816164E-02  0.1300439E+00
        -11   -1    0    0    0    0  0.00000000000E+00  0.00000000000E+00  0.45593999997E+02  0.45594000000E+02  0.51100000000E-03 0. -1.
         11   -1    0    0    0    0 -0.00000000000E+00 -0.00000000000E+00 -0.45593999997E+02  0.45594000000E+02  0.51100000000E-03 0.  1.
    9900012    2    1    2    0    0  0.21060265150E+02 -0.34599496214E+02 -0.35366613526E+01  0.50528832768E+02  0.29999917682E+02 0.  0.
         12    1    1    2    0    0 -0.21060265150E+02  0.34599496214E+02  0.35366613526E+01  0.40659167232E+02  0.00000000000E+00 0. -1.
         11    1    3    3    0    0  0.84712926196E+01 -0.11064505758E+02 -0.63677101136E+00  0.13949608020E+02  0.51100000000E-03 0. -1.
        -11    1    3    3    0    0  0.14015852434E+02 -0.37223584468E+01  0.47994844394E+01  0.15275310897E+02  0.51100000000E-03 0.  1.
        -12    1    3    3    0    0 -0.14268799032E+01 -0.19812632009E+02 -0.76993747807E+01  0.21303913851E+02  0.00000000000E+00 0.  1.
</event>
<event>
 7    1  0.2969156E-011  0.5052887E+02  0.7816164E-02  0.1300439E+00
        -11   -1    0    0    0    0  0.00000000000E+00  0.00000000000E+00  0.45593999997E+02  0.45594000000E+02  0.51100000000E-03 0. -1.
         11   -1    0    0    0    0 -0.00000000000E+00 -0.00000000000E+00 -0.45593999997E+02  0.45594000000E+02  0.51100000000E-03 0.  1.
    9900012    2    1    2    0    0  0.13671282804E+02 -0.94988721279E+01 -0.37094909072E+02  0.50528870345E+02  0.30000031900E+02 0.  0.
         12    1    1    2    0    0 -0.13671282804E+02  0.94988721279E+01  0.37094909072E+02  0.40659129655E+02  0.00000000000E+00 0. -1.
         11    1    3    3    0    0 -0.59202348097E+01 -0.62017199396E+01 -0.11090900320E+02  0.14018508500E+02  0.51100000000E-03 0. -1.
        -11    1    3    3    0    0  0.13272839719E+02 -0.87506268465E+01 -0.10971801107E+02  0.19316370368E+02  0.51100000000E-03 0.  1.
         12    1    3    3    0    0  0.63186778956E+01  0.54534746582E+01 -0.15032207645E+02  0.17193991476E+02  0.00000000000E+00 0. -1.
</event>
<event>
 7    1  0.2969156E-011  0.5052885E+02  0.7816164E-02  0.1300439E+00
        -11   -1    0    0    0    0  0.00000000000E+00  0.00000000000E+00  0.45593999997E+02  0.45594000000E+02  0.51100000000E-03 0. -1.
         11   -1    0    0    0    0 -0.00000000000E+00 -0.00000000000E+00 -0.45593999997E+02  0.45594000000E+02  0.51100000000E-03 0.  1.
    9900012    2    1    2    0    0  0.29475256696E+02  0.30890882167E+00 -0.28005007952E+02  0.50528847865E+02  0.29999963571E+02 0.  0.
         12    1    1    2    0    0 -0.29475256696E+02 -0.30890882167E+00  0.28005007952E+02  0.40659152135E+02  0.00000000000E+00 0. -1.
         11    1    3    3    0    0  0.38611140181E+01 -0.14576611959E+01 -0.16798744232E+02  0.17298288519E+02  0.51100000000E-03 0.  1.
        -11    1    3    3    0    0 -0.69133074667E+00  0.38675538128E+01 -0.45563792978E+01  0.60163529869E+01  0.51100000000E-03 0. -1.
        -12    1    3    3    0    0  0.26305473424E+02 -0.21009837952E+01 -0.66498844214E+01  0.27214206360E+02  0.00000000000E+00 0.  1.
</event>
<event>
 7    1  0.2969156E-011  0.5052887E+02  0.7816164E-02  0.1300439E+00
        -11   -1    0    0    0    0  0.00000000000E+00  0.00000000000E+00  0.45593999997E+02  0.45594000000E+02  0.51100000000E-03 0.  1.
         11   -1    0    0    0    0 -0.00000000000E+00 -0.00000000000E+00 -0.45593999997E+02  0.45594000000E+02  0.51100000000E-03 0. -1.
    9900012    2    1    2    0    0 -0.17707318278E+02 -0.23311221059E+02  0.28217069652E+02  0.50528866123E+02  0.30000019068E+02 0.  0.
         12    1    1    2    0    0  0.17707318278E+02  0.23311221059E+02 -0.28217069652E+02  0.40659133877E+02  0.00000000000E+00 0. -1.
         11    1    3    3    0    0 -0.25009392843E+01 -0.83338296212E+01 -0.15766835088E+01  0.88427000745E+01  0.51100000000E-03 0. -1.
        -11    1    3    3    0    0  0.34102346898E-02 -0.78854479189E+00  0.17513272593E+02  0.17531016277E+02  0.51100000000E-03 0.  1.
         12    1    3    3    0    0 -0.15209789229E+02 -0.14188846646E+02  0.12280480567E+02  0.24155149772E+02  0.00000000000E+00 0. -1.
</event>
<event>
 7    1  0.2969156E-011  0.5052886E+02  0.7816164E-02  0.1300439E+00
        -11   -1    0    0    0    0  0.00000000000E+00  0.00000000000E+00  0.45593999997E+02  0.45594000000E+02  0.51100000000E-03 0. -1.
         11   -1    0    0    0    0 -0.00000000000E+00 -0.00000000000E+00 -0.45593999997E+02  0.45594000000E+02  0.51100000000E-03 0.  1.
    9900012    2    1    2    0    0  0.24898219988E+02  0.27520173695E+02 -0.16609763053E+02  0.50528861452E+02  0.30000004870E+02 0.  0.
         12    1    1    2    0    0 -0.24898219988E+02 -0.27520173695E+02  0.16609763053E+02  0.40659138548E+02  0.00000000000E+00 0. -1.
         11    1    3    3    0    0 -0.19845335297E+01  0.91879371940E+01 -0.43717858447E+01  0.10366729231E+02  0.51100000000E-03 0. -1.
        -11    1    3    3    0    0  0.12451908485E+02  0.19957510836E+02 -0.55251186832E+01  0.24163592456E+02  0.51100000000E-03 0.  1.
        -12    1    3    3    0    0  0.14430845033E+02 -0.16252743346E+01 -0.67128585247E+01  0.15998539765E+02  0.00000000000E+00 0.  1.
</event>
<event>
 7    1  0.2969156E-011  0.5052885E+02  0.7816164E-02  0.1300439E+00
        -11   -1    0    0    0    0  0.00000000000E+00  0.00000000000E+00  0.45593999997E+02  0.45594000000E+02  0.51100000000E-03 0.  1.
         11   -1    0    0    0    0 -0.00000000000E+00 -0.00000000000E+00 -0.45593999997E+02  0.45594000000E+02  0.51100000000E-03 0. -1.
    9900012    2    1    2    0    0  0.41463025878E+01 -0.29235066545E+02 -0.27951491156E+02  0.50528846063E+02  0.29999958093E+02 0.  0.
         12    1    1    2    0    0 -0.41463025878E+01  0.29235066545E+02  0.27951491156E+02  0.40659153937E+02  0.00000000000E+00 0. -1.
         11    1    3    3    0    0 -0.12116134718E+01  0.10716704291E+01  0.28641038071E+01  0.32893123282E+01  0.51100000000E-03 0. -1.
        -11    1    3    3    0    0  0.31508248701E+01 -0.12777087497E+02 -0.18200263040E+01  0.13285110398E+02  0.51100000000E-03 0.  1.
         12    1    3    3    0    0  0.22070911895E+01 -0.17529649477E+02 -0.28995568659E+02  0.33954423337E+02  0.00000000000E+00 0. -1.
</event>
<event>
 7    1  0.2969156E-011  0.5052886E+02  0.7816164E-02  0.1300439E+00
        -11   -1    0    0    0    0  0.00000000000E+00  0.00000000000E+00  0.45593999997E+02  0.45594000000E+02  0.51100000000E-03 0.  1.
         11   -1    0    0    0    0 -0.00000000000E+00 -0.00000000000E+00 -0.45593999997E+02  0.45594000000E+02  0.51100000000E-03 0. -1.
    9900012    2    1    2    0    0  0.38395334279E+02  0.11799112249E+02  0.63043821963E+01  0.50528856143E+02  0.29999988733E+02 0.  0.
         12    1    1    2    0    0 -0.38395334279E+02 -0.11799112249E+02 -0.63043821963E+01  0.40659143857E+02  0.00000000000E+00 0. -1.
         11    1    3    3    0    0  0.74280822901E+01  0.10011306871E+02  0.16783356994E+00  0.12467190548E+02  0.51100000000E-03 0. -1.
        -11    1    3    3    0    0  0.32499641859E+02  0.53148931690E+01  0.78461799783E+01  0.33853173424E+02  0.51100000000E-03 0.  1.
         12    1    3    3    0    0 -0.15323898697E+01 -0.35270877910E+01 -0.17096313519E+01  0.42084921716E+01  0.00000000000E+00 0. -1.
</event>
<event>
 7    1  0.2969156E-011  0.5052886E+02  0.7816164E-02  0.1300439E+00
        -11   -1    0    0    0    0  0.00000000000E+00  0.00000000000E+00  0.45593999997E+02  0.45594000000E+02  0.51100000000E-03 0.  1.
         11   -1    0    0    0    0 -0.00000000000E+00 -0.00000000000E+00 -0.45593999997E+02  0.45594000000E+02  0.51100000000E-03 0. -1.
    9900012    2    1    2    0    0 -0.30825127965E+02 -0.22977973680E+02  0.13228374320E+02  0.50528859876E+02  0.30000000078E+02 0.  0.
         12    1    1    2    0    0  0.30825127965E+02  0.22977973680E+02 -0.13228374320E+02  0.40659140124E+02  0.00000000000E+00 0. -1.
         11    1    3    3    0    0  0.35241321583E+01  0.11377269270E+01  0.15673678147E+01  0.40212649947E+01  0.51100000000E-03 0. -1.
        -11    1    3    3    0    0 -0.10383031543E+02  0.61002852754E+00  0.45185218263E+01  0.11340040502E+02  0.51100000000E-03 0.  1.
        -12    1    3    3    0    0 -0.23966228580E+02 -0.24725729135E+02  0.71424846786E+01  0.35167554379E+02  0.00000000000E+00 0.  1.
</event>
<event>
 7    1  0.2969156E-011  0.5052885E+02  0.7816164E-02  0.1300439E+00
        -11   -1    0    0    0    0  0.00000000000E+00  0.00000000000E+00  0.45593999997E+02  0.45594000000E+02  0.51100000000E-03 0. -1.
         11   -1    0    0    0    0 -0.00000000000E+00 -0.00000000000E+00 -0.45593999997E+02  0.45594000000E+02  0.51100000000E-03 0.  1.
    9900012    2    1    2    0    0  0.36975112111E+02  0.59261399073E+01  0.15839449876E+02  0.50528853155E+02  0.29999979650E+02 0.  0.
         12    1    1    2    0    0 -0.36975112111E+02 -0.59261399073E+01 -0.15839449876E+02  0.40659146845E+02  0.00000000000E+00 0. -1.
         11    1    3    3    0    0  0.16160530092E+02  0.96239393676E+01  0.10579280440E+02  0.21580178792E+02  0.51100000000E-03 0.  1.
        -11    1    3    3    0    0  0.13620381170E+01  0.56412793375E+01 -0.20667981975E+01  0.61604249404E+01  0.51100000000E-03 0. -1.
        -12    1    3    3    0    0  0.19452543902E+02 -0.93390787978E+01  0.73269676328E+01  0.22788249422E+02  0.00000000000E+00 0.  1.
</event>
<event>
 7    1  0.2969156E-011  0.5052885E+02  0.7816164E-02  0.1300439E+00
        -11   -1    0    0    0    0  0.00000000000E+00  0.00000000000E+00  0.45593999997E+02  0.45594000000E+02  0.51100000000E-03 0.  1.
         11   -1    0    0    0    0 -0.00000000000E+00 -0.00000000000E+00 -0.45593999997E+02  0.45594000000E+02  0.51100000000E-03 0. -1.
    9900012    2    1    2    0    0 -0.73831840555E+01 -0.17423639090E+02  0.35987102641E+02  0.50528853889E+02  0.29999981882E+02 0.  0.
         12    1    1    2    0    0  0.73831840555E+01  0.17423639090E+02 -0.35987102641E+02  0.40659146111E+02  0.00000000000E+00 0. -1.
         11    1    3    3    0    0  0.69876567012E+01  0.50161423905E+00  0.53910926353E+01  0.88398440644E+01  0.51100000000E-03 0. -1.
        -11    1    3    3    0    0 -0.14479270393E+02 -0.63839156582E+01  0.12238434294E+02  0.20004572589E+02  0.51100000000E-03 0.  1.
        -12    1    3    3    0    0  0.10842963652E+00 -0.11541337671E+02  0.18357575712E+02  0.21684437236E+02  0.00000000000E+00 0.  1.
</event>
<event>
 7    1  0.2969156E-011  0.5052886E+02  0.7816164E-02  0.1300439E+00
        -11   -1    0    0    0    0  0.00000000000E+00  0.00000000000E+00  0.45593999997E+02  0.45594000000E+02  0.51100000000E-03 0.  1.
         11   -1    0    0    0    0 -0.00000000000E+00 -0.00000000000E+00 -0.45593999997E+02  0.45594000000E+02  0.51100000000E-03 0. -1.
    9900012    2    1    2    0    0 -0.19641018891E+01  0.36690250720E+02  0.17410732275E+02  0.50528858439E+02  0.29999995711E+02 0.  0.
         12    1    1    2    0    0  0.19641018891E+01 -0.36690250720E+02 -0.17410732275E+02  0.40659141561E+02  0.00000000000E+00 0. -1.
         11    1    3    3    0    0 -0.47360080900E+01  0.48067473816E+01  0.10371359198E+02  0.12373345744E+02  0.51100000000E-03 0. -1.
        -11    1    3    3    0    0  0.29806398028E+01  0.13144377045E+02  0.12761487503E+02  0.18561099781E+02  0.51100000000E-03 0.  1.
        -12    1    3    3    0    0 -0.20873360188E+00  0.18739126293E+02 -0.57221144256E+01  0.19594412914E+02  0.00000000000E+00 0.  1.
</event>
<event>
 7    1  0.2969156E-011  0.5052886E+02  0.7816164E-02  0.1300439E+00
        -11   -1    0    0    0    0  0.00000000000E+00  0.00000000000E+00  0.45593999997E+02  0.45594000000E+02  0.51100000000E-03 0. -1.
         11   -1    0    0    0    0 -0.00000000000E+00 -0.00000000000E+00 -0.45593999997E+02  0.45594000000E+02  0.51100000000E-03 0.  1.
    9900012    2    1    2    0    0  0.15712022884E+01 -0.23194453659E+02 -0.33357378257E+02  0.50528855378E+02  0.29999986408E+02 0.  0.
         12    1    1    2    0    0 -0.15712022884E+01  0.23194453659E+02  0.33357378257E+02  0.40659144622E+02  0.00000000000E+00 0. -1.
         11    1    3    3    0    0  0.42568341932E+01  0.25637962385E+01 -0.10348895452E+02  0.11480127431E+02  0.51100000000E-03 0. -1.
        -11    1    3    3    0    0 -0.53813347711E+01  0.19068855602E+00 -0.50010879683E+01  0.73488779532E+01  0.51100000000E-03 0.  1.
        -12    1    3    3    0    0  0.26957028662E+01 -0.25948938454E+02 -0.18007394836E+02  0.31699849994E+02  0.00000000000E+00 0.  1.
</event>
<event>
 7    1  0.2969156E-011  0.5052883E+02  0.7816164E-02  0.1300439E+00
        -11   -1    0    0    0    0  0.00000000000E+00  0.00000000000E+00  0.45593999997E+02  0.45594000000E+02  0.51100000000E-03 0.  1.
         11   -1    0    0    0    0 -0.00000000000E+00 -0.00000000000E+00 -0.45593999997E+02  0.45594000000E+02  0.51100000000E-03 0. -1.
    9900012    2    1    2    0    0  0.79216271222E+01  0.22097445665E+02  0.33198178444E+02  0.50528827195E+02  0.29999900741E+02 0.  0.
         12    1    1    2    0    0 -0.79216271222E+01 -0.22097445665E+02 -0.33198178444E+02  0.40659172805E+02  0.00000000000E+00 0. -1.
         11    1    3    3    0    0  0.80735499317E+01  0.13644719477E+02  0.26423503559E+01  0.16073039345E+02  0.51100000000E-03 0. -1.
        -11    1    3    3    0    0  0.19479392611E+01 -0.31986599076E+01  0.46328626616E+01  0.59572904303E+01  0.51100000000E-03 0.  1.
        -12    1    3    3    0    0 -0.20998620707E+01  0.11651386095E+02  0.25922965427E+02  0.28498497420E+02  0.00000000000E+00 0.  1.
</event>
<event>
 7    1  0.2969156E-011  0.5052887E+02  0.7816164E-02  0.1300439E+00
        -11   -1    0    0    0    0  0.00000000000E+00  0.00000000000E+00  0.45593999997E+02  0.45594000000E+02  0.51100000000E-03 0.  1.
         11   -1    0    0    0    0 -0.00000000000E+00 -0.00000000000E+00 -0.45593999997E+02  0.45594000000E+02  0.51100000000E-03 0. -1.
    9900012    2    1    2    0    0 -0.22683506858E+02  0.74397676306E+01  0.32913117705E+02  0.50528868887E+02  0.30000027469E+02 0.  0.
         12    1    1    2    0    0  0.22683506858E+02 -0.74397676306E+01 -0.32913117705E+02  0.40659131113E+02  0.00000000000E+00 0. -1.
         11    1    3    3    0    0 -0.59870015159E+01 -0.58554406896E+01  0.80090205744E+01  0.11587699670E+02  0.51100000000E-03 0. -1.
        -11    1    3    3    0    0 -0.17880948651E+02  0.15136812174E+01  0.13067412257E+02  0.22198576956E+02  0.51100000000E-03 0.  1.
        -12    1    3    3    0    0  0.11844433087E+01  0.11781527103E+02  0.11836684874E+02  0.16742592261E+02  0.00000000000E+00 0.  1.
</event>
<event>
 7    1  0.2969156E-011  0.5052886E+02  0.7816164E-02  0.1300439E+00
        -11   -1    0    0    0    0  0.00000000000E+00  0.00000000000E+00  0.45593999997E+02  0.45594000000E+02  0.51100000000E-03 0. -1.
         11   -1    0    0    0    0 -0.00000000000E+00 -0.00000000000E+00 -0.45593999997E+02  0.45594000000E+02  0.51100000000E-03 0.  1.
    9900012    2    1    2    0    0 -0.22301346833E+02  0.33147345349E+02 -0.75543994602E+01  0.50528861723E+02  0.30000005692E+02 0.  0.
         12    1    1    2    0    0  0.22301346833E+02 -0.33147345349E+02  0.75543994602E+01  0.40659138277E+02  0.00000000000E+00 0. -1.
         11    1    3    3    0    0  0.22660598338E+01  0.58371767308E+00  0.23021221536E+01  0.32826087436E+01  0.51100000000E-03 0. -1.
        -11    1    3    3    0    0 -0.43804784259E+00  0.15166242511E+02 -0.86709046009E+01  0.17475450914E+02  0.51100000000E-03 0.  1.
         12    1    3    3    0    0 -0.24129358824E+02  0.17397385165E+02 -0.11856170130E+01  0.29770802065E+02  0.00000000000E+00 0. -1.
</event>
<event>
 7    1  0.2969156E-011  0.5052886E+02  0.7816164E-02  0.1300439E+00
        -11   -1    0    0    0    0  0.00000000000E+00  0.00000000000E+00  0.45593999997E+02  0.45594000000E+02  0.51100000000E-03 0. -1.
         11   -1    0    0    0    0 -0.00000000000E+00 -0.00000000000E+00 -0.45593999997E+02  0.45594000000E+02  0.51100000000E-03 0.  1.
    9900012    2    1    2    0    0 -0.91192750075E+01  0.21465847680E+02 -0.33304976723E+02  0.50528864891E+02  0.30000015324E+02 0.  0.
         12    1    1    2    0    0  0.91192750075E+01 -0.21465847680E+02  0.33304976723E+02  0.40659135109E+02  0.00000000000E+00 0. -1.
         11    1    3    3    0    0 -0.77955702578E+00  0.12728779310E+01  0.17948838793E+00  0.15033774397E+01  0.51100000000E-03 0. -1.
        -11    1    3    3    0    0 -0.18485831584E+02  0.96101284940E+01 -0.22792126311E+02  0.30879792115E+02  0.51100000000E-03 0.  1.
         12    1    3    3    0    0  0.10146113602E+02  0.10582841255E+02 -0.10692338800E+02  0.18145695337E+02  0.00000000000E+00 0. -1.
</event>
<event>
 7    1  0.2969156E-011  0.5052885E+02  0.7816164E-02  0.1300439E+00
        -11   -1    0    0    0    0  0.00000000000E+00  0.00000000000E+00  0.45593999997E+02  0.45594000000E+02  0.51100000000E-03 0. -1.
         11   -1    0    0    0    0 -0.00000000000E+00 -0.00000000000E+00 -0.45593999997E+02  0.45594000000E+02  0.51100000000E-03 0.  1.
    9900012    2    1    2    0    0 -0.21645557767E+02  0.32083899358E+02 -0.12460330619E+02  0.50528848408E+02  0.29999965220E+02 0.  0.
         12    1    1    2    0    0  0.21645557767E+02 -0.32083899358E+02  0.12460330619E+02  0.40659151592E+02  0.00000000000E+00 0. -1.
         11    1    3    3    0    0 -0.85918761954E+00  0.64906033066E+01 -0.96876068304E+01  0.11692555795E+02  0.51100000000E-03 0. -1.
        -11    1    3    3    0    0 -0.14542878846E+02  0.14988339860E+02 -0.11413419792E+02  0.23799407733E+02  0.51100000000E-03 0.  1.
        -12    1    3    3    0    0 -0.62434913015E+01  0.10604956192E+02  0.86406960029E+01  0.15036884880E+02  0.00000000000E+00 0.  1.
</event>
<event>
 7    1  0.2969156E-011  0.5052885E+02  0.7816164E-02  0.1300439E+00
        -11   -1    0    0    0    0  0.00000000000E+00  0.00000000000E+00  0.45593999997E+02  0.45594000000E+02  0.51100000000E-03 0. -1.
         11   -1    0    0    0    0 -0.00000000000E+00 -0.00000000000E+00 -0.45593999997E+02  0.45594000000E+02  0.51100000000E-03 0.  1.
    9900012    2    1    2    0    0 -0.31097541092E+01 -0.38970742590E+02  0.11170375828E+02  0.50528847958E+02  0.29999963852E+02 0.  0.
         12    1    1    2    0    0  0.31097541092E+01  0.38970742590E+02 -0.11170375828E+02  0.40659152042E+02  0.00000000000E+00 0. -1.
         11    1    3    3    0    0  0.41637876074E+01 -0.80681496713E+01  0.78649919242E+01  0.12012088269E+02  0.51100000000E-03 0. -1.
        -11    1    3    3    0    0  0.43465852546E+01 -0.75788296135E+01 -0.62713252416E+01  0.10754579594E+02  0.51100000000E-03 0.  1.
         12    1    3    3    0    0 -0.11620126971E+02 -0.23323763306E+02  0.95767091455E+01  0.27762180095E+02  0.00000000000E+00 0. -1.
</event>
<event>
 7    1  0.2969156E-011  0.5052886E+02  0.7816164E-02  0.1300439E+00
        -11   -1    0    0    0    0  0.00000000000E+00  0.00000000000E+00  0.45593999997E+02  0.45594000000E+02  0.51100000000E-03 0.  1.
         11   -1    0    0    0    0 -0.00000000000E+00 -0.00000000000E+00 -0.45593999997E+02  0.45594000000E+02  0.51100000000E-03 0. -1.
    9900012    2    1    2    0    0  0.32037432077E+02 -0.24272095968E+02 -0.61346521678E+01  0.50528860143E+02  0.30000000889E+02 0.  0.
         12    1    1    2    0    0 -0.32037432077E+02  0.24272095968E+02  0.61346521678E+01  0.40659139857E+02  0.00000000000E+00 0. -1.
         11    1    3    3    0    0  0.18059556441E+02  0.13050520139E+01 -0.62862031355E+01  0.19166822630E+02  0.51100000000E-03 0. -1.
        -11    1    3    3    0    0  0.83245500646E+01 -0.93969964596E+01 -0.49268823728E+01  0.13486135340E+02  0.51100000000E-03 0.  1.
        -12    1    3    3    0    0  0.56533255713E+01 -0.16180151522E+02  0.50784333405E+01  0.17875902173E+02  0.00000000000E+00 0.  1.
</event>
<event>
 7    1  0.2969156E-011  0.5052886E+02  0.7816164E-02  0.1300439E+00
        -11   -1    0    0    0    0  0.00000000000E+00  0.00000000000E+00  0.45593999997E+02  0.45594000000E+02  0.51100000000E-03 0.  1.
         11   -1    0    0    0    0 -0.00000000000E+00 -0.00000000000E+00 -0.45593999997E+02  0.45594000000E+02  0.51100000000E-03 0. -1.
    9900012    2    1    2    0    0  0.31203464757E+02  0.57134974484E+01  0.25433546281E+02  0.50528861515E+02  0.30000005062E+02 0.  0.
         12    1    1    2    0    0 -0.31203464757E+02 -0.57134974484E+01 -0.25433546281E+02  0.40659138485E+02  0.00000000000E+00 0. -1.
         11    1    3    3    0    0  0.80336939532E+01 -0.48232825069E+01 -0.14415192243E+01  0.94806260664E+01  0.51100000000E-03 0. -1.
        -11    1    3    3    0    0  0.21531428134E+02  0.12757776253E+02  0.15715207253E+02  0.29552174060E+02  0.51100000000E-03 0.  1.
         12    1    3    3    0    0  0.16383426695E+01 -0.22209962976E+01  0.11159858252E+02  0.11496061389E+02  0.00000000000E+00 0. -1.
</event>
<event>
 7    1  0.2969156E-011  0.5052886E+02  0.7816164E-02  0.1300439E+00
        -11   -1    0    0    0    0  0.00000000000E+00  0.00000000000E+00  0.45593999997E+02  0.45594000000E+02  0.51100000000E-03 0.  1.
         11   -1    0    0    0    0 -0.00000000000E+00 -0.00000000000E+00 -0.45593999997E+02  0.45594000000E+02  0.51100000000E-03 0. -1.
    9900012    2    1    2    0    0  0.22093842371E+02  0.28492762910E+02  0.18793347373E+02  0.50528864318E+02  0.30000013580E+02 0.  0.
         12    1    1    2    0    0 -0.22093842371E+02 -0.28492762910E+02 -0.18793347373E+02  0.40659135682E+02  0.00000000000E+00 0. -1.
         11    1    3    3    0    0 -0.40005810496E+00 -0.29814311222E+00 -0.31021688574E+01  0.31420355956E+01  0.51100000000E-03 0. -1.
        -11    1    3    3    0    0 -0.33465163269E+01  0.52163030785E+01  0.70545953462E+01  0.93902239107E+01  0.51100000000E-03 0.  1.
        -12    1    3    3    0    0  0.25840416803E+02  0.23574602944E+02  0.14840920885E+02  0.37996604811E+02  0.00000000000E+00 0.  1.
</event>
<event>
 7    1  0.2969156E-011  0.5052886E+02  0.7816164E-02  0.1300439E+00
        -11   -1    0    0    0    0  0.00000000000E+00  0.00000000000E+00  0.45593999997E+02  0.45594000000E+02  0.51100000000E-03 0.  1.
         11   -1    0    0    0    0 -0.00000000000E+00 -0.00000000000E+00 -0.45593999997E+02  0.45594000000E+02  0.51100000000E-03 0. -1.
    9900012    2    1    2    0    0  0.11597738656E+02  0.38838546357E+01  0.38775945237E+02  0.50528858373E+02  0.29999995512E+02 0.  0.
         12    1    1    2    0    0 -0.11597738656E+02 -0.38838546357E+01 -0.38775945237E+02  0.40659141627E+02  0.00000000000E+00 0. -1.
         11    1    3    3    0    0  0.27006379284E+01 -0.10876687991E+02  0.97340714262E+01  0.14844121182E+02  0.51100000000E-03 0. -1.
        -11    1    3    3    0    0 -0.26295573326E+01  0.24736287396E+01  0.76177438964E+01  0.84299130030E+01  0.51100000000E-03 0.  1.
        -12    1    3    3    0    0  0.11526658060E+02  0.12286913888E+02  0.21424129915E+02  0.27254824188E+02  0.00000000000E+00 0.  1.
</event>
<event>
 7    1  0.2969156E-011  0.5052886E+02  0.7816164E-02  0.1300439E+00
        -11   -1    0    0    0    0  0.00000000000E+00  0.00000000000E+00  0.45593999997E+02  0.45594000000E+02  0.51100000000E-03 0. -1.
         11   -1    0    0    0    0 -0.00000000000E+00 -0.00000000000E+00 -0.45593999997E+02  0.45594000000E+02  0.51100000000E-03 0.  1.
    9900012    2    1    2    0    0 -0.30831901276E+02 -0.26106709396E+02 -0.45824949387E+01  0.50528859925E+02  0.30000000229E+02 0.  0.
         12    1    1    2    0    0  0.30831901276E+02  0.26106709396E+02  0.45824949387E+01  0.40659140075E+02  0.00000000000E+00 0. -1.
         11    1    3    3    0    0 -0.16578913561E+02 -0.34657461560E+01  0.13594974943E+01  0.16991762857E+02  0.51100000000E-03 0. -1.
        -11    1    3    3    0    0 -0.34553724905E+01 -0.32457099810E+01  0.65343664073E+01  0.80729286467E+01  0.51100000000E-03 0.  1.
        -12    1    3    3    0    0 -0.10797615224E+02 -0.19395253259E+02 -0.12476358840E+02  0.25464168422E+02  0.00000000000E+00 0.  1.
</event>
<event>
 7    1  0.2969156E-011  0.5052885E+02  0.7816164E-02  0.1300439E+00
        -11   -1    0    0    0    0  0.00000000000E+00  0.00000000000E+00  0.45593999997E+02  0.45594000000E+02  0.51100000000E-03 0. -1.
         11   -1    0    0    0    0 -0.00000000000E+00 -0.00000000000E+00 -0.45593999997E+02  0.45594000000E+02  0.51100000000E-03 0.  1.
    9900012    2    1    2    0    0 -0.18594963602E+02 -0.35067394600E+02 -0.88131294631E+01  0.50528854825E+02  0.29999984728E+02 0.  0.
         12    1    1    2    0    0  0.18594963602E+02  0.35067394600E+02  0.88131294631E+01  0.40659145175E+02  0.00000000000E+00 0. -1.
         11    1    3    3    0    0 -0.10741429721E+02 -0.11460884294E+02  0.10464544132E+02  0.18874238141E+02  0.51100000000E-03 0.  1.
        -11    1    3    3    0    0 -0.57264659044E+01 -0.13576142485E+02 -0.98325905254E+01  0.17713946291E+02  0.51100000000E-03 0. -1.
        -12    1    3    3    0    0 -0.21270679775E+01 -0.10030367822E+02 -0.94450830700E+01  0.13940670393E+02  0.00000000000E+00 0.  1.
</event>
<event>
 7    1  0.2969156E-011  0.5052886E+02  0.7816164E-02  0.1300439E+00
        -11   -1    0    0    0    0  0.00000000000E+00  0.00000000000E+00  0.45593999997E+02  0.45594000000E+02  0.51100000000E-03 0.  1.
         11   -1    0    0    0    0 -0.00000000000E+00 -0.00000000000E+00 -0.45593999997E+02  0.45594000000E+02  0.51100000000E-03 0. -1.
    9900012    2    1    2    0    0 -0.30066443422E+02  0.25391838846E+02  0.10219074826E+02  0.50528856006E+02  0.29999988316E+02 0.  0.
         12    1    1    2    0    0  0.30066443422E+02 -0.25391838846E+02 -0.10219074826E+02  0.40659143994E+02  0.00000000000E+00 0. -1.
         11    1    3    3    0    0 -0.24000716815E+01  0.16063767354E+02  0.48846524631E+01  0.16960683819E+02  0.51100000000E-03 0. -1.
        -11    1    3    3    0    0 -0.20404352011E+02  0.83792484648E+01  0.10673838906E+02  0.24504697979E+02  0.51100000000E-03 0.  1.
        -12    1    3    3    0    0 -0.72620197297E+01  0.94882302752E+00 -0.53394165429E+01  0.90634742075E+01  0.00000000000E+00 0.  1.
</event>
<event>
 7    1  0.2969156E-011  0.5052887E+02  0.7816164E-02  0.1300439E+00
        -11   -1    0    0    0    0  0.00000000000E+00  0.00000000000E+00  0.45593999997E+02  0.45594000000E+02  0.51100000000E-03 0.  1.
         11   -1    0    0    0    0 -0.00000000000E+00 -0.00000000000E+00 -0.45593999997E+02  0.45594000000E+02  0.51100000000E-03 0. -1.
    9900012    2    1    2    0    0 -0.18804549282E+02  0.52824575577E+01  0.35660188406E+02  0.50528874718E+02  0.30000045192E+02 0.  0.
         12    1    1    2    0    0  0.18804549282E+02 -0.52824575577E+01 -0.35660188406E+02  0.40659125282E+02  0.00000000000E+00 0. -1.
         11    1    3    3    0    0  0.94171697974E+00  0.25477099384E+01 -0.17371099110E+00  0.27217333759E+01  0.51100000000E-03 0. -1.
        -11    1    3    3    0    0 -0.17621916437E+02 -0.58688473245E+01  0.11345495381E+02  0.21764548549E+02  0.51100000000E-03 0.  1.
         12    1    3    3    0    0 -0.21243498254E+01  0.86035949438E+01  0.24488404016E+02  0.26042592793E+02  0.00000000000E+00 0. -1.
</event>
<event>
 7    1  0.2969156E-011  0.5052888E+02  0.7816164E-02  0.1300439E+00
        -11   -1    0    0    0    0  0.00000000000E+00  0.00000000000E+00  0.45593999997E+02  0.45594000000E+02  0.51100000000E-03 0.  1.
         11   -1    0    0    0    0 -0.00000000000E+00 -0.00000000000E+00 -0.45593999997E+02  0.45594000000E+02  0.51100000000E-03 0. -1.
    9900012    2    1    2    0    0 -0.79533067975E+01  0.38559708457E+02  0.10151731076E+02  0.50528882337E+02  0.30000068350E+02 0.  0.
         12    1    1    2    0    0  0.79533067975E+01 -0.38559708457E+02 -0.10151731076E+02  0.40659117663E+02  0.00000000000E+00 0. -1.
         11    1    3    3    0    0 -0.41778882905E+01  0.13452084782E+02 -0.59523617548E+01  0.15291956914E+02  0.51100000000E-03 0. -1.
        -11    1    3    3    0    0 -0.76595085550E+00  0.23910095830E+02  0.60521916532E+01  0.24676069123E+02  0.51100000000E-03 0.  1.
         12    1    3    3    0    0 -0.30094676514E+01  0.11975278459E+01  0.10051901178E+02  0.10560856300E+02  0.00000000000E+00 0. -1.
</event>
<event>
 7    1  0.3004890E-011  0.5052885E+02  0.7816164E-02  0.1300439E+00
        -11   -1    0    0    0    0  0.00000000000E+00  0.00000000000E+00  0.45593999997E+02  0.45594000000E+02  0.51100000000E-03 0. -1.
         11   -1    0    0    0    0 -0.00000000000E+00 -0.00000000000E+00 -0.45593999997E+02  0.45594000000E+02  0.51100000000E-03 0.  1.
    9900012    2    1    2    0    0 -0.31197401994E+02 -0.86473878189E+01 -0.24599015855E+02  0.50528846193E+02  0.29999958488E+02 0.  0.
         12    1    1    2    0    0  0.31197401994E+02  0.86473878189E+01  0.24599015855E+02  0.40659153807E+02  0.00000000000E+00 0. -1.
         11    1    3    3    0    0 -0.49002790591E+01 -0.42965560755E+00  0.46109601294E+01  0.67422764979E+01  0.51100000000E-03 0. -1.
        -11    1    3    3    0    0 -0.19301075859E+02 -0.22461842408E+01 -0.86634508028E+01  0.21275155770E+02  0.51100000000E-03 0.  1.
        -12    1    3    3    0    0 -0.69960470757E+01 -0.59715479706E+01 -0.20546525182E+02  0.22511413925E+02  0.00000000000E+00 0.  1.
</event>
<event>
 7    1  0.2969156E-011  0.5052884E+02  0.7816164E-02  0.1300439E+00
        -11   -1    0    0    0    0  0.00000000000E+00  0.00000000000E+00  0.45593999997E+02  0.45594000000E+02  0.51100000000E-03 0.  1.
         11   -1    0    0    0    0 -0.00000000000E+00 -0.00000000000E+00 -0.45593999997E+02  0.45594000000E+02  0.51100000000E-03 0. -1.
    9900012    2    1    2    0    0  0.23398668436E+02 -0.53496926326E+01  0.32818444514E+02  0.50528841177E+02  0.29999943243E+02 0.  0.
         12    1    1    2    0    0 -0.23398668436E+02  0.53496926326E+01 -0.32818444514E+02  0.40659158823E+02  0.00000000000E+00 0. -1.
         11    1    3    3    0    0  0.13266388217E+01 -0.21756043181E+00 -0.31783466776E+01  0.34509695693E+01  0.51100000000E-03 0. -1.
        -11    1    3    3    0    0  0.56675531911E+01  0.74414659248E+01  0.82034541006E+01  0.12441592893E+02  0.51100000000E-03 0.  1.
        -12    1    3    3    0    0  0.16404476423E+02 -0.12573598126E+02  0.27793337091E+02  0.34636278715E+02  0.00000000000E+00 0.  1.
</event>
<event>
 7    1  0.2969156E-011  0.5052886E+02  0.7816164E-02  0.1300439E+00
        -11   -1    0    0    0    0  0.00000000000E+00  0.00000000000E+00  0.45593999997E+02  0.45594000000E+02  0.51100000000E-03 0.  1.
         11   -1    0    0    0    0 -0.00000000000E+00 -0.00000000000E+00 -0.45593999997E+02  0.45594000000E+02  0.51100000000E-03 0. -1.
    9900012    2    1    2    0    0  0.24693801709E-01 -0.18216333268E+02  0.36350108413E+02  0.50528858480E+02  0.29999995836E+02 0.  0.
         12    1    1    2    0    0 -0.24693801709E-01  0.18216333268E+02 -0.36350108413E+02  0.40659141520E+02  0.00000000000E+00 0. -1.
         11    1    3    3    0    0 -0.50070102169E+01 -0.23218121829E+02  0.17218340021E+02  0.29336369338E+02  0.51100000000E-03 0. -1.
        -11    1    3    3    0    0  0.27689419527E+01 -0.31305128883E+00  0.10051144864E+02  0.10430271041E+02  0.51100000000E-03 0.  1.
        -12    1    3    3    0    0  0.22627620659E+01  0.53148398502E+01  0.90806235281E+01  0.10762218101E+02  0.00000000000E+00 0.  1.
</event>
<event>
 7    1  0.2969156E-011  0.5052886E+02  0.7816164E-02  0.1300439E+00
        -11   -1    0    0    0    0  0.00000000000E+00  0.00000000000E+00  0.45593999997E+02  0.45594000000E+02  0.51100000000E-03 0.  1.
         11   -1    0    0    0    0 -0.00000000000E+00 -0.00000000000E+00 -0.45593999997E+02  0.45594000000E+02  0.51100000000E-03 0. -1.
    9900012    2    1    2    0    0  0.31107348362E+02 -0.14755159476E+02  0.21628314341E+02  0.50528857923E+02  0.29999994142E+02 0.  0.
         12    1    1    2    0    0 -0.31107348362E+02  0.14755159476E+02 -0.21628314341E+02  0.40659142077E+02  0.00000000000E+00 0. -1.
         11    1    3    3    0    0  0.12704380026E+02 -0.16817236765E+02  0.14055985313E+02  0.25333603131E+02  0.51100000000E-03 0. -1.
        -11    1    3    3    0    0  0.14431085807E+02 -0.15803268333E+01  0.11505243975E+02  0.18523614919E+02  0.51100000000E-03 0.  1.
        -12    1    3    3    0    0  0.39718825288E+01  0.36424041219E+01 -0.39329149473E+01  0.66716398728E+01  0.00000000000E+00 0.  1.
</event>
<event>
 7    1  0.2969156E-011  0.5052886E+02  0.7816164E-02  0.1300439E+00
        -11   -1    0    0    0    0  0.00000000000E+00  0.00000000000E+00  0.45593999997E+02  0.45594000000E+02  0.51100000000E-03 0. -1.
         11   -1    0    0    0    0 -0.00000000000E+00 -0.00000000000E+00 -0.45593999997E+02  0.45594000000E+02  0.51100000000E-03 0.  1.
    9900012    2    1    2    0    0 -0.32949994681E+02 -0.22749900612E+02 -0.70644029622E+01  0.50528856913E+02  0.29999991074E+02 0.  0.
         12    1    1    2    0    0  0.32949994681E+02  0.22749900612E+02  0.70644029622E+01  0.40659143087E+02  0.00000000000E+00 0. -1.
         11    1    3    3    0    0 -0.18199775168E+02  0.56022096688E+00 -0.58756277635E+01  0.19132920990E+02  0.51100000000E-03 0. -1.
        -11    1    3    3    0    0 -0.13834734312E+02 -0.10989821723E+02  0.37998444240E+01  0.18072489394E+02  0.51100000000E-03 0.  1.
        -12    1    3    3    0    0 -0.91548520024E+00 -0.12320299857E+02 -0.49886196226E+01  0.13323446530E+02  0.00000000000E+00 0.  1.
</event>
<event>
 7    1  0.2969156E-011  0.5052886E+02  0.7816164E-02  0.1300439E+00
        -11   -1    0    0    0    0  0.00000000000E+00  0.00000000000E+00  0.45593999997E+02  0.45594000000E+02  0.51100000000E-03 0. -1.
         11   -1    0    0    0    0 -0.00000000000E+00 -0.00000000000E+00 -0.45593999997E+02  0.45594000000E+02  0.51100000000E-03 0.  1.
    9900012    2    1    2    0    0  0.27841731961E+02  0.29598639195E+02 -0.13872362710E+01  0.50528857052E+02  0.29999991495E+02 0.  0.
         12    1    1    2    0    0 -0.27841731961E+02 -0.29598639195E+02  0.13872362710E+01  0.40659142948E+02  0.00000000000E+00 0. -1.
         11    1    3    3    0    0  0.13376983625E+02  0.21758510719E+02  0.11127879139E+02  0.27860476916E+02  0.51100000000E-03 0. -1.
        -11    1    3    3    0    0  0.81384798451E+01  0.15558583899E+01 -0.13753258624E+01  0.83992303818E+01  0.51100000000E-03 0.  1.
        -12    1    3    3    0    0  0.63262684911E+01  0.62842700864E+01 -0.11139789547E+02  0.14269149754E+02  0.00000000000E+00 0.  1.
</event>
<event>
 7    1  0.4028586E-011  0.5052885E+02  0.7816164E-02  0.1300439E+00
        -11   -1    0    0    0    0  0.00000000000E+00  0.00000000000E+00  0.45593999997E+02  0.45594000000E+02  0.51100000000E-03 0. -1.
         11   -1    0    0    0    0 -0.00000000000E+00 -0.00000000000E+00 -0.45593999997E+02  0.45594000000E+02  0.51100000000E-03 0.  1.
    9900012    2    1    2    0    0  0.12444495043E+02 -0.32153015992E+02 -0.21551908279E+02  0.50528847959E+02  0.29999963855E+02 0.  0.
         12    1    1    2    0    0 -0.12444495043E+02  0.32153015992E+02  0.21551908279E+02  0.40659152041E+02  0.00000000000E+00 0. -1.
         11    1    3    3    0    0  0.80490128201E+01 -0.74363768994E+01  0.25230337343E+01  0.11245088183E+02  0.51100000000E-03 0. -1.
        -11    1    3    3    0    0 -0.56456369296E+01 -0.20732261953E+01 -0.68381867825E+01  0.91067163089E+01  0.51100000000E-03 0.  1.
        -12    1    3    3    0    0  0.10041119153E+02 -0.22643412897E+02 -0.17236755230E+02  0.30177043466E+02  0.00000000000E+00 0.  1.
</event>
<event>
 7    1  0.2969156E-011  0.5052886E+02  0.7816164E-02  0.1300439E+00
        -11   -1    0    0    0    0  0.00000000000E+00  0.00000000000E+00  0.45593999997E+02  0.45594000000E+02  0.51100000000E-03 0. -1.
         11   -1    0    0    0    0 -0.00000000000E+00 -0.00000000000E+00 -0.45593999997E+02  0.45594000000E+02  0.51100000000E-03 0.  1.
    9900012    2    1    2    0    0  0.11038329838E+02  0.34637014238E+02 -0.18209840017E+02  0.50528858907E+02  0.29999997135E+02 0.  0.
         12    1    1    2    0    0 -0.11038329838E+02 -0.34637014238E+02  0.18209840017E+02  0.40659141093E+02  0.00000000000E+00 0. -1.
         11    1    3    3    0    0 -0.13633625456E+01  0.10667825368E+02  0.26142651047E+01  0.11067774745E+02  0.51100000000E-03 0. -1.
        -11    1    3    3    0    0  0.68063696794E+01  0.21326068789E+02 -0.23731618281E+02  0.32623880589E+02  0.51100000000E-03 0.  1.
         12    1    3    3    0    0  0.55953227042E+01  0.26431200813E+01  0.29075131590E+01  0.68372035730E+01  0.00000000000E+00 0. -1.
</event>
<event>
 7    1  0.2969156E-011  0.5052886E+02  0.7816164E-02  0.1300439E+00
        -11   -1    0    0    0    0  0.00000000000E+00  0.00000000000E+00  0.45593999997E+02  0.45594000000E+02  0.51100000000E-03 0. -1.
         11   -1    0    0    0    0 -0.00000000000E+00 -0.00000000000E+00 -0.45593999997E+02  0.45594000000E+02  0.51100000000E-03 0.  1.
    9900012    2    1    2    0    0  0.40422168128E+02  0.34520851183E+00 -0.43698046882E+01  0.50528855418E+02  0.29999986530E+02 0.  0.
         12    1    1    2    0    0 -0.40422168128E+02 -0.34520851183E+00  0.43698046882E+01  0.40659144582E+02  0.00000000000E+00 0. -1.
         11    1    3    3    0    0 -0.35423353633E+01  0.13416486062E+01  0.18998312278E+01  0.42376313861E+01  0.51100000000E-03 0. -1.
        -11    1    3    3    0    0  0.11113668019E+02 -0.43542001544E+01 -0.57885100065E+01  0.13265727428E+02  0.51100000000E-03 0.  1.
         12    1    3    3    0    0  0.32850835472E+02  0.33577600600E+01 -0.48112590955E+00  0.33025496605E+02  0.00000000000E+00 0. -1.
</event>
<event>
 7    1  0.2969156E-011  0.5052891E+02  0.7816164E-02  0.1300439E+00
        -11   -1    0    0    0    0  0.00000000000E+00  0.00000000000E+00  0.45593999997E+02  0.45594000000E+02  0.51100000000E-03 0. -1.
         11   -1    0    0    0    0 -0.00000000000E+00 -0.00000000000E+00 -0.45593999997E+02  0.45594000000E+02  0.51100000000E-03 0.  1.
    9900012    2    1    2    0    0  0.36044012303E+02 -0.17273815321E+02 -0.74569662233E+01  0.50528906750E+02  0.30000142557E+02 0.  0.
         12    1    1    2    0    0 -0.36044012303E+02  0.17273815321E+02  0.74569662233E+01  0.40659093250E+02  0.00000000000E+00 0. -1.
         11    1    3    3    0    0  0.97147740406E+00  0.30352528696E+01  0.41163205546E+00  0.32134046647E+01  0.51100000000E-03 0. -1.
        -11    1    3    3    0    0  0.19898764959E+02 -0.62534862022E+01  0.68224150289E+01  0.21945666626E+02  0.51100000000E-03 0.  1.
        -12    1    3    3    0    0  0.15173769940E+02 -0.14055581989E+02 -0.14691013308E+02  0.25369835459E+02  0.00000000000E+00 0.  1.
</event>
<event>
 7    1  0.2969156E-011  0.5052887E+02  0.7816164E-02  0.1300439E+00
        -11   -1    0    0    0    0  0.00000000000E+00  0.00000000000E+00  0.45593999997E+02  0.45594000000E+02  0.51100000000E-03 0. -1.
         11   -1    0    0    0    0 -0.00000000000E+00 -0.00000000000E+00 -0.45593999997E+02  0.45594000000E+02  0.51100000000E-03 0.  1.
    9900012    2    1    2    0    0 -0.92966093082E+00  0.37692585493E+02 -0.15217416958E+02  0.50528867576E+02  0.30000023483E+02 0.  0.
         12    1    1    2    0    0  0.92966093082E+00 -0.37692585493E+02  0.15217416958E+02  0.40659132424E+02  0.00000000000E+00 0. -1.
         11    1    3    3    0    0 -0.63836537199E+01  0.17367773889E+02 -0.12471837288E+02  0.22314509412E+02  0.51100000000E-03 0. -1.
        -11    1    3    3    0    0 -0.15190683724E+01  0.20591432185E+02  0.17890881148E+00  0.20648163521E+02  0.51100000000E-03 0.  1.
         12    1    3    3    0    0  0.69730611615E+01 -0.26662058128E+00 -0.29244884819E+01  0.75661946431E+01  0.00000000000E+00 0. -1.
</event>
<event>
 7    1  0.2969156E-011  0.5052883E+02  0.7816164E-02  0.1300439E+00
        -11   -1    0    0    0    0  0.00000000000E+00  0.00000000000E+00  0.45593999997E+02  0.45594000000E+02  0.51100000000E-03 0.  1.
         11   -1    0    0    0    0 -0.00000000000E+00 -0.00000000000E+00 -0.45593999997E+02  0.45594000000E+02  0.51100000000E-03 0. -1.
    9900012    2    1    2    0    0  0.10582443071E+01  0.39285018598E+02  0.10427651965E+02  0.50528825233E+02  0.29999894777E+02 0.  0.
         12    1    1    2    0    0 -0.10582443071E+01 -0.39285018598E+02 -0.10427651965E+02  0.40659174767E+02  0.00000000000E+00 0. -1.
         11    1    3    3    0    0 -0.83515690989E+01  0.97978862767E+01  0.32565836250E+01  0.13279782343E+02  0.51100000000E-03 0. -1.
        -11    1    3    3    0    0  0.71837526983E+00 -0.27107409095E+01  0.21264005557E+01  0.35193406898E+01  0.51100000000E-03 0.  1.
        -12    1    3    3    0    0  0.86914381362E+01  0.32197873231E+02  0.50446677839E+01  0.33729702200E+02  0.00000000000E+00 0.  1.
</event>
<event>
 7    1  0.2969156E-011  0.5052886E+02  0.7816164E-02  0.1300439E+00
        -11   -1    0    0    0    0  0.00000000000E+00  0.00000000000E+00  0.45593999997E+02  0.45594000000E+02  0.51100000000E-03 0.  1.
         11   -1    0    0    0    0 -0.00000000000E+00 -0.00000000000E+00 -0.45593999997E+02  0.45594000000E+02  0.51100000000E-03 0. -1.
    9900012    2    1    2    0    0 -0.12791629904E+02 -0.22767572588E+02  0.31163714929E+02  0.50528864676E+02  0.30000014668E+02 0.  0.
         12    1    1    2    0    0  0.12791629904E+02  0.22767572588E+02 -0.31163714929E+02  0.40659135324E+02  0.00000000000E+00 0. -1.
         11    1    3    3    0    0 -0.92581620569E+01 -0.20086066672E+02  0.22349536694E+02  0.31443050579E+02  0.51100000000E-03 0. -1.
        -11    1    3    3    0    0 -0.95683429870E+01 -0.31252789235E+01  0.82382862629E+01  0.13007302437E+02  0.51100000000E-03 0.  1.
         12    1    3    3    0    0  0.60348751399E+01  0.44377300754E+00  0.57589197204E+00  0.60785116599E+01  0.00000000000E+00 0. -1.
</event>
<event>
 7    1  0.2969156E-011  0.5052886E+02  0.7816164E-02  0.1300439E+00
        -11   -1    0    0    0    0  0.00000000000E+00  0.00000000000E+00  0.45593999997E+02  0.45594000000E+02  0.51100000000E-03 0.  1.
         11   -1    0    0    0    0 -0.00000000000E+00 -0.00000000000E+00 -0.45593999997E+02  0.45594000000E+02  0.51100000000E-03 0. -1.
    9900012    2    1    2    0    0 -0.55830115597E+01  0.17285955316E+02  0.36375699527E+02  0.50528858527E+02  0.29999995978E+02 0.  0.
         12    1    1    2    0    0  0.55830115597E+01 -0.17285955316E+02 -0.36375699527E+02  0.40659141473E+02  0.00000000000E+00 0. -1.
         11    1    3    3    0    0  0.50073582618E+01  0.10930709015E+01  0.10789942973E+02  0.11945346809E+02  0.51100000000E-03 0. -1.
        -11    1    3    3    0    0 -0.12615487243E+01  0.14474068407E+02  0.25201829667E+02  0.29089901689E+02  0.51100000000E-03 0.  1.
         12    1    3    3    0    0 -0.93288210972E+01  0.17188160078E+01  0.38392688632E+00  0.94936100292E+01  0.00000000000E+00 0. -1.
</event>
<event>
 7    1  0.2969156E-011  0.5052886E+02  0.7816164E-02  0.1300439E+00
        -11   -1    0    0    0    0  0.00000000000E+00  0.00000000000E+00  0.45593999997E+02  0.45594000000E+02  0.51100000000E-03 0.  1.
         11   -1    0    0    0    0 -0.00000000000E+00 -0.00000000000E+00 -0.45593999997E+02  0.45594000000E+02  0.51100000000E-03 0. -1.
    9900012    2    1    2    0    0 -0.27106909719E+02 -0.24805455504E+02  0.17408929455E+02  0.50528855862E+02  0.29999987879E+02 0.  0.
         12    1    1    2    0    0  0.27106909719E+02  0.24805455504E+02 -0.17408929455E+02  0.40659144138E+02  0.00000000000E+00 0. -1.
         11    1    3    3    0    0 -0.85783824142E+01 -0.14082364569E+02  0.29503994838E+01  0.16751313204E+02  0.51100000000E-03 0.  1.
        -11    1    3    3    0    0 -0.22786037212E+02 -0.11133347600E+02  0.91508952071E+01  0.26960968157E+02  0.51100000000E-03 0. -1.
         12    1    3    3    0    0  0.42575099074E+01  0.41025666459E+00  0.53076347645E+01  0.68165745016E+01  0.00000000000E+00 0. -1.
</event>
<event>
 7    1  0.2969156E-011  0.5052887E+02  0.7816164E-02  0.1300439E+00
        -11   -1    0    0    0    0  0.00000000000E+00  0.00000000000E+00  0.45593999997E+02  0.45594000000E+02  0.51100000000E-03 0.  1.
         11   -1    0    0    0    0 -0.00000000000E+00 -0.00000000000E+00 -0.45593999997E+02  0.45594000000E+02  0.51100000000E-03 0. -1.
    9900012    2    1    2    0    0  0.21240682259E+02  0.30983730694E+02  0.15556569801E+02  0.50528868006E+02  0.30000024792E+02 0.  0.
         12    1    1    2    0    0 -0.21240682259E+02 -0.30983730694E+02 -0.15556569801E+02  0.40659131994E+02  0.00000000000E+00 0. -1.
         11    1    3    3    0    0  0.15473167585E+02  0.20788662465E+02  0.14727185062E+02  0.29807337726E+02  0.51100000000E-03 0. -1.
        -11    1    3    3    0    0 -0.23175458896E+01  0.98766563411E+00  0.66828057826E+01  0.71418762062E+01  0.51100000000E-03 0.  1.
         12    1    3    3    0    0  0.80850605635E+01  0.92074025950E+01 -0.58534210438E+01  0.13579654074E+02  0.00000000000E+00 0. -1.
</event>
<event>
 7    1  0.2969156E-011  0.5052891E+02  0.7816164E-02  0.1300439E+00
        -11   -1    0    0    0    0  0.00000000000E+00  0.00000000000E+00  0.45593999997E+02  0.45594000000E+02  0.51100000000E-03 0.  1.
         11   -1    0    0    0    0 -0.00000000000E+00 -0.00000000000E+00 -0.45593999997E+02  0.45594000000E+02  0.51100000000E-03 0. -1.
    9900012    2    1    2    0    0 -0.22976840388E+02  0.33533120923E+02  0.86970031292E+00  0.50528907884E+02  0.30000146005E+02 0.  0.
         12    1    1    2    0    0  0.22976840388E+02 -0.33533120923E+02 -0.86970031292E+00  0.40659092116E+02  0.00000000000E+00 0. -1.
         11    1    3    3    0    0  0.74969744104E+00  0.21439746096E+02  0.47539025996E+00  0.21458116299E+02  0.51100000000E-03 0. -1.
        -11    1    3    3    0    0 -0.19225440812E+01  0.17876712931E+01  0.38991995585E+01  0.47006065412E+01  0.51100000000E-03 0.  1.
        -12    1    3    3    0    0 -0.21803993748E+02  0.10305703534E+02 -0.35048895056E+01  0.24370185045E+02  0.00000000000E+00 0.  1.
</event>
<event>
 7    1  0.2969156E-011  0.5052886E+02  0.7816164E-02  0.1300439E+00
        -11   -1    0    0    0    0  0.00000000000E+00  0.00000000000E+00  0.45593999997E+02  0.45594000000E+02  0.51100000000E-03 0. -1.
         11   -1    0    0    0    0 -0.00000000000E+00 -0.00000000000E+00 -0.45593999997E+02  0.45594000000E+02  0.51100000000E-03 0.  1.
    9900012    2    1    2    0    0  0.93839909082E+01  0.32982713237E+02 -0.21845984172E+02  0.50528859794E+02  0.29999999831E+02 0.  0.
         12    1    1    2    0    0 -0.93839909082E+01 -0.32982713237E+02  0.21845984172E+02  0.40659140206E+02  0.00000000000E+00 0. -1.
         11    1    3    3    0    0 -0.11258106865E+01  0.20374220902E+02  0.11105350970E+00  0.20405603647E+02  0.51100000000E-03 0. -1.
        -11    1    3    3    0    0  0.13638058301E+01  0.10362897662E+02 -0.15536640389E+02  0.18725298639E+02  0.51100000000E-03 0.  1.
        -12    1    3    3    0    0  0.91459957645E+01  0.22455946737E+01 -0.64203972920E+01  0.11397957508E+02  0.00000000000E+00 0.  1.
</event>
<event>
 7    1  0.2969156E-011  0.5052887E+02  0.7816164E-02  0.1300439E+00
        -11   -1    0    0    0    0  0.00000000000E+00  0.00000000000E+00  0.45593999997E+02  0.45594000000E+02  0.51100000000E-03 0. -1.
         11   -1    0    0    0    0 -0.00000000000E+00 -0.00000000000E+00 -0.45593999997E+02  0.45594000000E+02  0.51100000000E-03 0.  1.
    9900012    2    1    2    0    0 -0.11212569522E+02 -0.16624956057E+02 -0.35370246154E+02  0.50528865822E+02  0.30000018151E+02 0.  0.
         12    1    1    2    0    0  0.11212569522E+02  0.16624956057E+02  0.35370246154E+02  0.40659134178E+02  0.00000000000E+00 0. -1.
         11    1    3    3    0    0  0.78636133487E+00 -0.20949620091E+02 -0.12850029811E+02  0.24589188936E+02  0.51100000000E-03 0. -1.
        -11    1    3    3    0    0 -0.36773006070E+01  0.10717205773E+01 -0.83685416277E+01  0.92034566325E+01  0.51100000000E-03 0.  1.
         12    1    3    3    0    0 -0.83216302497E+01  0.32529434567E+01 -0.14151674715E+02  0.16736220254E+02  0.00000000000E+00 0. -1.
</event>
<event>
 7    1  0.2969156E-011  0.5052884E+02  0.7816164E-02  0.1300439E+00
        -11   -1    0    0    0    0  0.00000000000E+00  0.00000000000E+00  0.45593999997E+02  0.45594000000E+02  0.51100000000E-03 0.  1.
         11   -1    0    0    0    0 -0.00000000000E+00 -0.00000000000E+00 -0.45593999997E+02  0.45594000000E+02  0.51100000000E-03 0. -1.
    9900012    2    1    2    0    0 -0.19739886135E+02 -0.93682750342E+01  0.34289060210E+02  0.50528839509E+02  0.29999938173E+02 0.  0.
         12    1    1    2    0    0  0.19739886135E+02  0.93682750342E+01 -0.34289060210E+02  0.40659160491E+02  0.00000000000E+00 0. -1.
         11    1    3    3    0    0 -0.70377546410E+01 -0.55422319697E+01 -0.17113511251E+01  0.91200355552E+01  0.51100000000E-03 0. -1.
        -11    1    3    3    0    0 -0.91167321261E+01 -0.26011558164E+01  0.61092346196E+01  0.11278455752E+02  0.51100000000E-03 0.  1.
        -12    1    3    3    0    0 -0.35853993681E+01 -0.12248872481E+01  0.29891176715E+02  0.30130348203E+02  0.00000000000E+00 0.  1.
</event>
<event>
 7    1  0.2969156E-011  0.5052886E+02  0.7816164E-02  0.1300439E+00
        -11   -1    0    0    0    0  0.00000000000E+00  0.00000000000E+00  0.45593999997E+02  0.45594000000E+02  0.51100000000E-03 0. -1.
         11   -1    0    0    0    0 -0.00000000000E+00 -0.00000000000E+00 -0.45593999997E+02  0.45594000000E+02  0.51100000000E-03 0.  1.
    9900012    2    1    2    0    0  0.22897598105E+02  0.33596540867E+02 -0.37149372502E+00  0.50528861239E+02  0.30000004221E+02 0.  0.
         12    1    1    2    0    0 -0.22897598105E+02 -0.33596540867E+02  0.37149372502E+00  0.40659138761E+02  0.00000000000E+00 0. -1.
         11    1    3    3    0    0  0.52483172776E+00  0.29465136459E+00  0.17244515924E+01  0.18264723717E+01  0.51100000000E-03 0. -1.
        -11    1    3    3    0    0  0.14739904898E+02  0.31137838341E+02 -0.11573487806E+02  0.36342473680E+02  0.51100000000E-03 0.  1.
        -12    1    3    3    0    0  0.76328614795E+01  0.21640511619E+01  0.94775424888E+01  0.12359915187E+02  0.00000000000E+00 0.  1.
</event>
<event>
 7    1  0.2969156E-011  0.5052884E+02  0.7816164E-02  0.1300439E+00
        -11   -1    0    0    0    0  0.00000000000E+00  0.00000000000E+00  0.45593999997E+02  0.45594000000E+02  0.51100000000E-03 0. -1.
         11   -1    0    0    0    0 -0.00000000000E+00 -0.00000000000E+00 -0.45593999997E+02  0.45594000000E+02  0.51100000000E-03 0.  1.
    9900012    2    1    2    0    0  0.21964717280E+02 -0.98807969780E+01 -0.32758021194E+02  0.50528844738E+02  0.29999954064E+02 0.  0.
         12    1    1    2    0    0 -0.21964717280E+02  0.98807969780E+01  0.32758021194E+02  0.40659155262E+02  0.00000000000E+00 0. -1.
         11    1    3    3    0    0  0.55319770198E+01 -0.36767492911E+00  0.19426354637E+01  0.58746733873E+01  0.51100000000E-03 0. -1.
        -11    1    3    3    0    0  0.17367295592E+02  0.96517044232E+00 -0.24081462545E+02  0.29706419319E+02  0.51100000000E-03 0.  1.
         12    1    3    3    0    0 -0.93455533194E+00 -0.10478292491E+02 -0.10619194112E+02  0.14947752031E+02  0.00000000000E+00 0. -1.
</event>
<event>
 7    1  0.2969156E-011  0.5052887E+02  0.7816164E-02  0.1300439E+00
        -11   -1    0    0    0    0  0.00000000000E+00  0.00000000000E+00  0.45593999997E+02  0.45594000000E+02  0.51100000000E-03 0.  1.
         11   -1    0    0    0    0 -0.00000000000E+00 -0.00000000000E+00 -0.45593999997E+02  0.45594000000E+02  0.51100000000E-03 0. -1.
    9900012    2    1    2    0    0 -0.97253845899E+01 -0.35705120611E+02  0.16844174114E+02  0.50528868862E+02  0.30000027394E+02 0.  0.
         12    1    1    2    0    0  0.97253845899E+01  0.35705120611E+02 -0.16844174114E+02  0.40659131138E+02  0.00000000000E+00 0. -1.
         11    1    3    3    0    0 -0.54285926717E+01 -0.17427207448E+02  0.68876017825E+01  0.19509388417E+02  0.51100000000E-03 0. -1.
        -11    1    3    3    0    0 -0.12033431038E+02 -0.17133398195E+02  0.43170791958E+01  0.21377417274E+02  0.51100000000E-03 0.  1.
         12    1    3    3    0    0  0.77366391196E+01 -0.11445149683E+01  0.56394931361E+01  0.96420631719E+01  0.00000000000E+00 0. -1.
</event>
<event>
 7    1  0.2969156E-011  0.5052886E+02  0.7816164E-02  0.1300439E+00
        -11   -1    0    0    0    0  0.00000000000E+00  0.00000000000E+00  0.45593999997E+02  0.45594000000E+02  0.51100000000E-03 0. -1.
         11   -1    0    0    0    0 -0.00000000000E+00 -0.00000000000E+00 -0.45593999997E+02  0.45594000000E+02  0.51100000000E-03 0.  1.
    9900012    2    1    2    0    0  0.31301267275E+02  0.22165561670E+02  0.13493849999E+02  0.50528862713E+02  0.30000008702E+02 0.  0.
         12    1    1    2    0    0 -0.31301267275E+02 -0.22165561670E+02 -0.13493849999E+02  0.40659137287E+02  0.00000000000E+00 0. -1.
         11    1    3    3    0    0  0.33183078362E+01  0.18048210091E+01  0.67778024360E+01  0.77593267680E+01  0.51100000000E-03 0. -1.
        -11    1    3    3    0    0  0.26297600876E+02  0.20685969612E+02  0.13270428690E+02  0.35994130473E+02  0.51100000000E-03 0.  1.
        -12    1    3    3    0    0  0.16853585629E+01 -0.32522895081E+00 -0.65543811269E+01  0.67754054722E+01  0.00000000000E+00 0.  1.
</event>
<event>
 7    1  0.2969156E-011  0.5052886E+02  0.7816164E-02  0.1300439E+00
        -11   -1    0    0    0    0  0.00000000000E+00  0.00000000000E+00  0.45593999997E+02  0.45594000000E+02  0.51100000000E-03 0. -1.
         11   -1    0    0    0    0 -0.00000000000E+00 -0.00000000000E+00 -0.45593999997E+02  0.45594000000E+02  0.51100000000E-03 0.  1.
    9900012    2    1    2    0    0 -0.92389552253E+01  0.36889483770E+02 -0.14386557974E+02  0.50528863797E+02  0.30000011997E+02 0.  0.
         12    1    1    2    0    0  0.92389552253E+01 -0.36889483770E+02  0.14386557974E+02  0.40659136203E+02  0.00000000000E+00 0. -1.
         11    1    3    3    0    0  0.40233388903E+01  0.10903347237E+02 -0.12340026524E+01  0.11687300784E+02  0.51100000000E-03 0. -1.
        -11    1    3    3    0    0  0.26781730461E+01 -0.25434503538E+01 -0.23667881145E+00  0.37010495387E+01  0.51100000000E-03 0.  1.
        -12    1    3    3    0    0 -0.15940467162E+02  0.28529586886E+02 -0.12915876510E+02  0.35140513474E+02  0.00000000000E+00 0.  1.
</event>
<event>
 7    1  0.2969156E-011  0.5052886E+02  0.7816164E-02  0.1300439E+00
        -11   -1    0    0    0    0  0.00000000000E+00  0.00000000000E+00  0.45593999997E+02  0.45594000000E+02  0.51100000000E-03 0.  1.
         11   -1    0    0    0    0 -0.00000000000E+00 -0.00000000000E+00 -0.45593999997E+02  0.45594000000E+02  0.51100000000E-03 0. -1.
    9900012    2    1    2    0    0  0.23726728049E+02 -0.27215001293E+02  0.18696300626E+02  0.50528861097E+02  0.30000003789E+02 0.  0.
         12    1    1    2    0    0 -0.23726728049E+02  0.27215001293E+02 -0.18696300626E+02  0.40659138903E+02  0.00000000000E+00 0. -1.
         11    1    3    3    0    0  0.54626724730E+01 -0.15192533014E+02 -0.48704112764E+01  0.16863414725E+02  0.51100000000E-03 0. -1.
        -11    1    3    3    0    0  0.35279448953E+01  0.12398020885E+01  0.65332614065E+01  0.75277492832E+01  0.51100000000E-03 0.  1.
        -12    1    3    3    0    0  0.14736110681E+02 -0.13262270367E+02  0.17033450496E+02  0.26137697089E+02  0.00000000000E+00 0.  1.
</event>
<event>
 7    1  0.2969156E-011  0.5052886E+02  0.7816164E-02  0.1300439E+00
        -11   -1    0    0    0    0  0.00000000000E+00  0.00000000000E+00  0.45593999997E+02  0.45594000000E+02  0.51100000000E-03 0. -1.
         11   -1    0    0    0    0 -0.00000000000E+00 -0.00000000000E+00 -0.45593999997E+02  0.45594000000E+02  0.51100000000E-03 0.  1.
    9900012    2    1    2    0    0 -0.32815280131E+02 -0.23815547527E+02  0.30237276116E+01  0.50528857821E+02  0.29999993831E+02 0.  0.
         12    1    1    2    0    0  0.32815280131E+02  0.23815547527E+02 -0.30237276116E+01  0.40659142179E+02  0.00000000000E+00 0. -1.
         11    1    3    3    0    0 -0.34487101243E-01  0.42691206683E+01 -0.57848019072E+00  0.43082734631E+01  0.51100000000E-03 0. -1.
        -11    1    3    3    0    0 -0.47178507061E+01 -0.34701246340E+01  0.65373140741E+01  0.87770357083E+01  0.51100000000E-03 0.  1.
        -12    1    3    3    0    0 -0.28062942324E+02 -0.24614543562E+02 -0.29351062718E+01  0.37443548649E+02  0.00000000000E+00 0.  1.
</event>
<event>
 7    1  0.2969156E-011  0.5052887E+02  0.7816164E-02  0.1300439E+00
        -11   -1    0    0    0    0  0.00000000000E+00  0.00000000000E+00  0.45593999997E+02  0.45594000000E+02  0.51100000000E-03 0. -1.
         11   -1    0    0    0    0 -0.00000000000E+00 -0.00000000000E+00 -0.45593999997E+02  0.45594000000E+02  0.51100000000E-03 0.  1.
    9900012    2    1    2    0    0  0.91026776657E+01  0.37424513887E+02 -0.13027364056E+02  0.50528865791E+02  0.30000018058E+02 0.  0.
         12    1    1    2    0    0 -0.91026776657E+01 -0.37424513887E+02  0.13027364056E+02  0.40659134209E+02  0.00000000000E+00 0. -1.
         11    1    3    3    0    0  0.44025731505E+01  0.10144971201E+02 -0.55259811847E+01  0.12362829746E+02  0.51100000000E-03 0.  1.
        -11    1    3    3    0    0  0.73009367147E+00 -0.48443888734E+01 -0.21840132185E+01  0.53638656140E+01  0.51100000000E-03 0. -1.
         12    1    3    3    0    0  0.39700108437E+01  0.32123931560E+02 -0.53173696526E+01  0.32802170431E+02  0.00000000000E+00 0. -1.
</event>
<event>
 7    1  0.2969156E-011  0.5052887E+02  0.7816164E-02  0.1300439E+00
        -11   -1    0    0    0    0  0.00000000000E+00  0.00000000000E+00  0.45593999997E+02  0.45594000000E+02  0.51100000000E-03 0. -1.
         11   -1    0    0    0    0 -0.00000000000E+00 -0.00000000000E+00 -0.45593999997E+02  0.45594000000E+02  0.51100000000E-03 0.  1.
    9900012    2    1    2    0    0 -0.16991011731E+02 -0.36658901969E+02 -0.45381863366E+01  0.50528871770E+02  0.30000036231E+02 0.  0.
         12    1    1    2    0    0  0.16991011731E+02  0.36658901969E+02  0.45381863366E+01  0.40659128230E+02  0.00000000000E+00 0. -1.
         11    1    3    3    0    0  0.99846378784E+00  0.61764313764E+00 -0.40257735717E+00  0.12411614604E+01  0.51100000000E-03 0. -1.
        -11    1    3    3    0    0 -0.19881992289E+02 -0.11681989737E+02  0.11341086992E+01  0.23087847548E+02  0.51100000000E-03 0.  1.
         12    1    3    3    0    0  0.18925167703E+01 -0.25594555370E+02 -0.52697176786E+01  0.26199862762E+02  0.00000000000E+00 0. -1.
</event>
<event>
 7    1  0.2969156E-011  0.5052886E+02  0.7816164E-02  0.1300439E+00
        -11   -1    0    0    0    0  0.00000000000E+00  0.00000000000E+00  0.45593999997E+02  0.45594000000E+02  0.51100000000E-03 0.  1.
         11   -1    0    0    0    0 -0.00000000000E+00 -0.00000000000E+00 -0.45593999997E+02  0.45594000000E+02  0.51100000000E-03 0. -1.
    9900012    2    1    2    0    0  0.10571931692E+02  0.37130714679E+02  0.12755793574E+02  0.50528856109E+02  0.29999988628E+02 0.  0.
         12    1    1    2    0    0 -0.10571931692E+02 -0.37130714679E+02 -0.12755793574E+02  0.40659143891E+02  0.00000000000E+00 0. -1.
         11    1    3    3    0    0  0.67402323848E+01  0.15442466623E+02 -0.42260388147E+01  0.17371238077E+02  0.51100000000E-03 0. -1.
        -11    1    3    3    0    0  0.24096771655E+01  0.24840980762E+02  0.15607651565E+02  0.29436026514E+02  0.51100000000E-03 0.  1.
         12    1    3    3    0    0  0.14220221417E+01 -0.31527327065E+01  0.13741808236E+01  0.37215915179E+01  0.00000000000E+00 0. -1.
</event>
<event>
 7    1  0.2969156E-011  0.5052886E+02  0.7816164E-02  0.1300439E+00
        -11   -1    0    0    0    0  0.00000000000E+00  0.00000000000E+00  0.45593999997E+02  0.45594000000E+02  0.51100000000E-03 0.  1.
         11   -1    0    0    0    0 -0.00000000000E+00 -0.00000000000E+00 -0.45593999997E+02  0.45594000000E+02  0.51100000000E-03 0. -1.
    9900012    2    1    2    0    0  0.10240351562E+02  0.39335096907E+02  0.10251908614E+01  0.50528860005E+02  0.30000000471E+02 0.  0.
         12    1    1    2    0    0 -0.10240351562E+02 -0.39335096907E+02 -0.10251908614E+01  0.40659139995E+02  0.00000000000E+00 0. -1.
         11    1    3    3    0    0  0.16509528024E+01  0.46001182526E+01 -0.81295617849E+01  0.94855947715E+01  0.51100000000E-03 0. -1.
        -11    1    3    3    0    0  0.10446517644E+02  0.15975241350E+02 -0.19125414025E+01  0.19183218759E+02  0.51100000000E-03 0.  1.
         12    1    3    3    0    0 -0.18571188851E+01  0.18759737305E+02  0.11067294049E+02  0.21860046474E+02  0.00000000000E+00 0. -1.
</event>
<event>
 7    1  0.2969156E-011  0.5052880E+02  0.7816164E-02  0.1300439E+00
        -11   -1    0    0    0    0  0.00000000000E+00  0.00000000000E+00  0.45593999997E+02  0.45594000000E+02  0.51100000000E-03 0.  1.
         11   -1    0    0    0    0 -0.00000000000E+00 -0.00000000000E+00 -0.45593999997E+02  0.45594000000E+02  0.51100000000E-03 0. -1.
    9900012    2    1    2    0    0  0.31209589914E+01 -0.37219813279E+02  0.16065970828E+02  0.50528802957E+02  0.29999827068E+02 0.  0.
         12    1    1    2    0    0 -0.31209589914E+01  0.37219813279E+02 -0.16065970828E+02  0.40659197043E+02  0.00000000000E+00 0. -1.
         11    1    3    3    0    0 -0.58151239957E+01 -0.47761502641E+01 -0.44258684638E+01  0.87301540852E+01  0.51100000000E-03 0. -1.
        -11    1    3    3    0    0 -0.25749858219E+01 -0.50501037954E+01  0.74174793097E+01  0.93355824616E+01  0.51100000000E-03 0.  1.
         12    1    3    3    0    0  0.11511068809E+02 -0.27393559219E+02  0.13074359982E+02  0.32463066410E+02  0.00000000000E+00 0. -1.
</event>
<event>
 7    1  0.2969156E-011  0.5052885E+02  0.7816164E-02  0.1300439E+00
        -11   -1    0    0    0    0  0.00000000000E+00  0.00000000000E+00  0.45593999997E+02  0.45594000000E+02  0.51100000000E-03 0. -1.
         11   -1    0    0    0    0 -0.00000000000E+00 -0.00000000000E+00 -0.45593999997E+02  0.45594000000E+02  0.51100000000E-03 0.  1.
    9900012    2    1    2    0    0 -0.15276475737E+02  0.17203210889E+02 -0.33523796488E+02  0.50528854573E+02  0.29999983961E+02 0.  0.
         12    1    1    2    0    0  0.15276475737E+02 -0.17203210889E+02  0.33523796488E+02  0.40659145427E+02  0.00000000000E+00 0. -1.
         11    1    3    3    0    0  0.33503802389E+00  0.19822920532E+01  0.48225971077E+01  0.52248612791E+01  0.51100000000E-03 0. -1.
        -11    1    3    3    0    0 -0.60769409002E+01  0.21092908636E+01 -0.47358897306E+01  0.79879265428E+01  0.51100000000E-03 0.  1.
        -12    1    3    3    0    0 -0.95345728608E+01  0.13111627972E+02 -0.33610503865E+02  0.37316066751E+02  0.00000000000E+00 0.  1.
</event>
<event>
 7    1  0.2969156E-011  0.5052886E+02  0.7816164E-02  0.1300439E+00
        -11   -1    0    0    0    0  0.00000000000E+00  0.00000000000E+00  0.45593999997E+02  0.45594000000E+02  0.51100000000E-03 0.  1.
         11   -1    0    0    0    0 -0.00000000000E+00 -0.00000000000E+00 -0.45593999997E+02  0.45594000000E+02  0.51100000000E-03 0. -1.
    9900012    2    1    2    0    0  0.16414095286E+02 -0.68233569662E+01  0.36567534113E+02  0.50528864797E+02  0.30000015038E+02 0.  0.
         12    1    1    2    0    0 -0.16414095286E+02  0.68233569662E+01 -0.36567534113E+02  0.40659135203E+02  0.00000000000E+00 0. -1.
         11    1    3    3    0    0 -0.17252431765E+01 -0.23172055374E+01  0.16982122993E+02  0.17226096689E+02  0.51100000000E-03 0. -1.
        -11    1    3    3    0    0  0.54228335011E+01  0.55850165039E+01  0.14208970226E+02  0.16201677927E+02  0.51100000000E-03 0.  1.
        -12    1    3    3    0    0  0.12716504962E+02 -0.10091167933E+02  0.53764408940E+01  0.17101090181E+02  0.00000000000E+00 0.  1.
</event>
<event>
 7    1  0.2969156E-011  0.5052890E+02  0.7816164E-02  0.1300439E+00
        -11   -1    0    0    0    0  0.00000000000E+00  0.00000000000E+00  0.45593999997E+02  0.45594000000E+02  0.51100000000E-03 0. -1.
         11   -1    0    0    0    0 -0.00000000000E+00 -0.00000000000E+00 -0.45593999997E+02  0.45594000000E+02  0.51100000000E-03 0.  1.
    9900012    2    1    2    0    0  0.34312313274E+01  0.23426340202E+02 -0.33054438144E+02  0.50528897148E+02  0.30000113372E+02 0.  0.
         12    1    1    2    0    0 -0.34312313274E+01 -0.23426340202E+02  0.33054438144E+02  0.40659102852E+02  0.00000000000E+00 0. -1.
         11    1    3    3    0    0 -0.30054346506E+01  0.64781652158E+01 -0.60880415087E+01  0.93842160928E+01  0.51100000000E-03 0.  1.
        -11    1    3    3    0    0  0.30279978269E+01  0.18249927801E+01  0.47034888660E+01  0.58840612897E+01  0.51100000000E-03 0. -1.
         12    1    3    3    0    0  0.34086681511E+01  0.15123182207E+02 -0.31669885501E+02  0.35260619766E+02  0.00000000000E+00 0. -1.
</event>
<event>
 7    1  0.2969156E-011  0.5052886E+02  0.7816164E-02  0.1300439E+00
        -11   -1    0    0    0    0  0.00000000000E+00  0.00000000000E+00  0.45593999997E+02  0.45594000000E+02  0.51100000000E-03 0.  1.
         11   -1    0    0    0    0 -0.00000000000E+00 -0.00000000000E+00 -0.45593999997E+02  0.45594000000E+02  0.51100000000E-03 0. -1.
    9900012    2    1    2    0    0  0.15372550924E+01 -0.23648571559E+02  0.33038577503E+02  0.50528859657E+02  0.29999999414E+02 0.  0.
         12    1    1    2    0    0 -0.15372550924E+01  0.23648571559E+02 -0.33038577503E+02  0.40659140343E+02  0.00000000000E+00 0. -1.
         11    1    3    3    0    0  0.49842826157E+01 -0.15556048034E+02  0.22382197874E+02  0.27709140830E+02  0.51100000000E-03 0. -1.
        -11    1    3    3    0    0  0.24795089703E+00 -0.85172108973E+01  0.14907747194E+02  0.17171059600E+02  0.51100000000E-03 0.  1.
         12    1    3    3    0    0 -0.36949784203E+01  0.42468737253E+00 -0.42513675648E+01  0.56486592269E+01  0.00000000000E+00 0. -1.
</event>
<event>
 7    1  0.2969156E-011  0.5052887E+02  0.7816164E-02  0.1300439E+00
        -11   -1    0    0    0    0  0.00000000000E+00  0.00000000000E+00  0.45593999997E+02  0.45594000000E+02  0.51100000000E-03 0.  1.
         11   -1    0    0    0    0 -0.00000000000E+00 -0.00000000000E+00 -0.45593999997E+02  0.45594000000E+02  0.51100000000E-03 0. -1.
    9900012    2    1    2    0    0 -0.18628233155E+02  0.24151286138E+02  0.26886233617E+02  0.50528865101E+02  0.30000015962E+02 0.  0.
         12    1    1    2    0    0  0.18628233155E+02 -0.24151286138E+02 -0.26886233617E+02  0.40659134899E+02  0.00000000000E+00 0. -1.
         11    1    3    3    0    0 -0.14762756653E+02  0.12989978133E+02  0.10038438843E+02  0.22078242017E+02  0.51100000000E-03 0. -1.
        -11    1    3    3    0    0 -0.87491037478E+01  0.89197701687E+01  0.18935217901E+02  0.22685933824E+02  0.51100000000E-03 0.  1.
         12    1    3    3    0    0  0.48836272462E+01  0.22415378361E+01 -0.20874231272E+01  0.57646892598E+01  0.00000000000E+00 0. -1.
</event>
<event>
 7    1  0.2969156E-011  0.5052885E+02  0.7816164E-02  0.1300439E+00
        -11   -1    0    0    0    0  0.00000000000E+00  0.00000000000E+00  0.45593999997E+02  0.45594000000E+02  0.51100000000E-03 0.  1.
         11   -1    0    0    0    0 -0.00000000000E+00 -0.00000000000E+00 -0.45593999997E+02  0.45594000000E+02  0.51100000000E-03 0. -1.
    9900012    2    1    2    0    0  0.80237229696E+01  0.38344056201E+02  0.10886678825E+02  0.50528849098E+02  0.29999967318E+02 0.  0.
         12    1    1    2    0    0 -0.80237229696E+01 -0.38344056201E+02 -0.10886678825E+02  0.40659150902E+02  0.00000000000E+00 0. -1.
         11    1    3    3    0    0  0.41631481131E+01  0.46792217535E+01 -0.39005232192E+01  0.73784144689E+01  0.51100000000E-03 0. -1.
        -11    1    3    3    0    0  0.97963546879E+01  0.31198680986E+02  0.77240956048E+01  0.33600415379E+02  0.51100000000E-03 0.  1.
        -12    1    3    3    0    0 -0.59357798313E+01  0.24661534610E+01  0.70631064397E+01  0.95500192501E+01  0.00000000000E+00 0.  1.
</event>
<event>
 7    1  0.2969156E-011  0.5052886E+02  0.7816164E-02  0.1300439E+00
        -11   -1    0    0    0    0  0.00000000000E+00  0.00000000000E+00  0.45593999997E+02  0.45594000000E+02  0.51100000000E-03 0. -1.
         11   -1    0    0    0    0 -0.00000000000E+00 -0.00000000000E+00 -0.45593999997E+02  0.45594000000E+02  0.51100000000E-03 0.  1.
    9900012    2    1    2    0    0 -0.19095727583E+02 -0.24601672978E+02 -0.26139556173E+02  0.50528861763E+02  0.30000005816E+02 0.  0.
         12    1    1    2    0    0  0.19095727583E+02  0.24601672978E+02  0.26139556173E+02  0.40659138237E+02  0.00000000000E+00 0. -1.
         11    1    3    3    0    0  0.37521854818E+01  0.13230866132E+01 -0.11177643683E+02  0.11864618520E+02  0.51100000000E-03 0. -1.
        -11    1    3    3    0    0 -0.11105620132E+02 -0.64691395038E+01 -0.42088287500E+01  0.13524008434E+02  0.51100000000E-03 0.  1.
        -12    1    3    3    0    0 -0.11742292934E+02 -0.19455620087E+02 -0.10753083741E+02  0.25140234809E+02  0.00000000000E+00 0.  1.
</event>
<event>
 7    1  0.2969156E-011  0.5052886E+02  0.7816164E-02  0.1300439E+00
        -11   -1    0    0    0    0  0.00000000000E+00  0.00000000000E+00  0.45593999997E+02  0.45594000000E+02  0.51100000000E-03 0.  1.
         11   -1    0    0    0    0 -0.00000000000E+00 -0.00000000000E+00 -0.45593999997E+02  0.45594000000E+02  0.51100000000E-03 0. -1.
    9900012    2    1    2    0    0 -0.44478067290E+01 -0.36555528252E+02  0.17235896752E+02  0.50528858748E+02  0.29999996651E+02 0.  0.
         12    1    1    2    0    0  0.44478067290E+01  0.36555528252E+02 -0.17235896752E+02  0.40659141252E+02  0.00000000000E+00 0. -1.
         11    1    3    3    0    0 -0.60783664279E+01 -0.38718012223E+01 -0.29827890111E+01  0.77996418945E+01  0.51100000000E-03 0. -1.
        -11    1    3    3    0    0  0.26894850447E+01 -0.29794451764E+02  0.92140187152E+01  0.31302409282E+02  0.51100000000E-03 0.  1.
         12    1    3    3    0    0 -0.10589253459E+01 -0.28892752665E+01  0.11004667048E+02  0.11426807572E+02  0.00000000000E+00 0. -1.
</event>
<event>
 7    1  0.2969156E-011  0.5052889E+02  0.7816164E-02  0.1300439E+00
        -11   -1    0    0    0    0  0.00000000000E+00  0.00000000000E+00  0.45593999997E+02  0.45594000000E+02  0.51100000000E-03 0.  1.
         11   -1    0    0    0    0 -0.00000000000E+00 -0.00000000000E+00 -0.45593999997E+02  0.45594000000E+02  0.51100000000E-03 0. -1.
    9900012    2    1    2    0    0  0.15800463933E+01 -0.87169409898E+01  0.39682255809E+02  0.50528892374E+02  0.30000098860E+02 0.  0.
         12    1    1    2    0    0 -0.15800463933E+01  0.87169409898E+01 -0.39682255809E+02  0.40659107626E+02  0.00000000000E+00 0. -1.
         11    1    3    3    0    0  0.29760588692E+01 -0.83214524055E+01  0.14387935051E+02  0.16885383378E+02  0.51100000000E-03 0. -1.
        -11    1    3    3    0    0  0.76305936646E+01 -0.65847420637E+01  0.68164885739E+01  0.12167551293E+02  0.51100000000E-03 0.  1.
         12    1    3    3    0    0 -0.90266061405E+01  0.61892534795E+01  0.18477832184E+02  0.21475957703E+02  0.00000000000E+00 0. -1.
</event>
<event>
 7    1  0.2969156E-011  0.5052886E+02  0.7816164E-02  0.1300439E+00
        -11   -1    0    0    0    0  0.00000000000E+00  0.00000000000E+00  0.45593999997E+02  0.45594000000E+02  0.51100000000E-03 0. -1.
         11   -1    0    0    0    0 -0.00000000000E+00 -0.00000000000E+00 -0.45593999997E+02  0.45594000000E+02  0.51100000000E-03 0.  1.
    9900012    2    1    2    0    0 -0.23111662102E+02  0.29026246549E+02 -0.16628100700E+02  0.50528860231E+02  0.30000001159E+02 0.  0.
         12    1    1    2    0    0  0.23111662102E+02 -0.29026246549E+02  0.16628100700E+02  0.40659139769E+02  0.00000000000E+00 0. -1.
         11    1    3    3    0    0  0.40947388022E+00 -0.13916545924E+01 -0.18211959048E+01  0.23283311938E+01  0.51100000000E-03 0. -1.
        -11    1    3    3    0    0 -0.19774239061E+02  0.75676180372E+01 -0.90447419994E+00  0.21192155318E+02  0.51100000000E-03 0.  1.
         12    1    3    3    0    0 -0.37468969214E+01  0.22850283104E+02 -0.13902430595E+02  0.27008373719E+02  0.00000000000E+00 0. -1.
</event>
<event>
 7    1  0.2969156E-011  0.5052888E+02  0.7816164E-02  0.1300439E+00
        -11   -1    0    0    0    0  0.00000000000E+00  0.00000000000E+00  0.45593999997E+02  0.45594000000E+02  0.51100000000E-03 0.  1.
         11   -1    0    0    0    0 -0.00000000000E+00 -0.00000000000E+00 -0.45593999997E+02  0.45594000000E+02  0.51100000000E-03 0. -1.
    9900012    2    1    2    0    0 -0.34930438498E+02 -0.46216200901E+01  0.20289640453E+02  0.50528875371E+02  0.30000047177E+02 0.  0.
         12    1    1    2    0    0  0.34930438498E+02  0.46216200901E+01 -0.20289640453E+02  0.40659124629E+02  0.00000000000E+00 0. -1.
         11    1    3    3    0    0 -0.12372671071E+02 -0.73433546436E+00 -0.59090809969E+01  0.13730967792E+02  0.51100000000E-03 0. -1.
        -11    1    3    3    0    0 -0.18336279455E+02 -0.33029619689E+01  0.12461176550E+02  0.22414495829E+02  0.51100000000E-03 0.  1.
        -12    1    3    3    0    0 -0.42214879713E+01 -0.58432265678E+00  0.13737544901E+02  0.14383411750E+02  0.00000000000E+00 0.  1.
</event>
<event>
 7    1  0.2969156E-011  0.5052885E+02  0.7816164E-02  0.1300439E+00
        -11   -1    0    0    0    0  0.00000000000E+00  0.00000000000E+00  0.45593999997E+02  0.45594000000E+02  0.51100000000E-03 0.  1.
         11   -1    0    0    0    0 -0.00000000000E+00 -0.00000000000E+00 -0.45593999997E+02  0.45594000000E+02  0.51100000000E-03 0. -1.
    9900012    2    1    2    0    0 -0.33958701940E+01  0.16232460463E+02  0.37123330048E+02  0.50528851695E+02  0.29999975212E+02 0.  0.
         12    1    1    2    0    0  0.33958701940E+01 -0.16232460463E+02 -0.37123330048E+02  0.40659148305E+02  0.00000000000E+00 0. -1.
         11    1    3    3    0    0  0.42142431341E+01  0.18710102783E+01 -0.60286905094E+00  0.46501587079E+01  0.51100000000E-03 0. -1.
        -11    1    3    3    0    0  0.26672712429E+01  0.10074768708E+02  0.55026899622E+01  0.11785367940E+02  0.51100000000E-03 0.  1.
        -12    1    3    3    0    0 -0.10277384571E+02  0.42866814767E+01  0.32223509136E+02  0.34093325047E+02  0.00000000000E+00 0.  1.
</event>
<event>
 7    1  0.2969156E-011  0.5052886E+02  0.7816164E-02  0.1300439E+00
        -11   -1    0    0    0    0  0.00000000000E+00  0.00000000000E+00  0.45593999997E+02  0.45594000000E+02  0.51100000000E-03 0.  1.
         11   -1    0    0    0    0 -0.00000000000E+00 -0.00000000000E+00 -0.45593999997E+02  0.45594000000E+02  0.51100000000E-03 0. -1.
    9900012    2    1    2    0    0 -0.24764814225E+02  0.89830188403E+01  0.30970548188E+02  0.50528861961E+02  0.30000006415E+02 0.  0.
         12    1    1    2    0    0  0.24764814225E+02 -0.89830188403E+01 -0.30970548188E+02  0.40659138039E+02  0.00000000000E+00 0. -1.
         11    1    3    3    0    0 -0.24777935788E+01  0.11198032888E+02  0.39857169354E+01  0.12141719043E+02  0.51100000000E-03 0. -1.
        -11    1    3    3    0    0 -0.72895681670E+01 -0.18718491135E+01  0.20873242566E+02  0.22188597942E+02  0.51100000000E-03 0.  1.
         12    1    3    3    0    0 -0.14997452479E+02 -0.34316493424E+00  0.61115886862E+01  0.16198544975E+02  0.00000000000E+00 0. -1.
</event>
<event>
 7    1  0.2969156E-011  0.5052887E+02  0.7816164E-02  0.1300439E+00
        -11   -1    0    0    0    0  0.00000000000E+00  0.00000000000E+00  0.45593999997E+02  0.45594000000E+02  0.51100000000E-03 0.  1.
         11   -1    0    0    0    0 -0.00000000000E+00 -0.00000000000E+00 -0.45593999997E+02  0.45594000000E+02  0.51100000000E-03 0. -1.
    9900012    2    1    2    0    0 -0.59495087822E+01  0.74463184865E+01  0.39526199418E+02  0.50528871207E+02  0.30000034522E+02 0.  0.
         12    1    1    2    0    0  0.59495087822E+01 -0.74463184865E+01 -0.39526199418E+02  0.40659128793E+02  0.00000000000E+00 0. -1.
         11    1    3    3    0    0  0.54810405911E+01  0.94184503098E+00  0.17768179945E+02  0.18618192631E+02  0.51100000000E-03 0. -1.
        -11    1    3    3    0    0 -0.79619508529E+01  0.60422952544E+01  0.25133936898E+02  0.27048415436E+02  0.51100000000E-03 0.  1.
         12    1    3    3    0    0 -0.34685985204E+01  0.46217820106E+00 -0.33759174254E+01  0.48622631406E+01  0.00000000000E+00 0. -1.
</event>
<event>
 7    1  0.2969156E-011  0.5052887E+02  0.7816164E-02  0.1300439E+00
        -11   -1    0    0    0    0  0.00000000000E+00  0.00000000000E+00  0.45593999997E+02  0.45594000000E+02  0.51100000000E-03 0.  1.
         11   -1    0    0    0    0 -0.00000000000E+00 -0.00000000000E+00 -0.45593999997E+02  0.45594000000E+02  0.51100000000E-03 0. -1.
    9900012    2    1    2    0    0 -0.20644757918E+02 -0.33652108823E+02  0.97208021046E+01  0.50528874932E+02  0.30000045843E+02 0.  0.
         12    1    1    2    0    0  0.20644757918E+02  0.33652108823E+02 -0.97208021046E+01  0.40659125068E+02  0.00000000000E+00 0. -1.
         11    1    3    3    0    0 -0.66819706425E+01 -0.13144746160E+02 -0.49691643717E+01  0.15560388109E+02  0.51100000000E-03 0. -1.
        -11    1    3    3    0    0 -0.15590236108E+02 -0.22294339942E+02  0.87848603421E+01  0.28587879019E+02  0.51100000000E-03 0.  1.
         12    1    3    3    0    0  0.16274488320E+01  0.17869772783E+01  0.59051061342E+01  0.63806078041E+01  0.00000000000E+00 0. -1.
</event>
<event>
 7    1  0.2969156E-011  0.5052888E+02  0.7816164E-02  0.1300439E+00
        -11   -1    0    0    0    0  0.00000000000E+00  0.00000000000E+00  0.45593999997E+02  0.45594000000E+02  0.51100000000E-03 0.  1.
         11   -1    0    0    0    0 -0.00000000000E+00 -0.00000000000E+00 -0.45593999997E+02  0.45594000000E+02  0.51100000000E-03 0. -1.
    9900012    2    1    2    0    0 -0.38038768487E+02 -0.35559366863E+01  0.13912990924E+02  0.50528881586E+02  0.30000066070E+02 0.  0.
         12    1    1    2    0    0  0.38038768487E+02  0.35559366863E+01 -0.13912990924E+02  0.40659118414E+02  0.00000000000E+00 0. -1.
         11    1    3    3    0    0 -0.11844541398E+01 -0.29036452158E+01 -0.34483679115E+01  0.46610437310E+01  0.51100000000E-03 0. -1.
        -11    1    3    3    0    0 -0.96508085148E+01  0.90693475479E+01  0.28804072917E+01  0.13553151529E+02  0.51100000000E-03 0.  1.
        -12    1    3    3    0    0 -0.27203505832E+02 -0.97216390184E+01  0.14480951544E+02  0.32314686327E+02  0.00000000000E+00 0.  1.
</event>
<event>
 7    1  0.2969156E-011  0.5052887E+02  0.7816164E-02  0.1300439E+00
        -11   -1    0    0    0    0  0.00000000000E+00  0.00000000000E+00  0.45593999997E+02  0.45594000000E+02  0.51100000000E-03 0.  1.
         11   -1    0    0    0    0 -0.00000000000E+00 -0.00000000000E+00 -0.45593999997E+02  0.45594000000E+02  0.51100000000E-03 0. -1.
    9900012    2    1    2    0    0 -0.68132308069E+01 -0.33781558714E+02  0.21576629064E+02  0.50528871321E+02  0.30000034866E+02 0.  0.
         12    1    1    2    0    0  0.68132308069E+01  0.33781558714E+02 -0.21576629064E+02  0.40659128679E+02  0.00000000000E+00 0. -1.
         11    1    3    3    0    0 -0.12639249715E-01 -0.66746699655E+01 -0.12451233389E+01  0.67898240985E+01  0.51100000000E-03 0. -1.
        -11    1    3    3    0    0 -0.12105317607E+02 -0.56789736343E+01  0.15525403345E+02  0.20489695098E+02  0.51100000000E-03 0.  1.
         12    1    3    3    0    0  0.53047260502E+01 -0.21427915115E+02  0.72963490584E+01  0.23249352124E+02  0.00000000000E+00 0. -1.
</event>
<event>
 7    1  0.2969156E-011  0.5052885E+02  0.7816164E-02  0.1300439E+00
        -11   -1    0    0    0    0  0.00000000000E+00  0.00000000000E+00  0.45593999997E+02  0.45594000000E+02  0.51100000000E-03 0.  1.
         11   -1    0    0    0    0 -0.00000000000E+00 -0.00000000000E+00 -0.45593999997E+02  0.45594000000E+02  0.51100000000E-03 0. -1.
    9900012    2    1    2    0    0 -0.14268248284E+02 -0.24338090585E+02  0.29278672205E+02  0.50528853323E+02  0.29999980160E+02 0.  0.
         12    1    1    2    0    0  0.14268248284E+02  0.24338090585E+02 -0.29278672205E+02  0.40659146677E+02  0.00000000000E+00 0. -1.
         11    1    3    3    0    0 -0.28842720165E+01 -0.12607213542E+02  0.26967790143E+02  0.29908570073E+02  0.51100000000E-03 0.  1.
        -11    1    3    3    0    0 -0.31844391364E+01 -0.11770307109E+02  0.39536348947E+00  0.12199880926E+02  0.51100000000E-03 0. -1.
        -12    1    3    3    0    0 -0.81995371312E+01  0.39430065782E-01  0.19155185733E+01  0.84204023242E+01  0.00000000000E+00 0.  1.
</event>
<event>
 7    1  0.2969156E-011  0.5052886E+02  0.7816164E-02  0.1300439E+00
        -11   -1    0    0    0    0  0.00000000000E+00  0.00000000000E+00  0.45593999997E+02  0.45594000000E+02  0.51100000000E-03 0.  1.
         11   -1    0    0    0    0 -0.00000000000E+00 -0.00000000000E+00 -0.45593999997E+02  0.45594000000E+02  0.51100000000E-03 0. -1.
    9900012    2    1    2    0    0 -0.27844968474E+02 -0.29426229145E+02 -0.34525644163E+01  0.50528862871E+02  0.30000009183E+02 0.  0.
         12    1    1    2    0    0  0.27844968474E+02  0.29426229145E+02  0.34525644163E+01  0.40659137129E+02  0.00000000000E+00 0. -1.
         11    1    3    3    0    0 -0.25115004841E+01 -0.81521628479E+01  0.10289748835E+01  0.85921000548E+01  0.51100000000E-03 0. -1.
        -11    1    3    3    0    0 -0.27093717775E+02 -0.22809811644E+02 -0.92690520970E+01  0.36609730635E+02  0.51100000000E-03 0.  1.
        -12    1    3    3    0    0  0.17602497853E+01  0.15357453470E+01  0.47875127972E+01  0.53270321814E+01  0.00000000000E+00 0.  1.
</event>
<event>
 7    1  0.2969156E-011  0.5052886E+02  0.7816164E-02  0.1300439E+00
        -11   -1    0    0    0    0  0.00000000000E+00  0.00000000000E+00  0.45593999997E+02  0.45594000000E+02  0.51100000000E-03 0.  1.
         11   -1    0    0    0    0 -0.00000000000E+00 -0.00000000000E+00 -0.45593999997E+02  0.45594000000E+02  0.51100000000E-03 0. -1.
    9900012    2    1    2    0    0  0.26929106004E+02 -0.19449981803E+02  0.23445402644E+02  0.50528862681E+02  0.30000008607E+02 0.  0.
         12    1    1    2    0    0 -0.26929106004E+02  0.19449981803E+02 -0.23445402644E+02  0.40659137319E+02  0.00000000000E+00 0. -1.
         11    1    3    3    0    0  0.11620886133E+02 -0.19769659369E+01  0.13911574912E+02  0.18234179599E+02  0.51100000000E-03 0. -1.
        -11    1    3    3    0    0  0.20178558152E+02 -0.15951312519E+02  0.74119999923E+01  0.26768569710E+02  0.51100000000E-03 0.  1.
         12    1    3    3    0    0 -0.48703382811E+01 -0.15217033474E+01  0.21218277396E+01  0.55261133726E+01  0.00000000000E+00 0. -1.
</event>
<event>
 7    1  0.2969156E-011  0.5052884E+02  0.7816164E-02  0.1300439E+00
        -11   -1    0    0    0    0  0.00000000000E+00  0.00000000000E+00  0.45593999997E+02  0.45594000000E+02  0.51100000000E-03 0. -1.
         11   -1    0    0    0    0 -0.00000000000E+00 -0.00000000000E+00 -0.45593999997E+02  0.45594000000E+02  0.51100000000E-03 0.  1.
    9900012    2    1    2    0    0 -0.14604481058E+02 -0.13550272272E+02 -0.35443852848E+02  0.50528838052E+02  0.29999933743E+02 0.  0.
         12    1    1    2    0    0  0.14604481058E+02  0.13550272272E+02  0.35443852848E+02  0.40659161948E+02  0.00000000000E+00 0. -1.
         11    1    3    3    0    0  0.51476608501E+01 -0.38616762639E+01 -0.31982578189E+01  0.71860844090E+01  0.51100000000E-03 0. -1.
        -11    1    3    3    0    0 -0.60639360086E+01 -0.12222316772E+02 -0.93254796297E+01  0.16526370375E+02  0.51100000000E-03 0.  1.
         12    1    3    3    0    0 -0.13688205900E+02  0.25337207640E+01 -0.22920115399E+02  0.26816383268E+02  0.00000000000E+00 0. -1.
</event>
<event>
 7    1  0.2969156E-011  0.5052885E+02  0.7816164E-02  0.1300439E+00
        -11   -1    0    0    0    0  0.00000000000E+00  0.00000000000E+00  0.45593999997E+02  0.45594000000E+02  0.51100000000E-03 0.  1.
         11   -1    0    0    0    0 -0.00000000000E+00 -0.00000000000E+00 -0.45593999997E+02  0.45594000000E+02  0.51100000000E-03 0. -1.
    9900012    2    1    2    0    0 -0.93447232048E+01 -0.24915299078E+02  0.30742001608E+02  0.50528847982E+02  0.29999963927E+02 0.  0.
         12    1    1    2    0    0  0.93447232048E+01  0.24915299078E+02 -0.30742001608E+02  0.40659152018E+02  0.00000000000E+00 0. -1.
         11    1    3    3    0    0  0.16318737062E+01  0.32245389677E+01  0.22132128571E+01  0.42378030581E+01  0.51100000000E-03 0. -1.
        -11    1    3    3    0    0 -0.10158647598E+02 -0.39715025851E+01  0.34201628011E+01  0.11431030910E+02  0.51100000000E-03 0.  1.
        -12    1    3    3    0    0 -0.81794931270E+00 -0.24168335460E+02  0.25108625950E+02  0.34860014015E+02  0.00000000000E+00 0.  1.
</event>
<event>
 7    1  0.2969156E-011  0.5052885E+02  0.7816164E-02  0.1300439E+00
        -11   -1    0    0    0    0  0.00000000000E+00  0.00000000000E+00  0.45593999997E+02  0.45594000000E+02  0.51100000000E-03 0. -1.
         11   -1    0    0    0    0 -0.00000000000E+00 -0.00000000000E+00 -0.45593999997E+02  0.45594000000E+02  0.51100000000E-03 0.  1.
    9900012    2    1    2    0    0 -0.35152053207E+02  0.14525845878E+02 -0.14370080031E+02  0.50528852896E+02  0.29999978863E+02 0.  0.
         12    1    1    2    0    0  0.35152053207E+02 -0.14525845878E+02  0.14370080031E+02  0.40659147104E+02  0.00000000000E+00 0. -1.
         11    1    3    3    0    0 -0.21956919210E+02  0.20285434042E+02 -0.69171765334E+01  0.30683097414E+02  0.51100000000E-03 0. -1.
        -11    1    3    3    0    0 -0.82601470190E+01 -0.11322834095E+01 -0.96312356337E+01  0.12738633937E+02  0.51100000000E-03 0.  1.
        -12    1    3    3    0    0 -0.49349869778E+01 -0.46273047544E+01  0.21783321358E+01  0.71071215450E+01  0.00000000000E+00 0.  1.
</event>
<event>
 7    1  0.2969156E-011  0.5052888E+02  0.7816164E-02  0.1300439E+00
        -11   -1    0    0    0    0  0.00000000000E+00  0.00000000000E+00  0.45593999997E+02  0.45594000000E+02  0.51100000000E-03 0.  1.
         11   -1    0    0    0    0 -0.00000000000E+00 -0.00000000000E+00 -0.45593999997E+02  0.45594000000E+02  0.51100000000E-03 0. -1.
    9900012    2    1    2    0    0 -0.52767857403E+01  0.30921671149E+02  0.25868315666E+02  0.50528880853E+02  0.30000063840E+02 0.  0.
         12    1    1    2    0    0  0.52767857403E+01 -0.30921671149E+02 -0.25868315666E+02  0.40659119147E+02  0.00000000000E+00 0. -1.
         11    1    3    3    0    0 -0.10360072362E+02  0.13045969360E+02  0.50594925375E+01  0.17410539362E+02  0.51100000000E-03 0. -1.
        -11    1    3    3    0    0 -0.19472272437E+00  0.11015598255E+02  0.21780498982E+02  0.24408430060E+02  0.51100000000E-03 0.  1.
         12    1    3    3    0    0  0.52780093463E+01  0.68601035341E+01 -0.97167585274E+00  0.87099114301E+01  0.00000000000E+00 0. -1.
</event>
<event>
 7    1  0.2969156E-011  0.5052888E+02  0.7816164E-02  0.1300439E+00
        -11   -1    0    0    0    0  0.00000000000E+00  0.00000000000E+00  0.45593999997E+02  0.45594000000E+02  0.51100000000E-03 0.  1.
         11   -1    0    0    0    0 -0.00000000000E+00 -0.00000000000E+00 -0.45593999997E+02  0.45594000000E+02  0.51100000000E-03 0. -1.
    9900012    2    1    2    0    0  0.12623264146E+02 -0.30761608876E+02  0.23399592703E+02  0.50528876584E+02  0.30000050863E+02 0.  0.
         12    1    1    2    0    0 -0.12623264146E+02  0.30761608876E+02 -0.23399592703E+02  0.40659123416E+02  0.00000000000E+00 0. -1.
         11    1    3    3    0    0  0.12821430350E+01 -0.18020035057E+02  0.57642915547E+01  0.18962927295E+02  0.51100000000E-03 0. -1.
        -11    1    3    3    0    0  0.92706360058E+01 -0.16938754803E+02  0.80917685399E+01  0.20936638330E+02  0.51100000000E-03 0.  1.
        -12    1    3    3    0    0  0.20704851052E+01  0.41971809841E+01  0.95435326087E+01  0.10629310958E+02  0.00000000000E+00 0.  1.
</event>
<event>
 7    1  0.2969156E-011  0.5052886E+02  0.7816164E-02  0.1300439E+00
        -11   -1    0    0    0    0  0.00000000000E+00  0.00000000000E+00  0.45593999997E+02  0.45594000000E+02  0.51100000000E-03 0.  1.
         11   -1    0    0    0    0 -0.00000000000E+00 -0.00000000000E+00 -0.45593999997E+02  0.45594000000E+02  0.51100000000E-03 0. -1.
    9900012    2    1    2    0    0 -0.12264152976E+02 -0.14059224407E+02  0.36126085589E+02  0.50528864506E+02  0.30000014153E+02 0.  0.
         12    1    1    2    0    0  0.12264152976E+02  0.14059224407E+02 -0.36126085589E+02  0.40659135494E+02  0.00000000000E+00 0. -1.
         11    1    3    3    0    0 -0.61815084601E+01 -0.55848838039E+01 -0.11258146029E+01  0.84065113291E+01  0.51100000000E-03 0. -1.
        -11    1    3    3    0    0 -0.81941643662E+00 -0.52493128310E+01  0.10723721334E+01  0.54200286667E+01  0.51100000000E-03 0.  1.
        -12    1    3    3    0    0 -0.52632280795E+01 -0.32250277717E+01  0.36179528058E+02  0.36702324510E+02  0.00000000000E+00 0.  1.
</event>
<event>
 7    1  0.2969156E-011  0.5052886E+02  0.7816164E-02  0.1300439E+00
        -11   -1    0    0    0    0  0.00000000000E+00  0.00000000000E+00  0.45593999997E+02  0.45594000000E+02  0.51100000000E-03 0.  1.
         11   -1    0    0    0    0 -0.00000000000E+00 -0.00000000000E+00 -0.45593999997E+02  0.45594000000E+02  0.51100000000E-03 0. -1.
    9900012    2    1    2    0    0  0.17690601358E+02 -0.32937755189E+02  0.15978504525E+02  0.50528859574E+02  0.29999999162E+02 0.  0.
         12    1    1    2    0    0 -0.17690601358E+02  0.32937755189E+02 -0.15978504525E+02  0.40659140426E+02  0.00000000000E+00 0. -1.
         11    1    3    3    0    0 -0.36290116489E+01 -0.13950408124E+02  0.73332438808E+01  0.16172819125E+02  0.51100000000E-03 0. -1.
        -11    1    3    3    0    0  0.70689770280E+00 -0.65886635921E+01 -0.34072307541E+01  0.74511350789E+01  0.51100000000E-03 0.  1.
         12    1    3    3    0    0  0.20612715304E+02 -0.12398683473E+02  0.12052491398E+02  0.26904905370E+02  0.00000000000E+00 0. -1.
</event>
<event>
 7    1  0.2969156E-011  0.5052886E+02  0.7816164E-02  0.1300439E+00
        -11   -1    0    0    0    0  0.00000000000E+00  0.00000000000E+00  0.45593999997E+02  0.45594000000E+02  0.51100000000E-03 0.  1.
         11   -1    0    0    0    0 -0.00000000000E+00 -0.00000000000E+00 -0.45593999997E+02  0.45594000000E+02  0.51100000000E-03 0. -1.
    9900012    2    1    2    0    0 -0.11897823878E+02  0.14667769404E+02  0.36006443289E+02  0.50528860429E+02  0.30000001761E+02 0.  0.
         12    1    1    2    0    0  0.11897823878E+02 -0.14667769404E+02 -0.36006443289E+02  0.40659139571E+02  0.00000000000E+00 0. -1.
         11    1    3    3    0    0 -0.10531095561E+02  0.54527103736E+01  0.21764466043E+02  0.24785641136E+02  0.51100000000E-03 0. -1.
        -11    1    3    3    0    0 -0.33920039472E+01 -0.54545284574E+01  0.26990892127E+01  0.69672558665E+01  0.51100000000E-03 0.  1.
         12    1    3    3    0    0  0.20252756304E+01  0.14669587488E+02  0.11542888033E+02  0.18775963426E+02  0.00000000000E+00 0. -1.
</event>
<event>
 7    1  0.2969156E-011  0.5052892E+02  0.7816164E-02  0.1300439E+00
        -11   -1    0    0    0    0  0.00000000000E+00  0.00000000000E+00  0.45593999997E+02  0.45594000000E+02  0.51100000000E-03 0. -1.
         11   -1    0    0    0    0 -0.00000000000E+00 -0.00000000000E+00 -0.45593999997E+02  0.45594000000E+02  0.51100000000E-03 0.  1.
    9900012    2    1    2    0    0 -0.18665103362E+02  0.20895935071E+02 -0.29464118432E+02  0.50528924003E+02  0.30000194998E+02 0.  0.
         12    1    1    2    0    0  0.18665103362E+02 -0.20895935071E+02  0.29464118432E+02  0.40659075997E+02  0.00000000000E+00 0. -1.
         11    1    3    3    0    0 -0.12358000900E+02  0.17035024659E+02 -0.16672738608E+02  0.26849440670E+02  0.51100000000E-03 0. -1.
        -11    1    3    3    0    0  0.20905993289E+01  0.93389358629E+01 -0.83993768144E+01  0.12733258017E+02  0.51100000000E-03 0.  1.
         12    1    3    3    0    0 -0.83977017904E+01 -0.54780254511E+01 -0.43920030100E+01  0.10946225315E+02  0.00000000000E+00 0. -1.
</event>
<event>
 7    1  0.2969156E-011  0.5052886E+02  0.7816164E-02  0.1300439E+00
        -11   -1    0    0    0    0  0.00000000000E+00  0.00000000000E+00  0.45593999997E+02  0.45594000000E+02  0.51100000000E-03 0.  1.
         11   -1    0    0    0    0 -0.00000000000E+00 -0.00000000000E+00 -0.45593999997E+02  0.45594000000E+02  0.51100000000E-03 0. -1.
    9900012    2    1    2    0    0 -0.22318026847E+02  0.33857825025E+02  0.29527879895E+01  0.50528860871E+02  0.30000003103E+02 0.  0.
         12    1    1    2    0    0  0.22318026847E+02 -0.33857825025E+02 -0.29527879895E+01  0.40659139129E+02  0.00000000000E+00 0. -1.
         11    1    3    3    0    0 -0.14439076830E+01  0.56637919120E+00 -0.32350704727E+01  0.35876644227E+01  0.51100000000E-03 0. -1.
        -11    1    3    3    0    0 -0.86419120438E-01  0.59295499034E+01  0.10749684952E+02  0.12276919693E+02  0.51100000000E-03 0.  1.
        -12    1    3    3    0    0 -0.20787700044E+02  0.27361895931E+02 -0.45618264899E+01  0.34664276755E+02  0.00000000000E+00 0.  1.
</event>
<event>
 7    1  0.2969156E-011  0.5052884E+02  0.7816164E-02  0.1300439E+00
        -11   -1    0    0    0    0  0.00000000000E+00  0.00000000000E+00  0.45593999997E+02  0.45594000000E+02  0.51100000000E-03 0.  1.
         11   -1    0    0    0    0 -0.00000000000E+00 -0.00000000000E+00 -0.45593999997E+02  0.45594000000E+02  0.51100000000E-03 0. -1.
    9900012    2    1    2    0    0 -0.29638168622E+02  0.13003392353E+02  0.24610120931E+02  0.50528839849E+02  0.29999939205E+02 0.  0.
         12    1    1    2    0    0  0.29638168622E+02 -0.13003392353E+02 -0.24610120931E+02  0.40659160151E+02  0.00000000000E+00 0. -1.
         11    1    3    3    0    0 -0.60055179383E+01  0.17468254085E+01  0.28429253596E+01  0.68702161229E+01  0.51100000000E-03 0. -1.
        -11    1    3    3    0    0  0.38381629166E+01  0.19920954237E+01 -0.32151526267E+01  0.53886125696E+01  0.51100000000E-03 0.  1.
        -12    1    3    3    0    0 -0.27470813600E+02  0.92644715209E+01  0.24982348199E+02  0.38270011156E+02  0.00000000000E+00 0.  1.
</event>
<event>
 7    1  0.2969156E-011  0.5052886E+02  0.7816164E-02  0.1300439E+00
        -11   -1    0    0    0    0  0.00000000000E+00  0.00000000000E+00  0.45593999997E+02  0.45594000000E+02  0.51100000000E-03 0. -1.
         11   -1    0    0    0    0 -0.00000000000E+00 -0.00000000000E+00 -0.45593999997E+02  0.45594000000E+02  0.51100000000E-03 0.  1.
    9900012    2    1    2    0    0  0.36709899486E+02 -0.17416929502E+02 -0.14829805965E+01  0.50528863450E+02  0.30000010943E+02 0.  0.
         12    1    1    2    0    0 -0.36709899486E+02  0.17416929502E+02  0.14829805965E+01  0.40659136550E+02  0.00000000000E+00 0. -1.
         11    1    3    3    0    0  0.16323914169E+02 -0.56826084448E+01  0.48598936482E+01  0.17954965304E+02  0.51100000000E-03 0. -1.
        -11    1    3    3    0    0  0.22522078600E+02 -0.10006945411E+02 -0.11139946547E+02  0.27045912635E+02  0.51100000000E-03 0.  1.
         12    1    3    3    0    0 -0.21360932832E+01 -0.17273756459E+01  0.47970723025E+01  0.55279855112E+01  0.00000000000E+00 0. -1.
</event>
<event>
 7    1  0.2969156E-011  0.5052886E+02  0.7816164E-02  0.1300439E+00
        -11   -1    0    0    0    0  0.00000000000E+00  0.00000000000E+00  0.45593999997E+02  0.45594000000E+02  0.51100000000E-03 0.  1.
         11   -1    0    0    0    0 -0.00000000000E+00 -0.00000000000E+00 -0.45593999997E+02  0.45594000000E+02  0.51100000000E-03 0. -1.
    9900012    2    1    2    0    0  0.25576890464E+02 -0.11395851575E+02  0.29480896866E+02  0.50528855408E+02  0.29999986499E+02 0.  0.
         12    1    1    2    0    0 -0.25576890464E+02  0.11395851575E+02 -0.29480896866E+02  0.40659144592E+02  0.00000000000E+00 0. -1.
         11    1    3    3    0    0  0.67823044070E+01  0.50222215224E+01  0.10186485197E+02  0.13228259259E+02  0.51100000000E-03 0. -1.
        -11    1    3    3    0    0  0.34925648146E+01 -0.14213258660E+01  0.14977002878E+02  0.15444377348E+02  0.51100000000E-03 0.  1.
        -12    1    3    3    0    0  0.15302021242E+02 -0.14996747232E+02  0.43174087911E+01  0.21856218801E+02  0.00000000000E+00 0.  1.
</event>
<event>
 7    1  0.2969156E-011  0.5052886E+02  0.7816164E-02  0.1300439E+00
        -11   -1    0    0    0    0  0.00000000000E+00  0.00000000000E+00  0.45593999997E+02  0.45594000000E+02  0.51100000000E-03 0. -1.
         11   -1    0    0    0    0 -0.00000000000E+00 -0.00000000000E+00 -0.45593999997E+02  0.45594000000E+02  0.51100000000E-03 0.  1.
    9900012    2    1    2    0    0  0.11007998233E+02  0.29386674694E+02 -0.25853684365E+02  0.50528859946E+02  0.30000000293E+02 0.  0.
         12    1    1    2    0    0 -0.11007998233E+02 -0.29386674694E+02  0.25853684365E+02  0.40659140054E+02  0.00000000000E+00 0. -1.
         11    1    3    3    0    0  0.17085896529E+01  0.10022085045E+02  0.13204310882E+01  0.10252073243E+02  0.51100000000E-03 0. -1.
        -11    1    3    3    0    0  0.13562474369E+02  0.14916385450E+02 -0.10993693202E+02  0.22963025855E+02  0.51100000000E-03 0.  1.
         12    1    3    3    0    0 -0.42630657887E+01  0.44482041978E+01 -0.16180422251E+02  0.17313760849E+02  0.00000000000E+00 0. -1.
</event>
<event>
 7    1  0.2969156E-011  0.5052886E+02  0.7816164E-02  0.1300439E+00
        -11   -1    0    0    0    0  0.00000000000E+00  0.00000000000E+00  0.45593999997E+02  0.45594000000E+02  0.51100000000E-03 0. -1.
         11   -1    0    0    0    0 -0.00000000000E+00 -0.00000000000E+00 -0.45593999997E+02  0.45594000000E+02  0.51100000000E-03 0.  1.
    9900012    2    1    2    0    0  0.12234340041E+02 -0.33365265862E+02 -0.19754627896E+02  0.50528863689E+02  0.30000011668E+02 0.  0.
         12    1    1    2    0    0 -0.12234340041E+02  0.33365265862E+02  0.19754627896E+02  0.40659136311E+02  0.00000000000E+00 0. -1.
         11    1    3    3    0    0 -0.63467207249E+01 -0.82588061759E+01  0.59305493411E+00  0.10432663027E+02  0.51100000000E-03 0. -1.
        -11    1    3    3    0    0  0.23654071932E+01 -0.14088930435E+02 -0.12488441452E+02  0.18975096368E+02  0.51100000000E-03 0.  1.
         12    1    3    3    0    0  0.16215653573E+02 -0.11017529250E+02 -0.78592413777E+01  0.21121104294E+02  0.00000000000E+00 0. -1.
</event>
<event>
 7    1  0.2969156E-011  0.5052888E+02  0.7816164E-02  0.1300439E+00
        -11   -1    0    0    0    0  0.00000000000E+00  0.00000000000E+00  0.45593999997E+02  0.45594000000E+02  0.51100000000E-03 0.  1.
         11   -1    0    0    0    0 -0.00000000000E+00 -0.00000000000E+00 -0.45593999997E+02  0.45594000000E+02  0.51100000000E-03 0. -1.
    9900012    2    1    2    0    0 -0.16084758927E+02 -0.36404188417E+02  0.83174132796E+01  0.50528883339E+02  0.30000071396E+02 0.  0.
         12    1    1    2    0    0  0.16084758927E+02  0.36404188417E+02 -0.83174132796E+01  0.40659116661E+02  0.00000000000E+00 0. -1.
         11    1    3    3    0    0  0.70132893056E+01 -0.42594364432E+01 -0.25221210535E+01  0.85842949953E+01  0.51100000000E-03 0. -1.
        -11    1    3    3    0    0 -0.67280324823E+01 -0.78050827898E+01  0.67737089018E+01  0.12331620777E+02  0.51100000000E-03 0.  1.
        -12    1    3    3    0    0 -0.16370015750E+02 -0.24339669184E+02  0.40658254313E+01  0.29612967566E+02  0.00000000000E+00 0.  1.
</event>
<event>
 7    1  0.2969156E-011  0.5052887E+02  0.7816164E-02  0.1300439E+00
        -11   -1    0    0    0    0  0.00000000000E+00  0.00000000000E+00  0.45593999997E+02  0.45594000000E+02  0.51100000000E-03 0.  1.
         11   -1    0    0    0    0 -0.00000000000E+00 -0.00000000000E+00 -0.45593999997E+02  0.45594000000E+02  0.51100000000E-03 0. -1.
    9900012    2    1    2    0    0  0.29359219571E+02  0.15779689500E+02  0.23285248144E+02  0.50528866270E+02  0.30000019515E+02 0.  0.
         12    1    1    2    0    0 -0.29359219571E+02 -0.15779689500E+02 -0.23285248144E+02  0.40659133730E+02  0.00000000000E+00 0. -1.
         11    1    3    3    0    0 -0.17041888696E+01  0.77032649151E+01  0.17251901976E+01  0.80759415261E+01  0.51100000000E-03 0. -1.
        -11    1    3    3    0    0  0.91962034729E+01  0.30169307055E+01 -0.20323650570E+01  0.98895165293E+01  0.51100000000E-03 0.  1.
        -12    1    3    3    0    0  0.21867204967E+02  0.50594938796E+01  0.23592423003E+02  0.32563408215E+02  0.00000000000E+00 0.  1.
</event>
<event>
 7    1  0.2969156E-011  0.5052884E+02  0.7816164E-02  0.1300439E+00
        -11   -1    0    0    0    0  0.00000000000E+00  0.00000000000E+00  0.45593999997E+02  0.45594000000E+02  0.51100000000E-03 0. -1.
         11   -1    0    0    0    0 -0.00000000000E+00 -0.00000000000E+00 -0.45593999997E+02  0.45594000000E+02  0.51100000000E-03 0.  1.
    9900012    2    1    2    0    0 -0.21338150981E+01  0.38339725019E+02 -0.13367100353E+02  0.50528842935E+02  0.29999948586E+02 0.  0.
         12    1    1    2    0    0  0.21338150981E+01 -0.38339725019E+02  0.13367100353E+02  0.40659157065E+02  0.00000000000E+00 0. -1.
         11    1    3    3    0    0 -0.28565549191E+01  0.10118827385E+02  0.21433994015E+01  0.10730551473E+02  0.51100000000E-03 0. -1.
        -11    1    3    3    0    0  0.60914217592E+01  0.27180716924E+02 -0.55017861864E+01  0.28393070335E+02  0.51100000000E-03 0.  1.
         12    1    3    3    0    0 -0.53686819382E+01  0.10401807091E+01 -0.10008713568E+02  0.11405221127E+02  0.00000000000E+00 0. -1.
</event>
<event>
 7    1  0.2969156E-011  0.5052891E+02  0.7816164E-02  0.1300439E+00
        -11   -1    0    0    0    0  0.00000000000E+00  0.00000000000E+00  0.45593999997E+02  0.45594000000E+02  0.51100000000E-03 0.  1.
         11   -1    0    0    0    0 -0.00000000000E+00 -0.00000000000E+00 -0.45593999997E+02  0.45594000000E+02  0.51100000000E-03 0. -1.
    9900012    2    1    2    0    0 -0.31168195344E+02 -0.21397676500E+02 -0.14961451261E+02  0.50528905267E+02  0.30000138050E+02 0.  0.
         12    1    1    2    0    0  0.31168195344E+02  0.21397676500E+02  0.14961451261E+02  0.40659094733E+02  0.00000000000E+00 0. -1.
         11    1    3    3    0    0  0.51384666648E+00 -0.29539084497E+01 -0.86029208807E+01  0.91104259761E+01  0.51100000000E-03 0. -1.
        -11    1    3    3    0    0 -0.10727676506E+02  0.19099050678E+01  0.19010886742E+01  0.11060963746E+02  0.51100000000E-03 0.  1.
        -12    1    3    3    0    0 -0.20954365505E+02 -0.20353673119E+02 -0.82596190550E+01  0.30357515545E+02  0.00000000000E+00 0.  1.
</event>
<event>
 7    1  0.2969156E-011  0.5052889E+02  0.7816164E-02  0.1300439E+00
        -11   -1    0    0    0    0  0.00000000000E+00  0.00000000000E+00  0.45593999997E+02  0.45594000000E+02  0.51100000000E-03 0. -1.
         11   -1    0    0    0    0 -0.00000000000E+00 -0.00000000000E+00 -0.45593999997E+02  0.45594000000E+02  0.51100000000E-03 0.  1.
    9900012    2    1    2    0    0 -0.13941633451E+02 -0.36011516186E+02 -0.12726539820E+02  0.50528889618E+02  0.30000090481E+02 0.  0.
         12    1    1    2    0    0  0.13941633451E+02  0.36011516186E+02  0.12726539820E+02  0.40659110382E+02  0.00000000000E+00 0. -1.
         11    1    3    3    0    0  0.86925609408E+00 -0.81787230603E+01 -0.10129943108E+02  0.13048481317E+02  0.51100000000E-03 0. -1.
        -11    1    3    3    0    0 -0.14956858380E+02 -0.18700022711E+02 -0.97742004720E+01  0.25863747932E+02  0.51100000000E-03 0.  1.
         12    1    3    3    0    0  0.14596883499E+00 -0.91327704153E+01  0.71776037604E+01  0.11616660368E+02  0.00000000000E+00 0. -1.
</event>
<event>
 7    1  0.2969156E-011  0.5052886E+02  0.7816164E-02  0.1300439E+00
        -11   -1    0    0    0    0  0.00000000000E+00  0.00000000000E+00  0.45593999997E+02  0.45594000000E+02  0.51100000000E-03 0.  1.
         11   -1    0    0    0    0 -0.00000000000E+00 -0.00000000000E+00 -0.45593999997E+02  0.45594000000E+02  0.51100000000E-03 0. -1.
    9900012    2    1    2    0    0  0.66867631810E+01  0.94567071837E+01  0.38974652296E+02  0.50528860385E+02  0.30000001627E+02 0.  0.
         12    1    1    2    0    0 -0.66867631810E+01 -0.94567071837E+01 -0.38974652296E+02  0.40659139615E+02  0.00000000000E+00 0. -1.
         11    1    3    3    0    0  0.10283334445E+01 -0.76779333770E-01  0.19607066890E+01  0.22153409942E+01  0.51100000000E-03 0. -1.
        -11    1    3    3    0    0  0.17451930120E+02  0.42851803799E+01  0.24012902159E+02  0.29992534174E+02  0.51100000000E-03 0.  1.
         12    1    3    3    0    0 -0.11793500383E+02  0.52483061376E+01  0.13001043448E+02  0.18320985217E+02  0.00000000000E+00 0. -1.
</event>
<event>
 7    1  0.2969156E-011  0.5052881E+02  0.7816164E-02  0.1300439E+00
        -11   -1    0    0    0    0  0.00000000000E+00  0.00000000000E+00  0.45593999997E+02  0.45594000000E+02  0.51100000000E-03 0. -1.
         11   -1    0    0    0    0 -0.00000000000E+00 -0.00000000000E+00 -0.45593999997E+02  0.45594000000E+02  0.51100000000E-03 0.  1.
    9900012    2    1    2    0    0 -0.46433714910E+01 -0.31341233576E+02  0.25482073550E+02  0.50528808009E+02  0.29999842425E+02 0.  0.
         12    1    1    2    0    0  0.46433714910E+01  0.31341233576E+02 -0.25482073550E+02  0.40659191991E+02  0.00000000000E+00 0. -1.
         11    1    3    3    0    0 -0.16133726492E+01 -0.43047966206E+01 -0.39873740922E+01  0.60855071820E+01  0.51100000000E-03 0. -1.
        -11    1    3    3    0    0 -0.37124091109E+01 -0.19751687280E+02  0.77763330301E+01  0.21549535667E+02  0.51100000000E-03 0.  1.
         12    1    3    3    0    0  0.68241026906E+00 -0.72847496759E+01  0.21693114613E+02  0.22893765160E+02  0.00000000000E+00 0. -1.
</event>
<event>
 7    1  0.2969156E-011  0.5052887E+02  0.7816164E-02  0.1300439E+00
        -11   -1    0    0    0    0  0.00000000000E+00  0.00000000000E+00  0.45593999997E+02  0.45594000000E+02  0.51100000000E-03 0.  1.
         11   -1    0    0    0    0 -0.00000000000E+00 -0.00000000000E+00 -0.45593999997E+02  0.45594000000E+02  0.51100000000E-03 0. -1.
    9900012    2    1    2    0    0  0.27522347463E+02  0.27900310801E+02  0.10828583945E+02  0.50528865935E+02  0.30000018496E+02 0.  0.
         12    1    1    2    0    0 -0.27522347463E+02 -0.27900310801E+02 -0.10828583945E+02  0.40659134065E+02  0.00000000000E+00 0. -1.
         11    1    3    3    0    0  0.82102343167E+01  0.40405041713E+01  0.50677545902E+01  0.10460198772E+02  0.51100000000E-03 0. -1.
        -11    1    3    3    0    0  0.95808614834E+01  0.23469937653E+02  0.12461178251E+02  0.28247333394E+02  0.51100000000E-03 0.  1.
         12    1    3    3    0    0  0.97312516631E+01  0.38986897659E+00 -0.67003488967E+01  0.11821333769E+02  0.00000000000E+00 0. -1.
</event>
<event>
 7    1  0.2969156E-011  0.5052886E+02  0.7816164E-02  0.1300439E+00
        -11   -1    0    0    0    0  0.00000000000E+00  0.00000000000E+00  0.45593999997E+02  0.45594000000E+02  0.51100000000E-03 0. -1.
         11   -1    0    0    0    0 -0.00000000000E+00 -0.00000000000E+00 -0.45593999997E+02  0.45594000000E+02  0.51100000000E-03 0.  1.
    9900012    2    1    2    0    0 -0.15464868346E+02 -0.21891837988E+02 -0.30573694853E+02  0.50528861539E+02  0.30000005133E+02 0.  0.
         12    1    1    2    0    0  0.15464868346E+02  0.21891837988E+02  0.30573694853E+02  0.40659138461E+02  0.00000000000E+00 0. -1.
         11    1    3    3    0    0 -0.86999703842E+01 -0.45988582609E+01 -0.13438438230E+01  0.99320138176E+01  0.51100000000E-03 0. -1.
        -11    1    3    3    0    0  0.91330846931E+00  0.22158882805E+01 -0.15159004456E+02  0.15347303007E+02  0.51100000000E-03 0.  1.
        -12    1    3    3    0    0 -0.76782064307E+01 -0.19508868008E+02 -0.14070846574E+02  0.25249544714E+02  0.00000000000E+00 0.  1.
</event>
<event>
 7    1  0.3712949E-011  0.5052886E+02  0.7816164E-02  0.1300439E+00
        -11   -1    0    0    0    0  0.00000000000E+00  0.00000000000E+00  0.45593999997E+02  0.45594000000E+02  0.51100000000E-03 0. -1.
         11   -1    0    0    0    0 -0.00000000000E+00 -0.00000000000E+00 -0.45593999997E+02  0.45594000000E+02  0.51100000000E-03 0.  1.
    9900012    2    1    2    0    0 -0.76797237313E+01 -0.48149710435E+00 -0.39924376139E+02  0.50528858271E+02  0.29999995201E+02 0.  0.
         12    1    1    2    0    0  0.76797237313E+01  0.48149710435E+00  0.39924376139E+02  0.40659141729E+02  0.00000000000E+00 0. -1.
         11    1    3    3    0    0 -0.10511799739E+02 -0.33381912553E+01 -0.52760281823E+01  0.12226116646E+02  0.51100000000E-03 0.  1.
        -11    1    3    3    0    0  0.25245587124E+01  0.16370333460E+00  0.87441920499E+00  0.26767152783E+01  0.51100000000E-03 0. -1.
        -12    1    3    3    0    0  0.30751729525E+00  0.26929908163E+01 -0.35522767162E+02  0.35626026346E+02  0.00000000000E+00 0.  1.
</event>
<event>
 7    1  0.2969156E-011  0.5052886E+02  0.7816164E-02  0.1300439E+00
        -11   -1    0    0    0    0  0.00000000000E+00  0.00000000000E+00  0.45593999997E+02  0.45594000000E+02  0.51100000000E-03 0.  1.
         11   -1    0    0    0    0 -0.00000000000E+00 -0.00000000000E+00 -0.45593999997E+02  0.45594000000E+02  0.51100000000E-03 0. -1.
    9900012    2    1    2    0    0  0.32638664208E+02  0.17195608374E+02  0.17093682108E+02  0.50528864291E+02  0.30000013499E+02 0.  0.
         12    1    1    2    0    0 -0.32638664208E+02 -0.17195608374E+02 -0.17093682108E+02  0.40659135709E+02  0.00000000000E+00 0. -1.
         11    1    3    3    0    0  0.17169124414E+02  0.58005375693E+01  0.31675474014E+01  0.18397239631E+02  0.51100000000E-03 0. -1.
        -11    1    3    3    0    0  0.12682757409E+02 -0.14762600519E+01  0.14018414705E+02  0.18961741226E+02  0.51100000000E-03 0.  1.
         12    1    3    3    0    0  0.27867823848E+01  0.12871330856E+02 -0.92279998459E-01  0.13169883434E+02  0.00000000000E+00 0. -1.
</event>
<event>
 7    1  0.2969156E-011  0.5052885E+02  0.7816164E-02  0.1300439E+00
        -11   -1    0    0    0    0  0.00000000000E+00  0.00000000000E+00  0.45593999997E+02  0.45594000000E+02  0.51100000000E-03 0.  1.
         11   -1    0    0    0    0 -0.00000000000E+00 -0.00000000000E+00 -0.45593999997E+02  0.45594000000E+02  0.51100000000E-03 0. -1.
    9900012    2    1    2    0    0 -0.12717333912E+02 -0.30816420982E+02  0.23276254456E+02  0.50528850901E+02  0.29999972798E+02 0.  0.
         12    1    1    2    0    0  0.12717333912E+02  0.30816420982E+02 -0.23276254456E+02  0.40659149099E+02  0.00000000000E+00 0. -1.
         11    1    3    3    0    0 -0.15467763005E+02 -0.17944466343E+02  0.69635933312E+01  0.24693059694E+02  0.51100000000E-03 0. -1.
        -11    1    3    3    0    0 -0.43745900112E+01  0.93626731348E+00  0.41709488236E+01  0.61164081452E+01  0.51100000000E-03 0.  1.
         12    1    3    3    0    0  0.71250191042E+01 -0.13808221952E+02  0.12141712301E+02  0.19719383061E+02  0.00000000000E+00 0. -1.
</event>
<event>
 7    1  0.2969156E-011  0.5052882E+02  0.7816164E-02  0.1300439E+00
        -11   -1    0    0    0    0  0.00000000000E+00  0.00000000000E+00  0.45593999997E+02  0.45594000000E+02  0.51100000000E-03 0.  1.
         11   -1    0    0    0    0 -0.00000000000E+00 -0.00000000000E+00 -0.45593999997E+02  0.45594000000E+02  0.51100000000E-03 0. -1.
    9900012    2    1    2    0    0  0.39545071472E+02 -0.38205563570E+00  0.94451117431E+01  0.50528821699E+02  0.29999884037E+02 0.  0.
         12    1    1    2    0    0 -0.39545071472E+02  0.38205563570E+00 -0.94451117431E+01  0.40659178301E+02  0.00000000000E+00 0. -1.
         11    1    3    3    0    0  0.26233067667E+02  0.56311865776E+01  0.84319139685E+01  0.28124389325E+02  0.51100000000E-03 0. -1.
        -11    1    3    3    0    0  0.17413417172E+02 -0.43014159817E+01  0.86418909781E+00  0.17957619556E+02  0.51100000000E-03 0.  1.
        -12    1    3    3    0    0 -0.41014133668E+01 -0.17118262316E+01  0.14900867683E+00  0.44468128180E+01  0.00000000000E+00 0.  1.
</event>
<event>
 7    1  0.2969156E-011  0.5052899E+02  0.7816164E-02  0.1300438E+00
        -11   -1    0    0    0    0  0.00000000000E+00  0.00000000000E+00  0.45593999997E+02  0.45594000000E+02  0.51100000000E-03 0.  1.
         11   -1    0    0    0    0 -0.00000000000E+00 -0.00000000000E+00 -0.45593999997E+02  0.45594000000E+02  0.51100000000E-03 0. -1.
    9900012    2    1    2    0    0 -0.31083023656E+02  0.10647700490E+02  0.23950509454E+02  0.50528993760E+02  0.30000407029E+02 0.  0.
         12    1    1    2    0    0  0.31083023656E+02 -0.10647700490E+02 -0.23950509454E+02  0.40659006240E+02  0.00000000000E+00 0. -1.
         11    1    3    3    0    0 -0.14216055017E+02  0.11216976421E+02  0.65992444345E+00  0.18120493393E+02  0.51100000000E-03 0.  1.
        -11    1    3    3    0    0  0.17757130198E+01 -0.20280096147E+01  0.21040130814E+00  0.27037471586E+01  0.51100000000E-03 0. -1.
         12    1    3    3    0    0 -0.18642681660E+02  0.14587336834E+01  0.23080183703E+02  0.29704753208E+02  0.00000000000E+00 0. -1.
</event>
<event>
 7    1  0.2969156E-011  0.5052886E+02  0.7816164E-02  0.1300439E+00
        -11   -1    0    0    0    0  0.00000000000E+00  0.00000000000E+00  0.45593999997E+02  0.45594000000E+02  0.51100000000E-03 0. -1.
         11   -1    0    0    0    0 -0.00000000000E+00 -0.00000000000E+00 -0.45593999997E+02  0.45594000000E+02  0.51100000000E-03 0.  1.
    9900012    2    1    2    0    0 -0.15758369944E+02  0.25096565407E+02 -0.27838851579E+02  0.50528862334E+02  0.30000007550E+02 0.  0.
         12    1    1    2    0    0  0.15758369944E+02 -0.25096565407E+02  0.27838851579E+02  0.40659137666E+02  0.00000000000E+00 0. -1.
         11    1    3    3    0    0 -0.27543023865E+01  0.15910734091E+02 -0.91623190625E+01  0.18565713878E+02  0.51100000000E-03 0. -1.
        -11    1    3    3    0    0 -0.74583920075E+01  0.95463191762E+01 -0.22265357832E+02  0.25347701687E+02  0.51100000000E-03 0.  1.
        -12    1    3    3    0    0 -0.55456755501E+01 -0.36048786057E+00  0.35888253154E+01  0.66154467686E+01  0.00000000000E+00 0.  1.
</event>
<event>
 7    1  0.2969156E-011  0.5052886E+02  0.7816164E-02  0.1300439E+00
        -11   -1    0    0    0    0  0.00000000000E+00  0.00000000000E+00  0.45593999997E+02  0.45594000000E+02  0.51100000000E-03 0. -1.
         11   -1    0    0    0    0 -0.00000000000E+00 -0.00000000000E+00 -0.45593999997E+02  0.45594000000E+02  0.51100000000E-03 0.  1.
    9900012    2    1    2    0    0  0.16965693918E+02 -0.36714269450E+02  0.41705240297E+01  0.50528860535E+02  0.30000002083E+02 0.  0.
         12    1    1    2    0    0 -0.16965693918E+02  0.36714269450E+02 -0.41705240297E+01  0.40659139465E+02  0.00000000000E+00 0. -1.
         11    1    3    3    0    0 -0.65995203149E+01 -0.12922042087E+02 -0.28245709679E+01  0.14782118979E+02  0.51100000000E-03 0. -1.
        -11    1    3    3    0    0  0.48387464410E+01 -0.11558084130E+02  0.89879205990E+00  0.12562269035E+02  0.51100000000E-03 0.  1.
         12    1    3    3    0    0  0.18726467792E+02 -0.12234143233E+02  0.60963029376E+01  0.23184472522E+02  0.00000000000E+00 0. -1.
</event>
<event>
 7    1  0.2969156E-011  0.5052886E+02  0.7816164E-02  0.1300439E+00
        -11   -1    0    0    0    0  0.00000000000E+00  0.00000000000E+00  0.45593999997E+02  0.45594000000E+02  0.51100000000E-03 0. -1.
         11   -1    0    0    0    0 -0.00000000000E+00 -0.00000000000E+00 -0.45593999997E+02  0.45594000000E+02  0.51100000000E-03 0.  1.
    9900012    2    1    2    0    0 -0.19036910966E+02 -0.35604377576E+02 -0.48052295250E+01  0.50528856963E+02  0.29999991226E+02 0.  0.
         12    1    1    2    0    0  0.19036910966E+02  0.35604377576E+02  0.48052295250E+01  0.40659143037E+02  0.00000000000E+00 0. -1.
         11    1    3    3    0    0 -0.93836940551E+01 -0.26768698531E+01  0.58972459071E+01  0.11401616371E+02  0.51100000000E-03 0. -1.
        -11    1    3    3    0    0  0.22483659912E+00 -0.11209844434E+02  0.30095945230E+01  0.11608997509E+02  0.51100000000E-03 0.  1.
        -12    1    3    3    0    0 -0.98780535102E+01 -0.21717663289E+02 -0.13712069955E+02  0.27518243082E+02  0.00000000000E+00 0.  1.
</event>
<event>
 7    1  0.2969156E-011  0.5052886E+02  0.7816164E-02  0.1300439E+00
        -11   -1    0    0    0    0  0.00000000000E+00  0.00000000000E+00  0.45593999997E+02  0.45594000000E+02  0.51100000000E-03 0. -1.
         11   -1    0    0    0    0 -0.00000000000E+00 -0.00000000000E+00 -0.45593999997E+02  0.45594000000E+02  0.51100000000E-03 0.  1.
    9900012    2    1    2    0    0  0.24006780926E+02  0.32425285006E+02  0.50439172937E+01  0.50528859086E+02  0.29999997679E+02 0.  0.
         12    1    1    2    0    0 -0.24006780926E+02 -0.32425285006E+02 -0.50439172937E+01  0.40659140914E+02  0.00000000000E+00 0. -1.
         11    1    3    3    0    0  0.18723099092E+02  0.44383916543E+01  0.10954302647E+01  0.19273134873E+02  0.51100000000E-03 0. -1.
        -11    1    3    3    0    0  0.86573324898E+01  0.20453454310E+02  0.25237268634E+00  0.22211638644E+02  0.51100000000E-03 0.  1.
        -12    1    3    3    0    0 -0.33736506558E+01  0.75334390422E+01  0.36961143426E+01  0.90440855692E+01  0.00000000000E+00 0.  1.
</event>
<event>
 7    1  0.2969156E-011  0.5052889E+02  0.7816164E-02  0.1300439E+00
        -11   -1    0    0    0    0  0.00000000000E+00  0.00000000000E+00  0.45593999997E+02  0.45594000000E+02  0.51100000000E-03 0. -1.
         11   -1    0    0    0    0 -0.00000000000E+00 -0.00000000000E+00 -0.45593999997E+02  0.45594000000E+02  0.51100000000E-03 0.  1.
    9900012    2    1    2    0    0 -0.36813827374E+02  0.12534696040E+02 -0.11865346401E+02  0.50528893566E+02  0.30000102484E+02 0.  0.
         12    1    1    2    0    0  0.36813827374E+02 -0.12534696040E+02  0.11865346401E+02  0.40659106434E+02  0.00000000000E+00 0. -1.
         11    1    3    3    0    0  0.24082207390E+01 -0.19939777507E+01  0.12151836167E+01  0.33544218401E+01  0.51100000000E-03 0. -1.
        -11    1    3    3    0    0 -0.68827274358E+01  0.24668567415E+01 -0.10185184921E+02  0.12537755432E+02  0.51100000000E-03 0.  1.
        -12    1    3    3    0    0 -0.32339320678E+02  0.12061817049E+02 -0.28953450965E+01  0.34636716294E+02  0.00000000000E+00 0.  1.
</event>
<event>
 7    1  0.2969156E-011  0.5052886E+02  0.7816164E-02  0.1300439E+00
        -11   -1    0    0    0    0  0.00000000000E+00  0.00000000000E+00  0.45593999997E+02  0.45594000000E+02  0.51100000000E-03 0. -1.
         11   -1    0    0    0    0 -0.00000000000E+00 -0.00000000000E+00 -0.45593999997E+02  0.45594000000E+02  0.51100000000E-03 0.  1.
    9900012    2    1    2    0    0 -0.19269039575E+02 -0.45181825670E+01 -0.35516982649E+02  0.50528856916E+02  0.29999991082E+02 0.  0.
         12    1    1    2    0    0  0.19269039575E+02  0.45181825670E+01  0.35516982649E+02  0.40659143084E+02  0.00000000000E+00 0. -1.
         11    1    3    3    0    0  0.17791400601E+01 -0.71020325354E+00 -0.17117891931E+02  0.17224748255E+02  0.51100000000E-03 0. -1.
        -11    1    3    3    0    0  0.17332733554E+01  0.14846804821E+01 -0.68493536770E+01  0.72195677649E+01  0.51100000000E-03 0.  1.
        -12    1    3    3    0    0 -0.22781452991E+02 -0.52926597955E+01 -0.11549737040E+02  0.26084540896E+02  0.00000000000E+00 0.  1.
</event>
<event>
 7    1  0.3309509E-011  0.5052886E+02  0.7816164E-02  0.1300439E+00
        -11   -1    0    0    0    0  0.00000000000E+00  0.00000000000E+00  0.45593999997E+02  0.45594000000E+02  0.51100000000E-03 0. -1.
         11   -1    0    0    0    0 -0.00000000000E+00 -0.00000000000E+00 -0.45593999997E+02  0.45594000000E+02  0.51100000000E-03 0.  1.
    9900012    2    1    2    0    0  0.17508803319E+02 -0.19419174302E+02 -0.31136841388E+02  0.50528863071E+02  0.30000009790E+02 0.  0.
         12    1    1    2    0    0 -0.17508803319E+02  0.19419174302E+02  0.31136841388E+02  0.40659136929E+02  0.00000000000E+00 0. -1.
         11    1    3    3    0    0  0.24566964086E+01 -0.74234241001E+00  0.33227983511E+01  0.41985019520E+01  0.51100000000E-03 0. -1.
        -11    1    3    3    0    0  0.16531367067E+02 -0.50846003393E+01 -0.19321292369E+02  0.25931671693E+02  0.51100000000E-03 0.  1.
         12    1    3    3    0    0 -0.14792601574E+01 -0.13592231552E+02 -0.15138347370E+02  0.20398689426E+02  0.00000000000E+00 0. -1.
</event>
<event>
 7    1  0.2969156E-011  0.5052894E+02  0.7816164E-02  0.1300439E+00
        -11   -1    0    0    0    0  0.00000000000E+00  0.00000000000E+00  0.45593999997E+02  0.45594000000E+02  0.51100000000E-03 0. -1.
         11   -1    0    0    0    0 -0.00000000000E+00 -0.00000000000E+00 -0.45593999997E+02  0.45594000000E+02  0.51100000000E-03 0.  1.
    9900012    2    1    2    0    0  0.18656032297E+02 -0.13018748669E+02 -0.33699017388E+02  0.50528940359E+02  0.30000244714E+02 0.  0.
         12    1    1    2    0    0 -0.18656032297E+02  0.13018748669E+02  0.33699017388E+02  0.40659059641E+02  0.00000000000E+00 0. -1.
         11    1    3    3    0    0  0.29450839322E+01 -0.11993266335E+02 -0.17391393574E+02  0.21330085031E+02  0.51100000000E-03 0. -1.
        -11    1    3    3    0    0  0.94167409038E+01 -0.29316359553E+01 -0.19527241976E+02  0.21876532588E+02  0.51100000000E-03 0.  1.
         12    1    3    3    0    0  0.62942074609E+01  0.19061536214E+01  0.32196181619E+01  0.73223227392E+01  0.00000000000E+00 0. -1.
</event>
<event>
 7    1  0.2969156E-011  0.5052887E+02  0.7816164E-02  0.1300439E+00
        -11   -1    0    0    0    0  0.00000000000E+00  0.00000000000E+00  0.45593999997E+02  0.45594000000E+02  0.51100000000E-03 0. -1.
         11   -1    0    0    0    0 -0.00000000000E+00 -0.00000000000E+00 -0.45593999997E+02  0.45594000000E+02  0.51100000000E-03 0.  1.
    9900012    2    1    2    0    0 -0.31236703817E+02  0.39927203624E+01  0.25719482126E+02  0.50528865208E+02  0.30000016285E+02 0.  0.
         12    1    1    2    0    0  0.31236703817E+02 -0.39927203624E+01 -0.25719482126E+02  0.40659134792E+02  0.00000000000E+00 0. -1.
         11    1    3    3    0    0 -0.27334510643E+02  0.66116382462E+01  0.24854526385E+02  0.37531809369E+02  0.51100000000E-03 0. -1.
        -11    1    3    3    0    0 -0.46534785375E+01  0.28981872270E+01 -0.29711057181E+01  0.62355289391E+01  0.51100000000E-03 0.  1.
        -12    1    3    3    0    0  0.75128536397E+00 -0.55171051107E+01  0.38360614589E+01  0.67615268998E+01  0.00000000000E+00 0.  1.
</event>
<event>
 7    1  0.2969156E-011  0.5052884E+02  0.7816164E-02  0.1300439E+00
        -11   -1    0    0    0    0  0.00000000000E+00  0.00000000000E+00  0.45593999997E+02  0.45594000000E+02  0.51100000000E-03 0.  1.
         11   -1    0    0    0    0 -0.00000000000E+00 -0.00000000000E+00 -0.45593999997E+02  0.45594000000E+02  0.51100000000E-03 0. -1.
    9900012    2    1    2    0    0  0.29154953960E+02 -0.27829402616E+01  0.28203033756E+02  0.50528841008E+02  0.29999942728E+02 0.  0.
         12    1    1    2    0    0 -0.29154953960E+02  0.27829402616E+01 -0.28203033756E+02  0.40659158992E+02  0.00000000000E+00 0. -1.
         11    1    3    3    0    0 -0.37693584821E+01  0.28319005805E+01  0.34483506267E+01  0.58411340140E+01  0.51100000000E-03 0.  1.
        -11    1    3    3    0    0  0.18728974840E+02 -0.64098743080E+01  0.51215981646E+01  0.20447292124E+02  0.51100000000E-03 0. -1.
        -12    1    3    3    0    0  0.14195337602E+02  0.79503346600E+00  0.19633084965E+02  0.24240414870E+02  0.00000000000E+00 0.  1.
</event>
<event>
 7    1  0.2969156E-011  0.5052886E+02  0.7816164E-02  0.1300439E+00
        -11   -1    0    0    0    0  0.00000000000E+00  0.00000000000E+00  0.45593999997E+02  0.45594000000E+02  0.51100000000E-03 0.  1.
         11   -1    0    0    0    0 -0.00000000000E+00 -0.00000000000E+00 -0.45593999997E+02  0.45594000000E+02  0.51100000000E-03 0. -1.
    9900012    2    1    2    0    0 -0.54250637313E+01 -0.34744680616E+02  0.20409354743E+02  0.50528857011E+02  0.29999991369E+02 0.  0.
         12    1    1    2    0    0  0.54250637313E+01  0.34744680616E+02 -0.20409354743E+02  0.40659142989E+02  0.00000000000E+00 0. -1.
         11    1    3    3    0    0 -0.40066814944E+01 -0.29205309353E+01  0.29731385468E+01  0.57812239726E+01  0.51100000000E-03 0. -1.
        -11    1    3    3    0    0  0.16966204743E+00 -0.23806095202E+02  0.24341078157E+02  0.34047717106E+02  0.51100000000E-03 0.  1.
         12    1    3    3    0    0 -0.15880442844E+01 -0.80180544782E+01 -0.69048619604E+01  0.10699915932E+02  0.00000000000E+00 0. -1.
</event>
<event>
 7    1  0.2969156E-011  0.5052885E+02  0.7816164E-02  0.1300439E+00
        -11   -1    0    0    0    0  0.00000000000E+00  0.00000000000E+00  0.45593999997E+02  0.45594000000E+02  0.51100000000E-03 0.  1.
         11   -1    0    0    0    0 -0.00000000000E+00 -0.00000000000E+00 -0.45593999997E+02  0.45594000000E+02  0.51100000000E-03 0. -1.
    9900012    2    1    2    0    0 -0.38571496268E+02 -0.72143363399E+01  0.10647035435E+02  0.50528851746E+02  0.29999975368E+02 0.  0.
         12    1    1    2    0    0  0.38571496268E+02  0.72143363399E+01 -0.10647035435E+02  0.40659148254E+02  0.00000000000E+00 0. -1.
         11    1    3    3    0    0 -0.12513245188E+02 -0.76272379278E+01  0.91364265135E+01  0.17269347215E+02  0.51100000000E-03 0. -1.
        -11    1    3    3    0    0 -0.16212933704E+02 -0.93136479803E+01  0.41935813724E+01  0.19162186279E+02  0.51100000000E-03 0.  1.
        -12    1    3    3    0    0 -0.98453173763E+01  0.97265495682E+01 -0.26829724506E+01  0.14097318253E+02  0.00000000000E+00 0.  1.
</event>
<event>
 7    1  0.2969156E-011  0.5052889E+02  0.7816164E-02  0.1300439E+00
        -11   -1    0    0    0    0  0.00000000000E+00  0.00000000000E+00  0.45593999997E+02  0.45594000000E+02  0.51100000000E-03 0.  1.
         11   -1    0    0    0    0 -0.00000000000E+00 -0.00000000000E+00 -0.45593999997E+02  0.45594000000E+02  0.51100000000E-03 0. -1.
    9900012    2    1    2    0    0 -0.94052305668E+01  0.33260508272E+02  0.21411300007E+02  0.50528886133E+02  0.30000079889E+02 0.  0.
         12    1    1    2    0    0  0.94052305668E+01 -0.33260508272E+02 -0.21411300007E+02  0.40659113867E+02  0.00000000000E+00 0. -1.
         11    1    3    3    0    0  0.38701060030E+01 -0.27346806481E+01  0.29826741278E+00  0.47481746421E+01  0.51100000000E-03 0. -1.
        -11    1    3    3    0    0 -0.58877920439E+01  0.26318837056E+01  0.32403125784E+01  0.72175156986E+01  0.51100000000E-03 0.  1.
        -12    1    3    3    0    0 -0.73875445259E+01  0.33363305214E+02  0.17872720016E+02  0.38563195792E+02  0.00000000000E+00 0.  1.
</event>
<event>
 7    1  0.2969156E-011  0.5052886E+02  0.7816164E-02  0.1300439E+00
        -11   -1    0    0    0    0  0.00000000000E+00  0.00000000000E+00  0.45593999997E+02  0.45594000000E+02  0.51100000000E-03 0.  1.
         11   -1    0    0    0    0 -0.00000000000E+00 -0.00000000000E+00 -0.45593999997E+02  0.45594000000E+02  0.51100000000E-03 0. -1.
    9900012    2    1    2    0    0 -0.74520155012E+01 -0.15376268631E+01  0.39940815877E+02  0.50528860752E+02  0.30000002743E+02 0.  0.
         12    1    1    2    0    0  0.74520155012E+01  0.15376268631E+01 -0.39940815877E+02  0.40659139248E+02  0.00000000000E+00 0. -1.
         11    1    3    3    0    0 -0.65575825450E+01 -0.45041418688E+01 -0.13523633777E+01  0.80695768027E+01  0.51100000000E-03 0. -1.
        -11    1    3    3    0    0 -0.23475952216E+01  0.59817454051E+01  0.24013371103E+02  0.24858287821E+02  0.51100000000E-03 0.  1.
        -12    1    3    3    0    0  0.14531622654E+01 -0.30152303993E+01  0.17279808152E+02  0.17600996128E+02  0.00000000000E+00 0.  1.
</event>
<event>
 7    1  0.2969156E-011  0.5052886E+02  0.7816164E-02  0.1300439E+00
        -11   -1    0    0    0    0  0.00000000000E+00  0.00000000000E+00  0.45593999997E+02  0.45594000000E+02  0.51100000000E-03 0.  1.
         11   -1    0    0    0    0 -0.00000000000E+00 -0.00000000000E+00 -0.45593999997E+02  0.45594000000E+02  0.51100000000E-03 0. -1.
    9900012    2    1    2    0    0  0.24350464172E+02 -0.19883393639E+02  0.25785095396E+02  0.50528860897E+02  0.30000003183E+02 0.  0.
         12    1    1    2    0    0 -0.24350464172E+02  0.19883393639E+02 -0.25785095396E+02  0.40659139103E+02  0.00000000000E+00 0. -1.
         11    1    3    3    0    0  0.44313503102E+01 -0.78157867635E+01 -0.22824908896E+01  0.92700136584E+01  0.51100000000E-03 0. -1.
        -11    1    3    3    0    0  0.14906811274E+01  0.43863000184E+01  0.87395612104E+01  0.98914957659E+01  0.51100000000E-03 0.  1.
         12    1    3    3    0    0  0.18428432735E+02 -0.16453906894E+02  0.19328025075E+02  0.31367351473E+02  0.00000000000E+00 0. -1.
</event>
<event>
 7    1  0.2969156E-011  0.5052886E+02  0.7816164E-02  0.1300439E+00
        -11   -1    0    0    0    0  0.00000000000E+00  0.00000000000E+00  0.45593999997E+02  0.45594000000E+02  0.51100000000E-03 0.  1.
         11   -1    0    0    0    0 -0.00000000000E+00 -0.00000000000E+00 -0.45593999997E+02  0.45594000000E+02  0.51100000000E-03 0. -1.
    9900012    2    1    2    0    0 -0.52349066330E+01  0.22856371171E+02  0.33216672328E+02  0.50528864850E+02  0.30000015199E+02 0.  0.
         12    1    1    2    0    0  0.52349066330E+01 -0.22856371171E+02 -0.33216672328E+02  0.40659135150E+02  0.00000000000E+00 0. -1.
         11    1    3    3    0    0  0.42547126913E+01 -0.26541961957E+01  0.29599017534E+01  0.58230881998E+01  0.51100000000E-03 0. -1.
        -11    1    3    3    0    0  0.32590265937E+01  0.10003429342E+02  0.18926676433E+02  0.21654305207E+02  0.51100000000E-03 0.  1.
         12    1    3    3    0    0 -0.12748645918E+02  0.15507138025E+02  0.11330094142E+02  0.23051471444E+02  0.00000000000E+00 0. -1.
</event>
<event>
 7    1  0.2969156E-011  0.5052886E+02  0.7816164E-02  0.1300439E+00
        -11   -1    0    0    0    0  0.00000000000E+00  0.00000000000E+00  0.45593999997E+02  0.45594000000E+02  0.51100000000E-03 0.  1.
         11   -1    0    0    0    0 -0.00000000000E+00 -0.00000000000E+00 -0.45593999997E+02  0.45594000000E+02  0.51100000000E-03 0. -1.
    9900012    2    1    2    0    0  0.30915944945E+02 -0.26352773696E+02 -0.17033343895E+01  0.50528859805E+02  0.29999999864E+02 0.  0.
         12    1    1    2    0    0 -0.30915944945E+02  0.26352773696E+02  0.17033343895E+01  0.40659140195E+02  0.00000000000E+00 0. -1.
         11    1    3    3    0    0  0.40705576568E+01  0.36149042949E+01 -0.73233862941E+01  0.91251827254E+01  0.51100000000E-03 0. -1.
        -11    1    3    3    0    0  0.64910528975E+01 -0.65158902213E+01  0.47198757631E+01  0.10337689325E+02  0.51100000000E-03 0.  1.
        -12    1    3    3    0    0  0.20354334391E+02 -0.23451787770E+02  0.90017614160E+00  0.31065987755E+02  0.00000000000E+00 0.  1.
</event>
<event>
 7    1  0.2969156E-011  0.5052885E+02  0.7816164E-02  0.1300439E+00
        -11   -1    0    0    0    0  0.00000000000E+00  0.00000000000E+00  0.45593999997E+02  0.45594000000E+02  0.51100000000E-03 0.  1.
         11   -1    0    0    0    0 -0.00000000000E+00 -0.00000000000E+00 -0.45593999997E+02  0.45594000000E+02  0.51100000000E-03 0. -1.
    9900012    2    1    2    0    0 -0.11102603796E+02  0.38688936649E+02  0.57501881233E+01  0.50528852277E+02  0.29999976983E+02 0.  0.
         12    1    1    2    0    0  0.11102603796E+02 -0.38688936649E+02 -0.57501881233E+01  0.40659147723E+02  0.00000000000E+00 0. -1.
         11    1    3    3    0    0  0.51945015727E+01  0.20518265305E+01  0.42123523500E+01  0.69954807756E+01  0.51100000000E-03 0. -1.
        -11    1    3    3    0    0 -0.21807811463E+01  0.58435474101E+01 -0.61907263709E+01  0.87879432180E+01  0.51100000000E-03 0.  1.
        -12    1    3    3    0    0 -0.14116324222E+02  0.30793562708E+02  0.77285621442E+01  0.34745428284E+02  0.00000000000E+00 0.  1.
</event>
<event>
 7    1  0.2969156E-011  0.5052886E+02  0.7816164E-02  0.1300439E+00
        -11   -1    0    0    0    0  0.00000000000E+00  0.00000000000E+00  0.45593999997E+02  0.45594000000E+02  0.51100000000E-03 0.  1.
         11   -1    0    0    0    0 -0.00000000000E+00 -0.00000000000E+00 -0.45593999997E+02  0.45594000000E+02  0.51100000000E-03 0. -1.
    9900012    2    1    2    0    0  0.22092680708E+02  0.30154553065E+02 -0.15993182495E+02  0.50528862063E+02  0.30000006728E+02 0.  0.
         12    1    1    2    0    0 -0.22092680708E+02 -0.30154553065E+02  0.15993182495E+02  0.40659137937E+02  0.00000000000E+00 0. -1.
         11    1    3    3    0    0 -0.11140806181E+01  0.14484993572E+02 -0.50336669373E+01  0.15375110324E+02  0.51100000000E-03 0. -1.
        -11    1    3    3    0    0  0.56337816128E+01  0.68486395027E+01 -0.12616557597E+02  0.15421442350E+02  0.51100000000E-03 0.  1.
        -12    1    3    3    0    0  0.17572979713E+02  0.88209199909E+01  0.16570420397E+01  0.19732309389E+02  0.00000000000E+00 0.  1.
</event>
<event>
 7    1  0.2969156E-011  0.5052887E+02  0.7816164E-02  0.1300439E+00
        -11   -1    0    0    0    0  0.00000000000E+00  0.00000000000E+00  0.45593999997E+02  0.45594000000E+02  0.51100000000E-03 0.  1.
         11   -1    0    0    0    0 -0.00000000000E+00 -0.00000000000E+00 -0.45593999997E+02  0.45594000000E+02  0.51100000000E-03 0. -1.
    9900012    2    1    2    0    0 -0.61758895602E+01 -0.16130815136E+02  0.36807878871E+02  0.50528871188E+02  0.30000034462E+02 0.  0.
         12    1    1    2    0    0  0.61758895602E+01  0.16130815136E+02 -0.36807878871E+02  0.40659128812E+02  0.00000000000E+00 0. -1.
         11    1    3    3    0    0 -0.92843129461E+01  0.10213513880E+01  0.32776679874E+01  0.98987238185E+01  0.51100000000E-03 0. -1.
        -11    1    3    3    0    0 -0.98646644965E+00 -0.22646865187E+00  0.15609094582E+02  0.15641874505E+02  0.51100000000E-03 0.  1.
        -12    1    3    3    0    0  0.40948898356E+01 -0.16925697873E+02  0.17921116302E+02  0.24988272864E+02  0.00000000000E+00 0.  1.
</event>
<event>
 7    1  0.2969156E-011  0.5052886E+02  0.7816164E-02  0.1300439E+00
        -11   -1    0    0    0    0  0.00000000000E+00  0.00000000000E+00  0.45593999997E+02  0.45594000000E+02  0.51100000000E-03 0.  1.
         11   -1    0    0    0    0 -0.00000000000E+00 -0.00000000000E+00 -0.45593999997E+02  0.45594000000E+02  0.51100000000E-03 0. -1.
    9900012    2    1    2    0    0  0.22817598667E+02 -0.21758097547E+02  0.25673100035E+02  0.50528859783E+02  0.29999999797E+02 0.  0.
         12    1    1    2    0    0 -0.22817598667E+02  0.21758097547E+02 -0.25673100035E+02  0.40659140217E+02  0.00000000000E+00 0. -1.
         11    1    3    3    0    0  0.56800102679E+01  0.19013452091E+01  0.30548789395E+01  0.67238319316E+01  0.51100000000E-03 0. -1.
        -11    1    3    3    0    0  0.22501603073E+02 -0.14717114634E+02  0.18269830151E+02  0.32506957687E+02  0.51100000000E-03 0.  1.
         12    1    3    3    0    0 -0.53640146742E+01 -0.89423281214E+01  0.43483909439E+01  0.11298070165E+02  0.00000000000E+00 0. -1.
</event>
<event>
 7    1  0.2969156E-011  0.5052880E+02  0.7816164E-02  0.1300439E+00
        -11   -1    0    0    0    0  0.00000000000E+00  0.00000000000E+00  0.45593999997E+02  0.45594000000E+02  0.51100000000E-03 0.  1.
         11   -1    0    0    0    0 -0.00000000000E+00 -0.00000000000E+00 -0.45593999997E+02  0.45594000000E+02  0.51100000000E-03 0. -1.
    9900012    2    1    2    0    0 -0.36506341148E+01  0.75729960045E+01  0.39780559869E+02  0.50528802499E+02  0.29999825677E+02 0.  0.
         12    1    1    2    0    0  0.36506341148E+01 -0.75729960045E+01 -0.39780559869E+02  0.40659197501E+02  0.00000000000E+00 0. -1.
         11    1    3    3    0    0  0.40267729053E+01 -0.30645289206E+01  0.83749092839E+01  0.97849549468E+01  0.51100000000E-03 0. -1.
        -11    1    3    3    0    0  0.92944361249E+00  0.71919412637E+01 -0.73868700476E+00  0.72892759120E+01  0.51100000000E-03 0.  1.
        -12    1    3    3    0    0 -0.86068506327E+01  0.34455836614E+01  0.32144337590E+02  0.33454571641E+02  0.00000000000E+00 0.  1.
</event>
<event>
 7    1  0.2969156E-011  0.5052897E+02  0.7816164E-02  0.1300438E+00
        -11   -1    0    0    0    0  0.00000000000E+00  0.00000000000E+00  0.45593999997E+02  0.45594000000E+02  0.51100000000E-03 0.  1.
         11   -1    0    0    0    0 -0.00000000000E+00 -0.00000000000E+00 -0.45593999997E+02  0.45594000000E+02  0.51100000000E-03 0. -1.
    9900012    2    1    2    0    0  0.84993349760E+01  0.21210643222E+02  0.33630740245E+02  0.50528969387E+02  0.30000332947E+02 0.  0.
         12    1    1    2    0    0 -0.84993349760E+01 -0.21210643222E+02 -0.33630740245E+02  0.40659030613E+02  0.00000000000E+00 0. -1.
         11    1    3    3    0    0  0.16336956103E+02  0.70161919655E+01  0.18779507999E+02  0.25861032566E+02  0.51100000000E-03 0. -1.
        -11    1    3    3    0    0 -0.32980633366E+00  0.90446777610E+01  0.26237842860E+01  0.94233333942E+01  0.51100000000E-03 0.  1.
        -12    1    3    3    0    0 -0.75078147937E+01  0.51497734959E+01  0.12227447960E+02  0.15244603427E+02  0.00000000000E+00 0.  1.
</event>
<event>
 7    1  0.2969156E-011  0.5052886E+02  0.7816164E-02  0.1300439E+00
        -11   -1    0    0    0    0  0.00000000000E+00  0.00000000000E+00  0.45593999997E+02  0.45594000000E+02  0.51100000000E-03 0. -1.
         11   -1    0    0    0    0 -0.00000000000E+00 -0.00000000000E+00 -0.45593999997E+02  0.45594000000E+02  0.51100000000E-03 0.  1.
    9900012    2    1    2    0    0 -0.14520508669E+02 -0.31300197773E+02 -0.21508556142E+02  0.50528861545E+02  0.30000005152E+02 0.  0.
         12    1    1    2    0    0  0.14520508669E+02  0.31300197773E+02  0.21508556142E+02  0.40659138455E+02  0.00000000000E+00 0. -1.
         11    1    3    3    0    0 -0.11274346501E+02 -0.80265169642E+01 -0.45975027059E+01  0.14583308781E+02  0.51100000000E-03 0. -1.
        -11    1    3    3    0    0 -0.96578812888E+01 -0.65465047613E+01 -0.54341572038E+00  0.11680183923E+02  0.51100000000E-03 0.  1.
         12    1    3    3    0    0  0.64117191207E+01 -0.16727176047E+02 -0.16367637715E+02  0.24265368841E+02  0.00000000000E+00 0. -1.
</event>
<event>
 7    1  0.2969156E-011  0.5052884E+02  0.7816164E-02  0.1300439E+00
        -11   -1    0    0    0    0  0.00000000000E+00  0.00000000000E+00  0.45593999997E+02  0.45594000000E+02  0.51100000000E-03 0.  1.
         11   -1    0    0    0    0 -0.00000000000E+00 -0.00000000000E+00 -0.45593999997E+02  0.45594000000E+02  0.51100000000E-03 0. -1.
    9900012    2    1    2    0    0  0.16806115053E+02 -0.23828614444E+02  0.28335828087E+02  0.50528837160E+02  0.29999931032E+02 0.  0.
         12    1    1    2    0    0 -0.16806115053E+02  0.23828614444E+02 -0.28335828087E+02  0.40659162840E+02  0.00000000000E+00 0. -1.
         11    1    3    3    0    0 -0.33873326288E+01  0.11596032480E+01 -0.37761545096E+00  0.36001799568E+01  0.51100000000E-03 0. -1.
        -11    1    3    3    0    0 -0.15468774580E+01  0.17837664839E+01  0.60468096667E+00  0.24372714399E+01  0.51100000000E-03 0.  1.
        -12    1    3    3    0    0  0.21740325139E+02 -0.26771984175E+02  0.28108762571E+02  0.44491385763E+02  0.00000000000E+00 0.  1.
</event>
<event>
 7    1  0.2969156E-011  0.5052886E+02  0.7816164E-02  0.1300439E+00
        -11   -1    0    0    0    0  0.00000000000E+00  0.00000000000E+00  0.45593999997E+02  0.45594000000E+02  0.51100000000E-03 0.  1.
         11   -1    0    0    0    0 -0.00000000000E+00 -0.00000000000E+00 -0.45593999997E+02  0.45594000000E+02  0.51100000000E-03 0. -1.
    9900012    2    1    2    0    0  0.25059131721E+02  0.15064656429E+02  0.28253520382E+02  0.50528863635E+02  0.30000011506E+02 0.  0.
         12    1    1    2    0    0 -0.25059131721E+02 -0.15064656429E+02 -0.28253520382E+02  0.40659136365E+02  0.00000000000E+00 0. -1.
         11    1    3    3    0    0 -0.50870610949E+00  0.78574182130E+01  0.39200385986E+00  0.78836203718E+01  0.51100000000E-03 0. -1.
        -11    1    3    3    0    0  0.17581769988E+02  0.13326575104E+02  0.21068435289E+02  0.30505658585E+02  0.51100000000E-03 0.  1.
         12    1    3    3    0    0  0.79860678423E+01 -0.61193368877E+01  0.67930812332E+01  0.12139584679E+02  0.00000000000E+00 0. -1.
</event>
<event>
 7    1  0.2969156E-011  0.5052887E+02  0.7816164E-02  0.1300439E+00
        -11   -1    0    0    0    0  0.00000000000E+00  0.00000000000E+00  0.45593999997E+02  0.45594000000E+02  0.51100000000E-03 0.  1.
         11   -1    0    0    0    0 -0.00000000000E+00 -0.00000000000E+00 -0.45593999997E+02  0.45594000000E+02  0.51100000000E-03 0. -1.
    9900012    2    1    2    0    0 -0.20811719570E+02  0.51194192483E+00  0.34925275418E+02  0.50528872870E+02  0.30000039575E+02 0.  0.
         12    1    1    2    0    0  0.20811719570E+02 -0.51194192483E+00 -0.34925275418E+02  0.40659127130E+02  0.00000000000E+00 0. -1.
         11    1    3    3    0    0 -0.10172645424E+02  0.66620064579E+01  0.18113848820E+01  0.12294151472E+02  0.51100000000E-03 0. -1.
        -11    1    3    3    0    0 -0.65981732267E+01  0.43196229414E+01  0.14126799364E+02  0.16179044868E+02  0.51100000000E-03 0.  1.
         12    1    3    3    0    0 -0.40409009198E+01 -0.10469687475E+02  0.18987091171E+02  0.22055676530E+02  0.00000000000E+00 0. -1.
</event>
<event>
 7    1  0.2969156E-011  0.5052887E+02  0.7816164E-02  0.1300439E+00
        -11   -1    0    0    0    0  0.00000000000E+00  0.00000000000E+00  0.45593999997E+02  0.45594000000E+02  0.51100000000E-03 0.  1.
         11   -1    0    0    0    0 -0.00000000000E+00 -0.00000000000E+00 -0.45593999997E+02  0.45594000000E+02  0.51100000000E-03 0. -1.
    9900012    2    1    2    0    0 -0.53387730102E+01 -0.21819018928E+02  0.33890898358E+02  0.50528867253E+02  0.30000022502E+02 0.  0.
         12    1    1    2    0    0  0.53387730102E+01  0.21819018928E+02 -0.33890898358E+02  0.40659132747E+02  0.00000000000E+00 0. -1.
         11    1    3    3    0    0  0.53397366470E+01 -0.93282575117E+01  0.49130459321E+01  0.11818087673E+02  0.51100000000E-03 0.  1.
        -11    1    3    3    0    0 -0.49479079905E+01  0.45773052546E+01  0.37383888136E+01  0.77077278143E+01  0.51100000000E-03 0. -1.
        -12    1    3    3    0    0 -0.57306016666E+01 -0.17068066670E+02  0.25239463612E+02  0.31003051765E+02  0.00000000000E+00 0.  1.
</event>
<event>
 7    1  0.2969156E-011  0.5052886E+02  0.7816164E-02  0.1300439E+00
        -11   -1    0    0    0    0  0.00000000000E+00  0.00000000000E+00  0.45593999997E+02  0.45594000000E+02  0.51100000000E-03 0.  1.
         11   -1    0    0    0    0 -0.00000000000E+00 -0.00000000000E+00 -0.45593999997E+02  0.45594000000E+02  0.51100000000E-03 0. -1.
    9900012    2    1    2    0    0 -0.56204749901E+01  0.35650997520E+02  0.18723850546E+02  0.50528856593E+02  0.29999990101E+02 0.  0.
         12    1    1    2    0    0  0.56204749901E+01 -0.35650997520E+02 -0.18723850546E+02  0.40659143407E+02  0.00000000000E+00 0. -1.
         11    1    3    3    0    0 -0.20428059104E+01  0.27408737606E+02 -0.87255627411E+00  0.27498605562E+02  0.51100000000E-03 0. -1.
        -11    1    3    3    0    0 -0.20383458333E+01  0.12006585426E+01  0.24293501695E+00  0.23781194998E+01  0.51100000000E-03 0.  1.
        -12    1    3    3    0    0 -0.15393232463E+01  0.70416013713E+01  0.19353471803E+02  0.20652131531E+02  0.00000000000E+00 0.  1.
</event>
<event>
 7    1  0.2969156E-011  0.5052883E+02  0.7816164E-02  0.1300439E+00
        -11   -1    0    0    0    0  0.00000000000E+00  0.00000000000E+00  0.45593999997E+02  0.45594000000E+02  0.51100000000E-03 0. -1.
         11   -1    0    0    0    0 -0.00000000000E+00 -0.00000000000E+00 -0.45593999997E+02  0.45594000000E+02  0.51100000000E-03 0.  1.
    9900012    2    1    2    0    0 -0.36933378630E+02  0.15336601169E+02 -0.73404331333E+01  0.50528834354E+02  0.29999922503E+02 0.  0.
         12    1    1    2    0    0  0.36933378630E+02 -0.15336601169E+02  0.73404331333E+01  0.40659165646E+02  0.00000000000E+00 0. -1.
         11    1    3    3    0    0 -0.35322597079E+01  0.90235706126E+01  0.40534140704E-01  0.96903729815E+01  0.51100000000E-03 0. -1.
        -11    1    3    3    0    0 -0.19347843691E+02  0.68270064923E+01  0.60520377977E+01  0.21390984898E+02  0.51100000000E-03 0.  1.
        -12    1    3    3    0    0 -0.14053275230E+02 -0.51397593606E+00 -0.13433005072E+02  0.19447476474E+02  0.00000000000E+00 0.  1.
</event>
<event>
 7    1  0.4756579E-011  0.5052887E+02  0.7816164E-02  0.1300439E+00
        -11   -1    0    0    0    0  0.00000000000E+00  0.00000000000E+00  0.45593999997E+02  0.45594000000E+02  0.51100000000E-03 0. -1.
         11   -1    0    0    0    0 -0.00000000000E+00 -0.00000000000E+00 -0.45593999997E+02  0.45594000000E+02  0.51100000000E-03 0.  1.
    9900012    2    1    2    0    0  0.26813464616E+02 -0.11421070647E+02 -0.28350705719E+02  0.50528865059E+02  0.30000015833E+02 0.  0.
         12    1    1    2    0    0 -0.26813464616E+02  0.11421070647E+02  0.28350705719E+02  0.40659134941E+02  0.00000000000E+00 0. -1.
         11    1    3    3    0    0  0.48369232308E+00  0.35028231810E+01  0.58781712947E+00  0.35845861322E+01  0.51100000000E-03 0. -1.
        -11    1    3    3    0    0  0.71790812332E+00 -0.10873346131E+02 -0.10448566909E+02  0.15096940050E+02  0.51100000000E-03 0.  1.
        -12    1    3    3    0    0  0.25611864170E+02 -0.40505476963E+01 -0.18489955939E+02  0.31847338876E+02  0.00000000000E+00 0.  1.
</event>
<event>
 7    1  0.2969156E-011  0.5052886E+02  0.7816164E-02  0.1300439E+00
        -11   -1    0    0    0    0  0.00000000000E+00  0.00000000000E+00  0.45593999997E+02  0.45594000000E+02  0.51100000000E-03 0. -1.
         11   -1    0    0    0    0 -0.00000000000E+00 -0.00000000000E+00 -0.45593999997E+02  0.45594000000E+02  0.51100000000E-03 0.  1.
    9900012    2    1    2    0    0 -0.13317757931E+02  0.36038999020E+02 -0.13303902658E+02  0.50528856469E+02  0.29999989724E+02 0.  0.
         12    1    1    2    0    0  0.13317757931E+02 -0.36038999020E+02  0.13303902658E+02  0.40659143531E+02  0.00000000000E+00 0. -1.
         11    1    3    3    0    0 -0.14361540751E+02  0.27823689803E+02 -0.25655879079E+01  0.31416457607E+02  0.51100000000E-03 0.  1.
        -11    1    3    3    0    0  0.61106024103E+01  0.84520133670E+01 -0.53852213347E+01  0.11737827774E+02  0.51100000000E-03 0. -1.
        -12    1    3    3    0    0 -0.50668195905E+01 -0.23670414940E+00 -0.53530934158E+01  0.73745710882E+01  0.00000000000E+00 0.  1.
</event>
<event>
 7    1  0.3361582E-011  0.5052885E+02  0.7816164E-02  0.1300439E+00
        -11   -1    0    0    0    0  0.00000000000E+00  0.00000000000E+00  0.45593999997E+02  0.45594000000E+02  0.51100000000E-03 0.  1.
         11   -1    0    0    0    0 -0.00000000000E+00 -0.00000000000E+00 -0.45593999997E+02  0.45594000000E+02  0.51100000000E-03 0. -1.
    9900012    2    1    2    0    0  0.18414416234E+02 -0.14547156773E+02  0.33203256788E+02  0.50528846580E+02  0.29999959666E+02 0.  0.
         12    1    1    2    0    0 -0.18414416234E+02  0.14547156773E+02 -0.33203256788E+02  0.40659153420E+02  0.00000000000E+00 0. -1.
         11    1    3    3    0    0  0.51472085219E+01  0.10079653114E+01 -0.12596216079E+01  0.53941075715E+01  0.51100000000E-03 0. -1.
        -11    1    3    3    0    0  0.12402068050E+01 -0.10303977211E+02  0.26352376928E+01  0.10707685896E+02  0.51100000000E-03 0.  1.
        -12    1    3    3    0    0  0.12027000908E+02 -0.52511448739E+01  0.31827640704E+02  0.34427053113E+02  0.00000000000E+00 0.  1.
</event>
<event>
 7    1  0.2969156E-011  0.5052885E+02  0.7816164E-02  0.1300439E+00
        -11   -1    0    0    0    0  0.00000000000E+00  0.00000000000E+00  0.45593999997E+02  0.45594000000E+02  0.51100000000E-03 0.  1.
         11   -1    0    0    0    0 -0.00000000000E+00 -0.00000000000E+00 -0.45593999997E+02  0.45594000000E+02  0.51100000000E-03 0. -1.
    9900012    2    1    2    0    0  0.60840099161E+01 -0.19649053970E+02  0.35072295338E+02  0.50528850982E+02  0.29999973045E+02 0.  0.
         12    1    1    2    0    0 -0.60840099161E+01  0.19649053970E+02 -0.35072295338E+02  0.40659149018E+02  0.00000000000E+00 0. -1.
         11    1    3    3    0    0  0.99102202424E+00 -0.32468962864E+01  0.12160354943E+01  0.36059953871E+01  0.51100000000E-03 0. -1.
        -11    1    3    3    0    0  0.81823825581E+01  0.28693846624E+01  0.23019921586E+02  0.24598811816E+02  0.51100000000E-03 0.  1.
        -12    1    3    3    0    0 -0.30893946662E+01 -0.19271542346E+02  0.10836338258E+02  0.22324043779E+02  0.00000000000E+00 0.  1.
</event>
<event>
 7    1  0.2969156E-011  0.5052886E+02  0.7816164E-02  0.1300439E+00
        -11   -1    0    0    0    0  0.00000000000E+00  0.00000000000E+00  0.45593999997E+02  0.45594000000E+02  0.51100000000E-03 0.  1.
         11   -1    0    0    0    0 -0.00000000000E+00 -0.00000000000E+00 -0.45593999997E+02  0.45594000000E+02  0.51100000000E-03 0. -1.
    9900012    2    1    2    0    0 -0.14340022590E+02  0.24713929866E+02  0.28926654318E+02  0.50528857026E+02  0.29999991417E+02 0.  0.
         12    1    1    2    0    0  0.14340022590E+02 -0.24713929866E+02 -0.28926654318E+02  0.40659142974E+02  0.00000000000E+00 0. -1.
         11    1    3    3    0    0 -0.35018531746E+01  0.10686767884E+02  0.12205211444E+02  0.16596299893E+02  0.51100000000E-03 0. -1.
        -11    1    3    3    0    0 -0.37484679188E+01 -0.38039605802E+01  0.13443875364E+02  0.14465784213E+02  0.51100000000E-03 0.  1.
         12    1    3    3    0    0 -0.70897014965E+01  0.17831122562E+02  0.32775675094E+01  0.19466772920E+02  0.00000000000E+00 0. -1.
</event>
<event>
 7    1  0.2969156E-011  0.5052886E+02  0.7816164E-02  0.1300439E+00
        -11   -1    0    0    0    0  0.00000000000E+00  0.00000000000E+00  0.45593999997E+02  0.45594000000E+02  0.51100000000E-03 0.  1.
         11   -1    0    0    0    0 -0.00000000000E+00 -0.00000000000E+00 -0.45593999997E+02  0.45594000000E+02  0.51100000000E-03 0. -1.
    9900012    2    1    2    0    0  0.72086651484E+01  0.29069674826E+02  0.27498272940E+02  0.50528857579E+02  0.29999993097E+02 0.  0.
         12    1    1    2    0    0 -0.72086651484E+01 -0.29069674826E+02 -0.27498272940E+02  0.40659142421E+02  0.00000000000E+00 0. -1.
         11    1    3    3    0    0  0.35605895655E+01  0.13741289379E+02  0.45212092389E+01  0.14897723487E+02  0.51100000000E-03 0. -1.
        -11    1    3    3    0    0 -0.49271094241E+01  0.17003361208E+02  0.19190297276E+02  0.26108584976E+02  0.51100000000E-03 0.  1.
         12    1    3    3    0    0  0.85751850070E+01 -0.16749757610E+01  0.37867664257E+01  0.95225491161E+01  0.00000000000E+00 0. -1.
</event>
<event>
 7    1  0.2969156E-011  0.5052886E+02  0.7816164E-02  0.1300439E+00
        -11   -1    0    0    0    0  0.00000000000E+00  0.00000000000E+00  0.45593999997E+02  0.45594000000E+02  0.51100000000E-03 0.  1.
         11   -1    0    0    0    0 -0.00000000000E+00 -0.00000000000E+00 -0.45593999997E+02  0.45594000000E+02  0.51100000000E-03 0. -1.
    9900012    2    1    2    0    0  0.25233702072E+02 -0.59700612539E+01  0.31317476428E+02  0.50528859804E+02  0.29999999860E+02 0.  0.
         12    1    1    2    0    0 -0.25233702072E+02  0.59700612539E+01 -0.31317476428E+02  0.40659140196E+02  0.00000000000E+00 0. -1.
         11    1    3    3    0    0  0.18021958754E+01 -0.71101162451E+01  0.48817570893E+01  0.88109713161E+01  0.51100000000E-03 0. -1.
        -11    1    3    3    0    0  0.24372769775E+00  0.98048828747E+00  0.16433147775E+02  0.16464176460E+02  0.51100000000E-03 0.  1.
         12    1    3    3    0    0  0.23187778499E+02  0.15956670379E+00  0.10002571564E+02  0.25253712027E+02  0.00000000000E+00 0. -1.
</event>
<event>
 7    1  0.2969156E-011  0.5052887E+02  0.7816164E-02  0.1300439E+00
        -11   -1    0    0    0    0  0.00000000000E+00  0.00000000000E+00  0.45593999997E+02  0.45594000000E+02  0.51100000000E-03 0.  1.
         11   -1    0    0    0    0 -0.00000000000E+00 -0.00000000000E+00 -0.45593999997E+02  0.45594000000E+02  0.51100000000E-03 0. -1.
    9900012    2    1    2    0    0  0.89607165358E+00 -0.21472529241E+02  0.34515109300E+02  0.50528865400E+02  0.30000016871E+02 0.  0.
         12    1    1    2    0    0 -0.89607165358E+00  0.21472529241E+02 -0.34515109300E+02  0.40659134600E+02  0.00000000000E+00 0. -1.
         11    1    3    3    0    0  0.25124031873E+01 -0.78172394456E+01  0.90654523258E+01  0.12231264385E+02  0.51100000000E-03 0. -1.
        -11    1    3    3    0    0 -0.36730394683E+01 -0.15605493116E+02  0.38169926430E+01  0.16480050589E+02  0.51100000000E-03 0.  1.
         12    1    3    3    0    0  0.20567079345E+01  0.19502033208E+01  0.21632664331E+02  0.21817550426E+02  0.00000000000E+00 0. -1.
</event>
<event>
 7    1  0.2969156E-011  0.5052885E+02  0.7816164E-02  0.1300439E+00
        -11   -1    0    0    0    0  0.00000000000E+00  0.00000000000E+00  0.45593999997E+02  0.45594000000E+02  0.51100000000E-03 0.  1.
         11   -1    0    0    0    0 -0.00000000000E+00 -0.00000000000E+00 -0.45593999997E+02  0.45594000000E+02  0.51100000000E-03 0. -1.
    9900012    2    1    2    0    0 -0.53657722068E+00  0.25334453187E+02  0.31796919123E+02  0.50528849750E+02  0.29999969299E+02 0.  0.
         12    1    1    2    0    0  0.53657722068E+00 -0.25334453187E+02 -0.31796919123E+02  0.40659150250E+02  0.00000000000E+00 0. -1.
         11    1    3    3    0    0 -0.45715079172E+01  0.46259315713E+01  0.16915080141E+02  0.18122302943E+02  0.51100000000E-03 0. -1.
        -11    1    3    3    0    0 -0.48506416011E+01  0.16449219108E+02  0.14642226196E+02  0.22549951695E+02  0.51100000000E-03 0.  1.
         12    1    3    3    0    0  0.88855722976E+01  0.42593025079E+01  0.23961278592E+00  0.98565951118E+01  0.00000000000E+00 0. -1.
</event>
<event>
 7    1  0.2969156E-011  0.5052886E+02  0.7816164E-02  0.1300439E+00
        -11   -1    0    0    0    0  0.00000000000E+00  0.00000000000E+00  0.45593999997E+02  0.45594000000E+02  0.51100000000E-03 0.  1.
         11   -1    0    0    0    0 -0.00000000000E+00 -0.00000000000E+00 -0.45593999997E+02  0.45594000000E+02  0.51100000000E-03 0. -1.
    9900012    2    1    2    0    0  0.19922282618E+02 -0.71965709612E+01  0.34705580488E+02  0.50528864552E+02  0.30000014293E+02 0.  0.
         12    1    1    2    0    0 -0.19922282618E+02  0.71965709612E+01 -0.34705580488E+02  0.40659135448E+02  0.00000000000E+00 0. -1.
         11    1    3    3    0    0  0.16160902041E+02 -0.48037064215E+01  0.10607436821E+02  0.19919037786E+02  0.51100000000E-03 0. -1.
        -11    1    3    3    0    0  0.42087963792E+01 -0.93604461186E+01  0.78371114536E+01  0.12913258098E+02  0.51100000000E-03 0.  1.
         12    1    3    3    0    0 -0.44741580185E+00  0.69675815789E+01  0.16261032214E+02  0.17696568668E+02  0.00000000000E+00 0. -1.
</event>
<event>
 7    1  0.2969156E-011  0.5052886E+02  0.7816164E-02  0.1300439E+00
        -11   -1    0    0    0    0  0.00000000000E+00  0.00000000000E+00  0.45593999997E+02  0.45594000000E+02  0.51100000000E-03 0.  1.
         11   -1    0    0    0    0 -0.00000000000E+00 -0.00000000000E+00 -0.45593999997E+02  0.45594000000E+02  0.51100000000E-03 0. -1.
    9900012    2    1    2    0    0  0.28597347012E+02 -0.27348607553E+02 -0.93493923094E+01  0.50528859235E+02  0.29999998131E+02 0.  0.
         12    1    1    2    0    0 -0.28597347012E+02  0.27348607553E+02  0.93493923094E+01  0.40659140765E+02  0.00000000000E+00 0. -1.
         11    1    3    3    0    0  0.10327118278E+02 -0.32083548877E+01 -0.11919294949E+02  0.16093865458E+02  0.51100000000E-03 0. -1.
        -11    1    3    3    0    0  0.83566569047E+01 -0.19375633599E+02 -0.42063439494E+01  0.21516092156E+02  0.51100000000E-03 0.  1.
         12    1    3    3    0    0  0.99135718291E+01 -0.47646190655E+01  0.67762465895E+01  0.12918901621E+02  0.00000000000E+00 0. -1.
</event>
<event>
 7    1  0.3310277E-011  0.5052885E+02  0.7816164E-02  0.1300439E+00
        -11   -1    0    0    0    0  0.00000000000E+00  0.00000000000E+00  0.45593999997E+02  0.45594000000E+02  0.51100000000E-03 0. -1.
         11   -1    0    0    0    0 -0.00000000000E+00 -0.00000000000E+00 -0.45593999997E+02  0.45594000000E+02  0.51100000000E-03 0.  1.
    9900012    2    1    2    0    0  0.21100695378E+02  0.22198540620E+02 -0.26742326610E+02  0.50528848710E+02  0.29999966139E+02 0.  0.
         12    1    1    2    0    0 -0.21100695378E+02 -0.22198540620E+02  0.26742326610E+02  0.40659151290E+02  0.00000000000E+00 0. -1.
         11    1    3    3    0    0  0.10003481392E+02  0.19238398246E+02 -0.13084079315E+02  0.25325456340E+02  0.51100000000E-03 0.  1.
        -11    1    3    3    0    0  0.13658271594E+02  0.61832538699E+01 -0.14657422735E+02  0.20967142219E+02  0.51100000000E-03 0. -1.
         12    1    3    3    0    0 -0.25610576081E+01 -0.32231114953E+01  0.99917544020E+00  0.42362501512E+01  0.00000000000E+00 0. -1.
</event>
<event>
 7    1  0.2969156E-011  0.5052886E+02  0.7816164E-02  0.1300439E+00
        -11   -1    0    0    0    0  0.00000000000E+00  0.00000000000E+00  0.45593999997E+02  0.45594000000E+02  0.51100000000E-03 0.  1.
         11   -1    0    0    0    0 -0.00000000000E+00 -0.00000000000E+00 -0.45593999997E+02  0.45594000000E+02  0.51100000000E-03 0. -1.
    9900012    2    1    2    0    0 -0.12573556730E+02 -0.30800246342E+02  0.23375544763E+02  0.50528860849E+02  0.30000003036E+02 0.  0.
         12    1    1    2    0    0  0.12573556730E+02  0.30800246342E+02 -0.23375544763E+02  0.40659139151E+02  0.00000000000E+00 0. -1.
         11    1    3    3    0    0 -0.32656466904E+01  0.20424547084E+01  0.62897667552E+01  0.73754481653E+01  0.51100000000E-03 0. -1.
        -11    1    3    3    0    0 -0.63788629803E+01 -0.19306274818E+02  0.20516528960E+02  0.28885119026E+02  0.51100000000E-03 0.  1.
         12    1    3    3    0    0 -0.29290470597E+01 -0.13536426232E+02 -0.34307509527E+01  0.14268293658E+02  0.00000000000E+00 0. -1.
</event>
<event>
 7    1  0.2969156E-011  0.5052887E+02  0.7816164E-02  0.1300439E+00
        -11   -1    0    0    0    0  0.00000000000E+00  0.00000000000E+00  0.45593999997E+02  0.45594000000E+02  0.51100000000E-03 0. -1.
         11   -1    0    0    0    0 -0.00000000000E+00 -0.00000000000E+00 -0.45593999997E+02  0.45594000000E+02  0.51100000000E-03 0.  1.
    9900012    2    1    2    0    0 -0.36595406394E+02  0.10249387362E+02 -0.14453067896E+02  0.50528869635E+02  0.30000029744E+02 0.  0.
         12    1    1    2    0    0  0.36595406394E+02 -0.10249387362E+02  0.14453067896E+02  0.40659130365E+02  0.00000000000E+00 0. -1.
         11    1    3    3    0    0 -0.11619931043E+02 -0.73446137362E+01 -0.65277619092E+01  0.15217681301E+02  0.51100000000E-03 0. -1.
        -11    1    3    3    0    0 -0.14969258367E+01  0.93579194917E+01 -0.30606525215E+01  0.99588673197E+01  0.51100000000E-03 0.  1.
        -12    1    3    3    0    0 -0.23478549514E+02  0.82360816061E+01 -0.48646534652E+01  0.25352321015E+02  0.00000000000E+00 0.  1.
</event>
<event>
 7    1  0.2969156E-011  0.5052888E+02  0.7816164E-02  0.1300439E+00
        -11   -1    0    0    0    0  0.00000000000E+00  0.00000000000E+00  0.45593999997E+02  0.45594000000E+02  0.51100000000E-03 0.  1.
         11   -1    0    0    0    0 -0.00000000000E+00 -0.00000000000E+00 -0.45593999997E+02  0.45594000000E+02  0.51100000000E-03 0. -1.
    9900012    2    1    2    0    0 -0.85649928016E+01  0.29965083176E+01  0.39633648973E+02  0.50528876858E+02  0.30000051697E+02 0.  0.
         12    1    1    2    0    0  0.85649928016E+01 -0.29965083176E+01 -0.39633648973E+02  0.40659123142E+02  0.00000000000E+00 0. -1.
         11    1    3    3    0    0 -0.23425722893E+01  0.58890164480E+01 -0.13601513063E+01  0.64821425080E+01  0.51100000000E-03 0. -1.
        -11    1    3    3    0    0  0.15444283975E+01 -0.47418477749E+01  0.45902997903E+01  0.67779961509E+01  0.51100000000E-03 0.  1.
        -12    1    3    3    0    0 -0.77668489097E+01  0.18493396445E+01  0.36403500489E+02  0.37268738199E+02  0.00000000000E+00 0.  1.
</event>
<event>
 7    1  0.2969156E-011  0.5052885E+02  0.7816164E-02  0.1300439E+00
        -11   -1    0    0    0    0  0.00000000000E+00  0.00000000000E+00  0.45593999997E+02  0.45594000000E+02  0.51100000000E-03 0. -1.
         11   -1    0    0    0    0 -0.00000000000E+00 -0.00000000000E+00 -0.45593999997E+02  0.45594000000E+02  0.51100000000E-03 0.  1.
    9900012    2    1    2    0    0  0.37910594567E+02  0.59715628299E+01  0.13427353850E+02  0.50528848822E+02  0.29999966480E+02 0.  0.
         12    1    1    2    0    0 -0.37910594567E+02 -0.59715628299E+01 -0.13427353850E+02  0.40659151178E+02  0.00000000000E+00 0. -1.
         11    1    3    3    0    0  0.34128549762E+01  0.54542350090E+01  0.63891639112E+01  0.90673962286E+01  0.51100000000E-03 0. -1.
        -11    1    3    3    0    0  0.14299219034E+02 -0.10565529907E+02  0.21429825015E+01  0.17907832406E+02  0.51100000000E-03 0.  1.
         12    1    3    3    0    0  0.20198520557E+02  0.11082857728E+02  0.48952074368E+01  0.23553620188E+02  0.00000000000E+00 0. -1.
</event>
<event>
 7    1  0.2969156E-011  0.5052887E+02  0.7816164E-02  0.1300439E+00
        -11   -1    0    0    0    0  0.00000000000E+00  0.00000000000E+00  0.45593999997E+02  0.45594000000E+02  0.51100000000E-03 0.  1.
         11   -1    0    0    0    0 -0.00000000000E+00 -0.00000000000E+00 -0.45593999997E+02  0.45594000000E+02  0.51100000000E-03 0. -1.
    9900012    2    1    2    0    0  0.24169781087E+02  0.20233561735E+02  0.25682482646E+02  0.50528865071E+02  0.30000015870E+02 0.  0.
         12    1    1    2    0    0 -0.24169781087E+02 -0.20233561735E+02 -0.25682482646E+02  0.40659134929E+02  0.00000000000E+00 0. -1.
         11    1    3    3    0    0  0.10394642760E+01  0.44024957738E+01 -0.37078912858E+01  0.58490095801E+01  0.51100000000E-03 0. -1.
        -11    1    3    3    0    0  0.24172122340E+02  0.18302066770E+02  0.24033872402E+02  0.38689587351E+02  0.51100000000E-03 0.  1.
         12    1    3    3    0    0 -0.10418055292E+01 -0.24710008079E+01  0.53565015302E+01  0.59902681406E+01  0.00000000000E+00 0. -1.
</event>
<event>
 7    1  0.2969156E-011  0.5052893E+02  0.7816164E-02  0.1300439E+00
        -11   -1    0    0    0    0  0.00000000000E+00  0.00000000000E+00  0.45593999997E+02  0.45594000000E+02  0.51100000000E-03 0.  1.
         11   -1    0    0    0    0 -0.00000000000E+00 -0.00000000000E+00 -0.45593999997E+02  0.45594000000E+02  0.51100000000E-03 0. -1.
    9900012    2    1    2    0    0 -0.19820520769E+02  0.35497827138E+02 -0.45918454444E+00  0.50528934277E+02  0.30000226226E+02 0.  0.
         12    1    1    2    0    0  0.19820520769E+02 -0.35497827138E+02  0.45918454444E+00  0.40659065723E+02  0.00000000000E+00 0. -1.
         11    1    3    3    0    0 -0.18841019921E+02  0.12414660257E+02 -0.34927086293E+01  0.22832144770E+02  0.51100000000E-03 0. -1.
        -11    1    3    3    0    0 -0.51817671965E+00  0.52013090375E+01  0.76105521469E+01  0.92326933805E+01  0.51100000000E-03 0.  1.
         12    1    3    3    0    0 -0.46132412808E+00  0.17881857843E+02 -0.45770280620E+01  0.18464096126E+02  0.00000000000E+00 0. -1.
</event>
<event>
 7    1  0.2969156E-011  0.5052893E+02  0.7816164E-02  0.1300439E+00
        -11   -1    0    0    0    0  0.00000000000E+00  0.00000000000E+00  0.45593999997E+02  0.45594000000E+02  0.51100000000E-03 0.  1.
         11   -1    0    0    0    0 -0.00000000000E+00 -0.00000000000E+00 -0.45593999997E+02  0.45594000000E+02  0.51100000000E-03 0. -1.
    9900012    2    1    2    0    0 -0.23303538705E+02  0.33316149667E+02 -0.37330982625E+00  0.50528928380E+02  0.30000208303E+02 0.  0.
         12    1    1    2    0    0  0.23303538705E+02 -0.33316149667E+02  0.37330982625E+00  0.40659071620E+02  0.00000000000E+00 0. -1.
         11    1    3    3    0    0  0.11842376500E+01 -0.18207512400E+01  0.66138679744E+00  0.22704595673E+01  0.51100000000E-03 0. -1.
        -11    1    3    3    0    0 -0.98025714262E+01  0.27310774176E+02  0.68959038971E+01  0.29824860158E+02  0.51100000000E-03 0.  1.
         12    1    3    3    0    0 -0.14685204928E+02  0.78261267311E+01 -0.79306005208E+01  0.18433608654E+02  0.00000000000E+00 0. -1.
</event>
<event>
 7    1  0.2969156E-011  0.5052885E+02  0.7816164E-02  0.1300439E+00
        -11   -1    0    0    0    0  0.00000000000E+00  0.00000000000E+00  0.45593999997E+02  0.45594000000E+02  0.51100000000E-03 0. -1.
         11   -1    0    0    0    0 -0.00000000000E+00 -0.00000000000E+00 -0.45593999997E+02  0.45594000000E+02  0.51100000000E-03 0.  1.
    9900012    2    1    2    0    0  0.36449254441E+02  0.75026823564E+01 -0.16380730955E+02  0.50528846806E+02  0.29999960350E+02 0.  0.
         12    1    1    2    0    0 -0.36449254441E+02 -0.75026823564E+01  0.16380730955E+02  0.40659153194E+02  0.00000000000E+00 0. -1.
         11    1    3    3    0    0  0.16089174913E+02  0.30386538139E+01  0.30023234494E+01  0.16646588622E+02  0.51100000000E-03 0. -1.
        -11    1    3    3    0    0  0.20675321319E+02  0.85860977905E+01 -0.11950267419E+02  0.25377132986E+02  0.51100000000E-03 0.  1.
        -12    1    3    3    0    0 -0.31524179091E+00 -0.41220692479E+01 -0.74327869850E+01  0.85051251981E+01  0.00000000000E+00 0.  1.
</event>
<event>
 7    1  0.2969156E-011  0.5052891E+02  0.7816164E-02  0.1300439E+00
        -11   -1    0    0    0    0  0.00000000000E+00  0.00000000000E+00  0.45593999997E+02  0.45594000000E+02  0.51100000000E-03 0.  1.
         11   -1    0    0    0    0 -0.00000000000E+00 -0.00000000000E+00 -0.45593999997E+02  0.45594000000E+02  0.51100000000E-03 0. -1.
    9900012    2    1    2    0    0  0.54974380957E+01  0.28341171639E+02  0.28630716591E+02  0.50528907930E+02  0.30000146143E+02 0.  0.
         12    1    1    2    0    0 -0.54974380957E+01 -0.28341171639E+02 -0.28630716591E+02  0.40659092070E+02  0.00000000000E+00 0. -1.
         11    1    3    3    0    0  0.92470565553E+01  0.42496147600E+01  0.47534478263E+00  0.10187896420E+02  0.51100000000E-03 0. -1.
        -11    1    3    3    0    0  0.58694397501E+01  0.11629965265E+02  0.10921782229E+02  0.16999757127E+02  0.51100000000E-03 0.  1.
        -12    1    3    3    0    0 -0.96190582096E+01  0.12461591614E+02  0.17233589579E+02  0.23341254383E+02  0.00000000000E+00 0.  1.
</event>
<event>
 7    1  0.2969156E-011  0.5052888E+02  0.7816164E-02  0.1300439E+00
        -11   -1    0    0    0    0  0.00000000000E+00  0.00000000000E+00  0.45593999997E+02  0.45594000000E+02  0.51100000000E-03 0. -1.
         11   -1    0    0    0    0 -0.00000000000E+00 -0.00000000000E+00 -0.45593999997E+02  0.45594000000E+02  0.51100000000E-03 0.  1.
    9900012    2    1    2    0    0 -0.34219260365E+02 -0.21920447044E+02 -0.13040806510E+01  0.50528875502E+02  0.30000047577E+02 0.  0.
         12    1    1    2    0    0  0.34219260365E+02  0.21920447044E+02  0.13040806510E+01  0.40659124498E+02  0.00000000000E+00 0. -1.
         11    1    3    3    0    0 -0.11917457456E+01  0.13866395382E+01 -0.66555540851E+01  0.69021321034E+01  0.51100000000E-03 0. -1.
        -11    1    3    3    0    0 -0.62631635614E+01 -0.26287163047E+01 -0.47963857958E+01  0.83152080052E+01  0.51100000000E-03 0.  1.
        -12    1    3    3    0    0 -0.26764351058E+02 -0.20678370278E+02  0.10147859230E+02  0.35311535394E+02  0.00000000000E+00 0.  1.
</event>
<event>
 7    1  0.2969156E-011  0.5052886E+02  0.7816164E-02  0.1300439E+00
        -11   -1    0    0    0    0  0.00000000000E+00  0.00000000000E+00  0.45593999997E+02  0.45594000000E+02  0.51100000000E-03 0.  1.
         11   -1    0    0    0    0 -0.00000000000E+00 -0.00000000000E+00 -0.45593999997E+02  0.45594000000E+02  0.51100000000E-03 0. -1.
    9900012    2    1    2    0    0 -0.29442881869E+01  0.40395396380E+02  0.35649580174E+01  0.50528858257E+02  0.29999995157E+02 0.  0.
         12    1    1    2    0    0  0.29442881869E+01 -0.40395396380E+02 -0.35649580174E+01  0.40659141743E+02  0.00000000000E+00 0. -1.
         11    1    3    3    0    0 -0.45493170880E+00  0.12750597214E+02  0.75301306737E+01  0.14815112568E+02  0.51100000000E-03 0. -1.
        -11    1    3    3    0    0 -0.15797400034E+01 -0.33099755858E+01  0.19982415592E+01  0.41766597236E+01  0.51100000000E-03 0.  1.
         12    1    3    3    0    0 -0.90961647476E+00  0.30954774752E+02 -0.59634142156E+01  0.31537085965E+02  0.00000000000E+00 0. -1.
</event>
<event>
 7    1  0.2969156E-011  0.5052887E+02  0.7816164E-02  0.1300439E+00
        -11   -1    0    0    0    0  0.00000000000E+00  0.00000000000E+00  0.45593999997E+02  0.45594000000E+02  0.51100000000E-03 0.  1.
         11   -1    0    0    0    0 -0.00000000000E+00 -0.00000000000E+00 -0.45593999997E+02  0.45594000000E+02  0.51100000000E-03 0. -1.
    9900012    2    1    2    0    0  0.94947093369E+01  0.46670243491E+01  0.39258560966E+02  0.50528865346E+02  0.30000016707E+02 0.  0.
         12    1    1    2    0    0 -0.94947093369E+01 -0.46670243491E+01 -0.39258560966E+02  0.40659134654E+02  0.00000000000E+00 0. -1.
         11    1    3    3    0    0  0.89090549877E+01  0.14475494585E+02  0.19370914892E+02  0.25770982680E+02  0.51100000000E-03 0. -1.
        -11    1    3    3    0    0 -0.14985699502E+01 -0.14377658192E+01 -0.89097021799E+00  0.22598032297E+01  0.51100000000E-03 0.  1.
        -12    1    3    3    0    0  0.20842242994E+01 -0.83707044169E+01  0.20778616291E+02  0.22498079437E+02  0.00000000000E+00 0.  1.
</event>
<event>
 7    1  0.2969156E-011  0.5052889E+02  0.7816164E-02  0.1300439E+00
        -11   -1    0    0    0    0  0.00000000000E+00  0.00000000000E+00  0.45593999997E+02  0.45594000000E+02  0.51100000000E-03 0. -1.
         11   -1    0    0    0    0 -0.00000000000E+00 -0.00000000000E+00 -0.45593999997E+02  0.45594000000E+02  0.51100000000E-03 0.  1.
    9900012    2    1    2    0    0 -0.18131421764E+02  0.32929609829E+02 -0.15493734324E+02  0.50528887098E+02  0.30000082823E+02 0.  0.
         12    1    1    2    0    0  0.18131421764E+02 -0.32929609829E+02  0.15493734324E+02  0.40659112902E+02  0.00000000000E+00 0. -1.
         11    1    3    3    0    0 -0.91910382358E+00  0.75943731602E+01  0.29021573277E+01  0.81817952156E+01  0.51100000000E-03 0. -1.
        -11    1    3    3    0    0 -0.21701922644E+02  0.25153700701E+02 -0.18128034307E+02  0.37845841694E+02  0.51100000000E-03 0.  1.
         12    1    3    3    0    0  0.44896047034E+01  0.18153596709E+00 -0.26785734506E+00  0.45012501882E+01  0.00000000000E+00 0. -1.
</event>
<event>
 7    1  0.2969156E-011  0.5052887E+02  0.7816164E-02  0.1300439E+00
        -11   -1    0    0    0    0  0.00000000000E+00  0.00000000000E+00  0.45593999997E+02  0.45594000000E+02  0.51100000000E-03 0.  1.
         11   -1    0    0    0    0 -0.00000000000E+00 -0.00000000000E+00 -0.45593999997E+02  0.45594000000E+02  0.51100000000E-03 0. -1.
    9900012    2    1    2    0    0 -0.33250061177E+02  0.11047177504E+01  0.23374728051E+02  0.50528869647E+02  0.30000029781E+02 0.  0.
         12    1    1    2    0    0  0.33250061177E+02 -0.11047177504E+01 -0.23374728051E+02  0.40659130353E+02  0.00000000000E+00 0. -1.
         11    1    3    3    0    0 -0.90887973885E+01 -0.54533566492E+01  0.12637880180E+00  0.10600061725E+02  0.51100000000E-03 0. -1.
        -11    1    3    3    0    0 -0.16588673589E+02 -0.10752634393E+01  0.28443251762E+01  0.16865066525E+02  0.51100000000E-03 0.  1.
        -12    1    3    3    0    0 -0.75725901989E+01  0.76333378389E+01  0.20404024073E+02  0.23063741398E+02  0.00000000000E+00 0.  1.
</event>
<event>
 7    1  0.3611658E-011  0.5052886E+02  0.7816164E-02  0.1300439E+00
        -11   -1    0    0    0    0  0.00000000000E+00  0.00000000000E+00  0.45593999997E+02  0.45594000000E+02  0.51100000000E-03 0. -1.
         11   -1    0    0    0    0 -0.00000000000E+00 -0.00000000000E+00 -0.45593999997E+02  0.45594000000E+02  0.51100000000E-03 0.  1.
    9900012    2    1    2    0    0  0.67985790194E+01 -0.31338972381E+02 -0.24996274881E+02  0.50528860505E+02  0.30000001991E+02 0.  0.
         12    1    1    2    0    0 -0.67985790194E+01  0.31338972381E+02  0.24996274881E+02  0.40659139495E+02  0.00000000000E+00 0. -1.
         11    1    3    3    0    0  0.15575757925E+02 -0.12266191102E+02 -0.11932806597E+02  0.23139912546E+02  0.51100000000E-03 0. -1.
        -11    1    3    3    0    0 -0.57397977300E+01 -0.31252025312E+01 -0.81104526753E+01  0.10415930669E+02  0.51100000000E-03 0.  1.
        -12    1    3    3    0    0 -0.30373811757E+01 -0.15947578748E+02 -0.49530156086E+01  0.16973017290E+02  0.00000000000E+00 0.  1.
</event>
<event>
 7    1  0.2969156E-011  0.5052886E+02  0.7816164E-02  0.1300439E+00
        -11   -1    0    0    0    0  0.00000000000E+00  0.00000000000E+00  0.45593999997E+02  0.45594000000E+02  0.51100000000E-03 0.  1.
         11   -1    0    0    0    0 -0.00000000000E+00 -0.00000000000E+00 -0.45593999997E+02  0.45594000000E+02  0.51100000000E-03 0. -1.
    9900012    2    1    2    0    0 -0.15336092454E+02 -0.31854488262E+02  0.20081369966E+02  0.50528861127E+02  0.30000003881E+02 0.  0.
         12    1    1    2    0    0  0.15336092454E+02  0.31854488262E+02 -0.20081369966E+02  0.40659138873E+02  0.00000000000E+00 0. -1.
         11    1    3    3    0    0  0.34272241747E+01 -0.15622578553E+01  0.57654012561E+01  0.68866804090E+01  0.51100000000E-03 0. -1.
        -11    1    3    3    0    0 -0.15553651462E+02 -0.82324083169E+01  0.11846164235E+02  0.21213680205E+02  0.51100000000E-03 0.  1.
        -12    1    3    3    0    0 -0.32096651672E+01 -0.22059822090E+02  0.24698044748E+01  0.22428500513E+02  0.00000000000E+00 0.  1.
</event>
<event>
 7    1  0.2969156E-011  0.5052887E+02  0.7816164E-02  0.1300439E+00
        -11   -1    0    0    0    0  0.00000000000E+00  0.00000000000E+00  0.45593999997E+02  0.45594000000E+02  0.51100000000E-03 0. -1.
         11   -1    0    0    0    0 -0.00000000000E+00 -0.00000000000E+00 -0.45593999997E+02  0.45594000000E+02  0.51100000000E-03 0.  1.
    9900012    2    1    2    0    0  0.61272989518E+00  0.36578428933E+02 -0.17742830157E+02  0.50528869130E+02  0.30000028207E+02 0.  0.
         12    1    1    2    0    0 -0.61272989518E+00 -0.36578428933E+02  0.17742830157E+02  0.40659130870E+02  0.00000000000E+00 0. -1.
         11    1    3    3    0    0 -0.50561417040E+01 -0.22201494656E+01  0.10158049010E+01  0.56147566678E+01  0.51100000000E-03 0. -1.
        -11    1    3    3    0    0 -0.12142432544E+01  0.27773472558E+02 -0.12275450641E+02  0.30389584618E+02  0.51100000000E-03 0.  1.
        -12    1    3    3    0    0  0.68831148536E+01  0.11025105841E+02 -0.64831844173E+01  0.14524527844E+02  0.00000000000E+00 0.  1.
</event>
<event>
 7    1  0.2969156E-011  0.5052886E+02  0.7816164E-02  0.1300439E+00
        -11   -1    0    0    0    0  0.00000000000E+00  0.00000000000E+00  0.45593999997E+02  0.45594000000E+02  0.51100000000E-03 0.  1.
         11   -1    0    0    0    0 -0.00000000000E+00 -0.00000000000E+00 -0.45593999997E+02  0.45594000000E+02  0.51100000000E-03 0. -1.
    9900012    2    1    2    0    0 -0.24497855167E+02 -0.31094249057E+02  0.92826797063E+01  0.50528863576E+02  0.30000011326E+02 0.  0.
         12    1    1    2    0    0  0.24497855167E+02  0.31094249057E+02 -0.92826797063E+01  0.40659136424E+02  0.00000000000E+00 0. -1.
         11    1    3    3    0    0 -0.21683040946E+02 -0.14003780817E+02 -0.19645756012E+00  0.25812763077E+02  0.51100000000E-03 0.  1.
        -11    1    3    3    0    0  0.33655444896E+01 -0.19806548185E+01 -0.23484341576E+01  0.45568658611E+01  0.51100000000E-03 0. -1.
        -12    1    3    3    0    0 -0.61803587114E+01 -0.15109813421E+02  0.11827571424E+02  0.20159234638E+02  0.00000000000E+00 0.  1.
</event>
<event>
 7    1  0.2969156E-011  0.5052886E+02  0.7816164E-02  0.1300439E+00
        -11   -1    0    0    0    0  0.00000000000E+00  0.00000000000E+00  0.45593999997E+02  0.45594000000E+02  0.51100000000E-03 0.  1.
         11   -1    0    0    0    0 -0.00000000000E+00 -0.00000000000E+00 -0.45593999997E+02  0.45594000000E+02  0.51100000000E-03 0. -1.
    9900012    2    1    2    0    0 -0.35494477130E+02 -0.19820871033E+02  0.66394902250E+00  0.50528860024E+02  0.30000000530E+02 0.  0.
         12    1    1    2    0    0  0.35494477130E+02  0.19820871033E+02 -0.66394902250E+00  0.40659139976E+02  0.00000000000E+00 0. -1.
         11    1    3    3    0    0 -0.17993617449E+01  0.25916730361E+00 -0.38089974448E+01  0.42205843406E+01  0.51100000000E-03 0. -1.
        -11    1    3    3    0    0 -0.34760510148E+02 -0.14495797187E+02 -0.19729851397E+01  0.37713576765E+02  0.51100000000E-03 0.  1.
         12    1    3    3    0    0  0.10653947624E+01 -0.55842411502E+01  0.64459316069E+01  0.85946989188E+01  0.00000000000E+00 0. -1.
</event>
<event>
 7    1  0.2969156E-011  0.5052886E+02  0.7816164E-02  0.1300439E+00
        -11   -1    0    0    0    0  0.00000000000E+00  0.00000000000E+00  0.45593999997E+02  0.45594000000E+02  0.51100000000E-03 0.  1.
         11   -1    0    0    0    0 -0.00000000000E+00 -0.00000000000E+00 -0.45593999997E+02  0.45594000000E+02  0.51100000000E-03 0. -1.
    9900012    2    1    2    0    0  0.12464801650E+02  0.54143506883E+01  0.38320744521E+02  0.50528856697E+02  0.29999990415E+02 0.  0.
         12    1    1    2    0    0 -0.12464801650E+02 -0.54143506883E+01 -0.38320744521E+02  0.40659143303E+02  0.00000000000E+00 0. -1.
         11    1    3    3    0    0  0.10951591280E+02 -0.10599138801E+01  0.35436814651E+01  0.11559344600E+02  0.51100000000E-03 0. -1.
        -11    1    3    3    0    0 -0.61595375557E+01  0.16250325693E+01  0.58393488898E+01  0.86416797829E+01  0.51100000000E-03 0.  1.
        -12    1    3    3    0    0  0.76727479263E+01  0.48492319991E+01  0.28937714166E+02  0.30327832314E+02  0.00000000000E+00 0.  1.
</event>
<event>
 7    1  0.2969156E-011  0.5052885E+02  0.7816164E-02  0.1300439E+00
        -11   -1    0    0    0    0  0.00000000000E+00  0.00000000000E+00  0.45593999997E+02  0.45594000000E+02  0.51100000000E-03 0. -1.
         11   -1    0    0    0    0 -0.00000000000E+00 -0.00000000000E+00 -0.45593999997E+02  0.45594000000E+02  0.51100000000E-03 0.  1.
    9900012    2    1    2    0    0 -0.10437428465E+02 -0.31688783986E+02 -0.23238919955E+02  0.50528851655E+02  0.29999975091E+02 0.  0.
         12    1    1    2    0    0  0.10437428465E+02  0.31688783986E+02  0.23238919955E+02  0.40659148345E+02  0.00000000000E+00 0. -1.
         11    1    3    3    0    0 -0.16703071798E+00 -0.18683991635E+02 -0.98380221660E+00  0.18710620240E+02  0.51100000000E-03 0. -1.
        -11    1    3    3    0    0 -0.11310501512E+02 -0.15932150445E+02 -0.18132306178E+02  0.26655982252E+02  0.51100000000E-03 0.  1.
         12    1    3    3    0    0  0.10401037654E+01  0.29273580946E+01 -0.41228115607E+01  0.51622491631E+01  0.00000000000E+00 0. -1.
</event>
<event>
 7    1  0.2969156E-011  0.5052886E+02  0.7816164E-02  0.1300439E+00
        -11   -1    0    0    0    0  0.00000000000E+00  0.00000000000E+00  0.45593999997E+02  0.45594000000E+02  0.51100000000E-03 0.  1.
         11   -1    0    0    0    0 -0.00000000000E+00 -0.00000000000E+00 -0.45593999997E+02  0.45594000000E+02  0.51100000000E-03 0. -1.
    9900012    2    1    2    0    0  0.22790401573E+02  0.17045693856E+02  0.29038035752E+02  0.50528860767E+02  0.30000002786E+02 0.  0.
         12    1    1    2    0    0 -0.22790401573E+02 -0.17045693856E+02 -0.29038035752E+02  0.40659139233E+02  0.00000000000E+00 0. -1.
         11    1    3    3    0    0  0.28988709621E+01 -0.72974564165E+00 -0.16661340693E+01  0.34222776852E+01  0.51100000000E-03 0. -1.
        -11    1    3    3    0    0 -0.46318361804E+01  0.72020968393E+01  0.44219368028E+01  0.96373041165E+01  0.51100000000E-03 0.  1.
        -12    1    3    3    0    0  0.24523366791E+02  0.10573342659E+02  0.26282233018E+02  0.37469278965E+02  0.00000000000E+00 0.  1.
</event>
<event>
 7    1  0.2969156E-011  0.5052887E+02  0.7816164E-02  0.1300439E+00
        -11   -1    0    0    0    0  0.00000000000E+00  0.00000000000E+00  0.45593999997E+02  0.45594000000E+02  0.51100000000E-03 0.  1.
         11   -1    0    0    0    0 -0.00000000000E+00 -0.00000000000E+00 -0.45593999997E+02  0.45594000000E+02  0.51100000000E-03 0. -1.
    9900012    2    1    2    0    0  0.24242530570E+02  0.25306608591E+02  0.20616508384E+02  0.50528866405E+02  0.30000019923E+02 0.  0.
         12    1    1    2    0    0 -0.24242530570E+02 -0.25306608591E+02 -0.20616508384E+02  0.40659133595E+02  0.00000000000E+00 0. -1.
         11    1    3    3    0    0  0.50270917579E+01 -0.25730504240E+01  0.40414492762E+01  0.69444620051E+01  0.51100000000E-03 0. -1.
        -11    1    3    3    0    0  0.84091547727E+01  0.30437490976E+01  0.13681745020E+02  0.16345287994E+02  0.51100000000E-03 0.  1.
         12    1    3    3    0    0  0.10806284039E+02  0.24835909917E+02  0.28933140879E+01  0.27239116406E+02  0.00000000000E+00 0. -1.
</event>
<event>
 7    1  0.2969156E-011  0.5052887E+02  0.7816164E-02  0.1300439E+00
        -11   -1    0    0    0    0  0.00000000000E+00  0.00000000000E+00  0.45593999997E+02  0.45594000000E+02  0.51100000000E-03 0. -1.
         11   -1    0    0    0    0 -0.00000000000E+00 -0.00000000000E+00 -0.45593999997E+02  0.45594000000E+02  0.51100000000E-03 0.  1.
    9900012    2    1    2    0    0 -0.17685706993E+02 -0.32634336979E+02 -0.16594609391E+02  0.50528865199E+02  0.30000016260E+02 0.  0.
         12    1    1    2    0    0  0.17685706993E+02  0.32634336979E+02  0.16594609391E+02  0.40659134801E+02  0.00000000000E+00 0. -1.
         11    1    3    3    0    0 -0.66555219762E+01 -0.77060685943E+01 -0.78552002817E-01  0.10182614430E+02  0.51100000000E-03 0. -1.
        -11    1    3    3    0    0 -0.17932206946E+02 -0.13474773168E+02 -0.14778519742E+02  0.26861463175E+02  0.51100000000E-03 0.  1.
         12    1    3    3    0    0  0.69020219288E+01 -0.11453495217E+02 -0.17375376458E+01  0.13484787594E+02  0.00000000000E+00 0. -1.
</event>
<event>
 7    1  0.2969156E-011  0.5052886E+02  0.7816164E-02  0.1300439E+00
        -11   -1    0    0    0    0  0.00000000000E+00  0.00000000000E+00  0.45593999997E+02  0.45594000000E+02  0.51100000000E-03 0.  1.
         11   -1    0    0    0    0 -0.00000000000E+00 -0.00000000000E+00 -0.45593999997E+02  0.45594000000E+02  0.51100000000E-03 0. -1.
    9900012    2    1    2    0    0  0.80892580682E+01 -0.34184126595E+02  0.20473772592E+02  0.50528856240E+02  0.29999989028E+02 0.  0.
         12    1    1    2    0    0 -0.80892580682E+01  0.34184126595E+02 -0.20473772592E+02  0.40659143760E+02  0.00000000000E+00 0. -1.
         11    1    3    3    0    0 -0.18627524136E+01 -0.19518843056E+02  0.39866831080E+00  0.19611578659E+02  0.51100000000E-03 0. -1.
        -11    1    3    3    0    0  0.67808700352E+01 -0.82386301497E+01  0.12122458643E+01  0.10738936888E+02  0.51100000000E-03 0.  1.
        -12    1    3    3    0    0  0.31711404465E+01 -0.64266533887E+01  0.18862858417E+02  0.20178340694E+02  0.00000000000E+00 0.  1.
</event>
<event>
 7    1  0.2969156E-011  0.5052886E+02  0.7816164E-02  0.1300439E+00
        -11   -1    0    0    0    0  0.00000000000E+00  0.00000000000E+00  0.45593999997E+02  0.45594000000E+02  0.51100000000E-03 0.  1.
         11   -1    0    0    0    0 -0.00000000000E+00 -0.00000000000E+00 -0.45593999997E+02  0.45594000000E+02  0.51100000000E-03 0. -1.
    9900012    2    1    2    0    0 -0.35619362570E+02  0.80611546951E+01  0.17873011157E+02  0.50528859174E+02  0.29999997945E+02 0.  0.
         12    1    1    2    0    0  0.35619362570E+02 -0.80611546951E+01 -0.17873011157E+02  0.40659140826E+02  0.00000000000E+00 0. -1.
         11    1    3    3    0    0  0.51299140019E+00 -0.29559697674E+01 -0.29228091469E+01  0.41885237272E+01  0.51100000000E-03 0. -1.
        -11    1    3    3    0    0 -0.10840275684E+02  0.16926096597E+01  0.15303804834E+02  0.18830372992E+02  0.51100000000E-03 0.  1.
         12    1    3    3    0    0 -0.25292078286E+02  0.93245148028E+01  0.54920154701E+01  0.27509962454E+02  0.00000000000E+00 0. -1.
</event>
<event>
 7    1  0.2969156E-011  0.5052882E+02  0.7816164E-02  0.1300439E+00
        -11   -1    0    0    0    0  0.00000000000E+00  0.00000000000E+00  0.45593999997E+02  0.45594000000E+02  0.51100000000E-03 0. -1.
         11   -1    0    0    0    0 -0.00000000000E+00 -0.00000000000E+00 -0.45593999997E+02  0.45594000000E+02  0.51100000000E-03 0.  1.
    9900012    2    1    2    0    0 -0.25801204134E+02  0.22727290915E+01 -0.31341686776E+02  0.50528821919E+02  0.29999884704E+02 0.  0.
         12    1    1    2    0    0  0.25801204134E+02 -0.22727290915E+01  0.31341686776E+02  0.40659178081E+02  0.00000000000E+00 0. -1.
         11    1    3    3    0    0 -0.44694488530E+01 -0.98093845428E+01 -0.19171445068E+01  0.10948764381E+02  0.51100000000E-03 0. -1.
        -11    1    3    3    0    0 -0.79174244954E+01  0.23222254737E+01 -0.38708342715E+01  0.91138191781E+01  0.51100000000E-03 0.  1.
        -12    1    3    3    0    0 -0.13414330786E+02  0.97598881606E+01 -0.25553707998E+02  0.30466238359E+02  0.00000000000E+00 0.  1.
</event>
<event>
 7    1  0.2969156E-011  0.5052886E+02  0.7816164E-02  0.1300439E+00
        -11   -1    0    0    0    0  0.00000000000E+00  0.00000000000E+00  0.45593999997E+02  0.45594000000E+02  0.51100000000E-03 0.  1.
         11   -1    0    0    0    0 -0.00000000000E+00 -0.00000000000E+00 -0.45593999997E+02  0.45594000000E+02  0.51100000000E-03 0. -1.
    9900012    2    1    2    0    0  0.32921867228E+02  0.23785284059E+02  0.18911312976E+01  0.50528862563E+02  0.30000008248E+02 0.  0.
         12    1    1    2    0    0 -0.32921867228E+02 -0.23785284059E+02 -0.18911312976E+01  0.40659137437E+02  0.00000000000E+00 0. -1.
         11    1    3    3    0    0  0.16228768493E+02  0.20107434983E+02  0.35281785548E+01  0.26079300462E+02  0.51100000000E-03 0. -1.
        -11    1    3    3    0    0  0.19758321801E+02  0.34549362634E+00 -0.22150807590E+01  0.19885100685E+02  0.51100000000E-03 0.  1.
         12    1    3    3    0    0 -0.30652230669E+01  0.33323554496E+01  0.57803350180E+00  0.45644614163E+01  0.00000000000E+00 0. -1.
</event>
<event>
 7    1  0.2969156E-011  0.5052886E+02  0.7816164E-02  0.1300439E+00
        -11   -1    0    0    0    0  0.00000000000E+00  0.00000000000E+00  0.45593999997E+02  0.45594000000E+02  0.51100000000E-03 0.  1.
         11   -1    0    0    0    0 -0.00000000000E+00 -0.00000000000E+00 -0.45593999997E+02  0.45594000000E+02  0.51100000000E-03 0. -1.
    9900012    2    1    2    0    0  0.67616081368E+01  0.37116442742E+02  0.15159689153E+02  0.50528857834E+02  0.29999993874E+02 0.  0.
         12    1    1    2    0    0 -0.67616081368E+01 -0.37116442742E+02 -0.15159689153E+02  0.40659142166E+02  0.00000000000E+00 0. -1.
         11    1    3    3    0    0 -0.42065098979E+01  0.18942012430E+01 -0.55332805898E+01  0.72041597856E+01  0.51100000000E-03 0. -1.
        -11    1    3    3    0    0  0.39988791482E+01  0.26481283584E+02  0.16027184830E+02  0.31210896631E+02  0.51100000000E-03 0.  1.
        -12    1    3    3    0    0  0.69692388865E+01  0.87409579157E+01  0.46657849120E+01  0.12113801418E+02  0.00000000000E+00 0.  1.
</event>
<event>
 7    1  0.2969156E-011  0.5052885E+02  0.7816164E-02  0.1300439E+00
        -11   -1    0    0    0    0  0.00000000000E+00  0.00000000000E+00  0.45593999997E+02  0.45594000000E+02  0.51100000000E-03 0.  1.
         11   -1    0    0    0    0 -0.00000000000E+00 -0.00000000000E+00 -0.45593999997E+02  0.45594000000E+02  0.51100000000E-03 0. -1.
    9900012    2    1    2    0    0  0.10075606003E+02 -0.61390790923E+01  0.38909641643E+02  0.50528851691E+02  0.29999975200E+02 0.  0.
         12    1    1    2    0    0 -0.10075606003E+02  0.61390790923E+01 -0.38909641643E+02  0.40659148309E+02  0.00000000000E+00 0. -1.
         11    1    3    3    0    0 -0.74770771323E+01 -0.40049070980E+01  0.47242146986E+01  0.97089735856E+01  0.51100000000E-03 0. -1.
        -11    1    3    3    0    0  0.36413238357E+01 -0.67211176362E+01  0.12444426067E+02  0.14604670553E+02  0.51100000000E-03 0.  1.
         12    1    3    3    0    0  0.13911359300E+02  0.45869456420E+01  0.21741000877E+02  0.26215207553E+02  0.00000000000E+00 0. -1.
</event>
<event>
 7    1  0.2969156E-011  0.5052883E+02  0.7816164E-02  0.1300439E+00
        -11   -1    0    0    0    0  0.00000000000E+00  0.00000000000E+00  0.45593999997E+02  0.45594000000E+02  0.51100000000E-03 0.  1.
         11   -1    0    0    0    0 -0.00000000000E+00 -0.00000000000E+00 -0.45593999997E+02  0.45594000000E+02  0.51100000000E-03 0. -1.
    9900012    2    1    2    0    0  0.74950307642E+01 -0.63261124124E+01  0.39458497382E+02  0.50528828832E+02  0.29999905719E+02 0.  0.
         12    1    1    2    0    0 -0.74950307642E+01  0.63261124124E+01 -0.39458497382E+02  0.40659171168E+02  0.00000000000E+00 0. -1.
         11    1    3    3    0    0  0.13528736177E+02  0.25380569344E+00  0.24081914903E+02  0.27622993059E+02  0.51100000000E-03 0. -1.
        -11    1    3    3    0    0  0.21002233762E+01 -0.69312778125E+01  0.24817546435E+01  0.76558903281E+01  0.51100000000E-03 0.  1.
         12    1    3    3    0    0 -0.81339287891E+01  0.35135970665E+00  0.12894827835E+02  0.15249945446E+02  0.00000000000E+00 0. -1.
</event>
<event>
 7    1  0.2969156E-011  0.5052890E+02  0.7816164E-02  0.1300439E+00
        -11   -1    0    0    0    0  0.00000000000E+00  0.00000000000E+00  0.45593999997E+02  0.45594000000E+02  0.51100000000E-03 0. -1.
         11   -1    0    0    0    0 -0.00000000000E+00 -0.00000000000E+00 -0.45593999997E+02  0.45594000000E+02  0.51100000000E-03 0.  1.
    9900012    2    1    2    0    0 -0.10564411043E+02  0.30047491473E+02 -0.25272586254E+02  0.50528903349E+02  0.30000132219E+02 0.  0.
         12    1    1    2    0    0  0.10564411043E+02 -0.30047491473E+02  0.25272586254E+02  0.40659096651E+02  0.00000000000E+00 0. -1.
         11    1    3    3    0    0 -0.14381513959E+02  0.22599975437E+02 -0.23985666789E+02  0.35956905388E+02  0.51100000000E-03 0. -1.
        -11    1    3    3    0    0 -0.92474029393E+00 -0.20980538372E+01 -0.30009415643E+01  0.37765890759E+01  0.51100000000E-03 0.  1.
         12    1    3    3    0    0  0.47418432102E+01  0.95455698732E+01  0.17140220995E+01  0.10795408885E+02  0.00000000000E+00 0. -1.
</event>
<event>
 7    1  0.2969156E-011  0.5052885E+02  0.7816164E-02  0.1300439E+00
        -11   -1    0    0    0    0  0.00000000000E+00  0.00000000000E+00  0.45593999997E+02  0.45594000000E+02  0.51100000000E-03 0. -1.
         11   -1    0    0    0    0 -0.00000000000E+00 -0.00000000000E+00 -0.45593999997E+02  0.45594000000E+02  0.51100000000E-03 0.  1.
    9900012    2    1    2    0    0 -0.10723204785E+02  0.35222205280E+02 -0.17250370528E+02  0.50528854055E+02  0.29999982384E+02 0.  0.
         12    1    1    2    0    0  0.10723204785E+02 -0.35222205280E+02  0.17250370528E+02  0.40659145945E+02  0.00000000000E+00 0. -1.
         11    1    3    3    0    0 -0.48630225139E+01  0.37263680724E+00  0.93946724329E+00  0.49669351841E+01  0.51100000000E-03 0. -1.
        -11    1    3    3    0    0 -0.48048566781E+01  0.16892334543E+02  0.29458717341E+01  0.17807744791E+02  0.51100000000E-03 0.  1.
        -12    1    3    3    0    0 -0.10553255926E+01  0.17957233930E+02 -0.21135709506E+02  0.27754174079E+02  0.00000000000E+00 0.  1.
</event>
<event>
 7    1  0.2969156E-011  0.5052886E+02  0.7816164E-02  0.1300439E+00
        -11   -1    0    0    0    0  0.00000000000E+00  0.00000000000E+00  0.45593999997E+02  0.45594000000E+02  0.51100000000E-03 0.  1.
         11   -1    0    0    0    0 -0.00000000000E+00 -0.00000000000E+00 -0.45593999997E+02  0.45594000000E+02  0.51100000000E-03 0. -1.
    9900012    2    1    2    0    0 -0.67822453240E+01 -0.19990277412E+02  0.34749901226E+02  0.50528859849E+02  0.29999999996E+02 0.  0.
         12    1    1    2    0    0  0.67822453240E+01  0.19990277412E+02 -0.34749901226E+02  0.40659140151E+02  0.00000000000E+00 0. -1.
         11    1    3    3    0    0  0.65645685163E+00 -0.19294525828E+02  0.14940651521E+02  0.24411733463E+02  0.51100000000E-03 0.  1.
        -11    1    3    3    0    0  0.26723997480E+01  0.28045936590E+01  0.12682833545E+02  0.13261287004E+02  0.51100000000E-03 0. -1.
        -12    1    3    3    0    0 -0.10111101924E+02 -0.35003452423E+01  0.71264161604E+01  0.12855839382E+02  0.00000000000E+00 0.  1.
</event>
<event>
 7    1  0.2969156E-011  0.5052886E+02  0.7816164E-02  0.1300439E+00
        -11   -1    0    0    0    0  0.00000000000E+00  0.00000000000E+00  0.45593999997E+02  0.45594000000E+02  0.51100000000E-03 0. -1.
         11   -1    0    0    0    0 -0.00000000000E+00 -0.00000000000E+00 -0.45593999997E+02  0.45594000000E+02  0.51100000000E-03 0.  1.
    9900012    2    1    2    0    0 -0.77675855878E+01  0.10128671431E+02 -0.38603634394E+02  0.50528856388E+02  0.29999989478E+02 0.  0.
         12    1    1    2    0    0  0.77675855878E+01 -0.10128671431E+02  0.38603634394E+02  0.40659143612E+02  0.00000000000E+00 0. -1.
         11    1    3    3    0    0 -0.55787325499E+01  0.11773626750E+02 -0.10241706914E+02  0.16572057943E+02  0.51100000000E-03 0. -1.
        -11    1    3    3    0    0  0.62752179932E+01  0.20394321439E+01 -0.35703063161E+01  0.75023150950E+01  0.51100000000E-03 0.  1.
        -12    1    3    3    0    0 -0.84640710311E+01 -0.36843874626E+01 -0.24791621164E+02  0.26454483350E+02  0.00000000000E+00 0.  1.
</event>
<event>
 7    1  0.2969156E-011  0.5052886E+02  0.7816164E-02  0.1300439E+00
        -11   -1    0    0    0    0  0.00000000000E+00  0.00000000000E+00  0.45593999997E+02  0.45594000000E+02  0.51100000000E-03 0. -1.
         11   -1    0    0    0    0 -0.00000000000E+00 -0.00000000000E+00 -0.45593999997E+02  0.45594000000E+02  0.51100000000E-03 0.  1.
    9900012    2    1    2    0    0  0.20320559333E+02 -0.31640147341E+02 -0.15464199432E+02  0.50528861797E+02  0.30000005917E+02 0.  0.
         12    1    1    2    0    0 -0.20320559333E+02  0.31640147341E+02  0.15464199432E+02  0.40659138203E+02  0.00000000000E+00 0. -1.
         11    1    3    3    0    0 -0.41405304195E+00 -0.35410641369E+01 -0.13387248042E+02  0.13853843710E+02  0.51100000000E-03 0. -1.
        -11    1    3    3    0    0 -0.92393631988E+00 -0.27617879896E+01 -0.16340317250E+01  0.33393399291E+01  0.51100000000E-03 0.  1.
         12    1    3    3    0    0  0.21658548695E+02 -0.25337295214E+02 -0.44291966467E+00  0.33335678157E+02  0.00000000000E+00 0. -1.
</event>
<event>
 7    1  0.2969156E-011  0.5052887E+02  0.7816164E-02  0.1300439E+00
        -11   -1    0    0    0    0  0.00000000000E+00  0.00000000000E+00  0.45593999997E+02  0.45594000000E+02  0.51100000000E-03 0.  1.
         11   -1    0    0    0    0 -0.00000000000E+00 -0.00000000000E+00 -0.45593999997E+02  0.45594000000E+02  0.51100000000E-03 0. -1.
    9900012    2    1    2    0    0  0.35173065542E+02 -0.19763462359E+02 -0.50424344268E+01  0.50528866598E+02  0.30000020513E+02 0.  0.
         12    1    1    2    0    0 -0.35173065542E+02  0.19763462359E+02  0.50424344268E+01  0.40659133402E+02  0.00000000000E+00 0. -1.
         11    1    3    3    0    0  0.82199645081E+01  0.24015935128E+01 -0.85984996573E+01  0.12135471335E+02  0.51100000000E-03 0. -1.
        -11    1    3    3    0    0  0.23112118766E+01 -0.72513691342E+01 -0.40241396352E+01  0.86091669007E+01  0.51100000000E-03 0.  1.
        -12    1    3    3    0    0  0.24641889157E+02 -0.14913686737E+02  0.75802048657E+01  0.29784228362E+02  0.00000000000E+00 0.  1.
</event>
<event>
 7    1  0.2969156E-011  0.5052886E+02  0.7816164E-02  0.1300439E+00
        -11   -1    0    0    0    0  0.00000000000E+00  0.00000000000E+00  0.45593999997E+02  0.45594000000E+02  0.51100000000E-03 0.  1.
         11   -1    0    0    0    0 -0.00000000000E+00 -0.00000000000E+00 -0.45593999997E+02  0.45594000000E+02  0.51100000000E-03 0. -1.
    9900012    2    1    2    0    0  0.39921355495E+02  0.23209302319E+01 -0.73528678034E+01  0.50528855806E+02  0.29999987708E+02 0.  0.
         12    1    1    2    0    0 -0.39921355495E+02 -0.23209302319E+01  0.73528678034E+01  0.40659144194E+02  0.00000000000E+00 0. -1.
         11    1    3    3    0    0 -0.14492586221E+00 -0.59415010431E+01  0.22127457993E+00  0.59473860520E+01  0.51100000000E-03 0. -1.
        -11    1    3    3    0    0  0.20363199926E+02 -0.39533816943E+01 -0.39810497980E+01  0.21121976607E+02  0.51100000000E-03 0.  1.
         12    1    3    3    0    0  0.19703081431E+02  0.12215812969E+02 -0.35930925853E+01  0.23459493147E+02  0.00000000000E+00 0. -1.
</event>
<event>
 7    1  0.2969156E-011  0.5052885E+02  0.7816164E-02  0.1300439E+00
        -11   -1    0    0    0    0  0.00000000000E+00  0.00000000000E+00  0.45593999997E+02  0.45594000000E+02  0.51100000000E-03 0.  1.
         11   -1    0    0    0    0 -0.00000000000E+00 -0.00000000000E+00 -0.45593999997E+02  0.45594000000E+02  0.51100000000E-03 0. -1.
    9900012    2    1    2    0    0  0.39638822339E+02 -0.39990630565E+01  0.81201846482E+01  0.50528854159E+02  0.29999982702E+02 0.  0.
         12    1    1    2    0    0 -0.39638822339E+02  0.39990630565E+01 -0.81201846482E+01  0.40659145841E+02  0.00000000000E+00 0. -1.
         11    1    3    3    0    0 -0.26154417904E+01  0.43031166254E+00  0.40836951983E+01  0.48684977786E+01  0.51100000000E-03 0. -1.
        -11    1    3    3    0    0  0.60033607069E+00 -0.31718957592E+01  0.22767645800E+01  0.39503143317E+01  0.51100000000E-03 0.  1.
         12    1    3    3    0    0  0.41653928059E+02 -0.12574789598E+01  0.17597248699E+01  0.41710042049E+02  0.00000000000E+00 0. -1.
</event>
<event>
 7    1  0.2969156E-011  0.5052886E+02  0.7816164E-02  0.1300439E+00
        -11   -1    0    0    0    0  0.00000000000E+00  0.00000000000E+00  0.45593999997E+02  0.45594000000E+02  0.51100000000E-03 0.  1.
         11   -1    0    0    0    0 -0.00000000000E+00 -0.00000000000E+00 -0.45593999997E+02  0.45594000000E+02  0.51100000000E-03 0. -1.
    9900012    2    1    2    0    0 -0.25259417461E+02  0.20592273711E+02  0.24312260897E+02  0.50528856662E+02  0.29999990310E+02 0.  0.
         12    1    1    2    0    0  0.25259417461E+02 -0.20592273711E+02 -0.24312260897E+02  0.40659143338E+02  0.00000000000E+00 0. -1.
         11    1    3    3    0    0  0.13457344421E+01 -0.45757621602E+01  0.26976641307E+01  0.54795978464E+01  0.51100000000E-03 0. -1.
        -11    1    3    3    0    0 -0.57389405115E+01  0.14939163337E+02  0.11489147437E+02  0.19700623049E+02  0.51100000000E-03 0.  1.
        -12    1    3    3    0    0 -0.20866211391E+02  0.10228872533E+02  0.10125449330E+02  0.25348635767E+02  0.00000000000E+00 0.  1.
</event>
<event>
 7    1  0.2969156E-011  0.5052886E+02  0.7816164E-02  0.1300439E+00
        -11   -1    0    0    0    0  0.00000000000E+00  0.00000000000E+00  0.45593999997E+02  0.45594000000E+02  0.51100000000E-03 0.  1.
         11   -1    0    0    0    0 -0.00000000000E+00 -0.00000000000E+00 -0.45593999997E+02  0.45594000000E+02  0.51100000000E-03 0. -1.
    9900012    2    1    2    0    0 -0.91448801917E+01  0.38002292887E+02 -0.11196525852E+02  0.50528864623E+02  0.30000014509E+02 0.  0.
         12    1    1    2    0    0  0.91448801917E+01 -0.38002292887E+02  0.11196525852E+02  0.40659135377E+02  0.00000000000E+00 0. -1.
         11    1    3    3    0    0 -0.26356118301E+01  0.18521750661E+02 -0.10352153473E+01  0.18736951949E+02  0.51100000000E-03 0. -1.
        -11    1    3    3    0    0 -0.12250935828E+02  0.11645103092E+02  0.10776211167E+01  0.16936797874E+02  0.51100000000E-03 0.  1.
         12    1    3    3    0    0  0.57416674667E+01  0.78354391341E+01 -0.11238931622E+02  0.14855114800E+02  0.00000000000E+00 0. -1.
</event>
<event>
 7    1  0.2969156E-011  0.5052886E+02  0.7816164E-02  0.1300439E+00
        -11   -1    0    0    0    0  0.00000000000E+00  0.00000000000E+00  0.45593999997E+02  0.45594000000E+02  0.51100000000E-03 0.  1.
         11   -1    0    0    0    0 -0.00000000000E+00 -0.00000000000E+00 -0.45593999997E+02  0.45594000000E+02  0.51100000000E-03 0. -1.
    9900012    2    1    2    0    0  0.14467314980E+02 -0.37039000478E+02  0.84838221706E+01  0.50528855915E+02  0.29999988038E+02 0.  0.
         12    1    1    2    0    0 -0.14467314980E+02  0.37039000478E+02 -0.84838221706E+01  0.40659144085E+02  0.00000000000E+00 0. -1.
         11    1    3    3    0    0 -0.49160454936E+01 -0.12647830053E+02 -0.50958703347E+01  0.14494930254E+02  0.51100000000E-03 0. -1.
        -11    1    3    3    0    0  0.91366490182E+01 -0.14456949899E+02  0.12052868041E+01  0.17144517264E+02  0.51100000000E-03 0.  1.
        -12    1    3    3    0    0  0.10246711455E+02 -0.99342205256E+01  0.12374405701E+02  0.18889408396E+02  0.00000000000E+00 0.  1.
</event>
<event>
 7    1  0.2969156E-011  0.5052887E+02  0.7816164E-02  0.1300439E+00
        -11   -1    0    0    0    0  0.00000000000E+00  0.00000000000E+00  0.45593999997E+02  0.45594000000E+02  0.51100000000E-03 0.  1.
         11   -1    0    0    0    0 -0.00000000000E+00 -0.00000000000E+00 -0.45593999997E+02  0.45594000000E+02  0.51100000000E-03 0. -1.
    9900012    2    1    2    0    0  0.79266965956E+01  0.26632961769E+02  0.29681942856E+02  0.50528869374E+02  0.30000028949E+02 0.  0.
         12    1    1    2    0    0 -0.79266965956E+01 -0.26632961769E+02 -0.29681942856E+02  0.40659130626E+02  0.00000000000E+00 0. -1.
         11    1    3    3    0    0 -0.17192638000E+01 -0.52980744278E+00  0.64942315361E+01  0.67388135043E+01  0.51100000000E-03 0. -1.
        -11    1    3    3    0    0 -0.71173193445E+01  0.86644092254E+01  0.12032387102E+02  0.16447083678E+02  0.51100000000E-03 0.  1.
         12    1    3    3    0    0  0.16763279740E+02  0.18498359987E+02  0.11155324218E+02  0.27342972191E+02  0.00000000000E+00 0. -1.
</event>
<event>
 7    1  0.2969156E-011  0.5052887E+02  0.7816164E-02  0.1300439E+00
        -11   -1    0    0    0    0  0.00000000000E+00  0.00000000000E+00  0.45593999997E+02  0.45594000000E+02  0.51100000000E-03 0.  1.
         11   -1    0    0    0    0 -0.00000000000E+00 -0.00000000000E+00 -0.45593999997E+02  0.45594000000E+02  0.51100000000E-03 0. -1.
    9900012    2    1    2    0    0  0.63384174573E-01  0.78124354655E+01  0.39901460592E+02  0.50528871592E+02  0.30000035692E+02 0.  0.
         12    1    1    2    0    0 -0.63384174573E-01 -0.78124354655E+01 -0.39901460592E+02  0.40659128408E+02  0.00000000000E+00 0. -1.
         11    1    3    3    0    0  0.43244547791E+00 -0.19392692980E+01  0.20247726968E+02  0.20344980269E+02  0.51100000000E-03 0.  1.
        -11    1    3    3    0    0 -0.39476694039E+01  0.14115429062E+02  0.19682485706E+02  0.24540368277E+02  0.51100000000E-03 0. -1.
         12    1    3    3    0    0  0.35786081005E+01 -0.43637242989E+01 -0.28752081990E-01  0.56435230465E+01  0.00000000000E+00 0. -1.
</event>
<event>
 7    1  0.2969156E-011  0.5052887E+02  0.7816164E-02  0.1300439E+00
        -11   -1    0    0    0    0  0.00000000000E+00  0.00000000000E+00  0.45593999997E+02  0.45594000000E+02  0.51100000000E-03 0.  1.
         11   -1    0    0    0    0 -0.00000000000E+00 -0.00000000000E+00 -0.45593999997E+02  0.45594000000E+02  0.51100000000E-03 0. -1.
    9900012    2    1    2    0    0  0.38371805175E+01  0.26981653044E+02  0.30173360142E+02  0.50528865509E+02  0.30000017201E+02 0.  0.
         12    1    1    2    0    0 -0.38371805175E+01 -0.26981653044E+02 -0.30173360142E+02  0.40659134491E+02  0.00000000000E+00 0. -1.
         11    1    3    3    0    0  0.63333009066E+01 -0.15737132181E+01 -0.84291984645E+00  0.65801054547E+01  0.51100000000E-03 0. -1.
        -11    1    3    3    0    0  0.22818649831E+01  0.28244025248E+01  0.91541065816E+01  0.98479350623E+01  0.51100000000E-03 0.  1.
        -12    1    3    3    0    0 -0.47779853722E+01  0.25730963737E+02  0.21862173407E+02  0.34100824992E+02  0.00000000000E+00 0.  1.
</event>
<event>
 7    1  0.2969156E-011  0.5052885E+02  0.7816164E-02  0.1300439E+00
        -11   -1    0    0    0    0  0.00000000000E+00  0.00000000000E+00  0.45593999997E+02  0.45594000000E+02  0.51100000000E-03 0.  1.
         11   -1    0    0    0    0 -0.00000000000E+00 -0.00000000000E+00 -0.45593999997E+02  0.45594000000E+02  0.51100000000E-03 0. -1.
    9900012    2    1    2    0    0 -0.38195290160E+02 -0.10584541827E+02 -0.90693763112E+01  0.50528852164E+02  0.29999976637E+02 0.  0.
         12    1    1    2    0    0  0.38195290160E+02  0.10584541827E+02  0.90693763112E+01  0.40659147836E+02  0.00000000000E+00 0. -1.
         11    1    3    3    0    0 -0.21239650490E+02  0.38752481125E+01 -0.22214950895E+01  0.21704270122E+02  0.51100000000E-03 0. -1.
        -11    1    3    3    0    0 -0.18963863489E+02 -0.74384742660E+01 -0.69425414882E+01  0.21521103606E+02  0.51100000000E-03 0.  1.
         12    1    3    3    0    0  0.20082238184E+01 -0.70213156735E+01  0.94660266528E-01  0.73034784355E+01  0.00000000000E+00 0. -1.
</event>
<event>
 7    1  0.2969156E-011  0.5052886E+02  0.7816164E-02  0.1300439E+00
        -11   -1    0    0    0    0  0.00000000000E+00  0.00000000000E+00  0.45593999997E+02  0.45594000000E+02  0.51100000000E-03 0. -1.
         11   -1    0    0    0    0 -0.00000000000E+00 -0.00000000000E+00 -0.45593999997E+02  0.45594000000E+02  0.51100000000E-03 0.  1.
    9900012    2    1    2    0    0 -0.25776786473E+02  0.83965228184E+01 -0.30302166247E+02  0.50528860861E+02  0.30000003072E+02 0.  0.
         12    1    1    2    0    0  0.25776786473E+02 -0.83965228184E+01  0.30302166247E+02  0.40659139139E+02  0.00000000000E+00 0. -1.
         11    1    3    3    0    0 -0.17316186310E+01  0.96707699925E+01 -0.55093556561E+01  0.11263893436E+02  0.51100000000E-03 0. -1.
        -11    1    3    3    0    0 -0.60906605579E+01  0.64847684138E+01 -0.17973774548E+01  0.90762841179E+01  0.51100000000E-03 0.  1.
        -12    1    3    3    0    0 -0.17954507284E+02 -0.77590155879E+01 -0.22995433136E+02  0.30188683307E+02  0.00000000000E+00 0.  1.
</event>
<event>
 7    1  0.2969156E-011  0.5052885E+02  0.7816164E-02  0.1300439E+00
        -11   -1    0    0    0    0  0.00000000000E+00  0.00000000000E+00  0.45593999997E+02  0.45594000000E+02  0.51100000000E-03 0.  1.
         11   -1    0    0    0    0 -0.00000000000E+00 -0.00000000000E+00 -0.45593999997E+02  0.45594000000E+02  0.51100000000E-03 0. -1.
    9900012    2    1    2    0    0  0.18178842800E+02 -0.11714444044E+02  0.34430620564E+02  0.50528853954E+02  0.29999982077E+02 0.  0.
         12    1    1    2    0    0 -0.18178842800E+02  0.11714444044E+02 -0.34430620564E+02  0.40659146046E+02  0.00000000000E+00 0. -1.
         11    1    3    3    0    0  0.10787777592E+02  0.45110139932E+01  0.13187538853E+02  0.17624885074E+02  0.51100000000E-03 0.  1.
        -11    1    3    3    0    0  0.78573868456E+01 -0.78139151742E+01  0.11800411645E+01  0.11143980250E+02  0.51100000000E-03 0. -1.
         12    1    3    3    0    0 -0.46632163757E+00 -0.84115428632E+01  0.20063040547E+02  0.21759988630E+02  0.00000000000E+00 0. -1.
</event>
<event>
 7    1  0.2969156E-011  0.5052883E+02  0.7816164E-02  0.1300439E+00
        -11   -1    0    0    0    0  0.00000000000E+00  0.00000000000E+00  0.45593999997E+02  0.45594000000E+02  0.51100000000E-03 0. -1.
         11   -1    0    0    0    0 -0.00000000000E+00 -0.00000000000E+00 -0.45593999997E+02  0.45594000000E+02  0.51100000000E-03 0.  1.
    9900012    2    1    2    0    0  0.98369163460E+01 -0.39320424073E+02  0.32104991111E+01  0.50528831575E+02  0.29999914055E+02 0.  0.
         12    1    1    2    0    0 -0.98369163460E+01  0.39320424073E+02 -0.32104991111E+01  0.40659168425E+02  0.00000000000E+00 0. -1.
         11    1    3    3    0    0 -0.57517632157E+01 -0.13128401262E+02  0.37226297238E+00  0.14337931503E+02  0.51100000000E-03 0. -1.
        -11    1    3    3    0    0 -0.38850108197E+01 -0.19666757454E+01 -0.18979829628E+01  0.47501012773E+01  0.51100000000E-03 0.  1.
        -12    1    3    3    0    0  0.19473690381E+02 -0.24225347065E+02  0.47362191015E+01  0.31440798795E+02  0.00000000000E+00 0.  1.
</event>
<event>
 7    1  0.2969156E-011  0.5052875E+02  0.7816164E-02  0.1300439E+00
        -11   -1    0    0    0    0  0.00000000000E+00  0.00000000000E+00  0.45593999997E+02  0.45594000000E+02  0.51100000000E-03 0.  1.
         11   -1    0    0    0    0 -0.00000000000E+00 -0.00000000000E+00 -0.45593999997E+02  0.45594000000E+02  0.51100000000E-03 0. -1.
    9900012    2    1    2    0    0 -0.34720247044E+02  0.14503908555E+02  0.15405053200E+02  0.50528750348E+02  0.29999667157E+02 0.  0.
         12    1    1    2    0    0  0.34720247044E+02 -0.14503908555E+02 -0.15405053200E+02  0.40659249652E+02  0.00000000000E+00 0. -1.
         11    1    3    3    0    0 -0.18642658328E+02  0.14484018490E+02 -0.99711883075E+00  0.23629002250E+02  0.51100000000E-03 0. -1.
        -11    1    3    3    0    0 -0.14543538351E+02  0.55588404518E+01  0.11765896926E+02  0.19515418152E+02  0.51100000000E-03 0.  1.
        -12    1    3    3    0    0 -0.15340503654E+01 -0.55389503860E+01  0.46362751048E+01  0.73843299459E+01  0.00000000000E+00 0.  1.
</event>
<event>
 7    1  0.2969156E-011  0.5052887E+02  0.7816164E-02  0.1300439E+00
        -11   -1    0    0    0    0  0.00000000000E+00  0.00000000000E+00  0.45593999997E+02  0.45594000000E+02  0.51100000000E-03 0.  1.
         11   -1    0    0    0    0 -0.00000000000E+00 -0.00000000000E+00 -0.45593999997E+02  0.45594000000E+02  0.51100000000E-03 0. -1.
    9900012    2    1    2    0    0  0.15720411567E+01 -0.17078030424E+02  0.36865088445E+02  0.50528865939E+02  0.30000018508E+02 0.  0.
         12    1    1    2    0    0 -0.15720411567E+01  0.17078030424E+02 -0.36865088445E+02  0.40659134061E+02  0.00000000000E+00 0. -1.
         11    1    3    3    0    0 -0.21705854745E+01  0.49254613466E+01  0.44161196797E+01  0.69623073808E+01  0.51100000000E-03 0. -1.
        -11    1    3    3    0    0  0.66391908117E+01 -0.98617731515E+00  0.32069209134E+01  0.74387997914E+01  0.51100000000E-03 0.  1.
        -12    1    3    3    0    0 -0.28965641805E+01 -0.21017314455E+02  0.29242047851E+02  0.36127758767E+02  0.00000000000E+00 0.  1.
</event>
<event>
 7    1  0.2969156E-011  0.5052887E+02  0.7816164E-02  0.1300439E+00
        -11   -1    0    0    0    0  0.00000000000E+00  0.00000000000E+00  0.45593999997E+02  0.45594000000E+02  0.51100000000E-03 0. -1.
         11   -1    0    0    0    0 -0.00000000000E+00 -0.00000000000E+00 -0.45593999997E+02  0.45594000000E+02  0.51100000000E-03 0.  1.
    9900012    2    1    2    0    0  0.33419211977E+02  0.22159515651E+02 -0.67288470022E+01  0.50528865171E+02  0.30000016174E+02 0.  0.
         12    1    1    2    0    0 -0.33419211977E+02 -0.22159515651E+02  0.67288470022E+01  0.40659134829E+02  0.00000000000E+00 0. -1.
         11    1    3    3    0    0  0.10250375753E+02  0.70446246058E+01  0.81089196944E+01  0.14847609834E+02  0.51100000000E-03 0. -1.
        -11    1    3    3    0    0  0.51271553515E+01  0.71320040252E+01  0.27984828220E+01  0.92187151914E+01  0.51100000000E-03 0.  1.
         12    1    3    3    0    0  0.18041680872E+02  0.79828870200E+01 -0.17636249519E+02  0.26462540145E+02  0.00000000000E+00 0. -1.
</event>
<event>
 7    1  0.2969156E-011  0.5052885E+02  0.7816164E-02  0.1300439E+00
        -11   -1    0    0    0    0  0.00000000000E+00  0.00000000000E+00  0.45593999997E+02  0.45594000000E+02  0.51100000000E-03 0.  1.
         11   -1    0    0    0    0 -0.00000000000E+00 -0.00000000000E+00 -0.45593999997E+02  0.45594000000E+02  0.51100000000E-03 0. -1.
    9900012    2    1    2    0    0  0.14673129292E+02 -0.34195334780E+02  0.16387337397E+02  0.50528850096E+02  0.29999970352E+02 0.  0.
         12    1    1    2    0    0 -0.14673129292E+02  0.34195334780E+02 -0.16387337397E+02  0.40659149904E+02  0.00000000000E+00 0. -1.
         11    1    3    3    0    0 -0.89009945127E+01 -0.10027283245E+02  0.42584416545E+01  0.14067993396E+02  0.51100000000E-03 0. -1.
        -11    1    3    3    0    0  0.36177406194E+01 -0.34211829624E+01 -0.54205041176E+00  0.50086284511E+01  0.51100000000E-03 0.  1.
         12    1    3    3    0    0  0.19956383185E+02 -0.20746868573E+02  0.12670946155E+02  0.31452228249E+02  0.00000000000E+00 0. -1.
</event>
<event>
 7    1  0.2969156E-011  0.5052887E+02  0.7816164E-02  0.1300439E+00
        -11   -1    0    0    0    0  0.00000000000E+00  0.00000000000E+00  0.45593999997E+02  0.45594000000E+02  0.51100000000E-03 0. -1.
         11   -1    0    0    0    0 -0.00000000000E+00 -0.00000000000E+00 -0.45593999997E+02  0.45594000000E+02  0.51100000000E-03 0.  1.
    9900012    2    1    2    0    0 -0.20436031688E+01 -0.38073847387E+02  0.14119875024E+02  0.50528867699E+02  0.30000023859E+02 0.  0.
         12    1    1    2    0    0  0.20436031688E+01  0.38073847387E+02 -0.14119875024E+02  0.40659132301E+02  0.00000000000E+00 0. -1.
         11    1    3    3    0    0  0.71930666729E+01 -0.16782971006E+02  0.74483460315E+01  0.19720197332E+02  0.51100000000E-03 0. -1.
        -11    1    3    3    0    0  0.28158007029E+01 -0.10043615732E+02  0.94690058496E+01  0.14087761448E+02  0.51100000000E-03 0.  1.
        -12    1    3    3    0    0 -0.12052470545E+02 -0.11247260649E+02 -0.27974768566E+01  0.16720908920E+02  0.00000000000E+00 0.  1.
</event>
<event>
 7    1  0.2969156E-011  0.5052887E+02  0.7816164E-02  0.1300439E+00
        -11   -1    0    0    0    0  0.00000000000E+00  0.00000000000E+00  0.45593999997E+02  0.45594000000E+02  0.51100000000E-03 0.  1.
         11   -1    0    0    0    0 -0.00000000000E+00 -0.00000000000E+00 -0.45593999997E+02  0.45594000000E+02  0.51100000000E-03 0. -1.
    9900012    2    1    2    0    0 -0.22088754592E+02  0.34051406258E+02  0.23986255147E+01  0.50528871235E+02  0.30000034607E+02 0.  0.
         12    1    1    2    0    0  0.22088754592E+02 -0.34051406258E+02 -0.23986255147E+01  0.40659128765E+02  0.00000000000E+00 0. -1.
         11    1    3    3    0    0 -0.10888118400E+02  0.59403226013E+01 -0.48482341396E+01  0.13317054082E+02  0.51100000000E-03 0. -1.
        -11    1    3    3    0    0 -0.47726300315E+01  0.43281738226E+00  0.73766841923E+01  0.87966356204E+01  0.51100000000E-03 0.  1.
        -12    1    3    3    0    0 -0.64280061603E+01  0.27678266274E+02 -0.12982453796E+00  0.28415181533E+02  0.00000000000E+00 0.  1.
</event>
<event>
 7    1  0.2969156E-011  0.5052890E+02  0.7816164E-02  0.1300439E+00
        -11   -1    0    0    0    0  0.00000000000E+00  0.00000000000E+00  0.45593999997E+02  0.45594000000E+02  0.51100000000E-03 0.  1.
         11   -1    0    0    0    0 -0.00000000000E+00 -0.00000000000E+00 -0.45593999997E+02  0.45594000000E+02  0.51100000000E-03 0. -1.
    9900012    2    1    2    0    0 -0.27412719344E+02  0.23104338653E+02  0.19180578960E+02  0.50528901932E+02  0.30000127913E+02 0.  0.
         12    1    1    2    0    0  0.27412719344E+02 -0.23104338653E+02 -0.19180578960E+02  0.40659098068E+02  0.00000000000E+00 0. -1.
         11    1    3    3    0    0 -0.59008645688E+01  0.47251436706E+01  0.46916586110E+01  0.88971257241E+01  0.51100000000E-03 0. -1.
        -11    1    3    3    0    0 -0.25788736555E+02  0.19556185712E+02  0.72901352166E+01  0.33176036600E+02  0.51100000000E-03 0.  1.
         12    1    3    3    0    0  0.42768817798E+01 -0.11769907299E+01  0.71987851327E+01  0.84557396083E+01  0.00000000000E+00 0. -1.
</event>
<event>
 7    1  0.2969156E-011  0.5052886E+02  0.7816164E-02  0.1300439E+00
        -11   -1    0    0    0    0  0.00000000000E+00  0.00000000000E+00  0.45593999997E+02  0.45594000000E+02  0.51100000000E-03 0. -1.
         11   -1    0    0    0    0 -0.00000000000E+00 -0.00000000000E+00 -0.45593999997E+02  0.45594000000E+02  0.51100000000E-03 0.  1.
    9900012    2    1    2    0    0 -0.21332999320E+02  0.27324813589E+02  0.21246720547E+02  0.50528862876E+02  0.30000009199E+02 0.  0.
         12    1    1    2    0    0  0.21332999320E+02 -0.27324813589E+02 -0.21246720547E+02  0.40659137124E+02  0.00000000000E+00 0. -1.
         11    1    3    3    0    0  0.30819996183E+01  0.18619928409E+02  0.94573229540E+01  0.21110220589E+02  0.51100000000E-03 0. -1.
        -11    1    3    3    0    0 -0.10635840427E+02  0.77033539833E+01  0.54613287635E+01  0.14222829405E+02  0.51100000000E-03 0.  1.
        -12    1    3    3    0    0 -0.13779158512E+02  0.10015311959E+01  0.63280688293E+01  0.15195812882E+02  0.00000000000E+00 0.  1.
</event>
<event>
 7    1  0.2969156E-011  0.5052885E+02  0.7816164E-02  0.1300439E+00
        -11   -1    0    0    0    0  0.00000000000E+00  0.00000000000E+00  0.45593999997E+02  0.45594000000E+02  0.51100000000E-03 0.  1.
         11   -1    0    0    0    0 -0.00000000000E+00 -0.00000000000E+00 -0.45593999997E+02  0.45594000000E+02  0.51100000000E-03 0. -1.
    9900012    2    1    2    0    0 -0.20607412719E+02 -0.32017486199E+02  0.14261201706E+02  0.50528846596E+02  0.29999959713E+02 0.  0.
         12    1    1    2    0    0  0.20607412719E+02  0.32017486199E+02 -0.14261201706E+02  0.40659153404E+02  0.00000000000E+00 0. -1.
         11    1    3    3    0    0  0.21143357976E+01  0.98498021298E+00  0.24446423800E+01  0.33788871707E+01  0.51100000000E-03 0. -1.
        -11    1    3    3    0    0 -0.38543733122E+01 -0.21328070815E+02 -0.68266065123E+00  0.21684299024E+02  0.51100000000E-03 0.  1.
         12    1    3    3    0    0 -0.18867375204E+02 -0.11674395596E+02  0.12499219977E+02  0.25465660401E+02  0.00000000000E+00 0. -1.
</event>
<event>
 7    1  0.4659601E-011  0.5052886E+02  0.7816164E-02  0.1300439E+00
        -11   -1    0    0    0    0  0.00000000000E+00  0.00000000000E+00  0.45593999997E+02  0.45594000000E+02  0.51100000000E-03 0. -1.
         11   -1    0    0    0    0 -0.00000000000E+00 -0.00000000000E+00 -0.45593999997E+02  0.45594000000E+02  0.51100000000E-03 0.  1.
    9900012    2    1    2    0    0  0.18779638172E+02 -0.14919534274E+02 -0.32831358937E+02  0.50528862743E+02  0.30000008794E+02 0.  0.
         12    1    1    2    0    0 -0.18779638172E+02  0.14919534274E+02  0.32831358937E+02  0.40659137257E+02  0.00000000000E+00 0. -1.
         11    1    3    3    0    0  0.42133084511E-02  0.61231701459E+01 -0.21788974456E+01  0.64992941714E+01  0.51100000000E-03 0. -1.
        -11    1    3    3    0    0  0.22175099232E+00 -0.84559579524E+01 -0.44968409199E+01  0.95798735334E+01  0.51100000000E-03 0.  1.
        -12    1    3    3    0    0  0.18553673871E+02 -0.12586746467E+02 -0.26155620572E+02  0.34449695038E+02  0.00000000000E+00 0.  1.
</event>
<event>
 7    1  0.2969156E-011  0.5052885E+02  0.7816164E-02  0.1300439E+00
        -11   -1    0    0    0    0  0.00000000000E+00  0.00000000000E+00  0.45593999997E+02  0.45594000000E+02  0.51100000000E-03 0.  1.
         11   -1    0    0    0    0 -0.00000000000E+00 -0.00000000000E+00 -0.45593999997E+02  0.45594000000E+02  0.51100000000E-03 0. -1.
    9900012    2    1    2    0    0 -0.17712093187E+02 -0.81843032033E+01  0.35671629564E+02  0.50528853185E+02  0.29999979740E+02 0.  0.
         12    1    1    2    0    0  0.17712093187E+02  0.81843032033E+01 -0.35671629564E+02  0.40659146815E+02  0.00000000000E+00 0. -1.
         11    1    3    3    0    0  0.86380767674E+00  0.50721049547E+01 -0.95544485740E+00  0.52330954043E+01  0.51100000000E-03 0. -1.
        -11    1    3    3    0    0  0.17622854252E+01 -0.27220040447E+01  0.80085209744E+01  0.86401021058E+01  0.51100000000E-03 0.  1.
         12    1    3    3    0    0 -0.20338186288E+02 -0.10534404113E+02  0.28618553447E+02  0.36655655675E+02  0.00000000000E+00 0. -1.
</event>
<event>
 7    1  0.2969156E-011  0.5052884E+02  0.7816164E-02  0.1300439E+00
        -11   -1    0    0    0    0  0.00000000000E+00  0.00000000000E+00  0.45593999997E+02  0.45594000000E+02  0.51100000000E-03 0. -1.
         11   -1    0    0    0    0 -0.00000000000E+00 -0.00000000000E+00 -0.45593999997E+02  0.45594000000E+02  0.51100000000E-03 0.  1.
    9900012    2    1    2    0    0  0.36174022288E+02  0.18561848162E+02  0.25524126770E+00  0.50528840592E+02  0.29999941463E+02 0.  0.
         12    1    1    2    0    0 -0.36174022288E+02 -0.18561848162E+02 -0.25524126770E+00  0.40659159408E+02  0.00000000000E+00 0. -1.
         11    1    3    3    0    0  0.21252125675E+02  0.15708054283E+02  0.27336954062E+01  0.26568193501E+02  0.51100000000E-03 0.  1.
        -11    1    3    3    0    0  0.97788774272E+00 -0.16636837762E+01  0.64941947404E+01  0.67748559935E+01  0.51100000000E-03 0. -1.
         12    1    3    3    0    0  0.13944008870E+02  0.45174776553E+01 -0.89726488789E+01  0.17185791097E+02  0.00000000000E+00 0. -1.
</event>
<event>
 7    1  0.2969156E-011  0.5052886E+02  0.7816164E-02  0.1300439E+00
        -11   -1    0    0    0    0  0.00000000000E+00  0.00000000000E+00  0.45593999997E+02  0.45594000000E+02  0.51100000000E-03 0.  1.
         11   -1    0    0    0    0 -0.00000000000E+00 -0.00000000000E+00 -0.45593999997E+02  0.45594000000E+02  0.51100000000E-03 0. -1.
    9900012    2    1    2    0    0  0.31607648689E+01 -0.22903824101E+02  0.33445328302E+02  0.50528861073E+02  0.30000003719E+02 0.  0.
         12    1    1    2    0    0 -0.31607648689E+01  0.22903824101E+02 -0.33445328302E+02  0.40659138927E+02  0.00000000000E+00 0. -1.
         11    1    3    3    0    0  0.30993566462E+01  0.11866631599E+01  0.45516226363E+00  0.33498289543E+01  0.51100000000E-03 0. -1.
        -11    1    3    3    0    0 -0.32099528619E+00 -0.29498527278E+01  0.24033757940E+02  0.24216238148E+02  0.51100000000E-03 0.  1.
        -12    1    3    3    0    0  0.38240350884E+00 -0.21140634533E+02  0.89564080990E+01  0.22962793971E+02  0.00000000000E+00 0.  1.
</event>
<event>
 7    1  0.2969156E-011  0.5052886E+02  0.7816164E-02  0.1300439E+00
        -11   -1    0    0    0    0  0.00000000000E+00  0.00000000000E+00  0.45593999997E+02  0.45594000000E+02  0.51100000000E-03 0.  1.
         11   -1    0    0    0    0 -0.00000000000E+00 -0.00000000000E+00 -0.45593999997E+02  0.45594000000E+02  0.51100000000E-03 0. -1.
    9900012    2    1    2    0    0 -0.21040327758E+02 -0.33894807036E+02  0.78493428528E+01  0.50528861797E+02  0.30000005919E+02 0.  0.
         12    1    1    2    0    0  0.21040327758E+02  0.33894807036E+02 -0.78493428528E+01  0.40659138203E+02  0.00000000000E+00 0. -1.
         11    1    3    3    0    0 -0.16364536173E+02 -0.14649800933E+02  0.32198230784E+01  0.22198693035E+02  0.51100000000E-03 0. -1.
        -11    1    3    3    0    0 -0.57534027966E+01 -0.22159698239E+02  0.75082687196E+01  0.24094148028E+02  0.51100000000E-03 0.  1.
         12    1    3    3    0    0  0.10776112115E+01  0.29146921361E+01 -0.28787489452E+01  0.42360207343E+01  0.00000000000E+00 0. -1.
</event>
<event>
 7    1  0.2969156E-011  0.5052886E+02  0.7816164E-02  0.1300439E+00
        -11   -1    0    0    0    0  0.00000000000E+00  0.00000000000E+00  0.45593999997E+02  0.45594000000E+02  0.51100000000E-03 0.  1.
         11   -1    0    0    0    0 -0.00000000000E+00 -0.00000000000E+00 -0.45593999997E+02  0.45594000000E+02  0.51100000000E-03 0. -1.
    9900012    2    1    2    0    0  0.32750092793E+02 -0.20995056272E+02  0.11823895749E+02  0.50528862324E+02  0.30000007521E+02 0.  0.
         12    1    1    2    0    0 -0.32750092793E+02  0.20995056272E+02 -0.11823895749E+02  0.40659137676E+02  0.00000000000E+00 0. -1.
         11    1    3    3    0    0  0.19164548992E+02 -0.96923543920E+01  0.59597459093E+01  0.22287670208E+02  0.51100000000E-03 0. -1.
        -11    1    3    3    0    0  0.26035710551E+00 -0.64556025575E+01  0.11331721920E+02  0.13044175410E+02  0.51100000000E-03 0.  1.
         12    1    3    3    0    0  0.13325186696E+02 -0.48470993228E+01 -0.54675720803E+01  0.15197016707E+02  0.00000000000E+00 0. -1.
</event>
<event>
 7    1  0.2969156E-011  0.5052893E+02  0.7816164E-02  0.1300439E+00
        -11   -1    0    0    0    0  0.00000000000E+00  0.00000000000E+00  0.45593999997E+02  0.45594000000E+02  0.51100000000E-03 0. -1.
         11   -1    0    0    0    0 -0.00000000000E+00 -0.00000000000E+00 -0.45593999997E+02  0.45594000000E+02  0.51100000000E-03 0.  1.
    9900012    2    1    2    0    0 -0.65301418636E+01 -0.38238358982E+02  0.12179688210E+02  0.50528933911E+02  0.30000225114E+02 0.  0.
         12    1    1    2    0    0  0.65301418636E+01  0.38238358982E+02 -0.12179688210E+02  0.40659066089E+02  0.00000000000E+00 0. -1.
         11    1    3    3    0    0  0.36221693908E+01 -0.16396681762E+02  0.21143804655E+01  0.16924594203E+02  0.51100000000E-03 0.  1.
        -11    1    3    3    0    0  0.14304080178E+01  0.40025992858E-01  0.86910132843E+01  0.88080293680E+01  0.51100000000E-03 0. -1.
         12    1    3    3    0    0 -0.11582719272E+02 -0.21881703212E+02  0.13742944603E+01  0.24796310340E+02  0.00000000000E+00 0. -1.
</event>
<event>
 7    1  0.2969156E-011  0.5052886E+02  0.7816164E-02  0.1300439E+00
        -11   -1    0    0    0    0  0.00000000000E+00  0.00000000000E+00  0.45593999997E+02  0.45594000000E+02  0.51100000000E-03 0.  1.
         11   -1    0    0    0    0 -0.00000000000E+00 -0.00000000000E+00 -0.45593999997E+02  0.45594000000E+02  0.51100000000E-03 0. -1.
    9900012    2    1    2    0    0  0.13124189457E+02  0.38479284968E+02  0.51569584699E+00  0.50528860034E+02  0.30000000559E+02 0.  0.
         12    1    1    2    0    0 -0.13124189457E+02 -0.38479284968E+02 -0.51569584699E+00  0.40659139966E+02  0.00000000000E+00 0. -1.
         11    1    3    3    0    0 -0.14133029323E+01  0.44639410420E+01 -0.83532048552E+01  0.95760235181E+01  0.51100000000E-03 0. -1.
        -11    1    3    3    0    0  0.10343674823E+02  0.12746303345E+02 -0.22843829922E+01  0.16573420399E+02  0.51100000000E-03 0.  1.
        -12    1    3    3    0    0  0.41938175657E+01  0.21269040582E+02  0.11153283694E+02  0.24379416117E+02  0.00000000000E+00 0.  1.
</event>
<event>
 7    1  0.2969156E-011  0.5052887E+02  0.7816164E-02  0.1300439E+00
        -11   -1    0    0    0    0  0.00000000000E+00  0.00000000000E+00  0.45593999997E+02  0.45594000000E+02  0.51100000000E-03 0.  1.
         11   -1    0    0    0    0 -0.00000000000E+00 -0.00000000000E+00 -0.45593999997E+02  0.45594000000E+02  0.51100000000E-03 0. -1.
    9900012    2    1    2    0    0  0.26387902991E+02  0.29525539795E+02  0.92242096001E+01  0.50528868588E+02  0.30000026559E+02 0.  0.
         12    1    1    2    0    0 -0.26387902991E+02 -0.29525539795E+02 -0.92242096001E+01  0.40659131412E+02  0.00000000000E+00 0. -1.
         11    1    3    3    0    0  0.25501826835E+02  0.24900981253E+02  0.73942451722E+01  0.36401605750E+02  0.51100000000E-03 0.  1.
        -11    1    3    3    0    0  0.53058984646E+01  0.58424089765E+01 -0.20132800253E+01  0.81449123928E+01  0.51100000000E-03 0. -1.
        -12    1    3    3    0    0 -0.44198223077E+01 -0.12178504347E+01  0.38432444532E+01  0.59823504444E+01  0.00000000000E+00 0.  1.
</event>
<event>
 7    1  0.2969156E-011  0.5052886E+02  0.7816164E-02  0.1300439E+00
        -11   -1    0    0    0    0  0.00000000000E+00  0.00000000000E+00  0.45593999997E+02  0.45594000000E+02  0.51100000000E-03 0.  1.
         11   -1    0    0    0    0 -0.00000000000E+00 -0.00000000000E+00 -0.45593999997E+02  0.45594000000E+02  0.51100000000E-03 0. -1.
    9900012    2    1    2    0    0  0.15164683759E+02 -0.24424121065E+02  0.28751705502E+02  0.50528857208E+02  0.29999991969E+02 0.  0.
         12    1    1    2    0    0 -0.15164683759E+02  0.24424121065E+02 -0.28751705502E+02  0.40659142792E+02  0.00000000000E+00 0. -1.
         11    1    3    3    0    0  0.82249347944E+00  0.59371178407E+00 -0.16571433254E+01  0.19429651228E+01  0.51100000000E-03 0. -1.
        -11    1    3    3    0    0 -0.62107811749E+01 -0.86802850415E+01  0.14075685880E+02  0.17664826194E+02  0.51100000000E-03 0.  1.
        -12    1    3    3    0    0  0.20552971455E+02 -0.16337547808E+02  0.16333162947E+02  0.30921065891E+02  0.00000000000E+00 0.  1.
</event>
<event>
 7    1  0.2969156E-011  0.5052887E+02  0.7816164E-02  0.1300439E+00
        -11   -1    0    0    0    0  0.00000000000E+00  0.00000000000E+00  0.45593999997E+02  0.45594000000E+02  0.51100000000E-03 0.  1.
         11   -1    0    0    0    0 -0.00000000000E+00 -0.00000000000E+00 -0.45593999997E+02  0.45594000000E+02  0.51100000000E-03 0. -1.
    9900012    2    1    2    0    0 -0.24367058593E+02 -0.18159984122E+02  0.27011593166E+02  0.50528871466E+02  0.30000035307E+02 0.  0.
         12    1    1    2    0    0  0.24367058593E+02  0.18159984122E+02 -0.27011593166E+02  0.40659128534E+02  0.00000000000E+00 0. -1.
         11    1    3    3    0    0  0.49367923695E+01 -0.63906611392E+01  0.71809978447E+01  0.10806442477E+02  0.51100000000E-03 0. -1.
        -11    1    3    3    0    0 -0.59259230063E+01 -0.25838144420E+00  0.10470978138E+02  0.12034313768E+02  0.51100000000E-03 0.  1.
        -12    1    3    3    0    0 -0.23377927956E+02 -0.11510941539E+02  0.93596171833E+01  0.27688115221E+02  0.00000000000E+00 0.  1.
</event>
<event>
 7    1  0.2969156E-011  0.5052886E+02  0.7816164E-02  0.1300439E+00
        -11   -1    0    0    0    0  0.00000000000E+00  0.00000000000E+00  0.45593999997E+02  0.45594000000E+02  0.51100000000E-03 0.  1.
         11   -1    0    0    0    0 -0.00000000000E+00 -0.00000000000E+00 -0.45593999997E+02  0.45594000000E+02  0.51100000000E-03 0. -1.
    9900012    2    1    2    0    0 -0.40147426899E+02  0.55494853116E+01  0.32485269332E+01  0.50528860793E+02  0.30000002865E+02 0.  0.
         12    1    1    2    0    0  0.40147426899E+02 -0.55494853116E+01 -0.32485269332E+01  0.40659139207E+02  0.00000000000E+00 0. -1.
         11    1    3    3    0    0 -0.22696263547E+01 -0.81859284804E+01 -0.14212847137E+01  0.86128206398E+01  0.51100000000E-03 0. -1.
        -11    1    3    3    0    0 -0.14127957536E+02  0.54231425477E+00  0.41802432452E+01  0.14743395903E+02  0.51100000000E-03 0.  1.
        -12    1    3    3    0    0 -0.23749843008E+02  0.13193099537E+02  0.48956840169E+00  0.27172644250E+02  0.00000000000E+00 0.  1.
</event>
<event>
 7    1  0.2969156E-011  0.5052887E+02  0.7816164E-02  0.1300439E+00
        -11   -1    0    0    0    0  0.00000000000E+00  0.00000000000E+00  0.45593999997E+02  0.45594000000E+02  0.51100000000E-03 0.  1.
         11   -1    0    0    0    0 -0.00000000000E+00 -0.00000000000E+00 -0.45593999997E+02  0.45594000000E+02  0.51100000000E-03 0. -1.
    9900012    2    1    2    0    0 -0.26870293638E+02 -0.25460097323E+02  0.16820699871E+02  0.50528865970E+02  0.30000018602E+02 0.  0.
         12    1    1    2    0    0  0.26870293638E+02  0.25460097323E+02 -0.16820699871E+02  0.40659134030E+02  0.00000000000E+00 0. -1.
         11    1    3    3    0    0 -0.14621998813E+01 -0.11386789338E+02  0.13369545312E+02  0.17622194587E+02  0.51100000000E-03 0. -1.
        -11    1    3    3    0    0 -0.59349537982E+01 -0.34792638586E+01 -0.56897976694E+01  0.89276397421E+01  0.51100000000E-03 0.  1.
        -12    1    3    3    0    0 -0.19473139959E+02 -0.10594044126E+02  0.91409522283E+01  0.23979031641E+02  0.00000000000E+00 0.  1.
</event>
<event>
 7    1  0.2969156E-011  0.5052886E+02  0.7816164E-02  0.1300439E+00
        -11   -1    0    0    0    0  0.00000000000E+00  0.00000000000E+00  0.45593999997E+02  0.45594000000E+02  0.51100000000E-03 0.  1.
         11   -1    0    0    0    0 -0.00000000000E+00 -0.00000000000E+00 -0.45593999997E+02  0.45594000000E+02  0.51100000000E-03 0. -1.
    9900012    2    1    2    0    0 -0.82447733826E+01 -0.51609126307E+01  0.39478534363E+02  0.50528856099E+02  0.29999988598E+02 0.  0.
         12    1    1    2    0    0  0.82447733826E+01  0.51609126307E+01 -0.39478534363E+02  0.40659143901E+02  0.00000000000E+00 0. -1.
         11    1    3    3    0    0  0.15779472776E+01 -0.22471406581E+01  0.50223546784E+01  0.57239501679E+01  0.51100000000E-03 0. -1.
        -11    1    3    3    0    0 -0.71248386068E+01 -0.17356566491E+01 -0.24878860053E+01  0.77437333512E+01  0.51100000000E-03 0.  1.
        -12    1    3    3    0    0 -0.26978820534E+01 -0.11781153235E+01  0.36944065690E+02  0.37061172580E+02  0.00000000000E+00 0.  1.
</event>
<event>
 7    1  0.2969156E-011  0.5052886E+02  0.7816164E-02  0.1300439E+00
        -11   -1    0    0    0    0  0.00000000000E+00  0.00000000000E+00  0.45593999997E+02  0.45594000000E+02  0.51100000000E-03 0.  1.
         11   -1    0    0    0    0 -0.00000000000E+00 -0.00000000000E+00 -0.45593999997E+02  0.45594000000E+02  0.51100000000E-03 0. -1.
    9900012    2    1    2    0    0  0.25147332586E+02 -0.68353541583E+01  0.31209864101E+02  0.50528855643E+02  0.29999987212E+02 0.  0.
         12    1    1    2    0    0 -0.25147332586E+02  0.68353541583E+01 -0.31209864101E+02  0.40659144357E+02  0.00000000000E+00 0. -1.
         11    1    3    3    0    0  0.92725508862E+01 -0.10571137988E+02  0.10171867139E+02  0.17355000422E+02  0.51100000000E-03 0. -1.
        -11    1    3    3    0    0  0.17342437390E+02 -0.34002917956E+01  0.18162058656E+02  0.25341319891E+02  0.51100000000E-03 0.  1.
         12    1    3    3    0    0 -0.14676556900E+01  0.71360756252E+01  0.28759383051E+01  0.78325353295E+01  0.00000000000E+00 0. -1.
</event>
<event>
 7    1  0.2969156E-011  0.5052885E+02  0.7816164E-02  0.1300439E+00
        -11   -1    0    0    0    0  0.00000000000E+00  0.00000000000E+00  0.45593999997E+02  0.45594000000E+02  0.51100000000E-03 0.  1.
         11   -1    0    0    0    0 -0.00000000000E+00 -0.00000000000E+00 -0.45593999997E+02  0.45594000000E+02  0.51100000000E-03 0. -1.
    9900012    2    1    2    0    0 -0.42474760438E+01 -0.14942715394E+02  0.37574464702E+02  0.50528853505E+02  0.29999980714E+02 0.  0.
         12    1    1    2    0    0  0.42474760438E+01  0.14942715394E+02 -0.37574464702E+02  0.40659146495E+02  0.00000000000E+00 0. -1.
         11    1    3    3    0    0 -0.92075180077E+01 -0.86797595093E+01  0.10349049061E+02  0.16346847700E+02  0.51100000000E-03 0. -1.
        -11    1    3    3    0    0  0.85158295622E+00 -0.12796844189E+02  0.18775259788E+02  0.22737519546E+02  0.51100000000E-03 0.  1.
        -12    1    3    3    0    0  0.41084590077E+01  0.65338883050E+01  0.84501558530E+01  0.11444486259E+02  0.00000000000E+00 0.  1.
</event>
<event>
 7    1  0.2969156E-011  0.5052886E+02  0.7816164E-02  0.1300439E+00
        -11   -1    0    0    0    0  0.00000000000E+00  0.00000000000E+00  0.45593999997E+02  0.45594000000E+02  0.51100000000E-03 0.  1.
         11   -1    0    0    0    0 -0.00000000000E+00 -0.00000000000E+00 -0.45593999997E+02  0.45594000000E+02  0.51100000000E-03 0. -1.
    9900012    2    1    2    0    0 -0.24243474466E+02  0.26650004836E+02  0.18846667534E+02  0.50528859710E+02  0.29999999575E+02 0.  0.
         12    1    1    2    0    0  0.24243474466E+02 -0.26650004836E+02 -0.18846667534E+02  0.40659140290E+02  0.00000000000E+00 0. -1.
         11    1    3    3    0    0  0.29260383750E+01  0.33553531978E+01 -0.50208346190E+00  0.44801990713E+01  0.51100000000E-03 0. -1.
        -11    1    3    3    0    0  0.16044409976E+01  0.37866045572E+01 -0.26657000859E+01  0.49008736157E+01  0.51100000000E-03 0.  1.
        -12    1    3    3    0    0 -0.28773953839E+02  0.19508047081E+02  0.22014451082E+02  0.41147787023E+02  0.00000000000E+00 0.  1.
</event>
<event>
 7    1  0.2969156E-011  0.5052888E+02  0.7816164E-02  0.1300439E+00
        -11   -1    0    0    0    0  0.00000000000E+00  0.00000000000E+00  0.45593999997E+02  0.45594000000E+02  0.51100000000E-03 0. -1.
         11   -1    0    0    0    0 -0.00000000000E+00 -0.00000000000E+00 -0.45593999997E+02  0.45594000000E+02  0.51100000000E-03 0.  1.
    9900012    2    1    2    0    0  0.27947691632E+02  0.29025583854E+02  0.54411756126E+01  0.50528875837E+02  0.30000048594E+02 0.  0.
         12    1    1    2    0    0 -0.27947691632E+02 -0.29025583854E+02 -0.54411756126E+01  0.40659124163E+02  0.00000000000E+00 0. -1.
         11    1    3    3    0    0 -0.23321731400E+00 -0.31461312268E+01 -0.11449207003E+01  0.33560953030E+01  0.51100000000E-03 0. -1.
        -11    1    3    3    0    0  0.10075654926E+02  0.10654815194E+02 -0.66392033431E+01  0.16097295745E+02  0.51100000000E-03 0.  1.
        -12    1    3    3    0    0  0.18105254021E+02  0.21516899887E+02  0.13225299656E+02  0.31075484789E+02  0.00000000000E+00 0.  1.
</event>
<event>
 7    1  0.2969156E-011  0.5052886E+02  0.7816164E-02  0.1300439E+00
        -11   -1    0    0    0    0  0.00000000000E+00  0.00000000000E+00  0.45593999997E+02  0.45594000000E+02  0.51100000000E-03 0.  1.
         11   -1    0    0    0    0 -0.00000000000E+00 -0.00000000000E+00 -0.45593999997E+02  0.45594000000E+02  0.51100000000E-03 0. -1.
    9900012    2    1    2    0    0 -0.11433708919E+02 -0.30224323289E+02  0.24676433967E+02  0.50528858208E+02  0.29999995010E+02 0.  0.
         12    1    1    2    0    0  0.11433708919E+02  0.30224323289E+02 -0.24676433967E+02  0.40659141792E+02  0.00000000000E+00 0. -1.
         11    1    3    3    0    0  0.19043242387E+01  0.15675759230E+01  0.77746853341E+01  0.81565603894E+01  0.51100000000E-03 0. -1.
        -11    1    3    3    0    0 -0.58657030122E+01 -0.21318709827E+02  0.19223259518E+02  0.29298934576E+02  0.51100000000E-03 0.  1.
        -12    1    3    3    0    0 -0.74723301456E+01 -0.10473189385E+02 -0.23215108856E+01  0.13073363243E+02  0.00000000000E+00 0.  1.
</event>
<event>
 7    1  0.2969156E-011  0.5052886E+02  0.7816164E-02  0.1300439E+00
        -11   -1    0    0    0    0  0.00000000000E+00  0.00000000000E+00  0.45593999997E+02  0.45594000000E+02  0.51100000000E-03 0.  1.
         11   -1    0    0    0    0 -0.00000000000E+00 -0.00000000000E+00 -0.45593999997E+02  0.45594000000E+02  0.51100000000E-03 0. -1.
    9900012    2    1    2    0    0  0.36864205925E+02  0.15055182707E+02  0.82181232766E+01  0.50528858899E+02  0.29999997110E+02 0.  0.
         12    1    1    2    0    0 -0.36864205925E+02 -0.15055182707E+02 -0.82181232766E+01  0.40659141101E+02  0.00000000000E+00 0. -1.
         11    1    3    3    0    0  0.84190213357E+00  0.41118481291E+01  0.66168426307E+01  0.78357323142E+01  0.51100000000E-03 0. -1.
        -11    1    3    3    0    0 -0.11777863952E+01  0.20553251437E+01  0.36945362847E+01  0.43887516288E+01  0.51100000000E-03 0.  1.
         12    1    3    3    0    0  0.37200090187E+02  0.88880094343E+01 -0.20932556388E+01  0.38304374956E+02  0.00000000000E+00 0. -1.
</event>
<event>
 7    1  0.2969156E-011  0.5052883E+02  0.7816164E-02  0.1300439E+00
        -11   -1    0    0    0    0  0.00000000000E+00  0.00000000000E+00  0.45593999997E+02  0.45594000000E+02  0.51100000000E-03 0.  1.
         11   -1    0    0    0    0 -0.00000000000E+00 -0.00000000000E+00 -0.45593999997E+02  0.45594000000E+02  0.51100000000E-03 0. -1.
    9900012    2    1    2    0    0  0.34943482236E+02 -0.12226651627E+02  0.16811610734E+02  0.50528828633E+02  0.29999905113E+02 0.  0.
         12    1    1    2    0    0 -0.34943482236E+02  0.12226651627E+02 -0.16811610734E+02  0.40659171367E+02  0.00000000000E+00 0. -1.
         11    1    3    3    0    0 -0.26481567595E+01 -0.46327208109E+01  0.82156348894E+00  0.53990557658E+01  0.51100000000E-03 0. -1.
        -11    1    3    3    0    0  0.85752769547E+01 -0.67261933367E+01  0.11344050598E+02  0.15731005559E+02  0.51100000000E-03 0.  1.
        -12    1    3    3    0    0  0.29016362041E+02 -0.86773747964E+00  0.46459966466E+01  0.29398767309E+02  0.00000000000E+00 0.  1.
</event>
<event>
 7    1  0.2969156E-011  0.5052886E+02  0.7816164E-02  0.1300439E+00
        -11   -1    0    0    0    0  0.00000000000E+00  0.00000000000E+00  0.45593999997E+02  0.45594000000E+02  0.51100000000E-03 0. -1.
         11   -1    0    0    0    0 -0.00000000000E+00 -0.00000000000E+00 -0.45593999997E+02  0.45594000000E+02  0.51100000000E-03 0.  1.
    9900012    2    1    2    0    0 -0.33936005021E+02  0.38894324876E+01 -0.22054148466E+02  0.50528860973E+02  0.30000003413E+02 0.  0.
         12    1    1    2    0    0  0.33936005021E+02 -0.38894324876E+01  0.22054148466E+02  0.40659139027E+02  0.00000000000E+00 0. -1.
         11    1    3    3    0    0 -0.15616661099E+02 -0.19766748983E+01 -0.57319049175E+01  0.16752375407E+02  0.51100000000E-03 0. -1.
        -11    1    3    3    0    0  0.35838081699E+00 -0.20140971278E+01 -0.13089404596E+02  0.13248303174E+02  0.51100000000E-03 0.  1.
         12    1    3    3    0    0 -0.18677724739E+02  0.78802045137E+01 -0.32328389521E+01  0.20528182391E+02  0.00000000000E+00 0. -1.
</event>
<event>
 7    1  0.2969156E-011  0.5052886E+02  0.7816164E-02  0.1300439E+00
        -11   -1    0    0    0    0  0.00000000000E+00  0.00000000000E+00  0.45593999997E+02  0.45594000000E+02  0.51100000000E-03 0.  1.
         11   -1    0    0    0    0 -0.00000000000E+00 -0.00000000000E+00 -0.45593999997E+02  0.45594000000E+02  0.51100000000E-03 0. -1.
    9900012    2    1    2    0    0 -0.38157055497E+02 -0.10790878303E+02 -0.89867454430E+01  0.50528861638E+02  0.30000005434E+02 0.  0.
         12    1    1    2    0    0  0.38157055497E+02  0.10790878303E+02  0.89867454430E+01  0.40659138362E+02  0.00000000000E+00 0. -1.
         11    1    3    3    0    0 -0.12246916179E+01 -0.60009310899E+00 -0.46037713989E+01  0.48015302408E+01  0.51100000000E-03 0. -1.
        -11    1    3    3    0    0  0.18304375905E+01  0.28116354623E+01 -0.34772481546E+01  0.48318785928E+01  0.51100000000E-03 0.  1.
        -12    1    3    3    0    0 -0.38762801469E+02 -0.13002420656E+02 -0.90572588948E+00  0.40895452804E+02  0.00000000000E+00 0.  1.
</event>
<event>
 7    1  0.2969156E-011  0.5052886E+02  0.7816164E-02  0.1300439E+00
        -11   -1    0    0    0    0  0.00000000000E+00  0.00000000000E+00  0.45593999997E+02  0.45594000000E+02  0.51100000000E-03 0.  1.
         11   -1    0    0    0    0 -0.00000000000E+00 -0.00000000000E+00 -0.45593999997E+02  0.45594000000E+02  0.51100000000E-03 0. -1.
    9900012    2    1    2    0    0  0.24282615415E+02 -0.21843086054E+02  0.24215697556E+02  0.50528858004E+02  0.29999994388E+02 0.  0.
         12    1    1    2    0    0 -0.24282615415E+02  0.21843086054E+02 -0.24215697556E+02  0.40659141996E+02  0.00000000000E+00 0. -1.
         11    1    3    3    0    0  0.13288690645E+02 -0.79945431899E+01  0.24163565363E+02  0.28712016843E+02  0.51100000000E-03 0.  1.
        -11    1    3    3    0    0  0.54744569558E+01 -0.17596387045E+01 -0.49796923516E+01  0.76067958767E+01  0.51100000000E-03 0. -1.
        -12    1    3    3    0    0  0.55194678148E+01 -0.12088904159E+02  0.50318245446E+01  0.14210045284E+02  0.00000000000E+00 0.  1.
</event>
<event>
 7    1  0.2969156E-011  0.5052886E+02  0.7816164E-02  0.1300439E+00
        -11   -1    0    0    0    0  0.00000000000E+00  0.00000000000E+00  0.45593999997E+02  0.45594000000E+02  0.51100000000E-03 0. -1.
         11   -1    0    0    0    0 -0.00000000000E+00 -0.00000000000E+00 -0.45593999997E+02  0.45594000000E+02  0.51100000000E-03 0.  1.
    9900012    2    1    2    0    0  0.22253006215E+02  0.85661709143E+01 -0.32933114328E+02  0.50528860940E+02  0.30000003314E+02 0.  0.
         12    1    1    2    0    0 -0.22253006215E+02 -0.85661709143E+01  0.32933114328E+02  0.40659139060E+02  0.00000000000E+00 0. -1.
         11    1    3    3    0    0  0.31398621782E+01  0.48022066760E+01  0.41845341082E+01  0.71014258724E+01  0.51100000000E-03 0. -1.
        -11    1    3    3    0    0 -0.74426918441E+00  0.13319712391E+00 -0.77743325572E+01  0.78110130626E+01  0.51100000000E-03 0.  1.
        -12    1    3    3    0    0  0.19857413221E+02  0.36307671144E+01 -0.29343315879E+02  0.35616422005E+02  0.00000000000E+00 0.  1.
</event>
<event>
 7    1  0.2969156E-011  0.5052886E+02  0.7816164E-02  0.1300439E+00
        -11   -1    0    0    0    0  0.00000000000E+00  0.00000000000E+00  0.45593999997E+02  0.45594000000E+02  0.51100000000E-03 0.  1.
         11   -1    0    0    0    0 -0.00000000000E+00 -0.00000000000E+00 -0.45593999997E+02  0.45594000000E+02  0.51100000000E-03 0. -1.
    9900012    2    1    2    0    0 -0.18239539552E+02  0.35400021143E+02  0.82050839518E+01  0.50528859543E+02  0.29999999068E+02 0.  0.
         12    1    1    2    0    0  0.18239539552E+02 -0.35400021143E+02 -0.82050839518E+01  0.40659140457E+02  0.00000000000E+00 0. -1.
         11    1    3    3    0    0 -0.17715790320E+02  0.11430439628E+02  0.37978441939E+01  0.21422600158E+02  0.51100000000E-03 0. -1.
        -11    1    3    3    0    0 -0.73001244590E+01  0.56543762837E+01  0.17401862894E+01  0.93963842438E+01  0.51100000000E-03 0.  1.
         12    1    3    3    0    0  0.67763752272E+01  0.18315205232E+02  0.26670534686E+01  0.19709875142E+02  0.00000000000E+00 0. -1.
</event>
<event>
 7    1  0.2969156E-011  0.5052886E+02  0.7816164E-02  0.1300439E+00
        -11   -1    0    0    0    0  0.00000000000E+00  0.00000000000E+00  0.45593999997E+02  0.45594000000E+02  0.51100000000E-03 0. -1.
         11   -1    0    0    0    0 -0.00000000000E+00 -0.00000000000E+00 -0.45593999997E+02  0.45594000000E+02  0.51100000000E-03 0.  1.
    9900012    2    1    2    0    0 -0.38459647697E+02 -0.14927604352E+01 -0.13106969743E+02  0.50528862153E+02  0.30000006999E+02 0.  0.
         12    1    1    2    0    0  0.38459647697E+02  0.14927604352E+01  0.13106969743E+02  0.40659137847E+02  0.00000000000E+00 0. -1.
         11    1    3    3    0    0 -0.35750066394E+01  0.48089391989E+01  0.50288127268E+01  0.78227569560E+01  0.51100000000E-03 0. -1.
        -11    1    3    3    0    0 -0.13402226550E+02  0.20371110737E+01 -0.13633975128E+02  0.19226408299E+02  0.51100000000E-03 0.  1.
        -12    1    3    3    0    0 -0.21482414507E+02 -0.83388107077E+01 -0.45018073413E+01  0.23479696897E+02  0.00000000000E+00 0.  1.
</event>
<event>
 7    1  0.2969156E-011  0.5052887E+02  0.7816164E-02  0.1300439E+00
        -11   -1    0    0    0    0  0.00000000000E+00  0.00000000000E+00  0.45593999997E+02  0.45594000000E+02  0.51100000000E-03 0.  1.
         11   -1    0    0    0    0 -0.00000000000E+00 -0.00000000000E+00 -0.45593999997E+02  0.45594000000E+02  0.51100000000E-03 0. -1.
    9900012    2    1    2    0    0  0.36657139969E+00 -0.21746873712E+02  0.34352646455E+02  0.50528865610E+02  0.30000017509E+02 0.  0.
         12    1    1    2    0    0 -0.36657139969E+00  0.21746873712E+02 -0.34352646455E+02  0.40659134390E+02  0.00000000000E+00 0. -1.
         11    1    3    3    0    0 -0.26589163511E+01 -0.10248211920E+02  0.14923169618E+02  0.18297449971E+02  0.51100000000E-03 0. -1.
        -11    1    3    3    0    0  0.96919163538E+01 -0.63098816712E+01  0.20677545562E+02  0.23691955176E+02  0.51100000000E-03 0.  1.
         12    1    3    3    0    0 -0.66664286031E+01 -0.51887801211E+01 -0.12480687252E+01  0.85394604635E+01  0.00000000000E+00 0. -1.
</event>
<event>
 7    1  0.2969156E-011  0.5052889E+02  0.7816164E-02  0.1300439E+00
        -11   -1    0    0    0    0  0.00000000000E+00  0.00000000000E+00  0.45593999997E+02  0.45594000000E+02  0.51100000000E-03 0.  1.
         11   -1    0    0    0    0 -0.00000000000E+00 -0.00000000000E+00 -0.45593999997E+02  0.45594000000E+02  0.51100000000E-03 0. -1.
    9900012    2    1    2    0    0 -0.27498756965E+01 -0.19887850618E+02  0.35356396731E+02  0.50528890217E+02  0.30000092305E+02 0.  0.
         12    1    1    2    0    0  0.27498756965E+01  0.19887850618E+02 -0.35356396731E+02  0.40659109783E+02  0.00000000000E+00 0. -1.
         11    1    3    3    0    0  0.75910016148E+01 -0.10200171822E+02  0.23039412224E+02  0.26315039932E+02  0.51100000000E-03 0. -1.
        -11    1    3    3    0    0 -0.18751497615E+01 -0.11405103355E+02  0.99658792724E+01  0.15261432406E+02  0.51100000000E-03 0.  1.
        -12    1    3    3    0    0 -0.84657275498E+01  0.17174245594E+01  0.23511052346E+01  0.89524178795E+01  0.00000000000E+00 0.  1.
</event>
<event>
 7    1  0.2969156E-011  0.5052886E+02  0.7816164E-02  0.1300439E+00
        -11   -1    0    0    0    0  0.00000000000E+00  0.00000000000E+00  0.45593999997E+02  0.45594000000E+02  0.51100000000E-03 0.  1.
         11   -1    0    0    0    0 -0.00000000000E+00 -0.00000000000E+00 -0.45593999997E+02  0.45594000000E+02  0.51100000000E-03 0. -1.
    9900012    2    1    2    0    0 -0.96958040205E+01  0.23858526719E+02  0.31463111070E+02  0.50528864852E+02  0.30000015204E+02 0.  0.
         12    1    1    2    0    0  0.96958040205E+01 -0.23858526719E+02 -0.31463111070E+02  0.40659135148E+02  0.00000000000E+00 0. -1.
         11    1    3    3    0    0  0.50963913764E+01  0.52449558401E+01 -0.69252950992E+00  0.73459079908E+01  0.51100000000E-03 0. -1.
        -11    1    3    3    0    0 -0.10783009276E+02  0.15397291967E+02  0.11813561574E+02  0.22201579365E+02  0.51100000000E-03 0.  1.
         12    1    3    3    0    0 -0.40091861209E+01  0.32162789114E+01  0.20342079005E+02  0.20981377496E+02  0.00000000000E+00 0. -1.
</event>
<event>
 7    1  0.2969156E-011  0.5052888E+02  0.7816164E-02  0.1300439E+00
        -11   -1    0    0    0    0  0.00000000000E+00  0.00000000000E+00  0.45593999997E+02  0.45594000000E+02  0.51100000000E-03 0.  1.
         11   -1    0    0    0    0 -0.00000000000E+00 -0.00000000000E+00 -0.45593999997E+02  0.45594000000E+02  0.51100000000E-03 0. -1.
    9900012    2    1    2    0    0  0.45619837334E+01  0.38693555870E+02  0.11625870868E+02  0.50528882513E+02  0.30000068885E+02 0.  0.
         12    1    1    2    0    0 -0.45619837334E+01 -0.38693555870E+02 -0.11625870868E+02  0.40659117487E+02  0.00000000000E+00 0. -1.
         11    1    3    3    0    0  0.96961727626E+00 -0.29123031339E+01 -0.33856868745E+01  0.45699609494E+01  0.51100000000E-03 0. -1.
        -11    1    3    3    0    0 -0.31064969440E+01  0.11665008610E+02  0.66661885095E+00  0.12089959888E+02  0.51100000000E-03 0.  1.
         12    1    3    3    0    0  0.66988634012E+01  0.29940850393E+02  0.14344938892E+02  0.33868961675E+02  0.00000000000E+00 0. -1.
</event>
<event>
 7    1  0.2969156E-011  0.5052886E+02  0.7816164E-02  0.1300439E+00
        -11   -1    0    0    0    0  0.00000000000E+00  0.00000000000E+00  0.45593999997E+02  0.45594000000E+02  0.51100000000E-03 0.  1.
         11   -1    0    0    0    0 -0.00000000000E+00 -0.00000000000E+00 -0.45593999997E+02  0.45594000000E+02  0.51100000000E-03 0. -1.
    9900012    2    1    2    0    0  0.35970930777E+02  0.18090419197E+02 -0.56563936109E+01  0.50528856915E+02  0.29999991079E+02 0.  0.
         12    1    1    2    0    0 -0.35970930777E+02 -0.18090419197E+02  0.56563936109E+01  0.40659143085E+02  0.00000000000E+00 0. -1.
         11    1    3    3    0    0  0.95958585517E+01  0.67076806732E+01 -0.71749221012E+01  0.13731459820E+02  0.51100000000E-03 0. -1.
        -11    1    3    3    0    0  0.15013655468E+01  0.10365756763E+02  0.50948433069E+01  0.11647336191E+02  0.51100000000E-03 0.  1.
         12    1    3    3    0    0  0.24873706679E+02  0.10169817618E+01 -0.35763148165E+01  0.25150060904E+02  0.00000000000E+00 0. -1.
</event>
<event>
 7    1  0.2969156E-011  0.5052887E+02  0.7816164E-02  0.1300439E+00
        -11   -1    0    0    0    0  0.00000000000E+00  0.00000000000E+00  0.45593999997E+02  0.45594000000E+02  0.51100000000E-03 0.  1.
         11   -1    0    0    0    0 -0.00000000000E+00 -0.00000000000E+00 -0.45593999997E+02  0.45594000000E+02  0.51100000000E-03 0. -1.
    9900012    2    1    2    0    0 -0.53880793601E+01 -0.40022353934E+02  0.47270011168E+01  0.50528871220E+02  0.30000034560E+02 0.  0.
         12    1    1    2    0    0  0.53880793601E+01  0.40022353934E+02 -0.47270011168E+01  0.40659128780E+02  0.00000000000E+00 0. -1.
         11    1    3    3    0    0  0.98648305271E+00 -0.90725576947E+01 -0.39701115060E+01  0.99521976251E+01  0.51100000000E-03 0. -1.
        -11    1    3    3    0    0 -0.10771418425E+02 -0.36995285190E+01 -0.72002155875E+00  0.11411765747E+02  0.51100000000E-03 0.  1.
         12    1    3    3    0    0  0.43968560122E+01 -0.27250267720E+02  0.94171341816E+01  0.29164907848E+02  0.00000000000E+00 0. -1.
</event>
<event>
 7    1  0.2969156E-011  0.5052887E+02  0.7816164E-02  0.1300439E+00
        -11   -1    0    0    0    0  0.00000000000E+00  0.00000000000E+00  0.45593999997E+02  0.45594000000E+02  0.51100000000E-03 0.  1.
         11   -1    0    0    0    0 -0.00000000000E+00 -0.00000000000E+00 -0.45593999997E+02  0.45594000000E+02  0.51100000000E-03 0. -1.
    9900012    2    1    2    0    0 -0.15489262190E+02  0.19277329541E+02  0.32274329768E+02  0.50528867700E+02  0.30000023860E+02 0.  0.
         12    1    1    2    0    0  0.15489262190E+02 -0.19277329541E+02 -0.32274329768E+02  0.40659132300E+02  0.00000000000E+00 0. -1.
         11    1    3    3    0    0 -0.40794290519E+01  0.14875820138E+02  0.91532416549E+01  0.17936376424E+02  0.51100000000E-03 0. -1.
        -11    1    3    3    0    0  0.29196584233E+01  0.16140826613E+01 -0.17397906982E+01  0.37625177848E+01  0.51100000000E-03 0.  1.
         12    1    3    3    0    0 -0.14329491561E+02  0.27874267425E+01  0.24860878811E+02  0.28829973491E+02  0.00000000000E+00 0. -1.
</event>
<event>
 7    1  0.2969156E-011  0.5052886E+02  0.7816164E-02  0.1300439E+00
        -11   -1    0    0    0    0  0.00000000000E+00  0.00000000000E+00  0.45593999997E+02  0.45594000000E+02  0.51100000000E-03 0.  1.
         11   -1    0    0    0    0 -0.00000000000E+00 -0.00000000000E+00 -0.45593999997E+02  0.45594000000E+02  0.51100000000E-03 0. -1.
    9900012    2    1    2    0    0 -0.22452347441E+02 -0.22336267987E+02  0.25498010242E+02  0.50528864501E+02  0.30000014139E+02 0.  0.
         12    1    1    2    0    0  0.22452347441E+02  0.22336267987E+02 -0.25498010242E+02  0.40659135499E+02  0.00000000000E+00 0. -1.
         11    1    3    3    0    0 -0.21151318105E+02 -0.95275464212E+01  0.75965161438E+01  0.24410232612E+02  0.51100000000E-03 0. -1.
        -11    1    3    3    0    0  0.19183553261E+01  0.12021054664E+00 -0.15995220040E+01  0.25006016546E+01  0.51100000000E-03 0.  1.
        -12    1    3    3    0    0 -0.32193846624E+01 -0.12928932112E+02  0.19501016102E+02  0.23618030235E+02  0.00000000000E+00 0.  1.
</event>
<event>
 7    1  0.2969156E-011  0.5052886E+02  0.7816164E-02  0.1300439E+00
        -11   -1    0    0    0    0  0.00000000000E+00  0.00000000000E+00  0.45593999997E+02  0.45594000000E+02  0.51100000000E-03 0. -1.
         11   -1    0    0    0    0 -0.00000000000E+00 -0.00000000000E+00 -0.45593999997E+02  0.45594000000E+02  0.51100000000E-03 0.  1.
    9900012    2    1    2    0    0  0.34458543660E+02 -0.21401266824E+02 -0.27857680107E+01  0.50528856425E+02  0.29999989590E+02 0.  0.
         12    1    1    2    0    0 -0.34458543660E+02  0.21401266824E+02  0.27857680107E+01  0.40659143575E+02  0.00000000000E+00 0. -1.
         11    1    3    3    0    0 -0.16863258330E+01 -0.27046846427E+01 -0.36179648216E+01  0.48216888684E+01  0.51100000000E-03 0.  1.
        -11    1    3    3    0    0  0.84509927467E+01  0.38664062056E+01 -0.30356556037E+01  0.97766855609E+01  0.51100000000E-03 0. -1.
        -12    1    3    3    0    0  0.27693876746E+02 -0.22562988386E+02  0.38678524147E+01  0.35930481996E+02  0.00000000000E+00 0.  1.
</event>
<event>
 7    1  0.2969156E-011  0.5052882E+02  0.7816164E-02  0.1300439E+00
        -11   -1    0    0    0    0  0.00000000000E+00  0.00000000000E+00  0.45593999997E+02  0.45594000000E+02  0.51100000000E-03 0.  1.
         11   -1    0    0    0    0 -0.00000000000E+00 -0.00000000000E+00 -0.45593999997E+02  0.45594000000E+02  0.51100000000E-03 0. -1.
    9900012    2    1    2    0    0  0.12237766307E+02 -0.11647636557E+02  0.36982952227E+02  0.50528817557E+02  0.29999871445E+02 0.  0.
         12    1    1    2    0    0 -0.12237766307E+02  0.11647636557E+02 -0.36982952227E+02  0.40659182443E+02  0.00000000000E+00 0. -1.
         11    1    3    3    0    0  0.52539605439E+01 -0.20304911916E+02  0.28082584927E+02  0.35050322762E+02  0.51100000000E-03 0. -1.
        -11    1    3    3    0    0  0.51439932095E+01  0.28505158205E+01  0.18584724807E+01  0.61676597510E+01  0.51100000000E-03 0.  1.
        -12    1    3    3    0    0  0.18398125535E+01  0.58067595379E+01  0.70418948196E+01  0.93108350438E+01  0.00000000000E+00 0.  1.
</event>
<event>
 7    1  0.2969156E-011  0.5052886E+02  0.7816164E-02  0.1300439E+00
        -11   -1    0    0    0    0  0.00000000000E+00  0.00000000000E+00  0.45593999997E+02  0.45594000000E+02  0.51100000000E-03 0.  1.
         11   -1    0    0    0    0 -0.00000000000E+00 -0.00000000000E+00 -0.45593999997E+02  0.45594000000E+02  0.51100000000E-03 0. -1.
    9900012    2    1    2    0    0  0.14337746776E+02 -0.37910752258E+02  0.32202357624E+01  0.50528855423E+02  0.29999986545E+02 0.  0.
         12    1    1    2    0    0 -0.14337746776E+02  0.37910752258E+02 -0.32202357624E+01  0.40659144577E+02  0.00000000000E+00 0. -1.
         11    1    3    3    0    0  0.69734832460E+01 -0.91754862406E+00  0.31474063167E+00  0.70406268177E+01  0.51100000000E-03 0. -1.
        -11    1    3    3    0    0  0.99450943360E+01 -0.29321557186E+02 -0.59091734447E+01  0.31521055633E+02  0.51100000000E-03 0.  1.
        -12    1    3    3    0    0 -0.25808308059E+01 -0.76716464478E+01  0.88146685754E+01  0.11967172973E+02  0.00000000000E+00 0.  1.
</event>
<event>
 7    1  0.2969156E-011  0.5052886E+02  0.7816164E-02  0.1300439E+00
        -11   -1    0    0    0    0  0.00000000000E+00  0.00000000000E+00  0.45593999997E+02  0.45594000000E+02  0.51100000000E-03 0. -1.
         11   -1    0    0    0    0 -0.00000000000E+00 -0.00000000000E+00 -0.45593999997E+02  0.45594000000E+02  0.51100000000E-03 0.  1.
    9900012    2    1    2    0    0 -0.18812937403E+02  0.14850309445E+02 -0.32843679689E+02  0.50528860808E+02  0.30000002913E+02 0.  0.
         12    1    1    2    0    0  0.18812937403E+02 -0.14850309445E+02  0.32843679689E+02  0.40659139192E+02  0.00000000000E+00 0. -1.
         11    1    3    3    0    0 -0.49226765632E+01  0.11414277513E+02 -0.80925721832E+01  0.14832673410E+02  0.51100000000E-03 0. -1.
        -11    1    3    3    0    0 -0.81196331206E+01  0.91877503954E+01 -0.24669049475E+02  0.27548234092E+02  0.51100000000E-03 0.  1.
         12    1    3    3    0    0 -0.57706277189E+01 -0.57517184638E+01 -0.82058030935E-01  0.81479533060E+01  0.00000000000E+00 0. -1.
</event>
<event>
 7    1  0.2969156E-011  0.5052886E+02  0.7816164E-02  0.1300439E+00
        -11   -1    0    0    0    0  0.00000000000E+00  0.00000000000E+00  0.45593999997E+02  0.45594000000E+02  0.51100000000E-03 0.  1.
         11   -1    0    0    0    0 -0.00000000000E+00 -0.00000000000E+00 -0.45593999997E+02  0.45594000000E+02  0.51100000000E-03 0. -1.
    9900012    2    1    2    0    0 -0.23507405952E+02 -0.45160234453E+01  0.32865989824E+02  0.50528857246E+02  0.29999992085E+02 0.  0.
         12    1    1    2    0    0  0.23507405952E+02  0.45160234453E+01 -0.32865989824E+02  0.40659142754E+02  0.00000000000E+00 0. -1.
         11    1    3    3    0    0 -0.89874703586E+01 -0.31744520290E+01 -0.25720005305E+01  0.98725354455E+01  0.51100000000E-03 0. -1.
        -11    1    3    3    0    0 -0.22874052500E+01 -0.62501226531E+01  0.10111461435E+02  0.12105284324E+02  0.51100000000E-03 0.  1.
        -12    1    3    3    0    0 -0.12232530344E+02  0.49085512368E+01  0.25326528920E+02  0.28551037476E+02  0.00000000000E+00 0.  1.
</event>
<event>
 7    1  0.2969156E-011  0.5052889E+02  0.7816164E-02  0.1300439E+00
        -11   -1    0    0    0    0  0.00000000000E+00  0.00000000000E+00  0.45593999997E+02  0.45594000000E+02  0.51100000000E-03 0. -1.
         11   -1    0    0    0    0 -0.00000000000E+00 -0.00000000000E+00 -0.45593999997E+02  0.45594000000E+02  0.51100000000E-03 0.  1.
    9900012    2    1    2    0    0  0.35349613119E+02 -0.11405749101E+02 -0.16537143374E+02  0.50528888214E+02  0.30000086217E+02 0.  0.
         12    1    1    2    0    0 -0.35349613119E+02  0.11405749101E+02  0.16537143374E+02  0.40659111786E+02  0.00000000000E+00 0. -1.
         11    1    3    3    0    0 -0.30005800947E+00 -0.38762644399E+01  0.32822956380E+01  0.50881161281E+01  0.51100000000E-03 0. -1.
        -11    1    3    3    0    0  0.12089324392E+02 -0.57701035920E+00 -0.16778919851E+02  0.20688568265E+02  0.51100000000E-03 0.  1.
         12    1    3    3    0    0  0.23560346736E+02 -0.69524743019E+01 -0.30405191606E+01  0.24752203821E+02  0.00000000000E+00 0. -1.
</event>
<event>
 7    1  0.2969156E-011  0.5052886E+02  0.7816164E-02  0.1300439E+00
        -11   -1    0    0    0    0  0.00000000000E+00  0.00000000000E+00  0.45593999997E+02  0.45594000000E+02  0.51100000000E-03 0.  1.
         11   -1    0    0    0    0 -0.00000000000E+00 -0.00000000000E+00 -0.45593999997E+02  0.45594000000E+02  0.51100000000E-03 0. -1.
    9900012    2    1    2    0    0 -0.28122703817E+02  0.26827980032E+02  0.11938942143E+02  0.50528864223E+02  0.30000013294E+02 0.  0.
         12    1    1    2    0    0  0.28122703817E+02 -0.26827980032E+02 -0.11938942143E+02  0.40659135777E+02  0.00000000000E+00 0. -1.
         11    1    3    3    0    0 -0.77775868103E+01  0.58044878298E+01  0.14549364421E+02  0.17489052029E+02  0.51100000000E-03 0. -1.
        -11    1    3    3    0    0  0.24943993521E+01  0.16971811818E+01 -0.18950303912E+00  0.30229726685E+01  0.51100000000E-03 0.  1.
         12    1    3    3    0    0 -0.22839516359E+02  0.19326311020E+02 -0.24209192384E+01  0.30016839526E+02  0.00000000000E+00 0. -1.
</event>
<event>
 7    1  0.2969156E-011  0.5052886E+02  0.7816164E-02  0.1300439E+00
        -11   -1    0    0    0    0  0.00000000000E+00  0.00000000000E+00  0.45593999997E+02  0.45594000000E+02  0.51100000000E-03 0.  1.
         11   -1    0    0    0    0 -0.00000000000E+00 -0.00000000000E+00 -0.45593999997E+02  0.45594000000E+02  0.51100000000E-03 0. -1.
    9900012    2    1    2    0    0 -0.40015376869E+02 -0.53732159830E+01  0.48024943976E+01  0.50528858489E+02  0.29999995862E+02 0.  0.
         12    1    1    2    0    0  0.40015376869E+02  0.53732159830E+01 -0.48024943976E+01  0.40659141511E+02  0.00000000000E+00 0. -1.
         11    1    3    3    0    0 -0.57263635262E+01  0.15599697258E+01  0.17363656579E+01  0.61838265450E+01  0.51100000000E-03 0. -1.
        -11    1    3    3    0    0 -0.10805889942E+02 -0.63725788110E+01  0.13686390728E+02  0.18565944888E+02  0.51100000000E-03 0.  1.
        -12    1    3    3    0    0 -0.23483123401E+02 -0.56060689771E+00 -0.10620261988E+02  0.25779087056E+02  0.00000000000E+00 0.  1.
</event>
<event>
 7    1  0.2969156E-011  0.5052884E+02  0.7816164E-02  0.1300439E+00
        -11   -1    0    0    0    0  0.00000000000E+00  0.00000000000E+00  0.45593999997E+02  0.45594000000E+02  0.51100000000E-03 0.  1.
         11   -1    0    0    0    0 -0.00000000000E+00 -0.00000000000E+00 -0.45593999997E+02  0.45594000000E+02  0.51100000000E-03 0. -1.
    9900012    2    1    2    0    0 -0.30948679010E+02 -0.20307300151E+02  0.16821421595E+02  0.50528838715E+02  0.29999935759E+02 0.  0.
         12    1    1    2    0    0  0.30948679010E+02  0.20307300151E+02 -0.16821421595E+02  0.40659161285E+02  0.00000000000E+00 0. -1.
         11    1    3    3    0    0 -0.11145437810E+02  0.36488583483E+01  0.59454704037E+01  0.13148519681E+02  0.51100000000E-03 0. -1.
        -11    1    3    3    0    0 -0.93798063667E+00 -0.70148242799E+01  0.96869391446E+01  0.11996847820E+02  0.51100000000E-03 0.  1.
         12    1    3    3    0    0 -0.18865260563E+02 -0.16941334219E+02  0.11890120462E+01  0.25383471214E+02  0.00000000000E+00 0. -1.
</event>
<event>
 7    1  0.2969156E-011  0.5052886E+02  0.7816164E-02  0.1300439E+00
        -11   -1    0    0    0    0  0.00000000000E+00  0.00000000000E+00  0.45593999997E+02  0.45594000000E+02  0.51100000000E-03 0.  1.
         11   -1    0    0    0    0 -0.00000000000E+00 -0.00000000000E+00 -0.45593999997E+02  0.45594000000E+02  0.51100000000E-03 0. -1.
    9900012    2    1    2    0    0  0.34836916605E+02  0.81251621630E+01  0.19327102133E+02  0.50528857171E+02  0.29999991857E+02 0.  0.
         12    1    1    2    0    0 -0.34836916605E+02 -0.81251621630E+01 -0.19327102133E+02  0.40659142829E+02  0.00000000000E+00 0. -1.
         11    1    3    3    0    0  0.53276744428E+01  0.54428579952E+01  0.17896144568E+02  0.19449442377E+02  0.51100000000E-03 0. -1.
        -11    1    3    3    0    0  0.10040707762E+02 -0.25513327417E+01  0.31986123837E+01  0.10842335199E+02  0.51100000000E-03 0.  1.
        -12    1    3    3    0    0  0.19468534400E+02  0.52336369096E+01 -0.17676548182E+01  0.20237079595E+02  0.00000000000E+00 0.  1.
</event>
<event>
 7    1  0.2969156E-011  0.5052887E+02  0.7816164E-02  0.1300439E+00
        -11   -1    0    0    0    0  0.00000000000E+00  0.00000000000E+00  0.45593999997E+02  0.45594000000E+02  0.51100000000E-03 0. -1.
         11   -1    0    0    0    0 -0.00000000000E+00 -0.00000000000E+00 -0.45593999997E+02  0.45594000000E+02  0.51100000000E-03 0.  1.
    9900012    2    1    2    0    0 -0.59250565799E+01  0.32014542777E+02 -0.24354204984E+02  0.50528873778E+02  0.30000042335E+02 0.  0.
         12    1    1    2    0    0  0.59250565799E+01 -0.32014542777E+02  0.24354204984E+02  0.40659126222E+02  0.00000000000E+00 0. -1.
         11    1    3    3    0    0 -0.72154719055E+01  0.85731182181E+01 -0.58266511067E+01  0.12629776490E+02  0.51100000000E-03 0. -1.
        -11    1    3    3    0    0 -0.47611006573E+01 -0.32013599042E+01 -0.30258816586E+01  0.64863506517E+01  0.51100000000E-03 0.  1.
        -12    1    3    3    0    0  0.60515159829E+01  0.26642784463E+02 -0.15501672219E+02  0.31412746636E+02  0.00000000000E+00 0.  1.
</event>
<event>
 7    1  0.2969156E-011  0.5052886E+02  0.7816164E-02  0.1300439E+00
        -11   -1    0    0    0    0  0.00000000000E+00  0.00000000000E+00  0.45593999997E+02  0.45594000000E+02  0.51100000000E-03 0.  1.
         11   -1    0    0    0    0 -0.00000000000E+00 -0.00000000000E+00 -0.45593999997E+02  0.45594000000E+02  0.51100000000E-03 0. -1.
    9900012    2    1    2    0    0  0.33138433512E+02  0.15436776867E+02  0.17796510009E+02  0.50528860509E+02  0.30000002003E+02 0.  0.
         12    1    1    2    0    0 -0.33138433512E+02 -0.15436776867E+02 -0.17796510009E+02  0.40659139491E+02  0.00000000000E+00 0. -1.
         11    1    3    3    0    0  0.12374239969E+02 -0.14483555434E+01 -0.24436443991E+01  0.12696099669E+02  0.51100000000E-03 0. -1.
        -11    1    3    3    0    0  0.19415885682E+02  0.10666292182E+02  0.71503046533E+01  0.23278171376E+02  0.51100000000E-03 0.  1.
         12    1    3    3    0    0  0.13483078611E+01  0.62188402281E+01  0.13089849754E+02  0.14554589464E+02  0.00000000000E+00 0. -1.
</event>
<event>
 7    1  0.2969156E-011  0.5052886E+02  0.7816164E-02  0.1300439E+00
        -11   -1    0    0    0    0  0.00000000000E+00  0.00000000000E+00  0.45593999997E+02  0.45594000000E+02  0.51100000000E-03 0. -1.
         11   -1    0    0    0    0 -0.00000000000E+00 -0.00000000000E+00 -0.45593999997E+02  0.45594000000E+02  0.51100000000E-03 0.  1.
    9900012    2    1    2    0    0  0.16681934101E+02  0.63110779052E+01 -0.36538317826E+02  0.50528864505E+02  0.30000014149E+02 0.  0.
         12    1    1    2    0    0 -0.16681934101E+02 -0.63110779052E+01  0.36538317826E+02  0.40659135495E+02  0.00000000000E+00 0. -1.
         11    1    3    3    0    0  0.10014135009E+02 -0.49487374392E+00 -0.29371340279E+02  0.31035518846E+02  0.51100000000E-03 0. -1.
        -11    1    3    3    0    0  0.52807018166E+01 -0.42231218870E+01 -0.43016440116E+01  0.80140321694E+01  0.51100000000E-03 0.  1.
        -12    1    3    3    0    0  0.13870972756E+01  0.11029073536E+02 -0.28653335349E+01  0.11479313489E+02  0.00000000000E+00 0.  1.
</event>
<event>
 7    1  0.2969156E-011  0.5052886E+02  0.7816164E-02  0.1300439E+00
        -11   -1    0    0    0    0  0.00000000000E+00  0.00000000000E+00  0.45593999997E+02  0.45594000000E+02  0.51100000000E-03 0.  1.
         11   -1    0    0    0    0 -0.00000000000E+00 -0.00000000000E+00 -0.45593999997E+02  0.45594000000E+02  0.51100000000E-03 0. -1.
    9900012    2    1    2    0    0  0.49133569654E+01 -0.37103847117E+02 -0.15884880144E+02  0.50528856321E+02  0.29999989273E+02 0.  0.
         12    1    1    2    0    0 -0.49133569654E+01  0.37103847117E+02  0.15884880144E+02  0.40659143679E+02  0.00000000000E+00 0. -1.
         11    1    3    3    0    0  0.19858864486E+01 -0.46881364856E+00 -0.81602165086E+01  0.84114603341E+01  0.51100000000E-03 0. -1.
        -11    1    3    3    0    0 -0.18642202677E+01 -0.15239099524E+02 -0.12356495180E+02  0.19707573288E+02  0.51100000000E-03 0.  1.
        -12    1    3    3    0    0  0.47916907845E+01 -0.21395933945E+02  0.46318315452E+01  0.22409822699E+02  0.00000000000E+00 0.  1.
</event>
<event>
 7    1  0.2969156E-011  0.5052879E+02  0.7816164E-02  0.1300439E+00
        -11   -1    0    0    0    0  0.00000000000E+00  0.00000000000E+00  0.45593999997E+02  0.45594000000E+02  0.51100000000E-03 0.  1.
         11   -1    0    0    0    0 -0.00000000000E+00 -0.00000000000E+00 -0.45593999997E+02  0.45594000000E+02  0.51100000000E-03 0. -1.
    9900012    2    1    2    0    0  0.18824865059E+02 -0.15667837479E+02  0.32454813167E+02  0.50528787349E+02  0.29999779624E+02 0.  0.
         12    1    1    2    0    0 -0.18824865059E+02  0.15667837479E+02 -0.32454813167E+02  0.40659212651E+02  0.00000000000E+00 0. -1.
         11    1    3    3    0    0 -0.22635249280E+01 -0.10619634313E+01  0.78455895504E+01  0.82343540781E+01  0.51100000000E-03 0. -1.
        -11    1    3    3    0    0  0.11217310634E+02 -0.10221805794E+02  0.27236028033E+02  0.31178752298E+02  0.51100000000E-03 0.  1.
         12    1    3    3    0    0  0.98710793533E+01 -0.43840682530E+01 -0.26268044171E+01  0.11115680973E+02  0.00000000000E+00 0. -1.
</event>
<event>
 7    1  0.2969156E-011  0.5052885E+02  0.7816164E-02  0.1300439E+00
        -11   -1    0    0    0    0  0.00000000000E+00  0.00000000000E+00  0.45593999997E+02  0.45594000000E+02  0.51100000000E-03 0. -1.
         11   -1    0    0    0    0 -0.00000000000E+00 -0.00000000000E+00 -0.45593999997E+02  0.45594000000E+02  0.51100000000E-03 0.  1.
    9900012    2    1    2    0    0 -0.32023055954E+01 -0.28970456437E+02 -0.28348269307E+02  0.50528849984E+02  0.29999970012E+02 0.  0.
         12    1    1    2    0    0  0.32023055954E+01  0.28970456437E+02  0.28348269307E+02  0.40659150016E+02  0.00000000000E+00 0. -1.
         11    1    3    3    0    0  0.33039140456E+01 -0.29630350177E+02 -0.12862585331E+02  0.32470287976E+02  0.51100000000E-03 0.  1.
        -11    1    3    3    0    0 -0.32844143030E+01 -0.81860544838E+00 -0.16305747271E+01  0.37571620135E+01  0.51100000000E-03 0. -1.
        -12    1    3    3    0    0 -0.32218053379E+01  0.14784991884E+01 -0.13855109250E+02  0.14301399995E+02  0.00000000000E+00 0.  1.
</event>
<event>
 7    1  0.2969156E-011  0.5052886E+02  0.7816164E-02  0.1300439E+00
        -11   -1    0    0    0    0  0.00000000000E+00  0.00000000000E+00  0.45593999997E+02  0.45594000000E+02  0.51100000000E-03 0. -1.
         11   -1    0    0    0    0 -0.00000000000E+00 -0.00000000000E+00 -0.45593999997E+02  0.45594000000E+02  0.51100000000E-03 0.  1.
    9900012    2    1    2    0    0  0.33551053930E+02  0.69081293341E+01 -0.21903651104E+02  0.50528863236E+02  0.30000010291E+02 0.  0.
         12    1    1    2    0    0 -0.33551053930E+02 -0.69081293341E+01  0.21903651104E+02  0.40659136764E+02  0.00000000000E+00 0. -1.
         11    1    3    3    0    0  0.31334807846E+02  0.45861368455E+01 -0.14298735884E+02  0.34747038464E+02  0.51100000000E-03 0. -1.
        -11    1    3    3    0    0  0.40997587117E+01  0.47925831651E+01 -0.10024926854E+02  0.11843818370E+02  0.51100000000E-03 0.  1.
         12    1    3    3    0    0 -0.18835126270E+01 -0.24705906765E+01  0.24200116346E+01  0.39380064015E+01  0.00000000000E+00 0. -1.
</event>
<event>
 7    1  0.2969156E-011  0.5052885E+02  0.7816164E-02  0.1300439E+00
        -11   -1    0    0    0    0  0.00000000000E+00  0.00000000000E+00  0.45593999997E+02  0.45594000000E+02  0.51100000000E-03 0.  1.
         11   -1    0    0    0    0 -0.00000000000E+00 -0.00000000000E+00 -0.45593999997E+02  0.45594000000E+02  0.51100000000E-03 0. -1.
    9900012    2    1    2    0    0  0.12757986523E+02  0.37513097647E+02  0.91196150769E+01  0.50528854726E+02  0.29999984427E+02 0.  0.
         12    1    1    2    0    0 -0.12757986523E+02 -0.37513097647E+02 -0.91196150769E+01  0.40659145274E+02  0.00000000000E+00 0. -1.
         11    1    3    3    0    0  0.96411813792E+01  0.12148450659E+02  0.80711476580E+00  0.15530250040E+02  0.51100000000E-03 0. -1.
        -11    1    3    3    0    0  0.26359264203E+01  0.21384064640E+02 -0.41193542108E+01  0.21936166666E+02  0.51100000000E-03 0.  1.
        -12    1    3    3    0    0  0.48087872314E+00  0.39805823483E+01  0.12431854522E+02  0.13062438020E+02  0.00000000000E+00 0.  1.
</event>
<event>
 7    1  0.2969156E-011  0.5052885E+02  0.7816164E-02  0.1300439E+00
        -11   -1    0    0    0    0  0.00000000000E+00  0.00000000000E+00  0.45593999997E+02  0.45594000000E+02  0.51100000000E-03 0.  1.
         11   -1    0    0    0    0 -0.00000000000E+00 -0.00000000000E+00 -0.45593999997E+02  0.45594000000E+02  0.51100000000E-03 0. -1.
    9900012    2    1    2    0    0  0.19149019736E+02  0.12801608348E+02  0.33505228441E+02  0.50528850156E+02  0.29999970534E+02 0.  0.
         12    1    1    2    0    0 -0.19149019736E+02 -0.12801608348E+02 -0.33505228441E+02  0.40659149844E+02  0.00000000000E+00 0. -1.
         11    1    3    3    0    0 -0.15971508406E+01 -0.30408603400E+00  0.14045373949E+02  0.14139161529E+02  0.51100000000E-03 0. -1.
        -11    1    3    3    0    0  0.16803789403E+02  0.17865727562E+00  0.13770462248E+02  0.21726133745E+02  0.51100000000E-03 0.  1.
         12    1    3    3    0    0  0.39423811740E+01  0.12927037106E+02  0.56893922443E+01  0.14663554882E+02  0.00000000000E+00 0. -1.
</event>
<event>
 7    1  0.2969156E-011  0.5052886E+02  0.7816164E-02  0.1300439E+00
        -11   -1    0    0    0    0  0.00000000000E+00  0.00000000000E+00  0.45593999997E+02  0.45594000000E+02  0.51100000000E-03 0.  1.
         11   -1    0    0    0    0 -0.00000000000E+00 -0.00000000000E+00 -0.45593999997E+02  0.45594000000E+02  0.51100000000E-03 0. -1.
    9900012    2    1    2    0    0 -0.30316189631E+02 -0.11488401684E+02  0.24537943943E+02  0.50528863020E+02  0.30000009635E+02 0.  0.
         12    1    1    2    0    0  0.30316189631E+02  0.11488401684E+02 -0.24537943943E+02  0.40659136980E+02  0.00000000000E+00 0. -1.
         11    1    3    3    0    0 -0.23882026528E-03 -0.71396382194E+01  0.23300922069E+01  0.75102439318E+01  0.51100000000E-03 0. -1.
        -11    1    3    3    0    0 -0.17018570697E+02 -0.68360844021E+00  0.23655839253E+02  0.29149576328E+02  0.51100000000E-03 0.  1.
         12    1    3    3    0    0 -0.13297380114E+02 -0.36651550246E+01 -0.14479875163E+01  0.13869042761E+02  0.00000000000E+00 0. -1.
</event>
<event>
 7    1  0.2969156E-011  0.5052887E+02  0.7816164E-02  0.1300439E+00
        -11   -1    0    0    0    0  0.00000000000E+00  0.00000000000E+00  0.45593999997E+02  0.45594000000E+02  0.51100000000E-03 0.  1.
         11   -1    0    0    0    0 -0.00000000000E+00 -0.00000000000E+00 -0.45593999997E+02  0.45594000000E+02  0.51100000000E-03 0. -1.
    9900012    2    1    2    0    0  0.36815639102E+02  0.16797408706E+01  0.17174175940E+02  0.50528866573E+02  0.30000020434E+02 0.  0.
         12    1    1    2    0    0 -0.36815639102E+02 -0.16797408706E+01 -0.17174175940E+02  0.40659133427E+02  0.00000000000E+00 0. -1.
         11    1    3    3    0    0  0.25478797429E+01 -0.16976253157E+01  0.64881754574E+01  0.71742626049E+01  0.51100000000E-03 0. -1.
        -11    1    3    3    0    0  0.24142522142E+02  0.71920391787E+01  0.17404264422E+02  0.30618543781E+02  0.51100000000E-03 0.  1.
         12    1    3    3    0    0  0.10125237216E+02 -0.38146729924E+01 -0.67182639390E+01  0.12736060187E+02  0.00000000000E+00 0. -1.
</event>
<event>
 7    1  0.2969156E-011  0.5052887E+02  0.7816164E-02  0.1300439E+00
        -11   -1    0    0    0    0  0.00000000000E+00  0.00000000000E+00  0.45593999997E+02  0.45594000000E+02  0.51100000000E-03 0. -1.
         11   -1    0    0    0    0 -0.00000000000E+00 -0.00000000000E+00 -0.45593999997E+02  0.45594000000E+02  0.51100000000E-03 0.  1.
    9900012    2    1    2    0    0 -0.22293349718E+02  0.32534222768E+02 -0.98841266533E+01  0.50528867539E+02  0.30000023372E+02 0.  0.
         12    1    1    2    0    0  0.22293349718E+02 -0.32534222768E+02  0.98841266533E+01  0.40659132461E+02  0.00000000000E+00 0. -1.
         11    1    3    3    0    0 -0.12938046106E+02  0.36053562898E+01 -0.23494853655E+01  0.13634944546E+02  0.51100000000E-03 0. -1.
        -11    1    3    3    0    0  0.45427993892E+01  0.75344038536E+01  0.29953708961E+01  0.92938966417E+01  0.51100000000E-03 0.  1.
         12    1    3    3    0    0 -0.13898103001E+02  0.21394462625E+02 -0.10530012184E+02  0.27600026352E+02  0.00000000000E+00 0. -1.
</event>
<event>
 7    1  0.2969156E-011  0.5052887E+02  0.7816164E-02  0.1300439E+00
        -11   -1    0    0    0    0  0.00000000000E+00  0.00000000000E+00  0.45593999997E+02  0.45594000000E+02  0.51100000000E-03 0.  1.
         11   -1    0    0    0    0 -0.00000000000E+00 -0.00000000000E+00 -0.45593999997E+02  0.45594000000E+02  0.51100000000E-03 0. -1.
    9900012    2    1    2    0    0 -0.39878981530E+02 -0.60302194952E+01 -0.51447338543E+01  0.50528868167E+02  0.30000025280E+02 0.  0.
         12    1    1    2    0    0  0.39878981530E+02  0.60302194952E+01  0.51447338543E+01  0.40659131833E+02  0.00000000000E+00 0. -1.
         11    1    3    3    0    0  0.64301233567E+00 -0.63348283105E+00 -0.17082387542E+01  0.19320572619E+01  0.51100000000E-03 0. -1.
        -11    1    3    3    0    0 -0.21919473286E+02 -0.15541151725E+02  0.12386753995E+01  0.26898420457E+02  0.51100000000E-03 0.  1.
        -12    1    3    3    0    0 -0.18602520580E+02  0.10144415061E+02 -0.46751704996E+01  0.21698390448E+02  0.00000000000E+00 0.  1.
</event>
<event>
 7    1  0.2969156E-011  0.5052885E+02  0.7816164E-02  0.1300439E+00
        -11   -1    0    0    0    0  0.00000000000E+00  0.00000000000E+00  0.45593999997E+02  0.45594000000E+02  0.51100000000E-03 0.  1.
         11   -1    0    0    0    0 -0.00000000000E+00 -0.00000000000E+00 -0.45593999997E+02  0.45594000000E+02  0.51100000000E-03 0. -1.
    9900012    2    1    2    0    0 -0.22346065902E+02 -0.10188748271E+01  0.33952635023E+02  0.50528853524E+02  0.29999980770E+02 0.  0.
         12    1    1    2    0    0  0.22346065902E+02  0.10188748271E+01 -0.33952635023E+02  0.40659146476E+02  0.00000000000E+00 0. -1.
         11    1    3    3    0    0 -0.12642393239E+02  0.10125429117E+02  0.46982318283E+01  0.16864987524E+02  0.51100000000E-03 0. -1.
        -11    1    3    3    0    0 -0.21790759282E+01  0.56446106548E+00  0.17967897601E+01  0.28801808794E+01  0.51100000000E-03 0.  1.
        -12    1    3    3    0    0 -0.75245967342E+01 -0.11708765009E+02  0.27457613434E+02  0.30783685120E+02  0.00000000000E+00 0.  1.
</event>
<event>
 7    1  0.2969156E-011  0.5052882E+02  0.7816164E-02  0.1300439E+00
        -11   -1    0    0    0    0  0.00000000000E+00  0.00000000000E+00  0.45593999997E+02  0.45594000000E+02  0.51100000000E-03 0.  1.
         11   -1    0    0    0    0 -0.00000000000E+00 -0.00000000000E+00 -0.45593999997E+02  0.45594000000E+02  0.51100000000E-03 0. -1.
    9900012    2    1    2    0    0 -0.20057804138E+02 -0.29325996794E+02  0.19769666341E+02  0.50528815280E+02  0.29999864525E+02 0.  0.
         12    1    1    2    0    0  0.20057804138E+02  0.29325996794E+02 -0.19769666341E+02  0.40659184720E+02  0.00000000000E+00 0. -1.
         11    1    3    3    0    0  0.83800525153E+00 -0.15678186020E+01 -0.14428561914E+01  0.22895724973E+01  0.51100000000E-03 0. -1.
        -11    1    3    3    0    0 -0.18285167874E+02 -0.32538005823E+02  0.20915927195E+02  0.42784871132E+02  0.51100000000E-03 0.  1.
         12    1    3    3    0    0 -0.26106415159E+01  0.47798276310E+01  0.29659533774E+00  0.54543716504E+01  0.00000000000E+00 0. -1.
</event>
<event>
 7    1  0.2969156E-011  0.5052886E+02  0.7816164E-02  0.1300439E+00
        -11   -1    0    0    0    0  0.00000000000E+00  0.00000000000E+00  0.45593999997E+02  0.45594000000E+02  0.51100000000E-03 0. -1.
         11   -1    0    0    0    0 -0.00000000000E+00 -0.00000000000E+00 -0.45593999997E+02  0.45594000000E+02  0.51100000000E-03 0.  1.
    9900012    2    1    2    0    0  0.34547873666E+01  0.39761545015E+02 -0.77620588194E+01  0.50528861116E+02  0.30000003847E+02 0.  0.
         12    1    1    2    0    0 -0.34547873666E+01 -0.39761545015E+02  0.77620588194E+01  0.40659138884E+02  0.00000000000E+00 0. -1.
         11    1    3    3    0    0  0.79651064162E+01  0.14128838935E+02 -0.75613019232E+01  0.17895259062E+02  0.51100000000E-03 0. -1.
        -11    1    3    3    0    0  0.19861719377E+01  0.17526538496E+02 -0.82684810388E+01  0.19480559786E+02  0.51100000000E-03 0.  1.
         12    1    3    3    0    0 -0.64964909873E+01  0.81061675834E+01  0.80677241426E+01  0.13153042267E+02  0.00000000000E+00 0. -1.
</event>
<event>
 7    1  0.2969156E-011  0.5052886E+02  0.7816164E-02  0.1300439E+00
        -11   -1    0    0    0    0  0.00000000000E+00  0.00000000000E+00  0.45593999997E+02  0.45594000000E+02  0.51100000000E-03 0. -1.
         11   -1    0    0    0    0 -0.00000000000E+00 -0.00000000000E+00 -0.45593999997E+02  0.45594000000E+02  0.51100000000E-03 0.  1.
    9900012    2    1    2    0    0  0.37053259135E+02  0.16739773471E+02 -0.45147746050E-01  0.50528855066E+02  0.29999985460E+02 0.  0.
         12    1    1    2    0    0 -0.37053259135E+02 -0.16739773471E+02  0.45147746050E-01  0.40659144934E+02  0.00000000000E+00 0. -1.
         11    1    3    3    0    0  0.11041907984E+02  0.99072646225E+01 -0.87279277176E+01  0.17212040749E+02  0.51100000000E-03 0.  1.
        -11    1    3    3    0    0  0.22781847136E+02 -0.17535640563E+01  0.75987832586E+01  0.24079639804E+02  0.51100000000E-03 0. -1.
         12    1    3    3    0    0  0.32295040148E+01  0.85860729053E+01  0.10839967130E+01  0.92371745133E+01  0.00000000000E+00 0. -1.
</event>
<event>
 7    1  0.2969156E-011  0.5052890E+02  0.7816164E-02  0.1300439E+00
        -11   -1    0    0    0    0  0.00000000000E+00  0.00000000000E+00  0.45593999997E+02  0.45594000000E+02  0.51100000000E-03 0. -1.
         11   -1    0    0    0    0 -0.00000000000E+00 -0.00000000000E+00 -0.45593999997E+02  0.45594000000E+02  0.51100000000E-03 0.  1.
    9900012    2    1    2    0    0 -0.36614565673E+01 -0.37549510942E+02  0.15158851025E+02  0.50528895232E+02  0.30000107546E+02 0.  0.
         12    1    1    2    0    0  0.36614565673E+01  0.37549510942E+02 -0.15158851025E+02  0.40659104768E+02  0.00000000000E+00 0. -1.
         11    1    3    3    0    0  0.96531045295E+01 -0.11778953429E+02  0.75414571675E+01  0.16994109197E+02  0.51100000000E-03 0. -1.
        -11    1    3    3    0    0 -0.61344339236E+01 -0.18476460364E+02  0.11473188656E+02  0.22597453957E+02  0.51100000000E-03 0.  1.
        -12    1    3    3    0    0 -0.71801271731E+01 -0.72940971495E+01 -0.38557947985E+01  0.10937332078E+02  0.00000000000E+00 0.  1.
</event>
<event>
 7    1  0.2969156E-011  0.5052887E+02  0.7816164E-02  0.1300439E+00
        -11   -1    0    0    0    0  0.00000000000E+00  0.00000000000E+00  0.45593999997E+02  0.45594000000E+02  0.51100000000E-03 0. -1.
         11   -1    0    0    0    0 -0.00000000000E+00 -0.00000000000E+00 -0.45593999997E+02  0.45594000000E+02  0.51100000000E-03 0.  1.
    9900012    2    1    2    0    0  0.51959681744E+01  0.68939574920E+01 -0.39732108434E+02  0.50528866023E+02  0.30000018762E+02 0.  0.
         12    1    1    2    0    0 -0.51959681744E+01 -0.68939574920E+01  0.39732108434E+02  0.40659133977E+02  0.00000000000E+00 0. -1.
         11    1    3    3    0    0  0.17604485911E+01 -0.71539787458E+01 -0.92666835717E+01  0.11838497194E+02  0.51100000000E-03 0. -1.
        -11    1    3    3    0    0  0.49152304031E+01  0.75297426201E+01 -0.16907753938E+01  0.91496030260E+01  0.51100000000E-03 0.  1.
        -12    1    3    3    0    0 -0.14797108198E+01  0.65181936177E+01 -0.28774649469E+02  0.29540765802E+02  0.00000000000E+00 0.  1.
</event>
<event>
 7    1  0.3785673E-011  0.5052886E+02  0.7816164E-02  0.1300439E+00
        -11   -1    0    0    0    0  0.00000000000E+00  0.00000000000E+00  0.45593999997E+02  0.45594000000E+02  0.51100000000E-03 0.  1.
         11   -1    0    0    0    0 -0.00000000000E+00 -0.00000000000E+00 -0.45593999997E+02  0.45594000000E+02  0.51100000000E-03 0. -1.
    9900012    2    1    2    0    0  0.29267393904E+02  0.49573203230E+01  0.27785067929E+02  0.50528863627E+02  0.30000011482E+02 0.  0.
         12    1    1    2    0    0 -0.29267393904E+02 -0.49573203230E+01 -0.27785067929E+02  0.40659136373E+02  0.00000000000E+00 0. -1.
         11    1    3    3    0    0  0.82661054765E+00 -0.14697418288E+01 -0.46151947899E+01  0.49135984015E+01  0.51100000000E-03 0. -1.
        -11    1    3    3    0    0  0.47386338883E+01  0.29133990246E+01  0.15012700226E+02  0.16010112846E+02  0.51100000000E-03 0.  1.
        -12    1    3    3    0    0  0.23702149468E+02  0.35136631272E+01  0.17387562493E+02  0.29605152380E+02  0.00000000000E+00 0.  1.
</event>
<event>
 7    1  0.2969156E-011  0.5052887E+02  0.7816164E-02  0.1300439E+00
        -11   -1    0    0    0    0  0.00000000000E+00  0.00000000000E+00  0.45593999997E+02  0.45594000000E+02  0.51100000000E-03 0. -1.
         11   -1    0    0    0    0 -0.00000000000E+00 -0.00000000000E+00 -0.45593999997E+02  0.45594000000E+02  0.51100000000E-03 0.  1.
    9900012    2    1    2    0    0  0.22848493013E+02  0.82611809220E+01 -0.32601601520E+02  0.50528866157E+02  0.30000019170E+02 0.  0.
         12    1    1    2    0    0 -0.22848493013E+02 -0.82611809220E+01  0.32601601520E+02  0.40659133843E+02  0.00000000000E+00 0. -1.
         11    1    3    3    0    0  0.79140022801E+01  0.12510869964E+02 -0.23784524026E+02  0.28015297299E+02  0.51100000000E-03 0. -1.
        -11    1    3    3    0    0  0.41847732002E+01 -0.16400181547E+01 -0.10408716303E+02  0.11337696486E+02  0.51100000000E-03 0.  1.
         12    1    3    3    0    0  0.10749717533E+02 -0.26096708871E+01  0.15916388083E+01  0.11175872372E+02  0.00000000000E+00 0. -1.
</event>
<event>
 7    1  0.2969156E-011  0.5052885E+02  0.7816164E-02  0.1300439E+00
        -11   -1    0    0    0    0  0.00000000000E+00  0.00000000000E+00  0.45593999997E+02  0.45594000000E+02  0.51100000000E-03 0. -1.
         11   -1    0    0    0    0 -0.00000000000E+00 -0.00000000000E+00 -0.45593999997E+02  0.45594000000E+02  0.51100000000E-03 0.  1.
    9900012    2    1    2    0    0  0.30353017445E+02 -0.16448352980E+02 -0.21478182543E+02  0.50528852085E+02  0.29999976399E+02 0.  0.
         12    1    1    2    0    0 -0.30353017445E+02  0.16448352980E+02  0.21478182543E+02  0.40659147915E+02  0.00000000000E+00 0. -1.
         11    1    3    3    0    0  0.67722256393E+01  0.57177194823E+00 -0.10450517849E+02  0.12466085466E+02  0.51100000000E-03 0. -1.
        -11    1    3    3    0    0  0.22010494364E+02 -0.21303515807E+02 -0.12759546093E+02  0.33182942375E+02  0.51100000000E-03 0.  1.
         12    1    3    3    0    0  0.15702974417E+01  0.42833908786E+01  0.17318813994E+01  0.48798242444E+01  0.00000000000E+00 0. -1.
</event>
<event>
 7    1  0.2969156E-011  0.5052884E+02  0.7816164E-02  0.1300439E+00
        -11   -1    0    0    0    0  0.00000000000E+00  0.00000000000E+00  0.45593999997E+02  0.45594000000E+02  0.51100000000E-03 0. -1.
         11   -1    0    0    0    0 -0.00000000000E+00 -0.00000000000E+00 -0.45593999997E+02  0.45594000000E+02  0.51100000000E-03 0.  1.
    9900012    2    1    2    0    0 -0.31905055728E+02  0.15576294354E+01 -0.25155690933E+02  0.50528836497E+02  0.29999929015E+02 0.  0.
         12    1    1    2    0    0  0.31905055728E+02 -0.15576294354E+01  0.25155690933E+02  0.40659163503E+02  0.00000000000E+00 0. -1.
         11    1    3    3    0    0 -0.28773978713E+02  0.66333920500E+01 -0.11993650100E+02  0.31871482301E+02  0.51100000000E-03 0. -1.
        -11    1    3    3    0    0 -0.49403773776E+01 -0.11032589409E+01 -0.29569052821E+00  0.50706944370E+01  0.51100000000E-03 0.  1.
        -12    1    3    3    0    0  0.18093003627E+01 -0.39725036737E+01 -0.12866350304E+02  0.13586659759E+02  0.00000000000E+00 0.  1.
</event>
<event>
 7    1  0.2969156E-011  0.5052886E+02  0.7816164E-02  0.1300439E+00
        -11   -1    0    0    0    0  0.00000000000E+00  0.00000000000E+00  0.45593999997E+02  0.45594000000E+02  0.51100000000E-03 0.  1.
         11   -1    0    0    0    0 -0.00000000000E+00 -0.00000000000E+00 -0.45593999997E+02  0.45594000000E+02  0.51100000000E-03 0. -1.
    9900012    2    1    2    0    0 -0.87056378275E+01  0.22701950114E+02  0.32588327034E+02  0.50528859233E+02  0.29999998126E+02 0.  0.
         12    1    1    2    0    0  0.87056378275E+01 -0.22701950114E+02 -0.32588327034E+02  0.40659140767E+02  0.00000000000E+00 0. -1.
         11    1    3    3    0    0 -0.24582620524E-01 -0.15410448349E+00 -0.11884964462E+00  0.19615808984E+00  0.51100000000E-03 0. -1.
        -11    1    3    3    0    0 -0.72455462308E+01 -0.42890193795E+01  0.16916514168E+02  0.18896086348E+02  0.51100000000E-03 0.  1.
        -12    1    3    3    0    0 -0.14355089762E+01  0.27145073977E+02  0.15790662511E+02  0.31436614795E+02  0.00000000000E+00 0.  1.
</event>
<event>
 7    1  0.2969156E-011  0.5052885E+02  0.7816164E-02  0.1300439E+00
        -11   -1    0    0    0    0  0.00000000000E+00  0.00000000000E+00  0.45593999997E+02  0.45594000000E+02  0.51100000000E-03 0. -1.
         11   -1    0    0    0    0 -0.00000000000E+00 -0.00000000000E+00 -0.45593999997E+02  0.45594000000E+02  0.51100000000E-03 0.  1.
    9900012    2    1    2    0    0  0.40331030393E+02 -0.85668266182E-01  0.51543001933E+01  0.50528853894E+02  0.29999981895E+02 0.  0.
         12    1    1    2    0    0 -0.40331030393E+02  0.85668266182E-01 -0.51543001933E+01  0.40659146106E+02  0.00000000000E+00 0. -1.
         11    1    3    3    0    0  0.20082906407E+02 -0.67462164531E+01  0.73366264238E+01  0.22420094865E+02  0.51100000000E-03 0. -1.
        -11    1    3    3    0    0  0.21598725182E+02  0.18878507664E+01  0.17889056016E+01  0.21754748758E+02  0.51100000000E-03 0.  1.
         12    1    3    3    0    0 -0.13506011966E+01  0.47726974205E+01 -0.39712318321E+01  0.63540102710E+01  0.00000000000E+00 0. -1.
</event>
<event>
 7    1  0.2969156E-011  0.5052885E+02  0.7816164E-02  0.1300439E+00
        -11   -1    0    0    0    0  0.00000000000E+00  0.00000000000E+00  0.45593999997E+02  0.45594000000E+02  0.51100000000E-03 0.  1.
         11   -1    0    0    0    0 -0.00000000000E+00 -0.00000000000E+00 -0.45593999997E+02  0.45594000000E+02  0.51100000000E-03 0. -1.
    9900012    2    1    2    0    0  0.34128367115E+02 -0.10061422099E+02  0.19677104909E+02  0.50528854483E+02  0.29999983687E+02 0.  0.
         12    1    1    2    0    0 -0.34128367115E+02  0.10061422099E+02 -0.19677104909E+02  0.40659145517E+02  0.00000000000E+00 0. -1.
         11    1    3    3    0    0  0.20920922666E+01 -0.78754322379E+01  0.29586941326E+00  0.81539451775E+01  0.51100000000E-03 0. -1.
        -11    1    3    3    0    0  0.44241166339E+01  0.46321446798E-01  0.13295151200E+02  0.14011994838E+02  0.51100000000E-03 0.  1.
        -12    1    3    3    0    0  0.27612158214E+02 -0.22323113082E+01  0.60860842961E+01  0.28362914467E+02  0.00000000000E+00 0.  1.
</event>
<event>
 7    1  0.2969156E-011  0.5052886E+02  0.7816164E-02  0.1300439E+00
        -11   -1    0    0    0    0  0.00000000000E+00  0.00000000000E+00  0.45593999997E+02  0.45594000000E+02  0.51100000000E-03 0.  1.
         11   -1    0    0    0    0 -0.00000000000E+00 -0.00000000000E+00 -0.45593999997E+02  0.45594000000E+02  0.51100000000E-03 0. -1.
    9900012    2    1    2    0    0 -0.29299762434E+02 -0.34441898767E+01  0.27979043388E+02  0.50528863370E+02  0.30000010699E+02 0.  0.
         12    1    1    2    0    0  0.29299762434E+02  0.34441898767E+01 -0.27979043388E+02  0.40659136630E+02  0.00000000000E+00 0. -1.
         11    1    3    3    0    0 -0.10082095773E+02 -0.22237452529E+01  0.14582598812E+01  0.10426898881E+02  0.51100000000E-03 0. -1.
        -11    1    3    3    0    0 -0.14382317908E+02  0.52950225867E+01  0.27937787403E+02  0.31865471876E+02  0.51100000000E-03 0.  1.
         12    1    3    3    0    0 -0.48353487522E+01 -0.65154672105E+01 -0.14170038960E+01  0.82364926132E+01  0.00000000000E+00 0. -1.
</event>
<event>
 7    1  0.2969156E-011  0.5052886E+02  0.7816164E-02  0.1300439E+00
        -11   -1    0    0    0    0  0.00000000000E+00  0.00000000000E+00  0.45593999997E+02  0.45594000000E+02  0.51100000000E-03 0.  1.
         11   -1    0    0    0    0 -0.00000000000E+00 -0.00000000000E+00 -0.45593999997E+02  0.45594000000E+02  0.51100000000E-03 0. -1.
    9900012    2    1    2    0    0  0.18447176092E+02 -0.25236436642E+02  0.25999805897E+02  0.50528856541E+02  0.29999989942E+02 0.  0.
         12    1    1    2    0    0 -0.18447176092E+02  0.25236436642E+02 -0.25999805897E+02  0.40659143459E+02  0.00000000000E+00 0. -1.
         11    1    3    3    0    0  0.27580650368E+01  0.17270712851E+00 -0.14060897323E+01  0.31006191472E+01  0.51100000000E-03 0. -1.
        -11    1    3    3    0    0  0.21259718727E+02 -0.21989929462E+02  0.16603848684E+02  0.34802592281E+02  0.51100000000E-03 0.  1.
         12    1    3    3    0    0 -0.55706076715E+01 -0.34192143082E+01  0.10802046945E+02  0.12625645113E+02  0.00000000000E+00 0. -1.
</event>
<event>
 7    1  0.2969156E-011  0.5052886E+02  0.7816164E-02  0.1300439E+00
        -11   -1    0    0    0    0  0.00000000000E+00  0.00000000000E+00  0.45593999997E+02  0.45594000000E+02  0.51100000000E-03 0. -1.
         11   -1    0    0    0    0 -0.00000000000E+00 -0.00000000000E+00 -0.45593999997E+02  0.45594000000E+02  0.51100000000E-03 0.  1.
    9900012    2    1    2    0    0  0.32068505825E+02 -0.18340433724E+02 -0.16982498994E+02  0.50528857767E+02  0.29999993669E+02 0.  0.
         12    1    1    2    0    0 -0.32068505825E+02  0.18340433724E+02  0.16982498994E+02  0.40659142233E+02  0.00000000000E+00 0. -1.
         11    1    3    3    0    0  0.87211455691E+00 -0.10837543428E+02  0.25158623795E+01  0.11159860891E+02  0.51100000000E-03 0. -1.
        -11    1    3    3    0    0  0.94469577078E+01 -0.64198587313E+01 -0.11394414839E+02  0.16133576350E+02  0.51100000000E-03 0.  1.
         12    1    3    3    0    0  0.21749433560E+02 -0.10830315652E+01 -0.81039465337E+01  0.23235420525E+02  0.00000000000E+00 0. -1.
</event>
<event>
 7    1  0.2969156E-011  0.5052886E+02  0.7816164E-02  0.1300439E+00
        -11   -1    0    0    0    0  0.00000000000E+00  0.00000000000E+00  0.45593999997E+02  0.45594000000E+02  0.51100000000E-03 0.  1.
         11   -1    0    0    0    0 -0.00000000000E+00 -0.00000000000E+00 -0.45593999997E+02  0.45594000000E+02  0.51100000000E-03 0. -1.
    9900012    2    1    2    0    0  0.12820604868E+02 -0.35921070840E+02  0.14088100399E+02  0.50528858195E+02  0.29999994971E+02 0.  0.
         12    1    1    2    0    0 -0.12820604868E+02  0.35921070840E+02 -0.14088100399E+02  0.40659141805E+02  0.00000000000E+00 0. -1.
         11    1    3    3    0    0  0.51005825386E+01  0.24473836570E+01  0.34029117906E+00  0.56675768495E+01  0.51100000000E-03 0.  1.
        -11    1    3    3    0    0 -0.43720774618E+01 -0.29583128499E+01  0.19503774322E+01  0.56276681352E+01  0.51100000000E-03 0. -1.
        -12    1    3    3    0    0  0.12092099791E+02 -0.35410141647E+02  0.11797431787E+02  0.39233613211E+02  0.00000000000E+00 0.  1.
</event>
<event>
 7    1  0.2969156E-011  0.5052883E+02  0.7816164E-02  0.1300439E+00
        -11   -1    0    0    0    0  0.00000000000E+00  0.00000000000E+00  0.45593999997E+02  0.45594000000E+02  0.51100000000E-03 0. -1.
         11   -1    0    0    0    0 -0.00000000000E+00 -0.00000000000E+00 -0.45593999997E+02  0.45594000000E+02  0.51100000000E-03 0.  1.
    9900012    2    1    2    0    0  0.34482018582E+02  0.17133031422E+02  0.13062063712E+02  0.50528832772E+02  0.29999917695E+02 0.  0.
         12    1    1    2    0    0 -0.34482018582E+02 -0.17133031422E+02 -0.13062063712E+02  0.40659167228E+02  0.00000000000E+00 0. -1.
         11    1    3    3    0    0  0.92605450555E+01  0.60678244661E+01  0.37064895117E+01  0.11675369512E+02  0.51100000000E-03 0. -1.
        -11    1    3    3    0    0  0.22228346353E+02 -0.14750133060E+01 -0.10258262752E+01  0.22300837779E+02  0.51100000000E-03 0.  1.
         12    1    3    3    0    0  0.29931271738E+01  0.12540220262E+02  0.10381400475E+02  0.16552625482E+02  0.00000000000E+00 0. -1.
</event>
<event>
 7    1  0.2969156E-011  0.5052884E+02  0.7816164E-02  0.1300439E+00
        -11   -1    0    0    0    0  0.00000000000E+00  0.00000000000E+00  0.45593999997E+02  0.45594000000E+02  0.51100000000E-03 0.  1.
         11   -1    0    0    0    0 -0.00000000000E+00 -0.00000000000E+00 -0.45593999997E+02  0.45594000000E+02  0.51100000000E-03 0. -1.
    9900012    2    1    2    0    0 -0.39758348222E+02 -0.84986747395E+01  0.46178261798E+00  0.50528843973E+02  0.29999951739E+02 0.  0.
         12    1    1    2    0    0  0.39758348222E+02  0.84986747395E+01 -0.46178261798E+00  0.40659156027E+02  0.00000000000E+00 0. -1.
         11    1    3    3    0    0 -0.82931555129E+00 -0.22869412716E+01  0.43570929538E+01  0.49902027947E+01  0.51100000000E-03 0.  1.
        -11    1    3    3    0    0 -0.19469714550E+02 -0.80850508121E+01 -0.12133938774E+02  0.24324273920E+02  0.51100000000E-03 0. -1.
         12    1    3    3    0    0 -0.19459318121E+02  0.18733173442E+01  0.82386284386E+01  0.21214367258E+02  0.00000000000E+00 0. -1.
</event>
<event>
 7    1  0.2969156E-011  0.5052886E+02  0.7816164E-02  0.1300439E+00
        -11   -1    0    0    0    0  0.00000000000E+00  0.00000000000E+00  0.45593999997E+02  0.45594000000E+02  0.51100000000E-03 0.  1.
         11   -1    0    0    0    0 -0.00000000000E+00 -0.00000000000E+00 -0.45593999997E+02  0.45594000000E+02  0.51100000000E-03 0. -1.
    9900012    2    1    2    0    0 -0.21852715314E+02  0.32555388357E+02  0.10759707156E+02  0.50528858645E+02  0.29999996336E+02 0.  0.
         12    1    1    2    0    0  0.21852715314E+02 -0.32555388357E+02 -0.10759707156E+02  0.40659141355E+02  0.00000000000E+00 0. -1.
         11    1    3    3    0    0 -0.76827254997E+01 -0.17923359991E+01 -0.17615071060E+01  0.80832943151E+01  0.51100000000E-03 0. -1.
        -11    1    3    3    0    0 -0.65929707738E+01  0.10111482791E+02 -0.33164935983E+01  0.12518325683E+02  0.51100000000E-03 0.  1.
        -12    1    3    3    0    0 -0.75770190403E+01  0.24236241565E+02  0.15837707861E+02  0.29927238647E+02  0.00000000000E+00 0.  1.
</event>
<event>
 7    1  0.2969156E-011  0.5052886E+02  0.7816164E-02  0.1300439E+00
        -11   -1    0    0    0    0  0.00000000000E+00  0.00000000000E+00  0.45593999997E+02  0.45594000000E+02  0.51100000000E-03 0.  1.
         11   -1    0    0    0    0 -0.00000000000E+00 -0.00000000000E+00 -0.45593999997E+02  0.45594000000E+02  0.51100000000E-03 0. -1.
    9900012    2    1    2    0    0 -0.25214802749E+02 -0.82864714474E+01  0.30801191129E+02  0.50528864966E+02  0.30000015551E+02 0.  0.
         12    1    1    2    0    0  0.25214802749E+02  0.82864714474E+01 -0.30801191129E+02  0.40659135034E+02  0.00000000000E+00 0. -1.
         11    1    3    3    0    0 -0.85560909390E+01 -0.42448082059E+00 -0.27418957328E+00  0.85710008929E+01  0.51100000000E-03 0. -1.
        -11    1    3    3    0    0  0.33681752007E+01 -0.72486751782E+01  0.69039456207E+01  0.10561835135E+02  0.51100000000E-03 0.  1.
        -12    1    3    3    0    0 -0.20026887011E+02 -0.61331544865E+00  0.24171435082E+02  0.31396028938E+02  0.00000000000E+00 0.  1.
</event>
<event>
 7    1  0.2969156E-011  0.5052886E+02  0.7816164E-02  0.1300439E+00
        -11   -1    0    0    0    0  0.00000000000E+00  0.00000000000E+00  0.45593999997E+02  0.45594000000E+02  0.51100000000E-03 0.  1.
         11   -1    0    0    0    0 -0.00000000000E+00 -0.00000000000E+00 -0.45593999997E+02  0.45594000000E+02  0.51100000000E-03 0. -1.
    9900012    2    1    2    0    0 -0.13333595456E+01  0.27546663383E+02  0.29875901398E+02  0.50528855942E+02  0.29999988120E+02 0.  0.
         12    1    1    2    0    0  0.13333595456E+01 -0.27546663383E+02 -0.29875901398E+02  0.40659144058E+02  0.00000000000E+00 0. -1.
         11    1    3    3    0    0 -0.37045135930E+00  0.12239850024E+02 -0.19091610160E+01  0.12393387708E+02  0.51100000000E-03 0. -1.
        -11    1    3    3    0    0  0.13527024253E+01 -0.26364026416E+01  0.39633514147E+01  0.49485934807E+01  0.51100000000E-03 0.  1.
        -12    1    3    3    0    0 -0.23156106115E+01  0.17943216000E+02  0.27821711000E+02  0.33186874753E+02  0.00000000000E+00 0.  1.
</event>
<event>
 7    1  0.2969156E-011  0.5052887E+02  0.7816164E-02  0.1300439E+00
        -11   -1    0    0    0    0  0.00000000000E+00  0.00000000000E+00  0.45593999997E+02  0.45594000000E+02  0.51100000000E-03 0. -1.
         11   -1    0    0    0    0 -0.00000000000E+00 -0.00000000000E+00 -0.45593999997E+02  0.45594000000E+02  0.51100000000E-03 0.  1.
    9900012    2    1    2    0    0 -0.19549294491E+02 -0.77408243685E+01 -0.34800429246E+02  0.50528866307E+02  0.30000019626E+02 0.  0.
         12    1    1    2    0    0  0.19549294491E+02  0.77408243685E+01  0.34800429246E+02  0.40659133693E+02  0.00000000000E+00 0. -1.
         11    1    3    3    0    0 -0.11372219320E+02  0.25940575093E+01 -0.31507066939E+02  0.33596901255E+02  0.51100000000E-03 0. -1.
        -11    1    3    3    0    0 -0.58612706504E+01 -0.40708289693E+01 -0.63821760789E+01  0.95738348585E+01  0.51100000000E-03 0.  1.
         12    1    3    3    0    0 -0.23158045209E+01 -0.62640529084E+01  0.30888137719E+01  0.73581301929E+01  0.00000000000E+00 0. -1.
</event>
<event>
 7    1  0.2969156E-011  0.5052885E+02  0.7816164E-02  0.1300439E+00
        -11   -1    0    0    0    0  0.00000000000E+00  0.00000000000E+00  0.45593999997E+02  0.45594000000E+02  0.51100000000E-03 0. -1.
         11   -1    0    0    0    0 -0.00000000000E+00 -0.00000000000E+00 -0.45593999997E+02  0.45594000000E+02  0.51100000000E-03 0.  1.
    9900012    2    1    2    0    0 -0.24986209601E+02 -0.23227326039E+02 -0.22121197675E+02  0.50528846888E+02  0.29999960602E+02 0.  0.
         12    1    1    2    0    0  0.24986209601E+02  0.23227326039E+02  0.22121197675E+02  0.40659153112E+02  0.00000000000E+00 0. -1.
         11    1    3    3    0    0 -0.23451848776E+02 -0.29215063981E+01 -0.10623971765E+02  0.25911255990E+02  0.51100000000E-03 0. -1.
        -11    1    3    3    0    0  0.12194835167E+00 -0.15019322360E+01  0.11501613702E+01  0.18956643375E+01  0.51100000000E-03 0.  1.
         12    1    3    3    0    0 -0.16563091769E+01 -0.18803887405E+02 -0.12647387280E+02  0.22721926561E+02  0.00000000000E+00 0. -1.
</event>
<event>
 7    1  0.2969156E-011  0.5052886E+02  0.7816164E-02  0.1300439E+00
        -11   -1    0    0    0    0  0.00000000000E+00  0.00000000000E+00  0.45593999997E+02  0.45594000000E+02  0.51100000000E-03 0.  1.
         11   -1    0    0    0    0 -0.00000000000E+00 -0.00000000000E+00 -0.45593999997E+02  0.45594000000E+02  0.51100000000E-03 0. -1.
    9900012    2    1    2    0    0 -0.18836523814E+02 -0.12624717715E+02  0.33748589105E+02  0.50528863348E+02  0.30000010631E+02 0.  0.
         12    1    1    2    0    0  0.18836523814E+02  0.12624717715E+02 -0.33748589105E+02  0.40659136652E+02  0.00000000000E+00 0. -1.
         11    1    3    3    0    0  0.22379205692E+01  0.35948601208E+01  0.83914006460E+00  0.43168812899E+01  0.51100000000E-03 0. -1.
        -11    1    3    3    0    0 -0.12277161003E+00 -0.56753484458E+01  0.16863244172E+02  0.17793078911E+02  0.51100000000E-03 0.  1.
        -12    1    3    3    0    0 -0.20951672773E+02 -0.10544229390E+02  0.16046204868E+02  0.28418903147E+02  0.00000000000E+00 0.  1.
</event>
<event>
 7    1  0.2969156E-011  0.5052886E+02  0.7816164E-02  0.1300439E+00
        -11   -1    0    0    0    0  0.00000000000E+00  0.00000000000E+00  0.45593999997E+02  0.45594000000E+02  0.51100000000E-03 0. -1.
         11   -1    0    0    0    0 -0.00000000000E+00 -0.00000000000E+00 -0.45593999997E+02  0.45594000000E+02  0.51100000000E-03 0.  1.
    9900012    2    1    2    0    0 -0.49518303385E+01  0.24320649443E+02 -0.32204833265E+02  0.50528857134E+02  0.29999991743E+02 0.  0.
         12    1    1    2    0    0  0.49518303385E+01 -0.24320649443E+02  0.32204833265E+02  0.40659142866E+02  0.00000000000E+00 0. -1.
         11    1    3    3    0    0  0.16092652226E+00 -0.24036782734E+01  0.50182908752E+00  0.24607720906E+01  0.51100000000E-03 0. -1.
        -11    1    3    3    0    0  0.51263161579E+01  0.24536649443E+01 -0.15740612038E+02  0.16735186183E+02  0.51100000000E-03 0.  1.
        -12    1    3    3    0    0 -0.10239073019E+02  0.24270662772E+02 -0.16966050314E+02  0.31332898860E+02  0.00000000000E+00 0.  1.
</event>
<event>
 7    1  0.2969156E-011  0.5052886E+02  0.7816164E-02  0.1300439E+00
        -11   -1    0    0    0    0  0.00000000000E+00  0.00000000000E+00  0.45593999997E+02  0.45594000000E+02  0.51100000000E-03 0.  1.
         11   -1    0    0    0    0 -0.00000000000E+00 -0.00000000000E+00 -0.45593999997E+02  0.45594000000E+02  0.51100000000E-03 0. -1.
    9900012    2    1    2    0    0 -0.42261603262E+01 -0.20113339379E+02  0.35082174200E+02  0.50528858363E+02  0.29999995479E+02 0.  0.
         12    1    1    2    0    0  0.42261603262E+01  0.20113339379E+02 -0.35082174200E+02  0.40659141637E+02  0.00000000000E+00 0. -1.
         11    1    3    3    0    0 -0.10930643706E+01  0.30713247545E+01  0.23038800223E+02  0.23268307661E+02  0.51100000000E-03 0. -1.
        -11    1    3    3    0    0 -0.41596462772E+01 -0.70502666130E+01  0.28832540435E+01  0.86788288729E+01  0.51100000000E-03 0.  1.
        -12    1    3    3    0    0  0.10265503216E+01 -0.16134397520E+02  0.91601199343E+01  0.18581721828E+02  0.00000000000E+00 0.  1.
</event>
<event>
 7    1  0.2969156E-011  0.5052886E+02  0.7816164E-02  0.1300439E+00
        -11   -1    0    0    0    0  0.00000000000E+00  0.00000000000E+00  0.45593999997E+02  0.45594000000E+02  0.51100000000E-03 0.  1.
         11   -1    0    0    0    0 -0.00000000000E+00 -0.00000000000E+00 -0.45593999997E+02  0.45594000000E+02  0.51100000000E-03 0. -1.
    9900012    2    1    2    0    0 -0.23511171835E+02 -0.10586155919E+01  0.33155235282E+02  0.50528862102E+02  0.30000006845E+02 0.  0.
         12    1    1    2    0    0  0.23511171835E+02  0.10586155919E+01 -0.33155235282E+02  0.40659137898E+02  0.00000000000E+00 0. -1.
         11    1    3    3    0    0  0.50205298951E+00 -0.19468849733E+01  0.99847830081E+01  0.10185200552E+02  0.51100000000E-03 0. -1.
        -11    1    3    3    0    0 -0.11227275992E+02 -0.98943720080E+01  0.53217813699E+01  0.15883062704E+02  0.51100000000E-03 0.  1.
        -12    1    3    3    0    0 -0.12785948832E+02  0.10782641389E+02  0.17848670904E+02  0.24460598846E+02  0.00000000000E+00 0.  1.
</event>
<event>
 7    1  0.2969156E-011  0.5052887E+02  0.7816164E-02  0.1300439E+00
        -11   -1    0    0    0    0  0.00000000000E+00  0.00000000000E+00  0.45593999997E+02  0.45594000000E+02  0.51100000000E-03 0.  1.
         11   -1    0    0    0    0 -0.00000000000E+00 -0.00000000000E+00 -0.45593999997E+02  0.45594000000E+02  0.51100000000E-03 0. -1.
    9900012    2    1    2    0    0  0.17219658579E+02 -0.28714714459E+02  0.23067591724E+02  0.50528865037E+02  0.30000015765E+02 0.  0.
         12    1    1    2    0    0 -0.17219658579E+02  0.28714714459E+02 -0.23067591724E+02  0.40659134963E+02  0.00000000000E+00 0. -1.
         11    1    3    3    0    0 -0.19369908416E+01 -0.25671236591E+01  0.46369117640E+01  0.56429609576E+01  0.51100000000E-03 0. -1.
        -11    1    3    3    0    0  0.59040173725E+01 -0.57197656527E+01  0.18815432464E+02  0.20532745538E+02  0.51100000000E-03 0.  1.
         12    1    3    3    0    0  0.13252632048E+02 -0.20427825147E+02 -0.38475250382E+00  0.24353158541E+02  0.00000000000E+00 0. -1.
</event>
<event>
 7    1  0.2969156E-011  0.5052886E+02  0.7816164E-02  0.1300439E+00
        -11   -1    0    0    0    0  0.00000000000E+00  0.00000000000E+00  0.45593999997E+02  0.45594000000E+02  0.51100000000E-03 0.  1.
         11   -1    0    0    0    0 -0.00000000000E+00 -0.00000000000E+00 -0.45593999997E+02  0.45594000000E+02  0.51100000000E-03 0. -1.
    9900012    2    1    2    0    0  0.33335469383E+02 -0.69220389114E+01  0.22226052450E+02  0.50528861431E+02  0.30000004805E+02 0.  0.
         12    1    1    2    0    0 -0.33335469383E+02  0.69220389114E+01 -0.22226052450E+02  0.40659138569E+02  0.00000000000E+00 0. -1.
         11    1    3    3    0    0 -0.32596002266E+01 -0.27932698442E+01  0.32195812260E+01  0.53659159136E+01  0.51100000000E-03 0. -1.
        -11    1    3    3    0    0  0.73597499340E+01  0.18611823753E+01  0.12491600280E+02  0.14617455208E+02  0.51100000000E-03 0.  1.
         12    1    3    3    0    0  0.29235319676E+02 -0.59899514425E+01  0.65148709432E+01  0.30545490309E+02  0.00000000000E+00 0. -1.
</event>
<event>
 7    1  0.2969156E-011  0.5052885E+02  0.7816164E-02  0.1300439E+00
        -11   -1    0    0    0    0  0.00000000000E+00  0.00000000000E+00  0.45593999997E+02  0.45594000000E+02  0.51100000000E-03 0. -1.
         11   -1    0    0    0    0 -0.00000000000E+00 -0.00000000000E+00 -0.45593999997E+02  0.45594000000E+02  0.51100000000E-03 0.  1.
    9900012    2    1    2    0    0  0.18263045483E+02 -0.35420663648E+02  0.80624953689E+01  0.50528854963E+02  0.29999985146E+02 0.  0.
         12    1    1    2    0    0 -0.18263045483E+02  0.35420663648E+02 -0.80624953689E+01  0.40659145037E+02  0.00000000000E+00 0. -1.
         11    1    3    3    0    0 -0.21167015950E+01 -0.16002101974E+02 -0.39990438756E+00  0.16146442859E+02  0.51100000000E-03 0. -1.
        -11    1    3    3    0    0  0.91993268564E+01 -0.20042033808E+02  0.66924833046E+01  0.23045608406E+02  0.51100000000E-03 0.  1.
         12    1    3    3    0    0  0.11180420222E+02  0.62347213393E+00  0.17699164518E+01  0.11336803698E+02  0.00000000000E+00 0. -1.
</event>
<event>
 7    1  0.2969156E-011  0.5052886E+02  0.7816164E-02  0.1300439E+00
        -11   -1    0    0    0    0  0.00000000000E+00  0.00000000000E+00  0.45593999997E+02  0.45594000000E+02  0.51100000000E-03 0.  1.
         11   -1    0    0    0    0 -0.00000000000E+00 -0.00000000000E+00 -0.45593999997E+02  0.45594000000E+02  0.51100000000E-03 0. -1.
    9900012    2    1    2    0    0  0.38404132499E+02  0.68746508860E+01  0.11446714307E+02  0.50528862205E+02  0.30000007158E+02 0.  0.
         12    1    1    2    0    0 -0.38404132499E+02 -0.68746508860E+01 -0.11446714307E+02  0.40659137795E+02  0.00000000000E+00 0. -1.
         11    1    3    3    0    0  0.30734520347E+01 -0.52640458514E+01  0.13418911246E+01  0.62415509440E+01  0.51100000000E-03 0. -1.
        -11    1    3    3    0    0  0.15851517161E+02 -0.31848860922E-01 -0.52045663157E+01  0.16684097861E+02  0.51100000000E-03 0.  1.
        -12    1    3    3    0    0  0.19479163304E+02  0.12170545598E+02  0.15309389498E+02  0.27603213399E+02  0.00000000000E+00 0.  1.
</event>
<event>
 7    1  0.2969156E-011  0.5052887E+02  0.7816164E-02  0.1300439E+00
        -11   -1    0    0    0    0  0.00000000000E+00  0.00000000000E+00  0.45593999997E+02  0.45594000000E+02  0.51100000000E-03 0.  1.
         11   -1    0    0    0    0 -0.00000000000E+00 -0.00000000000E+00 -0.45593999997E+02  0.45594000000E+02  0.51100000000E-03 0. -1.
    9900012    2    1    2    0    0 -0.32882855006E+01 -0.25299300269E+02  0.31659078877E+02  0.50528871985E+02  0.30000036886E+02 0.  0.
         12    1    1    2    0    0  0.32882855006E+01  0.25299300269E+02 -0.31659078877E+02  0.40659128015E+02  0.00000000000E+00 0. -1.
         11    1    3    3    0    0  0.10391579158E+01  0.19370086266E+01  0.12992220995E+01  0.25533957622E+01  0.51100000000E-03 0. -1.
        -11    1    3    3    0    0  0.20606526547E+01 -0.14435389634E+02  0.30347714280E+02  0.33669133127E+02  0.51100000000E-03 0.  1.
         12    1    3    3    0    0 -0.63880960711E+01 -0.12800919261E+02  0.12142497270E-01  0.14306343096E+02  0.00000000000E+00 0. -1.
</event>
<event>
 7    1  0.2969156E-011  0.5052886E+02  0.7816164E-02  0.1300439E+00
        -11   -1    0    0    0    0  0.00000000000E+00  0.00000000000E+00  0.45593999997E+02  0.45594000000E+02  0.51100000000E-03 0.  1.
         11   -1    0    0    0    0 -0.00000000000E+00 -0.00000000000E+00 -0.45593999997E+02  0.45594000000E+02  0.51100000000E-03 0. -1.
    9900012    2    1    2    0    0  0.36922270896E+02 -0.14273485185E+02 -0.92832808097E+01  0.50528858715E+02  0.29999996551E+02 0.  0.
         12    1    1    2    0    0 -0.36922270896E+02  0.14273485185E+02  0.92832808097E+01  0.40659141285E+02  0.00000000000E+00 0. -1.
         11    1    3    3    0    0  0.88528955457E+01 -0.12971552129E+02  0.76311595629E+01  0.17460513186E+02  0.51100000000E-03 0.  1.
        -11    1    3    3    0    0  0.63904989206E+01  0.51109650343E+00 -0.20899991130E+01  0.67429809909E+01  0.51100000000E-03 0. -1.
        -12    1    3    3    0    0  0.21678876429E+02 -0.18130295586E+01 -0.14824441260E+02  0.26325364538E+02  0.00000000000E+00 0.  1.
</event>
<event>
 7    1  0.2969156E-011  0.5052886E+02  0.7816164E-02  0.1300439E+00
        -11   -1    0    0    0    0  0.00000000000E+00  0.00000000000E+00  0.45593999997E+02  0.45594000000E+02  0.51100000000E-03 0.  1.
         11   -1    0    0    0    0 -0.00000000000E+00 -0.00000000000E+00 -0.45593999997E+02  0.45594000000E+02  0.51100000000E-03 0. -1.
    9900012    2    1    2    0    0  0.68280305591E+01  0.39729291332E+02 -0.53034903539E+01  0.50528860794E+02  0.30000002868E+02 0.  0.
         12    1    1    2    0    0 -0.68280305591E+01 -0.39729291332E+02  0.53034903539E+01  0.40659139206E+02  0.00000000000E+00 0. -1.
         11    1    3    3    0    0  0.88158363222E+01  0.57084246685E+00 -0.45786933792E+01  0.99503399190E+01  0.51100000000E-03 0. -1.
        -11    1    3    3    0    0  0.37679412202E+01  0.10506111892E+02 -0.19392334534E+01  0.11328565433E+02  0.51100000000E-03 0.  1.
        -12    1    3    3    0    0 -0.57557469834E+01  0.28652336974E+02  0.12144364786E+01  0.29249955442E+02  0.00000000000E+00 0.  1.
</event>
<event>
 7    1  0.2969156E-011  0.5052886E+02  0.7816164E-02  0.1300439E+00
        -11   -1    0    0    0    0  0.00000000000E+00  0.00000000000E+00  0.45593999997E+02  0.45594000000E+02  0.51100000000E-03 0. -1.
         11   -1    0    0    0    0 -0.00000000000E+00 -0.00000000000E+00 -0.45593999997E+02  0.45594000000E+02  0.51100000000E-03 0.  1.
    9900012    2    1    2    0    0  0.99029415101E+01  0.32132996757E+02  0.22859753696E+02  0.50528855025E+02  0.29999985333E+02 0.  0.
         12    1    1    2    0    0 -0.99029415101E+01 -0.32132996757E+02 -0.22859753696E+02  0.40659144975E+02  0.00000000000E+00 0. -1.
         11    1    3    3    0    0  0.15346272740E+01 -0.35126997386E+01  0.27689272894E+01  0.47287523639E+01  0.51100000000E-03 0. -1.
        -11    1    3    3    0    0 -0.33063185597E+01  0.79431333267E+01 -0.15717071927E+01  0.87461633431E+01  0.51100000000E-03 0.  1.
        -12    1    3    3    0    0  0.11674632796E+02  0.27702563168E+02  0.21662533599E+02  0.37053939318E+02  0.00000000000E+00 0.  1.
</event>
<event>
 7    1  0.2969156E-011  0.5052887E+02  0.7816164E-02  0.1300439E+00
        -11   -1    0    0    0    0  0.00000000000E+00  0.00000000000E+00  0.45593999997E+02  0.45594000000E+02  0.51100000000E-03 0.  1.
         11   -1    0    0    0    0 -0.00000000000E+00 -0.00000000000E+00 -0.45593999997E+02  0.45594000000E+02  0.51100000000E-03 0. -1.
    9900012    2    1    2    0    0  0.31863594572E+02 -0.22801595620E+02  0.10861080192E+02  0.50528874520E+02  0.30000044592E+02 0.  0.
         12    1    1    2    0    0 -0.31863594572E+02  0.22801595620E+02 -0.10861080192E+02  0.40659125480E+02  0.00000000000E+00 0. -1.
         11    1    3    3    0    0 -0.12697232478E+01  0.25360810416E+01 -0.12524401291E+01  0.31004049273E+01  0.51100000000E-03 0. -1.
        -11    1    3    3    0    0  0.14795461065E+02 -0.16835240930E+01  0.88472909658E+01  0.17320926049E+02  0.51100000000E-03 0.  1.
        -12    1    3    3    0    0  0.18337856754E+02 -0.23654152568E+02  0.32662293552E+01  0.30107543544E+02  0.00000000000E+00 0.  1.
</event>
<event>
 7    1  0.2969156E-011  0.5052885E+02  0.7816164E-02  0.1300439E+00
        -11   -1    0    0    0    0  0.00000000000E+00  0.00000000000E+00  0.45593999997E+02  0.45594000000E+02  0.51100000000E-03 0.  1.
         11   -1    0    0    0    0 -0.00000000000E+00 -0.00000000000E+00 -0.45593999997E+02  0.45594000000E+02  0.51100000000E-03 0. -1.
    9900012    2    1    2    0    0  0.40171999838E+02 -0.54547242111E+01 -0.31020432178E+01  0.50528852698E+02  0.29999978261E+02 0.  0.
         12    1    1    2    0    0 -0.40171999838E+02  0.54547242111E+01  0.31020432178E+01  0.40659147302E+02  0.00000000000E+00 0. -1.
         11    1    3    3    0    0 -0.14675814842E-01  0.51217707870E+01 -0.15482701768E+01  0.53506908129E+01  0.51100000000E-03 0. -1.
        -11    1    3    3    0    0  0.95273121022E+01  0.30281994086E+01 -0.54907747787E+01  0.11405624730E+02  0.51100000000E-03 0.  1.
        -12    1    3    3    0    0  0.30659363550E+02 -0.13604694407E+02  0.39370017377E+01  0.33772537155E+02  0.00000000000E+00 0.  1.
</event>
<event>
 7    1  0.2969156E-011  0.5052885E+02  0.7816164E-02  0.1300439E+00
        -11   -1    0    0    0    0  0.00000000000E+00  0.00000000000E+00  0.45593999997E+02  0.45594000000E+02  0.51100000000E-03 0.  1.
         11   -1    0    0    0    0 -0.00000000000E+00 -0.00000000000E+00 -0.45593999997E+02  0.45594000000E+02  0.51100000000E-03 0. -1.
    9900012    2    1    2    0    0  0.10155128392E+02  0.13943878004E+02  0.36818585031E+02  0.50528848876E+02  0.29999966645E+02 0.  0.
         12    1    1    2    0    0 -0.10155128392E+02 -0.13943878004E+02 -0.36818585031E+02  0.40659151124E+02  0.00000000000E+00 0. -1.
         11    1    3    3    0    0  0.52311867588E+01 -0.59735363668E+00 -0.14267911454E+01  0.54550783227E+01  0.51100000000E-03 0. -1.
        -11    1    3    3    0    0  0.30302183443E+01 -0.37989613217E+01  0.12464813918E+02  0.13378561828E+02  0.51100000000E-03 0.  1.
        -12    1    3    3    0    0  0.18937232888E+01  0.18340192962E+02  0.25780562259E+02  0.31695208725E+02  0.00000000000E+00 0.  1.
</event>
<event>
 7    1  0.2969156E-011  0.5052886E+02  0.7816164E-02  0.1300439E+00
        -11   -1    0    0    0    0  0.00000000000E+00  0.00000000000E+00  0.45593999997E+02  0.45594000000E+02  0.51100000000E-03 0. -1.
         11   -1    0    0    0    0 -0.00000000000E+00 -0.00000000000E+00 -0.45593999997E+02  0.45594000000E+02  0.51100000000E-03 0.  1.
    9900012    2    1    2    0    0 -0.27190352936E+02  0.16163542977E+02 -0.25545845606E+02  0.50528860288E+02  0.30000001332E+02 0.  0.
         12    1    1    2    0    0  0.27190352936E+02 -0.16163542977E+02  0.25545845606E+02  0.40659139712E+02  0.00000000000E+00 0. -1.
         11    1    3    3    0    0 -0.11816304812E+02  0.38824812124E+01  0.17154245715E+01  0.12555532704E+02  0.51100000000E-03 0. -1.
        -11    1    3    3    0    0 -0.87817980272E+00  0.80365221476E+01 -0.16670176809E+01  0.82544434218E+01  0.51100000000E-03 0.  1.
         12    1    3    3    0    0 -0.14495868322E+02  0.42445396166E+01 -0.25594252497E+02  0.29718884162E+02  0.00000000000E+00 0. -1.
</event>
<event>
 7    1  0.2969156E-011  0.5052886E+02  0.7816164E-02  0.1300439E+00
        -11   -1    0    0    0    0  0.00000000000E+00  0.00000000000E+00  0.45593999997E+02  0.45594000000E+02  0.51100000000E-03 0.  1.
         11   -1    0    0    0    0 -0.00000000000E+00 -0.00000000000E+00 -0.45593999997E+02  0.45594000000E+02  0.51100000000E-03 0. -1.
    9900012    2    1    2    0    0 -0.23631938172E+02 -0.58530573899E+01  0.32564379206E+02  0.50528861105E+02  0.30000003815E+02 0.  0.
         12    1    1    2    0    0  0.23631938172E+02  0.58530573899E+01 -0.32564379206E+02  0.40659138895E+02  0.00000000000E+00 0. -1.
         11    1    3    3    0    0 -0.18242507588E+02 -0.11396102616E+02  0.23785587489E+02  0.32068900985E+02  0.51100000000E-03 0. -1.
        -11    1    3    3    0    0 -0.97711854702E+01  0.20416314200E+01  0.80100300971E+01  0.12798629097E+02  0.51100000000E-03 0.  1.
         12    1    3    3    0    0  0.43817548859E+01  0.35014138062E+01  0.76876162002E+00  0.56613310229E+01  0.00000000000E+00 0. -1.
</event>
<event>
 7    1  0.2969156E-011  0.5052886E+02  0.7816164E-02  0.1300439E+00
        -11   -1    0    0    0    0  0.00000000000E+00  0.00000000000E+00  0.45593999997E+02  0.45594000000E+02  0.51100000000E-03 0.  1.
         11   -1    0    0    0    0 -0.00000000000E+00 -0.00000000000E+00 -0.45593999997E+02  0.45594000000E+02  0.51100000000E-03 0. -1.
    9900012    2    1    2    0    0  0.38431875272E+02  0.10416799670E+02  0.82247841538E+01  0.50528858019E+02  0.29999994433E+02 0.  0.
         12    1    1    2    0    0 -0.38431875272E+02 -0.10416799670E+02 -0.82247841538E+01  0.40659141981E+02  0.00000000000E+00 0. -1.
         11    1    3    3    0    0  0.52940243324E+01 -0.11319065851E+01  0.78879243486E+01  0.95669878718E+01  0.51100000000E-03 0. -1.
        -11    1    3    3    0    0  0.30963475617E+01  0.90024538999E+01 -0.43213212947E+01  0.10454920489E+02  0.51100000000E-03 0.  1.
        -12    1    3    3    0    0  0.30041503378E+02  0.25462523555E+01  0.46581810999E+01  0.30506949658E+02  0.00000000000E+00 0.  1.
</event>
<event>
 7    1  0.2969156E-011  0.5052886E+02  0.7816164E-02  0.1300439E+00
        -11   -1    0    0    0    0  0.00000000000E+00  0.00000000000E+00  0.45593999997E+02  0.45594000000E+02  0.51100000000E-03 0.  1.
         11   -1    0    0    0    0 -0.00000000000E+00 -0.00000000000E+00 -0.45593999997E+02  0.45594000000E+02  0.51100000000E-03 0. -1.
    9900012    2    1    2    0    0 -0.72931880362E+01  0.30535580134E+02  0.25837052160E+02  0.50528861911E+02  0.30000006263E+02 0.  0.
         12    1    1    2    0    0  0.72931880362E+01 -0.30535580134E+02 -0.25837052160E+02  0.40659138089E+02  0.00000000000E+00 0. -1.
         11    1    3    3    0    0 -0.29250247150E+01 -0.10536244634E+01  0.38057810264E+01  0.49142510697E+01  0.51100000000E-03 0. -1.
        -11    1    3    3    0    0 -0.91297072946E+01  0.17768097487E+02  0.99934629586E+00  0.20001388374E+02  0.51100000000E-03 0.  1.
        -12    1    3    3    0    0  0.47615439733E+01  0.13821107110E+02  0.21031924838E+02  0.25613222467E+02  0.00000000000E+00 0.  1.
</event>
<event>
 7    1  0.2969156E-011  0.5052886E+02  0.7816164E-02  0.1300439E+00
        -11   -1    0    0    0    0  0.00000000000E+00  0.00000000000E+00  0.45593999997E+02  0.45594000000E+02  0.51100000000E-03 0.  1.
         11   -1    0    0    0    0 -0.00000000000E+00 -0.00000000000E+00 -0.45593999997E+02  0.45594000000E+02  0.51100000000E-03 0. -1.
    9900012    2    1    2    0    0 -0.14529844812E+02  0.12187964596E+02  0.35965296888E+02  0.50528862632E+02  0.30000008456E+02 0.  0.
         12    1    1    2    0    0  0.14529844812E+02 -0.12187964596E+02 -0.35965296888E+02  0.40659137368E+02  0.00000000000E+00 0. -1.
         11    1    3    3    0    0 -0.10839763363E+02 -0.45516462516E+01  0.13115395129E+02  0.17613391014E+02  0.51100000000E-03 0. -1.
        -11    1    3    3    0    0 -0.31801452897E+01  0.11881572972E+02  0.24778881388E+02  0.27663659618E+02  0.51100000000E-03 0.  1.
        -12    1    3    3    0    0 -0.50993615963E+00  0.48580378746E+01 -0.19289796286E+01  0.52518120002E+01  0.00000000000E+00 0.  1.
</event>
<event>
 7    1  0.2969156E-011  0.5052883E+02  0.7816164E-02  0.1300439E+00
        -11   -1    0    0    0    0  0.00000000000E+00  0.00000000000E+00  0.45593999997E+02  0.45594000000E+02  0.51100000000E-03 0.  1.
         11   -1    0    0    0    0 -0.00000000000E+00 -0.00000000000E+00 -0.45593999997E+02  0.45594000000E+02  0.51100000000E-03 0. -1.
    9900012    2    1    2    0    0  0.14665678866E+02  0.49721769925E+01  0.37594724715E+02  0.50528831206E+02  0.29999912934E+02 0.  0.
         12    1    1    2    0    0 -0.14665678866E+02 -0.49721769925E+01 -0.37594724715E+02  0.40659168794E+02  0.00000000000E+00 0. -1.
         11    1    3    3    0    0  0.12696530370E+02 -0.19108567655E+01  0.12988504225E+02  0.18263474458E+02  0.51100000000E-03 0. -1.
        -11    1    3    3    0    0 -0.52271567648E+01  0.44710973160E+01  0.23632761667E+02  0.24613437454E+02  0.51100000000E-03 0.  1.
         12    1    3    3    0    0  0.71963052606E+01  0.24119364420E+01  0.97345882317E+00  0.76519192942E+01  0.00000000000E+00 0. -1.
</event>
<event>
 7    1  0.2969156E-011  0.5052886E+02  0.7816164E-02  0.1300439E+00
        -11   -1    0    0    0    0  0.00000000000E+00  0.00000000000E+00  0.45593999997E+02  0.45594000000E+02  0.51100000000E-03 0.  1.
         11   -1    0    0    0    0 -0.00000000000E+00 -0.00000000000E+00 -0.45593999997E+02  0.45594000000E+02  0.51100000000E-03 0. -1.
    9900012    2    1    2    0    0  0.72083755272E+01 -0.39645988535E+02  0.54222367422E+01  0.50528859134E+02  0.29999997825E+02 0.  0.
         12    1    1    2    0    0 -0.72083755272E+01  0.39645988535E+02 -0.54222367422E+01  0.40659140866E+02  0.00000000000E+00 0. -1.
         11    1    3    3    0    0  0.68319205506E+01 -0.97712874514E+01 -0.75015427978E+01  0.14086388518E+02  0.51100000000E-03 0. -1.
        -11    1    3    3    0    0  0.49346358886E+01 -0.22157434480E+02  0.27222655942E+01  0.22862923355E+02  0.51100000000E-03 0.  1.
         12    1    3    3    0    0 -0.45581809120E+01 -0.77172666032E+01  0.10201513946E+02  0.13579547262E+02  0.00000000000E+00 0. -1.
</event>
<event>
 7    1  0.2969156E-011  0.5052886E+02  0.7816164E-02  0.1300439E+00
        -11   -1    0    0    0    0  0.00000000000E+00  0.00000000000E+00  0.45593999997E+02  0.45594000000E+02  0.51100000000E-03 0.  1.
         11   -1    0    0    0    0 -0.00000000000E+00 -0.00000000000E+00 -0.45593999997E+02  0.45594000000E+02  0.51100000000E-03 0. -1.
    9900012    2    1    2    0    0  0.98280816693E+01 -0.28855281575E+02  0.26906264184E+02  0.50528861834E+02  0.30000006030E+02 0.  0.
         12    1    1    2    0    0 -0.98280816693E+01  0.28855281575E+02 -0.26906264184E+02  0.40659138166E+02  0.00000000000E+00 0. -1.
         11    1    3    3    0    0 -0.86887854333E+01 -0.52372982051E+01  0.37683247107E+01  0.10822409906E+02  0.51100000000E-03 0. -1.
        -11    1    3    3    0    0  0.90525284005E+01 -0.10437209000E+02  0.17989174073E+02  0.22682459880E+02  0.51100000000E-03 0.  1.
        -12    1    3    3    0    0  0.94643387022E+01 -0.13180774370E+02  0.51487654010E+01  0.17023992047E+02  0.00000000000E+00 0.  1.
</event>
<event>
 7    1  0.2969156E-011  0.5052885E+02  0.7816164E-02  0.1300439E+00
        -11   -1    0    0    0    0  0.00000000000E+00  0.00000000000E+00  0.45593999997E+02  0.45594000000E+02  0.51100000000E-03 0.  1.
         11   -1    0    0    0    0 -0.00000000000E+00 -0.00000000000E+00 -0.45593999997E+02  0.45594000000E+02  0.51100000000E-03 0. -1.
    9900012    2    1    2    0    0  0.66196759403E+01  0.21305870470E+01  0.40060038250E+02  0.50528853731E+02  0.29999981401E+02 0.  0.
         12    1    1    2    0    0 -0.66196759403E+01 -0.21305870470E+01 -0.40060038250E+02  0.40659146269E+02  0.00000000000E+00 0. -1.
         11    1    3    3    0    0  0.80363650166E+01  0.13579974924E+02  0.32440660014E+02  0.36074856950E+02  0.51100000000E-03 0.  1.
        -11    1    3    3    0    0 -0.27960144699E+01 -0.57465143027E+01  0.35140178629E+01  0.72930408850E+01  0.51100000000E-03 0. -1.
        -12    1    3    3    0    0  0.13793253937E+01 -0.57028735739E+01  0.41053603737E+01  0.71609558957E+01  0.00000000000E+00 0.  1.
</event>
<event>
 7    1  0.2969156E-011  0.5052886E+02  0.7816164E-02  0.1300439E+00
        -11   -1    0    0    0    0  0.00000000000E+00  0.00000000000E+00  0.45593999997E+02  0.45594000000E+02  0.51100000000E-03 0.  1.
         11   -1    0    0    0    0 -0.00000000000E+00 -0.00000000000E+00 -0.45593999997E+02  0.45594000000E+02  0.51100000000E-03 0. -1.
    9900012    2    1    2    0    0  0.30711194780E+02 -0.26344282904E+02 -0.39958293927E+01  0.50528863523E+02  0.30000011165E+02 0.  0.
         12    1    1    2    0    0 -0.30711194780E+02  0.26344282904E+02  0.39958293927E+01  0.40659136477E+02  0.00000000000E+00 0. -1.
         11    1    3    3    0    0  0.59801266745E+01 -0.22320985671E+02  0.68068376102E+00  0.23118210290E+02  0.51100000000E-03 0. -1.
        -11    1    3    3    0    0  0.17017571880E+02 -0.36391189321E+01  0.15764627175E+01  0.17473585043E+02  0.51100000000E-03 0.  1.
        -12    1    3    3    0    0  0.77134962253E+01 -0.38417830095E+00 -0.62529758712E+01  0.99370681909E+01  0.00000000000E+00 0.  1.
</event>
<event>
 7    1  0.2969156E-011  0.5052888E+02  0.7816164E-02  0.1300439E+00
        -11   -1    0    0    0    0  0.00000000000E+00  0.00000000000E+00  0.45593999997E+02  0.45594000000E+02  0.51100000000E-03 0. -1.
         11   -1    0    0    0    0 -0.00000000000E+00 -0.00000000000E+00 -0.45593999997E+02  0.45594000000E+02  0.51100000000E-03 0.  1.
    9900012    2    1    2    0    0 -0.29798299713E+01  0.33178606355E+02 -0.23312333514E+02  0.50528878020E+02  0.30000055228E+02 0.  0.
         12    1    1    2    0    0  0.29798299713E+01 -0.33178606355E+02  0.23312333514E+02  0.40659121980E+02  0.00000000000E+00 0. -1.
         11    1    3    3    0    0 -0.19550564545E+01 -0.23353008837E+01 -0.74129269953E+01  0.80141975804E+01  0.51100000000E-03 0. -1.
        -11    1    3    3    0    0  0.63399720338E+01  0.17737097965E+02 -0.13388475571E+02  0.23109547118E+02  0.51100000000E-03 0.  1.
         12    1    3    3    0    0 -0.73647455506E+01  0.17776809274E+02 -0.25109309471E+01  0.19405133321E+02  0.00000000000E+00 0. -1.
</event>
<event>
 7    1  0.2969156E-011  0.5052885E+02  0.7816164E-02  0.1300439E+00
        -11   -1    0    0    0    0  0.00000000000E+00  0.00000000000E+00  0.45593999997E+02  0.45594000000E+02  0.51100000000E-03 0. -1.
         11   -1    0    0    0    0 -0.00000000000E+00 -0.00000000000E+00 -0.45593999997E+02  0.45594000000E+02  0.51100000000E-03 0.  1.
    9900012    2    1    2    0    0  0.12635897278E+02 -0.32893355931E+02 -0.20286140517E+02  0.50528852671E+02  0.29999978179E+02 0.  0.
         12    1    1    2    0    0 -0.12635897278E+02  0.32893355931E+02  0.20286140517E+02  0.40659147329E+02  0.00000000000E+00 0. -1.
         11    1    3    3    0    0  0.51155008918E+01 -0.55824285639E+00 -0.15039338530E+01  0.53611381026E+01  0.51100000000E-03 0. -1.
        -11    1    3    3    0    0 -0.59883599728E+01 -0.14857275037E+01 -0.73643440000E+01  0.96073619787E+01  0.51100000000E-03 0.  1.
        -12    1    3    3    0    0  0.13508756359E+02 -0.30849385571E+02 -0.11417862664E+02  0.35560352590E+02  0.00000000000E+00 0.  1.
</event>
<event>
 7    1  0.2969156E-011  0.5052886E+02  0.7816164E-02  0.1300439E+00
        -11   -1    0    0    0    0  0.00000000000E+00  0.00000000000E+00  0.45593999997E+02  0.45594000000E+02  0.51100000000E-03 0.  1.
         11   -1    0    0    0    0 -0.00000000000E+00 -0.00000000000E+00 -0.45593999997E+02  0.45594000000E+02  0.51100000000E-03 0. -1.
    9900012    2    1    2    0    0  0.36253572294E+02 -0.14059884572E+02 -0.11881232592E+02  0.50528861468E+02  0.30000004918E+02 0.  0.
         12    1    1    2    0    0 -0.36253572294E+02  0.14059884572E+02  0.11881232592E+02  0.40659138532E+02  0.00000000000E+00 0. -1.
         11    1    3    3    0    0  0.44593344837E+01 -0.11857311530E+02 -0.71138380908E+01  0.14528874471E+02  0.51100000000E-03 0. -1.
        -11    1    3    3    0    0  0.14862674797E+02  0.16121623853E+01 -0.98644435088E+01  0.17911041725E+02  0.51100000000E-03 0.  1.
        -12    1    3    3    0    0  0.16931563013E+02 -0.38147354272E+01  0.50970490076E+01  0.18088945271E+02  0.00000000000E+00 0.  1.
</event>
<event>
 7    1  0.2969156E-011  0.5052887E+02  0.7816164E-02  0.1300439E+00
        -11   -1    0    0    0    0  0.00000000000E+00  0.00000000000E+00  0.45593999997E+02  0.45594000000E+02  0.51100000000E-03 0.  1.
         11   -1    0    0    0    0 -0.00000000000E+00 -0.00000000000E+00 -0.45593999997E+02  0.45594000000E+02  0.51100000000E-03 0. -1.
    9900012    2    1    2    0    0 -0.32568819930E+02  0.36542297910E+01  0.24064159115E+02  0.50528865960E+02  0.30000018572E+02 0.  0.
         12    1    1    2    0    0  0.32568819930E+02 -0.36542297910E+01 -0.24064159115E+02  0.40659134040E+02  0.00000000000E+00 0. -1.
         11    1    3    3    0    0 -0.23492676994E+02 -0.10036233689E+01  0.29381414226E+01  0.23696957769E+02  0.51100000000E-03 0. -1.
        -11    1    3    3    0    0  0.25104372461E+01  0.37889057837E+00  0.21814865953E+00  0.25482233685E+01  0.51100000000E-03 0.  1.
        -12    1    3    3    0    0 -0.11586580182E+02  0.42789625815E+01  0.20907869033E+02  0.24283684823E+02  0.00000000000E+00 0.  1.
</event>
<event>
 7    1  0.2969156E-011  0.5052886E+02  0.7816164E-02  0.1300439E+00
        -11   -1    0    0    0    0  0.00000000000E+00  0.00000000000E+00  0.45593999997E+02  0.45594000000E+02  0.51100000000E-03 0. -1.
         11   -1    0    0    0    0 -0.00000000000E+00 -0.00000000000E+00 -0.45593999997E+02  0.45594000000E+02  0.51100000000E-03 0.  1.
    9900012    2    1    2    0    0  0.17690488709E+02  0.49487553482E+01 -0.36272888622E+02  0.50528855650E+02  0.29999987233E+02 0.  0.
         12    1    1    2    0    0 -0.17690488709E+02 -0.49487553482E+01  0.36272888622E+02  0.40659144350E+02  0.00000000000E+00 0. -1.
         11    1    3    3    0    0 -0.21171618522E+01 -0.49491292069E+01 -0.29027342315E+01  0.61157273071E+01  0.51100000000E-03 0. -1.
        -11    1    3    3    0    0  0.12149414008E+02  0.26704292897E+01 -0.31300130844E+02  0.33681413931E+02  0.51100000000E-03 0.  1.
         12    1    3    3    0    0  0.76582365537E+01  0.72274552653E+01 -0.20700235472E+01  0.10731714412E+02  0.00000000000E+00 0. -1.
</event>
<event>
 7    1  0.2969156E-011  0.5052886E+02  0.7816164E-02  0.1300439E+00
        -11   -1    0    0    0    0  0.00000000000E+00  0.00000000000E+00  0.45593999997E+02  0.45594000000E+02  0.51100000000E-03 0.  1.
         11   -1    0    0    0    0 -0.00000000000E+00 -0.00000000000E+00 -0.45593999997E+02  0.45594000000E+02  0.51100000000E-03 0. -1.
    9900012    2    1    2    0    0 -0.19661159095E+02 -0.17488672088E+02  0.30995986442E+02  0.50528855840E+02  0.29999987810E+02 0.  0.
         12    1    1    2    0    0  0.19661159095E+02  0.17488672088E+02 -0.30995986442E+02  0.40659144160E+02  0.00000000000E+00 0. -1.
         11    1    3    3    0    0  0.33039252044E-01 -0.51934560296E+01  0.43151754157E+01  0.67523193240E+01  0.51100000000E-03 0. -1.
        -11    1    3    3    0    0 -0.22762048795E+02 -0.96021304406E+01  0.29749404652E+02  0.38669611476E+02  0.51100000000E-03 0.  1.
         12    1    3    3    0    0  0.30678504478E+01 -0.26930856181E+01 -0.30685936259E+01  0.51069250393E+01  0.00000000000E+00 0. -1.
</event>
<event>
 7    1  0.2969156E-011  0.5052888E+02  0.7816164E-02  0.1300439E+00
        -11   -1    0    0    0    0  0.00000000000E+00  0.00000000000E+00  0.45593999997E+02  0.45594000000E+02  0.51100000000E-03 0. -1.
         11   -1    0    0    0    0 -0.00000000000E+00 -0.00000000000E+00 -0.45593999997E+02  0.45594000000E+02  0.51100000000E-03 0.  1.
    9900012    2    1    2    0    0  0.39738257469E+02 -0.85134295528E+01  0.12474851039E+01  0.50528882837E+02  0.30000069871E+02 0.  0.
         12    1    1    2    0    0 -0.39738257469E+02  0.85134295528E+01 -0.12474851039E+01  0.40659117163E+02  0.00000000000E+00 0. -1.
         11    1    3    3    0    0  0.89990506812E+01 -0.53761746591E+01  0.57305626758E+01  0.11946778477E+02  0.51100000000E-03 0. -1.
        -11    1    3    3    0    0  0.25142091420E+02 -0.11926677840E+02 -0.21975462655E+01  0.27914147221E+02  0.51100000000E-03 0.  1.
         12    1    3    3    0    0  0.55971153678E+01  0.87894229460E+01 -0.22855313063E+01  0.10667957139E+02  0.00000000000E+00 0. -1.
</event>
<event>
 7    1  0.2969156E-011  0.5052886E+02  0.7816164E-02  0.1300439E+00
        -11   -1    0    0    0    0  0.00000000000E+00  0.00000000000E+00  0.45593999997E+02  0.45594000000E+02  0.51100000000E-03 0.  1.
         11   -1    0    0    0    0 -0.00000000000E+00 -0.00000000000E+00 -0.45593999997E+02  0.45594000000E+02  0.51100000000E-03 0. -1.
    9900012    2    1    2    0    0 -0.42585390051E+01  0.19185593776E+01  0.40389972348E+02  0.50528857230E+02  0.29999992035E+02 0.  0.
         12    1    1    2    0    0  0.42585390051E+01 -0.19185593776E+01 -0.40389972348E+02  0.40659142770E+02  0.00000000000E+00 0. -1.
         11    1    3    3    0    0 -0.26789355928E+01  0.57335383111E+01  0.41634513730E+01  0.75752547859E+01  0.51100000000E-03 0. -1.
        -11    1    3    3    0    0 -0.66584711934E+01 -0.83270015908E+01  0.65581041922E+01  0.12517305021E+02  0.51100000000E-03 0.  1.
         12    1    3    3    0    0  0.50788677812E+01  0.45120226573E+01  0.29668416783E+02  0.30436297423E+02  0.00000000000E+00 0. -1.
</event>
<event>
 7    1  0.2969156E-011  0.5052886E+02  0.7816164E-02  0.1300439E+00
        -11   -1    0    0    0    0  0.00000000000E+00  0.00000000000E+00  0.45593999997E+02  0.45594000000E+02  0.51100000000E-03 0.  1.
         11   -1    0    0    0    0 -0.00000000000E+00 -0.00000000000E+00 -0.45593999997E+02  0.45594000000E+02  0.51100000000E-03 0. -1.
    9900012    2    1    2    0    0  0.34091823439E+02  0.21675206329E+02 -0.45933309745E+01  0.50528859770E+02  0.29999999756E+02 0.  0.
         12    1    1    2    0    0 -0.34091823439E+02 -0.21675206329E+02  0.45933309745E+01  0.40659140230E+02  0.00000000000E+00 0. -1.
         11    1    3    3    0    0 -0.21278218121E+01 -0.52656852104E+00  0.17510099058E+01  0.28055188509E+01  0.51100000000E-03 0. -1.
        -11    1    3    3    0    0  0.13274267349E+02  0.14404264211E+02  0.60535228674E+01  0.20502052104E+02  0.51100000000E-03 0.  1.
        -12    1    3    3    0    0  0.22945377902E+02  0.77975106398E+01 -0.12397863748E+02  0.27221288815E+02  0.00000000000E+00 0.  1.
</event>
<event>
 7    1  0.2969156E-011  0.5052886E+02  0.7816164E-02  0.1300439E+00
        -11   -1    0    0    0    0  0.00000000000E+00  0.00000000000E+00  0.45593999997E+02  0.45594000000E+02  0.51100000000E-03 0. -1.
         11   -1    0    0    0    0 -0.00000000000E+00 -0.00000000000E+00 -0.45593999997E+02  0.45594000000E+02  0.51100000000E-03 0.  1.
    9900012    2    1    2    0    0 -0.39016616332E+02 -0.11429588576E+02  0.48342694189E+00  0.50528861462E+02  0.30000004900E+02 0.  0.
         12    1    1    2    0    0  0.39016616332E+02  0.11429588576E+02 -0.48342694189E+00  0.40659138538E+02  0.00000000000E+00 0. -1.
         11    1    3    3    0    0 -0.12097518532E+02  0.57918667156E+01 -0.80535425009E+01  0.15644654735E+02  0.51100000000E-03 0. -1.
        -11    1    3    3    0    0 -0.50817648234E+01 -0.92902769999E+01  0.28069082994E+01  0.10955013232E+02  0.51100000000E-03 0.  1.
        -12    1    3    3    0    0 -0.21837332976E+02 -0.79311782917E+01  0.57300611434E+01  0.23929193495E+02  0.00000000000E+00 0.  1.
</event>
<event>
 7    1  0.2969156E-011  0.5052886E+02  0.7816164E-02  0.1300439E+00
        -11   -1    0    0    0    0  0.00000000000E+00  0.00000000000E+00  0.45593999997E+02  0.45594000000E+02  0.51100000000E-03 0.  1.
         11   -1    0    0    0    0 -0.00000000000E+00 -0.00000000000E+00 -0.45593999997E+02  0.45594000000E+02  0.51100000000E-03 0. -1.
    9900012    2    1    2    0    0  0.71760875736E+01 -0.24699102804E+02  0.31490060821E+02  0.50528857821E+02  0.29999993834E+02 0.  0.
         12    1    1    2    0    0 -0.71760875736E+01  0.24699102804E+02 -0.31490060821E+02  0.40659142179E+02  0.00000000000E+00 0. -1.
         11    1    3    3    0    0 -0.54324537339E+00 -0.34796677062E+01  0.12058641090E+02  0.12562405346E+02  0.51100000000E-03 0. -1.
        -11    1    3    3    0    0 -0.57205034622E+01 -0.70394681258E+00  0.10286543312E+02  0.11791211750E+02  0.51100000000E-03 0.  1.
         12    1    3    3    0    0  0.13439836409E+02 -0.20515488285E+02  0.91448764192E+01  0.26175240725E+02  0.00000000000E+00 0. -1.
</event>
<event>
 7    1  0.2969156E-011  0.5052889E+02  0.7816164E-02  0.1300439E+00
        -11   -1    0    0    0    0  0.00000000000E+00  0.00000000000E+00  0.45593999997E+02  0.45594000000E+02  0.51100000000E-03 0.  1.
         11   -1    0    0    0    0 -0.00000000000E+00 -0.00000000000E+00 -0.45593999997E+02  0.45594000000E+02  0.51100000000E-03 0. -1.
    9900012    2    1    2    0    0 -0.37780522718E+02  0.10099128664E+02  0.11126680798E+02  0.50528888817E+02  0.30000088049E+02 0.  0.
         12    1    1    2    0    0  0.37780522718E+02 -0.10099128664E+02 -0.11126680798E+02  0.40659111183E+02  0.00000000000E+00 0. -1.
         11    1    3    3    0    0 -0.58993632805E+01  0.48761923463E+01  0.14411440588E+01  0.77882369875E+01  0.51100000000E-03 0. -1.
        -11    1    3    3    0    0 -0.25303253463E+02  0.13444915633E+02  0.33001270300E+00  0.28655353790E+02  0.51100000000E-03 0.  1.
        -12    1    3    3    0    0 -0.65779059738E+01 -0.82219793155E+01  0.93555240362E+01  0.14085298039E+02  0.00000000000E+00 0.  1.
</event>
<event>
 7    1  0.2969156E-011  0.5052885E+02  0.7816164E-02  0.1300439E+00
        -11   -1    0    0    0    0  0.00000000000E+00  0.00000000000E+00  0.45593999997E+02  0.45594000000E+02  0.51100000000E-03 0. -1.
         11   -1    0    0    0    0 -0.00000000000E+00 -0.00000000000E+00 -0.45593999997E+02  0.45594000000E+02  0.51100000000E-03 0.  1.
    9900012    2    1    2    0    0 -0.10238627001E+02  0.20862864601E+02 -0.33362819163E+02  0.50528852139E+02  0.29999976563E+02 0.  0.
         12    1    1    2    0    0  0.10238627001E+02 -0.20862864601E+02  0.33362819163E+02  0.40659147861E+02  0.00000000000E+00 0. -1.
         11    1    3    3    0    0 -0.70863770649E+01  0.41387150788E+00 -0.24266226685E+02  0.25283152242E+02  0.51100000000E-03 0. -1.
        -11    1    3    3    0    0 -0.10354002674E+01 -0.21675988030E+00  0.15701990522E+01  0.18932944526E+01  0.51100000000E-03 0.  1.
        -12    1    3    3    0    0 -0.21168496685E+01  0.20665752974E+02 -0.10666791531E+02  0.23352405445E+02  0.00000000000E+00 0.  1.
</event>
<event>
 7    1  0.2969156E-011  0.5052886E+02  0.7816164E-02  0.1300439E+00
        -11   -1    0    0    0    0  0.00000000000E+00  0.00000000000E+00  0.45593999997E+02  0.45594000000E+02  0.51100000000E-03 0.  1.
         11   -1    0    0    0    0 -0.00000000000E+00 -0.00000000000E+00 -0.45593999997E+02  0.45594000000E+02  0.51100000000E-03 0. -1.
    9900012    2    1    2    0    0 -0.69544238878E+01 -0.35826039063E+02  0.17924751490E+02  0.50528858315E+02  0.29999995335E+02 0.  0.
         12    1    1    2    0    0  0.69544238878E+01  0.35826039063E+02 -0.17924751490E+02  0.40659141685E+02  0.00000000000E+00 0. -1.
         11    1    3    3    0    0 -0.31142309299E+01 -0.27739326532E+02  0.13492162693E+02  0.31003340549E+02  0.51100000000E-03 0.  1.
        -11    1    3    3    0    0  0.35710871751E+01 -0.93600565718E+01 -0.12557384532E+01  0.10096544060E+02  0.51100000000E-03 0. -1.
         12    1    3    3    0    0 -0.74112801330E+01  0.12733440408E+01  0.56883272493E+01  0.94289737062E+01  0.00000000000E+00 0. -1.
</event>
<event>
 7    1  0.2969156E-011  0.5052887E+02  0.7816164E-02  0.1300439E+00
        -11   -1    0    0    0    0  0.00000000000E+00  0.00000000000E+00  0.45593999997E+02  0.45594000000E+02  0.51100000000E-03 0.  1.
         11   -1    0    0    0    0 -0.00000000000E+00 -0.00000000000E+00 -0.45593999997E+02  0.45594000000E+02  0.51100000000E-03 0. -1.
    9900012    2    1    2    0    0 -0.51914312649E+01 -0.16098766600E+02  0.36973556306E+02  0.50528866825E+02  0.30000021202E+02 0.  0.
         12    1    1    2    0    0  0.51914312649E+01  0.16098766600E+02 -0.36973556306E+02  0.40659133175E+02  0.00000000000E+00 0. -1.
         11    1    3    3    0    0 -0.20150170649E+01 -0.28023858321E+01  0.18554078727E+01  0.39186986052E+01  0.51100000000E-03 0. -1.
        -11    1    3    3    0    0 -0.10572064098E+02  0.32590213415E+01  0.68043509009E+01  0.12988031061E+02  0.51100000000E-03 0.  1.
         12    1    3    3    0    0  0.73956498984E+01 -0.16555402110E+02  0.28313797532E+02  0.33622137159E+02  0.00000000000E+00 0. -1.
</event>
<event>
 7    1  0.2969156E-011  0.5052887E+02  0.7816164E-02  0.1300439E+00
        -11   -1    0    0    0    0  0.00000000000E+00  0.00000000000E+00  0.45593999997E+02  0.45594000000E+02  0.51100000000E-03 0.  1.
         11   -1    0    0    0    0 -0.00000000000E+00 -0.00000000000E+00 -0.45593999997E+02  0.45594000000E+02  0.51100000000E-03 0. -1.
    9900012    2    1    2    0    0 -0.30701646224E+02  0.21679654889E+02  0.15510202413E+02  0.50528869465E+02  0.30000029227E+02 0.  0.
         12    1    1    2    0    0  0.30701646224E+02 -0.21679654889E+02 -0.15510202413E+02  0.40659130535E+02  0.00000000000E+00 0. -1.
         11    1    3    3    0    0 -0.11760770735E+02  0.59647304497E+01 -0.32096920343E+01  0.13571877572E+02  0.51100000000E-03 0. -1.
        -11    1    3    3    0    0 -0.21771192945E+02  0.17498519082E+02  0.14200998120E+02  0.31334507499E+02  0.51100000000E-03 0.  1.
         12    1    3    3    0    0  0.28303174565E+01 -0.17835946426E+01  0.45188963269E+01  0.56224843945E+01  0.00000000000E+00 0. -1.
</event>
<event>
 7    1  0.2969156E-011  0.5052884E+02  0.7816164E-02  0.1300439E+00
        -11   -1    0    0    0    0  0.00000000000E+00  0.00000000000E+00  0.45593999997E+02  0.45594000000E+02  0.51100000000E-03 0.  1.
         11   -1    0    0    0    0 -0.00000000000E+00 -0.00000000000E+00 -0.45593999997E+02  0.45594000000E+02  0.51100000000E-03 0. -1.
    9900012    2    1    2    0    0  0.34163679929E+02 -0.73507948877E+01  0.20784029720E+02  0.50528842320E+02  0.29999946717E+02 0.  0.
         12    1    1    2    0    0 -0.34163679929E+02  0.73507948877E+01 -0.20784029720E+02  0.40659157680E+02  0.00000000000E+00 0. -1.
         11    1    3    3    0    0  0.31301671675E+01  0.52653143563E+01  0.36047495356E+01  0.71074398515E+01  0.51100000000E-03 0. -1.
        -11    1    3    3    0    0  0.23671503755E+02 -0.93898531344E+01  0.11524683822E+01  0.25491912748E+02  0.51100000000E-03 0.  1.
         12    1    3    3    0    0  0.73620090065E+01 -0.32262561096E+01  0.16026811802E+02  0.17929489721E+02  0.00000000000E+00 0. -1.
</event>
<event>
 7    1  0.2969156E-011  0.5052885E+02  0.7816164E-02  0.1300439E+00
        -11   -1    0    0    0    0  0.00000000000E+00  0.00000000000E+00  0.45593999997E+02  0.45594000000E+02  0.51100000000E-03 0.  1.
         11   -1    0    0    0    0 -0.00000000000E+00 -0.00000000000E+00 -0.45593999997E+02  0.45594000000E+02  0.51100000000E-03 0. -1.
    9900012    2    1    2    0    0 -0.27677276569E+02  0.10897006078E+02  0.27719855764E+02  0.50528846255E+02  0.29999958675E+02 0.  0.
         12    1    1    2    0    0  0.27677276569E+02 -0.10897006078E+02 -0.27719855764E+02  0.40659153745E+02  0.00000000000E+00 0. -1.
         11    1    3    3    0    0 -0.67890327098E+01  0.78507757937E+01  0.92886297956E+01  0.13928542258E+02  0.51100000000E-03 0. -1.
        -11    1    3    3    0    0  0.42239817217E+01  0.32478254906E+01  0.75271042586E+01  0.92221304905E+01  0.51100000000E-03 0.  1.
        -12    1    3    3    0    0 -0.25112225581E+02 -0.20159520648E+00  0.10904121709E+02  0.27378173506E+02  0.00000000000E+00 0.  1.
</event>
<event>
 7    1  0.2969156E-011  0.5052885E+02  0.7816164E-02  0.1300439E+00
        -11   -1    0    0    0    0  0.00000000000E+00  0.00000000000E+00  0.45593999997E+02  0.45594000000E+02  0.51100000000E-03 0. -1.
         11   -1    0    0    0    0 -0.00000000000E+00 -0.00000000000E+00 -0.45593999997E+02  0.45594000000E+02  0.51100000000E-03 0.  1.
    9900012    2    1    2    0    0  0.16349914042E+02  0.13982676503E+02 -0.34501183152E+02  0.50528848874E+02  0.29999966638E+02 0.  0.
         12    1    1    2    0    0 -0.16349914042E+02 -0.13982676503E+02  0.34501183152E+02  0.40659151126E+02  0.00000000000E+00 0. -1.
         11    1    3    3    0    0 -0.44167355497E+01 -0.38718796398E+01 -0.13630090050E+02  0.14841777518E+02  0.51100000000E-03 0. -1.
        -11    1    3    3    0    0  0.27123771453E+01  0.22591672645E+01  0.61195856831E+00  0.35826414917E+01  0.51100000000E-03 0.  1.
        -12    1    3    3    0    0  0.18054272446E+02  0.15595388879E+02 -0.21483051670E+02  0.32104429864E+02  0.00000000000E+00 0.  1.
</event>
<event>
 7    1  0.2969156E-011  0.5052886E+02  0.7816164E-02  0.1300439E+00
        -11   -1    0    0    0    0  0.00000000000E+00  0.00000000000E+00  0.45593999997E+02  0.45594000000E+02  0.51100000000E-03 0.  1.
         11   -1    0    0    0    0 -0.00000000000E+00 -0.00000000000E+00 -0.45593999997E+02  0.45594000000E+02  0.51100000000E-03 0. -1.
    9900012    2    1    2    0    0 -0.53654766958E+01  0.18922256424E+02  0.35585472934E+02  0.50528855736E+02  0.29999987494E+02 0.  0.
         12    1    1    2    0    0  0.53654766958E+01 -0.18922256424E+02 -0.35585472934E+02  0.40659144264E+02  0.00000000000E+00 0. -1.
         11    1    3    3    0    0  0.15551177166E+01  0.61381566549E+01 -0.16282684311E+01  0.65380896734E+01  0.51100000000E-03 0. -1.
        -11    1    3    3    0    0  0.46635319206E+01 -0.12053979297E+01  0.11874406446E+02  0.12814173514E+02  0.51100000000E-03 0.  1.
        -12    1    3    3    0    0 -0.11584126333E+02  0.13989497698E+02  0.25339334920E+02  0.31176592549E+02  0.00000000000E+00 0.  1.
</event>
<event>
 7    1  0.2969156E-011  0.5052886E+02  0.7816164E-02  0.1300439E+00
        -11   -1    0    0    0    0  0.00000000000E+00  0.00000000000E+00  0.45593999997E+02  0.45594000000E+02  0.51100000000E-03 0.  1.
         11   -1    0    0    0    0 -0.00000000000E+00 -0.00000000000E+00 -0.45593999997E+02  0.45594000000E+02  0.51100000000E-03 0. -1.
    9900012    2    1    2    0    0  0.11461331334E+02  0.28607294922E+02  0.26522189960E+02  0.50528855899E+02  0.29999987991E+02 0.  0.
         12    1    1    2    0    0 -0.11461331334E+02 -0.28607294922E+02 -0.26522189960E+02  0.40659144101E+02  0.00000000000E+00 0. -1.
         11    1    3    3    0    0 -0.14462536393E+00  0.15040163787E+02  0.17370461752E+02  0.22977388559E+02  0.51100000000E-03 0.  1.
        -11    1    3    3    0    0  0.49944589822E+01 -0.17195710965E+00  0.11107018087E+02  0.12179492634E+02  0.51100000000E-03 0. -1.
         12    1    3    3    0    0  0.66114977160E+01  0.13739088245E+02 -0.19552898791E+01  0.15371974706E+02  0.00000000000E+00 0. -1.
</event>
<event>
 7    1  0.2969156E-011  0.5052886E+02  0.7816164E-02  0.1300439E+00
        -11   -1    0    0    0    0  0.00000000000E+00  0.00000000000E+00  0.45593999997E+02  0.45594000000E+02  0.51100000000E-03 0.  1.
         11   -1    0    0    0    0 -0.00000000000E+00 -0.00000000000E+00 -0.45593999997E+02  0.45594000000E+02  0.51100000000E-03 0. -1.
    9900012    2    1    2    0    0 -0.32274528314E+02  0.21694405102E+02  0.11869007306E+02  0.50528859269E+02  0.29999998233E+02 0.  0.
         12    1    1    2    0    0  0.32274528314E+02 -0.21694405102E+02 -0.11869007306E+02  0.40659140731E+02  0.00000000000E+00 0. -1.
         11    1    3    3    0    0 -0.58978548978E+01 -0.58219836764E+01  0.68871141742E+01  0.10775552340E+02  0.51100000000E-03 0. -1.
        -11    1    3    3    0    0 -0.88599664763E+00  0.54263165424E+01  0.21519823877E+01  0.59043145018E+01  0.51100000000E-03 0.  1.
        -12    1    3    3    0    0 -0.25490676768E+02  0.22090072236E+02  0.28299107444E+01  0.33848992427E+02  0.00000000000E+00 0.  1.
</event>
<event>
 7    1  0.2969156E-011  0.5052887E+02  0.7816164E-02  0.1300439E+00
        -11   -1    0    0    0    0  0.00000000000E+00  0.00000000000E+00  0.45593999997E+02  0.45594000000E+02  0.51100000000E-03 0.  1.
         11   -1    0    0    0    0 -0.00000000000E+00 -0.00000000000E+00 -0.45593999997E+02  0.45594000000E+02  0.51100000000E-03 0. -1.
    9900012    2    1    2    0    0 -0.21139494836E+02  0.18809065865E+02  0.29197704785E+02  0.50528866151E+02  0.30000019153E+02 0.  0.
         12    1    1    2    0    0  0.21139494836E+02 -0.18809065865E+02 -0.29197704785E+02  0.40659133849E+02  0.00000000000E+00 0. -1.
         11    1    3    3    0    0 -0.25335711605E+00 -0.57562245756E+01  0.56623522323E+01  0.80783998574E+01  0.51100000000E-03 0. -1.
        -11    1    3    3    0    0 -0.73231615438E+01  0.81256049921E+01  0.16896088586E+02  0.20127890134E+02  0.51100000000E-03 0.  1.
        -12    1    3    3    0    0 -0.13562976176E+02  0.16439685448E+02  0.66392639674E+01  0.22322576160E+02  0.00000000000E+00 0.  1.
</event>
<event>
 7    1  0.2969156E-011  0.5052886E+02  0.7816164E-02  0.1300439E+00
        -11   -1    0    0    0    0  0.00000000000E+00  0.00000000000E+00  0.45593999997E+02  0.45594000000E+02  0.51100000000E-03 0.  1.
         11   -1    0    0    0    0 -0.00000000000E+00 -0.00000000000E+00 -0.45593999997E+02  0.45594000000E+02  0.51100000000E-03 0. -1.
    9900012    2    1    2    0    0 -0.58690964044E+01 -0.16340690661E+02  0.36765487390E+02  0.50528861705E+02  0.30000005638E+02 0.  0.
         12    1    1    2    0    0  0.58690964044E+01  0.16340690661E+02 -0.36765487390E+02  0.40659138295E+02  0.00000000000E+00 0. -1.
         11    1    3    3    0    0 -0.10230843931E+02 -0.85660619414E+01  0.26972062178E+02  0.30092187078E+02  0.51100000000E-03 0. -1.
        -11    1    3    3    0    0 -0.26209966484E+01  0.35787210472E+01  0.37205481207E+01  0.57895894798E+01  0.51100000000E-03 0.  1.
        -12    1    3    3    0    0  0.69827441754E+01 -0.11353349767E+02  0.60728770918E+01  0.14647085147E+02  0.00000000000E+00 0.  1.
</event>
<event>
 7    1  0.2969156E-011  0.5052886E+02  0.7816164E-02  0.1300439E+00
        -11   -1    0    0    0    0  0.00000000000E+00  0.00000000000E+00  0.45593999997E+02  0.45594000000E+02  0.51100000000E-03 0. -1.
         11   -1    0    0    0    0 -0.00000000000E+00 -0.00000000000E+00 -0.45593999997E+02  0.45594000000E+02  0.51100000000E-03 0.  1.
    9900012    2    1    2    0    0 -0.38993387733E+02 -0.17787188339E+01 -0.11380588208E+02  0.50528856926E+02  0.29999991111E+02 0.  0.
         12    1    1    2    0    0  0.38993387733E+02  0.17787188339E+01  0.11380588208E+02  0.40659143074E+02  0.00000000000E+00 0. -1.
         11    1    3    3    0    0 -0.41362698223E+00 -0.44863416890E+01 -0.10995247535E+01  0.46375967888E+01  0.51100000000E-03 0.  1.
        -11    1    3    3    0    0 -0.73715542420E+01  0.75402686363E+01 -0.96664864873E+01  0.14305118815E+02  0.51100000000E-03 0. -1.
         12    1    3    3    0    0 -0.31208206509E+02 -0.48326457813E+01 -0.61457696739E+00  0.31586141322E+02  0.00000000000E+00 0. -1.
</event>
<event>
 7    1  0.2969156E-011  0.5052886E+02  0.7816164E-02  0.1300439E+00
        -11   -1    0    0    0    0  0.00000000000E+00  0.00000000000E+00  0.45593999997E+02  0.45594000000E+02  0.51100000000E-03 0.  1.
         11   -1    0    0    0    0 -0.00000000000E+00 -0.00000000000E+00 -0.45593999997E+02  0.45594000000E+02  0.51100000000E-03 0. -1.
    9900012    2    1    2    0    0 -0.20331939712E+02  0.35197755736E+02 -0.94647984764E+00  0.50528860739E+02  0.30000002703E+02 0.  0.
         12    1    1    2    0    0  0.20331939712E+02 -0.35197755736E+02  0.94647984764E+00  0.40659139261E+02  0.00000000000E+00 0. -1.
         11    1    3    3    0    0 -0.29266704748E+01  0.61861347764E+01  0.71188784963E+01  0.98748212564E+01  0.51100000000E-03 0. -1.
        -11    1    3    3    0    0 -0.25474176337E+01 -0.28946674640E+01  0.15692428995E+01  0.41630469450E+01  0.51100000000E-03 0.  1.
         12    1    3    3    0    0 -0.14857851603E+02  0.31906288424E+02 -0.96346012435E+01  0.36490992538E+02  0.00000000000E+00 0. -1.
</event>
<event>
 7    1  0.2969156E-011  0.5052885E+02  0.7816164E-02  0.1300439E+00
        -11   -1    0    0    0    0  0.00000000000E+00  0.00000000000E+00  0.45593999997E+02  0.45594000000E+02  0.51100000000E-03 0.  1.
         11   -1    0    0    0    0 -0.00000000000E+00 -0.00000000000E+00 -0.45593999997E+02  0.45594000000E+02  0.51100000000E-03 0. -1.
    9900012    2    1    2    0    0 -0.39579716445E+02 -0.74756735130E+01  0.55431448668E+01  0.50528854616E+02  0.29999984090E+02 0.  0.
         12    1    1    2    0    0  0.39579716445E+02  0.74756735130E+01 -0.55431448668E+01  0.40659145384E+02  0.00000000000E+00 0. -1.
         11    1    3    3    0    0 -0.16266547884E+02 -0.10771457347E+02  0.88127076215E+01  0.21407678280E+02  0.51100000000E-03 0. -1.
        -11    1    3    3    0    0 -0.22540044713E+02 -0.65235428696E+00  0.18324180842E+01  0.22623813518E+02  0.51100000000E-03 0.  1.
         12    1    3    3    0    0 -0.77312384834E+00  0.39481381214E+01 -0.51019808389E+01  0.64973628182E+01  0.00000000000E+00 0. -1.
</event>
<event>
 7    1  0.2969156E-011  0.5052887E+02  0.7816164E-02  0.1300439E+00
        -11   -1    0    0    0    0  0.00000000000E+00  0.00000000000E+00  0.45593999997E+02  0.45594000000E+02  0.51100000000E-03 0.  1.
         11   -1    0    0    0    0 -0.00000000000E+00 -0.00000000000E+00 -0.45593999997E+02  0.45594000000E+02  0.51100000000E-03 0. -1.
    9900012    2    1    2    0    0 -0.18505293794E+02  0.33618458905E+02 -0.13435715681E+02  0.50528866544E+02  0.30000020347E+02 0.  0.
         12    1    1    2    0    0  0.18505293794E+02 -0.33618458905E+02  0.13435715681E+02  0.40659133456E+02  0.00000000000E+00 0. -1.
         11    1    3    3    0    0  0.80970392419E+00 -0.56696847384E+00 -0.72769123778E+01  0.73437407165E+01  0.51100000000E-03 0. -1.
        -11    1    3    3    0    0 -0.11899317475E+02  0.54949982274E+01 -0.21463566233E+01  0.13281400863E+02  0.51100000000E-03 0.  1.
        -12    1    3    3    0    0 -0.74156802437E+01  0.28690429151E+02 -0.40124466803E+01  0.29903724964E+02  0.00000000000E+00 0.  1.
</event>
<event>
 7    1  0.6102191E-011  0.5052886E+02  0.7816164E-02  0.1300439E+00
        -11   -1    0    0    0    0  0.00000000000E+00  0.00000000000E+00  0.45593999997E+02  0.45594000000E+02  0.51100000000E-03 0. -1.
         11   -1    0    0    0    0 -0.00000000000E+00 -0.00000000000E+00 -0.45593999997E+02  0.45594000000E+02  0.51100000000E-03 0.  1.
    9900012    2    1    2    0    0  0.21257855935E+01 -0.54067224150E+01 -0.40241945309E+02  0.50528858668E+02  0.29999996407E+02 0.  0.
         12    1    1    2    0    0 -0.21257855935E+01  0.54067224150E+01  0.40241945309E+02  0.40659141332E+02  0.00000000000E+00 0. -1.
         11    1    3    3    0    0  0.31070153111E+01 -0.50958058337E+01  0.15831540963E+01  0.61747192966E+01  0.51100000000E-03 0. -1.
        -11    1    3    3    0    0 -0.34082360769E+01 -0.69239461851E+01 -0.21549513784E+02  0.22889706169E+02  0.51100000000E-03 0.  1.
        -12    1    3    3    0    0  0.24270063593E+01  0.66130296037E+01 -0.20275585621E+02  0.21464433202E+02  0.00000000000E+00 0.  1.
</event>
<event>
 7    1  0.2969156E-011  0.5052886E+02  0.7816164E-02  0.1300439E+00
        -11   -1    0    0    0    0  0.00000000000E+00  0.00000000000E+00  0.45593999997E+02  0.45594000000E+02  0.51100000000E-03 0. -1.
         11   -1    0    0    0    0 -0.00000000000E+00 -0.00000000000E+00 -0.45593999997E+02  0.45594000000E+02  0.51100000000E-03 0.  1.
    9900012    2    1    2    0    0 -0.24586197863E+02  0.25763245085E+02 -0.19619880207E+02  0.50528860535E+02  0.30000002084E+02 0.  0.
         12    1    1    2    0    0  0.24586197863E+02 -0.25763245085E+02  0.19619880207E+02  0.40659139465E+02  0.00000000000E+00 0. -1.
         11    1    3    3    0    0 -0.10698865803E+02  0.18027289439E+02 -0.12976205764E+02  0.24654224999E+02  0.51100000000E-03 0. -1.
        -11    1    3    3    0    0  0.12880758669E+01  0.39516973672E+01 -0.91361512321E+01  0.10037146563E+02  0.51100000000E-03 0.  1.
        -12    1    3    3    0    0 -0.15175407927E+02  0.37842582783E+01  0.24924767889E+01  0.15837488974E+02  0.00000000000E+00 0.  1.
</event>
<event>
 7    1  0.2969156E-011  0.5052886E+02  0.7816164E-02  0.1300439E+00
        -11   -1    0    0    0    0  0.00000000000E+00  0.00000000000E+00  0.45593999997E+02  0.45594000000E+02  0.51100000000E-03 0.  1.
         11   -1    0    0    0    0 -0.00000000000E+00 -0.00000000000E+00 -0.45593999997E+02  0.45594000000E+02  0.51100000000E-03 0. -1.
    9900012    2    1    2    0    0  0.76317015511E+01 -0.17573760579E+02  0.35862037336E+02  0.50528860175E+02  0.30000000986E+02 0.  0.
         12    1    1    2    0    0 -0.76317015511E+01  0.17573760579E+02 -0.35862037336E+02  0.40659139825E+02  0.00000000000E+00 0. -1.
         11    1    3    3    0    0  0.78344435920E+01 -0.66640536799E+01  0.48882859191E+01  0.11387864476E+02  0.51100000000E-03 0.  1.
        -11    1    3    3    0    0 -0.63622160579E+01  0.37920500624E+01  0.60859951697E+01  0.95862805253E+01  0.51100000000E-03 0. -1.
         12    1    3    3    0    0  0.61594740169E+01 -0.14701756962E+02  0.24887756247E+02  0.29554715173E+02  0.00000000000E+00 0. -1.
</event>
<event>
 7    1  0.2969156E-011  0.5052883E+02  0.7816164E-02  0.1300439E+00
        -11   -1    0    0    0    0  0.00000000000E+00  0.00000000000E+00  0.45593999997E+02  0.45594000000E+02  0.51100000000E-03 0. -1.
         11   -1    0    0    0    0 -0.00000000000E+00 -0.00000000000E+00 -0.45593999997E+02  0.45594000000E+02  0.51100000000E-03 0.  1.
    9900012    2    1    2    0    0  0.16407530199E+02  0.24473750318E+02  0.28017797047E+02  0.50528825719E+02  0.29999896255E+02 0.  0.
         12    1    1    2    0    0 -0.16407530199E+02 -0.24473750318E+02 -0.28017797047E+02  0.40659174281E+02  0.00000000000E+00 0. -1.
         11    1    3    3    0    0 -0.92299467422E+00  0.10768220695E+02  0.51393263937E+01  0.11967421282E+02  0.51100000000E-03 0. -1.
        -11    1    3    3    0    0 -0.30665111626E+01 -0.89719009042E+00 -0.15460511943E+01  0.35494669072E+01  0.51100000000E-03 0.  1.
        -12    1    3    3    0    0  0.20397036036E+02  0.14602719713E+02  0.24424521847E+02  0.35011937529E+02  0.00000000000E+00 0.  1.
</event>
<event>
 7    1  0.2969156E-011  0.5052886E+02  0.7816164E-02  0.1300439E+00
        -11   -1    0    0    0    0  0.00000000000E+00  0.00000000000E+00  0.45593999997E+02  0.45594000000E+02  0.51100000000E-03 0.  1.
         11   -1    0    0    0    0 -0.00000000000E+00 -0.00000000000E+00 -0.45593999997E+02  0.45594000000E+02  0.51100000000E-03 0. -1.
    9900012    2    1    2    0    0 -0.30487131794E+02  0.22991146980E+02  0.13968090896E+02  0.50528860711E+02  0.30000002617E+02 0.  0.
         12    1    1    2    0    0  0.30487131794E+02 -0.22991146980E+02 -0.13968090896E+02  0.40659139289E+02  0.00000000000E+00 0. -1.
         11    1    3    3    0    0 -0.73325570546E+01  0.71893601655E-01  0.27055663862E+01  0.78161148520E+01  0.51100000000E-03 0. -1.
        -11    1    3    3    0    0 -0.10382888539E+02 -0.35284622996E+00 -0.50539039910E+01  0.11552957227E+02  0.51100000000E-03 0.  1.
         12    1    3    3    0    0 -0.12771686200E+02  0.23272099608E+02  0.16316428500E+02  0.31159788632E+02  0.00000000000E+00 0. -1.
</event>
<event>
 7    1  0.2969156E-011  0.5052893E+02  0.7816164E-02  0.1300439E+00
        -11   -1    0    0    0    0  0.00000000000E+00  0.00000000000E+00  0.45593999997E+02  0.45594000000E+02  0.51100000000E-03 0. -1.
         11   -1    0    0    0    0 -0.00000000000E+00 -0.00000000000E+00 -0.45593999997E+02  0.45594000000E+02  0.51100000000E-03 0.  1.
    9900012    2    1    2    0    0  0.22520340710E+02 -0.33815486512E+02  0.15833810221E+01  0.50528930050E+02  0.30000213378E+02 0.  0.
         12    1    1    2    0    0 -0.22520340710E+02  0.33815486512E+02 -0.15833810221E+01  0.40659069950E+02  0.00000000000E+00 0. -1.
         11    1    3    3    0    0  0.45677467907E+01 -0.21735394440E+02 -0.97541626595E+01  0.24257686857E+02  0.51100000000E-03 0.  1.
        -11    1    3    3    0    0  0.10917869304E+02 -0.12106450779E+02  0.57472905285E+01  0.17285756254E+02  0.51100000000E-03 0. -1.
        -12    1    3    3    0    0  0.70347246162E+01  0.26358706581E-01  0.55902531530E+01  0.89854869385E+01  0.00000000000E+00 0.  1.
</event>
<event>
 7    1  0.2969156E-011  0.5052891E+02  0.7816164E-02  0.1300439E+00
        -11   -1    0    0    0    0  0.00000000000E+00  0.00000000000E+00  0.45593999997E+02  0.45594000000E+02  0.51100000000E-03 0.  1.
         11   -1    0    0    0    0 -0.00000000000E+00 -0.00000000000E+00 -0.45593999997E+02  0.45594000000E+02  0.51100000000E-03 0. -1.
    9900012    2    1    2    0    0  0.18644012895E+02 -0.90657234408E+01  0.34976773264E+02  0.50528914591E+02  0.30000166391E+02 0.  0.
         12    1    1    2    0    0 -0.18644012895E+02  0.90657234408E+01 -0.34976773264E+02  0.40659085409E+02  0.00000000000E+00 0. -1.
         11    1    3    3    0    0  0.24703877732E+01  0.80726227266E+01  0.18019332442E+02  0.19898904375E+02  0.51100000000E-03 0. -1.
        -11    1    3    3    0    0  0.37587781696E+01 -0.91759500018E+01  0.10759139936E+02  0.14631663069E+02  0.51100000000E-03 0.  1.
        -12    1    3    3    0    0  0.12414846952E+02 -0.79623961657E+01  0.61983008868E+01  0.15998347147E+02  0.00000000000E+00 0.  1.
</event>
<event>
 7    1  0.2969156E-011  0.5052886E+02  0.7816164E-02  0.1300439E+00
        -11   -1    0    0    0    0  0.00000000000E+00  0.00000000000E+00  0.45593999997E+02  0.45594000000E+02  0.51100000000E-03 0.  1.
         11   -1    0    0    0    0 -0.00000000000E+00 -0.00000000000E+00 -0.45593999997E+02  0.45594000000E+02  0.51100000000E-03 0. -1.
    9900012    2    1    2    0    0 -0.72185715373E+01  0.31985490096E+02  0.24041347463E+02  0.50528859090E+02  0.29999997691E+02 0.  0.
         12    1    1    2    0    0  0.72185715373E+01 -0.31985490096E+02 -0.24041347463E+02  0.40659140910E+02  0.00000000000E+00 0. -1.
         11    1    3    3    0    0  0.38846274031E+01  0.11267839762E+02 -0.31132399439E+00  0.11922728960E+02  0.51100000000E-03 0. -1.
        -11    1    3    3    0    0  0.47331140399E+00  0.15736189593E+02  0.19593251426E+02  0.25134581522E+02  0.51100000000E-03 0.  1.
         12    1    3    3    0    0 -0.11576510344E+02  0.49814607406E+01  0.47594200311E+01  0.13471548608E+02  0.00000000000E+00 0. -1.
</event>
<event>
 7    1  0.2969156E-011  0.5052884E+02  0.7816164E-02  0.1300439E+00
        -11   -1    0    0    0    0  0.00000000000E+00  0.00000000000E+00  0.45593999997E+02  0.45594000000E+02  0.51100000000E-03 0.  1.
         11   -1    0    0    0    0 -0.00000000000E+00 -0.00000000000E+00 -0.45593999997E+02  0.45594000000E+02  0.51100000000E-03 0. -1.
    9900012    2    1    2    0    0  0.15342096814E+02 -0.62576968363E+01  0.37129888952E+02  0.50528839188E+02  0.29999937196E+02 0.  0.
         12    1    1    2    0    0 -0.15342096814E+02  0.62576968363E+01 -0.37129888952E+02  0.40659160812E+02  0.00000000000E+00 0. -1.
         11    1    3    3    0    0  0.84902021031E+01 -0.60483621826E+01  0.16089717989E+02  0.19171469481E+02  0.51100000000E-03 0. -1.
        -11    1    3    3    0    0  0.66390380313E+01  0.23119796331E+01  0.25378976835E+02  0.26334664252E+02  0.51100000000E-03 0.  1.
         12    1    3    3    0    0  0.21285667972E+00 -0.25213142868E+01 -0.43388058716E+01  0.50227054552E+01  0.00000000000E+00 0. -1.
</event>
<event>
 7    1  0.2969156E-011  0.5052886E+02  0.7816164E-02  0.1300439E+00
        -11   -1    0    0    0    0  0.00000000000E+00  0.00000000000E+00  0.45593999997E+02  0.45594000000E+02  0.51100000000E-03 0.  1.
         11   -1    0    0    0    0 -0.00000000000E+00 -0.00000000000E+00 -0.45593999997E+02  0.45594000000E+02  0.51100000000E-03 0. -1.
    9900012    2    1    2    0    0 -0.21665594807E+02 -0.31637039845E+02  0.13522778568E+02  0.50528857994E+02  0.29999994359E+02 0.  0.
         12    1    1    2    0    0  0.21665594807E+02  0.31637039845E+02 -0.13522778568E+02  0.40659142006E+02  0.00000000000E+00 0. -1.
         11    1    3    3    0    0 -0.18348728099E+02 -0.12446505539E+02  0.60761127974E+01  0.22989355579E+02  0.51100000000E-03 0. -1.
        -11    1    3    3    0    0 -0.68188385961E+01 -0.21336134732E+02  0.60568304402E+01  0.23203715227E+02  0.51100000000E-03 0.  1.
        -12    1    3    3    0    0  0.35019718882E+01  0.21456004257E+01  0.13898353305E+01  0.43357871878E+01  0.00000000000E+00 0.  1.
</event>
<event>
 7    1  0.2969156E-011  0.5052886E+02  0.7816164E-02  0.1300439E+00
        -11   -1    0    0    0    0  0.00000000000E+00  0.00000000000E+00  0.45593999997E+02  0.45594000000E+02  0.51100000000E-03 0.  1.
         11   -1    0    0    0    0 -0.00000000000E+00 -0.00000000000E+00 -0.45593999997E+02  0.45594000000E+02  0.51100000000E-03 0. -1.
    9900012    2    1    2    0    0 -0.86720067572E+01  0.35427150010E+02  0.17968840631E+02  0.50528857207E+02  0.29999991967E+02 0.  0.
         12    1    1    2    0    0  0.86720067572E+01 -0.35427150010E+02 -0.17968840631E+02  0.40659142793E+02  0.00000000000E+00 0. -1.
         11    1    3    3    0    0 -0.79886866655E+01  0.25026251825E+00  0.15736038999E+00  0.79941546470E+01  0.51100000000E-03 0. -1.
        -11    1    3    3    0    0 -0.23183028319E+01  0.26917188379E+02  0.54230395984E+01  0.27555741997E+02  0.51100000000E-03 0.  1.
        -12    1    3    3    0    0  0.16349827402E+01  0.82596991127E+01  0.12388440642E+02  0.14978960563E+02  0.00000000000E+00 0.  1.
</event>
<event>
 7    1  0.2969156E-011  0.5052886E+02  0.7816164E-02  0.1300439E+00
        -11   -1    0    0    0    0  0.00000000000E+00  0.00000000000E+00  0.45593999997E+02  0.45594000000E+02  0.51100000000E-03 0.  1.
         11   -1    0    0    0    0 -0.00000000000E+00 -0.00000000000E+00 -0.45593999997E+02  0.45594000000E+02  0.51100000000E-03 0. -1.
    9900012    2    1    2    0    0  0.68445633657E+00  0.20407740085E+01  0.40602127401E+02  0.50528856028E+02  0.29999988384E+02 0.  0.
         12    1    1    2    0    0 -0.68445633657E+00 -0.20407740085E+01 -0.40602127401E+02  0.40659143972E+02  0.00000000000E+00 0. -1.
         11    1    3    3    0    0  0.22630692893E+01  0.21107526586E+01  0.14051802877E+01  0.33987190670E+01  0.51100000000E-03 0. -1.
        -11    1    3    3    0    0  0.70789859085E+01 -0.28179568107E+01  0.78584566518E+00  0.76596655117E+01  0.51100000000E-03 0.  1.
        -12    1    3    3    0    0 -0.86575988613E+01  0.27479781606E+01  0.38411101448E+02  0.39470471450E+02  0.00000000000E+00 0.  1.
</event>
<event>
 7    1  0.2969156E-011  0.5052886E+02  0.7816164E-02  0.1300439E+00
        -11   -1    0    0    0    0  0.00000000000E+00  0.00000000000E+00  0.45593999997E+02  0.45594000000E+02  0.51100000000E-03 0.  1.
         11   -1    0    0    0    0 -0.00000000000E+00 -0.00000000000E+00 -0.45593999997E+02  0.45594000000E+02  0.51100000000E-03 0. -1.
    9900012    2    1    2    0    0  0.13592868563E+02 -0.17161205817E+02  0.34262110622E+02  0.50528864678E+02  0.30000014675E+02 0.  0.
         12    1    1    2    0    0 -0.13592868563E+02  0.17161205817E+02 -0.34262110622E+02  0.40659135322E+02  0.00000000000E+00 0. -1.
         11    1    3    3    0    0  0.10252407409E+01 -0.13409387223E+02  0.12503522294E+02  0.18363029551E+02  0.51100000000E-03 0. -1.
        -11    1    3    3    0    0  0.12696082076E+02 -0.62432624551E+01  0.46741628879E+01  0.14900222318E+02  0.51100000000E-03 0.  1.
        -12    1    3    3    0    0 -0.12845425420E+00  0.24914438618E+01  0.17084425441E+02  0.17265612808E+02  0.00000000000E+00 0.  1.
</event>
<event>
 7    1  0.2969156E-011  0.5052900E+02  0.7816164E-02  0.1300438E+00
        -11   -1    0    0    0    0  0.00000000000E+00  0.00000000000E+00  0.45593999997E+02  0.45594000000E+02  0.51100000000E-03 0.  1.
         11   -1    0    0    0    0 -0.00000000000E+00 -0.00000000000E+00 -0.45593999997E+02  0.45594000000E+02  0.51100000000E-03 0. -1.
    9900012    2    1    2    0    0 -0.27382851775E+02  0.12510217455E+02  0.27328152470E+02  0.50529003093E+02  0.30000435397E+02 0.  0.
         12    1    1    2    0    0  0.27382851775E+02 -0.12510217455E+02 -0.27328152470E+02  0.40658996907E+02  0.00000000000E+00 0. -1.
         11    1    3    3    0    0 -0.23259171808E+02  0.44161696380E+01  0.21984444203E+02  0.32308008522E+02  0.51100000000E-03 0. -1.
        -11    1    3    3    0    0 -0.36956650483E+01 -0.27773258753E+01  0.56954615518E+01  0.73355137322E+01  0.51100000000E-03 0.  1.
         12    1    3    3    0    0 -0.42801491840E+00  0.10871373692E+02 -0.35175328424E+00  0.10885480839E+02  0.00000000000E+00 0. -1.
</event>
<event>
 7    1  0.2969156E-011  0.5052886E+02  0.7816164E-02  0.1300439E+00
        -11   -1    0    0    0    0  0.00000000000E+00  0.00000000000E+00  0.45593999997E+02  0.45594000000E+02  0.51100000000E-03 0. -1.
         11   -1    0    0    0    0 -0.00000000000E+00 -0.00000000000E+00 -0.45593999997E+02  0.45594000000E+02  0.51100000000E-03 0.  1.
    9900012    2    1    2    0    0 -0.20073531443E+02  0.35314202627E+02  0.17680759295E+01  0.50528860016E+02  0.30000000505E+02 0.  0.
         12    1    1    2    0    0  0.20073531443E+02 -0.35314202627E+02 -0.17680759295E+01  0.40659139984E+02  0.00000000000E+00 0. -1.
         11    1    3    3    0    0 -0.67169151333E+01  0.25457814087E+02  0.13648072256E+02  0.29656148158E+02  0.51100000000E-03 0.  1.
        -11    1    3    3    0    0 -0.11356398528E+01  0.54248397740E+00  0.26596462343E+00  0.12863530554E+01  0.51100000000E-03 0. -1.
        -12    1    3    3    0    0 -0.12220976456E+02  0.93139045621E+01 -0.12145960950E+02  0.19586358803E+02  0.00000000000E+00 0.  1.
</event>
<event>
 7    1  0.2969156E-011  0.5052885E+02  0.7816164E-02  0.1300439E+00
        -11   -1    0    0    0    0  0.00000000000E+00  0.00000000000E+00  0.45593999997E+02  0.45594000000E+02  0.51100000000E-03 0.  1.
         11   -1    0    0    0    0 -0.00000000000E+00 -0.00000000000E+00 -0.45593999997E+02  0.45594000000E+02  0.51100000000E-03 0. -1.
    9900012    2    1    2    0    0 -0.11157730145E+02 -0.99473448651E+01  0.37811662546E+02  0.50528850521E+02  0.29999971644E+02 0.  0.
         12    1    1    2    0    0  0.11157730145E+02  0.99473448651E+01 -0.37811662546E+02  0.40659149479E+02  0.00000000000E+00 0. -1.
         11    1    3    3    0    0 -0.18029528711E+00  0.48735737272E+01  0.15871713095E+02  0.16604080947E+02  0.51100000000E-03 0. -1.
        -11    1    3    3    0    0 -0.15366507742E+02 -0.14909408203E+02  0.19134309402E+02  0.28714836055E+02  0.51100000000E-03 0.  1.
         12    1    3    3    0    0  0.43890728832E+01  0.88489610595E-01  0.28056400486E+01  0.52099335186E+01  0.00000000000E+00 0. -1.
</event>
<event>
 7    1  0.2969156E-011  0.5052887E+02  0.7816164E-02  0.1300439E+00
        -11   -1    0    0    0    0  0.00000000000E+00  0.00000000000E+00  0.45593999997E+02  0.45594000000E+02  0.51100000000E-03 0.  1.
         11   -1    0    0    0    0 -0.00000000000E+00 -0.00000000000E+00 -0.45593999997E+02  0.45594000000E+02  0.51100000000E-03 0. -1.
    9900012    2    1    2    0    0 -0.15909661729E+02 -0.23346516234E+01  0.37344306073E+02  0.50528866578E+02  0.30000020450E+02 0.  0.
         12    1    1    2    0    0  0.15909661729E+02  0.23346516234E+01 -0.37344306073E+02  0.40659133422E+02  0.00000000000E+00 0. -1.
         11    1    3    3    0    0 -0.11030055653E+02  0.40183842791E+01  0.11191264834E+02  0.16218937967E+02  0.51100000000E-03 0. -1.
        -11    1    3    3    0    0 -0.56723388840E+01 -0.41249572353E+01 -0.97318985053E+00  0.70808049934E+01  0.51100000000E-03 0.  1.
        -12    1    3    3    0    0  0.79273280819E+00 -0.22280786672E+01  0.27126231090E+02  0.27229123618E+02  0.00000000000E+00 0.  1.
</event>
<event>
 7    1  0.2969156E-011  0.5052886E+02  0.7816164E-02  0.1300439E+00
        -11   -1    0    0    0    0  0.00000000000E+00  0.00000000000E+00  0.45593999997E+02  0.45594000000E+02  0.51100000000E-03 0.  1.
         11   -1    0    0    0    0 -0.00000000000E+00 -0.00000000000E+00 -0.45593999997E+02  0.45594000000E+02  0.51100000000E-03 0. -1.
    9900012    2    1    2    0    0  0.31470712275E+02  0.23709532448E+02  0.10030855651E+02  0.50528859267E+02  0.29999998228E+02 0.  0.
         12    1    1    2    0    0 -0.31470712275E+02 -0.23709532448E+02 -0.10030855651E+02  0.40659140733E+02  0.00000000000E+00 0. -1.
         11    1    3    3    0    0 -0.30370774828E+00 -0.18776734453E+01  0.13569076165E+01  0.23364705229E+01  0.51100000000E-03 0. -1.
        -11    1    3    3    0    0 -0.54507637428E+00  0.12087401371E+02 -0.37225851014E-01  0.12099742401E+02  0.51100000000E-03 0.  1.
         12    1    3    3    0    0  0.32319496398E+02  0.13499804523E+02  0.87111738857E+01  0.36092646343E+02  0.00000000000E+00 0. -1.
</event>
<event>
 7    1  0.2969156E-011  0.5052886E+02  0.7816164E-02  0.1300439E+00
        -11   -1    0    0    0    0  0.00000000000E+00  0.00000000000E+00  0.45593999997E+02  0.45594000000E+02  0.51100000000E-03 0. -1.
         11   -1    0    0    0    0 -0.00000000000E+00 -0.00000000000E+00 -0.45593999997E+02  0.45594000000E+02  0.51100000000E-03 0.  1.
    9900012    2    1    2    0    0  0.22167855328E+02 -0.33967760647E+02 -0.28184027987E+01  0.50528856286E+02  0.29999989167E+02 0.  0.
         12    1    1    2    0    0 -0.22167855328E+02  0.33967760647E+02  0.28184027987E+01  0.40659143714E+02  0.00000000000E+00 0. -1.
         11    1    3    3    0    0  0.68489050972E+01 -0.44568334461E+01  0.66634500610E+01  0.10543833856E+02  0.51100000000E-03 0. -1.
        -11    1    3    3    0    0  0.17982917807E+02 -0.16041424858E+02 -0.15950828282E+01  0.24150712905E+02  0.51100000000E-03 0.  1.
        -12    1    3    3    0    0 -0.26639675761E+01 -0.13469502344E+02 -0.78867700314E+01  0.15834309526E+02  0.00000000000E+00 0.  1.
</event>
<event>
 7    1  0.2969156E-011  0.5052886E+02  0.7816164E-02  0.1300439E+00
        -11   -1    0    0    0    0  0.00000000000E+00  0.00000000000E+00  0.45593999997E+02  0.45594000000E+02  0.51100000000E-03 0.  1.
         11   -1    0    0    0    0 -0.00000000000E+00 -0.00000000000E+00 -0.45593999997E+02  0.45594000000E+02  0.51100000000E-03 0. -1.
    9900012    2    1    2    0    0 -0.11709072428E+02  0.14815957265E+02  0.36007653005E+02  0.50528855374E+02  0.29999986395E+02 0.  0.
         12    1    1    2    0    0  0.11709072428E+02 -0.14815957265E+02 -0.36007653005E+02  0.40659144626E+02  0.00000000000E+00 0. -1.
         11    1    3    3    0    0 -0.13447367227E+02 -0.97694021026E+00  0.25425721783E+02  0.28779392384E+02  0.51100000000E-03 0. -1.
        -11    1    3    3    0    0  0.50720688014E+01  0.38092844867E+01  0.51751145630E+01  0.81864730640E+01  0.51100000000E-03 0.  1.
        -12    1    3    3    0    0 -0.33337740021E+01  0.11983612988E+02  0.54068166587E+01  0.13562989926E+02  0.00000000000E+00 0.  1.
</event>
<event>
 7    1  0.2969156E-011  0.5052887E+02  0.7816164E-02  0.1300439E+00
        -11   -1    0    0    0    0  0.00000000000E+00  0.00000000000E+00  0.45593999997E+02  0.45594000000E+02  0.51100000000E-03 0. -1.
         11   -1    0    0    0    0 -0.00000000000E+00 -0.00000000000E+00 -0.45593999997E+02  0.45594000000E+02  0.51100000000E-03 0.  1.
    9900012    2    1    2    0    0 -0.27506756721E+02 -0.23160476954E+02  0.18977229553E+02  0.50528873109E+02  0.30000040301E+02 0.  0.
         12    1    1    2    0    0  0.27506756721E+02  0.23160476954E+02 -0.18977229553E+02  0.40659126891E+02  0.00000000000E+00 0. -1.
         11    1    3    3    0    0 -0.13396760247E+02 -0.68103954657E+01  0.21475821131E+01  0.15181132392E+02  0.51100000000E-03 0.  1.
        -11    1    3    3    0    0 -0.17320109497E+02 -0.50745935369E+01  0.15029764800E+02  0.23486837223E+02  0.51100000000E-03 0. -1.
        -12    1    3    3    0    0  0.32101130229E+01 -0.11275487951E+02  0.17998826398E+01  0.11860903493E+02  0.00000000000E+00 0.  1.
</event>
<event>
 7    1  0.2969156E-011  0.5052876E+02  0.7816164E-02  0.1300439E+00
        -11   -1    0    0    0    0  0.00000000000E+00  0.00000000000E+00  0.45593999997E+02  0.45594000000E+02  0.51100000000E-03 0. -1.
         11   -1    0    0    0    0 -0.00000000000E+00 -0.00000000000E+00 -0.45593999997E+02  0.45594000000E+02  0.51100000000E-03 0.  1.
    9900012    2    1    2    0    0  0.98708887447E+00 -0.23898144018E+02 -0.32879756072E+02  0.50528757615E+02  0.29999689246E+02 0.  0.
         12    1    1    2    0    0 -0.98708887447E+00  0.23898144018E+02  0.32879756072E+02  0.40659242385E+02  0.00000000000E+00 0. -1.
         11    1    3    3    0    0  0.36966677935E+01  0.81609057839E+00 -0.18461528754E+02  0.18845673265E+02  0.51100000000E-03 0. -1.
        -11    1    3    3    0    0 -0.42805661068E+01 -0.99884027215E+01 -0.12791929678E+02  0.16784662650E+02  0.51100000000E-03 0.  1.
        -12    1    3    3    0    0  0.15709871878E+01 -0.14725831875E+02 -0.16262976399E+01  0.14898421700E+02  0.00000000000E+00 0.  1.
</event>
<event>
 7    1  0.2969156E-011  0.5052885E+02  0.7816164E-02  0.1300439E+00
        -11   -1    0    0    0    0  0.00000000000E+00  0.00000000000E+00  0.45593999997E+02  0.45594000000E+02  0.51100000000E-03 0.  1.
         11   -1    0    0    0    0 -0.00000000000E+00 -0.00000000000E+00 -0.45593999997E+02  0.45594000000E+02  0.51100000000E-03 0. -1.
    9900012    2    1    2    0    0 -0.28369436302E+02 -0.11372891619E+02 -0.26814147350E+02  0.50528854928E+02  0.29999985040E+02 0.  0.
         12    1    1    2    0    0  0.28369436302E+02  0.11372891619E+02  0.26814147350E+02  0.40659145072E+02  0.00000000000E+00 0. -1.
         11    1    3    3    0    0 -0.81044991778E+01 -0.23809711086E+01  0.11520769486E+01  0.85252103727E+01  0.51100000000E-03 0. -1.
        -11    1    3    3    0    0 -0.71288245139E+01 -0.13723369886E+02 -0.73950934741E+01  0.17141716009E+02  0.51100000000E-03 0.  1.
         12    1    3    3    0    0 -0.13136112610E+02  0.47314493748E+01 -0.20571130824E+02  0.24861928547E+02  0.00000000000E+00 0. -1.
</event>
<event>
 7    1  0.2969156E-011  0.5052887E+02  0.7816164E-02  0.1300439E+00
        -11   -1    0    0    0    0  0.00000000000E+00  0.00000000000E+00  0.45593999997E+02  0.45594000000E+02  0.51100000000E-03 0.  1.
         11   -1    0    0    0    0 -0.00000000000E+00 -0.00000000000E+00 -0.45593999997E+02  0.45594000000E+02  0.51100000000E-03 0. -1.
    9900012    2    1    2    0    0 -0.19208473740E+02 -0.31452828964E+02  0.17173215345E+02  0.50528865251E+02  0.30000016418E+02 0.  0.
         12    1    1    2    0    0  0.19208473740E+02  0.31452828964E+02 -0.17173215345E+02  0.40659134749E+02  0.00000000000E+00 0. -1.
         11    1    3    3    0    0 -0.14981037637E+02 -0.27742359740E+02  0.49505649498E+01  0.31915170472E+02  0.51100000000E-03 0. -1.
        -11    1    3    3    0    0 -0.53948111346E+01 -0.78999493759E+01  0.95041293886E+01  0.13484867927E+02  0.51100000000E-03 0.  1.
        -12    1    3    3    0    0  0.11673750325E+01  0.41894801526E+01  0.27185210067E+01  0.51288268521E+01  0.00000000000E+00 0.  1.
</event>
<event>
 7    1  0.2969156E-011  0.5052886E+02  0.7816164E-02  0.1300439E+00
        -11   -1    0    0    0    0  0.00000000000E+00  0.00000000000E+00  0.45593999997E+02  0.45594000000E+02  0.51100000000E-03 0. -1.
         11   -1    0    0    0    0 -0.00000000000E+00 -0.00000000000E+00 -0.45593999997E+02  0.45594000000E+02  0.51100000000E-03 0.  1.
    9900012    2    1    2    0    0 -0.49640909932E+01  0.38028909974E+02 -0.13502800335E+02  0.50528858223E+02  0.29999995054E+02 0.  0.
         12    1    1    2    0    0  0.49640909932E+01 -0.38028909974E+02  0.13502800335E+02  0.40659141777E+02  0.00000000000E+00 0. -1.
         11    1    3    3    0    0 -0.67144582873E+00 -0.15346495615E+01 -0.55454764835E+01  0.57929524828E+01  0.51100000000E-03 0. -1.
        -11    1    3    3    0    0  0.64061378477E+01  0.10949851380E+02 -0.62438507800E+01  0.14139431396E+02  0.51100000000E-03 0.  1.
         12    1    3    3    0    0 -0.10698783012E+02  0.28613708155E+02 -0.17134730712E+01  0.30596474344E+02  0.00000000000E+00 0. -1.
</event>
<event>
 7    1  0.2969156E-011  0.5052886E+02  0.7816164E-02  0.1300439E+00
        -11   -1    0    0    0    0  0.00000000000E+00  0.00000000000E+00  0.45593999997E+02  0.45594000000E+02  0.51100000000E-03 0.  1.
         11   -1    0    0    0    0 -0.00000000000E+00 -0.00000000000E+00 -0.45593999997E+02  0.45594000000E+02  0.51100000000E-03 0. -1.
    9900012    2    1    2    0    0 -0.11483337828E+02  0.30735300010E+02  0.24013328191E+02  0.50528860250E+02  0.30000001217E+02 0.  0.
         12    1    1    2    0    0  0.11483337828E+02 -0.30735300010E+02 -0.24013328191E+02  0.40659139750E+02  0.00000000000E+00 0. -1.
         11    1    3    3    0    0 -0.13781232130E+02  0.89851774544E+01  0.36899348076E+01  0.16860349702E+02  0.51100000000E-03 0.  1.
        -11    1    3    3    0    0  0.43370931006E+01  0.68573408340E+01 -0.33426911700E+00  0.81206672128E+01  0.51100000000E-03 0. -1.
        -12    1    3    3    0    0 -0.20391987981E+01  0.14892781721E+02  0.20657662501E+02  0.25547843336E+02  0.00000000000E+00 0.  1.
</event>
<event>
 7    1  0.2969156E-011  0.5052886E+02  0.7816164E-02  0.1300439E+00
        -11   -1    0    0    0    0  0.00000000000E+00  0.00000000000E+00  0.45593999997E+02  0.45594000000E+02  0.51100000000E-03 0.  1.
         11   -1    0    0    0    0 -0.00000000000E+00 -0.00000000000E+00 -0.45593999997E+02  0.45594000000E+02  0.51100000000E-03 0. -1.
    9900012    2    1    2    0    0 -0.24269390833E+01 -0.35334339989E+02  0.19968980811E+02  0.50528858218E+02  0.29999995039E+02 0.  0.
         12    1    1    2    0    0  0.24269390833E+01  0.35334339989E+02 -0.19968980811E+02  0.40659141782E+02  0.00000000000E+00 0. -1.
         11    1    3    3    0    0 -0.77265150412E+01 -0.83371902548E+00  0.14361052134E+01  0.79029437895E+01  0.51100000000E-03 0. -1.
        -11    1    3    3    0    0  0.14250002763E+01 -0.12387908936E+02 -0.14721999793E+01  0.12556205105E+02  0.51100000000E-03 0.  1.
        -12    1    3    3    0    0  0.38745756816E+01 -0.22112712028E+02  0.20005075577E+02  0.30069709323E+02  0.00000000000E+00 0.  1.
</event>
<event>
 7    1  0.2969156E-011  0.5052886E+02  0.7816164E-02  0.1300439E+00
        -11   -1    0    0    0    0  0.00000000000E+00  0.00000000000E+00  0.45593999997E+02  0.45594000000E+02  0.51100000000E-03 0.  1.
         11   -1    0    0    0    0 -0.00000000000E+00 -0.00000000000E+00 -0.45593999997E+02  0.45594000000E+02  0.51100000000E-03 0. -1.
    9900012    2    1    2    0    0 -0.33942266976E+02  0.18109472920E+02  0.13158070411E+02  0.50528864325E+02  0.30000013602E+02 0.  0.
         12    1    1    2    0    0  0.33942266976E+02 -0.18109472920E+02 -0.13158070411E+02  0.40659135675E+02  0.00000000000E+00 0. -1.
         11    1    3    3    0    0 -0.16410917027E+01  0.29005437571E+01 -0.10226862459E+01  0.34860039418E+01  0.51100000000E-03 0. -1.
        -11    1    3    3    0    0 -0.32188178942E+02  0.16823700576E+02  0.19681053799E+02  0.41309316668E+02  0.51100000000E-03 0.  1.
        -12    1    3    3    0    0 -0.11299633146E+00 -0.16147714131E+01 -0.55002971419E+01  0.57335437154E+01  0.00000000000E+00 0.  1.
</event>
<event>
 7    1  0.2969156E-011  0.5052886E+02  0.7816164E-02  0.1300439E+00
        -11   -1    0    0    0    0  0.00000000000E+00  0.00000000000E+00  0.45593999997E+02  0.45594000000E+02  0.51100000000E-03 0.  1.
         11   -1    0    0    0    0 -0.00000000000E+00 -0.00000000000E+00 -0.45593999997E+02  0.45594000000E+02  0.51100000000E-03 0. -1.
    9900012    2    1    2    0    0 -0.15492506945E+02 -0.10893509837E+02  0.35978869430E+02  0.50528863592E+02  0.30000011374E+02 0.  0.
         12    1    1    2    0    0  0.15492506945E+02  0.10893509837E+02 -0.35978869430E+02  0.40659136408E+02  0.00000000000E+00 0. -1.
         11    1    3    3    0    0 -0.27399131798E+01  0.50789529881E+01  0.15341531468E+02  0.16391018142E+02  0.51100000000E-03 0. -1.
        -11    1    3    3    0    0  0.21019485683E+01 -0.38308680466E+01 -0.17033430953E+01  0.46898950666E+01  0.51100000000E-03 0.  1.
        -12    1    3    3    0    0 -0.14854542333E+02 -0.12141594778E+02  0.22340681057E+02  0.29447950383E+02  0.00000000000E+00 0.  1.
</event>
<event>
 7    1  0.2969156E-011  0.5052886E+02  0.7816164E-02  0.1300439E+00
        -11   -1    0    0    0    0  0.00000000000E+00  0.00000000000E+00  0.45593999997E+02  0.45594000000E+02  0.51100000000E-03 0.  1.
         11   -1    0    0    0    0 -0.00000000000E+00 -0.00000000000E+00 -0.45593999997E+02  0.45594000000E+02  0.51100000000E-03 0. -1.
    9900012    2    1    2    0    0 -0.23675919741E+02  0.31910794143E+02  0.86207569569E+01  0.50528863156E+02  0.30000010048E+02 0.  0.
         12    1    1    2    0    0  0.23675919741E+02 -0.31910794143E+02 -0.86207569569E+01  0.40659136844E+02  0.00000000000E+00 0. -1.
         11    1    3    3    0    0 -0.11090242273E+02  0.19585621000E+02 -0.66549608604E+01  0.23470801604E+02  0.51100000000E-03 0. -1.
        -11    1    3    3    0    0 -0.78699501047E+01  0.26495984323E+01 -0.81522348702E-01  0.83044044132E+01  0.51100000000E-03 0.  1.
        -12    1    3    3    0    0 -0.47157273628E+01  0.96755747112E+01  0.15357240166E+02  0.18753657139E+02  0.00000000000E+00 0.  1.
</event>
<event>
 7    1  0.2969156E-011  0.5052885E+02  0.7816164E-02  0.1300439E+00
        -11   -1    0    0    0    0  0.00000000000E+00  0.00000000000E+00  0.45593999997E+02  0.45594000000E+02  0.51100000000E-03 0. -1.
         11   -1    0    0    0    0 -0.00000000000E+00 -0.00000000000E+00 -0.45593999997E+02  0.45594000000E+02  0.51100000000E-03 0.  1.
    9900012    2    1    2    0    0  0.31867107860E+02 -0.13303793249E+02 -0.21463055520E+02  0.50528853053E+02  0.29999979341E+02 0.  0.
         12    1    1    2    0    0 -0.31867107860E+02  0.13303793249E+02  0.21463055520E+02  0.40659146947E+02  0.00000000000E+00 0. -1.
         11    1    3    3    0    0  0.81629348066E+01 -0.35875512454E+01  0.44763204750E+01  0.99770473513E+01  0.51100000000E-03 0. -1.
        -11    1    3    3    0    0  0.20299006561E+02 -0.33696438328E+01 -0.96215444187E+01  0.22715155385E+02  0.51100000000E-03 0.  1.
        -12    1    3    3    0    0  0.34051664928E+01 -0.63465981707E+01 -0.16317831576E+02  0.17836650317E+02  0.00000000000E+00 0.  1.
</event>
<event>
 7    1  0.2969156E-011  0.5052887E+02  0.7816164E-02  0.1300439E+00
        -11   -1    0    0    0    0  0.00000000000E+00  0.00000000000E+00  0.45593999997E+02  0.45594000000E+02  0.51100000000E-03 0. -1.
         11   -1    0    0    0    0 -0.00000000000E+00 -0.00000000000E+00 -0.45593999997E+02  0.45594000000E+02  0.51100000000E-03 0.  1.
    9900012    2    1    2    0    0  0.10972497177E+02 -0.15576438327E+02 -0.35918567226E+02  0.50528873142E+02  0.30000040403E+02 0.  0.
         12    1    1    2    0    0 -0.10972497177E+02  0.15576438327E+02  0.35918567226E+02  0.40659126858E+02  0.00000000000E+00 0. -1.
         11    1    3    3    0    0  0.65440751409E+01  0.60323427822E+01 -0.13338675619E+02  0.16035409144E+02  0.51100000000E-03 0. -1.
        -11    1    3    3    0    0  0.28342790608E+01  0.12952035405E+01 -0.27436181760E+01  0.41518828214E+01  0.51100000000E-03 0.  1.
        -12    1    3    3    0    0  0.15941429755E+01 -0.22903984649E+02 -0.19836273432E+02  0.30341581177E+02  0.00000000000E+00 0.  1.
</event>
<event>
 7    1  0.2969156E-011  0.5052887E+02  0.7816164E-02  0.1300439E+00
        -11   -1    0    0    0    0  0.00000000000E+00  0.00000000000E+00  0.45593999997E+02  0.45594000000E+02  0.51100000000E-03 0. -1.
         11   -1    0    0    0    0 -0.00000000000E+00 -0.00000000000E+00 -0.45593999997E+02  0.45594000000E+02  0.51100000000E-03 0.  1.
    9900012    2    1    2    0    0  0.36612932263E+02 -0.93570527700E+01 -0.15003459070E+02  0.50528867821E+02  0.30000024230E+02 0.  0.
         12    1    1    2    0    0 -0.36612932263E+02  0.93570527700E+01  0.15003459070E+02  0.40659132179E+02  0.00000000000E+00 0. -1.
         11    1    3    3    0    0 -0.11304506213E+01 -0.23302992800E+01 -0.34260370396E+00  0.26125831854E+01  0.51100000000E-03 0. -1.
        -11    1    3    3    0    0  0.10693910026E+02 -0.96083913123E+01  0.40367152072E+01  0.14932379756E+02  0.51100000000E-03 0.  1.
        -12    1    3    3    0    0  0.27049472858E+02  0.25816378223E+01 -0.18697570574E+02  0.32983904880E+02  0.00000000000E+00 0.  1.
</event>
<event>
 7    1  0.2969156E-011  0.5052886E+02  0.7816164E-02  0.1300439E+00
        -11   -1    0    0    0    0  0.00000000000E+00  0.00000000000E+00  0.45593999997E+02  0.45594000000E+02  0.51100000000E-03 0.  1.
         11   -1    0    0    0    0 -0.00000000000E+00 -0.00000000000E+00 -0.45593999997E+02  0.45594000000E+02  0.51100000000E-03 0. -1.
    9900012    2    1    2    0    0 -0.16469722109E+02 -0.13255787129E+02  0.34730364531E+02  0.50528857619E+02  0.29999993218E+02 0.  0.
         12    1    1    2    0    0  0.16469722109E+02  0.13255787129E+02 -0.34730364531E+02  0.40659142381E+02  0.00000000000E+00 0. -1.
         11    1    3    3    0    0 -0.18902790845E+02 -0.11350810846E+02  0.19347926148E+02  0.29334257364E+02  0.51100000000E-03 0. -1.
        -11    1    3    3    0    0 -0.13004639446E+00 -0.79439423563E+01  0.94873999757E+01  0.12374727907E+02  0.51100000000E-03 0.  1.
         12    1    3    3    0    0  0.25631151308E+01  0.60389660736E+01  0.58950384072E+01  0.88198723479E+01  0.00000000000E+00 0. -1.
</event>
<event>
 7    1  0.2969156E-011  0.5052883E+02  0.7816164E-02  0.1300439E+00
        -11   -1    0    0    0    0  0.00000000000E+00  0.00000000000E+00  0.45593999997E+02  0.45594000000E+02  0.51100000000E-03 0. -1.
         11   -1    0    0    0    0 -0.00000000000E+00 -0.00000000000E+00 -0.45593999997E+02  0.45594000000E+02  0.51100000000E-03 0.  1.
    9900012    2    1    2    0    0  0.70553187551E+01 -0.16276792268E+02 -0.36584919597E+02  0.50528833369E+02  0.29999919507E+02 0.  0.
         12    1    1    2    0    0 -0.70553187551E+01  0.16276792268E+02  0.36584919597E+02  0.40659166631E+02  0.00000000000E+00 0. -1.
         11    1    3    3    0    0 -0.10171608999E+02 -0.39559560585E+01 -0.13559468777E+02  0.17406045264E+02  0.51100000000E-03 0.  1.
        -11    1    3    3    0    0  0.21004760791E+01  0.13657451205E+01 -0.61751135649E+01  0.66640293587E+01  0.51100000000E-03 0. -1.
        -12    1    3    3    0    0  0.15126451675E+02 -0.13686581330E+02 -0.16850337255E+02  0.26458758746E+02  0.00000000000E+00 0.  1.
</event>
<event>
 7    1  0.2969156E-011  0.5052885E+02  0.7816164E-02  0.1300439E+00
        -11   -1    0    0    0    0  0.00000000000E+00  0.00000000000E+00  0.45593999997E+02  0.45594000000E+02  0.51100000000E-03 0.  1.
         11   -1    0    0    0    0 -0.00000000000E+00 -0.00000000000E+00 -0.45593999997E+02  0.45594000000E+02  0.51100000000E-03 0. -1.
    9900012    2    1    2    0    0 -0.63698275914E+01 -0.13912498772E+02  0.37670072425E+02  0.50528847498E+02  0.29999962456E+02 0.  0.
         12    1    1    2    0    0  0.63698275914E+01  0.13912498772E+02 -0.37670072425E+02  0.40659152502E+02  0.00000000000E+00 0. -1.
         11    1    3    3    0    0  0.30707627039E+01  0.77233941696E+00  0.52364999089E+01  0.61193973000E+01  0.51100000000E-03 0.  1.
        -11    1    3    3    0    0 -0.12851753903E+02 -0.20044491898E+02  0.27427457081E+02  0.36320994425E+02  0.51100000000E-03 0. -1.
         12    1    3    3    0    0  0.34111636079E+01  0.53596537092E+01  0.50061154358E+01  0.80884557734E+01  0.00000000000E+00 0. -1.
</event>
<event>
 7    1  0.2969156E-011  0.5052886E+02  0.7816164E-02  0.1300439E+00
        -11   -1    0    0    0    0  0.00000000000E+00  0.00000000000E+00  0.45593999997E+02  0.45594000000E+02  0.51100000000E-03 0.  1.
         11   -1    0    0    0    0 -0.00000000000E+00 -0.00000000000E+00 -0.45593999997E+02  0.45594000000E+02  0.51100000000E-03 0. -1.
    9900012    2    1    2    0    0  0.11999244966E+02  0.19256901772E+02  0.33739526018E+02  0.50528858820E+02  0.29999996869E+02 0.  0.
         12    1    1    2    0    0 -0.11999244966E+02 -0.19256901772E+02 -0.33739526018E+02  0.40659141180E+02  0.00000000000E+00 0. -1.
         11    1    3    3    0    0 -0.14407557112E+01  0.13877063975E+02  0.10281436204E+02  0.17330799528E+02  0.51100000000E-03 0. -1.
        -11    1    3    3    0    0  0.11364284779E+02  0.57641680084E+01  0.26552721164E+02  0.29451988097E+02  0.51100000000E-03 0.  1.
         12    1    3    3    0    0  0.20757158980E+01 -0.38433021158E+00 -0.30946313511E+01  0.37460711952E+01  0.00000000000E+00 0. -1.
</event>
<event>
 7    1  0.2969156E-011  0.5052886E+02  0.7816164E-02  0.1300439E+00
        -11   -1    0    0    0    0  0.00000000000E+00  0.00000000000E+00  0.45593999997E+02  0.45594000000E+02  0.51100000000E-03 0.  1.
         11   -1    0    0    0    0 -0.00000000000E+00 -0.00000000000E+00 -0.45593999997E+02  0.45594000000E+02  0.51100000000E-03 0. -1.
    9900012    2    1    2    0    0 -0.17083738653E+02 -0.19071841644E+02  0.31584435445E+02  0.50528857948E+02  0.29999994218E+02 0.  0.
         12    1    1    2    0    0  0.17083738653E+02  0.19071841644E+02 -0.31584435445E+02  0.40659142052E+02  0.00000000000E+00 0. -1.
         11    1    3    3    0    0 -0.11298892752E+02 -0.16859996054E+02  0.14386351438E+02  0.24877531074E+02  0.51100000000E-03 0.  1.
        -11    1    3    3    0    0 -0.85776534735E+01  0.26455895367E+01  0.16530310865E+01  0.91273104002E+01  0.51100000000E-03 0. -1.
         12    1    3    3    0    0  0.27928075722E+01 -0.48574351260E+01  0.15545052920E+02  0.16524016474E+02  0.00000000000E+00 0. -1.
</event>
<event>
 7    1  0.2969156E-011  0.5052885E+02  0.7816164E-02  0.1300439E+00
        -11   -1    0    0    0    0  0.00000000000E+00  0.00000000000E+00  0.45593999997E+02  0.45594000000E+02  0.51100000000E-03 0.  1.
         11   -1    0    0    0    0 -0.00000000000E+00 -0.00000000000E+00 -0.45593999997E+02  0.45594000000E+02  0.51100000000E-03 0. -1.
    9900012    2    1    2    0    0 -0.13681290969E+02 -0.23889618840E+02  0.29921139420E+02  0.50528853488E+02  0.29999980662E+02 0.  0.
         12    1    1    2    0    0  0.13681290969E+02  0.23889618840E+02 -0.29921139420E+02  0.40659146512E+02  0.00000000000E+00 0. -1.
         11    1    3    3    0    0  0.76031369529E+01 -0.17725783365E+01  0.17368291134E+01  0.79978935423E+01  0.51100000000E-03 0. -1.
        -11    1    3    3    0    0 -0.80766733539E+01 -0.31850447305E+01  0.63464747244E+01  0.10754297006E+02  0.51100000000E-03 0.  1.
        -12    1    3    3    0    0 -0.13207754568E+02 -0.18931995773E+02  0.21837835582E+02  0.31776662940E+02  0.00000000000E+00 0.  1.
</event>
<event>
 7    1  0.2969156E-011  0.5052885E+02  0.7816164E-02  0.1300439E+00
        -11   -1    0    0    0    0  0.00000000000E+00  0.00000000000E+00  0.45593999997E+02  0.45594000000E+02  0.51100000000E-03 0.  1.
         11   -1    0    0    0    0 -0.00000000000E+00 -0.00000000000E+00 -0.45593999997E+02  0.45594000000E+02  0.51100000000E-03 0. -1.
    9900012    2    1    2    0    0  0.22583092934E+02  0.33253099847E+02  0.61156726188E+01  0.50528853581E+02  0.29999980946E+02 0.  0.
         12    1    1    2    0    0 -0.22583092934E+02 -0.33253099847E+02 -0.61156726188E+01  0.40659146419E+02  0.00000000000E+00 0. -1.
         11    1    3    3    0    0  0.18644436245E+02  0.24991249537E+02  0.11931318098E+01  0.31202581946E+02  0.51100000000E-03 0. -1.
        -11    1    3    3    0    0 -0.19337280167E+01  0.11716912912E+02  0.31060656543E+01  0.12274892926E+02  0.51100000000E-03 0.  1.
         12    1    3    3    0    0  0.58723847056E+01 -0.34550626022E+01  0.18164751547E+01  0.70513787094E+01  0.00000000000E+00 0. -1.
</event>
<event>
 7    1  0.2969156E-011  0.5052886E+02  0.7816164E-02  0.1300439E+00
        -11   -1    0    0    0    0  0.00000000000E+00  0.00000000000E+00  0.45593999997E+02  0.45594000000E+02  0.51100000000E-03 0.  1.
         11   -1    0    0    0    0 -0.00000000000E+00 -0.00000000000E+00 -0.45593999997E+02  0.45594000000E+02  0.51100000000E-03 0. -1.
    9900012    2    1    2    0    0 -0.38393907420E+02  0.11895826653E+02  0.61288249451E+01  0.50528864324E+02  0.30000013600E+02 0.  0.
         12    1    1    2    0    0  0.38393907420E+02 -0.11895826653E+02 -0.61288249451E+01  0.40659135676E+02  0.00000000000E+00 0. -1.
         11    1    3    3    0    0 -0.23820969592E+02 -0.40149479193E+01  0.26394772962E+01  0.24300725087E+02  0.51100000000E-03 0. -1.
        -11    1    3    3    0    0 -0.69736016946E+00  0.14391710954E+01  0.58278628697E+01  0.60433029493E+01  0.51100000000E-03 0.  1.
        -12    1    3    3    0    0 -0.13875577658E+02  0.14471603476E+02 -0.23385152209E+01  0.20184836288E+02  0.00000000000E+00 0.  1.
</event>
<event>
 7    1  0.2969156E-011  0.5052887E+02  0.7816164E-02  0.1300439E+00
        -11   -1    0    0    0    0  0.00000000000E+00  0.00000000000E+00  0.45593999997E+02  0.45594000000E+02  0.51100000000E-03 0. -1.
         11   -1    0    0    0    0 -0.00000000000E+00 -0.00000000000E+00 -0.45593999997E+02  0.45594000000E+02  0.51100000000E-03 0.  1.
    9900012    2    1    2    0    0  0.45300432620E+01  0.32960978644E+02 -0.23371302989E+02  0.50528865620E+02  0.30000017539E+02 0.  0.
         12    1    1    2    0    0 -0.45300432620E+01 -0.32960978644E+02  0.23371302989E+02  0.40659134380E+02  0.00000000000E+00 0. -1.
         11    1    3    3    0    0 -0.84450086282E+01  0.68090351971E+01 -0.83691143764E+01  0.13701211872E+02  0.51100000000E-03 0.  1.
        -11    1    3    3    0    0  0.34689136805E+00  0.14183162091E+02 -0.13125659075E+02  0.19327838652E+02  0.51100000000E-03 0. -1.
         12    1    3    3    0    0  0.12628160522E+02  0.11968781355E+02 -0.18765295373E+01  0.17499815096E+02  0.00000000000E+00 0. -1.
</event>
<event>
 7    1  0.2969156E-011  0.5052884E+02  0.7816164E-02  0.1300439E+00
        -11   -1    0    0    0    0  0.00000000000E+00  0.00000000000E+00  0.45593999997E+02  0.45594000000E+02  0.51100000000E-03 0.  1.
         11   -1    0    0    0    0 -0.00000000000E+00 -0.00000000000E+00 -0.45593999997E+02  0.45594000000E+02  0.51100000000E-03 0. -1.
    9900012    2    1    2    0    0  0.35734603042E+02 -0.13136020688E+02  0.14270627321E+02  0.50528835003E+02  0.29999924475E+02 0.  0.
         12    1    1    2    0    0 -0.35734603042E+02  0.13136020688E+02 -0.14270627321E+02  0.40659164997E+02  0.00000000000E+00 0. -1.
         11    1    3    3    0    0  0.96497279840E+01  0.12804526278E+01  0.12307094636E+02  0.15691443137E+02  0.51100000000E-03 0. -1.
        -11    1    3    3    0    0  0.85045237840E+01 -0.14787277296E+02  0.25242264541E+01  0.17244193634E+02  0.51100000000E-03 0.  1.
         12    1    3    3    0    0  0.17580351274E+02  0.37080398036E+00 -0.56069376837E+00  0.17593198232E+02  0.00000000000E+00 0. -1.
</event>
<event>
 7    1  0.2969156E-011  0.5052886E+02  0.7816164E-02  0.1300439E+00
        -11   -1    0    0    0    0  0.00000000000E+00  0.00000000000E+00  0.45593999997E+02  0.45594000000E+02  0.51100000000E-03 0.  1.
         11   -1    0    0    0    0 -0.00000000000E+00 -0.00000000000E+00 -0.45593999997E+02  0.45594000000E+02  0.51100000000E-03 0. -1.
    9900012    2    1    2    0    0  0.20520406570E+02  0.26317900130E+02  0.23225998721E+02  0.50528856260E+02  0.29999989089E+02 0.  0.
         12    1    1    2    0    0 -0.20520406570E+02 -0.26317900130E+02 -0.23225998721E+02  0.40659143740E+02  0.00000000000E+00 0. -1.
         11    1    3    3    0    0  0.77800184055E+01  0.13719666954E+01  0.12963911873E+02  0.15181369843E+02  0.51100000000E-03 0. -1.
        -11    1    3    3    0    0  0.75384788742E+01  0.52877217319E+01 -0.44712112807E+01  0.10236229551E+02  0.51100000000E-03 0.  1.
        -12    1    3    3    0    0  0.52019092906E+01  0.19658211703E+02  0.14733298128E+02  0.25111256865E+02  0.00000000000E+00 0.  1.
</event>
<event>
 7    1  0.2969156E-011  0.5052885E+02  0.7816164E-02  0.1300439E+00
        -11   -1    0    0    0    0  0.00000000000E+00  0.00000000000E+00  0.45593999997E+02  0.45594000000E+02  0.51100000000E-03 0. -1.
         11   -1    0    0    0    0 -0.00000000000E+00 -0.00000000000E+00 -0.45593999997E+02  0.45594000000E+02  0.51100000000E-03 0.  1.
    9900012    2    1    2    0    0  0.18292015127E+02 -0.10990186500E+02 -0.34609018055E+02  0.50528854074E+02  0.29999982443E+02 0.  0.
         12    1    1    2    0    0 -0.18292015127E+02  0.10990186500E+02  0.34609018055E+02  0.40659145926E+02  0.00000000000E+00 0. -1.
         11    1    3    3    0    0 -0.41135908093E+01 -0.39054649867E+01 -0.19243948013E+02  0.20062497887E+02  0.51100000000E-03 0. -1.
        -11    1    3    3    0    0  0.30470867497E+01  0.16681020022E+01  0.10380622240E+01  0.36255862135E+01  0.51100000000E-03 0.  1.
        -12    1    3    3    0    0  0.19358519187E+02 -0.87528235157E+01 -0.16403132266E+02  0.26840769973E+02  0.00000000000E+00 0.  1.
</event>
<event>
 7    1  0.2969156E-011  0.5052887E+02  0.7816164E-02  0.1300439E+00
        -11   -1    0    0    0    0  0.00000000000E+00  0.00000000000E+00  0.45593999997E+02  0.45594000000E+02  0.51100000000E-03 0. -1.
         11   -1    0    0    0    0 -0.00000000000E+00 -0.00000000000E+00 -0.45593999997E+02  0.45594000000E+02  0.51100000000E-03 0.  1.
    9900012    2    1    2    0    0 -0.18229144125E+02  0.35369376791E+02 -0.83588651058E+01  0.50528866513E+02  0.30000020252E+02 0.  0.
         12    1    1    2    0    0  0.18229144125E+02 -0.35369376791E+02  0.83588651058E+01  0.40659133487E+02  0.00000000000E+00 0. -1.
         11    1    3    3    0    0 -0.96824551391E+01  0.21534241817E+02 -0.18845620595E+02  0.30209781926E+02  0.51100000000E-03 0.  1.
        -11    1    3    3    0    0 -0.25020183676E+01  0.57189746512E+01  0.75202017042E+01  0.97734436565E+01  0.51100000000E-03 0. -1.
        -12    1    3    3    0    0 -0.60446706181E+01  0.81161603228E+01  0.29665537851E+01  0.10545640930E+02  0.00000000000E+00 0.  1.
</event>
<event>
 7    1  0.2969156E-011  0.5052886E+02  0.7816164E-02  0.1300439E+00
        -11   -1    0    0    0    0  0.00000000000E+00  0.00000000000E+00  0.45593999997E+02  0.45594000000E+02  0.51100000000E-03 0.  1.
         11   -1    0    0    0    0 -0.00000000000E+00 -0.00000000000E+00 -0.45593999997E+02  0.45594000000E+02  0.51100000000E-03 0. -1.
    9900012    2    1    2    0    0 -0.62714484451E+01 -0.33437564030E+02  0.22265757467E+02  0.50528859460E+02  0.29999998815E+02 0.  0.
         12    1    1    2    0    0  0.62714484451E+01  0.33437564030E+02 -0.22265757467E+02  0.40659140540E+02  0.00000000000E+00 0. -1.
         11    1    3    3    0    0  0.22068591651E+01 -0.49929274070E+01  0.29572422303E+01  0.62084485450E+01  0.51100000000E-03 0. -1.
        -11    1    3    3    0    0 -0.43342472167E+01 -0.44965671925E+01  0.19015310678E+02  0.20014666020E+02  0.51100000000E-03 0.  1.
         12    1    3    3    0    0 -0.41440603935E+01 -0.23948069430E+02  0.29320455901E+00  0.24305744895E+02  0.00000000000E+00 0. -1.
</event>
<event>
 7    1  0.2969156E-011  0.5052884E+02  0.7816164E-02  0.1300439E+00
        -11   -1    0    0    0    0  0.00000000000E+00  0.00000000000E+00  0.45593999997E+02  0.45594000000E+02  0.51100000000E-03 0.  1.
         11   -1    0    0    0    0 -0.00000000000E+00 -0.00000000000E+00 -0.45593999997E+02  0.45594000000E+02  0.51100000000E-03 0. -1.
    9900012    2    1    2    0    0  0.39945365892E+02 -0.75554149642E+01 -0.67138320793E+00  0.50528839815E+02  0.29999939103E+02 0.  0.
         12    1    1    2    0    0 -0.39945365892E+02  0.75554149642E+01  0.67138320793E+00  0.40659160185E+02  0.00000000000E+00 0. -1.
         11    1    3    3    0    0  0.20706108158E+01 -0.23454138039E+01  0.46038185857E+01  0.55662860951E+01  0.51100000000E-03 0. -1.
        -11    1    3    3    0    0  0.31671381784E+02 -0.11752946910E+02  0.12947213406E+01  0.33806574638E+02  0.51100000000E-03 0.  1.
         12    1    3    3    0    0  0.62033732922E+01  0.65429457499E+01 -0.65699231342E+01  0.11155979082E+02  0.00000000000E+00 0. -1.
</event>
<event>
 7    1  0.2969156E-011  0.5052886E+02  0.7816164E-02  0.1300439E+00
        -11   -1    0    0    0    0  0.00000000000E+00  0.00000000000E+00  0.45593999997E+02  0.45594000000E+02  0.51100000000E-03 0.  1.
         11   -1    0    0    0    0 -0.00000000000E+00 -0.00000000000E+00 -0.45593999997E+02  0.45594000000E+02  0.51100000000E-03 0. -1.
    9900012    2    1    2    0    0 -0.55894544597E+01 -0.89315422325E+01  0.39270229892E+02  0.50528863222E+02  0.30000010249E+02 0.  0.
         12    1    1    2    0    0  0.55894544597E+01  0.89315422325E+01 -0.39270229892E+02  0.40659136778E+02  0.00000000000E+00 0. -1.
         11    1    3    3    0    0  0.16352430092E+00 -0.78414447861E+01  0.62111634170E+01  0.10004676296E+02  0.51100000000E-03 0.  1.
        -11    1    3    3    0    0 -0.52050480730E+01 -0.14206760301E+01 -0.17782947683E+01  0.56809487209E+01  0.51100000000E-03 0. -1.
        -12    1    3    3    0    0 -0.54793068765E+00  0.33057858376E+00  0.34837361243E+02  0.34843238205E+02  0.00000000000E+00 0.  1.
</event>
<event>
 7    1  0.2969156E-011  0.5052884E+02  0.7816164E-02  0.1300439E+00
        -11   -1    0    0    0    0  0.00000000000E+00  0.00000000000E+00  0.45593999997E+02  0.45594000000E+02  0.51100000000E-03 0.  1.
         11   -1    0    0    0    0 -0.00000000000E+00 -0.00000000000E+00 -0.45593999997E+02  0.45594000000E+02  0.51100000000E-03 0. -1.
    9900012    2    1    2    0    0  0.21845198609E+02 -0.22218883320E+02  0.26120404295E+02  0.50528843605E+02  0.29999950621E+02 0.  0.
         12    1    1    2    0    0 -0.21845198609E+02  0.22218883320E+02 -0.26120404295E+02  0.40659156395E+02  0.00000000000E+00 0. -1.
         11    1    3    3    0    0  0.11389185767E+02 -0.91191761938E+01  0.14350671179E+02  0.20464962508E+02  0.51100000000E-03 0.  1.
        -11    1    3    3    0    0  0.74836940864E-01 -0.12305167248E+02  0.14774136138E+02  0.19227528194E+02  0.51100000000E-03 0. -1.
        -12    1    3    3    0    0  0.10381175901E+02 -0.79453987849E+00 -0.30044030229E+01  0.10836352903E+02  0.00000000000E+00 0.  1.
</event>
<event>
 7    1  0.2969156E-011  0.5052886E+02  0.7816164E-02  0.1300439E+00
        -11   -1    0    0    0    0  0.00000000000E+00  0.00000000000E+00  0.45593999997E+02  0.45594000000E+02  0.51100000000E-03 0.  1.
         11   -1    0    0    0    0 -0.00000000000E+00 -0.00000000000E+00 -0.45593999997E+02  0.45594000000E+02  0.51100000000E-03 0. -1.
    9900012    2    1    2    0    0  0.32244012490E+02 -0.11852982905E+02  0.21748469579E+02  0.50528862352E+02  0.30000007605E+02 0.  0.
         12    1    1    2    0    0 -0.32244012490E+02  0.11852982905E+02 -0.21748469579E+02  0.40659137648E+02  0.00000000000E+00 0. -1.
         11    1    3    3    0    0 -0.12139579439E+01  0.24804872619E+01  0.48890710108E+01  0.56151158987E+01  0.51100000000E-03 0. -1.
        -11    1    3    3    0    0  0.43251310543E+01  0.50336360406E+01  0.30486741319E+01  0.73033324346E+01  0.51100000000E-03 0.  1.
         12    1    3    3    0    0  0.29132839380E+02 -0.19367106208E+02  0.13810724437E+02  0.37610414019E+02  0.00000000000E+00 0. -1.
</event>
<event>
 7    1  0.2969156E-011  0.5052886E+02  0.7816164E-02  0.1300439E+00
        -11   -1    0    0    0    0  0.00000000000E+00  0.00000000000E+00  0.45593999997E+02  0.45594000000E+02  0.51100000000E-03 0.  1.
         11   -1    0    0    0    0 -0.00000000000E+00 -0.00000000000E+00 -0.45593999997E+02  0.45594000000E+02  0.51100000000E-03 0. -1.
    9900012    2    1    2    0    0 -0.13245177528E+02  0.30814964799E+02  0.22981926923E+02  0.50528858980E+02  0.29999997357E+02 0.  0.
         12    1    1    2    0    0  0.13245177528E+02 -0.30814964799E+02 -0.22981926923E+02  0.40659141020E+02  0.00000000000E+00 0. -1.
         11    1    3    3    0    0 -0.55076530128E+01  0.30242050297E+01  0.15831640320E+02  0.17032935545E+02  0.51100000000E-03 0.  1.
        -11    1    3    3    0    0 -0.50054728396E+01  0.18590304048E+02  0.12057671108E+02  0.22716548940E+02  0.51100000000E-03 0. -1.
         12    1    3    3    0    0 -0.27320516760E+01  0.92004557218E+01 -0.49073845047E+01  0.10779374496E+02  0.00000000000E+00 0. -1.
</event>
<event>
 7    1  0.2969156E-011  0.5052886E+02  0.7816164E-02  0.1300439E+00
        -11   -1    0    0    0    0  0.00000000000E+00  0.00000000000E+00  0.45593999997E+02  0.45594000000E+02  0.51100000000E-03 0.  1.
         11   -1    0    0    0    0 -0.00000000000E+00 -0.00000000000E+00 -0.45593999997E+02  0.45594000000E+02  0.51100000000E-03 0. -1.
    9900012    2    1    2    0    0 -0.38495071989E+02 -0.10952967799E+02  0.71643483178E+01  0.50528856405E+02  0.29999989529E+02 0.  0.
         12    1    1    2    0    0  0.38495071989E+02  0.10952967799E+02 -0.71643483178E+01  0.40659143595E+02  0.00000000000E+00 0. -1.
         11    1    3    3    0    0 -0.11568786131E+01 -0.79872547645E+01 -0.42818292168E+01  0.91361188970E+01  0.51100000000E-03 0. -1.
        -11    1    3    3    0    0 -0.14371701072E+02 -0.61575287965E+01  0.23410474138E+00  0.15636999644E+02  0.51100000000E-03 0.  1.
         12    1    3    3    0    0 -0.22966492304E+02  0.31918157619E+01  0.11212072793E+02  0.25755737864E+02  0.00000000000E+00 0. -1.
</event>
<event>
 7    1  0.2969156E-011  0.5052886E+02  0.7816164E-02  0.1300439E+00
        -11   -1    0    0    0    0  0.00000000000E+00  0.00000000000E+00  0.45593999997E+02  0.45594000000E+02  0.51100000000E-03 0. -1.
         11   -1    0    0    0    0 -0.00000000000E+00 -0.00000000000E+00 -0.45593999997E+02  0.45594000000E+02  0.51100000000E-03 0.  1.
    9900012    2    1    2    0    0  0.13822689955E+02  0.21992844804E+02 -0.31279610136E+02  0.50528856005E+02  0.29999988313E+02 0.  0.
         12    1    1    2    0    0 -0.13822689955E+02 -0.21992844804E+02  0.31279610136E+02  0.40659143995E+02  0.00000000000E+00 0. -1.
         11    1    3    3    0    0  0.79552516292E+01  0.35786480130E+01  0.23422291366E+01  0.90320976342E+01  0.51100000000E-03 0. -1.
        -11    1    3    3    0    0  0.45198184856E+01 -0.11030558617E+01 -0.80755374063E+01  0.93198603014E+01  0.51100000000E-03 0.  1.
         12    1    3    3    0    0  0.13476198406E+01  0.19517252653E+02 -0.25546301866E+02  0.32176898069E+02  0.00000000000E+00 0. -1.
</event>
<event>
 7    1  0.2969156E-011  0.5052888E+02  0.7816164E-02  0.1300439E+00
        -11   -1    0    0    0    0  0.00000000000E+00  0.00000000000E+00  0.45593999997E+02  0.45594000000E+02  0.51100000000E-03 0.  1.
         11   -1    0    0    0    0 -0.00000000000E+00 -0.00000000000E+00 -0.45593999997E+02  0.45594000000E+02  0.51100000000E-03 0. -1.
    9900012    2    1    2    0    0 -0.21970431180E+02 -0.21639242139E+02  0.26499202952E+02  0.50528875518E+02  0.30000047624E+02 0.  0.
         12    1    1    2    0    0  0.21970431180E+02  0.21639242139E+02 -0.26499202952E+02  0.40659124482E+02  0.00000000000E+00 0. -1.
         11    1    3    3    0    0 -0.61240982964E+01  0.47899564708E+00  0.50169811114E+01  0.79312115409E+01  0.51100000000E-03 0. -1.
        -11    1    3    3    0    0 -0.15746285020E+02 -0.11298929665E+01  0.87609609911E+01  0.18054821733E+02  0.51100000000E-03 0.  1.
        -12    1    3    3    0    0 -0.10004786353E+00 -0.20988344819E+02  0.12721260849E+02  0.24542842244E+02  0.00000000000E+00 0.  1.
</event>
<event>
 7    1  0.2969156E-011  0.5052885E+02  0.7816164E-02  0.1300439E+00
        -11   -1    0    0    0    0  0.00000000000E+00  0.00000000000E+00  0.45593999997E+02  0.45594000000E+02  0.51100000000E-03 0. -1.
         11   -1    0    0    0    0 -0.00000000000E+00 -0.00000000000E+00 -0.45593999997E+02  0.45594000000E+02  0.51100000000E-03 0.  1.
    9900012    2    1    2    0    0 -0.27626492449E+02  0.37250673025E+01 -0.29598430803E+02  0.50528851983E+02  0.29999976088E+02 0.  0.
         12    1    1    2    0    0  0.27626492449E+02 -0.37250673025E+01  0.29598430803E+02  0.40659148017E+02  0.00000000000E+00 0. -1.
         11    1    3    3    0    0 -0.13758853658E+02  0.91880647737E+01 -0.40329136260E+01  0.17029121552E+02  0.51100000000E-03 0. -1.
        -11    1    3    3    0    0 -0.13974539765E+02  0.14186219699E+01 -0.12832041407E+02  0.19025286775E+02  0.51100000000E-03 0.  1.
         12    1    3    3    0    0  0.10690097472E+00 -0.68816194411E+01 -0.12733475770E+02  0.14474443655E+02  0.00000000000E+00 0. -1.
</event>
<event>
 7    1  0.2969156E-011  0.5052886E+02  0.7816164E-02  0.1300439E+00
        -11   -1    0    0    0    0  0.00000000000E+00  0.00000000000E+00  0.45593999997E+02  0.45594000000E+02  0.51100000000E-03 0. -1.
         11   -1    0    0    0    0 -0.00000000000E+00 -0.00000000000E+00 -0.45593999997E+02  0.45594000000E+02  0.51100000000E-03 0.  1.
    9900012    2    1    2    0    0 -0.40176297288E+02  0.56422646310E+00 -0.62219179788E+01  0.50528862298E+02  0.30000007442E+02 0.  0.
         12    1    1    2    0    0  0.40176297288E+02 -0.56422646310E+00  0.62219179788E+01  0.40659137702E+02  0.00000000000E+00 0. -1.
         11    1    3    3    0    0 -0.78851977753E+01 -0.31659235199E+00  0.27437096679E+01  0.83549097946E+01  0.51100000000E-03 0. -1.
        -11    1    3    3    0    0 -0.25636310846E+02 -0.10570369027E+02 -0.81569231296E+01  0.28904818463E+02  0.51100000000E-03 0.  1.
        -12    1    3    3    0    0 -0.66547886672E+01  0.11451187842E+02 -0.80870451715E+00  0.13269134041E+02  0.00000000000E+00 0.  1.
</event>
<event>
 7    1  0.2969156E-011  0.5052886E+02  0.7816164E-02  0.1300439E+00
        -11   -1    0    0    0    0  0.00000000000E+00  0.00000000000E+00  0.45593999997E+02  0.45594000000E+02  0.51100000000E-03 0.  1.
         11   -1    0    0    0    0 -0.00000000000E+00 -0.00000000000E+00 -0.45593999997E+02  0.45594000000E+02  0.51100000000E-03 0. -1.
    9900012    2    1    2    0    0 -0.20429721145E+02  0.19078469345E+02  0.29526331117E+02  0.50528859234E+02  0.29999998126E+02 0.  0.
         12    1    1    2    0    0  0.20429721145E+02 -0.19078469345E+02 -0.29526331117E+02  0.40659140766E+02  0.00000000000E+00 0. -1.
         11    1    3    3    0    0 -0.79068059371E+01  0.12539500339E+02  0.14810737290E+02  0.20955061160E+02  0.51100000000E-03 0. -1.
        -11    1    3    3    0    0  0.34725019018E+01  0.42035527247E+01  0.12002255130E+02  0.13182649712E+02  0.51100000000E-03 0.  1.
         12    1    3    3    0    0 -0.15995417109E+02  0.23354162819E+01  0.27133386968E+01  0.16391148361E+02  0.00000000000E+00 0. -1.
</event>
<event>
 7    1  0.2969156E-011  0.5052886E+02  0.7816164E-02  0.1300439E+00
        -11   -1    0    0    0    0  0.00000000000E+00  0.00000000000E+00  0.45593999997E+02  0.45594000000E+02  0.51100000000E-03 0. -1.
         11   -1    0    0    0    0 -0.00000000000E+00 -0.00000000000E+00 -0.45593999997E+02  0.45594000000E+02  0.51100000000E-03 0.  1.
    9900012    2    1    2    0    0  0.23232806813E+02 -0.32841468830E+02  0.59025744023E+01  0.50528858692E+02  0.29999996480E+02 0.  0.
         12    1    1    2    0    0 -0.23232806813E+02  0.32841468830E+02 -0.59025744023E+01  0.40659141308E+02  0.00000000000E+00 0. -1.
         11    1    3    3    0    0  0.56538424098E+01 -0.14462057949E+02 -0.44378187754E+01  0.16149652934E+02  0.51100000000E-03 0. -1.
        -11    1    3    3    0    0  0.14217931058E+02 -0.21948886615E+02  0.12543444497E+02  0.29004158104E+02  0.51100000000E-03 0.  1.
        -12    1    3    3    0    0  0.33610333457E+01  0.35694757345E+01 -0.22030513196E+01  0.53750476544E+01  0.00000000000E+00 0.  1.
</event>
<event>
 7    1  0.2969156E-011  0.5052886E+02  0.7816164E-02  0.1300439E+00
        -11   -1    0    0    0    0  0.00000000000E+00  0.00000000000E+00  0.45593999997E+02  0.45594000000E+02  0.51100000000E-03 0.  1.
         11   -1    0    0    0    0 -0.00000000000E+00 -0.00000000000E+00 -0.45593999997E+02  0.45594000000E+02  0.51100000000E-03 0. -1.
    9900012    2    1    2    0    0 -0.38515566451E+01 -0.27006265097E+02  0.30149505062E+02  0.50528862053E+02  0.30000006696E+02 0.  0.
         12    1    1    2    0    0  0.38515566451E+01  0.27006265097E+02 -0.30149505062E+02  0.40659137947E+02  0.00000000000E+00 0. -1.
         11    1    3    3    0    0  0.66859059938E+00 -0.65092384598E+01  0.23961451131E+02  0.24838847382E+02  0.51100000000E-03 0. -1.
        -11    1    3    3    0    0 -0.72270450905E+01 -0.89859620278E+01  0.75552191441E+01  0.13786189861E+02  0.51100000000E-03 0.  1.
        -12    1    3    3    0    0  0.27068978460E+01 -0.11511064610E+02 -0.13671652124E+01  0.11903824810E+02  0.00000000000E+00 0.  1.
</event>
<event>
 7    1  0.2969156E-011  0.5052887E+02  0.7816164E-02  0.1300439E+00
        -11   -1    0    0    0    0  0.00000000000E+00  0.00000000000E+00  0.45593999997E+02  0.45594000000E+02  0.51100000000E-03 0.  1.
         11   -1    0    0    0    0 -0.00000000000E+00 -0.00000000000E+00 -0.45593999997E+02  0.45594000000E+02  0.51100000000E-03 0. -1.
    9900012    2    1    2    0    0 -0.62863372673E+01  0.10368948912E+02  0.38808917628E+02  0.50528865414E+02  0.30000016914E+02 0.  0.
         12    1    1    2    0    0  0.62863372673E+01 -0.10368948912E+02 -0.38808917628E+02  0.40659134586E+02  0.00000000000E+00 0. -1.
         11    1    3    3    0    0 -0.10074643130E+02  0.37731518452E+01  0.18744744260E+02  0.21612509033E+02  0.51100000000E-03 0.  1.
        -11    1    3    3    0    0  0.63462435049E+01  0.71464151563E+01  0.23046042228E+02  0.24949270908E+02  0.51100000000E-03 0. -1.
         12    1    3    3    0    0 -0.25579376427E+01 -0.55061808984E+00 -0.29818688595E+01  0.39670854742E+01  0.00000000000E+00 0. -1.
</event>
<event>
 7    1  0.2969156E-011  0.5052886E+02  0.7816164E-02  0.1300439E+00
        -11   -1    0    0    0    0  0.00000000000E+00  0.00000000000E+00  0.45593999997E+02  0.45594000000E+02  0.51100000000E-03 0.  1.
         11   -1    0    0    0    0 -0.00000000000E+00 -0.00000000000E+00 -0.45593999997E+02  0.45594000000E+02  0.51100000000E-03 0. -1.
    9900012    2    1    2    0    0 -0.26454858389E+02 -0.89446128027E+01  0.29551651209E+02  0.50528859334E+02  0.29999998431E+02 0.  0.
         12    1    1    2    0    0  0.26454858389E+02  0.89446128027E+01 -0.29551651209E+02  0.40659140666E+02  0.00000000000E+00 0. -1.
         11    1    3    3    0    0 -0.93847664205E+01 -0.18240816254E+01  0.15264361002E+01  0.96814834593E+01  0.51100000000E-03 0. -1.
        -11    1    3    3    0    0 -0.16375747958E+02  0.23276135604E+01  0.26519460261E+02  0.31254834488E+02  0.51100000000E-03 0.  1.
         12    1    3    3    0    0 -0.69434401059E+00 -0.94481447377E+01  0.15057548473E+01  0.95925413864E+01  0.00000000000E+00 0. -1.
</event>
<event>
 7    1  0.2969156E-011  0.5052888E+02  0.7816164E-02  0.1300439E+00
        -11   -1    0    0    0    0  0.00000000000E+00  0.00000000000E+00  0.45593999997E+02  0.45594000000E+02  0.51100000000E-03 0. -1.
         11   -1    0    0    0    0 -0.00000000000E+00 -0.00000000000E+00 -0.45593999997E+02  0.45594000000E+02  0.51100000000E-03 0.  1.
    9900012    2    1    2    0    0 -0.27096323716E+02  0.21009889155E+02 -0.21852636485E+02  0.50528881434E+02  0.30000065608E+02 0.  0.
         12    1    1    2    0    0  0.27096323716E+02 -0.21009889155E+02  0.21852636485E+02  0.40659118566E+02  0.00000000000E+00 0. -1.
         11    1    3    3    0    0 -0.32815908370E+01  0.96613495171E+01 -0.11939866696E+02  0.15705761041E+02  0.51100000000E-03 0. -1.
        -11    1    3    3    0    0 -0.14564864938E+02  0.17030310655E+02 -0.52944687049E+01  0.23026032459E+02  0.51100000000E-03 0.  1.
         12    1    3    3    0    0 -0.92498679406E+01 -0.56817710174E+01 -0.46183010836E+01  0.11797087934E+02  0.00000000000E+00 0. -1.
</event>
<event>
 7    1  0.2969156E-011  0.5052886E+02  0.7816164E-02  0.1300439E+00
        -11   -1    0    0    0    0  0.00000000000E+00  0.00000000000E+00  0.45593999997E+02  0.45594000000E+02  0.51100000000E-03 0. -1.
         11   -1    0    0    0    0 -0.00000000000E+00 -0.00000000000E+00 -0.45593999997E+02  0.45594000000E+02  0.51100000000E-03 0.  1.
    9900012    2    1    2    0    0  0.23714519359E+02 -0.20337875462E+02  0.26022264063E+02  0.50528857933E+02  0.29999994172E+02 0.  0.
         12    1    1    2    0    0 -0.23714519359E+02  0.20337875462E+02 -0.26022264063E+02  0.40659142067E+02  0.00000000000E+00 0. -1.
         11    1    3    3    0    0 -0.34278504359E+01 -0.27934475952E+00 -0.30833001361E+00  0.34530073507E+01  0.51100000000E-03 0. -1.
        -11    1    3    3    0    0  0.10586189870E+02 -0.16056306496E+01 -0.27396771766E+00  0.10710766747E+02  0.51100000000E-03 0.  1.
         12    1    3    3    0    0  0.16556179924E+02 -0.18452900052E+02  0.26604561794E+02  0.36365083835E+02  0.00000000000E+00 0. -1.
</event>
<event>
 7    1  0.2969156E-011  0.5052886E+02  0.7816164E-02  0.1300439E+00
        -11   -1    0    0    0    0  0.00000000000E+00  0.00000000000E+00  0.45593999997E+02  0.45594000000E+02  0.51100000000E-03 0.  1.
         11   -1    0    0    0    0 -0.00000000000E+00 -0.00000000000E+00 -0.45593999997E+02  0.45594000000E+02  0.51100000000E-03 0. -1.
    9900012    2    1    2    0    0  0.36074884046E+02 -0.12979044151E+02 -0.13539294237E+02  0.50528864072E+02  0.30000012833E+02 0.  0.
         12    1    1    2    0    0 -0.36074884046E+02  0.12979044151E+02  0.13539294237E+02  0.40659135928E+02  0.00000000000E+00 0. -1.
         11    1    3    3    0    0  0.25013975235E+02 -0.12265436420E+02 -0.15593325066E+02  0.31926347654E+02  0.51100000000E-03 0. -1.
        -11    1    3    3    0    0  0.13761336365E+02 -0.37426989430E+01  0.54062994791E+00  0.14271455950E+02  0.51100000000E-03 0.  1.
         12    1    3    3    0    0 -0.27004275552E+01  0.30290912116E+01  0.15134008809E+01  0.43310604677E+01  0.00000000000E+00 0. -1.
</event>
<event>
 7    1  0.2969156E-011  0.5052885E+02  0.7816164E-02  0.1300439E+00
        -11   -1    0    0    0    0  0.00000000000E+00  0.00000000000E+00  0.45593999997E+02  0.45594000000E+02  0.51100000000E-03 0. -1.
         11   -1    0    0    0    0 -0.00000000000E+00 -0.00000000000E+00 -0.45593999997E+02  0.45594000000E+02  0.51100000000E-03 0.  1.
    9900012    2    1    2    0    0 -0.10537890734E+02  0.37391267936E+02  0.12000508853E+02  0.50528852546E+02  0.29999977798E+02 0.  0.
         12    1    1    2    0    0  0.10537890734E+02 -0.37391267936E+02 -0.12000508853E+02  0.40659147454E+02  0.00000000000E+00 0. -1.
         11    1    3    3    0    0  0.67412391982E+01  0.18129569665E+02  0.84855613842E+01  0.21121798087E+02  0.51100000000E-03 0. -1.
        -11    1    3    3    0    0 -0.99284440177E+01  0.19278963087E+02  0.12754957553E+01  0.21722783155E+02  0.51100000000E-03 0.  1.
        -12    1    3    3    0    0 -0.73506859143E+01 -0.17264816671E-01  0.22394517135E+01  0.76842713033E+01  0.00000000000E+00 0.  1.
</event>
<event>
 7    1  0.2969156E-011  0.5052886E+02  0.7816164E-02  0.1300439E+00
        -11   -1    0    0    0    0  0.00000000000E+00  0.00000000000E+00  0.45593999997E+02  0.45594000000E+02  0.51100000000E-03 0.  1.
         11   -1    0    0    0    0 -0.00000000000E+00 -0.00000000000E+00 -0.45593999997E+02  0.45594000000E+02  0.51100000000E-03 0. -1.
    9900012    2    1    2    0    0 -0.34620334585E+02  0.14508173138E+02  0.15624044159E+02  0.50528863136E+02  0.30000009989E+02 0.  0.
         12    1    1    2    0    0  0.34620334585E+02 -0.14508173138E+02 -0.15624044159E+02  0.40659136864E+02  0.00000000000E+00 0. -1.
         11    1    3    3    0    0 -0.12198190489E+02  0.16375421580E+02  0.35476995650E+01  0.20725261291E+02  0.51100000000E-03 0. -1.
        -11    1    3    3    0    0 -0.58108437596E+01 -0.23658054581E+01  0.11588255515E+02  0.13177655588E+02  0.51100000000E-03 0.  1.
         12    1    3    3    0    0 -0.16611300337E+02  0.49855701616E+00  0.48808907936E+00  0.16625946257E+02  0.00000000000E+00 0. -1.
</event>
<event>
 7    1  0.2969156E-011  0.5052884E+02  0.7816164E-02  0.1300439E+00
        -11   -1    0    0    0    0  0.00000000000E+00  0.00000000000E+00  0.45593999997E+02  0.45594000000E+02  0.51100000000E-03 0.  1.
         11   -1    0    0    0    0 -0.00000000000E+00 -0.00000000000E+00 -0.45593999997E+02  0.45594000000E+02  0.51100000000E-03 0. -1.
    9900012    2    1    2    0    0 -0.26458594102E+02 -0.14187073000E+02  0.27419647781E+02  0.50528839573E+02  0.29999938366E+02 0.  0.
         12    1    1    2    0    0  0.26458594102E+02  0.14187073000E+02 -0.27419647781E+02  0.40659160427E+02  0.00000000000E+00 0. -1.
         11    1    3    3    0    0 -0.61905101452E+01 -0.15875277390E+01  0.17938322647E+02  0.19042743495E+02  0.51100000000E-03 0. -1.
        -11    1    3    3    0    0 -0.17409698315E+02 -0.16273067733E+01  0.99864413580E+01  0.20136403204E+02  0.51100000000E-03 0.  1.
         12    1    3    3    0    0 -0.28583856426E+01 -0.10972238488E+02 -0.50511622404E+00  0.11349692873E+02  0.00000000000E+00 0. -1.
</event>
<event>
 7    1  0.2969156E-011  0.5052890E+02  0.7816164E-02  0.1300439E+00
        -11   -1    0    0    0    0  0.00000000000E+00  0.00000000000E+00  0.45593999997E+02  0.45594000000E+02  0.51100000000E-03 0.  1.
         11   -1    0    0    0    0 -0.00000000000E+00 -0.00000000000E+00 -0.45593999997E+02  0.45594000000E+02  0.51100000000E-03 0. -1.
    9900012    2    1    2    0    0 -0.28304324443E+02 -0.49415645871E+01  0.28768181112E+02  0.50528904003E+02  0.30000134209E+02 0.  0.
         12    1    1    2    0    0  0.28304324443E+02  0.49415645871E+01 -0.28768181112E+02  0.40659095997E+02  0.00000000000E+00 0. -1.
         11    1    3    3    0    0 -0.17834843252E+00  0.41940020958E+01  0.11778817711E+02  0.12504479545E+02  0.51100000000E-03 0. -1.
        -11    1    3    3    0    0 -0.25778145308E+02 -0.13350325441E+02  0.15817375273E+02  0.33059542127E+02  0.51100000000E-03 0.  1.
         12    1    3    3    0    0 -0.23478307030E+01  0.42147587577E+01  0.11719881274E+01  0.49648823315E+01  0.00000000000E+00 0. -1.
</event>
<event>
 7    1  0.2969156E-011  0.5052886E+02  0.7816164E-02  0.1300439E+00
        -11   -1    0    0    0    0  0.00000000000E+00  0.00000000000E+00  0.45593999997E+02  0.45594000000E+02  0.51100000000E-03 0.  1.
         11   -1    0    0    0    0 -0.00000000000E+00 -0.00000000000E+00 -0.45593999997E+02  0.45594000000E+02  0.51100000000E-03 0. -1.
    9900012    2    1    2    0    0  0.37432527155E+02 -0.15402492961E+02 -0.38385942239E+01  0.50528859771E+02  0.29999999758E+02 0.  0.
         12    1    1    2    0    0 -0.37432527155E+02  0.15402492961E+02  0.38385942239E+01  0.40659140229E+02  0.00000000000E+00 0. -1.
         11    1    3    3    0    0  0.82426066238E+00 -0.11492256809E+01 -0.44156271736E+01  0.46365815966E+01  0.51100000000E-03 0. -1.
        -11    1    3    3    0    0  0.26185699172E+01 -0.51620836615E+00  0.80471938877E+01  0.84782491834E+01  0.51100000000E-03 0.  1.
         12    1    3    3    0    0  0.33989696575E+02 -0.13737058914E+02 -0.74701609381E+01  0.37414028990E+02  0.00000000000E+00 0. -1.
</event>
<event>
 7    1  0.2969156E-011  0.5052888E+02  0.7816164E-02  0.1300439E+00
        -11   -1    0    0    0    0  0.00000000000E+00  0.00000000000E+00  0.45593999997E+02  0.45594000000E+02  0.51100000000E-03 0.  1.
         11   -1    0    0    0    0 -0.00000000000E+00 -0.00000000000E+00 -0.45593999997E+02  0.45594000000E+02  0.51100000000E-03 0. -1.
    9900012    2    1    2    0    0  0.28219653037E+02 -0.28151170711E+02  0.80204229535E+01  0.50528875387E+02  0.30000047225E+02 0.  0.
         12    1    1    2    0    0 -0.28219653037E+02  0.28151170711E+02 -0.80204229535E+01  0.40659124613E+02  0.00000000000E+00 0. -1.
         11    1    3    3    0    0  0.20916990529E+02 -0.23983520851E+02 -0.12428324778E+01  0.31847674924E+02  0.51100000000E-03 0.  1.
        -11    1    3    3    0    0 -0.33751458104E+01 -0.32254471550E+01  0.24845367356E+00  0.46751308089E+01  0.51100000000E-03 0. -1.
        -12    1    3    3    0    0  0.10677808319E+02 -0.94220270526E+00  0.90148017577E+01  0.14006069654E+02  0.00000000000E+00 0.  1.
</event>
<event>
 7    1  0.2969156E-011  0.5052885E+02  0.7816164E-02  0.1300439E+00
        -11   -1    0    0    0    0  0.00000000000E+00  0.00000000000E+00  0.45593999997E+02  0.45594000000E+02  0.51100000000E-03 0. -1.
         11   -1    0    0    0    0 -0.00000000000E+00 -0.00000000000E+00 -0.45593999997E+02  0.45594000000E+02  0.51100000000E-03 0.  1.
    9900012    2    1    2    0    0  0.34991135381E+02 -0.96034934890E+01 -0.18345559470E+02  0.50528853493E+02  0.29999980676E+02 0.  0.
         12    1    1    2    0    0 -0.34991135381E+02  0.96034934890E+01  0.18345559470E+02  0.40659146507E+02  0.00000000000E+00 0. -1.
         11    1    3    3    0    0  0.20346884471E+02 -0.55785773749E+01 -0.28007297333E+01  0.21282864481E+02  0.51100000000E-03 0. -1.
        -11    1    3    3    0    0  0.18336472095E+02 -0.21156358895E+01 -0.16742585057E+02  0.24920198209E+02  0.51100000000E-03 0.  1.
         12    1    3    3    0    0 -0.36922211859E+01 -0.19092802246E+01  0.11977553202E+01  0.43257908027E+01  0.00000000000E+00 0. -1.
</event>
<event>
 7    1  0.2969156E-011  0.5052887E+02  0.7816164E-02  0.1300439E+00
        -11   -1    0    0    0    0  0.00000000000E+00  0.00000000000E+00  0.45593999997E+02  0.45594000000E+02  0.51100000000E-03 0. -1.
         11   -1    0    0    0    0 -0.00000000000E+00 -0.00000000000E+00 -0.45593999997E+02  0.45594000000E+02  0.51100000000E-03 0.  1.
    9900012    2    1    2    0    0  0.19910356944E+02 -0.32661563839E+02 -0.13782785574E+02  0.50528865181E+02  0.30000016205E+02 0.  0.
         12    1    1    2    0    0 -0.19910356944E+02  0.32661563839E+02  0.13782785574E+02  0.40659134819E+02  0.00000000000E+00 0. -1.
         11    1    3    3    0    0  0.17813680745E+02 -0.23850307587E+02 -0.17288067198E+02  0.34424434075E+02  0.51100000000E-03 0. -1.
        -11    1    3    3    0    0 -0.96262284308E+00 -0.79198059422E+01 -0.32660915694E+01  0.86207495788E+01  0.51100000000E-03 0.  1.
         12    1    3    3    0    0  0.30592990418E+01 -0.89145030989E+00  0.67713731936E+01  0.74836815278E+01  0.00000000000E+00 0. -1.
</event>
<event>
 7    1  0.2969156E-011  0.5052884E+02  0.7816164E-02  0.1300439E+00
        -11   -1    0    0    0    0  0.00000000000E+00  0.00000000000E+00  0.45593999997E+02  0.45594000000E+02  0.51100000000E-03 0. -1.
         11   -1    0    0    0    0 -0.00000000000E+00 -0.00000000000E+00 -0.45593999997E+02  0.45594000000E+02  0.51100000000E-03 0.  1.
    9900012    2    1    2    0    0  0.30063459355E+02 -0.15469841774E+02 -0.22584050647E+02  0.50528844370E+02  0.29999952948E+02 0.  0.
         12    1    1    2    0    0 -0.30063459355E+02  0.15469841774E+02  0.22584050647E+02  0.40659155630E+02  0.00000000000E+00 0. -1.
         11    1    3    3    0    0 -0.11069757367E+01  0.38805315147E-01 -0.18840545838E+00  0.11235648678E+01  0.51100000000E-03 0. -1.
        -11    1    3    3    0    0  0.24889546825E+02 -0.19230281367E+02 -0.26412897097E+02  0.41072306922E+02  0.51100000000E-03 0.  1.
         12    1    3    3    0    0  0.62808882671E+01  0.37216342783E+01  0.40172519087E+01  0.83329725802E+01  0.00000000000E+00 0. -1.
</event>
<event>
 7    1  0.2969156E-011  0.5052886E+02  0.7816164E-02  0.1300439E+00
        -11   -1    0    0    0    0  0.00000000000E+00  0.00000000000E+00  0.45593999997E+02  0.45594000000E+02  0.51100000000E-03 0.  1.
         11   -1    0    0    0    0 -0.00000000000E+00 -0.00000000000E+00 -0.45593999997E+02  0.45594000000E+02  0.51100000000E-03 0. -1.
    9900012    2    1    2    0    0  0.25150606791E+02 -0.25046268963E+02  0.19831717987E+02  0.50528860201E+02  0.30000001067E+02 0.  0.
         12    1    1    2    0    0 -0.25150606791E+02  0.25046268963E+02 -0.19831717987E+02  0.40659139799E+02  0.00000000000E+00 0. -1.
         11    1    3    3    0    0 -0.17869590214E+01 -0.73342705419E+01  0.11436997515E+02  0.13703636719E+02  0.51100000000E-03 0. -1.
        -11    1    3    3    0    0  0.22709486152E+02 -0.88567953142E+01  0.75163810617E+00  0.24387056908E+02  0.51100000000E-03 0.  1.
         12    1    3    3    0    0  0.42280796603E+01 -0.88552031067E+01  0.76430823656E+01  0.12438166574E+02  0.00000000000E+00 0. -1.
</event>
<event>
 7    1  0.2969156E-011  0.5052885E+02  0.7816164E-02  0.1300439E+00
        -11   -1    0    0    0    0  0.00000000000E+00  0.00000000000E+00  0.45593999997E+02  0.45594000000E+02  0.51100000000E-03 0. -1.
         11   -1    0    0    0    0 -0.00000000000E+00 -0.00000000000E+00 -0.45593999997E+02  0.45594000000E+02  0.51100000000E-03 0.  1.
    9900012    2    1    2    0    0  0.11817877105E+02 -0.17491915675E+01 -0.38864439801E+02  0.50528848859E+02  0.29999966593E+02 0.  0.
         12    1    1    2    0    0 -0.11817877105E+02  0.17491915675E+01  0.38864439801E+02  0.40659151141E+02  0.00000000000E+00 0. -1.
         11    1    3    3    0    0  0.13900465690E+01  0.15565295310E+01 -0.20864657252E+02  0.20968760959E+02  0.51100000000E-03 0. -1.
        -11    1    3    3    0    0  0.15413376793E+02  0.25511638733E+01 -0.10545371459E+02  0.18849018031E+02  0.51100000000E-03 0.  1.
         12    1    3    3    0    0 -0.49855462562E+01 -0.58568849719E+01 -0.74544110902E+01  0.10711069869E+02  0.00000000000E+00 0. -1.
</event>
<event>
 7    1  0.2969156E-011  0.5052887E+02  0.7816164E-02  0.1300439E+00
        -11   -1    0    0    0    0  0.00000000000E+00  0.00000000000E+00  0.45593999997E+02  0.45594000000E+02  0.51100000000E-03 0.  1.
         11   -1    0    0    0    0 -0.00000000000E+00 -0.00000000000E+00 -0.45593999997E+02  0.45594000000E+02  0.51100000000E-03 0. -1.
    9900012    2    1    2    0    0 -0.10267189509E+02 -0.34413346228E+02  0.19064923391E+02  0.50528869624E+02  0.30000029711E+02 0.  0.
         12    1    1    2    0    0  0.10267189509E+02  0.34413346228E+02 -0.19064923391E+02  0.40659130376E+02  0.00000000000E+00 0. -1.
         11    1    3    3    0    0 -0.62874941049E+01 -0.19977284992E+02  0.22160624753E+01  0.21060280884E+02  0.51100000000E-03 0. -1.
        -11    1    3    3    0    0 -0.10307290562E+02 -0.14526148652E+02  0.11702715503E+02  0.21312033779E+02  0.51100000000E-03 0.  1.
        -12    1    3    3    0    0  0.63275951580E+01  0.90087416702E-01  0.51461454124E+01  0.81565549610E+01  0.00000000000E+00 0.  1.
</event>
<event>
 7    1  0.2969156E-011  0.5052886E+02  0.7816164E-02  0.1300439E+00
        -11   -1    0    0    0    0  0.00000000000E+00  0.00000000000E+00  0.45593999997E+02  0.45594000000E+02  0.51100000000E-03 0.  1.
         11   -1    0    0    0    0 -0.00000000000E+00 -0.00000000000E+00 -0.45593999997E+02  0.45594000000E+02  0.51100000000E-03 0. -1.
    9900012    2    1    2    0    0  0.17262430429E+02  0.25060977585E+02  0.26965187654E+02  0.50528862687E+02  0.30000008623E+02 0.  0.
         12    1    1    2    0    0 -0.17262430429E+02 -0.25060977585E+02 -0.26965187654E+02  0.40659137313E+02  0.00000000000E+00 0. -1.
         11    1    3    3    0    0 -0.64864445190E+01  0.83142655910E+01  0.58099441003E+01  0.12039785111E+02  0.51100000000E-03 0. -1.
        -11    1    3    3    0    0 -0.17387482143E+01  0.34034423918E+00  0.62277314450E+00  0.18780112365E+01  0.51100000000E-03 0.  1.
        -12    1    3    3    0    0  0.25487623162E+02  0.16406367755E+02  0.20532470409E+02  0.36611066339E+02  0.00000000000E+00 0.  1.
</event>
<event>
 7    1  0.2969156E-011  0.5052888E+02  0.7816164E-02  0.1300439E+00
        -11   -1    0    0    0    0  0.00000000000E+00  0.00000000000E+00  0.45593999997E+02  0.45594000000E+02  0.51100000000E-03 0.  1.
         11   -1    0    0    0    0 -0.00000000000E+00 -0.00000000000E+00 -0.45593999997E+02  0.45594000000E+02  0.51100000000E-03 0. -1.
    9900012    2    1    2    0    0 -0.13878978399E+02 -0.30250167432E+01  0.38097080045E+02  0.50528877092E+02  0.30000052409E+02 0.  0.
         12    1    1    2    0    0  0.13878978399E+02  0.30250167432E+01 -0.38097080045E+02  0.40659122908E+02  0.00000000000E+00 0. -1.
         11    1    3    3    0    0 -0.41668486942E+01 -0.62350250692E+00  0.29821907447E+01  0.51618645193E+01  0.51100000000E-03 0. -1.
        -11    1    3    3    0    0  0.36992141846E+01 -0.11286357880E+02  0.20180172758E+02  0.23415922630E+02  0.51100000000E-03 0.  1.
         12    1    3    3    0    0 -0.13411343889E+02  0.88848436440E+01  0.14934716542E+02  0.21951089943E+02  0.00000000000E+00 0. -1.
</event>
<event>
 7    1  0.2969156E-011  0.5052886E+02  0.7816164E-02  0.1300439E+00
        -11   -1    0    0    0    0  0.00000000000E+00  0.00000000000E+00  0.45593999997E+02  0.45594000000E+02  0.51100000000E-03 0.  1.
         11   -1    0    0    0    0 -0.00000000000E+00 -0.00000000000E+00 -0.45593999997E+02  0.45594000000E+02  0.51100000000E-03 0. -1.
    9900012    2    1    2    0    0 -0.27879567084E+02  0.29378509555E+02  0.35774884855E+01  0.50528861934E+02  0.30000006334E+02 0.  0.
         12    1    1    2    0    0  0.27879567084E+02 -0.29378509555E+02 -0.35774884855E+01  0.40659138066E+02  0.00000000000E+00 0. -1.
         11    1    3    3    0    0  0.14706129244E+01 -0.54074834398E+00 -0.17413740093E+01  0.23425402550E+01  0.51100000000E-03 0. -1.
        -11    1    3    3    0    0 -0.18412306385E+02  0.41915306133E+01 -0.27650152904E+01  0.19084739064E+02  0.51100000000E-03 0.  1.
        -12    1    3    3    0    0 -0.10937873623E+02  0.25727727285E+02  0.80838777852E+01  0.29101582615E+02  0.00000000000E+00 0.  1.
</event>
<event>
 7    1  0.2969156E-011  0.5052885E+02  0.7816164E-02  0.1300439E+00
        -11   -1    0    0    0    0  0.00000000000E+00  0.00000000000E+00  0.45593999997E+02  0.45594000000E+02  0.51100000000E-03 0.  1.
         11   -1    0    0    0    0 -0.00000000000E+00 -0.00000000000E+00 -0.45593999997E+02  0.45594000000E+02  0.51100000000E-03 0. -1.
    9900012    2    1    2    0    0 -0.25060484902E+02 -0.31769645566E+02 -0.39784319660E+01  0.50528853381E+02  0.29999980336E+02 0.  0.
         12    1    1    2    0    0  0.25060484902E+02  0.31769645566E+02  0.39784319660E+01  0.40659146619E+02  0.00000000000E+00 0. -1.
         11    1    3    3    0    0 -0.18805650223E+01 -0.45771112239E+01  0.63505624835E+01  0.80508456747E+01  0.51100000000E-03 0. -1.
        -11    1    3    3    0    0  0.18709193755E+01  0.85399185107E+00 -0.37850000835E+01  0.43076521777E+01  0.51100000000E-03 0.  1.
        -12    1    3    3    0    0 -0.25050839255E+02 -0.28046526193E+02 -0.65439943661E+01  0.38170355528E+02  0.00000000000E+00 0.  1.
</event>
<event>
 7    1  0.2969156E-011  0.5052886E+02  0.7816164E-02  0.1300439E+00
        -11   -1    0    0    0    0  0.00000000000E+00  0.00000000000E+00  0.45593999997E+02  0.45594000000E+02  0.51100000000E-03 0. -1.
         11   -1    0    0    0    0 -0.00000000000E+00 -0.00000000000E+00 -0.45593999997E+02  0.45594000000E+02  0.51100000000E-03 0.  1.
    9900012    2    1    2    0    0 -0.18973698835E+02 -0.66682427342E+01 -0.35336933933E+02  0.50528860702E+02  0.30000002590E+02 0.  0.
         12    1    1    2    0    0  0.18973698835E+02  0.66682427342E+01  0.35336933933E+02  0.40659139298E+02  0.00000000000E+00 0. -1.
         11    1    3    3    0    0 -0.62092404374E+01 -0.73540571059E+01  0.45501744679E+00  0.96355520788E+01  0.51100000000E-03 0. -1.
        -11    1    3    3    0    0 -0.31708165589E+01  0.45857029889E+01 -0.26536315803E+01  0.61745048690E+01  0.51100000000E-03 0.  1.
         12    1    3    3    0    0 -0.95936418388E+01 -0.38998886172E+01 -0.33138319800E+02  0.34718803754E+02  0.00000000000E+00 0. -1.
</event>
<event>
 7    1  0.2969156E-011  0.5052886E+02  0.7816164E-02  0.1300439E+00
        -11   -1    0    0    0    0  0.00000000000E+00  0.00000000000E+00  0.45593999997E+02  0.45594000000E+02  0.51100000000E-03 0. -1.
         11   -1    0    0    0    0 -0.00000000000E+00 -0.00000000000E+00 -0.45593999997E+02  0.45594000000E+02  0.51100000000E-03 0.  1.
    9900012    2    1    2    0    0  0.15234758058E+02 -0.22878285870E+02 -0.29960839378E+02  0.50528859408E+02  0.29999998657E+02 0.  0.
         12    1    1    2    0    0 -0.15234758058E+02  0.22878285870E+02  0.29960839378E+02  0.40659140592E+02  0.00000000000E+00 0. -1.
         11    1    3    3    0    0  0.65159556015E+01  0.24804719808E+01 -0.46452192157E+01  0.83778565559E+01  0.51100000000E-03 0.  1.
        -11    1    3    3    0    0  0.58402419724E+01 -0.24842484569E+02 -0.11433090666E+02  0.27963780651E+02  0.51100000000E-03 0. -1.
         12    1    3    3    0    0  0.28785604837E+01 -0.51627328222E+00 -0.13882529497E+02  0.14187222202E+02  0.00000000000E+00 0. -1.
</event>
<event>
 7    1  0.2969156E-011  0.5052886E+02  0.7816164E-02  0.1300439E+00
        -11   -1    0    0    0    0  0.00000000000E+00  0.00000000000E+00  0.45593999997E+02  0.45594000000E+02  0.51100000000E-03 0. -1.
         11   -1    0    0    0    0 -0.00000000000E+00 -0.00000000000E+00 -0.45593999997E+02  0.45594000000E+02  0.51100000000E-03 0.  1.
    9900012    2    1    2    0    0 -0.12743603387E+02 -0.33203992851E+02 -0.19704335580E+02  0.50528863152E+02  0.30000010037E+02 0.  0.
         12    1    1    2    0    0  0.12743603387E+02  0.33203992851E+02  0.19704335580E+02  0.40659136848E+02  0.00000000000E+00 0. -1.
         11    1    3    3    0    0  0.11598584126E+01  0.66493262865E-02  0.22837559927E+01  0.25614170777E+01  0.51100000000E-03 0. -1.
        -11    1    3    3    0    0 -0.14283174287E+01 -0.25439384561E+02 -0.58556389578E+01  0.26143658608E+02  0.51100000000E-03 0.  1.
        -12    1    3    3    0    0 -0.12475144371E+02 -0.77712576165E+01 -0.16132452615E+02  0.21823787467E+02  0.00000000000E+00 0.  1.
</event>
<event>
 7    1  0.2969156E-011  0.5052885E+02  0.7816164E-02  0.1300439E+00
        -11   -1    0    0    0    0  0.00000000000E+00  0.00000000000E+00  0.45593999997E+02  0.45594000000E+02  0.51100000000E-03 0.  1.
         11   -1    0    0    0    0 -0.00000000000E+00 -0.00000000000E+00 -0.45593999997E+02  0.45594000000E+02  0.51100000000E-03 0. -1.
    9900012    2    1    2    0    0  0.19412503659E+02 -0.16414266074E+02  0.31731575408E+02  0.50528852112E+02  0.29999976480E+02 0.  0.
         12    1    1    2    0    0 -0.19412503659E+02  0.16414266074E+02 -0.31731575408E+02  0.40659147888E+02  0.00000000000E+00 0. -1.
         11    1    3    3    0    0  0.52989024783E+01 -0.13034110901E+02  0.11934108859E+02  0.18449644142E+02  0.51100000000E-03 0. -1.
        -11    1    3    3    0    0 -0.49515480586E+01 -0.27828871583E+01  0.74050887423E+01  0.93326110309E+01  0.51100000000E-03 0.  1.
         12    1    3    3    0    0  0.19065149239E+02 -0.59726801501E+00  0.12392377806E+02  0.22746596939E+02  0.00000000000E+00 0. -1.
</event>
<event>
 7    1  0.2969156E-011  0.5052886E+02  0.7816164E-02  0.1300439E+00
        -11   -1    0    0    0    0  0.00000000000E+00  0.00000000000E+00  0.45593999997E+02  0.45594000000E+02  0.51100000000E-03 0. -1.
         11   -1    0    0    0    0 -0.00000000000E+00 -0.00000000000E+00 -0.45593999997E+02  0.45594000000E+02  0.51100000000E-03 0.  1.
    9900012    2    1    2    0    0  0.25223779586E+02  0.20701817889E+02 -0.24256155621E+02  0.50528863191E+02  0.30000010156E+02 0.  0.
         12    1    1    2    0    0 -0.25223779586E+02 -0.20701817889E+02  0.24256155621E+02  0.40659136809E+02  0.00000000000E+00 0. -1.
         11    1    3    3    0    0  0.88426137534E+01  0.12648325676E+01 -0.18443831961E+02  0.20493085592E+02  0.51100000000E-03 0. -1.
        -11    1    3    3    0    0  0.24332580941E+01  0.86725268345E+01 -0.82925817074E+01  0.12243380999E+02  0.51100000000E-03 0.  1.
         12    1    3    3    0    0  0.13947907739E+02  0.10764458487E+02  0.24802580469E+01  0.17792396600E+02  0.00000000000E+00 0. -1.
</event>
<event>
 7    1  0.3773942E-011  0.5052886E+02  0.7816164E-02  0.1300439E+00
        -11   -1    0    0    0    0  0.00000000000E+00  0.00000000000E+00  0.45593999997E+02  0.45594000000E+02  0.51100000000E-03 0. -1.
         11   -1    0    0    0    0 -0.00000000000E+00 -0.00000000000E+00 -0.45593999997E+02  0.45594000000E+02  0.51100000000E-03 0.  1.
    9900012    2    1    2    0    0 -0.29404511906E+02 -0.70394656708E+01 -0.27184295560E+02  0.50528864219E+02  0.30000013280E+02 0.  0.
         12    1    1    2    0    0  0.29404511906E+02  0.70394656708E+01  0.27184295560E+02  0.40659135781E+02  0.00000000000E+00 0. -1.
         11    1    3    3    0    0 -0.14437353959E+02  0.44474467147E+01 -0.49166127041E+01  0.15886788611E+02  0.51100000000E-03 0. -1.
        -11    1    3    3    0    0 -0.17624262637E+02 -0.34471640488E+01 -0.16580529599E+02  0.24442003509E+02  0.51100000000E-03 0.  1.
         12    1    3    3    0    0  0.26571046910E+01 -0.80397483367E+01 -0.56871532575E+01  0.10200072099E+02  0.00000000000E+00 0. -1.
</event>
<event>
 7    1  0.2969156E-011  0.5052885E+02  0.7816164E-02  0.1300439E+00
        -11   -1    0    0    0    0  0.00000000000E+00  0.00000000000E+00  0.45593999997E+02  0.45594000000E+02  0.51100000000E-03 0.  1.
         11   -1    0    0    0    0 -0.00000000000E+00 -0.00000000000E+00 -0.45593999997E+02  0.45594000000E+02  0.51100000000E-03 0. -1.
    9900012    2    1    2    0    0 -0.56042914042E+01 -0.21516895724E+02  0.34040885058E+02  0.50528846796E+02  0.29999960321E+02 0.  0.
         12    1    1    2    0    0  0.56042914042E+01  0.21516895724E+02 -0.34040885058E+02  0.40659153204E+02  0.00000000000E+00 0. -1.
         11    1    3    3    0    0  0.22692719038E+01 -0.13538391739E+02  0.11573136320E+02  0.17954808002E+02  0.51100000000E-03 0. -1.
        -11    1    3    3    0    0  0.60815673943E+01 -0.34996620217E+00  0.12220362516E+02  0.13654493714E+02  0.51100000000E-03 0.  1.
        -12    1    3    3    0    0 -0.13955130702E+02 -0.76285377833E+01  0.10247386222E+02  0.18919545079E+02  0.00000000000E+00 0.  1.
</event>
<event>
 7    1  0.2969156E-011  0.5052886E+02  0.7816164E-02  0.1300439E+00
        -11   -1    0    0    0    0  0.00000000000E+00  0.00000000000E+00  0.45593999997E+02  0.45594000000E+02  0.51100000000E-03 0. -1.
         11   -1    0    0    0    0 -0.00000000000E+00 -0.00000000000E+00 -0.45593999997E+02  0.45594000000E+02  0.51100000000E-03 0.  1.
    9900012    2    1    2    0    0 -0.84863793678E+01 -0.38682919086E+02 -0.92075345064E+01  0.50528861353E+02  0.30000004569E+02 0.  0.
         12    1    1    2    0    0  0.84863793678E+01  0.38682919086E+02  0.92075345064E+01  0.40659138647E+02  0.00000000000E+00 0. -1.
         11    1    3    3    0    0 -0.60080610833E+01 -0.16696365181E+02 -0.64079601163E+00  0.17756013855E+02  0.51100000000E-03 0. -1.
        -11    1    3    3    0    0 -0.87317305237E+01 -0.23126200121E+02 -0.92194854024E+01  0.26383008951E+02  0.51100000000E-03 0.  1.
         12    1    3    3    0    0  0.62534122392E+01  0.11396462154E+01  0.65274690755E+00  0.63898385468E+01  0.00000000000E+00 0. -1.
</event>
<event>
 7    1  0.2969156E-011  0.5052885E+02  0.7816164E-02  0.1300439E+00
        -11   -1    0    0    0    0  0.00000000000E+00  0.00000000000E+00  0.45593999997E+02  0.45594000000E+02  0.51100000000E-03 0. -1.
         11   -1    0    0    0    0 -0.00000000000E+00 -0.00000000000E+00 -0.45593999997E+02  0.45594000000E+02  0.51100000000E-03 0.  1.
    9900012    2    1    2    0    0  0.31243081196E+02 -0.11678906253E+02 -0.23251653415E+02  0.50528851455E+02  0.29999974482E+02 0.  0.
         12    1    1    2    0    0 -0.31243081196E+02  0.11678906253E+02  0.23251653415E+02  0.40659148545E+02  0.00000000000E+00 0. -1.
         11    1    3    3    0    0  0.17494842308E+01 -0.83710947416E+01  0.36826385538E+01  0.93111626141E+01  0.51100000000E-03 0. -1.
        -11    1    3    3    0    0  0.59849952166E+01 -0.44944664654E+01 -0.84556359652E+01  0.11292394626E+02  0.51100000000E-03 0.  1.
        -12    1    3    3    0    0  0.23508601748E+02  0.11866549537E+01 -0.18478656004E+02  0.29925294215E+02  0.00000000000E+00 0.  1.
</event>
<event>
 7    1  0.2969156E-011  0.5052883E+02  0.7816164E-02  0.1300439E+00
        -11   -1    0    0    0    0  0.00000000000E+00  0.00000000000E+00  0.45593999997E+02  0.45594000000E+02  0.51100000000E-03 0.  1.
         11   -1    0    0    0    0 -0.00000000000E+00 -0.00000000000E+00 -0.45593999997E+02  0.45594000000E+02  0.51100000000E-03 0. -1.
    9900012    2    1    2    0    0  0.31798558748E+02 -0.24687461848E+02  0.57052066546E+01  0.50528825219E+02  0.29999894735E+02 0.  0.
         12    1    1    2    0    0 -0.31798558748E+02  0.24687461848E+02 -0.57052066546E+01  0.40659174781E+02  0.00000000000E+00 0. -1.
         11    1    3    3    0    0  0.40206604891E+00  0.83752272268E+00  0.10842560229E+01  0.14278350055E+01  0.51100000000E-03 0. -1.
        -11    1    3    3    0    0 -0.15988492967E+01 -0.21551372341E+01  0.80859612348E+01  0.85196070874E+01  0.51100000000E-03 0.  1.
        -12    1    3    3    0    0  0.32995341995E+02 -0.23369847336E+02 -0.34650106031E+01  0.40581383126E+02  0.00000000000E+00 0.  1.
</event>
<event>
 7    1  0.2969156E-011  0.5052886E+02  0.7816164E-02  0.1300439E+00
        -11   -1    0    0    0    0  0.00000000000E+00  0.00000000000E+00  0.45593999997E+02  0.45594000000E+02  0.51100000000E-03 0. -1.
         11   -1    0    0    0    0 -0.00000000000E+00 -0.00000000000E+00 -0.45593999997E+02  0.45594000000E+02  0.51100000000E-03 0.  1.
    9900012    2    1    2    0    0 -0.21737168479E+02 -0.99931412398E+01 -0.32875500114E+02  0.50528857448E+02  0.29999992698E+02 0.  0.
         12    1    1    2    0    0  0.21737168479E+02  0.99931412398E+01  0.32875500114E+02  0.40659142552E+02  0.00000000000E+00 0. -1.
         11    1    3    3    0    0  0.36910279070E+00 -0.39287242644E+01  0.93511068960E+00  0.40553105280E+01  0.51100000000E-03 0. -1.
        -11    1    3    3    0    0 -0.88201634806E+01 -0.13862930884E+02 -0.18721584531E+02  0.24909312799E+02  0.51100000000E-03 0.  1.
        -12    1    3    3    0    0 -0.13286107789E+02  0.77985139082E+01 -0.15089026273E+02  0.21564234121E+02  0.00000000000E+00 0.  1.
</event>
<event>
 7    1  0.2969156E-011  0.5052887E+02  0.7816164E-02  0.1300439E+00
        -11   -1    0    0    0    0  0.00000000000E+00  0.00000000000E+00  0.45593999997E+02  0.45594000000E+02  0.51100000000E-03 0.  1.
         11   -1    0    0    0    0 -0.00000000000E+00 -0.00000000000E+00 -0.45593999997E+02  0.45594000000E+02  0.51100000000E-03 0. -1.
    9900012    2    1    2    0    0 -0.37463463652E+02 -0.15768480316E+02  0.10043171772E+01  0.50528871465E+02  0.30000035304E+02 0.  0.
         12    1    1    2    0    0  0.37463463652E+02  0.15768480316E+02 -0.10043171772E+01  0.40659128535E+02  0.00000000000E+00 0. -1.
         11    1    3    3    0    0 -0.17212976819E+02 -0.71238445906E+01  0.11900082456E+02  0.22105377070E+02  0.51100000000E-03 0. -1.
        -11    1    3    3    0    0 -0.35527914458E+01 -0.87899668847E+01 -0.49728673403E+01  0.10705851425E+02  0.51100000000E-03 0.  1.
        -12    1    3    3    0    0 -0.16697695387E+02  0.14533115940E+00 -0.59228979380E+01  0.17717642969E+02  0.00000000000E+00 0.  1.
</event>
<event>
 7    1  0.2969156E-011  0.5052886E+02  0.7816164E-02  0.1300439E+00
        -11   -1    0    0    0    0  0.00000000000E+00  0.00000000000E+00  0.45593999997E+02  0.45594000000E+02  0.51100000000E-03 0.  1.
         11   -1    0    0    0    0 -0.00000000000E+00 -0.00000000000E+00 -0.45593999997E+02  0.45594000000E+02  0.51100000000E-03 0. -1.
    9900012    2    1    2    0    0  0.37548716305E+02 -0.16415434377E+01  0.15510149230E+02  0.50528862156E+02  0.30000007010E+02 0.  0.
         12    1    1    2    0    0 -0.37548716305E+02  0.16415434377E+01 -0.15510149230E+02  0.40659137844E+02  0.00000000000E+00 0. -1.
         11    1    3    3    0    0  0.42723535640E+01  0.28019337150E+01 -0.41112946974E+01  0.65579403679E+01  0.51100000000E-03 0. -1.
        -11    1    3    3    0    0 -0.54536998514E+00 -0.35959497124E+01  0.69487021732E+01  0.78430061143E+01  0.51100000000E-03 0.  1.
        -12    1    3    3    0    0  0.33821732727E+02 -0.84752744025E+00  0.12672741754E+02  0.36127915674E+02  0.00000000000E+00 0.  1.
</event>
<event>
 7    1  0.2969156E-011  0.5052886E+02  0.7816164E-02  0.1300439E+00
        -11   -1    0    0    0    0  0.00000000000E+00  0.00000000000E+00  0.45593999997E+02  0.45594000000E+02  0.51100000000E-03 0. -1.
         11   -1    0    0    0    0 -0.00000000000E+00 -0.00000000000E+00 -0.45593999997E+02  0.45594000000E+02  0.51100000000E-03 0.  1.
    9900012    2    1    2    0    0 -0.28549157389E+01 -0.38426680937E+02 -0.12977116781E+02  0.50528856974E+02  0.29999991257E+02 0.  0.
         12    1    1    2    0    0  0.28549157389E+01  0.38426680937E+02  0.12977116781E+02  0.40659143026E+02  0.00000000000E+00 0. -1.
         11    1    3    3    0    0  0.22123416522E+01 -0.25060489401E+02 -0.14052886652E+01  0.25197170895E+02  0.51100000000E-03 0. -1.
        -11    1    3    3    0    0 -0.48913003559E+01 -0.27942783920E+01  0.37125310067E+01  0.67465322678E+01  0.51100000000E-03 0.  1.
        -12    1    3    3    0    0 -0.17595703528E+00 -0.10571913144E+02 -0.15284359122E+02  0.18585153811E+02  0.00000000000E+00 0.  1.
</event>
<event>
 7    1  0.2969156E-011  0.5052886E+02  0.7816164E-02  0.1300439E+00
        -11   -1    0    0    0    0  0.00000000000E+00  0.00000000000E+00  0.45593999997E+02  0.45594000000E+02  0.51100000000E-03 0.  1.
         11   -1    0    0    0    0 -0.00000000000E+00 -0.00000000000E+00 -0.45593999997E+02  0.45594000000E+02  0.51100000000E-03 0. -1.
    9900012    2    1    2    0    0 -0.68226469584E+01  0.41952430809E+01  0.39862475065E+02  0.50528862106E+02  0.30000006856E+02 0.  0.
         12    1    1    2    0    0  0.68226469584E+01 -0.41952430809E+01 -0.39862475065E+02  0.40659137894E+02  0.00000000000E+00 0. -1.
         11    1    3    3    0    0 -0.14055292391E+01 -0.28874494658E+01  0.11715498522E+02  0.12147665732E+02  0.51100000000E-03 0. -1.
        -11    1    3    3    0    0 -0.84737989034E+01  0.14504114645E+02  0.24142387853E+02  0.29411383867E+02  0.51100000000E-03 0.  1.
         12    1    3    3    0    0  0.30566811841E+01 -0.74214220980E+01  0.40045886895E+01  0.89698125058E+01  0.00000000000E+00 0. -1.
</event>
<event>
 7    1  0.2969156E-011  0.5052886E+02  0.7816164E-02  0.1300439E+00
        -11   -1    0    0    0    0  0.00000000000E+00  0.00000000000E+00  0.45593999997E+02  0.45594000000E+02  0.51100000000E-03 0.  1.
         11   -1    0    0    0    0 -0.00000000000E+00 -0.00000000000E+00 -0.45593999997E+02  0.45594000000E+02  0.51100000000E-03 0. -1.
    9900012    2    1    2    0    0  0.15792250229E+02 -0.15587300906E+02  0.34070612478E+02  0.50528858944E+02  0.29999997246E+02 0.  0.
         12    1    1    2    0    0 -0.15792250229E+02  0.15587300906E+02 -0.34070612478E+02  0.40659141056E+02  0.00000000000E+00 0. -1.
         11    1    3    3    0    0  0.66428706971E+01  0.37309444642E+01  0.50886991011E+01  0.91620159624E+01  0.51100000000E-03 0. -1.
        -11    1    3    3    0    0  0.10676852222E+02 -0.23866439565E+01  0.51477731056E+01  0.12090939209E+02  0.51100000000E-03 0.  1.
         12    1    3    3    0    0 -0.15274726901E+01 -0.16931601413E+02  0.23834140271E+02  0.29275903773E+02  0.00000000000E+00 0. -1.
</event>
<event>
 7    1  0.3046321E-011  0.5052886E+02  0.7816164E-02  0.1300439E+00
        -11   -1    0    0    0    0  0.00000000000E+00  0.00000000000E+00  0.45593999997E+02  0.45594000000E+02  0.51100000000E-03 0.  1.
         11   -1    0    0    0    0 -0.00000000000E+00 -0.00000000000E+00 -0.45593999997E+02  0.45594000000E+02  0.51100000000E-03 0. -1.
    9900012    2    1    2    0    0  0.37107899468E+02  0.21990670760E+01  0.16472197447E+02  0.50528863417E+02  0.30000010842E+02 0.  0.
         12    1    1    2    0    0 -0.37107899468E+02 -0.21990670760E+01 -0.16472197447E+02  0.40659136583E+02  0.00000000000E+00 0. -1.
         11    1    3    3    0    0 -0.25835646888E+01 -0.12714617715E+01  0.57736238896E+01  0.64518334307E+01  0.51100000000E-03 0. -1.
        -11    1    3    3    0    0  0.11651727820E+02  0.82633582564E+01  0.43318366143E+01  0.14926843591E+02  0.51100000000E-03 0.  1.
        -12    1    3    3    0    0  0.28039736337E+02 -0.47928294089E+01  0.63667369433E+01  0.29150186395E+02  0.00000000000E+00 0.  1.
</event>
<event>
 7    1  0.2969156E-011  0.5052885E+02  0.7816164E-02  0.1300439E+00
        -11   -1    0    0    0    0  0.00000000000E+00  0.00000000000E+00  0.45593999997E+02  0.45594000000E+02  0.51100000000E-03 0.  1.
         11   -1    0    0    0    0 -0.00000000000E+00 -0.00000000000E+00 -0.45593999997E+02  0.45594000000E+02  0.51100000000E-03 0. -1.
    9900012    2    1    2    0    0 -0.13583051613E+02 -0.35312107156E+02  0.14890334346E+02  0.50528852691E+02  0.29999978241E+02 0.  0.
         12    1    1    2    0    0  0.13583051613E+02  0.35312107156E+02 -0.14890334346E+02  0.40659147309E+02  0.00000000000E+00 0. -1.
         11    1    3    3    0    0 -0.10152993826E+02 -0.57982404629E+01  0.26206180526E+01  0.11982091443E+02  0.51100000000E-03 0. -1.
        -11    1    3    3    0    0 -0.68919919855E+01 -0.19289094096E+02 -0.20814282015E+01  0.20588857379E+02  0.51100000000E-03 0.  1.
        -12    1    3    3    0    0  0.34619341986E+01 -0.10224772597E+02  0.14351144495E+02  0.17957903869E+02  0.00000000000E+00 0.  1.
</event>
<event>
 7    1  0.2969156E-011  0.5052885E+02  0.7816164E-02  0.1300439E+00
        -11   -1    0    0    0    0  0.00000000000E+00  0.00000000000E+00  0.45593999997E+02  0.45594000000E+02  0.51100000000E-03 0.  1.
         11   -1    0    0    0    0 -0.00000000000E+00 -0.00000000000E+00 -0.45593999997E+02  0.45594000000E+02  0.51100000000E-03 0. -1.
    9900012    2    1    2    0    0 -0.33687196788E+02  0.21153919818E+02  0.84172926400E+01  0.50528851380E+02  0.29999974255E+02 0.  0.
         12    1    1    2    0    0  0.33687196788E+02 -0.21153919818E+02 -0.84172926400E+01  0.40659148620E+02  0.00000000000E+00 0. -1.
         11    1    3    3    0    0 -0.18062055715E+01 -0.18107629776E+01  0.19496849655E+01  0.32159777445E+01  0.51100000000E-03 0. -1.
        -11    1    3    3    0    0 -0.30410953557E+02  0.13220495454E+02  0.12860032557E+02  0.35566670268E+02  0.51100000000E-03 0.  1.
        -12    1    3    3    0    0 -0.14700376594E+01  0.97441873421E+01 -0.63924248826E+01  0.11746203368E+02  0.00000000000E+00 0.  1.
</event>
<event>
 7    1  0.2969156E-011  0.5052887E+02  0.7816164E-02  0.1300439E+00
        -11   -1    0    0    0    0  0.00000000000E+00  0.00000000000E+00  0.45593999997E+02  0.45594000000E+02  0.51100000000E-03 0.  1.
         11   -1    0    0    0    0 -0.00000000000E+00 -0.00000000000E+00 -0.45593999997E+02  0.45594000000E+02  0.51100000000E-03 0. -1.
    9900012    2    1    2    0    0 -0.21506603215E+02 -0.11151549286E+02  0.32653845326E+02  0.50528872514E+02  0.30000038495E+02 0.  0.
         12    1    1    2    0    0  0.21506603215E+02  0.11151549286E+02 -0.32653845326E+02  0.40659127486E+02  0.00000000000E+00 0. -1.
         11    1    3    3    0    0  0.55142020068E+01  0.35392561823E+01  0.44424519513E+01  0.79163209698E+01  0.51100000000E-03 0.  1.
        -11    1    3    3    0    0 -0.96690418934E+01 -0.17657823224E+01  0.55797010719E+01  0.11302275110E+02  0.51100000000E-03 0. -1.
        -12    1    3    3    0    0 -0.17351763328E+02 -0.12925023146E+02  0.22631692303E+02  0.31310276435E+02  0.00000000000E+00 0.  1.
</event>
<event>
 7    1  0.2969156E-011  0.5052882E+02  0.7816164E-02  0.1300439E+00
        -11   -1    0    0    0    0  0.00000000000E+00  0.00000000000E+00  0.45593999997E+02  0.45594000000E+02  0.51100000000E-03 0.  1.
         11   -1    0    0    0    0 -0.00000000000E+00 -0.00000000000E+00 -0.45593999997E+02  0.45594000000E+02  0.51100000000E-03 0. -1.
    9900012    2    1    2    0    0 -0.10695625162E+02  0.38293805062E+02  0.85062760838E+01  0.50528823465E+02  0.29999889404E+02 0.  0.
         12    1    1    2    0    0  0.10695625162E+02 -0.38293805062E+02 -0.85062760838E+01  0.40659176535E+02  0.00000000000E+00 0. -1.
         11    1    3    3    0    0  0.43372108557E+01  0.18288164654E+02 -0.18606977588E+00  0.18796355675E+02  0.51100000000E-03 0. -1.
        -11    1    3    3    0    0 -0.53041729056E+01  0.19721943659E+02  0.81362054040E+01  0.21983792906E+02  0.51100000000E-03 0.  1.
        -12    1    3    3    0    0 -0.97286631118E+01  0.28369674847E+00  0.55614045569E+00  0.97486748840E+01  0.00000000000E+00 0.  1.
</event>
<event>
 7    1  0.2969156E-011  0.5052885E+02  0.7816164E-02  0.1300439E+00
        -11   -1    0    0    0    0  0.00000000000E+00  0.00000000000E+00  0.45593999997E+02  0.45594000000E+02  0.51100000000E-03 0. -1.
         11   -1    0    0    0    0 -0.00000000000E+00 -0.00000000000E+00 -0.45593999997E+02  0.45594000000E+02  0.51100000000E-03 0.  1.
    9900012    2    1    2    0    0 -0.36487699314E+02 -0.17796947050E+02 -0.22545655408E+01  0.50528848615E+02  0.29999965852E+02 0.  0.
         12    1    1    2    0    0  0.36487699314E+02  0.17796947050E+02  0.22545655408E+01  0.40659151385E+02  0.00000000000E+00 0. -1.
         11    1    3    3    0    0 -0.17002999405E+02 -0.65356902190E+01 -0.28714071337E+01  0.18440775867E+02  0.51100000000E-03 0.  1.
        -11    1    3    3    0    0 -0.23077742496E+01  0.58170118643E+00 -0.88590187192E+01  0.91731352975E+01  0.51100000000E-03 0. -1.
         12    1    3    3    0    0 -0.17176925660E+02 -0.11842958018E+02  0.94758603120E+01  0.22914937451E+02  0.00000000000E+00 0. -1.
</event>
<event>
 7    1  0.2969156E-011  0.5052886E+02  0.7816164E-02  0.1300439E+00
        -11   -1    0    0    0    0  0.00000000000E+00  0.00000000000E+00  0.45593999997E+02  0.45594000000E+02  0.51100000000E-03 0. -1.
         11   -1    0    0    0    0 -0.00000000000E+00 -0.00000000000E+00 -0.45593999997E+02  0.45594000000E+02  0.51100000000E-03 0.  1.
    9900012    2    1    2    0    0  0.23897835797E+02  0.32693140302E+02 -0.36356315773E+01  0.50528858401E+02  0.29999995596E+02 0.  0.
         12    1    1    2    0    0 -0.23897835797E+02 -0.32693140302E+02  0.36356315773E+01  0.40659141599E+02  0.00000000000E+00 0. -1.
         11    1    3    3    0    0  0.14226441270E+02  0.32277161374E+02 -0.92585535662E+01  0.36468172315E+02  0.51100000000E-03 0.  1.
        -11    1    3    3    0    0  0.63125081984E+01  0.29843600076E+01 -0.53369881917E-01  0.69826222163E+01  0.51100000000E-03 0. -1.
         12    1    3    3    0    0  0.33588863289E+01 -0.25683810803E+01  0.56762918708E+01  0.70780638699E+01  0.00000000000E+00 0. -1.
</event>
<event>
 7    1  0.2969156E-011  0.5052886E+02  0.7816164E-02  0.1300439E+00
        -11   -1    0    0    0    0  0.00000000000E+00  0.00000000000E+00  0.45593999997E+02  0.45594000000E+02  0.51100000000E-03 0. -1.
         11   -1    0    0    0    0 -0.00000000000E+00 -0.00000000000E+00 -0.45593999997E+02  0.45594000000E+02  0.51100000000E-03 0.  1.
    9900012    2    1    2    0    0  0.17355950754E+02 -0.35230102115E+02 -0.10525051651E+02  0.50528857930E+02  0.29999994163E+02 0.  0.
         12    1    1    2    0    0 -0.17355950754E+02  0.35230102115E+02  0.10525051651E+02  0.40659142070E+02  0.00000000000E+00 0. -1.
         11    1    3    3    0    0 -0.26943428927E+01 -0.50305191623E+01 -0.54059968493E+01  0.78606875565E+01  0.51100000000E-03 0. -1.
        -11    1    3    3    0    0  0.15611986887E+02 -0.24584965771E+02 -0.13112496757E+02  0.31938883011E+02  0.51100000000E-03 0.  1.
        -12    1    3    3    0    0  0.44383067601E+01 -0.56146171816E+01  0.79934419559E+01  0.10729287362E+02  0.00000000000E+00 0.  1.
</event>
<event>
 7    1  0.2969156E-011  0.5052886E+02  0.7816164E-02  0.1300439E+00
        -11   -1    0    0    0    0  0.00000000000E+00  0.00000000000E+00  0.45593999997E+02  0.45594000000E+02  0.51100000000E-03 0.  1.
         11   -1    0    0    0    0 -0.00000000000E+00 -0.00000000000E+00 -0.45593999997E+02  0.45594000000E+02  0.51100000000E-03 0. -1.
    9900012    2    1    2    0    0 -0.50675958244E+01  0.30944631889E+02  0.25882714158E+02  0.50528860039E+02  0.30000000575E+02 0.  0.
         12    1    1    2    0    0  0.50675958244E+01 -0.30944631889E+02 -0.25882714158E+02  0.40659139961E+02  0.00000000000E+00 0. -1.
         11    1    3    3    0    0 -0.41755009722E+01 -0.18910099662E+01 -0.39608272845E+00  0.46008269746E+01  0.51100000000E-03 0. -1.
        -11    1    3    3    0    0 -0.25906086039E+01  0.17536007400E+02  0.29380498835E+01  0.17968164788E+02  0.51100000000E-03 0.  1.
         12    1    3    3    0    0  0.16985137517E+01  0.15299634456E+02  0.23340747002E+02  0.27959868277E+02  0.00000000000E+00 0. -1.
</event>
<event>
 7    1  0.2969156E-011  0.5052892E+02  0.7816164E-02  0.1300439E+00
        -11   -1    0    0    0    0  0.00000000000E+00  0.00000000000E+00  0.45593999997E+02  0.45594000000E+02  0.51100000000E-03 0. -1.
         11   -1    0    0    0    0 -0.00000000000E+00 -0.00000000000E+00 -0.45593999997E+02  0.45594000000E+02  0.51100000000E-03 0.  1.
    9900012    2    1    2    0    0 -0.36418409923E+02  0.94652603636E+01 -0.15403540784E+02  0.50528919787E+02  0.30000182184E+02 0.  0.
         12    1    1    2    0    0  0.36418409923E+02 -0.94652603636E+01  0.15403540784E+02  0.40659080213E+02  0.00000000000E+00 0. -1.
         11    1    3    3    0    0 -0.85182080823E+01 -0.64434831901E+01  0.15408495500E+01  0.10791318833E+02  0.51100000000E-03 0. -1.
        -11    1    3    3    0    0 -0.18466050014E+02  0.20596143887E+01 -0.52657122541E+01  0.19312295057E+02  0.51100000000E-03 0.  1.
         12    1    3    3    0    0 -0.94341518270E+01  0.13849129165E+02 -0.11678678080E+02  0.20425305898E+02  0.00000000000E+00 0. -1.
</event>
<event>
 7    1  0.2969156E-011  0.5052886E+02  0.7816164E-02  0.1300439E+00
        -11   -1    0    0    0    0  0.00000000000E+00  0.00000000000E+00  0.45593999997E+02  0.45594000000E+02  0.51100000000E-03 0.  1.
         11   -1    0    0    0    0 -0.00000000000E+00 -0.00000000000E+00 -0.45593999997E+02  0.45594000000E+02  0.51100000000E-03 0. -1.
    9900012    2    1    2    0    0 -0.32242983327E+02 -0.32105900620E+01  0.24561103698E+02  0.50528859856E+02  0.30000000019E+02 0.  0.
         12    1    1    2    0    0  0.32242983327E+02  0.32105900620E+01 -0.24561103698E+02  0.40659140144E+02  0.00000000000E+00 0. -1.
         11    1    3    3    0    0 -0.30554234693E+01  0.43359832764E+01  0.24387578694E+00  0.53099754435E+01  0.51100000000E-03 0. -1.
        -11    1    3    3    0    0 -0.24517442253E+02  0.28823220212E+01  0.22957586069E+02  0.33711474505E+02  0.51100000000E-03 0.  1.
         12    1    3    3    0    0 -0.46701176041E+01 -0.10428895360E+02  0.13596418417E+01  0.11507409908E+02  0.00000000000E+00 0. -1.
</event>
<event>
 7    1  0.2969156E-011  0.5052886E+02  0.7816164E-02  0.1300439E+00
        -11   -1    0    0    0    0  0.00000000000E+00  0.00000000000E+00  0.45593999997E+02  0.45594000000E+02  0.51100000000E-03 0.  1.
         11   -1    0    0    0    0 -0.00000000000E+00 -0.00000000000E+00 -0.45593999997E+02  0.45594000000E+02  0.51100000000E-03 0. -1.
    9900012    2    1    2    0    0 -0.13466820881E+02 -0.12066940262E+00  0.38363988077E+02  0.50528863181E+02  0.30000010125E+02 0.  0.
         12    1    1    2    0    0  0.13466820881E+02  0.12066940262E+00 -0.38363988077E+02  0.40659136819E+02  0.00000000000E+00 0. -1.
         11    1    3    3    0    0 -0.11865767060E+02  0.19192753608E+01  0.15181672870E+02  0.19363967497E+02  0.51100000000E-03 0. -1.
        -11    1    3    3    0    0 -0.72802416232E+01 -0.67566702333E+01  0.21366662533E+02  0.23562444245E+02  0.51100000000E-03 0.  1.
        -12    1    3    3    0    0  0.56791878021E+01  0.47167254699E+01  0.18156526731E+01  0.76024514388E+01  0.00000000000E+00 0.  1.
</event>
<event>
 7    1  0.2969156E-011  0.5052885E+02  0.7816164E-02  0.1300439E+00
        -11   -1    0    0    0    0  0.00000000000E+00  0.00000000000E+00  0.45593999997E+02  0.45594000000E+02  0.51100000000E-03 0. -1.
         11   -1    0    0    0    0 -0.00000000000E+00 -0.00000000000E+00 -0.45593999997E+02  0.45594000000E+02  0.51100000000E-03 0.  1.
    9900012    2    1    2    0    0  0.16021403002E+02  0.35040516311E+02 -0.12986281195E+02  0.50528848056E+02  0.29999964152E+02 0.  0.
         12    1    1    2    0    0 -0.16021403002E+02 -0.35040516311E+02  0.12986281195E+02  0.40659151944E+02  0.00000000000E+00 0. -1.
         11    1    3    3    0    0  0.74099637498E+01  0.43496905387E+01 -0.44153176706E-01  0.85923989851E+01  0.51100000000E-03 0. -1.
        -11    1    3    3    0    0 -0.18860227925E+01  0.15245472583E+01  0.53991532647E+01  0.59187990803E+01  0.51100000000E-03 0.  1.
        -12    1    3    3    0    0  0.10497462045E+02  0.29166278514E+02 -0.18341281283E+02  0.36017649991E+02  0.00000000000E+00 0.  1.
</event>
<event>
 7    1  0.2969156E-011  0.5052886E+02  0.7816164E-02  0.1300439E+00
        -11   -1    0    0    0    0  0.00000000000E+00  0.00000000000E+00  0.45593999997E+02  0.45594000000E+02  0.51100000000E-03 0. -1.
         11   -1    0    0    0    0 -0.00000000000E+00 -0.00000000000E+00 -0.45593999997E+02  0.45594000000E+02  0.51100000000E-03 0.  1.
    9900012    2    1    2    0    0 -0.15221627918E+02 -0.31986938818E+01 -0.37566425813E+02  0.50528856534E+02  0.29999989921E+02 0.  0.
         12    1    1    2    0    0  0.15221627918E+02  0.31986938818E+01  0.37566425813E+02  0.40659143466E+02  0.00000000000E+00 0. -1.
         11    1    3    3    0    0 -0.32384533617E+01  0.44868047528E+00 -0.19029988204E+02  0.19308789337E+02  0.51100000000E-03 0. -1.
        -11    1    3    3    0    0 -0.15951197156E+02  0.36970713108E+01 -0.14810426712E+02  0.22078445748E+02  0.51100000000E-03 0.  1.
        -12    1    3    3    0    0  0.39680226002E+01 -0.73444456678E+01 -0.37260108972E+01  0.91416214497E+01  0.00000000000E+00 0.  1.
</event>
<event>
 7    1  0.2969156E-011  0.5052887E+02  0.7816164E-02  0.1300439E+00
        -11   -1    0    0    0    0  0.00000000000E+00  0.00000000000E+00  0.45593999997E+02  0.45594000000E+02  0.51100000000E-03 0. -1.
         11   -1    0    0    0    0 -0.00000000000E+00 -0.00000000000E+00 -0.45593999997E+02  0.45594000000E+02  0.51100000000E-03 0.  1.
    9900012    2    1    2    0    0 -0.22188409264E+02  0.34062872114E+02 -0.74858741047E+00  0.50528866396E+02  0.30000019897E+02 0.  0.
         12    1    1    2    0    0  0.22188409264E+02 -0.34062872114E+02  0.74858741047E+00  0.40659133604E+02  0.00000000000E+00 0. -1.
         11    1    3    3    0    0 -0.14094920375E+02  0.17375269383E+02 -0.27111451267E+01  0.22537015656E+02  0.51100000000E-03 0.  1.
        -11    1    3    3    0    0 -0.11443006484E+02  0.10209036844E+02  0.90630240831E+01  0.17813063646E+02  0.51100000000E-03 0. -1.
         12    1    3    3    0    0  0.33495175954E+01  0.64785658873E+01 -0.71004663668E+01  0.10178787094E+02  0.00000000000E+00 0. -1.
</event>
<event>
 7    1  0.2969156E-011  0.5052886E+02  0.7816164E-02  0.1300439E+00
        -11   -1    0    0    0    0  0.00000000000E+00  0.00000000000E+00  0.45593999997E+02  0.45594000000E+02  0.51100000000E-03 0.  1.
         11   -1    0    0    0    0 -0.00000000000E+00 -0.00000000000E+00 -0.45593999997E+02  0.45594000000E+02  0.51100000000E-03 0. -1.
    9900012    2    1    2    0    0 -0.20552021305E+02 -0.13726937580E+02  0.32285465200E+02  0.50528860090E+02  0.30000000730E+02 0.  0.
         12    1    1    2    0    0  0.20552021305E+02  0.13726937580E+02 -0.32285465200E+02  0.40659139910E+02  0.00000000000E+00 0. -1.
         11    1    3    3    0    0 -0.61066738743E+01 -0.10708994817E+02  0.72647889209E+01  0.14309129747E+02  0.51100000000E-03 0. -1.
        -11    1    3    3    0    0  0.38296695077E+00 -0.22755219195E+01  0.20599786594E+02  0.20728624452E+02  0.51100000000E-03 0.  1.
         12    1    3    3    0    0 -0.14828314381E+02 -0.74242084268E+00  0.44208896850E+01  0.15491105890E+02  0.00000000000E+00 0. -1.
</event>
<event>
 7    1  0.2969156E-011  0.5052886E+02  0.7816164E-02  0.1300439E+00
        -11   -1    0    0    0    0  0.00000000000E+00  0.00000000000E+00  0.45593999997E+02  0.45594000000E+02  0.51100000000E-03 0.  1.
         11   -1    0    0    0    0 -0.00000000000E+00 -0.00000000000E+00 -0.45593999997E+02  0.45594000000E+02  0.51100000000E-03 0. -1.
    9900012    2    1    2    0    0 -0.18693098578E+02 -0.70375033175E+01  0.35414791427E+02  0.50528857864E+02  0.29999993964E+02 0.  0.
         12    1    1    2    0    0  0.18693098578E+02  0.70375033175E+01 -0.35414791427E+02  0.40659142136E+02  0.00000000000E+00 0. -1.
         11    1    3    3    0    0 -0.76135239495E+01 -0.42774353986E+01  0.70048820006E+01  0.11195113783E+02  0.51100000000E-03 0. -1.
        -11    1    3    3    0    0 -0.79918754158E+01 -0.24401394067E+01  0.32861180218E+02  0.33906953838E+02  0.51100000000E-03 0.  1.
        -12    1    3    3    0    0 -0.30876992129E+01 -0.31992851232E+00 -0.44512707915E+01  0.54267902430E+01  0.00000000000E+00 0.  1.
</event>
<event>
 7    1  0.2969156E-011  0.5052876E+02  0.7816164E-02  0.1300439E+00
        -11   -1    0    0    0    0  0.00000000000E+00  0.00000000000E+00  0.45593999997E+02  0.45594000000E+02  0.51100000000E-03 0.  1.
         11   -1    0    0    0    0 -0.00000000000E+00 -0.00000000000E+00 -0.45593999997E+02  0.45594000000E+02  0.51100000000E-03 0. -1.
    9900012    2    1    2    0    0 -0.90164910720E+01 -0.93170582920E+00  0.39635950711E+02  0.50528760266E+02  0.29999697302E+02 0.  0.
         12    1    1    2    0    0  0.90164910720E+01  0.93170582920E+00 -0.39635950711E+02  0.40659239734E+02  0.00000000000E+00 0. -1.
         11    1    3    3    0    0  0.33593163532E+01  0.24917191280E+01  0.54491620026E+00  0.42178910015E+01  0.51100000000E-03 0. -1.
        -11    1    3    3    0    0 -0.30470176207E+01 -0.10163718386E+02  0.84008213249E+01  0.13533635395E+02  0.51100000000E-03 0.  1.
         12    1    3    3    0    0 -0.93287898045E+01  0.67402934285E+01  0.30690213186E+02  0.32777233869E+02  0.00000000000E+00 0. -1.
</event>
<event>
 7    1  0.2969156E-011  0.5052887E+02  0.7816164E-02  0.1300439E+00
        -11   -1    0    0    0    0  0.00000000000E+00  0.00000000000E+00  0.45593999997E+02  0.45594000000E+02  0.51100000000E-03 0. -1.
         11   -1    0    0    0    0 -0.00000000000E+00 -0.00000000000E+00 -0.45593999997E+02  0.45594000000E+02  0.51100000000E-03 0.  1.
    9900012    2    1    2    0    0 -0.34670501369E+02  0.10153339368E+02 -0.18655589287E+02  0.50528868465E+02  0.30000026186E+02 0.  0.
         12    1    1    2    0    0  0.34670501369E+02 -0.10153339368E+02  0.18655589287E+02  0.40659131535E+02  0.00000000000E+00 0. -1.
         11    1    3    3    0    0 -0.28365425047E+01  0.10358586596E+02  0.22641385014E+01  0.10976001688E+02  0.51100000000E-03 0. -1.
        -11    1    3    3    0    0 -0.12268176142E+02  0.95772249500E+00 -0.23005532207E+01  0.12518702952E+02  0.51100000000E-03 0.  1.
        -12    1    3    3    0    0 -0.19565782723E+02 -0.11629697221E+01 -0.18619174567E+02  0.27034163825E+02  0.00000000000E+00 0.  1.
</event>
<event>
 7    1  0.2969156E-011  0.5052887E+02  0.7816164E-02  0.1300439E+00
        -11   -1    0    0    0    0  0.00000000000E+00  0.00000000000E+00  0.45593999997E+02  0.45594000000E+02  0.51100000000E-03 0.  1.
         11   -1    0    0    0    0 -0.00000000000E+00 -0.00000000000E+00 -0.45593999997E+02  0.45594000000E+02  0.51100000000E-03 0. -1.
    9900012    2    1    2    0    0 -0.36266756835E+02  0.99144074254E+01  0.15478756423E+02  0.50528867860E+02  0.30000024348E+02 0.  0.
         12    1    1    2    0    0  0.36266756835E+02 -0.99144074254E+01 -0.15478756423E+02  0.40659132140E+02  0.00000000000E+00 0. -1.
         11    1    3    3    0    0 -0.22956641583E+01 -0.20584025185E+01  0.76174926732E+01  0.82178640621E+01  0.51100000000E-03 0. -1.
        -11    1    3    3    0    0 -0.15108072959E+02 -0.50292939709E+01  0.75590430488E+00  0.15941112193E+02  0.51100000000E-03 0.  1.
         12    1    3    3    0    0 -0.18863019718E+02  0.17002103915E+02  0.71053594451E+01  0.26369891605E+02  0.00000000000E+00 0. -1.
</event>
<event>
 7    1  0.2969156E-011  0.5052886E+02  0.7816164E-02  0.1300439E+00
        -11   -1    0    0    0    0  0.00000000000E+00  0.00000000000E+00  0.45593999997E+02  0.45594000000E+02  0.51100000000E-03 0.  1.
         11   -1    0    0    0    0 -0.00000000000E+00 -0.00000000000E+00 -0.45593999997E+02  0.45594000000E+02  0.51100000000E-03 0. -1.
    9900012    2    1    2    0    0  0.30196382195E+02 -0.16351188575E+02  0.21771154733E+02  0.50528855348E+02  0.29999986314E+02 0.  0.
         12    1    1    2    0    0 -0.30196382195E+02  0.16351188575E+02 -0.21771154733E+02  0.40659144652E+02  0.00000000000E+00 0. -1.
         11    1    3    3    0    0  0.13711640884E+01  0.43934452967E+01 -0.23920662155E+01  0.51869483873E+01  0.51100000000E-03 0. -1.
        -11    1    3    3    0    0  0.51302717633E+01 -0.18952297104E+01  0.11083925584E+02  0.12359813536E+02  0.51100000000E-03 0.  1.
        -12    1    3    3    0    0  0.23694946343E+02 -0.18849404161E+02  0.13079295365E+02  0.32982093425E+02  0.00000000000E+00 0.  1.
</event>
<event>
 7    1  0.2969156E-011  0.5052882E+02  0.7816164E-02  0.1300439E+00
        -11   -1    0    0    0    0  0.00000000000E+00  0.00000000000E+00  0.45593999997E+02  0.45594000000E+02  0.51100000000E-03 0.  1.
         11   -1    0    0    0    0 -0.00000000000E+00 -0.00000000000E+00 -0.45593999997E+02  0.45594000000E+02  0.51100000000E-03 0. -1.
    9900012    2    1    2    0    0 -0.32901228039E+02 -0.14841542050E+02  0.18719149205E+02  0.50528822391E+02  0.29999886139E+02 0.  0.
         12    1    1    2    0    0  0.32901228039E+02  0.14841542050E+02 -0.18719149205E+02  0.40659177609E+02  0.00000000000E+00 0. -1.
         11    1    3    3    0    0 -0.88298040063E+01 -0.10062713369E+02  0.12402441701E+02  0.18249498610E+02  0.51100000000E-03 0.  1.
        -11    1    3    3    0    0 -0.24324541114E+01  0.46919090599E+01  0.68509460050E+01  0.86525317136E+01  0.51100000000E-03 0. -1.
         12    1    3    3    0    0 -0.21638969921E+02 -0.94707377407E+01 -0.53423850057E+00  0.23626792067E+02  0.00000000000E+00 0. -1.
</event>
<event>
 7    1  0.2969156E-011  0.5052886E+02  0.7816164E-02  0.1300439E+00
        -11   -1    0    0    0    0  0.00000000000E+00  0.00000000000E+00  0.45593999997E+02  0.45594000000E+02  0.51100000000E-03 0. -1.
         11   -1    0    0    0    0 -0.00000000000E+00 -0.00000000000E+00 -0.45593999997E+02  0.45594000000E+02  0.51100000000E-03 0.  1.
    9900012    2    1    2    0    0 -0.19981146573E+02 -0.31550136067E+02 -0.16078196681E+02  0.50528859420E+02  0.29999998692E+02 0.  0.
         12    1    1    2    0    0  0.19981146573E+02  0.31550136067E+02  0.16078196681E+02  0.40659140580E+02  0.00000000000E+00 0. -1.
         11    1    3    3    0    0  0.88578669070E+00 -0.85836500969E+01  0.52419002084E+01  0.10096592747E+02  0.51100000000E-03 0. -1.
        -11    1    3    3    0    0 -0.60118606975E+01  0.10033039416E+01 -0.29015038478E+01  0.67503935208E+01  0.51100000000E-03 0.  1.
        -12    1    3    3    0    0 -0.14855072566E+02 -0.23969789912E+02 -0.18418593042E+02  0.33681873152E+02  0.00000000000E+00 0.  1.
</event>
<event>
 7    1  0.2969156E-011  0.5052886E+02  0.7816164E-02  0.1300439E+00
        -11   -1    0    0    0    0  0.00000000000E+00  0.00000000000E+00  0.45593999997E+02  0.45594000000E+02  0.51100000000E-03 0.  1.
         11   -1    0    0    0    0 -0.00000000000E+00 -0.00000000000E+00 -0.45593999997E+02  0.45594000000E+02  0.51100000000E-03 0. -1.
    9900012    2    1    2    0    0 -0.12984230677E+02  0.29070309715E+02  0.25288192819E+02  0.50528857740E+02  0.29999993588E+02 0.  0.
         12    1    1    2    0    0  0.12984230677E+02 -0.29070309715E+02 -0.25288192819E+02  0.40659142260E+02  0.00000000000E+00 0. -1.
         11    1    3    3    0    0 -0.66053849824E+01  0.76089813791E+01 -0.98495428165E+00  0.10124121868E+02  0.51100000000E-03 0. -1.
        -11    1    3    3    0    0 -0.13562039597E+02  0.11272993529E+02  0.19207511759E+02  0.26075617143E+02  0.51100000000E-03 0.  1.
        -12    1    3    3    0    0  0.71831939028E+01  0.10188334807E+02  0.70656353418E+01  0.14329118730E+02  0.00000000000E+00 0.  1.
</event>
<event>
 7    1  0.2969156E-011  0.5052873E+02  0.7816164E-02  0.1300439E+00
        -11   -1    0    0    0    0  0.00000000000E+00  0.00000000000E+00  0.45593999997E+02  0.45594000000E+02  0.51100000000E-03 0. -1.
         11   -1    0    0    0    0 -0.00000000000E+00 -0.00000000000E+00 -0.45593999997E+02  0.45594000000E+02  0.51100000000E-03 0.  1.
    9900012    2    1    2    0    0  0.30757232921E+02  0.24298198684E+02 -0.10805858255E+02  0.50528727886E+02  0.29999598878E+02 0.  0.
         12    1    1    2    0    0 -0.30757232921E+02 -0.24298198684E+02  0.10805858255E+02  0.40659272114E+02  0.00000000000E+00 0. -1.
         11    1    3    3    0    0  0.28541226050E+02  0.17837639068E+02 -0.23160863455E+01  0.33736437396E+02  0.51100000000E-03 0. -1.
        -11    1    3    3    0    0  0.67344030657E+01  0.58881913696E+01 -0.83478327977E+01  0.12235574974E+02  0.51100000000E-03 0.  1.
         12    1    3    3    0    0 -0.45183961947E+01  0.57236824681E+00 -0.14193911211E+00  0.45567155160E+01  0.00000000000E+00 0. -1.
</event>
<event>
 7    1  0.2969156E-011  0.5052886E+02  0.7816164E-02  0.1300439E+00
        -11   -1    0    0    0    0  0.00000000000E+00  0.00000000000E+00  0.45593999997E+02  0.45594000000E+02  0.51100000000E-03 0. -1.
         11   -1    0    0    0    0 -0.00000000000E+00 -0.00000000000E+00 -0.45593999997E+02  0.45594000000E+02  0.51100000000E-03 0.  1.
    9900012    2    1    2    0    0  0.11817683509E+02 -0.14549592181E+02 -0.36080709895E+02  0.50528857084E+02  0.29999991593E+02 0.  0.
         12    1    1    2    0    0 -0.11817683509E+02  0.14549592181E+02  0.36080709895E+02  0.40659142916E+02  0.00000000000E+00 0. -1.
         11    1    3    3    0    0  0.82337274758E+01 -0.93240390870E+01 -0.16329002907E+02  0.20527257713E+02  0.51100000000E-03 0. -1.
        -11    1    3    3    0    0 -0.76156316402E+01 -0.66596060341E+00 -0.15322664307E+02  0.17123825231E+02  0.51100000000E-03 0.  1.
         12    1    3    3    0    0  0.11199587673E+02 -0.45595924909E+01 -0.44290426809E+01  0.12877774140E+02  0.00000000000E+00 0. -1.
</event>
<event>
 7    1  0.2969156E-011  0.5052886E+02  0.7816164E-02  0.1300439E+00
        -11   -1    0    0    0    0  0.00000000000E+00  0.00000000000E+00  0.45593999997E+02  0.45594000000E+02  0.51100000000E-03 0.  1.
         11   -1    0    0    0    0 -0.00000000000E+00 -0.00000000000E+00 -0.45593999997E+02  0.45594000000E+02  0.51100000000E-03 0. -1.
    9900012    2    1    2    0    0 -0.17406987698E+02 -0.31552077219E+02  0.18831602448E+02  0.50528855293E+02  0.29999986150E+02 0.  0.
         12    1    1    2    0    0  0.17406987698E+02  0.31552077219E+02 -0.18831602448E+02  0.40659144707E+02  0.00000000000E+00 0. -1.
         11    1    3    3    0    0 -0.77862475128E+01 -0.87618867939E+01  0.51361920582E+01  0.12797530216E+02  0.51100000000E-03 0.  1.
        -11    1    3    3    0    0 -0.79524776861E+01  0.35892645223E+01  0.35188106923E+01  0.94078026184E+01  0.51100000000E-03 0. -1.
         12    1    3    3    0    0 -0.16682624987E+01 -0.26379454947E+02  0.10176599697E+02  0.28323522459E+02  0.00000000000E+00 0. -1.
</event>
<event>
 7    1  0.2969156E-011  0.5052885E+02  0.7816164E-02  0.1300439E+00
        -11   -1    0    0    0    0  0.00000000000E+00  0.00000000000E+00  0.45593999997E+02  0.45594000000E+02  0.51100000000E-03 0. -1.
         11   -1    0    0    0    0 -0.00000000000E+00 -0.00000000000E+00 -0.45593999997E+02  0.45594000000E+02  0.51100000000E-03 0.  1.
    9900012    2    1    2    0    0  0.79150417292E+01 -0.29613733118E+02 -0.26712272285E+02  0.50528848935E+02  0.29999966821E+02 0.  0.
         12    1    1    2    0    0 -0.79150417292E+01  0.29613733118E+02  0.26712272285E+02  0.40659151065E+02  0.00000000000E+00 0. -1.
         11    1    3    3    0    0 -0.33439539788E+01 -0.75976739634E+01 -0.10656732290E+02  0.13508242715E+02  0.51100000000E-03 0. -1.
        -11    1    3    3    0    0 -0.57882201598E+01 -0.63321008409E+01  0.42849613935E+00  0.85896800220E+01  0.51100000000E-03 0.  1.
        -12    1    3    3    0    0  0.17047215868E+02 -0.15683958314E+02 -0.16484036134E+02  0.28430926198E+02  0.00000000000E+00 0.  1.
</event>
<event>
 7    1  0.2969156E-011  0.5052885E+02  0.7816164E-02  0.1300439E+00
        -11   -1    0    0    0    0  0.00000000000E+00  0.00000000000E+00  0.45593999997E+02  0.45594000000E+02  0.51100000000E-03 0.  1.
         11   -1    0    0    0    0 -0.00000000000E+00 -0.00000000000E+00 -0.45593999997E+02  0.45594000000E+02  0.51100000000E-03 0. -1.
    9900012    2    1    2    0    0  0.31077258686E+02 -0.18028722816E+02  0.19035112466E+02  0.50528851454E+02  0.29999974481E+02 0.  0.
         12    1    1    2    0    0 -0.31077258686E+02  0.18028722816E+02 -0.19035112466E+02  0.40659148546E+02  0.00000000000E+00 0. -1.
         11    1    3    3    0    0  0.18210320227E+01 -0.38277082723E+01  0.33340474164E+01  0.53929009523E+01  0.51100000000E-03 0. -1.
        -11    1    3    3    0    0  0.94507426742E+01 -0.11757718387E+01  0.18951056343E+02  0.21209467539E+02  0.51100000000E-03 0.  1.
         12    1    3    3    0    0  0.19805483989E+02 -0.13025242705E+02 -0.32499912930E+01  0.23926482963E+02  0.00000000000E+00 0. -1.
</event>
<event>
 7    1  0.2969156E-011  0.5052885E+02  0.7816164E-02  0.1300439E+00
        -11   -1    0    0    0    0  0.00000000000E+00  0.00000000000E+00  0.45593999997E+02  0.45594000000E+02  0.51100000000E-03 0. -1.
         11   -1    0    0    0    0 -0.00000000000E+00 -0.00000000000E+00 -0.45593999997E+02  0.45594000000E+02  0.51100000000E-03 0.  1.
    9900012    2    1    2    0    0  0.23158487584E+02 -0.29332295916E+02 -0.16014596759E+02  0.50528850473E+02  0.29999971498E+02 0.  0.
         12    1    1    2    0    0 -0.23158487584E+02  0.29332295916E+02  0.16014596759E+02  0.40659149527E+02  0.00000000000E+00 0. -1.
         11    1    3    3    0    0  0.14884668617E+02 -0.12849942810E+02  0.25016640245E+00  0.19665629244E+02  0.51100000000E-03 0. -1.
        -11    1    3    3    0    0  0.77983287582E+01  0.13041523439E+01 -0.79885131776E+01  0.11239710308E+02  0.51100000000E-03 0.  1.
         12    1    3    3    0    0  0.47549020810E+00 -0.17786505450E+02 -0.82762499843E+01  0.19623510921E+02  0.00000000000E+00 0. -1.
</event>
<event>
 7    1  0.2969156E-011  0.5052886E+02  0.7816164E-02  0.1300439E+00
        -11   -1    0    0    0    0  0.00000000000E+00  0.00000000000E+00  0.45593999997E+02  0.45594000000E+02  0.51100000000E-03 0. -1.
         11   -1    0    0    0    0 -0.00000000000E+00 -0.00000000000E+00 -0.45593999997E+02  0.45594000000E+02  0.51100000000E-03 0.  1.
    9900012    2    1    2    0    0 -0.24096920396E+02 -0.27187251219E+02 -0.18258090335E+02  0.50528855099E+02  0.29999985559E+02 0.  0.
         12    1    1    2    0    0  0.24096920396E+02  0.27187251219E+02  0.18258090335E+02  0.40659144901E+02  0.00000000000E+00 0. -1.
         11    1    3    3    0    0 -0.22242889756E+02 -0.79712117033E+01 -0.10249163240E+02  0.25755226812E+02  0.51100000000E-03 0. -1.
        -11    1    3    3    0    0 -0.68707416250E+01 -0.10253101383E+02 -0.75989688604E+01  0.14494050726E+02  0.51100000000E-03 0.  1.
         12    1    3    3    0    0  0.50167109859E+01 -0.89629381325E+01 -0.40995823415E+00  0.10279577561E+02  0.00000000000E+00 0. -1.
</event>
<event>
 7    1  0.2969156E-011  0.5052886E+02  0.7816164E-02  0.1300439E+00
        -11   -1    0    0    0    0  0.00000000000E+00  0.00000000000E+00  0.45593999997E+02  0.45594000000E+02  0.51100000000E-03 0. -1.
         11   -1    0    0    0    0 -0.00000000000E+00 -0.00000000000E+00 -0.45593999997E+02  0.45594000000E+02  0.51100000000E-03 0.  1.
    9900012    2    1    2    0    0 -0.35870553365E+02  0.18380007259E+02  0.53520548653E+01  0.50528858877E+02  0.29999997042E+02 0.  0.
         12    1    1    2    0    0  0.35870553365E+02 -0.18380007259E+02 -0.53520548653E+01  0.40659141123E+02  0.00000000000E+00 0. -1.
         11    1    3    3    0    0 -0.70816604225E+00  0.33001113645E+01  0.84721555132E+01  0.91197397695E+01  0.51100000000E-03 0. -1.
        -11    1    3    3    0    0 -0.27104616373E+02  0.95167604302E+01  0.44014862093E+01  0.29062037763E+02  0.51100000000E-03 0.  1.
        -12    1    3    3    0    0 -0.80577709495E+01  0.55631354648E+01 -0.75215868572E+01  0.12347081344E+02  0.00000000000E+00 0.  1.
</event>
<event>
 7    1  0.2969156E-011  0.5052886E+02  0.7816164E-02  0.1300439E+00
        -11   -1    0    0    0    0  0.00000000000E+00  0.00000000000E+00  0.45593999997E+02  0.45594000000E+02  0.51100000000E-03 0.  1.
         11   -1    0    0    0    0 -0.00000000000E+00 -0.00000000000E+00 -0.45593999997E+02  0.45594000000E+02  0.51100000000E-03 0. -1.
    9900012    2    1    2    0    0 -0.19134522855E+02 -0.35008093881E+02  0.78402081892E+01  0.50528862447E+02  0.30000007894E+02 0.  0.
         12    1    1    2    0    0  0.19134522855E+02  0.35008093881E+02 -0.78402081892E+01  0.40659137553E+02  0.00000000000E+00 0. -1.
         11    1    3    3    0    0 -0.41618662137E+01  0.27012432175E+01  0.31215783598E+01  0.58619192265E+01  0.51100000000E-03 0. -1.
        -11    1    3    3    0    0 -0.11741177125E+02 -0.19365254533E+02 -0.56612608715E+01  0.23343482994E+02  0.51100000000E-03 0.  1.
         12    1    3    3    0    0 -0.32314795170E+01 -0.18344082566E+02  0.10379890701E+02  0.21323460226E+02  0.00000000000E+00 0. -1.
</event>
<event>
 7    1  0.2969156E-011  0.5052885E+02  0.7816164E-02  0.1300439E+00
        -11   -1    0    0    0    0  0.00000000000E+00  0.00000000000E+00  0.45593999997E+02  0.45594000000E+02  0.51100000000E-03 0.  1.
         11   -1    0    0    0    0 -0.00000000000E+00 -0.00000000000E+00 -0.45593999997E+02  0.45594000000E+02  0.51100000000E-03 0. -1.
    9900012    2    1    2    0    0  0.26580962304E+02  0.27864025142E+02  0.13046648162E+02  0.50528849955E+02  0.29999969922E+02 0.  0.
         12    1    1    2    0    0 -0.26580962304E+02 -0.27864025142E+02 -0.13046648162E+02  0.40659150045E+02  0.00000000000E+00 0. -1.
         11    1    3    3    0    0 -0.23346748047E+01 -0.93408839170E+00  0.28977701569E+00  0.25312444661E+01  0.51100000000E-03 0. -1.
        -11    1    3    3    0    0  0.16242392543E+02  0.16931762785E+01  0.51718082607E+01  0.17129791662E+02  0.51100000000E-03 0.  1.
        -12    1    3    3    0    0  0.12673244566E+02  0.27104937255E+02  0.75850628856E+01  0.30867813827E+02  0.00000000000E+00 0.  1.
</event>
<event>
 7    1  0.2969156E-011  0.5052886E+02  0.7816164E-02  0.1300439E+00
        -11   -1    0    0    0    0  0.00000000000E+00  0.00000000000E+00  0.45593999997E+02  0.45594000000E+02  0.51100000000E-03 0.  1.
         11   -1    0    0    0    0 -0.00000000000E+00 -0.00000000000E+00 -0.45593999997E+02  0.45594000000E+02  0.51100000000E-03 0. -1.
    9900012    2    1    2    0    0 -0.44932605062E+01 -0.33428605759E+02  0.22704732845E+02  0.50528856298E+02  0.29999989204E+02 0.  0.
         12    1    1    2    0    0  0.44932605062E+01  0.33428605759E+02 -0.22704732845E+02  0.40659143702E+02  0.00000000000E+00 0. -1.
         11    1    3    3    0    0 -0.48612330541E+01 -0.92388527154E+01 -0.59261169167E+01  0.12004451186E+02  0.51100000000E-03 0. -1.
        -11    1    3    3    0    0 -0.32373365400E+01 -0.10268355198E+02  0.81703666859E+01  0.13515707839E+02  0.51100000000E-03 0.  1.
        -12    1    3    3    0    0  0.36053090879E+01 -0.13921397846E+02  0.20460483076E+02  0.25008697273E+02  0.00000000000E+00 0.  1.
</event>
<event>
 7    1  0.2969156E-011  0.5052886E+02  0.7816164E-02  0.1300439E+00
        -11   -1    0    0    0    0  0.00000000000E+00  0.00000000000E+00  0.45593999997E+02  0.45594000000E+02  0.51100000000E-03 0. -1.
         11   -1    0    0    0    0 -0.00000000000E+00 -0.00000000000E+00 -0.45593999997E+02  0.45594000000E+02  0.51100000000E-03 0.  1.
    9900012    2    1    2    0    0  0.38018579253E+01  0.19078771411E+02 -0.35703107299E+02  0.50528861875E+02  0.30000006156E+02 0.  0.
         12    1    1    2    0    0 -0.38018579253E+01 -0.19078771411E+02  0.35703107299E+02  0.40659138125E+02  0.00000000000E+00 0. -1.
         11    1    3    3    0    0  0.47744599941E+00  0.10756843937E+02 -0.12024387130E+02  0.16140741380E+02  0.51100000000E-03 0. -1.
        -11    1    3    3    0    0 -0.34374820846E+01 -0.98812586564E+00 -0.22543785093E+02  0.22825751299E+02  0.51100000000E-03 0.  1.
         12    1    3    3    0    0  0.67618940105E+01  0.93100533402E+01 -0.11349350761E+01  0.11562369196E+02  0.00000000000E+00 0. -1.
</event>
<event>
 7    1  0.2969156E-011  0.5052886E+02  0.7816164E-02  0.1300439E+00
        -11   -1    0    0    0    0  0.00000000000E+00  0.00000000000E+00  0.45593999997E+02  0.45594000000E+02  0.51100000000E-03 0.  1.
         11   -1    0    0    0    0 -0.00000000000E+00 -0.00000000000E+00 -0.45593999997E+02  0.45594000000E+02  0.51100000000E-03 0. -1.
    9900012    2    1    2    0    0  0.44589659983E+00 -0.38923393905E+02  0.11744615087E+02  0.50528863260E+02  0.30000010367E+02 0.  0.
         12    1    1    2    0    0 -0.44589659983E+00  0.38923393905E+02 -0.11744615087E+02  0.40659136740E+02  0.00000000000E+00 0. -1.
         11    1    3    3    0    0  0.59620563992E+01 -0.17227795375E+02 -0.28275425470E+01  0.18448253226E+02  0.51100000000E-03 0. -1.
        -11    1    3    3    0    0  0.53973546508E-01 -0.12268675891E+02 -0.17838701462E+01  0.12397802798E+02  0.51100000000E-03 0.  1.
        -12    1    3    3    0    0 -0.55701333458E+01 -0.94269226391E+01  0.16356027781E+02  0.19682807236E+02  0.00000000000E+00 0.  1.
</event>
<event>
 7    1  0.2969156E-011  0.5052885E+02  0.7816164E-02  0.1300439E+00
        -11   -1    0    0    0    0  0.00000000000E+00  0.00000000000E+00  0.45593999997E+02  0.45594000000E+02  0.51100000000E-03 0. -1.
         11   -1    0    0    0    0 -0.00000000000E+00 -0.00000000000E+00 -0.45593999997E+02  0.45594000000E+02  0.51100000000E-03 0.  1.
    9900012    2    1    2    0    0  0.39353303576E+02 -0.91102553452E+01  0.46354026844E+01  0.50528853270E+02  0.29999979999E+02 0.  0.
         12    1    1    2    0    0 -0.39353303576E+02  0.91102553452E+01 -0.46354026844E+01  0.40659146730E+02  0.00000000000E+00 0. -1.
         11    1    3    3    0    0  0.19930234036E+02 -0.50871164418E+01  0.28684955110E+01  0.20768275065E+02  0.51100000000E-03 0. -1.
        -11    1    3    3    0    0  0.18276860427E+02 -0.29956100075E+01  0.10230278976E+02  0.21158353304E+02  0.51100000000E-03 0.  1.
         12    1    3    3    0    0  0.11462091130E+01 -0.10275288958E+01 -0.84633718025E+01  0.86022249000E+01  0.00000000000E+00 0. -1.
</event>
<event>
 7    1  0.3146670E-011  0.5052887E+02  0.7816164E-02  0.1300439E+00
        -11   -1    0    0    0    0  0.00000000000E+00  0.00000000000E+00  0.45593999997E+02  0.45594000000E+02  0.51100000000E-03 0. -1.
         11   -1    0    0    0    0 -0.00000000000E+00 -0.00000000000E+00 -0.45593999997E+02  0.45594000000E+02  0.51100000000E-03 0.  1.
    9900012    2    1    2    0    0 -0.25748391164E+02  0.21420639840E+02 -0.23050842116E+02  0.50528870879E+02  0.30000033522E+02 0.  0.
         12    1    1    2    0    0  0.25748391164E+02 -0.21420639840E+02  0.23050842116E+02  0.40659129121E+02  0.00000000000E+00 0. -1.
         11    1    3    3    0    0 -0.25749586521E+01 -0.26865047343E+01 -0.29560152670E+01  0.47524463455E+01  0.51100000000E-03 0. -1.
        -11    1    3    3    0    0 -0.13488948244E+00  0.81230786895E+01 -0.15308159007E+02  0.17330387619E+02  0.51100000000E-03 0.  1.
        -12    1    3    3    0    0 -0.23038543029E+02  0.15984065885E+02 -0.47866678418E+01  0.28446036915E+02  0.00000000000E+00 0.  1.
</event>
<event>
 7    1  0.2969156E-011  0.5052886E+02  0.7816164E-02  0.1300439E+00
        -11   -1    0    0    0    0  0.00000000000E+00  0.00000000000E+00  0.45593999997E+02  0.45594000000E+02  0.51100000000E-03 0. -1.
         11   -1    0    0    0    0 -0.00000000000E+00 -0.00000000000E+00 -0.45593999997E+02  0.45594000000E+02  0.51100000000E-03 0.  1.
    9900012    2    1    2    0    0 -0.36034464753E+02 -0.18725175150E+02  0.20126171406E+01  0.50528862501E+02  0.30000008059E+02 0.  0.
         12    1    1    2    0    0  0.36034464753E+02  0.18725175150E+02 -0.20126171406E+01  0.40659137499E+02  0.00000000000E+00 0. -1.
         11    1    3    3    0    0  0.34196607761E+01 -0.79646213594E+00  0.19320484519E+01  0.40076480932E+01  0.51100000000E-03 0. -1.
        -11    1    3    3    0    0 -0.39432514181E+01  0.28824534965E+01  0.20891372985E+01  0.53124631593E+01  0.51100000000E-03 0.  1.
         12    1    3    3    0    0 -0.35510874111E+02 -0.20811166510E+02 -0.20085686098E+01  0.41208751249E+02  0.00000000000E+00 0. -1.
</event>
<event>
 7    1  0.2969156E-011  0.5052887E+02  0.7816164E-02  0.1300439E+00
        -11   -1    0    0    0    0  0.00000000000E+00  0.00000000000E+00  0.45593999997E+02  0.45594000000E+02  0.51100000000E-03 0. -1.
         11   -1    0    0    0    0 -0.00000000000E+00 -0.00000000000E+00 -0.45593999997E+02  0.45594000000E+02  0.51100000000E-03 0.  1.
    9900012    2    1    2    0    0 -0.72625024318E+01  0.24355825855E+00 -0.40004524269E+02  0.50528865428E+02  0.30000016955E+02 0.  0.
         12    1    1    2    0    0  0.72625024318E+01 -0.24355825855E+00  0.40004524269E+02  0.40659134572E+02  0.00000000000E+00 0. -1.
         11    1    3    3    0    0 -0.52770427089E+01  0.24885778463E+01 -0.50711202969E+01  0.77302303184E+01  0.51100000000E-03 0. -1.
        -11    1    3    3    0    0 -0.92645372834E+01 -0.15492748308E+01 -0.34180543325E+02  0.35447728359E+02  0.51100000000E-03 0.  1.
         12    1    3    3    0    0  0.72790775605E+01 -0.69574475696E+00 -0.75286064673E+00  0.73509067503E+01  0.00000000000E+00 0. -1.
</event>
<event>
 7    1  0.2969156E-011  0.5052886E+02  0.7816164E-02  0.1300439E+00
        -11   -1    0    0    0    0  0.00000000000E+00  0.00000000000E+00  0.45593999997E+02  0.45594000000E+02  0.51100000000E-03 0.  1.
         11   -1    0    0    0    0 -0.00000000000E+00 -0.00000000000E+00 -0.45593999997E+02  0.45594000000E+02  0.51100000000E-03 0. -1.
    9900012    2    1    2    0    0 -0.16631248013E+02  0.25565077697E+02  0.26888549233E+02  0.50528859724E+02  0.29999999619E+02 0.  0.
         12    1    1    2    0    0  0.16631248013E+02 -0.25565077697E+02 -0.26888549233E+02  0.40659140276E+02  0.00000000000E+00 0. -1.
         11    1    3    3    0    0 -0.79080119985E+01  0.47112377920E+01  0.93880359094E+00  0.92527708144E+01  0.51100000000E-03 0. -1.
        -11    1    3    3    0    0 -0.14006883000E+02  0.85625779641E+01  0.64726900120E+01  0.17646705897E+02  0.51100000000E-03 0.  1.
         12    1    3    3    0    0  0.52836469856E+01  0.12291261941E+02  0.19477055630E+02  0.23629383013E+02  0.00000000000E+00 0. -1.
</event>
<event>
 7    1  0.2969156E-011  0.5052884E+02  0.7816164E-02  0.1300439E+00
        -11   -1    0    0    0    0  0.00000000000E+00  0.00000000000E+00  0.45593999997E+02  0.45594000000E+02  0.51100000000E-03 0. -1.
         11   -1    0    0    0    0 -0.00000000000E+00 -0.00000000000E+00 -0.45593999997E+02  0.45594000000E+02  0.51100000000E-03 0.  1.
    9900012    2    1    2    0    0  0.10068786539E+02  0.75658250992E+01 -0.38659344776E+02  0.50528842234E+02  0.29999946453E+02 0.  0.
         12    1    1    2    0    0 -0.10068786539E+02 -0.75658250992E+01  0.38659344776E+02  0.40659157766E+02  0.00000000000E+00 0. -1.
         11    1    3    3    0    0  0.40260535927E+01  0.44658980495E+01 -0.70425599459E+01  0.92601837872E+01  0.51100000000E-03 0.  1.
        -11    1    3    3    0    0  0.10745906749E+02 -0.50373217408E+01 -0.29265506474E+02  0.31580357687E+02  0.51100000000E-03 0. -1.
         12    1    3    3    0    0 -0.47031738030E+01  0.81372487905E+01 -0.23512783553E+01  0.96883007594E+01  0.00000000000E+00 0. -1.
</event>
<event>
 7    1  0.2969156E-011  0.5052886E+02  0.7816164E-02  0.1300439E+00
        -11   -1    0    0    0    0  0.00000000000E+00  0.00000000000E+00  0.45593999997E+02  0.45594000000E+02  0.51100000000E-03 0. -1.
         11   -1    0    0    0    0 -0.00000000000E+00 -0.00000000000E+00 -0.45593999997E+02  0.45594000000E+02  0.51100000000E-03 0.  1.
    9900012    2    1    2    0    0  0.27188959117E+02  0.75630911320E+01 -0.29269876515E+02  0.50528861832E+02  0.30000006024E+02 0.  0.
         12    1    1    2    0    0 -0.27188959117E+02 -0.75630911320E+01  0.29269876515E+02  0.40659138168E+02  0.00000000000E+00 0. -1.
         11    1    3    3    0    0 -0.41615068521E+01 -0.21259459901E+01 -0.80949497055E+01  0.93469779409E+01  0.51100000000E-03 0. -1.
        -11    1    3    3    0    0  0.59797664652E+01  0.49228272525E+01 -0.10958116393E+02  0.13419096478E+02  0.51100000000E-03 0.  1.
         12    1    3    3    0    0  0.25370699504E+02  0.47662098696E+01 -0.10216810416E+02  0.27762787413E+02  0.00000000000E+00 0. -1.
</event>
<event>
 7    1  0.2969156E-011  0.5052886E+02  0.7816164E-02  0.1300439E+00
        -11   -1    0    0    0    0  0.00000000000E+00  0.00000000000E+00  0.45593999997E+02  0.45594000000E+02  0.51100000000E-03 0. -1.
         11   -1    0    0    0    0 -0.00000000000E+00 -0.00000000000E+00 -0.45593999997E+02  0.45594000000E+02  0.51100000000E-03 0.  1.
    9900012    2    1    2    0    0 -0.21630515962E+02 -0.14240838688E+02 -0.31344617585E+02  0.50528858852E+02  0.29999996967E+02 0.  0.
         12    1    1    2    0    0  0.21630515962E+02  0.14240838688E+02  0.31344617585E+02  0.40659141148E+02  0.00000000000E+00 0. -1.
         11    1    3    3    0    0 -0.54354108082E+01  0.32247148776E+01 -0.17584535290E+01  0.65600789454E+01  0.51100000000E-03 0. -1.
        -11    1    3    3    0    0 -0.11918808696E+02  0.22189580319E+01 -0.84946141673E+01  0.14803386288E+02  0.51100000000E-03 0.  1.
        -12    1    3    3    0    0 -0.42762964583E+01 -0.19684511598E+02 -0.21091549889E+02  0.29165393619E+02  0.00000000000E+00 0.  1.
</event>
<event>
 7    1  0.2969156E-011  0.5052887E+02  0.7816164E-02  0.1300439E+00
        -11   -1    0    0    0    0  0.00000000000E+00  0.00000000000E+00  0.45593999997E+02  0.45594000000E+02  0.51100000000E-03 0.  1.
         11   -1    0    0    0    0 -0.00000000000E+00 -0.00000000000E+00 -0.45593999997E+02  0.45594000000E+02  0.51100000000E-03 0. -1.
    9900012    2    1    2    0    0  0.13069562127E+01 -0.93117092683E+01  0.39556909776E+02  0.50528866031E+02  0.30000018788E+02 0.  0.
         12    1    1    2    0    0 -0.13069562127E+01  0.93117092683E+01 -0.39556909776E+02  0.40659133969E+02  0.00000000000E+00 0. -1.
         11    1    3    3    0    0  0.19891867176E+00 -0.46847976736E+01 -0.14190061700E+01  0.48990281335E+01  0.51100000000E-03 0. -1.
        -11    1    3    3    0    0  0.13764804787E+01 -0.12138332564E+02  0.21114058618E+02  0.24393386143E+02  0.51100000000E-03 0.  1.
         12    1    3    3    0    0 -0.26844293775E+00  0.75114209692E+01  0.19861857328E+02  0.21236451755E+02  0.00000000000E+00 0. -1.
</event>
<event>
 7    1  0.2969156E-011  0.5052885E+02  0.7816164E-02  0.1300439E+00
        -11   -1    0    0    0    0  0.00000000000E+00  0.00000000000E+00  0.45593999997E+02  0.45594000000E+02  0.51100000000E-03 0. -1.
         11   -1    0    0    0    0 -0.00000000000E+00 -0.00000000000E+00 -0.45593999997E+02  0.45594000000E+02  0.51100000000E-03 0.  1.
    9900012    2    1    2    0    0 -0.39953725685E+02 -0.72536164395E+01  0.20618543123E+01  0.50528851082E+02  0.29999973348E+02 0.  0.
         12    1    1    2    0    0  0.39953725685E+02  0.72536164395E+01 -0.20618543123E+01  0.40659148918E+02  0.00000000000E+00 0. -1.
         11    1    3    3    0    0  0.32736375994E+01  0.11186762919E+01  0.40496425104E+00  0.34831216005E+01  0.51100000000E-03 0. -1.
        -11    1    3    3    0    0 -0.91636852226E+01 -0.50424473483E+01  0.67419370105E+01  0.12443999238E+02  0.51100000000E-03 0.  1.
        -12    1    3    3    0    0 -0.34063678062E+02 -0.33298453830E+01 -0.50850469492E+01  0.34601730243E+02  0.00000000000E+00 0.  1.
</event>
<event>
 7    1  0.2969156E-011  0.5052885E+02  0.7816164E-02  0.1300439E+00
        -11   -1    0    0    0    0  0.00000000000E+00  0.00000000000E+00  0.45593999997E+02  0.45594000000E+02  0.51100000000E-03 0.  1.
         11   -1    0    0    0    0 -0.00000000000E+00 -0.00000000000E+00 -0.45593999997E+02  0.45594000000E+02  0.51100000000E-03 0. -1.
    9900012    2    1    2    0    0  0.42138746570E+01 -0.19928997304E+02  0.35188698128E+02  0.50528854053E+02  0.29999982380E+02 0.  0.
         12    1    1    2    0    0 -0.42138746570E+01  0.19928997304E+02 -0.35188698128E+02  0.40659145947E+02  0.00000000000E+00 0. -1.
         11    1    3    3    0    0  0.49256496877E+01  0.15190373620E+01  0.18254160595E+02  0.18967969808E+02  0.51100000000E-03 0. -1.
        -11    1    3    3    0    0 -0.79432201708E+01 -0.81174235423E+01  0.58439770643E+01  0.12772602704E+02  0.51100000000E-03 0.  1.
         12    1    3    3    0    0  0.72314451401E+01 -0.13330611124E+02  0.11090560469E+02  0.18788281541E+02  0.00000000000E+00 0. -1.
</event>
<event>
 7    1  0.2969156E-011  0.5052889E+02  0.7816164E-02  0.1300439E+00
        -11   -1    0    0    0    0  0.00000000000E+00  0.00000000000E+00  0.45593999997E+02  0.45594000000E+02  0.51100000000E-03 0.  1.
         11   -1    0    0    0    0 -0.00000000000E+00 -0.00000000000E+00 -0.45593999997E+02  0.45594000000E+02  0.51100000000E-03 0. -1.
    9900012    2    1    2    0    0  0.68836547224E+01 -0.39644066781E+02  0.58417871555E+01  0.50528890191E+02  0.30000092224E+02 0.  0.
         12    1    1    2    0    0 -0.68836547224E+01  0.39644066781E+02 -0.58417871555E+01  0.40659109809E+02  0.00000000000E+00 0. -1.
         11    1    3    3    0    0  0.14893889633E+01 -0.58512365160E+01  0.57431598712E+01  0.83330146896E+01  0.51100000000E-03 0. -1.
        -11    1    3    3    0    0  0.10710437441E+02 -0.27509417180E+02  0.82087626460E+01  0.30640908737E+02  0.51100000000E-03 0.  1.
         12    1    3    3    0    0 -0.53161716817E+01 -0.62834130849E+01 -0.81101353617E+01  0.11554966765E+02  0.00000000000E+00 0. -1.
</event>
