<event>
 7    1  0.7579108E-012  0.5930194E+02  0.7816164E-02  0.1266605E+00
        -11   -1    0    0    0    0  0.00000000000E+00  0.00000000000E+00  0.45593999997E+02  0.45594000000E+02  0.51100000000E-03 0. -1.
         11   -1    0    0    0    0 -0.00000000000E+00 -0.00000000000E+00 -0.45593999997E+02  0.45594000000E+02  0.51100000000E-03 0.  1.
    9900012    2    1    2    0    0 -0.22990237124E+02 -0.18845933762E+02 -0.11532591443E+02  0.59301938974E+02  0.49999990783E+02 0.  0.
         12    1    1    2    0    0  0.22990237124E+02  0.18845933762E+02  0.11532591443E+02  0.31886061026E+02  0.00000000000E+00 0. -1.
         11    1    3    3    0    0 -0.16790415312E+02  0.36659336324E+01  0.31512729850E+01  0.17472482292E+02  0.51100000000E-03 0. -1.
        -11    1    3    3    0    0 -0.52166772046E+00 -0.35675237836E+01 -0.20814172888E+02  0.21124136821E+02  0.51100000000E-03 0.  1.
        -12    1    3    3    0    0 -0.56781540912E+01 -0.18944343611E+02  0.61303084598E+01  0.20705319861E+02  0.00000000000E+00 0.  1.
</event>
<event>
 7    1  0.7579108E-012  0.5930193E+02  0.7816164E-02  0.1266605E+00
        -11   -1    0    0    0    0  0.00000000000E+00  0.00000000000E+00  0.45593999997E+02  0.45594000000E+02  0.51100000000E-03 0. -1.
         11   -1    0    0    0    0 -0.00000000000E+00 -0.00000000000E+00 -0.45593999997E+02  0.45594000000E+02  0.51100000000E-03 0.  1.
    9900012    2    1    2    0    0  0.22331527626E+02  0.93469006191E+01  0.20752350321E+02  0.59301925906E+02  0.49999966951E+02 0.  0.
         12    1    1    2    0    0 -0.22331527626E+02 -0.93469006191E+01 -0.20752350321E+02  0.31886074094E+02  0.00000000000E+00 0. -1.
         11    1    3    3    0    0  0.11873915864E-01  0.19756723738E+01  0.23680927385E+01  0.30840372563E+01  0.51100000000E-03 0. -1.
        -11    1    3    3    0    0  0.32201927693E+02 -0.44332472950E+01  0.23371177362E+02  0.40035356377E+02  0.51100000000E-03 0.  1.
        -12    1    3    3    0    0 -0.98822739830E+01  0.11804475540E+02 -0.49869197802E+01  0.16182532273E+02  0.00000000000E+00 0.  1.
</event>
<event>
 7    1  0.7579108E-012  0.5930192E+02  0.7816164E-02  0.1266605E+00
        -11   -1    0    0    0    0  0.00000000000E+00  0.00000000000E+00  0.45593999997E+02  0.45594000000E+02  0.51100000000E-03 0.  1.
         11   -1    0    0    0    0 -0.00000000000E+00 -0.00000000000E+00 -0.45593999997E+02  0.45594000000E+02  0.51100000000E-03 0. -1.
    9900012    2    1    2    0    0  0.86588985047E+01 -0.22276504877E+02  0.21106938737E+02  0.59301920660E+02  0.49999957383E+02 0.  0.
         12    1    1    2    0    0 -0.86588985047E+01  0.22276504877E+02 -0.21106938737E+02  0.31886079340E+02  0.00000000000E+00 0. -1.
         11    1    3    3    0    0  0.15508156280E+02  0.61349013988E+01  0.42735911050E+01  0.17216373241E+02  0.51100000000E-03 0. -1.
        -11    1    3    3    0    0 -0.12311396529E+00 -0.55865810076E+01  0.17408502238E+02  0.18283352943E+02  0.51100000000E-03 0.  1.
         12    1    3    3    0    0 -0.67261438100E+01 -0.22824825268E+02 -0.57515460632E+00  0.23802194476E+02  0.00000000000E+00 0. -1.
</event>
<event>
 7    1  0.7579108E-012  0.5930193E+02  0.7816164E-02  0.1266605E+00
        -11   -1    0    0    0    0  0.00000000000E+00  0.00000000000E+00  0.45593999997E+02  0.45594000000E+02  0.51100000000E-03 0. -1.
         11   -1    0    0    0    0 -0.00000000000E+00 -0.00000000000E+00 -0.45593999997E+02  0.45594000000E+02  0.51100000000E-03 0.  1.
    9900012    2    1    2    0    0 -0.29685001744E+02 -0.85934246996E+01  0.78533606120E+01  0.59301928597E+02  0.49999971859E+02 0.  0.
         12    1    1    2    0    0  0.29685001744E+02  0.85934246996E+01 -0.78533606120E+01  0.31886071403E+02  0.00000000000E+00 0. -1.
         11    1    3    3    0    0 -0.22653470466E+02 -0.19449540889E+02  0.57474952457E+01  0.30405559800E+02  0.51100000000E-03 0. -1.
        -11    1    3    3    0    0  0.65087099037E+01 -0.84483720584E-02 -0.67763275553E+01  0.93958496892E+01  0.51100000000E-03 0.  1.
         12    1    3    3    0    0 -0.13540241182E+02  0.10864564561E+02  0.88821929215E+01  0.19500519108E+02  0.00000000000E+00 0. -1.
</event>
<event>
 7    1  0.7579108E-012  0.5930198E+02  0.7816164E-02  0.1266605E+00
        -11   -1    0    0    0    0  0.00000000000E+00  0.00000000000E+00  0.45593999997E+02  0.45594000000E+02  0.51100000000E-03 0. -1.
         11   -1    0    0    0    0 -0.00000000000E+00 -0.00000000000E+00 -0.45593999997E+02  0.45594000000E+02  0.51100000000E-03 0.  1.
    9900012    2    1    2    0    0 -0.31393113307E+00 -0.23031503077E+02 -0.22049252024E+02  0.59301981095E+02  0.50000067602E+02 0.  0.
         12    1    1    2    0    0  0.31393113307E+00  0.23031503077E+02  0.22049252024E+02  0.31886018905E+02  0.00000000000E+00 0. -1.
         11    1    3    3    0    0 -0.16687559639E+01 -0.31545309746E+02 -0.58031101604E+01  0.32118022997E+02  0.51100000000E-03 0. -1.
        -11    1    3    3    0    0  0.43161193851E+01  0.29606680333E+01 -0.19435953662E+02  0.20128356534E+02  0.51100000000E-03 0.  1.
         12    1    3    3    0    0 -0.29612945543E+01  0.55531386350E+01  0.31898117978E+01  0.70556015648E+01  0.00000000000E+00 0. -1.
</event>
<event>
 7    1  0.7579108E-012  0.5930194E+02  0.7816164E-02  0.1266605E+00
        -11   -1    0    0    0    0  0.00000000000E+00  0.00000000000E+00  0.45593999997E+02  0.45594000000E+02  0.51100000000E-03 0.  1.
         11   -1    0    0    0    0 -0.00000000000E+00 -0.00000000000E+00 -0.45593999997E+02  0.45594000000E+02  0.51100000000E-03 0. -1.
    9900012    2    1    2    0    0  0.22676621130E+02 -0.95211392336E+01  0.20293829654E+02  0.59301940974E+02  0.49999994431E+02 0.  0.
         12    1    1    2    0    0 -0.22676621130E+02  0.95211392336E+01 -0.20293829654E+02  0.31886059026E+02  0.00000000000E+00 0. -1.
         11    1    3    3    0    0  0.18415509350E+02 -0.11822749762E+02 -0.94082192939E+01  0.23820642038E+02  0.51100000000E-03 0. -1.
        -11    1    3    3    0    0  0.69495306915E+01 -0.65194828205E+01  0.10496854873E+02  0.14176868327E+02  0.51100000000E-03 0.  1.
         12    1    3    3    0    0 -0.26884189115E+01  0.88210933486E+01  0.19205194075E+02  0.21304430608E+02  0.00000000000E+00 0. -1.
</event>
<event>
 7    1  0.7579108E-012  0.5930194E+02  0.7816164E-02  0.1266605E+00
        -11   -1    0    0    0    0  0.00000000000E+00  0.00000000000E+00  0.45593999997E+02  0.45594000000E+02  0.51100000000E-03 0.  1.
         11   -1    0    0    0    0 -0.00000000000E+00 -0.00000000000E+00 -0.45593999997E+02  0.45594000000E+02  0.51100000000E-03 0. -1.
    9900012    2    1    2    0    0  0.29807090981E+02 -0.79735213492E+01 -0.80424421695E+01  0.59301943619E+02  0.49999999255E+02 0.  0.
         12    1    1    2    0    0 -0.29807090981E+02  0.79735213492E+01  0.80424421695E+01  0.31886056381E+02  0.00000000000E+00 0. -1.
         11    1    3    3    0    0 -0.81303110441E+01 -0.95281521278E+01 -0.22304881967E+01  0.12722527992E+02  0.51100000000E-03 0. -1.
        -11    1    3    3    0    0  0.25737277838E+02 -0.76778423771E+01  0.56705021561E+01  0.27450160820E+02  0.51100000000E-03 0.  1.
         12    1    3    3    0    0  0.12200124187E+02  0.92324731557E+01 -0.11482456129E+02  0.19129254808E+02  0.00000000000E+00 0. -1.
</event>
<event>
 7    1  0.7579108E-012  0.5930189E+02  0.7816164E-02  0.1266605E+00
        -11   -1    0    0    0    0  0.00000000000E+00  0.00000000000E+00  0.45593999997E+02  0.45594000000E+02  0.51100000000E-03 0.  1.
         11   -1    0    0    0    0 -0.00000000000E+00 -0.00000000000E+00 -0.45593999997E+02  0.45594000000E+02  0.51100000000E-03 0. -1.
    9900012    2    1    2    0    0  0.12567601297E+02 -0.28188401405E+02 -0.80120617744E+01  0.59301894718E+02  0.49999910071E+02 0.  0.
         12    1    1    2    0    0 -0.12567601297E+02  0.28188401405E+02  0.80120617744E+01  0.31886105282E+02  0.00000000000E+00 0. -1.
         11    1    3    3    0    0 -0.10384094922E+02  0.62171487316E+01 -0.38049745999E+00  0.12108969580E+02  0.51100000000E-03 0. -1.
        -11    1    3    3    0    0  0.23446440353E+02 -0.27271983110E+02  0.10063209795E+01  0.35979290017E+02  0.51100000000E-03 0.  1.
        -12    1    3    3    0    0 -0.49474413354E+00 -0.71335670267E+01 -0.86378852938E+01  0.11213635121E+02  0.00000000000E+00 0.  1.
</event>
<event>
 7    1  0.7579108E-012  0.5930193E+02  0.7816164E-02  0.1266605E+00
        -11   -1    0    0    0    0  0.00000000000E+00  0.00000000000E+00  0.45593999997E+02  0.45594000000E+02  0.51100000000E-03 0.  1.
         11   -1    0    0    0    0 -0.00000000000E+00 -0.00000000000E+00 -0.45593999997E+02  0.45594000000E+02  0.51100000000E-03 0. -1.
    9900012    2    1    2    0    0 -0.94987896343E+01 -0.11017481715E+02  0.28374447631E+02  0.59301934294E+02  0.49999982248E+02 0.  0.
         12    1    1    2    0    0  0.94987896343E+01  0.11017481715E+02 -0.28374447631E+02  0.31886065706E+02  0.00000000000E+00 0. -1.
         11    1    3    3    0    0  0.30134774256E+01 -0.20163277350E+02  0.14200758482E+02  0.24845529607E+02  0.51100000000E-03 0. -1.
        -11    1    3    3    0    0 -0.60433715865E+01  0.10085195898E+02 -0.60357909378E+01  0.13216061779E+02  0.51100000000E-03 0.  1.
        -12    1    3    3    0    0 -0.64688954734E+01 -0.93940026204E+00  0.20209480087E+02  0.21240342909E+02  0.00000000000E+00 0.  1.
</event>
<event>
 7    1  0.7579108E-012  0.5930194E+02  0.7816164E-02  0.1266605E+00
        -11   -1    0    0    0    0  0.00000000000E+00  0.00000000000E+00  0.45593999997E+02  0.45594000000E+02  0.51100000000E-03 0.  1.
         11   -1    0    0    0    0 -0.00000000000E+00 -0.00000000000E+00 -0.45593999997E+02  0.45594000000E+02  0.51100000000E-03 0. -1.
    9900012    2    1    2    0    0 -0.21922343398E+02  0.26768730591E+01  0.22999261169E+02  0.59301940291E+02  0.49999993185E+02 0.  0.
         12    1    1    2    0    0  0.21922343398E+02 -0.26768730591E+01 -0.22999261169E+02  0.31886059709E+02  0.00000000000E+00 0. -1.
         11    1    3    3    0    0 -0.34963344128E+01 -0.50985792194E+01 -0.64173601780E+01  0.89108011030E+01  0.51100000000E-03 0. -1.
        -11    1    3    3    0    0  0.77960176985E+00  0.34480813656E+00  0.29782729092E+02  0.29794926145E+02  0.51100000000E-03 0.  1.
        -12    1    3    3    0    0 -0.19205610755E+02  0.74306441419E+01 -0.36610774437E+00  0.20596213043E+02  0.00000000000E+00 0.  1.
</event>
<event>
 7    1  0.7579108E-012  0.5930196E+02  0.7816164E-02  0.1266605E+00
        -11   -1    0    0    0    0  0.00000000000E+00  0.00000000000E+00  0.45593999997E+02  0.45594000000E+02  0.51100000000E-03 0.  1.
         11   -1    0    0    0    0 -0.00000000000E+00 -0.00000000000E+00 -0.45593999997E+02  0.45594000000E+02  0.51100000000E-03 0. -1.
    9900012    2    1    2    0    0  0.30363422999E+02  0.87796349063E+01 -0.42071671254E+01  0.59301957590E+02  0.50000024735E+02 0.  0.
         12    1    1    2    0    0 -0.30363422999E+02 -0.87796349063E+01  0.42071671254E+01  0.31886042410E+02  0.00000000000E+00 0. -1.
         11    1    3    3    0    0  0.49074435098E+01  0.13979728504E+02 -0.68955426075E+01  0.16342102648E+02  0.51100000000E-03 0. -1.
        -11    1    3    3    0    0  0.30407330781E+02 -0.13448366768E+02  0.24051161967E+01  0.33335400374E+02  0.51100000000E-03 0.  1.
        -12    1    3    3    0    0 -0.49513512912E+01  0.82482731705E+01  0.28325928540E+00  0.96244545678E+01  0.00000000000E+00 0.  1.
</event>
<event>
 7    1  0.7579108E-012  0.5930211E+02  0.7816164E-02  0.1266604E+00
        -11   -1    0    0    0    0  0.00000000000E+00  0.00000000000E+00  0.45593999997E+02  0.45594000000E+02  0.51100000000E-03 0.  1.
         11   -1    0    0    0    0 -0.00000000000E+00 -0.00000000000E+00 -0.45593999997E+02  0.45594000000E+02  0.51100000000E-03 0. -1.
    9900012    2    1    2    0    0 -0.22870949258E+01 -0.31769104816E+02 -0.14842787141E+01  0.59302111157E+02  0.50000304803E+02 0.  0.
         12    1    1    2    0    0  0.22870949258E+01  0.31769104816E+02  0.14842787141E+01  0.31885888843E+02  0.00000000000E+00 0. -1.
         11    1    3    3    0    0 -0.17858145140E+02 -0.65126926189E+01 -0.34862806657E+01  0.19325699629E+02  0.51100000000E-03 0. -1.
        -11    1    3    3    0    0  0.19628690284E+01 -0.25356287968E+02  0.52895243378E+01  0.25976398179E+02  0.51100000000E-03 0.  1.
        -12    1    3    3    0    0  0.13608181186E+02  0.99875771328E-01 -0.32875223862E+01  0.14000013350E+02  0.00000000000E+00 0.  1.
</event>
<event>
 7    1  0.7579108E-012  0.5930194E+02  0.7816164E-02  0.1266605E+00
        -11   -1    0    0    0    0  0.00000000000E+00  0.00000000000E+00  0.45593999997E+02  0.45594000000E+02  0.51100000000E-03 0.  1.
         11   -1    0    0    0    0 -0.00000000000E+00 -0.00000000000E+00 -0.45593999997E+02  0.45594000000E+02  0.51100000000E-03 0. -1.
    9900012    2    1    2    0    0 -0.71851336513E+01 -0.12059793083E+02  0.28629636831E+02  0.59301939411E+02  0.49999991580E+02 0.  0.
         12    1    1    2    0    0  0.71851336513E+01  0.12059793083E+02 -0.28629636831E+02  0.31886060589E+02  0.00000000000E+00 0. -1.
         11    1    3    3    0    0 -0.10853151647E+02  0.54973805302E+01  0.27111349213E+02  0.29715944370E+02  0.51100000000E-03 0. -1.
        -11    1    3    3    0    0  0.46427491751E+00 -0.16744661961E+02  0.10666626423E+02  0.19858906690E+02  0.51100000000E-03 0.  1.
         12    1    3    3    0    0  0.32037430777E+01 -0.81251165199E+00 -0.91483388056E+01  0.97270883514E+01  0.00000000000E+00 0. -1.
</event>
<event>
 7    1  0.7579108E-012  0.5930193E+02  0.7816164E-02  0.1266605E+00
        -11   -1    0    0    0    0  0.00000000000E+00  0.00000000000E+00  0.45593999997E+02  0.45594000000E+02  0.51100000000E-03 0. -1.
         11   -1    0    0    0    0 -0.00000000000E+00 -0.00000000000E+00 -0.45593999997E+02  0.45594000000E+02  0.51100000000E-03 0.  1.
    9900012    2    1    2    0    0 -0.69732053492E+01 -0.10739414930E+02 -0.29202065402E+02  0.59301933300E+02  0.49999980434E+02 0.  0.
         12    1    1    2    0    0  0.69732053492E+01  0.10739414930E+02  0.29202065402E+02  0.31886066700E+02  0.00000000000E+00 0. -1.
         11    1    3    3    0    0  0.13049160132E+02 -0.20739522602E+02 -0.52552816940E+01  0.25060454183E+02  0.51100000000E-03 0. -1.
        -11    1    3    3    0    0 -0.46846439096E+01  0.12924264741E+01 -0.11979058400E+02  0.12927261704E+02  0.51100000000E-03 0.  1.
         12    1    3    3    0    0 -0.15337721572E+02  0.87076811983E+01 -0.11967725308E+02  0.21314217412E+02  0.00000000000E+00 0. -1.
</event>
<event>
 7    1  0.7579108E-012  0.5930194E+02  0.7816164E-02  0.1266605E+00
        -11   -1    0    0    0    0  0.00000000000E+00  0.00000000000E+00  0.45593999997E+02  0.45594000000E+02  0.51100000000E-03 0.  1.
         11   -1    0    0    0    0 -0.00000000000E+00 -0.00000000000E+00 -0.45593999997E+02  0.45594000000E+02  0.51100000000E-03 0. -1.
    9900012    2    1    2    0    0  0.26208333206E+02 -0.13101847551E+02  0.12577193610E+02  0.59301938189E+02  0.49999989352E+02 0.  0.
         12    1    1    2    0    0 -0.26208333206E+02  0.13101847551E+02 -0.12577193610E+02  0.31886061811E+02  0.00000000000E+00 0. -1.
         11    1    3    3    0    0  0.56732501576E+01  0.10399473291E+02 -0.37436545533E+00  0.11852213373E+02  0.51100000000E-03 0. -1.
        -11    1    3    3    0    0  0.27417503516E+02 -0.19601513506E+02  0.17664053166E+01  0.33749948427E+02  0.51100000000E-03 0.  1.
        -12    1    3    3    0    0 -0.68824204678E+01 -0.38998073361E+01  0.11185153749E+02  0.13699776390E+02  0.00000000000E+00 0.  1.
</event>
<event>
 7    1  0.7579108E-012  0.5930194E+02  0.7816164E-02  0.1266605E+00
        -11   -1    0    0    0    0  0.00000000000E+00  0.00000000000E+00  0.45593999997E+02  0.45594000000E+02  0.51100000000E-03 0.  1.
         11   -1    0    0    0    0 -0.00000000000E+00 -0.00000000000E+00 -0.45593999997E+02  0.45594000000E+02  0.51100000000E-03 0. -1.
    9900012    2    1    2    0    0  0.21771671849E+02  0.23285176534E+02 -0.71792238835E+00  0.59301944210E+02  0.50000000332E+02 0.  0.
         12    1    1    2    0    0 -0.21771671849E+02 -0.23285176534E+02  0.71792238835E+00  0.31886055790E+02  0.00000000000E+00 0. -1.
         11    1    3    3    0    0 -0.94687447596E+01  0.22385663295E+01  0.86769588149E+01  0.13036791057E+02  0.51100000000E-03 0. -1.
        -11    1    3    3    0    0  0.19637793862E+02  0.25243658582E+02 -0.11003112513E+02  0.33822385066E+02  0.51100000000E-03 0.  1.
        -12    1    3    3    0    0  0.11602622747E+02 -0.41970483775E+01  0.16082313099E+01  0.12442768086E+02  0.00000000000E+00 0.  1.
</event>
<event>
 7    1  0.7579108E-012  0.5930195E+02  0.7816164E-02  0.1266605E+00
        -11   -1    0    0    0    0  0.00000000000E+00  0.00000000000E+00  0.45593999997E+02  0.45594000000E+02  0.51100000000E-03 0.  1.
         11   -1    0    0    0    0 -0.00000000000E+00 -0.00000000000E+00 -0.45593999997E+02  0.45594000000E+02  0.51100000000E-03 0. -1.
    9900012    2    1    2    0    0 -0.25208091706E+00 -0.19452146016E+02  0.25264022837E+02  0.59301946947E+02  0.50000005324E+02 0.  0.
         12    1    1    2    0    0  0.25208091706E+00  0.19452146016E+02 -0.25264022837E+02  0.31886053053E+02  0.00000000000E+00 0. -1.
         11    1    3    3    0    0  0.15792900793E+01  0.11404930539E+01 -0.62532068192E+01  0.65496165800E+01  0.51100000000E-03 0. -1.
        -11    1    3    3    0    0 -0.80357974031E+01 -0.21510682664E+02  0.37572819339E+02  0.44034080687E+02  0.51100000000E-03 0.  1.
        -12    1    3    3    0    0  0.62044264067E+01  0.91804359407E+00 -0.60555896834E+01  0.87182496805E+01  0.00000000000E+00 0.  1.
</event>
<event>
 7    1  0.7579108E-012  0.5930193E+02  0.7816164E-02  0.1266605E+00
        -11   -1    0    0    0    0  0.00000000000E+00  0.00000000000E+00  0.45593999997E+02  0.45594000000E+02  0.51100000000E-03 0. -1.
         11   -1    0    0    0    0 -0.00000000000E+00 -0.00000000000E+00 -0.45593999997E+02  0.45594000000E+02  0.51100000000E-03 0.  1.
    9900012    2    1    2    0    0  0.21085653787E+02 -0.58686808550E+00 -0.23911759858E+02  0.59301929855E+02  0.49999974153E+02 0.  0.
         12    1    1    2    0    0 -0.21085653787E+02  0.58686808550E+00  0.23911759858E+02  0.31886070145E+02  0.00000000000E+00 0. -1.
         11    1    3    3    0    0 -0.42332945181E+01  0.10691131867E+02 -0.56622914366E+01  0.12817278480E+02  0.51100000000E-03 0. -1.
        -11    1    3    3    0    0  0.31066589536E+02 -0.14639129812E+02 -0.97741655940E+01  0.35706741946E+02  0.51100000000E-03 0.  1.
        -12    1    3    3    0    0 -0.57476412309E+01  0.33611298596E+01 -0.84753028273E+01  0.10777909429E+02  0.00000000000E+00 0.  1.
</event>
<event>
 7    1  0.7579108E-012  0.5930195E+02  0.7816164E-02  0.1266605E+00
        -11   -1    0    0    0    0  0.00000000000E+00  0.00000000000E+00  0.45593999997E+02  0.45594000000E+02  0.51100000000E-03 0. -1.
         11   -1    0    0    0    0 -0.00000000000E+00 -0.00000000000E+00 -0.45593999997E+02  0.45594000000E+02  0.51100000000E-03 0.  1.
    9900012    2    1    2    0    0  0.14776711208E+02  0.11861900513E+02 -0.25644968949E+02  0.59301948029E+02  0.50000007298E+02 0.  0.
         12    1    1    2    0    0 -0.14776711208E+02 -0.11861900513E+02  0.25644968949E+02  0.31886051971E+02  0.00000000000E+00 0. -1.
         11    1    3    3    0    0  0.18180617141E+01 -0.11938418169E+02 -0.56607841692E+00  0.12089318501E+02  0.51100000000E-03 0. -1.
        -11    1    3    3    0    0  0.21784312920E+02  0.20882526068E+02 -0.22261813324E+02  0.37499660227E+02  0.51100000000E-03 0.  1.
        -12    1    3    3    0    0 -0.88256634266E+01  0.29177926142E+01 -0.28170772076E+01  0.97129693015E+01  0.00000000000E+00 0.  1.
</event>
<event>
 7    1  0.7579108E-012  0.5930196E+02  0.7816164E-02  0.1266605E+00
        -11   -1    0    0    0    0  0.00000000000E+00  0.00000000000E+00  0.45593999997E+02  0.45594000000E+02  0.51100000000E-03 0. -1.
         11   -1    0    0    0    0 -0.00000000000E+00 -0.00000000000E+00 -0.45593999997E+02  0.45594000000E+02  0.51100000000E-03 0.  1.
    9900012    2    1    2    0    0  0.11798812008E+02  0.28659088804E+02 -0.74942799196E+01  0.59301959678E+02  0.50000028542E+02 0.  0.
         12    1    1    2    0    0 -0.11798812008E+02 -0.28659088804E+02  0.74942799196E+01  0.31886040322E+02  0.00000000000E+00 0. -1.
         11    1    3    3    0    0  0.11756296981E+01  0.22220231354E+02  0.15581175961E+02  0.27164201280E+02  0.51100000000E-03 0. -1.
        -11    1    3    3    0    0  0.15480803928E+02  0.72753941344E+01 -0.20046337709E+02  0.26352273258E+02  0.51100000000E-03 0.  1.
         12    1    3    3    0    0 -0.48576216177E+01 -0.83653668358E+00 -0.30291181718E+01  0.57854851398E+01  0.00000000000E+00 0. -1.
</event>
<event>
 7    1  0.7579108E-012  0.5930196E+02  0.7816164E-02  0.1266605E+00
        -11   -1    0    0    0    0  0.00000000000E+00  0.00000000000E+00  0.45593999997E+02  0.45594000000E+02  0.51100000000E-03 0.  1.
         11   -1    0    0    0    0 -0.00000000000E+00 -0.00000000000E+00 -0.45593999997E+02  0.45594000000E+02  0.51100000000E-03 0. -1.
    9900012    2    1    2    0    0  0.53101379852E+01  0.27313609571E+02  0.15572056110E+02  0.59301956584E+02  0.50000022900E+02 0.  0.
         12    1    1    2    0    0 -0.53101379852E+01 -0.27313609571E+02 -0.15572056110E+02  0.31886043416E+02  0.00000000000E+00 0. -1.
         11    1    3    3    0    0 -0.51986831340E+01  0.19654303761E+01  0.12279250478E+01  0.56918382861E+01  0.51100000000E-03 0. -1.
        -11    1    3    3    0    0  0.14628942063E+02  0.32891619638E+02 -0.10117508122E+01  0.36012334390E+02  0.51100000000E-03 0.  1.
        -12    1    3    3    0    0 -0.41201209436E+01 -0.75434404429E+01  0.15355881875E+02  0.17597783908E+02  0.00000000000E+00 0.  1.
</event>
<event>
 7    1  0.7579108E-012  0.5930192E+02  0.7816164E-02  0.1266605E+00
        -11   -1    0    0    0    0  0.00000000000E+00  0.00000000000E+00  0.45593999997E+02  0.45594000000E+02  0.51100000000E-03 0.  1.
         11   -1    0    0    0    0 -0.00000000000E+00 -0.00000000000E+00 -0.45593999997E+02  0.45594000000E+02  0.51100000000E-03 0. -1.
    9900012    2    1    2    0    0 -0.19241580109E+02  0.29569668026E+01  0.25253517756E+02  0.59301918133E+02  0.49999952775E+02 0.  0.
         12    1    1    2    0    0  0.19241580109E+02 -0.29569668026E+01 -0.25253517756E+02  0.31886081867E+02  0.00000000000E+00 0. -1.
         11    1    3    3    0    0  0.12568613842E+01  0.47379570053E+01 -0.55500566557E+01  0.74048002179E+01  0.51100000000E-03 0. -1.
        -11    1    3    3    0    0 -0.28453245929E+02  0.49709934514E+01  0.29659995320E+02  0.41400643744E+02  0.51100000000E-03 0.  1.
        -12    1    3    3    0    0  0.79548044364E+01 -0.67519836542E+01  0.11435790922E+01  0.10496474171E+02  0.00000000000E+00 0.  1.
</event>
<event>
 7    1  0.7579108E-012  0.5930195E+02  0.7816164E-02  0.1266605E+00
        -11   -1    0    0    0    0  0.00000000000E+00  0.00000000000E+00  0.45593999997E+02  0.45594000000E+02  0.51100000000E-03 0.  1.
         11   -1    0    0    0    0 -0.00000000000E+00 -0.00000000000E+00 -0.45593999997E+02  0.45594000000E+02  0.51100000000E-03 0. -1.
    9900012    2    1    2    0    0  0.28010491318E+02  0.18677391622E+01  0.15120980484E+02  0.59301950946E+02  0.50000012617E+02 0.  0.
         12    1    1    2    0    0 -0.28010491318E+02 -0.18677391622E+01 -0.15120980484E+02  0.31886049054E+02  0.00000000000E+00 0. -1.
         11    1    3    3    0    0  0.11198851250E+02 -0.65393467274E+01 -0.14394065330E+02  0.19374375911E+02  0.51100000000E-03 0. -1.
        -11    1    3    3    0    0  0.73702602577E+01 -0.60696404859E+01  0.92577225911E+01  0.13299124021E+02  0.51100000000E-03 0.  1.
         12    1    3    3    0    0  0.94413798103E+01  0.14476726375E+02  0.20257323223E+02  0.26628451014E+02  0.00000000000E+00 0. -1.
</event>
<event>
 7    1  0.7579108E-012  0.5930195E+02  0.7816164E-02  0.1266605E+00
        -11   -1    0    0    0    0  0.00000000000E+00  0.00000000000E+00  0.45593999997E+02  0.45594000000E+02  0.51100000000E-03 0.  1.
         11   -1    0    0    0    0 -0.00000000000E+00 -0.00000000000E+00 -0.45593999997E+02  0.45594000000E+02  0.51100000000E-03 0. -1.
    9900012    2    1    2    0    0  0.12445555018E+02  0.25668723448E+02  0.14245885479E+02  0.59301945741E+02  0.50000003124E+02 0.  0.
         12    1    1    2    0    0 -0.12445555018E+02 -0.25668723448E+02 -0.14245885479E+02  0.31886054259E+02  0.00000000000E+00 0. -1.
         11    1    3    3    0    0  0.19805421088E+01  0.18418690609E+02  0.28694272301E+02  0.34154530797E+02  0.51100000000E-03 0. -1.
        -11    1    3    3    0    0  0.14417331210E+02  0.51395383161E+01 -0.79318008898E+01  0.17239134518E+02  0.51100000000E-03 0.  1.
         12    1    3    3    0    0 -0.39523183007E+01  0.21104945230E+01 -0.65165859322E+01  0.79082804259E+01  0.00000000000E+00 0. -1.
</event>
<event>
 7    1  0.7579108E-012  0.5930192E+02  0.7816164E-02  0.1266605E+00
        -11   -1    0    0    0    0  0.00000000000E+00  0.00000000000E+00  0.45593999997E+02  0.45594000000E+02  0.51100000000E-03 0. -1.
         11   -1    0    0    0    0 -0.00000000000E+00 -0.00000000000E+00 -0.45593999997E+02  0.45594000000E+02  0.51100000000E-03 0.  1.
    9900012    2    1    2    0    0 -0.25632234451E+02 -0.18864466707E+02  0.19602439246E+01  0.59301919913E+02  0.49999956020E+02 0.  0.
         12    1    1    2    0    0  0.25632234451E+02  0.18864466707E+02 -0.19602439246E+01  0.31886080087E+02  0.00000000000E+00 0. -1.
         11    1    3    3    0    0 -0.18582270815E+01  0.13105796530E+01  0.58608860012E+00  0.23482178395E+01  0.51100000000E-03 0. -1.
        -11    1    3    3    0    0 -0.63388980086E+01 -0.32866309813E+02 -0.63079558777E+01  0.34061213371E+02  0.51100000000E-03 0.  1.
        -12    1    3    3    0    0 -0.17435109361E+02  0.12691263453E+02  0.76821112022E+01  0.22892488702E+02  0.00000000000E+00 0.  1.
</event>
<event>
 7    1  0.7579108E-012  0.5930191E+02  0.7816164E-02  0.1266605E+00
        -11   -1    0    0    0    0  0.00000000000E+00  0.00000000000E+00  0.45593999997E+02  0.45594000000E+02  0.51100000000E-03 0.  1.
         11   -1    0    0    0    0 -0.00000000000E+00 -0.00000000000E+00 -0.45593999997E+02  0.45594000000E+02  0.51100000000E-03 0. -1.
    9900012    2    1    2    0    0  0.18433674168E+02 -0.82951685197E+01  0.24659941230E+02  0.59301907960E+02  0.49999934222E+02 0.  0.
         12    1    1    2    0    0 -0.18433674168E+02  0.82951685197E+01 -0.24659941230E+02  0.31886092040E+02  0.00000000000E+00 0. -1.
         11    1    3    3    0    0 -0.50174593871E+01 -0.88601079131E+00 -0.15577200715E+01  0.53278894420E+01  0.51100000000E-03 0. -1.
        -11    1    3    3    0    0  0.30734935375E+02  0.55078418340E+01  0.23048945676E+02  0.38810133615E+02  0.51100000000E-03 0.  1.
        -12    1    3    3    0    0 -0.72838018196E+01 -0.12916999562E+02  0.31687156248E+01  0.15163884903E+02  0.00000000000E+00 0.  1.
</event>
<event>
 7    1  0.7579108E-012  0.5930196E+02  0.7816164E-02  0.1266605E+00
        -11   -1    0    0    0    0  0.00000000000E+00  0.00000000000E+00  0.45593999997E+02  0.45594000000E+02  0.51100000000E-03 0.  1.
         11   -1    0    0    0    0 -0.00000000000E+00 -0.00000000000E+00 -0.45593999997E+02  0.45594000000E+02  0.51100000000E-03 0. -1.
    9900012    2    1    2    0    0  0.87451151651E+01 -0.16852927364E+02  0.25616821327E+02  0.59301957052E+02  0.50000023753E+02 0.  0.
         12    1    1    2    0    0 -0.87451151651E+01  0.16852927364E+02 -0.25616821327E+02  0.31886042948E+02  0.00000000000E+00 0. -1.
         11    1    3    3    0    0  0.70786610392E+01 -0.18160287041E+02  0.61265401322E+01  0.20431298583E+02  0.51100000000E-03 0. -1.
        -11    1    3    3    0    0 -0.14308756779E+02  0.76932276816E+01  0.11482435699E+02  0.19894034346E+02  0.51100000000E-03 0.  1.
        -12    1    3    3    0    0  0.15975210905E+02 -0.63858680042E+01  0.80078454956E+01  0.18976624123E+02  0.00000000000E+00 0.  1.
</event>
<event>
 7    1  0.7579108E-012  0.5930192E+02  0.7816164E-02  0.1266605E+00
        -11   -1    0    0    0    0  0.00000000000E+00  0.00000000000E+00  0.45593999997E+02  0.45594000000E+02  0.51100000000E-03 0.  1.
         11   -1    0    0    0    0 -0.00000000000E+00 -0.00000000000E+00 -0.45593999997E+02  0.45594000000E+02  0.51100000000E-03 0. -1.
    9900012    2    1    2    0    0  0.95235661355E+01  0.30314394070E+02  0.26572750230E+01  0.59301922939E+02  0.49999961540E+02 0.  0.
         12    1    1    2    0    0 -0.95235661355E+01 -0.30314394070E+02 -0.26572750230E+01  0.31886077061E+02  0.00000000000E+00 0. -1.
         11    1    3    3    0    0  0.19521131219E+02  0.16341742494E+02 -0.13253492279E+02  0.28701605698E+02  0.51100000000E-03 0. -1.
        -11    1    3    3    0    0 -0.67508447452E+01 -0.40014016850E+01  0.54144186242E+01  0.95342041890E+01  0.51100000000E-03 0.  1.
         12    1    3    3    0    0 -0.32467203380E+01  0.17974053261E+02  0.10496348677E+02  0.21066113053E+02  0.00000000000E+00 0. -1.
</event>
<event>
 7    1  0.7579108E-012  0.5930193E+02  0.7816164E-02  0.1266605E+00
        -11   -1    0    0    0    0  0.00000000000E+00  0.00000000000E+00  0.45593999997E+02  0.45594000000E+02  0.51100000000E-03 0. -1.
         11   -1    0    0    0    0 -0.00000000000E+00 -0.00000000000E+00 -0.45593999997E+02  0.45594000000E+02  0.51100000000E-03 0.  1.
    9900012    2    1    2    0    0 -0.11600581379E+02 -0.26912169323E+02  0.12565143302E+02  0.59301934514E+02  0.49999982649E+02 0.  0.
         12    1    1    2    0    0  0.11600581379E+02  0.26912169323E+02 -0.12565143302E+02  0.31886065486E+02  0.00000000000E+00 0. -1.
         11    1    3    3    0    0 -0.23010554044E+02 -0.10894059541E+01  0.15484293403E+02  0.27756724324E+02  0.51100000000E-03 0. -1.
        -11    1    3    3    0    0  0.10801655869E+01 -0.18767527253E+02 -0.29953635265E+01  0.19035730609E+02  0.51100000000E-03 0.  1.
         12    1    3    3    0    0  0.10329807078E+02 -0.70552361153E+01  0.76213426433E-01  0.12509479581E+02  0.00000000000E+00 0. -1.
</event>
<event>
 7    1  0.7579108E-012  0.5930194E+02  0.7816164E-02  0.1266605E+00
        -11   -1    0    0    0    0  0.00000000000E+00  0.00000000000E+00  0.45593999997E+02  0.45594000000E+02  0.51100000000E-03 0.  1.
         11   -1    0    0    0    0 -0.00000000000E+00 -0.00000000000E+00 -0.45593999997E+02  0.45594000000E+02  0.51100000000E-03 0. -1.
    9900012    2    1    2    0    0  0.10820598940E+02  0.55080771837E+01  0.29483833792E+02  0.59301941436E+02  0.49999995273E+02 0.  0.
         12    1    1    2    0    0 -0.10820598940E+02 -0.55080771837E+01 -0.29483833792E+02  0.31886058564E+02  0.00000000000E+00 0. -1.
         11    1    3    3    0    0  0.22934177399E+02  0.14207766050E+02  0.11605062447E+02  0.29368598600E+02  0.51100000000E-03 0. -1.
        -11    1    3    3    0    0  0.42261197210E+01 -0.61301241624E+01  0.61374353849E+01  0.96491773487E+01  0.51100000000E-03 0.  1.
         12    1    3    3    0    0 -0.16339698180E+02 -0.25695647042E+01  0.11741335960E+02  0.20284165487E+02  0.00000000000E+00 0. -1.
</event>
<event>
 7    1  0.7579108E-012  0.5930197E+02  0.7816164E-02  0.1266605E+00
        -11   -1    0    0    0    0  0.00000000000E+00  0.00000000000E+00  0.45593999997E+02  0.45594000000E+02  0.51100000000E-03 0.  1.
         11   -1    0    0    0    0 -0.00000000000E+00 -0.00000000000E+00 -0.45593999997E+02  0.45594000000E+02  0.51100000000E-03 0. -1.
    9900012    2    1    2    0    0  0.20426263650E+02 -0.20867533858E+02  0.12807530897E+02  0.59301967577E+02  0.50000042949E+02 0.  0.
         12    1    1    2    0    0 -0.20426263650E+02  0.20867533858E+02 -0.12807530897E+02  0.31886032423E+02  0.00000000000E+00 0. -1.
         11    1    3    3    0    0 -0.79145355063E+01 -0.27216243712E+02  0.53218823371E+01  0.28838970612E+02  0.51100000000E-03 0. -1.
        -11    1    3    3    0    0  0.21073584696E+02  0.22824253745E+01  0.56168069761E+01  0.21928382484E+02  0.51100000000E-03 0.  1.
         12    1    3    3    0    0  0.72672144601E+01  0.40662844795E+01  0.18688415836E+01  0.85346144811E+01  0.00000000000E+00 0. -1.
</event>
<event>
 7    1  0.7579108E-012  0.5930193E+02  0.7816164E-02  0.1266605E+00
        -11   -1    0    0    0    0  0.00000000000E+00  0.00000000000E+00  0.45593999997E+02  0.45594000000E+02  0.51100000000E-03 0.  1.
         11   -1    0    0    0    0 -0.00000000000E+00 -0.00000000000E+00 -0.45593999997E+02  0.45594000000E+02  0.51100000000E-03 0. -1.
    9900012    2    1    2    0    0  0.43074438812E+01 -0.14833906497E+02  0.27894853527E+02  0.59301926111E+02  0.49999967325E+02 0.  0.
         12    1    1    2    0    0 -0.43074438812E+01  0.14833906497E+02 -0.27894853527E+02  0.31886073889E+02  0.00000000000E+00 0. -1.
         11    1    3    3    0    0 -0.38694890235E+01  0.10289773315E+02  0.36068971846E+01  0.11569878467E+02  0.51100000000E-03 0. -1.
        -11    1    3    3    0    0  0.69699392241E+00 -0.28551681557E+02  0.26762767914E+02  0.39139878218E+02  0.51100000000E-03 0.  1.
        -12    1    3    3    0    0  0.74799389823E+01  0.34280017442E+01 -0.24748115718E+01  0.85921694264E+01  0.00000000000E+00 0.  1.
</event>
<event>
 7    1  0.7579108E-012  0.5930193E+02  0.7816164E-02  0.1266605E+00
        -11   -1    0    0    0    0  0.00000000000E+00  0.00000000000E+00  0.45593999997E+02  0.45594000000E+02  0.51100000000E-03 0.  1.
         11   -1    0    0    0    0 -0.00000000000E+00 -0.00000000000E+00 -0.45593999997E+02  0.45594000000E+02  0.51100000000E-03 0. -1.
    9900012    2    1    2    0    0 -0.70554895727E+01 -0.30358970703E+02 -0.67286151542E+01  0.59301932555E+02  0.49999979076E+02 0.  0.
         12    1    1    2    0    0  0.70554895727E+01  0.30358970703E+02  0.67286151542E+01  0.31886067445E+02  0.00000000000E+00 0. -1.
         11    1    3    3    0    0 -0.13729873918E+02 -0.30743470303E+02  0.45665009872E+01  0.33978277408E+02  0.51100000000E-03 0. -1.
        -11    1    3    3    0    0  0.11210183082E+02 -0.58587043661E+01 -0.13280308264E+01  0.12718344535E+02  0.51100000000E-03 0.  1.
         12    1    3    3    0    0 -0.45357987366E+01  0.62432039666E+01 -0.99670853150E+01  0.12605310612E+02  0.00000000000E+00 0. -1.
</event>
<event>
 7    1  0.7579108E-012  0.5930194E+02  0.7816164E-02  0.1266605E+00
        -11   -1    0    0    0    0  0.00000000000E+00  0.00000000000E+00  0.45593999997E+02  0.45594000000E+02  0.51100000000E-03 0.  1.
         11   -1    0    0    0    0 -0.00000000000E+00 -0.00000000000E+00 -0.45593999997E+02  0.45594000000E+02  0.51100000000E-03 0. -1.
    9900012    2    1    2    0    0 -0.28537747656E+02  0.12786110615E+02  0.62316076303E+01  0.59301943493E+02  0.49999999024E+02 0.  0.
         12    1    1    2    0    0  0.28537747656E+02 -0.12786110615E+02 -0.62316076303E+01  0.31886056507E+02  0.00000000000E+00 0. -1.
         11    1    3    3    0    0 -0.43568992451E+01 -0.29671890210E+01 -0.96541997688E+01  0.10999561589E+02  0.51100000000E-03 0. -1.
        -11    1    3    3    0    0  0.66684611186E+01  0.36173574960E+01  0.12967447159E+02  0.15023592614E+02  0.51100000000E-03 0.  1.
        -12    1    3    3    0    0 -0.30849309529E+02  0.12135942140E+02  0.29183602399E+01  0.33278789289E+02  0.00000000000E+00 0.  1.
</event>
<event>
 7    1  0.7579108E-012  0.5930197E+02  0.7816164E-02  0.1266605E+00
        -11   -1    0    0    0    0  0.00000000000E+00  0.00000000000E+00  0.45593999997E+02  0.45594000000E+02  0.51100000000E-03 0.  1.
         11   -1    0    0    0    0 -0.00000000000E+00 -0.00000000000E+00 -0.45593999997E+02  0.45594000000E+02  0.51100000000E-03 0. -1.
    9900012    2    1    2    0    0  0.42678143134E+01  0.69974670874E+01  0.30814612627E+02  0.59301966443E+02  0.50000040880E+02 0.  0.
         12    1    1    2    0    0 -0.42678143134E+01 -0.69974670874E+01 -0.30814612627E+02  0.31886033557E+02  0.00000000000E+00 0. -1.
         11    1    3    3    0    0 -0.83937631284E+01 -0.11700573815E+02  0.13365312416E+01  0.14461846462E+02  0.51100000000E-03 0. -1.
        -11    1    3    3    0    0  0.11687062520E+02  0.29871747060E+01  0.26082670669E+02  0.28737020593E+02  0.51100000000E-03 0.  1.
         12    1    3    3    0    0  0.97451492148E+00  0.15710866197E+02  0.33954107162E+01  0.16103099388E+02  0.00000000000E+00 0. -1.
</event>
<event>
 7    1  0.7579108E-012  0.5930198E+02  0.7816164E-02  0.1266605E+00
        -11   -1    0    0    0    0  0.00000000000E+00  0.00000000000E+00  0.45593999997E+02  0.45594000000E+02  0.51100000000E-03 0. -1.
         11   -1    0    0    0    0 -0.00000000000E+00 -0.00000000000E+00 -0.45593999997E+02  0.45594000000E+02  0.51100000000E-03 0.  1.
    9900012    2    1    2    0    0 -0.11231241800E+01 -0.23654551873E+02  0.21352257067E+02  0.59301982468E+02  0.50000070105E+02 0.  0.
         12    1    1    2    0    0  0.11231241800E+01  0.23654551873E+02 -0.21352257067E+02  0.31886017532E+02  0.00000000000E+00 0. -1.
         11    1    3    3    0    0  0.21919976635E+02 -0.11886601727E+02  0.19361695568E+02  0.31569794611E+02  0.51100000000E-03 0. -1.
        -11    1    3    3    0    0 -0.19357488360E+02 -0.77233107109E+01 -0.20328112731E+01  0.20940253243E+02  0.51100000000E-03 0.  1.
         12    1    3    3    0    0 -0.36856124546E+01 -0.40446394352E+01  0.40233727721E+01  0.67919346132E+01  0.00000000000E+00 0. -1.
</event>
<event>
 7    1  0.7579108E-012  0.5930195E+02  0.7816164E-02  0.1266605E+00
        -11   -1    0    0    0    0  0.00000000000E+00  0.00000000000E+00  0.45593999997E+02  0.45594000000E+02  0.51100000000E-03 0. -1.
         11   -1    0    0    0    0 -0.00000000000E+00 -0.00000000000E+00 -0.45593999997E+02  0.45594000000E+02  0.51100000000E-03 0.  1.
    9900012    2    1    2    0    0  0.11160765118E+02 -0.73962780590E+01 -0.28938773823E+02  0.59301949170E+02  0.50000009378E+02 0.  0.
         12    1    1    2    0    0 -0.11160765118E+02  0.73962780590E+01  0.28938773823E+02  0.31886050830E+02  0.00000000000E+00 0. -1.
         11    1    3    3    0    0 -0.82090275546E+01  0.11067325975E+02 -0.18862476622E+02  0.23359513312E+02  0.51100000000E-03 0. -1.
        -11    1    3    3    0    0  0.58403350791E+00 -0.15381116862E+02 -0.33535908326E+01  0.15753298791E+02  0.51100000000E-03 0.  1.
         12    1    3    3    0    0  0.18785759165E+02 -0.30824871719E+01 -0.67227063690E+01  0.20189137067E+02  0.00000000000E+00 0. -1.
</event>
<event>
 7    1  0.7579108E-012  0.5930193E+02  0.7816164E-02  0.1266605E+00
        -11   -1    0    0    0    0  0.00000000000E+00  0.00000000000E+00  0.45593999997E+02  0.45594000000E+02  0.51100000000E-03 0.  1.
         11   -1    0    0    0    0 -0.00000000000E+00 -0.00000000000E+00 -0.45593999997E+02  0.45594000000E+02  0.51100000000E-03 0. -1.
    9900012    2    1    2    0    0 -0.79803094575E+01  0.25416609540E+02 -0.17522324259E+02  0.59301933654E+02  0.49999981081E+02 0.  0.
         12    1    1    2    0    0  0.79803094575E+01 -0.25416609540E+02  0.17522324259E+02  0.31886066346E+02  0.00000000000E+00 0. -1.
         11    1    3    3    0    0  0.68961118167E+01  0.13208433622E+02  0.12436361018E+02  0.19408301125E+02  0.51100000000E-03 0. -1.
        -11    1    3    3    0    0 -0.12068756439E+02  0.14061938278E+02 -0.13078123100E+02  0.22681055844E+02  0.51100000000E-03 0.  1.
         12    1    3    3    0    0 -0.28076648354E+01 -0.18537623595E+01 -0.16880562177E+02  0.17212576685E+02  0.00000000000E+00 0. -1.
</event>
<event>
 7    1  0.7579108E-012  0.5930194E+02  0.7816164E-02  0.1266605E+00
        -11   -1    0    0    0    0  0.00000000000E+00  0.00000000000E+00  0.45593999997E+02  0.45594000000E+02  0.51100000000E-03 0.  1.
         11   -1    0    0    0    0 -0.00000000000E+00 -0.00000000000E+00 -0.45593999997E+02  0.45594000000E+02  0.51100000000E-03 0. -1.
    9900012    2    1    2    0    0 -0.12833724073E+02  0.11599772136E+02  0.26785468477E+02  0.59301944918E+02  0.50000001623E+02 0.  0.
         12    1    1    2    0    0  0.12833724073E+02 -0.11599772136E+02 -0.26785468477E+02  0.31886055082E+02  0.00000000000E+00 0. -1.
         11    1    3    3    0    0  0.13214155127E+02  0.66292273846E+01 -0.29977283641E+01  0.15084658665E+02  0.51100000000E-03 0. -1.
        -11    1    3    3    0    0 -0.15968969695E+02  0.11212049403E+02  0.24276166644E+02  0.31145630707E+02  0.51100000000E-03 0.  1.
        -12    1    3    3    0    0 -0.10078909505E+02 -0.62415046514E+01  0.55070301964E+01  0.13071655546E+02  0.00000000000E+00 0.  1.
</event>
<event>
 7    1  0.7579108E-012  0.5930191E+02  0.7816164E-02  0.1266605E+00
        -11   -1    0    0    0    0  0.00000000000E+00  0.00000000000E+00  0.45593999997E+02  0.45594000000E+02  0.51100000000E-03 0.  1.
         11   -1    0    0    0    0 -0.00000000000E+00 -0.00000000000E+00 -0.45593999997E+02  0.45594000000E+02  0.51100000000E-03 0. -1.
    9900012    2    1    2    0    0  0.10104806162E+02 -0.19867896658E+02  0.22800922953E+02  0.59301913493E+02  0.49999944313E+02 0.  0.
         12    1    1    2    0    0 -0.10104806162E+02  0.19867896658E+02 -0.22800922953E+02  0.31886086507E+02  0.00000000000E+00 0. -1.
         11    1    3    3    0    0  0.19843041790E+02  0.16729428915E+01  0.63374714896E+01  0.20897573795E+02  0.51100000000E-03 0. -1.
        -11    1    3    3    0    0 -0.58226438422E+01 -0.24509901155E+02  0.20151592767E+02  0.32260271655E+02  0.51100000000E-03 0.  1.
         12    1    3    3    0    0 -0.39155917851E+01  0.29690616052E+01 -0.36881413037E+01  0.61440680432E+01  0.00000000000E+00 0. -1.
</event>
<event>
 7    1  0.7579108E-012  0.5930194E+02  0.7816164E-02  0.1266605E+00
        -11   -1    0    0    0    0  0.00000000000E+00  0.00000000000E+00  0.45593999997E+02  0.45594000000E+02  0.51100000000E-03 0.  1.
         11   -1    0    0    0    0 -0.00000000000E+00 -0.00000000000E+00 -0.45593999997E+02  0.45594000000E+02  0.51100000000E-03 0. -1.
    9900012    2    1    2    0    0 -0.30061974219E+02 -0.29957727523E+01  0.10199195779E+02  0.59301944382E+02  0.50000000647E+02 0.  0.
         12    1    1    2    0    0  0.30061974219E+02  0.29957727523E+01 -0.10199195779E+02  0.31886055618E+02  0.00000000000E+00 0. -1.
         11    1    3    3    0    0  0.49271549788E+01 -0.49841183900E+01  0.13401213181E+02  0.15123187735E+02  0.51100000000E-03 0. -1.
        -11    1    3    3    0    0 -0.11264386014E+02 -0.30636132156E+01 -0.13482078811E+02  0.17833635847E+02  0.51100000000E-03 0.  1.
         12    1    3    3    0    0 -0.23724743184E+02  0.50519588533E+01  0.10280061409E+02  0.26345120800E+02  0.00000000000E+00 0. -1.
</event>
<event>
 7    1  0.7579108E-012  0.5930194E+02  0.7816164E-02  0.1266605E+00
        -11   -1    0    0    0    0  0.00000000000E+00  0.00000000000E+00  0.45593999997E+02  0.45594000000E+02  0.51100000000E-03 0. -1.
         11   -1    0    0    0    0 -0.00000000000E+00 -0.00000000000E+00 -0.45593999997E+02  0.45594000000E+02  0.51100000000E-03 0.  1.
    9900012    2    1    2    0    0  0.28331294142E+02 -0.14328822866E+02 -0.29569280573E+01  0.59301940099E+02  0.49999992834E+02 0.  0.
         12    1    1    2    0    0 -0.28331294142E+02  0.14328822866E+02  0.29569280573E+01  0.31886059901E+02  0.00000000000E+00 0. -1.
         11    1    3    3    0    0  0.17082147373E+02 -0.30610487632E+02 -0.45299323946E+01  0.35345749386E+02  0.51100000000E-03 0. -1.
        -11    1    3    3    0    0  0.10463020636E+02  0.11810887749E+02 -0.44684945093E+01  0.16399369308E+02  0.51100000000E-03 0.  1.
         12    1    3    3    0    0  0.78612613333E+00  0.44707770164E+01  0.60414988465E+01  0.75568214046E+01  0.00000000000E+00 0. -1.
</event>
<event>
 7    1  0.7579108E-012  0.5930193E+02  0.7816164E-02  0.1266605E+00
        -11   -1    0    0    0    0  0.00000000000E+00  0.00000000000E+00  0.45593999997E+02  0.45594000000E+02  0.51100000000E-03 0.  1.
         11   -1    0    0    0    0 -0.00000000000E+00 -0.00000000000E+00 -0.45593999997E+02  0.45594000000E+02  0.51100000000E-03 0. -1.
    9900012    2    1    2    0    0 -0.31616788235E+02 -0.17392798127E+01  0.37516345761E+01  0.59301934791E+02  0.49999983154E+02 0.  0.
         12    1    1    2    0    0  0.31616788235E+02  0.17392798127E+01 -0.37516345761E+01  0.31886065209E+02  0.00000000000E+00 0. -1.
         11    1    3    3    0    0 -0.14919544113E+02 -0.15322600680E+02 -0.17560211397E+02  0.27671933665E+02  0.51100000000E-03 0. -1.
        -11    1    3    3    0    0 -0.33460116360E+01 -0.36241417885E+00  0.64156877503E+01  0.72448731856E+01  0.51100000000E-03 0.  1.
         12    1    3    3    0    0 -0.13351232485E+02  0.13945735046E+02  0.14896158223E+02  0.24385127940E+02  0.00000000000E+00 0. -1.
</event>
<event>
 7    1  0.7579108E-012  0.5930194E+02  0.7816164E-02  0.1266605E+00
        -11   -1    0    0    0    0  0.00000000000E+00  0.00000000000E+00  0.45593999997E+02  0.45594000000E+02  0.51100000000E-03 0. -1.
         11   -1    0    0    0    0 -0.00000000000E+00 -0.00000000000E+00 -0.45593999997E+02  0.45594000000E+02  0.51100000000E-03 0.  1.
    9900012    2    1    2    0    0 -0.23519844913E+02 -0.49204241264E+01 -0.20960136751E+02  0.59301937042E+02  0.49999987260E+02 0.  0.
         12    1    1    2    0    0  0.23519844913E+02  0.49204241264E+01  0.20960136751E+02  0.31886062958E+02  0.00000000000E+00 0. -1.
         11    1    3    3    0    0 -0.22701552328E+02 -0.67835013091E+01 -0.39752335743E+00  0.23696716928E+02  0.51100000000E-03 0. -1.
        -11    1    3    3    0    0  0.87624638675E+01  0.12036327550E+02 -0.12710827554E+02  0.19575982512E+02  0.51100000000E-03 0.  1.
        -12    1    3    3    0    0 -0.95807564525E+01 -0.10173250367E+02 -0.78517858396E+01  0.16029237602E+02  0.00000000000E+00 0.  1.
</event>
<event>
 7    1  0.7579108E-012  0.5930189E+02  0.7816164E-02  0.1266605E+00
        -11   -1    0    0    0    0  0.00000000000E+00  0.00000000000E+00  0.45593999997E+02  0.45594000000E+02  0.51100000000E-03 0. -1.
         11   -1    0    0    0    0 -0.00000000000E+00 -0.00000000000E+00 -0.45593999997E+02  0.45594000000E+02  0.51100000000E-03 0.  1.
    9900012    2    1    2    0    0  0.15026714797E+02 -0.27439346031E+02 -0.61647674930E+01  0.59301886620E+02  0.49999895303E+02 0.  0.
         12    1    1    2    0    0 -0.15026714797E+02  0.27439346031E+02  0.61647674930E+01  0.31886113380E+02  0.00000000000E+00 0. -1.
         11    1    3    3    0    0 -0.75276384570E+00 -0.41109206033E+00 -0.88240159821E+01  0.88656025403E+01  0.51100000000E-03 0.  1.
        -11    1    3    3    0    0  0.28410074356E+02 -0.15093802800E+02 -0.26139016113E+01  0.32276736046E+02  0.51100000000E-03 0. -1.
        -12    1    3    3    0    0 -0.12630595713E+02 -0.11934451171E+02  0.52731501004E+01  0.18159548034E+02  0.00000000000E+00 0.  1.
</event>
<event>
 7    1  0.7579108E-012  0.5930197E+02  0.7816164E-02  0.1266605E+00
        -11   -1    0    0    0    0  0.00000000000E+00  0.00000000000E+00  0.45593999997E+02  0.45594000000E+02  0.51100000000E-03 0.  1.
         11   -1    0    0    0    0 -0.00000000000E+00 -0.00000000000E+00 -0.45593999997E+02  0.45594000000E+02  0.51100000000E-03 0. -1.
    9900012    2    1    2    0    0 -0.20111803282E+02 -0.22241779719E+02  0.10841469010E+02  0.59301970980E+02  0.50000049155E+02 0.  0.
         12    1    1    2    0    0  0.20111803282E+02  0.22241779719E+02 -0.10841469010E+02  0.31886029020E+02  0.00000000000E+00 0. -1.
         11    1    3    3    0    0 -0.47408886170E+01  0.95134068308E+01 -0.11710037131E+02  0.15814736934E+02  0.51100000000E-03 0. -1.
        -11    1    3    3    0    0 -0.10687409142E+02 -0.28329393811E+02  0.22433426118E+02  0.37683336841E+02  0.51100000000E-03 0.  1.
        -12    1    3    3    0    0 -0.46835055232E+01 -0.34257927396E+01  0.11808002376E+00  0.58038972055E+01  0.00000000000E+00 0.  1.
</event>
<event>
 7    1  0.7736830E-012  0.5930195E+02  0.7816164E-02  0.1266605E+00
        -11   -1    0    0    0    0  0.00000000000E+00  0.00000000000E+00  0.45593999997E+02  0.45594000000E+02  0.51100000000E-03 0. -1.
         11   -1    0    0    0    0 -0.00000000000E+00 -0.00000000000E+00 -0.45593999997E+02  0.45594000000E+02  0.51100000000E-03 0.  1.
    9900012    2    1    2    0    0 -0.37098268470E+01  0.23426677232E+02 -0.21310752125E+02  0.59301950111E+02  0.50000011095E+02 0.  0.
         12    1    1    2    0    0  0.37098268470E+01 -0.23426677232E+02  0.21310752125E+02  0.31886049889E+02  0.00000000000E+00 0. -1.
         11    1    3    3    0    0  0.71173938821E+01 -0.74415088360E+01  0.54454759868E+00  0.10311638171E+02  0.51100000000E-03 0. -1.
        -11    1    3    3    0    0 -0.82705410332E+00  0.26768640035E+02 -0.26083905326E+02  0.37384679016E+02  0.51100000000E-03 0.  1.
        -12    1    3    3    0    0 -0.10000166626E+02  0.40995460330E+01  0.42286056022E+01  0.11605632924E+02  0.00000000000E+00 0.  1.
</event>
<event>
 7    1  0.7579108E-012  0.5930193E+02  0.7816164E-02  0.1266605E+00
        -11   -1    0    0    0    0  0.00000000000E+00  0.00000000000E+00  0.45593999997E+02  0.45594000000E+02  0.51100000000E-03 0. -1.
         11   -1    0    0    0    0 -0.00000000000E+00 -0.00000000000E+00 -0.45593999997E+02  0.45594000000E+02  0.51100000000E-03 0.  1.
    9900012    2    1    2    0    0  0.24002884979E+02  0.11290108141E+02 -0.17695099542E+02  0.59301928166E+02  0.49999971073E+02 0.  0.
         12    1    1    2    0    0 -0.24002884979E+02 -0.11290108141E+02  0.17695099542E+02  0.31886071834E+02  0.00000000000E+00 0. -1.
         11    1    3    3    0    0  0.13480396095E+02  0.76379611968E+01 -0.20253934431E+01  0.15625675952E+02  0.51100000000E-03 0.  1.
        -11    1    3    3    0    0 -0.17500924155E+01  0.72079248501E+01  0.11481373535E+02  0.13668904221E+02  0.51100000000E-03 0. -1.
        -12    1    3    3    0    0  0.12272581300E+02 -0.35557779058E+01 -0.27151079634E+02  0.30007347993E+02  0.00000000000E+00 0.  1.
</event>
<event>
 7    1  0.7579108E-012  0.5930197E+02  0.7816164E-02  0.1266605E+00
        -11   -1    0    0    0    0  0.00000000000E+00  0.00000000000E+00  0.45593999997E+02  0.45594000000E+02  0.51100000000E-03 0.  1.
         11   -1    0    0    0    0 -0.00000000000E+00 -0.00000000000E+00 -0.45593999997E+02  0.45594000000E+02  0.51100000000E-03 0. -1.
    9900012    2    1    2    0    0 -0.16424879637E+02 -0.79961436702E+01  0.26134341449E+02  0.59301971905E+02  0.50000050842E+02 0.  0.
         12    1    1    2    0    0  0.16424879637E+02  0.79961436702E+01 -0.26134341449E+02  0.31886028095E+02  0.00000000000E+00 0. -1.
         11    1    3    3    0    0 -0.30956401525E+02  0.69189328912E+00  0.59887762102E+01  0.31537960499E+02  0.51100000000E-03 0. -1.
        -11    1    3    3    0    0  0.25805694878E+01  0.13886697253E+01  0.60189893568E+01  0.66944735137E+01  0.51100000000E-03 0.  1.
         12    1    3    3    0    0  0.11950952400E+02 -0.10076706685E+02  0.14126575882E+02  0.21069537893E+02  0.00000000000E+00 0. -1.
</event>
<event>
 7    1  0.7579108E-012  0.5930194E+02  0.7816164E-02  0.1266605E+00
        -11   -1    0    0    0    0  0.00000000000E+00  0.00000000000E+00  0.45593999997E+02  0.45594000000E+02  0.51100000000E-03 0.  1.
         11   -1    0    0    0    0 -0.00000000000E+00 -0.00000000000E+00 -0.45593999997E+02  0.45594000000E+02  0.51100000000E-03 0. -1.
    9900012    2    1    2    0    0 -0.81120662392E+01  0.27381879159E+02  0.14182656559E+02  0.59301942357E+02  0.49999996952E+02 0.  0.
         12    1    1    2    0    0  0.81120662392E+01 -0.27381879159E+02 -0.14182656559E+02  0.31886057643E+02  0.00000000000E+00 0. -1.
         11    1    3    3    0    0 -0.10603156787E+02 -0.23641233461E+01  0.19804933266E+02  0.22588744874E+02  0.51100000000E-03 0. -1.
        -11    1    3    3    0    0 -0.91381752079E+01  0.13388763703E+02 -0.25803785102E+01  0.16414127852E+02  0.51100000000E-03 0.  1.
         12    1    3    3    0    0  0.11629265755E+02  0.16357238802E+02 -0.30418981965E+01  0.20299069631E+02  0.00000000000E+00 0. -1.
</event>
<event>
 7    1  0.7579108E-012  0.5930201E+02  0.7816164E-02  0.1266605E+00
        -11   -1    0    0    0    0  0.00000000000E+00  0.00000000000E+00  0.45593999997E+02  0.45594000000E+02  0.51100000000E-03 0.  1.
         11   -1    0    0    0    0 -0.00000000000E+00 -0.00000000000E+00 -0.45593999997E+02  0.45594000000E+02  0.51100000000E-03 0. -1.
    9900012    2    1    2    0    0  0.26184111381E+02 -0.14608134189E+02 -0.10849476950E+02  0.59302008979E+02  0.50000118456E+02 0.  0.
         12    1    1    2    0    0 -0.26184111381E+02  0.14608134189E+02  0.10849476950E+02  0.31885991021E+02  0.00000000000E+00 0. -1.
         11    1    3    3    0    0  0.30883554854E+02 -0.24801038080E+02 -0.11063781145E+02  0.41125329223E+02  0.51100000000E-03 0. -1.
        -11    1    3    3    0    0  0.39480531889E+01  0.39813142595E+01  0.39879251655E+01  0.68805184835E+01  0.51100000000E-03 0.  1.
         12    1    3    3    0    0 -0.86474966620E+01  0.62115896313E+01 -0.37736209704E+01  0.11296161273E+02  0.00000000000E+00 0. -1.
</event>
<event>
 7    1  0.7579108E-012  0.5930196E+02  0.7816164E-02  0.1266605E+00
        -11   -1    0    0    0    0  0.00000000000E+00  0.00000000000E+00  0.45593999997E+02  0.45594000000E+02  0.51100000000E-03 0. -1.
         11   -1    0    0    0    0 -0.00000000000E+00 -0.00000000000E+00 -0.45593999997E+02  0.45594000000E+02  0.51100000000E-03 0.  1.
    9900012    2    1    2    0    0  0.12514123527E+01  0.38539348650E+01 -0.31627528156E+02  0.59301962553E+02  0.50000033786E+02 0.  0.
         12    1    1    2    0    0 -0.12514123527E+01 -0.38539348650E+01  0.31627528156E+02  0.31886037447E+02  0.00000000000E+00 0. -1.
         11    1    3    3    0    0 -0.76402669714E+01 -0.19622267244E+02 -0.15444274710E+02  0.26113840636E+02  0.51100000000E-03 0. -1.
        -11    1    3    3    0    0  0.77319482003E+00  0.20159692112E+02 -0.10570429344E+02  0.22775974031E+02  0.51100000000E-03 0.  1.
         12    1    3    3    0    0  0.81184845041E+01  0.33165099976E+01 -0.56128241016E+01  0.10412147886E+02  0.00000000000E+00 0. -1.
</event>
<event>
 7    1  0.7579108E-012  0.5930195E+02  0.7816164E-02  0.1266605E+00
        -11   -1    0    0    0    0  0.00000000000E+00  0.00000000000E+00  0.45593999997E+02  0.45594000000E+02  0.51100000000E-03 0. -1.
         11   -1    0    0    0    0 -0.00000000000E+00 -0.00000000000E+00 -0.45593999997E+02  0.45594000000E+02  0.51100000000E-03 0.  1.
    9900012    2    1    2    0    0 -0.12754391674E+02  0.17868799372E+02 -0.23124701716E+02  0.59301947760E+02  0.50000006807E+02 0.  0.
         12    1    1    2    0    0  0.12754391674E+02 -0.17868799372E+02  0.23124701716E+02  0.31886052240E+02  0.00000000000E+00 0. -1.
         11    1    3    3    0    0 -0.15273139299E+02 -0.36138567122E+01 -0.22244742392E+02  0.27224204464E+02  0.51100000000E-03 0.  1.
        -11    1    3    3    0    0  0.72582110651E+01  0.90003899029E+01  0.96603899460E+01  0.15066910116E+02  0.51100000000E-03 0. -1.
        -12    1    3    3    0    0 -0.47394634396E+01  0.12482266182E+02 -0.10540349271E+02  0.17010833180E+02  0.00000000000E+00 0.  1.
</event>
<event>
 7    1  0.7579108E-012  0.5930196E+02  0.7816164E-02  0.1266605E+00
        -11   -1    0    0    0    0  0.00000000000E+00  0.00000000000E+00  0.45593999997E+02  0.45594000000E+02  0.51100000000E-03 0.  1.
         11   -1    0    0    0    0 -0.00000000000E+00 -0.00000000000E+00 -0.45593999997E+02  0.45594000000E+02  0.51100000000E-03 0. -1.
    9900012    2    1    2    0    0 -0.70906554002E+01  0.29586064934E+02  0.95450054093E+01  0.59301956650E+02  0.50000023019E+02 0.  0.
         12    1    1    2    0    0  0.70906554002E+01 -0.29586064934E+02 -0.95450054093E+01  0.31886043350E+02  0.00000000000E+00 0. -1.
         11    1    3    3    0    0 -0.69044066587E+00 -0.63178288144E+01 -0.90367746552E+01  0.11047848916E+02  0.51100000000E-03 0. -1.
        -11    1    3    3    0    0 -0.86575871417E+01  0.21491318020E+02  0.23361523069E+02  0.32902755594E+02  0.51100000000E-03 0.  1.
         12    1    3    3    0    0  0.22573724074E+01  0.14412575728E+02 -0.47797430044E+01  0.15351352139E+02  0.00000000000E+00 0. -1.
</event>
<event>
 7    1  0.7579108E-012  0.5930193E+02  0.7816164E-02  0.1266605E+00
        -11   -1    0    0    0    0  0.00000000000E+00  0.00000000000E+00  0.45593999997E+02  0.45594000000E+02  0.51100000000E-03 0.  1.
         11   -1    0    0    0    0 -0.00000000000E+00 -0.00000000000E+00 -0.45593999997E+02  0.45594000000E+02  0.51100000000E-03 0. -1.
    9900012    2    1    2    0    0 -0.18106655529E+02 -0.20871411908E+02  0.15913973434E+02  0.59301931570E+02  0.49999977279E+02 0.  0.
         12    1    1    2    0    0  0.18106655529E+02  0.20871411908E+02 -0.15913973434E+02  0.31886068430E+02  0.00000000000E+00 0. -1.
         11    1    3    3    0    0 -0.14119124767E+02 -0.14000473941E+02 -0.34195848008E+01  0.20175641631E+02  0.51100000000E-03 0. -1.
        -11    1    3    3    0    0  0.97116338143E+01  0.45413663722E+01  0.18370844184E+02  0.21270349225E+02  0.51100000000E-03 0.  1.
        -12    1    3    3    0    0 -0.13699164576E+02 -0.11412304339E+02  0.96271405168E+00  0.17855940713E+02  0.00000000000E+00 0.  1.
</event>
<event>
 7    1  0.7579108E-012  0.5930190E+02  0.7816164E-02  0.1266605E+00
        -11   -1    0    0    0    0  0.00000000000E+00  0.00000000000E+00  0.45593999997E+02  0.45594000000E+02  0.51100000000E-03 0.  1.
         11   -1    0    0    0    0 -0.00000000000E+00 -0.00000000000E+00 -0.45593999997E+02  0.45594000000E+02  0.51100000000E-03 0. -1.
    9900012    2    1    2    0    0 -0.23359645373E+02  0.12380101232E+02  0.17826482925E+02  0.59301899079E+02  0.49999918025E+02 0.  0.
         12    1    1    2    0    0  0.23359645373E+02 -0.12380101232E+02 -0.17826482925E+02  0.31886100921E+02  0.00000000000E+00 0. -1.
         11    1    3    3    0    0  0.13433315213E+01  0.12617841204E+02 -0.61370637037E+01  0.14095318634E+02  0.51100000000E-03 0. -1.
        -11    1    3    3    0    0 -0.29895133541E+02  0.10721417366E+01  0.12246813835E+02  0.32324185167E+02  0.51100000000E-03 0.  1.
        -12    1    3    3    0    0  0.51921566473E+01 -0.13098817086E+01  0.11716732794E+02  0.12882395279E+02  0.00000000000E+00 0.  1.
</event>
<event>
 7    1  0.7579108E-012  0.5930195E+02  0.7816164E-02  0.1266605E+00
        -11   -1    0    0    0    0  0.00000000000E+00  0.00000000000E+00  0.45593999997E+02  0.45594000000E+02  0.51100000000E-03 0. -1.
         11   -1    0    0    0    0 -0.00000000000E+00 -0.00000000000E+00 -0.45593999997E+02  0.45594000000E+02  0.51100000000E-03 0.  1.
    9900012    2    1    2    0    0 -0.21411067960E+02 -0.23194290757E+02  0.45068112711E+01  0.59301948148E+02  0.50000007514E+02 0.  0.
         12    1    1    2    0    0  0.21411067960E+02  0.23194290757E+02 -0.45068112711E+01  0.31886051852E+02  0.00000000000E+00 0. -1.
         11    1    3    3    0    0  0.11779407253E+01 -0.20694270612E+01  0.18158552543E+02  0.18314013853E+02  0.51100000000E-03 0. -1.
        -11    1    3    3    0    0  0.70978818818E+00 -0.14354947589E+02 -0.55881470859E+01  0.15420626047E+02  0.51100000000E-03 0.  1.
         12    1    3    3    0    0 -0.23298796873E+02 -0.67699161071E+01 -0.80635941857E+01  0.25567308247E+02  0.00000000000E+00 0. -1.
</event>
<event>
 7    1  0.7579108E-012  0.5930193E+02  0.7816164E-02  0.1266605E+00
        -11   -1    0    0    0    0  0.00000000000E+00  0.00000000000E+00  0.45593999997E+02  0.45594000000E+02  0.51100000000E-03 0.  1.
         11   -1    0    0    0    0 -0.00000000000E+00 -0.00000000000E+00 -0.45593999997E+02  0.45594000000E+02  0.51100000000E-03 0. -1.
    9900012    2    1    2    0    0  0.99346805898E+01 -0.24495701364E+02  0.17832106315E+02  0.59301932833E+02  0.49999979584E+02 0.  0.
         12    1    1    2    0    0 -0.99346805898E+01  0.24495701364E+02 -0.17832106315E+02  0.31886067167E+02  0.00000000000E+00 0. -1.
         11    1    3    3    0    0  0.59059364816E+01  0.36954359901E+00 -0.43898449973E+01  0.73679975270E+01  0.51100000000E-03 0. -1.
        -11    1    3    3    0    0 -0.32357693126E+01 -0.32582017989E+02  0.24743130748E+02  0.41039988045E+02  0.51100000000E-03 0.  1.
        -12    1    3    3    0    0  0.72645134208E+01  0.77167730260E+01 -0.25211794360E+01  0.10893947261E+02  0.00000000000E+00 0.  1.
</event>
<event>
 7    1  0.7579108E-012  0.5930194E+02  0.7816164E-02  0.1266605E+00
        -11   -1    0    0    0    0  0.00000000000E+00  0.00000000000E+00  0.45593999997E+02  0.45594000000E+02  0.51100000000E-03 0. -1.
         11   -1    0    0    0    0 -0.00000000000E+00 -0.00000000000E+00 -0.45593999997E+02  0.45594000000E+02  0.51100000000E-03 0.  1.
    9900012    2    1    2    0    0  0.53042711501E+01 -0.29653915431E+02 -0.10451358954E+02  0.59301938832E+02  0.49999990525E+02 0.  0.
         12    1    1    2    0    0 -0.53042711501E+01  0.29653915431E+02  0.10451358954E+02  0.31886061168E+02  0.00000000000E+00 0. -1.
         11    1    3    3    0    0 -0.46288373327E+01  0.63359033452E+00 -0.63939650835E+01  0.79189874046E+01  0.51100000000E-03 0. -1.
        -11    1    3    3    0    0  0.14586422678E+02 -0.38785234058E+02 -0.45221792922E+01  0.41683428521E+02  0.51100000000E-03 0.  1.
        -12    1    3    3    0    0 -0.46533141951E+01  0.84977282923E+01  0.46478542175E+00  0.96995229066E+01  0.00000000000E+00 0.  1.
</event>
<event>
 7    1  0.7579108E-012  0.5930202E+02  0.7816164E-02  0.1266604E+00
        -11   -1    0    0    0    0  0.00000000000E+00  0.00000000000E+00  0.45593999997E+02  0.45594000000E+02  0.51100000000E-03 0.  1.
         11   -1    0    0    0    0 -0.00000000000E+00 -0.00000000000E+00 -0.45593999997E+02  0.45594000000E+02  0.51100000000E-03 0. -1.
    9900012    2    1    2    0    0  0.87403451016E+01 -0.17477540823E+02  0.25196379049E+02  0.59302022159E+02  0.50000142493E+02 0.  0.
         12    1    1    2    0    0 -0.87403451016E+01  0.17477540823E+02 -0.25196379049E+02  0.31885977841E+02  0.00000000000E+00 0. -1.
         11    1    3    3    0    0 -0.37933886397E+01  0.43602909853E+01 -0.79678749586E+01  0.98432193141E+01  0.51100000000E-03 0. -1.
        -11    1    3    3    0    0  0.91957716796E+01 -0.24708312538E+02  0.35698956577E+02  0.44378806047E+02  0.51100000000E-03 0.  1.
        -12    1    3    3    0    0  0.33379620617E+01  0.28704807301E+01 -0.25347025696E+01  0.50799967976E+01  0.00000000000E+00 0.  1.
</event>
<event>
 7    1  0.7579108E-012  0.5930196E+02  0.7816164E-02  0.1266605E+00
        -11   -1    0    0    0    0  0.00000000000E+00  0.00000000000E+00  0.45593999997E+02  0.45594000000E+02  0.51100000000E-03 0.  1.
         11   -1    0    0    0    0 -0.00000000000E+00 -0.00000000000E+00 -0.45593999997E+02  0.45594000000E+02  0.51100000000E-03 0. -1.
    9900012    2    1    2    0    0  0.31330585324E+02 -0.41794781877E+01 -0.42007247792E+01  0.59301957547E+02  0.50000024656E+02 0.  0.
         12    1    1    2    0    0 -0.31330585324E+02  0.41794781877E+01  0.42007247792E+01  0.31886042453E+02  0.00000000000E+00 0. -1.
         11    1    3    3    0    0  0.19880547182E+02  0.16857700785E+02 -0.14800234800E+02  0.29974408792E+02  0.51100000000E-03 0. -1.
        -11    1    3    3    0    0 -0.32117422644E+00 -0.10141897345E+02  0.82249542071E-01  0.10147314911E+02  0.51100000000E-03 0.  1.
         12    1    3    3    0    0  0.11771212368E+02 -0.10895281628E+02  0.10517260479E+02  0.19180233844E+02  0.00000000000E+00 0. -1.
</event>
<event>
 7    1  0.7579108E-012  0.5930193E+02  0.7816164E-02  0.1266605E+00
        -11   -1    0    0    0    0  0.00000000000E+00  0.00000000000E+00  0.45593999997E+02  0.45594000000E+02  0.51100000000E-03 0.  1.
         11   -1    0    0    0    0 -0.00000000000E+00 -0.00000000000E+00 -0.45593999997E+02  0.45594000000E+02  0.51100000000E-03 0. -1.
    9900012    2    1    2    0    0  0.30410448957E+02 -0.94430831191E+01  0.16595338255E+01  0.59301932869E+02  0.49999979650E+02 0.  0.
         12    1    1    2    0    0 -0.30410448957E+02  0.94430831191E+01 -0.16595338255E+01  0.31886067131E+02  0.00000000000E+00 0. -1.
         11    1    3    3    0    0  0.84558621699E+01 -0.24591605079E+02 -0.11654342960E+02  0.28496883259E+02  0.51100000000E-03 0. -1.
        -11    1    3    3    0    0  0.98289406226E+01  0.11096919697E+02  0.88431777614E+01  0.17261271498E+02  0.51100000000E-03 0.  1.
         12    1    3    3    0    0  0.12125646164E+02  0.40516022625E+01  0.44706990242E+01  0.13543778112E+02  0.00000000000E+00 0. -1.
</event>
<event>
 7    1  0.7579108E-012  0.5930203E+02  0.7816164E-02  0.1266604E+00
        -11   -1    0    0    0    0  0.00000000000E+00  0.00000000000E+00  0.45593999997E+02  0.45594000000E+02  0.51100000000E-03 0. -1.
         11   -1    0    0    0    0 -0.00000000000E+00 -0.00000000000E+00 -0.45593999997E+02  0.45594000000E+02  0.51100000000E-03 0.  1.
    9900012    2    1    2    0    0  0.20037941953E+02  0.24266958465E+02 -0.51293766817E+01  0.59302032930E+02  0.50000162136E+02 0.  0.
         12    1    1    2    0    0 -0.20037941953E+02 -0.24266958465E+02  0.51293766817E+01  0.31885967070E+02  0.00000000000E+00 0. -1.
         11    1    3    3    0    0  0.18278871046E+02  0.10439387258E+02  0.17682885565E+02  0.27491496416E+02  0.51100000000E-03 0. -1.
        -11    1    3    3    0    0  0.40570609776E+01  0.17325185729E+02 -0.19992757589E+02  0.26764382313E+02  0.51100000000E-03 0.  1.
        -12    1    3    3    0    0 -0.22979900712E+01 -0.34976145209E+01 -0.28195046577E+01  0.50461542008E+01  0.00000000000E+00 0.  1.
</event>
<event>
 7    1  0.7579108E-012  0.5930195E+02  0.7816164E-02  0.1266605E+00
        -11   -1    0    0    0    0  0.00000000000E+00  0.00000000000E+00  0.45593999997E+02  0.45594000000E+02  0.51100000000E-03 0. -1.
         11   -1    0    0    0    0 -0.00000000000E+00 -0.00000000000E+00 -0.45593999997E+02  0.45594000000E+02  0.51100000000E-03 0.  1.
    9900012    2    1    2    0    0  0.16740587368E+02  0.25796081879E+02 -0.84282231482E+01  0.59301952092E+02  0.50000014707E+02 0.  0.
         12    1    1    2    0    0 -0.16740587368E+02 -0.25796081879E+02  0.84282231482E+01  0.31886047908E+02  0.00000000000E+00 0. -1.
         11    1    3    3    0    0  0.87964402071E+01  0.19279318988E+02  0.96601555671E+01  0.23289227269E+02  0.51100000000E-03 0.  1.
        -11    1    3    3    0    0  0.90144336657E+01 -0.99800245806E+01 -0.13028119527E+02  0.18724123574E+02  0.51100000000E-03 0. -1.
        -12    1    3    3    0    0 -0.10702865043E+01  0.16496787472E+02 -0.50602591885E+01  0.17288601249E+02  0.00000000000E+00 0.  1.
</event>
<event>
 7    1  0.7579108E-012  0.5930193E+02  0.7816164E-02  0.1266605E+00
        -11   -1    0    0    0    0  0.00000000000E+00  0.00000000000E+00  0.45593999997E+02  0.45594000000E+02  0.51100000000E-03 0. -1.
         11   -1    0    0    0    0 -0.00000000000E+00 -0.00000000000E+00 -0.45593999997E+02  0.45594000000E+02  0.51100000000E-03 0.  1.
    9900012    2    1    2    0    0  0.20291525817E+01  0.28865616470E+02  0.13393283087E+02  0.59301932412E+02  0.49999978815E+02 0.  0.
         12    1    1    2    0    0 -0.20291525817E+01 -0.28865616470E+02 -0.13393283087E+02  0.31886067588E+02  0.00000000000E+00 0. -1.
         11    1    3    3    0    0 -0.17419250433E+02  0.30911964593E+01  0.32631571614E+01  0.17989829797E+02  0.51100000000E-03 0.  1.
        -11    1    3    3    0    0  0.24236762699E+02  0.24743008163E+02  0.10993092860E+02  0.36338481118E+02  0.51100000000E-03 0. -1.
         12    1    3    3    0    0 -0.47883596838E+01  0.10314118479E+01 -0.86296693436E+00  0.49736214966E+01  0.00000000000E+00 0. -1.
</event>
<event>
 7    1  0.7579108E-012  0.5930197E+02  0.7816164E-02  0.1266605E+00
        -11   -1    0    0    0    0  0.00000000000E+00  0.00000000000E+00  0.45593999997E+02  0.45594000000E+02  0.51100000000E-03 0.  1.
         11   -1    0    0    0    0 -0.00000000000E+00 -0.00000000000E+00 -0.45593999997E+02  0.45594000000E+02  0.51100000000E-03 0. -1.
    9900012    2    1    2    0    0 -0.27038007404E+02 -0.80491969191E+01  0.14861873743E+02  0.59301973176E+02  0.50000053160E+02 0.  0.
         12    1    1    2    0    0  0.27038007404E+02  0.80491969191E+01 -0.14861873743E+02  0.31886026824E+02  0.00000000000E+00 0. -1.
         11    1    3    3    0    0  0.11857378075E+02 -0.45380971228E+01 -0.18381625705E+01  0.12828506624E+02  0.51100000000E-03 0. -1.
        -11    1    3    3    0    0 -0.39071802844E+02  0.21890319042E+00  0.12902708995E+02  0.41147704623E+02  0.51100000000E-03 0.  1.
         12    1    3    3    0    0  0.17641736504E+00 -0.37300029868E+01  0.37973273181E+01  0.53257619294E+01  0.00000000000E+00 0. -1.
</event>
<event>
 7    1  0.7579108E-012  0.5930181E+02  0.7816164E-02  0.1266605E+00
        -11   -1    0    0    0    0  0.00000000000E+00  0.00000000000E+00  0.45593999997E+02  0.45594000000E+02  0.51100000000E-03 0.  1.
         11   -1    0    0    0    0 -0.00000000000E+00 -0.00000000000E+00 -0.45593999997E+02  0.45594000000E+02  0.51100000000E-03 0. -1.
    9900012    2    1    2    0    0 -0.11713970324E+02 -0.23302102809E+02  0.18344584053E+02  0.59301813960E+02  0.49999762787E+02 0.  0.
         12    1    1    2    0    0  0.11713970324E+02  0.23302102809E+02 -0.18344584053E+02  0.31886186040E+02  0.00000000000E+00 0. -1.
         11    1    3    3    0    0  0.11002996894E+02 -0.58599767857E+01  0.34833999265E+01  0.12943699003E+02  0.51100000000E-03 0. -1.
        -11    1    3    3    0    0 -0.27545757879E+02 -0.27997193255E+01  0.13712646568E+02  0.30897311883E+02  0.51100000000E-03 0.  1.
         12    1    3    3    0    0  0.48287906613E+01 -0.14642406698E+02  0.11485375585E+01  0.15460803074E+02  0.00000000000E+00 0. -1.
</event>
<event>
 7    1  0.7579108E-012  0.5930194E+02  0.7816164E-02  0.1266605E+00
        -11   -1    0    0    0    0  0.00000000000E+00  0.00000000000E+00  0.45593999997E+02  0.45594000000E+02  0.51100000000E-03 0. -1.
         11   -1    0    0    0    0 -0.00000000000E+00 -0.00000000000E+00 -0.45593999997E+02  0.45594000000E+02  0.51100000000E-03 0.  1.
    9900012    2    1    2    0    0 -0.15276954121E+02 -0.14020714065E+02 -0.24223022076E+02  0.59301944292E+02  0.50000000482E+02 0.  0.
         12    1    1    2    0    0  0.15276954121E+02  0.14020714065E+02  0.24223022076E+02  0.31886055708E+02  0.00000000000E+00 0. -1.
         11    1    3    3    0    0 -0.21933226685E+02  0.54393260927E+01  0.22041187065E+01  0.22704863811E+02  0.51100000000E-03 0. -1.
        -11    1    3    3    0    0  0.84404032894E+01 -0.35685460044E+01 -0.11662607632E+02  0.14832105222E+02  0.51100000000E-03 0.  1.
        -12    1    3    3    0    0 -0.17841307251E+01 -0.15891494153E+02 -0.14764533150E+02  0.21764975259E+02  0.00000000000E+00 0.  1.
</event>
<event>
 7    1  0.7579108E-012  0.5930191E+02  0.7816164E-02  0.1266605E+00
        -11   -1    0    0    0    0  0.00000000000E+00  0.00000000000E+00  0.45593999997E+02  0.45594000000E+02  0.51100000000E-03 0.  1.
         11   -1    0    0    0    0 -0.00000000000E+00 -0.00000000000E+00 -0.45593999997E+02  0.45594000000E+02  0.51100000000E-03 0. -1.
    9900012    2    1    2    0    0  0.12891518525E+02 -0.28425932015E+02  0.65190311142E+01  0.59301911694E+02  0.49999941031E+02 0.  0.
         12    1    1    2    0    0 -0.12891518525E+02  0.28425932015E+02 -0.65190311142E+01  0.31886088306E+02  0.00000000000E+00 0. -1.
         11    1    3    3    0    0 -0.13912004749E+02 -0.16742124142E+02  0.11840934793E+02  0.24780039022E+02  0.51100000000E-03 0.  1.
        -11    1    3    3    0    0  0.26555390311E+01  0.27809345858E+01 -0.50811097185E+01  0.63720609656E+01  0.51100000000E-03 0. -1.
        -12    1    3    3    0    0  0.24147984242E+02 -0.14464742459E+02 -0.24079396044E+00  0.28149811706E+02  0.00000000000E+00 0.  1.
</event>
<event>
 7    1  0.7579108E-012  0.5930194E+02  0.7816164E-02  0.1266605E+00
        -11   -1    0    0    0    0  0.00000000000E+00  0.00000000000E+00  0.45593999997E+02  0.45594000000E+02  0.51100000000E-03 0. -1.
         11   -1    0    0    0    0 -0.00000000000E+00 -0.00000000000E+00 -0.45593999997E+02  0.45594000000E+02  0.51100000000E-03 0.  1.
    9900012    2    1    2    0    0 -0.18883045106E+02 -0.12726791254E+02 -0.22319944802E+02  0.59301944364E+02  0.50000000613E+02 0.  0.
         12    1    1    2    0    0  0.18883045106E+02  0.12726791254E+02  0.22319944802E+02  0.31886055636E+02  0.00000000000E+00 0. -1.
         11    1    3    3    0    0 -0.18523088740E+01  0.16038223102E+02 -0.57600256713E+01  0.17141573569E+02  0.51100000000E-03 0. -1.
        -11    1    3    3    0    0 -0.68393315958E+01 -0.25856473938E+02 -0.64480461589E+01  0.27512015570E+02  0.51100000000E-03 0.  1.
         12    1    3    3    0    0 -0.10191404636E+02 -0.29085404181E+01 -0.10111872971E+02  0.14648355225E+02  0.00000000000E+00 0. -1.
</event>
<event>
 7    1  0.7579108E-012  0.5930195E+02  0.7816164E-02  0.1266605E+00
        -11   -1    0    0    0    0  0.00000000000E+00  0.00000000000E+00  0.45593999997E+02  0.45594000000E+02  0.51100000000E-03 0.  1.
         11   -1    0    0    0    0 -0.00000000000E+00 -0.00000000000E+00 -0.45593999997E+02  0.45594000000E+02  0.51100000000E-03 0. -1.
    9900012    2    1    2    0    0  0.22378292605E+02 -0.21157482338E+02  0.82639494074E+01  0.59301954484E+02  0.50000019070E+02 0.  0.
         12    1    1    2    0    0 -0.22378292605E+02  0.21157482338E+02 -0.82639494074E+01  0.31886045516E+02  0.00000000000E+00 0. -1.
         11    1    3    3    0    0  0.50096876945E+01 -0.18784732464E+01 -0.76814068574E+01  0.93610706709E+01  0.51100000000E-03 0. -1.
        -11    1    3    3    0    0  0.28128718091E+02 -0.22399038415E+02  0.13909578032E+02  0.38554092710E+02  0.51100000000E-03 0.  1.
        -12    1    3    3    0    0 -0.10760113180E+02  0.31200293233E+01  0.20357782329E+01  0.11386791104E+02  0.00000000000E+00 0.  1.
</event>
<event>
 7    1  0.7579108E-012  0.5930194E+02  0.7816164E-02  0.1266605E+00
        -11   -1    0    0    0    0  0.00000000000E+00  0.00000000000E+00  0.45593999997E+02  0.45594000000E+02  0.51100000000E-03 0.  1.
         11   -1    0    0    0    0 -0.00000000000E+00 -0.00000000000E+00 -0.45593999997E+02  0.45594000000E+02  0.51100000000E-03 0. -1.
    9900012    2    1    2    0    0  0.17772263638E+02  0.12195875611E+02 -0.23497409169E+02  0.59301937616E+02  0.49999988306E+02 0.  0.
         12    1    1    2    0    0 -0.17772263638E+02 -0.12195875611E+02  0.23497409169E+02  0.31886062384E+02  0.00000000000E+00 0. -1.
         11    1    3    3    0    0 -0.27212383755E+01 -0.41089472272E+01  0.11920742763E+02  0.12899329203E+02  0.51100000000E-03 0. -1.
        -11    1    3    3    0    0  0.16878447895E+02  0.84758110886E+01 -0.31935566517E+02  0.37102584626E+02  0.51100000000E-03 0.  1.
         12    1    3    3    0    0  0.36150541186E+01  0.78290117499E+01 -0.34825854145E+01  0.93000237865E+01  0.00000000000E+00 0. -1.
</event>
<event>
 7    1  0.7579108E-012  0.5930193E+02  0.7816164E-02  0.1266605E+00
        -11   -1    0    0    0    0  0.00000000000E+00  0.00000000000E+00  0.45593999997E+02  0.45594000000E+02  0.51100000000E-03 0.  1.
         11   -1    0    0    0    0 -0.00000000000E+00 -0.00000000000E+00 -0.45593999997E+02  0.45594000000E+02  0.51100000000E-03 0. -1.
    9900012    2    1    2    0    0 -0.16817840881E+02  0.27041245625E+02 -0.16286316531E+01  0.59301934424E+02  0.49999982486E+02 0.  0.
         12    1    1    2    0    0  0.16817840881E+02 -0.27041245625E+02  0.16286316531E+01  0.31886065576E+02  0.00000000000E+00 0. -1.
         11    1    3    3    0    0 -0.41751785372E+01  0.21610990741E+01 -0.13106776198E+02  0.13924440656E+02  0.51100000000E-03 0.  1.
        -11    1    3    3    0    0  0.94464921786E+01  0.17615856670E+02  0.92272606286E+01  0.22015834294E+02  0.51100000000E-03 0. -1.
        -12    1    3    3    0    0 -0.22089154522E+02  0.72642898803E+01  0.22508839160E+01  0.23361659474E+02  0.00000000000E+00 0.  1.
</event>
<event>
 7    1  0.7579108E-012  0.5930195E+02  0.7816164E-02  0.1266605E+00
        -11   -1    0    0    0    0  0.00000000000E+00  0.00000000000E+00  0.45593999997E+02  0.45594000000E+02  0.51100000000E-03 0.  1.
         11   -1    0    0    0    0 -0.00000000000E+00 -0.00000000000E+00 -0.45593999997E+02  0.45594000000E+02  0.51100000000E-03 0. -1.
    9900012    2    1    2    0    0 -0.29775134009E+01 -0.86564007901E+01  0.30543761524E+02  0.59301949308E+02  0.50000009630E+02 0.  0.
         12    1    1    2    0    0  0.29775134009E+01  0.86564007901E+01 -0.30543761524E+02  0.31886050692E+02  0.00000000000E+00 0. -1.
         11    1    3    3    0    0 -0.55260677883E+00 -0.37207528809E+01 -0.12114410182E+02  0.12684963956E+02  0.51100000000E-03 0. -1.
        -11    1    3    3    0    0 -0.52355680142E+01 -0.10355164523E+02  0.34688297039E+02  0.36577569034E+02  0.51100000000E-03 0.  1.
         12    1    3    3    0    0  0.28106613921E+01  0.54195166137E+01  0.79698746675E+01  0.10039416318E+02  0.00000000000E+00 0. -1.
</event>
<event>
 7    1  0.7579108E-012  0.5930196E+02  0.7816164E-02  0.1266605E+00
        -11   -1    0    0    0    0  0.00000000000E+00  0.00000000000E+00  0.45593999997E+02  0.45594000000E+02  0.51100000000E-03 0.  1.
         11   -1    0    0    0    0 -0.00000000000E+00 -0.00000000000E+00 -0.45593999997E+02  0.45594000000E+02  0.51100000000E-03 0. -1.
    9900012    2    1    2    0    0 -0.14294328924E+02 -0.28102203551E+02 -0.47600050290E+01  0.59301963374E+02  0.50000035283E+02 0.  0.
         12    1    1    2    0    0  0.14294328924E+02  0.28102203551E+02  0.47600050290E+01  0.31886036626E+02  0.00000000000E+00 0. -1.
         11    1    3    3    0    0 -0.27530214880E+01 -0.81497219256E+01 -0.20687095214E+02  0.22404307699E+02  0.51100000000E-03 0. -1.
        -11    1    3    3    0    0 -0.83165072465E+01 -0.24988597438E+02  0.92001404809E+01  0.27896897315E+02  0.51100000000E-03 0.  1.
         12    1    3    3    0    0 -0.32248001893E+01  0.50361158122E+01  0.67269497045E+01  0.90007583604E+01  0.00000000000E+00 0. -1.
</event>
<event>
 7    1  0.7579108E-012  0.5930188E+02  0.7816164E-02  0.1266605E+00
        -11   -1    0    0    0    0  0.00000000000E+00  0.00000000000E+00  0.45593999997E+02  0.45594000000E+02  0.51100000000E-03 0. -1.
         11   -1    0    0    0    0 -0.00000000000E+00 -0.00000000000E+00 -0.45593999997E+02  0.45594000000E+02  0.51100000000E-03 0.  1.
    9900012    2    1    2    0    0  0.24187012732E+02 -0.11137506970E+02 -0.17540488912E+02  0.59301883936E+02  0.49999890407E+02 0.  0.
         12    1    1    2    0    0 -0.24187012732E+02  0.11137506970E+02  0.17540488912E+02  0.31886116064E+02  0.00000000000E+00 0. -1.
         11    1    3    3    0    0 -0.50821430795E+01 -0.17581254042E+00 -0.19378418060E+02  0.20034524579E+02  0.51100000000E-03 0. -1.
        -11    1    3    3    0    0  0.17930045019E+02 -0.15269588958E+02  0.89639409263E+01  0.25199188450E+02  0.51100000000E-03 0.  1.
         12    1    3    3    0    0  0.11339110792E+02  0.43078945282E+01 -0.71260117786E+01  0.14068170907E+02  0.00000000000E+00 0. -1.
</event>
<event>
 7    1  0.7579108E-012  0.5930197E+02  0.7816164E-02  0.1266605E+00
        -11   -1    0    0    0    0  0.00000000000E+00  0.00000000000E+00  0.45593999997E+02  0.45594000000E+02  0.51100000000E-03 0. -1.
         11   -1    0    0    0    0 -0.00000000000E+00 -0.00000000000E+00 -0.45593999997E+02  0.45594000000E+02  0.51100000000E-03 0.  1.
    9900012    2    1    2    0    0 -0.75127874604E+00 -0.48779044740E+01 -0.31501756452E+02  0.59301968084E+02  0.50000043873E+02 0.  0.
         12    1    1    2    0    0  0.75127874604E+00  0.48779044740E+01  0.31501756452E+02  0.31886031916E+02  0.00000000000E+00 0. -1.
         11    1    3    3    0    0  0.12481148215E+02 -0.11549247951E+02 -0.48425556593E+00  0.17011722215E+02  0.51100000000E-03 0. -1.
        -11    1    3    3    0    0 -0.13334895672E+02 -0.47038526110E+01 -0.26526924334E+02  0.30060329121E+02  0.51100000000E-03 0.  1.
         12    1    3    3    0    0  0.10246871091E+00  0.11375196088E+02 -0.44905765523E+01  0.12229916748E+02  0.00000000000E+00 0. -1.
</event>
<event>
 7    1  0.7579108E-012  0.5930221E+02  0.7816164E-02  0.1266604E+00
        -11   -1    0    0    0    0  0.00000000000E+00  0.00000000000E+00  0.45593999997E+02  0.45594000000E+02  0.51100000000E-03 0.  1.
         11   -1    0    0    0    0 -0.00000000000E+00 -0.00000000000E+00 -0.45593999997E+02  0.45594000000E+02  0.51100000000E-03 0. -1.
    9900012    2    1    2    0    0  0.12217221887E+02 -0.54139904320E+01  0.28950503968E+02  0.59302211895E+02  0.50000488524E+02 0.  0.
         12    1    1    2    0    0 -0.12217221887E+02  0.54139904320E+01 -0.28950503968E+02  0.31885788105E+02  0.00000000000E+00 0. -1.
         11    1    3    3    0    0  0.20054747491E+02 -0.22898172293E+01 -0.54861505781E+01  0.20917313601E+02  0.51100000000E-03 0. -1.
        -11    1    3    3    0    0 -0.80019306840E+01 -0.16159060332E+00  0.65535651834E+01  0.10344381232E+02  0.51100000000E-03 0.  1.
         12    1    3    3    0    0  0.16440508012E+00 -0.29625825994E+01  0.27883089363E+02  0.28040517062E+02  0.00000000000E+00 0. -1.
</event>
<event>
 7    1  0.7579108E-012  0.5930194E+02  0.7816164E-02  0.1266605E+00
        -11   -1    0    0    0    0  0.00000000000E+00  0.00000000000E+00  0.45593999997E+02  0.45594000000E+02  0.51100000000E-03 0. -1.
         11   -1    0    0    0    0 -0.00000000000E+00 -0.00000000000E+00 -0.45593999997E+02  0.45594000000E+02  0.51100000000E-03 0.  1.
    9900012    2    1    2    0    0  0.69061073677E+01  0.66079946774E+01 -0.30419745018E+02  0.59301940356E+02  0.49999993304E+02 0.  0.
         12    1    1    2    0    0 -0.69061073677E+01 -0.66079946774E+01  0.30419745018E+02  0.31886059644E+02  0.00000000000E+00 0. -1.
         11    1    3    3    0    0 -0.12728123017E+00  0.19649396239E+01  0.11683530758E+02  0.11848294370E+02  0.51100000000E-03 0. -1.
        -11    1    3    3    0    0  0.12255286062E+02  0.53943009586E+01 -0.16194252594E+02  0.21012956400E+02  0.51100000000E-03 0.  1.
         12    1    3    3    0    0 -0.52218974643E+01 -0.75124590517E+00 -0.25909023182E+02  0.26440689586E+02  0.00000000000E+00 0. -1.
</event>
<event>
 7    1  0.7579108E-012  0.5930194E+02  0.7816164E-02  0.1266605E+00
        -11   -1    0    0    0    0  0.00000000000E+00  0.00000000000E+00  0.45593999997E+02  0.45594000000E+02  0.51100000000E-03 0. -1.
         11   -1    0    0    0    0 -0.00000000000E+00 -0.00000000000E+00 -0.45593999997E+02  0.45594000000E+02  0.51100000000E-03 0.  1.
    9900012    2    1    2    0    0 -0.27637245031E+02  0.65203875986E+01 -0.14504767474E+02  0.59301936480E+02  0.49999986234E+02 0.  0.
         12    1    1    2    0    0  0.27637245031E+02 -0.65203875986E+01  0.14504767474E+02  0.31886063520E+02  0.00000000000E+00 0. -1.
         11    1    3    3    0    0 -0.14307670056E+02 -0.15035735731E+02 -0.23073160893E+02  0.31034714841E+02  0.51100000000E-03 0. -1.
        -11    1    3    3    0    0 -0.66113439443E+01  0.18078827880E+02  0.49199129653E+01  0.19868553800E+02  0.51100000000E-03 0.  1.
         12    1    3    3    0    0 -0.67182310308E+01  0.34772954500E+01  0.36484804541E+01  0.83986678381E+01  0.00000000000E+00 0. -1.
</event>
<event>
 7    1  0.7579108E-012  0.5930197E+02  0.7816164E-02  0.1266605E+00
        -11   -1    0    0    0    0  0.00000000000E+00  0.00000000000E+00  0.45593999997E+02  0.45594000000E+02  0.51100000000E-03 0.  1.
         11   -1    0    0    0    0 -0.00000000000E+00 -0.00000000000E+00 -0.45593999997E+02  0.45594000000E+02  0.51100000000E-03 0. -1.
    9900012    2    1    2    0    0  0.89845211268E+01 -0.30593342320E+02 -0.21181919068E+00  0.59301967297E+02  0.50000042437E+02 0.  0.
         12    1    1    2    0    0 -0.89845211268E+01  0.30593342320E+02  0.21181919068E+00  0.31886032703E+02  0.00000000000E+00 0. -1.
         11    1    3    3    0    0  0.13833067438E+02 -0.54686524136E+01  0.10210113705E+02  0.18041794149E+02  0.51100000000E-03 0. -1.
        -11    1    3    3    0    0  0.51760748159E+01 -0.28740311033E+02 -0.86524248141E+01  0.30457539037E+02  0.51100000000E-03 0.  1.
         12    1    3    3    0    0 -0.10024621127E+02  0.36156211270E+01 -0.17695080818E+01  0.10802634111E+02  0.00000000000E+00 0. -1.
</event>
<event>
 7    1  0.7579108E-012  0.5930191E+02  0.7816164E-02  0.1266605E+00
        -11   -1    0    0    0    0  0.00000000000E+00  0.00000000000E+00  0.45593999997E+02  0.45594000000E+02  0.51100000000E-03 0. -1.
         11   -1    0    0    0    0 -0.00000000000E+00 -0.00000000000E+00 -0.45593999997E+02  0.45594000000E+02  0.51100000000E-03 0.  1.
    9900012    2    1    2    0    0 -0.10204714966E+02  0.30180744195E+02 -0.13074311469E+01  0.59301907359E+02  0.49999933125E+02 0.  0.
         12    1    1    2    0    0  0.10204714966E+02 -0.30180744195E+02  0.13074311469E+01  0.31886092641E+02  0.00000000000E+00 0. -1.
         11    1    3    3    0    0 -0.11575997119E+02  0.82434387253E+01  0.80670524476E+01  0.16341215584E+02  0.51100000000E-03 0. -1.
        -11    1    3    3    0    0  0.11600282082E+02  0.25696997629E+02 -0.13561423370E+02  0.31286010222E+02  0.51100000000E-03 0.  1.
        -12    1    3    3    0    0 -0.10228999928E+02 -0.37596921590E+01  0.41869397760E+01  0.11674681553E+02  0.00000000000E+00 0.  1.
</event>
<event>
 7    1  0.7579108E-012  0.5930200E+02  0.7816164E-02  0.1266605E+00
        -11   -1    0    0    0    0  0.00000000000E+00  0.00000000000E+00  0.45593999997E+02  0.45594000000E+02  0.51100000000E-03 0. -1.
         11   -1    0    0    0    0 -0.00000000000E+00 -0.00000000000E+00 -0.45593999997E+02  0.45594000000E+02  0.51100000000E-03 0.  1.
    9900012    2    1    2    0    0 -0.18067682764E+01  0.48621964662E+01 -0.31461275875E+02  0.59301996084E+02  0.50000094938E+02 0.  0.
         12    1    1    2    0    0  0.18067682764E+01 -0.48621964662E+01  0.31461275875E+02  0.31886003916E+02  0.00000000000E+00 0. -1.
         11    1    3    3    0    0 -0.78357947291E+01  0.19774684259E+02 -0.23023399407E+00  0.21271831716E+02  0.51100000000E-03 0. -1.
        -11    1    3    3    0    0  0.72176507649E+01 -0.99189897708E+01 -0.30462820677E+02  0.32839979971E+02  0.51100000000E-03 0.  1.
         12    1    3    3    0    0 -0.11886243122E+01 -0.49934980223E+01 -0.76822120329E+00  0.51901843967E+01  0.00000000000E+00 0. -1.
</event>
<event>
 7    1  0.7579108E-012  0.5930192E+02  0.7816164E-02  0.1266605E+00
        -11   -1    0    0    0    0  0.00000000000E+00  0.00000000000E+00  0.45593999997E+02  0.45594000000E+02  0.51100000000E-03 0. -1.
         11   -1    0    0    0    0 -0.00000000000E+00 -0.00000000000E+00 -0.45593999997E+02  0.45594000000E+02  0.51100000000E-03 0.  1.
    9900012    2    1    2    0    0  0.79729007204E+01  0.27002389018E+02 -0.14967497024E+02  0.59301919561E+02  0.49999955379E+02 0.  0.
         12    1    1    2    0    0 -0.79729007204E+01 -0.27002389018E+02  0.14967497024E+02  0.31886080439E+02  0.00000000000E+00 0. -1.
         11    1    3    3    0    0  0.14982783011E+02  0.13270803978E+02  0.83531693193E+01  0.21688094959E+02  0.51100000000E-03 0. -1.
        -11    1    3    3    0    0 -0.65279476110E+01 -0.65310300867E+01 -0.77413283632E+01  0.12049755977E+02  0.51100000000E-03 0.  1.
         12    1    3    3    0    0 -0.48193468008E+00  0.20262615127E+02 -0.15579337980E+02  0.25564068626E+02  0.00000000000E+00 0. -1.
</event>
<event>
 7    1  0.7579108E-012  0.5930195E+02  0.7816164E-02  0.1266605E+00
        -11   -1    0    0    0    0  0.00000000000E+00  0.00000000000E+00  0.45593999997E+02  0.45594000000E+02  0.51100000000E-03 0.  1.
         11   -1    0    0    0    0 -0.00000000000E+00 -0.00000000000E+00 -0.45593999997E+02  0.45594000000E+02  0.51100000000E-03 0. -1.
    9900012    2    1    2    0    0 -0.20441535720E+02  0.19175278299E+02 -0.15204365109E+02  0.59301946641E+02  0.50000004766E+02 0.  0.
         12    1    1    2    0    0  0.20441535720E+02 -0.19175278299E+02  0.15204365109E+02  0.31886053359E+02  0.00000000000E+00 0. -1.
         11    1    3    3    0    0 -0.38869549348E+01  0.18302907190E+02 -0.23386331297E+02  0.29950381000E+02  0.51100000000E-03 0. -1.
        -11    1    3    3    0    0 -0.16173094882E+02  0.88479909271E+01  0.76113540244E+00  0.18450888024E+02  0.51100000000E-03 0.  1.
         12    1    3    3    0    0 -0.38148590340E+00 -0.79756198178E+01  0.74208307852E+01  0.10900677617E+02  0.00000000000E+00 0. -1.
</event>
<event>
 7    1  0.7579108E-012  0.5930190E+02  0.7816164E-02  0.1266605E+00
        -11   -1    0    0    0    0  0.00000000000E+00  0.00000000000E+00  0.45593999997E+02  0.45594000000E+02  0.51100000000E-03 0. -1.
         11   -1    0    0    0    0 -0.00000000000E+00 -0.00000000000E+00 -0.45593999997E+02  0.45594000000E+02  0.51100000000E-03 0.  1.
    9900012    2    1    2    0    0  0.64078295348E+01  0.14798957433E+02 -0.27507348620E+02  0.59301895683E+02  0.49999911830E+02 0.  0.
         12    1    1    2    0    0 -0.64078295348E+01 -0.14798957433E+02  0.27507348620E+02  0.31886104317E+02  0.00000000000E+00 0. -1.
         11    1    3    3    0    0 -0.14648517608E+02  0.22140695570E+01 -0.39532426607E+01  0.15333274272E+02  0.51100000000E-03 0. -1.
        -11    1    3    3    0    0  0.25438577838E+02  0.20128667759E+01 -0.14305529327E+02  0.29254419233E+02  0.51100000000E-03 0.  1.
        -12    1    3    3    0    0 -0.43822306948E+01  0.10572021100E+02 -0.92485766315E+01  0.14714202177E+02  0.00000000000E+00 0.  1.
</event>
<event>
 7    1  0.7579108E-012  0.5930194E+02  0.7816164E-02  0.1266605E+00
        -11   -1    0    0    0    0  0.00000000000E+00  0.00000000000E+00  0.45593999997E+02  0.45594000000E+02  0.51100000000E-03 0. -1.
         11   -1    0    0    0    0 -0.00000000000E+00 -0.00000000000E+00 -0.45593999997E+02  0.45594000000E+02  0.51100000000E-03 0.  1.
    9900012    2    1    2    0    0 -0.18416875375E+02  0.13503733511E+02  0.22252834643E+02  0.59301940868E+02  0.49999994237E+02 0.  0.
         12    1    1    2    0    0  0.18416875375E+02 -0.13503733511E+02 -0.22252834643E+02  0.31886059132E+02  0.00000000000E+00 0. -1.
         11    1    3    3    0    0 -0.11127399623E+01  0.10076415811E+02  0.29029151153E+02  0.30748397726E+02  0.51100000000E-03 0. -1.
        -11    1    3    3    0    0 -0.79693019912E+01  0.42833090014E+01 -0.14034514132E+02  0.16698026752E+02  0.51100000000E-03 0.  1.
         12    1    3    3    0    0 -0.93348334217E+01 -0.85599130079E+00  0.72581976230E+01  0.11855516389E+02  0.00000000000E+00 0. -1.
</event>
<event>
 7    1  0.7579108E-012  0.5930197E+02  0.7816164E-02  0.1266605E+00
        -11   -1    0    0    0    0  0.00000000000E+00  0.00000000000E+00  0.45593999997E+02  0.45594000000E+02  0.51100000000E-03 0.  1.
         11   -1    0    0    0    0 -0.00000000000E+00 -0.00000000000E+00 -0.45593999997E+02  0.45594000000E+02  0.51100000000E-03 0. -1.
    9900012    2    1    2    0    0  0.16878399795E+02  0.53143221957E+01  0.26525395413E+02  0.59301968546E+02  0.50000044716E+02 0.  0.
         12    1    1    2    0    0 -0.16878399795E+02 -0.53143221957E+01 -0.26525395413E+02  0.31886031454E+02  0.00000000000E+00 0. -1.
         11    1    3    3    0    0  0.30320320038E+02  0.14524999197E+02  0.81711969515E+01  0.34598639695E+02  0.51100000000E-03 0. -1.
        -11    1    3    3    0    0 -0.78354089364E+01 -0.36784476854E+01  0.97910973255E+01  0.13068672376E+02  0.51100000000E-03 0.  1.
         12    1    3    3    0    0 -0.56065113066E+01 -0.55322293155E+01  0.85631011360E+01  0.11634656475E+02  0.00000000000E+00 0. -1.
</event>
<event>
 7    1  0.7579108E-012  0.5930195E+02  0.7816164E-02  0.1266605E+00
        -11   -1    0    0    0    0  0.00000000000E+00  0.00000000000E+00  0.45593999997E+02  0.45594000000E+02  0.51100000000E-03 0.  1.
         11   -1    0    0    0    0 -0.00000000000E+00 -0.00000000000E+00 -0.45593999997E+02  0.45594000000E+02  0.51100000000E-03 0. -1.
    9900012    2    1    2    0    0 -0.65391210186E+01  0.30163452991E+02  0.80078849406E+01  0.59301949425E+02  0.50000009844E+02 0.  0.
         12    1    1    2    0    0  0.65391210186E+01 -0.30163452991E+02 -0.80078849406E+01  0.31886050575E+02  0.00000000000E+00 0. -1.
         11    1    3    3    0    0  0.70958543263E+01  0.11600259559E+02 -0.64640645257E+01  0.15056603233E+02  0.51100000000E-03 0. -1.
        -11    1    3    3    0    0 -0.12054120523E+02  0.23072728210E+01  0.22813994408E+02  0.25905668696E+02  0.51100000000E-03 0.  1.
         12    1    3    3    0    0 -0.15808548214E+01  0.16255920611E+02 -0.83420449419E+01  0.18339677497E+02  0.00000000000E+00 0. -1.
</event>
<event>
 7    1  0.7579108E-012  0.5930192E+02  0.7816164E-02  0.1266605E+00
        -11   -1    0    0    0    0  0.00000000000E+00  0.00000000000E+00  0.45593999997E+02  0.45594000000E+02  0.51100000000E-03 0.  1.
         11   -1    0    0    0    0 -0.00000000000E+00 -0.00000000000E+00 -0.45593999997E+02  0.45594000000E+02  0.51100000000E-03 0. -1.
    9900012    2    1    2    0    0  0.15199589733E+02  0.27944706775E+02  0.21881715556E+01  0.59301917463E+02  0.49999951553E+02 0.  0.
         12    1    1    2    0    0 -0.15199589733E+02 -0.27944706775E+02 -0.21881715556E+01  0.31886082537E+02  0.00000000000E+00 0. -1.
         11    1    3    3    0    0 -0.43265592982E+01  0.23545215267E+02  0.15897502299E+01  0.23992156706E+02  0.51100000000E-03 0. -1.
        -11    1    3    3    0    0  0.21395144693E+02  0.12606983042E+02  0.56836871149E+01  0.25475331937E+02  0.51100000000E-03 0.  1.
         12    1    3    3    0    0 -0.18689956619E+01 -0.82074915344E+01 -0.50852657892E+01  0.98344288202E+01  0.00000000000E+00 0. -1.
</event>
<event>
 7    1  0.7579108E-012  0.5930194E+02  0.7816164E-02  0.1266605E+00
        -11   -1    0    0    0    0  0.00000000000E+00  0.00000000000E+00  0.45593999997E+02  0.45594000000E+02  0.51100000000E-03 0. -1.
         11   -1    0    0    0    0 -0.00000000000E+00 -0.00000000000E+00 -0.45593999997E+02  0.45594000000E+02  0.51100000000E-03 0.  1.
    9900012    2    1    2    0    0 -0.13416842603E+02 -0.53475891750E+01 -0.28427317164E+02  0.59301941345E+02  0.49999995108E+02 0.  0.
         12    1    1    2    0    0  0.13416842603E+02  0.53475891750E+01  0.28427317164E+02  0.31886058655E+02  0.00000000000E+00 0. -1.
         11    1    3    3    0    0  0.10744597550E+02  0.11786490324E+01 -0.25343657080E+02  0.27552432642E+02  0.51100000000E-03 0. -1.
        -11    1    3    3    0    0 -0.19895034947E+02 -0.40349130811E+01 -0.10487143883E+02  0.22848919585E+02  0.51100000000E-03 0.  1.
         12    1    3    3    0    0 -0.42664052056E+01 -0.24913251263E+01  0.74034838000E+01  0.89005891176E+01  0.00000000000E+00 0. -1.
</event>
<event>
 7    1  0.7579108E-012  0.5930195E+02  0.7816164E-02  0.1266605E+00
        -11   -1    0    0    0    0  0.00000000000E+00  0.00000000000E+00  0.45593999997E+02  0.45594000000E+02  0.51100000000E-03 0.  1.
         11   -1    0    0    0    0 -0.00000000000E+00 -0.00000000000E+00 -0.45593999997E+02  0.45594000000E+02  0.51100000000E-03 0. -1.
    9900012    2    1    2    0    0  0.30014636445E+02  0.10712588018E+02 -0.10402757065E+01  0.59301951068E+02  0.50000012840E+02 0.  0.
         12    1    1    2    0    0 -0.30014636445E+02 -0.10712588018E+02  0.10402757065E+01  0.31886048932E+02  0.00000000000E+00 0. -1.
         11    1    3    3    0    0 -0.24435335988E+01  0.16975262376E+01 -0.14087845284E+02  0.14398605376E+02  0.51100000000E-03 0. -1.
        -11    1    3    3    0    0  0.34766078870E+02  0.76524390139E+01  0.44231222199E+01  0.35872051423E+02  0.51100000000E-03 0.  1.
        -12    1    3    3    0    0 -0.23079088264E+01  0.13626227666E+01  0.86244473575E+01  0.90312942692E+01  0.00000000000E+00 0.  1.
</event>
<event>
 7    1  0.7579108E-012  0.5930195E+02  0.7816164E-02  0.1266605E+00
        -11   -1    0    0    0    0  0.00000000000E+00  0.00000000000E+00  0.45593999997E+02  0.45594000000E+02  0.51100000000E-03 0. -1.
         11   -1    0    0    0    0 -0.00000000000E+00 -0.00000000000E+00 -0.45593999997E+02  0.45594000000E+02  0.51100000000E-03 0.  1.
    9900012    2    1    2    0    0 -0.17851509277E+02  0.10379141520E+02  0.24296444129E+02  0.59301950394E+02  0.50000011611E+02 0.  0.
         12    1    1    2    0    0  0.17851509277E+02 -0.10379141520E+02 -0.24296444129E+02  0.31886049606E+02  0.00000000000E+00 0. -1.
         11    1    3    3    0    0 -0.89733331345E+01 -0.11188941724E+02  0.17443608653E+02  0.22583015909E+02  0.51100000000E-03 0. -1.
        -11    1    3    3    0    0 -0.10873324075E+02  0.16992631194E+02 -0.75001224948E+01  0.21522790921E+02  0.51100000000E-03 0.  1.
         12    1    3    3    0    0  0.19951479322E+01  0.45754520500E+01  0.14352957970E+02  0.15196143564E+02  0.00000000000E+00 0. -1.
</event>
<event>
 7    1  0.7579108E-012  0.5930192E+02  0.7816164E-02  0.1266605E+00
        -11   -1    0    0    0    0  0.00000000000E+00  0.00000000000E+00  0.45593999997E+02  0.45594000000E+02  0.51100000000E-03 0. -1.
         11   -1    0    0    0    0 -0.00000000000E+00 -0.00000000000E+00 -0.45593999997E+02  0.45594000000E+02  0.51100000000E-03 0.  1.
    9900012    2    1    2    0    0  0.21245938886E+02  0.23533413346E+02  0.33927362922E+01  0.59301919614E+02  0.49999955476E+02 0.  0.
         12    1    1    2    0    0 -0.21245938886E+02 -0.23533413346E+02 -0.33927362922E+01  0.31886080386E+02  0.00000000000E+00 0. -1.
         11    1    3    3    0    0  0.46482219785E+01  0.96073585248E+01  0.17985662604E+02  0.20913903627E+02  0.51100000000E-03 0. -1.
        -11    1    3    3    0    0  0.21058469849E+02  0.18203836712E+02 -0.72000735306E+01  0.28752041363E+02  0.51100000000E-03 0.  1.
         12    1    3    3    0    0 -0.44607529415E+01 -0.42777818918E+01 -0.73928527808E+01  0.96359746242E+01  0.00000000000E+00 0. -1.
</event>
<event>
 7    1  0.7579108E-012  0.5930213E+02  0.7816164E-02  0.1266604E+00
        -11   -1    0    0    0    0  0.00000000000E+00  0.00000000000E+00  0.45593999997E+02  0.45594000000E+02  0.51100000000E-03 0. -1.
         11   -1    0    0    0    0 -0.00000000000E+00 -0.00000000000E+00 -0.45593999997E+02  0.45594000000E+02  0.51100000000E-03 0.  1.
    9900012    2    1    2    0    0 -0.12672708407E+02  0.25976631465E+02  0.13465718364E+02  0.59302133355E+02  0.50000345287E+02 0.  0.
         12    1    1    2    0    0  0.12672708407E+02 -0.25976631465E+02 -0.13465718364E+02  0.31885866645E+02  0.00000000000E+00 0. -1.
         11    1    3    3    0    0  0.14864487876E+01  0.95787641686E+01  0.27548497811E+02  0.29204143283E+02  0.51100000000E-03 0. -1.
        -11    1    3    3    0    0 -0.77727719607E+01 -0.84796154415E+00 -0.66427272084E+01  0.10259670938E+02  0.51100000000E-03 0.  1.
        -12    1    3    3    0    0 -0.63863852344E+01  0.17245828840E+02 -0.74400522390E+01  0.19838319134E+02  0.00000000000E+00 0.  1.
</event>
<event>
 7    1  0.7579108E-012  0.5930195E+02  0.7816164E-02  0.1266605E+00
        -11   -1    0    0    0    0  0.00000000000E+00  0.00000000000E+00  0.45593999997E+02  0.45594000000E+02  0.51100000000E-03 0.  1.
         11   -1    0    0    0    0 -0.00000000000E+00 -0.00000000000E+00 -0.45593999997E+02  0.45594000000E+02  0.51100000000E-03 0. -1.
    9900012    2    1    2    0    0 -0.14274637557E+02 -0.19282902957E+02  0.21002971294E+02  0.59301946199E+02  0.50000003959E+02 0.  0.
         12    1    1    2    0    0  0.14274637557E+02  0.19282902957E+02 -0.21002971294E+02  0.31886053801E+02  0.00000000000E+00 0. -1.
         11    1    3    3    0    0  0.81003631823E+01 -0.18346216362E+02 -0.29605056606E+01  0.20272250307E+02  0.51100000000E-03 0. -1.
        -11    1    3    3    0    0 -0.19712774528E+02 -0.24531802667E+00  0.56459868777E+01  0.20506848334E+02  0.51100000000E-03 0.  1.
        -12    1    3    3    0    0 -0.26622262116E+01 -0.69136856821E+00  0.18317490077E+02  0.18522847557E+02  0.00000000000E+00 0.  1.
</event>
<event>
 7    1  0.7579108E-012  0.5930194E+02  0.7816164E-02  0.1266605E+00
        -11   -1    0    0    0    0  0.00000000000E+00  0.00000000000E+00  0.45593999997E+02  0.45594000000E+02  0.51100000000E-03 0.  1.
         11   -1    0    0    0    0 -0.00000000000E+00 -0.00000000000E+00 -0.45593999997E+02  0.45594000000E+02  0.51100000000E-03 0. -1.
    9900012    2    1    2    0    0 -0.15013252571E+02 -0.38677914015E+01  0.27863301233E+02  0.59301935353E+02  0.49999984179E+02 0.  0.
         12    1    1    2    0    0  0.15013252571E+02  0.38677914015E+01 -0.27863301233E+02  0.31886064647E+02  0.00000000000E+00 0. -1.
         11    1    3    3    0    0  0.71804385856E+01  0.95329184587E+01 -0.57646076992E+01  0.13253902626E+02  0.51100000000E-03 0. -1.
        -11    1    3    3    0    0 -0.78322516715E+01 -0.80390896854E+01  0.27201135648E+02  0.29425718514E+02  0.51100000000E-03 0.  1.
         12    1    3    3    0    0 -0.14361439485E+02 -0.53616201748E+01  0.64267732841E+01  0.16622314214E+02  0.00000000000E+00 0. -1.
</event>
<event>
 7    1  0.7579108E-012  0.5930194E+02  0.7816164E-02  0.1266605E+00
        -11   -1    0    0    0    0  0.00000000000E+00  0.00000000000E+00  0.45593999997E+02  0.45594000000E+02  0.51100000000E-03 0.  1.
         11   -1    0    0    0    0 -0.00000000000E+00 -0.00000000000E+00 -0.45593999997E+02  0.45594000000E+02  0.51100000000E-03 0. -1.
    9900012    2    1    2    0    0 -0.31597038927E+02 -0.22876020106E+01 -0.36214319949E+01  0.59301940952E+02  0.49999994391E+02 0.  0.
         12    1    1    2    0    0  0.31597038927E+02  0.22876020106E+01  0.36214319949E+01  0.31886059048E+02  0.00000000000E+00 0. -1.
         11    1    3    3    0    0 -0.25966782774E+01 -0.77116674157E+01  0.19136909448E+02  0.20795044022E+02  0.51100000000E-03 0. -1.
        -11    1    3    3    0    0 -0.12723388797E+02  0.35597663207E+00 -0.44334746217E+01  0.13478391570E+02  0.51100000000E-03 0.  1.
         12    1    3    3    0    0 -0.16276971853E+02  0.50680887730E+01 -0.18324866821E+02  0.25028505359E+02  0.00000000000E+00 0. -1.
</event>
<event>
 7    1  0.7579108E-012  0.5930194E+02  0.7816164E-02  0.1266605E+00
        -11   -1    0    0    0    0  0.00000000000E+00  0.00000000000E+00  0.45593999997E+02  0.45594000000E+02  0.51100000000E-03 0.  1.
         11   -1    0    0    0    0 -0.00000000000E+00 -0.00000000000E+00 -0.45593999997E+02  0.45594000000E+02  0.51100000000E-03 0. -1.
    9900012    2    1    2    0    0 -0.13844051362E+02 -0.26702164753E+02  0.10585719319E+02  0.59301940129E+02  0.49999992889E+02 0.  0.
         12    1    1    2    0    0  0.13844051362E+02  0.26702164753E+02 -0.10585719319E+02  0.31886059871E+02  0.00000000000E+00 0. -1.
         11    1    3    3    0    0  0.82015247492E+01 -0.57185279357E+01  0.52880488957E+01  0.11310615869E+02  0.51100000000E-03 0. -1.
        -11    1    3    3    0    0 -0.16193686316E+02  0.62568569006E+01 -0.53470035396E+01  0.18165191490E+02  0.51100000000E-03 0.  1.
         12    1    3    3    0    0 -0.58518897951E+01 -0.27240493718E+02  0.10644673963E+02  0.29826132769E+02  0.00000000000E+00 0. -1.
</event>
<event>
 7    1  0.7579108E-012  0.5930194E+02  0.7816164E-02  0.1266605E+00
        -11   -1    0    0    0    0  0.00000000000E+00  0.00000000000E+00  0.45593999997E+02  0.45594000000E+02  0.51100000000E-03 0.  1.
         11   -1    0    0    0    0 -0.00000000000E+00 -0.00000000000E+00 -0.45593999997E+02  0.45594000000E+02  0.51100000000E-03 0. -1.
    9900012    2    1    2    0    0 -0.97595013153E+01 -0.61816882102E+01  0.29719683030E+02  0.59301942005E+02  0.49999996311E+02 0.  0.
         12    1    1    2    0    0  0.97595013153E+01  0.61816882102E+01 -0.29719683030E+02  0.31886057995E+02  0.00000000000E+00 0. -1.
         11    1    3    3    0    0 -0.19378506103E+02  0.12009188066E+02  0.10233741878E+02  0.24989529205E+02  0.51100000000E-03 0. -1.
        -11    1    3    3    0    0  0.49717972935E+01  0.11739249714E+01  0.11991476399E+02  0.13034276913E+02  0.51100000000E-03 0.  1.
         12    1    3    3    0    0  0.46472074945E+01 -0.19364801248E+02  0.74944647531E+01  0.21278135887E+02  0.00000000000E+00 0. -1.
</event>
<event>
 7    1  0.7579108E-012  0.5930194E+02  0.7816164E-02  0.1266605E+00
        -11   -1    0    0    0    0  0.00000000000E+00  0.00000000000E+00  0.45593999997E+02  0.45594000000E+02  0.51100000000E-03 0.  1.
         11   -1    0    0    0    0 -0.00000000000E+00 -0.00000000000E+00 -0.45593999997E+02  0.45594000000E+02  0.51100000000E-03 0. -1.
    9900012    2    1    2    0    0 -0.65828797910E+01 -0.40706004361E+01  0.30932450134E+02  0.59301944026E+02  0.49999999997E+02 0.  0.
         12    1    1    2    0    0  0.65828797910E+01  0.40706004361E+01 -0.30932450134E+02  0.31886055974E+02  0.00000000000E+00 0. -1.
         11    1    3    3    0    0 -0.19191091048E+02 -0.33588335906E+01  0.12411737408E+02  0.23100453772E+02  0.51100000000E-03 0. -1.
        -11    1    3    3    0    0  0.14085838859E+02 -0.10541670235E+02  0.19439327595E+02  0.26218793361E+02  0.51100000000E-03 0.  1.
        -12    1    3    3    0    0 -0.14776276017E+01  0.98299033897E+01 -0.91861486940E+00  0.99826968930E+01  0.00000000000E+00 0.  1.
</event>
<event>
 7    1  0.7579108E-012  0.5930194E+02  0.7816164E-02  0.1266605E+00
        -11   -1    0    0    0    0  0.00000000000E+00  0.00000000000E+00  0.45593999997E+02  0.45594000000E+02  0.51100000000E-03 0.  1.
         11   -1    0    0    0    0 -0.00000000000E+00 -0.00000000000E+00 -0.45593999997E+02  0.45594000000E+02  0.51100000000E-03 0. -1.
    9900012    2    1    2    0    0 -0.30719774413E+02 -0.83819381434E+01  0.16611413731E+01  0.59301940072E+02  0.49999992786E+02 0.  0.
         12    1    1    2    0    0  0.30719774413E+02  0.83819381434E+01 -0.16611413731E+01  0.31886059928E+02  0.00000000000E+00 0. -1.
         11    1    3    3    0    0  0.74342867611E+01 -0.18312528619E+01  0.90187114246E+01  0.11830437976E+02  0.51100000000E-03 0. -1.
        -11    1    3    3    0    0 -0.24952928791E+02  0.51592977134E+01  0.49500270810E+01  0.25957075654E+02  0.51100000000E-03 0.  1.
         12    1    3    3    0    0 -0.13201132383E+02 -0.11709982995E+02 -0.12307597132E+02  0.21514426442E+02  0.00000000000E+00 0. -1.
</event>
<event>
 7    1  0.7579108E-012  0.5930195E+02  0.7816164E-02  0.1266605E+00
        -11   -1    0    0    0    0  0.00000000000E+00  0.00000000000E+00  0.45593999997E+02  0.45594000000E+02  0.51100000000E-03 0.  1.
         11   -1    0    0    0    0 -0.00000000000E+00 -0.00000000000E+00 -0.45593999997E+02  0.45594000000E+02  0.51100000000E-03 0. -1.
    9900012    2    1    2    0    0 -0.10814816782E+01 -0.20970639575E+02  0.23995476384E+02  0.59301949543E+02  0.50000010059E+02 0.  0.
         12    1    1    2    0    0  0.10814816782E+01  0.20970639575E+02 -0.23995476384E+02  0.31886050457E+02  0.00000000000E+00 0. -1.
         11    1    3    3    0    0  0.79787196027E+01  0.72172452857E+01 -0.67121380820E+01  0.12680748949E+02  0.51100000000E-03 0. -1.
        -11    1    3    3    0    0 -0.67732923013E+01 -0.10739014281E+02  0.25138561275E+02  0.28162939825E+02  0.51100000000E-03 0.  1.
         12    1    3    3    0    0 -0.22869089795E+01 -0.17448870580E+02  0.55690531912E+01  0.18458260770E+02  0.00000000000E+00 0. -1.
</event>
<event>
 7    1  0.7579108E-012  0.5930176E+02  0.7816164E-02  0.1266605E+00
        -11   -1    0    0    0    0  0.00000000000E+00  0.00000000000E+00  0.45593999997E+02  0.45594000000E+02  0.51100000000E-03 0.  1.
         11   -1    0    0    0    0 -0.00000000000E+00 -0.00000000000E+00 -0.45593999997E+02  0.45594000000E+02  0.51100000000E-03 0. -1.
    9900012    2    1    2    0    0 -0.74116901212E+00  0.12728531627E+02  0.29226145841E+02  0.59301757675E+02  0.49999660136E+02 0.  0.
         12    1    1    2    0    0  0.74116901212E+00 -0.12728531627E+02 -0.29226145841E+02  0.31886242325E+02  0.00000000000E+00 0. -1.
         11    1    3    3    0    0  0.42147442370E+00  0.20440248304E+02  0.15082570791E+02  0.25406009788E+02  0.51100000000E-03 0.  1.
        -11    1    3    3    0    0  0.40101920125E+01 -0.18012589055E+02  0.12412516647E+02  0.22239729634E+02  0.51100000000E-03 0. -1.
         12    1    3    3    0    0 -0.51728354483E+01  0.10300872378E+02  0.17310584034E+01  0.11656018253E+02  0.00000000000E+00 0. -1.
</event>
<event>
 7    1  0.7579108E-012  0.5930191E+02  0.7816164E-02  0.1266605E+00
        -11   -1    0    0    0    0  0.00000000000E+00  0.00000000000E+00  0.45593999997E+02  0.45594000000E+02  0.51100000000E-03 0.  1.
         11   -1    0    0    0    0 -0.00000000000E+00 -0.00000000000E+00 -0.45593999997E+02  0.45594000000E+02  0.51100000000E-03 0. -1.
    9900012    2    1    2    0    0  0.22501979975E+02 -0.22444028190E+02 -0.25786582069E+01  0.59301906129E+02  0.49999930882E+02 0.  0.
         12    1    1    2    0    0 -0.22501979975E+02  0.22444028190E+02  0.25786582069E+01  0.31886093871E+02  0.00000000000E+00 0. -1.
         11    1    3    3    0    0  0.27419530292E+02 -0.81032990135E+01 -0.16024324628E+02  0.32776105266E+02  0.51100000000E-03 0. -1.
        -11    1    3    3    0    0  0.22531759610E+01 -0.10509584204E+02  0.14792350284E+02  0.18285015429E+02  0.51100000000E-03 0.  1.
         12    1    3    3    0    0 -0.71707262779E+01 -0.38311449725E+01 -0.13466838625E+01  0.82407854345E+01  0.00000000000E+00 0. -1.
</event>
<event>
 7    1  0.7579108E-012  0.5930194E+02  0.7816164E-02  0.1266605E+00
        -11   -1    0    0    0    0  0.00000000000E+00  0.00000000000E+00  0.45593999997E+02  0.45594000000E+02  0.51100000000E-03 0.  1.
         11   -1    0    0    0    0 -0.00000000000E+00 -0.00000000000E+00 -0.45593999997E+02  0.45594000000E+02  0.51100000000E-03 0. -1.
    9900012    2    1    2    0    0  0.11202412545E+01 -0.29514202362E+02  0.12015729556E+02  0.59301939750E+02  0.49999992198E+02 0.  0.
         12    1    1    2    0    0 -0.11202412545E+01  0.29514202362E+02 -0.12015729556E+02  0.31886060250E+02  0.00000000000E+00 0. -1.
         11    1    3    3    0    0 -0.92414262881E+01  0.42109513503E+01 -0.11406468676E+02  0.15272314789E+02  0.51100000000E-03 0. -1.
        -11    1    3    3    0    0  0.84183948082E+01 -0.13751363625E+02  0.15765747709E+02  0.22550569256E+02  0.51100000000E-03 0.  1.
         12    1    3    3    0    0  0.19432727344E+01 -0.19973790087E+02  0.76564505225E+01  0.21479055705E+02  0.00000000000E+00 0. -1.
</event>
<event>
 7    1  0.7579108E-012  0.5930195E+02  0.7816164E-02  0.1266605E+00
        -11   -1    0    0    0    0  0.00000000000E+00  0.00000000000E+00  0.45593999997E+02  0.45594000000E+02  0.51100000000E-03 0.  1.
         11   -1    0    0    0    0 -0.00000000000E+00 -0.00000000000E+00 -0.45593999997E+02  0.45594000000E+02  0.51100000000E-03 0. -1.
    9900012    2    1    2    0    0  0.88596812263E+01  0.10715891375E+02  0.28694879610E+02  0.59301946697E+02  0.50000004868E+02 0.  0.
         12    1    1    2    0    0 -0.88596812263E+01 -0.10715891375E+02 -0.28694879610E+02  0.31886053303E+02  0.00000000000E+00 0. -1.
         11    1    3    3    0    0  0.89267920977E+01  0.86195791761E+01 -0.64887975658E+01  0.14003187367E+02  0.51100000000E-03 0. -1.
        -11    1    3    3    0    0 -0.13960000559E+02 -0.90705045164E+00  0.14025851395E+02  0.19809817357E+02  0.51100000000E-03 0.  1.
        -12    1    3    3    0    0  0.13892889687E+02  0.30033626509E+01  0.21157825781E+02  0.25488941973E+02  0.00000000000E+00 0.  1.
</event>
<event>
 7    1  0.7579108E-012  0.5930193E+02  0.7816164E-02  0.1266605E+00
        -11   -1    0    0    0    0  0.00000000000E+00  0.00000000000E+00  0.45593999997E+02  0.45594000000E+02  0.51100000000E-03 0.  1.
         11   -1    0    0    0    0 -0.00000000000E+00 -0.00000000000E+00 -0.45593999997E+02  0.45594000000E+02  0.51100000000E-03 0. -1.
    9900012    2    1    2    0    0 -0.27449110193E+02  0.14099179637E+02  0.80299883625E+01  0.59301933609E+02  0.49999980998E+02 0.  0.
         12    1    1    2    0    0  0.27449110193E+02 -0.14099179637E+02 -0.80299883625E+01  0.31886066391E+02  0.00000000000E+00 0. -1.
         11    1    3    3    0    0 -0.10281253811E+02  0.43086004948E+01 -0.13576946264E+02  0.17567062597E+02  0.51100000000E-03 0. -1.
        -11    1    3    3    0    0 -0.22247117412E+02  0.14614556438E+02  0.10522322264E+02  0.28622347197E+02  0.51100000000E-03 0.  1.
         12    1    3    3    0    0  0.50792610302E+01 -0.48239772956E+01  0.11084612362E+02  0.13112523814E+02  0.00000000000E+00 0. -1.
</event>
<event>
 7    1  0.7579108E-012  0.5930177E+02  0.7816164E-02  0.1266605E+00
        -11   -1    0    0    0    0  0.00000000000E+00  0.00000000000E+00  0.45593999997E+02  0.45594000000E+02  0.51100000000E-03 0.  1.
         11   -1    0    0    0    0 -0.00000000000E+00 -0.00000000000E+00 -0.45593999997E+02  0.45594000000E+02  0.51100000000E-03 0. -1.
    9900012    2    1    2    0    0  0.23456761154E+02  0.20417701485E+02  0.70448064906E+01  0.59301772938E+02  0.49999687973E+02 0.  0.
         12    1    1    2    0    0 -0.23456761154E+02 -0.20417701485E+02 -0.70448064906E+01  0.31886227062E+02  0.00000000000E+00 0. -1.
         11    1    3    3    0    0 -0.58077006703E+01  0.90213351073E+00 -0.34223353111E+01  0.68011477847E+01  0.51100000000E-03 0. -1.
        -11    1    3    3    0    0  0.28840197054E+02 -0.20670137487E+01  0.10063128704E+01  0.28931681213E+02  0.51100000000E-03 0.  1.
        -12    1    3    3    0    0  0.42426476995E+00  0.21582581723E+02  0.94608289313E+01  0.23568943941E+02  0.00000000000E+00 0.  1.
</event>
<event>
 7    1  0.7579108E-012  0.5930199E+02  0.7816164E-02  0.1266605E+00
        -11   -1    0    0    0    0  0.00000000000E+00  0.00000000000E+00  0.45593999997E+02  0.45594000000E+02  0.51100000000E-03 0.  1.
         11   -1    0    0    0    0 -0.00000000000E+00 -0.00000000000E+00 -0.45593999997E+02  0.45594000000E+02  0.51100000000E-03 0. -1.
    9900012    2    1    2    0    0  0.66137204621E+00  0.18164220984E+02  0.26198120247E+02  0.59301986744E+02  0.50000077904E+02 0.  0.
         12    1    1    2    0    0 -0.66137204621E+00 -0.18164220984E+02 -0.26198120247E+02  0.31886013256E+02  0.00000000000E+00 0. -1.
         11    1    3    3    0    0 -0.12004001556E+02  0.26723539938E+02  0.28453381128E+02  0.40839178959E+02  0.51100000000E-03 0. -1.
        -11    1    3    3    0    0  0.99990496219E+01 -0.27424910577E+01 -0.49869520016E+01  0.11505300564E+02  0.51100000000E-03 0.  1.
        -12    1    3    3    0    0  0.26663239806E+01 -0.58168278966E+01  0.27316911206E+01  0.69575072207E+01  0.00000000000E+00 0.  1.
</event>
<event>
 7    1  0.7579108E-012  0.5930195E+02  0.7816164E-02  0.1266605E+00
        -11   -1    0    0    0    0  0.00000000000E+00  0.00000000000E+00  0.45593999997E+02  0.45594000000E+02  0.51100000000E-03 0. -1.
         11   -1    0    0    0    0 -0.00000000000E+00 -0.00000000000E+00 -0.45593999997E+02  0.45594000000E+02  0.51100000000E-03 0.  1.
    9900012    2    1    2    0    0  0.29186165444E+02 -0.12809438817E+02 -0.89783410641E+00  0.59301951606E+02  0.50000013820E+02 0.  0.
         12    1    1    2    0    0 -0.29186165444E+02  0.12809438817E+02  0.89783410641E+00  0.31886048394E+02  0.00000000000E+00 0. -1.
         11    1    3    3    0    0  0.84034352745E+01 -0.12272714137E+01  0.45172842909E+01  0.96192399471E+01  0.51100000000E-03 0. -1.
        -11    1    3    3    0    0 -0.31213975527E+01 -0.13540177033E+02 -0.17886651289E+02  0.22649764047E+02  0.51100000000E-03 0.  1.
        -12    1    3    3    0    0  0.23904127722E+02  0.19580096301E+01  0.12471532892E+02  0.27032947611E+02  0.00000000000E+00 0.  1.
</event>
<event>
 7    1  0.7579108E-012  0.5930197E+02  0.7816164E-02  0.1266605E+00
        -11   -1    0    0    0    0  0.00000000000E+00  0.00000000000E+00  0.45593999997E+02  0.45594000000E+02  0.51100000000E-03 0. -1.
         11   -1    0    0    0    0 -0.00000000000E+00 -0.00000000000E+00 -0.45593999997E+02  0.45594000000E+02  0.51100000000E-03 0.  1.
    9900012    2    1    2    0    0  0.31569983974E+01 -0.11366050607E+02 -0.29623731462E+02  0.59301965266E+02  0.50000038734E+02 0.  0.
         12    1    1    2    0    0 -0.31569983974E+01  0.11366050607E+02  0.29623731462E+02  0.31886034734E+02  0.00000000000E+00 0. -1.
         11    1    3    3    0    0 -0.11940578777E+02  0.11329196094E+02 -0.12568050996E+02  0.20709515005E+02  0.51100000000E-03 0.  1.
        -11    1    3    3    0    0  0.16959094208E+02 -0.11317368924E+02 -0.17763808395E+02  0.27041571786E+02  0.51100000000E-03 0. -1.
        -12    1    3    3    0    0 -0.18615170338E+01 -0.11377877777E+02  0.70812792892E+00  0.11550878475E+02  0.00000000000E+00 0.  1.
</event>
<event>
 7    1  0.7579108E-012  0.5930194E+02  0.7816164E-02  0.1266605E+00
        -11   -1    0    0    0    0  0.00000000000E+00  0.00000000000E+00  0.45593999997E+02  0.45594000000E+02  0.51100000000E-03 0. -1.
         11   -1    0    0    0    0 -0.00000000000E+00 -0.00000000000E+00 -0.45593999997E+02  0.45594000000E+02  0.51100000000E-03 0.  1.
    9900012    2    1    2    0    0 -0.11407534777E+02  0.11707014952E+02 -0.27377628659E+02  0.59301943490E+02  0.49999999019E+02 0.  0.
         12    1    1    2    0    0  0.11407534777E+02 -0.11707014952E+02  0.27377628659E+02  0.31886056510E+02  0.00000000000E+00 0. -1.
         11    1    3    3    0    0 -0.18706197678E+02  0.10503341220E+02 -0.13567510603E+02  0.25383446428E+02  0.51100000000E-03 0. -1.
        -11    1    3    3    0    0  0.13790580095E+02  0.55858498897E+01 -0.19288365902E+02  0.24360272531E+02  0.51100000000E-03 0.  1.
         12    1    3    3    0    0 -0.64919171938E+01 -0.43821761578E+01  0.54782478454E+01  0.95582245310E+01  0.00000000000E+00 0. -1.
</event>
<event>
 7    1  0.7579108E-012  0.5930200E+02  0.7816164E-02  0.1266605E+00
        -11   -1    0    0    0    0  0.00000000000E+00  0.00000000000E+00  0.45593999997E+02  0.45594000000E+02  0.51100000000E-03 0.  1.
         11   -1    0    0    0    0 -0.00000000000E+00 -0.00000000000E+00 -0.45593999997E+02  0.45594000000E+02  0.51100000000E-03 0. -1.
    9900012    2    1    2    0    0  0.46309172749E+00  0.17780922192E+02  0.26463959875E+02  0.59302002757E+02  0.50000107107E+02 0.  0.
         12    1    1    2    0    0 -0.46309172749E+00 -0.17780922192E+02 -0.26463959875E+02  0.31885997243E+02  0.00000000000E+00 0. -1.
         11    1    3    3    0    0 -0.86338751333E+01 -0.14443618521E+02  0.12075506223E+02  0.20711826732E+02  0.51100000000E-03 0. -1.
        -11    1    3    3    0    0  0.99133130902E+01  0.13766152379E+02  0.96462055740E+01  0.19514866384E+02  0.51100000000E-03 0.  1.
         12    1    3    3    0    0 -0.81634622945E+00  0.18458388333E+02  0.47422480785E+01  0.19075309640E+02  0.00000000000E+00 0. -1.
</event>
<event>
 7    1  0.7579108E-012  0.5930195E+02  0.7816164E-02  0.1266605E+00
        -11   -1    0    0    0    0  0.00000000000E+00  0.00000000000E+00  0.45593999997E+02  0.45594000000E+02  0.51100000000E-03 0.  1.
         11   -1    0    0    0    0 -0.00000000000E+00 -0.00000000000E+00 -0.45593999997E+02  0.45594000000E+02  0.51100000000E-03 0. -1.
    9900012    2    1    2    0    0 -0.23059809366E+02  0.17901143575E+02  0.12826319077E+02  0.59301949596E+02  0.50000010156E+02 0.  0.
         12    1    1    2    0    0  0.23059809366E+02 -0.17901143575E+02 -0.12826319077E+02  0.31886050404E+02  0.00000000000E+00 0. -1.
         11    1    3    3    0    0 -0.58753125895E+01  0.71973054650E+01 -0.15140405790E+02  0.17763794407E+02  0.51100000000E-03 0. -1.
        -11    1    3    3    0    0 -0.48528683982E+01  0.22429267869E+01  0.25893929347E+02  0.26440057291E+02  0.51100000000E-03 0.  1.
         12    1    3    3    0    0 -0.12331628378E+02  0.84609113229E+01  0.20727955199E+01  0.15098097898E+02  0.00000000000E+00 0. -1.
</event>
<event>
 7    1  0.7579108E-012  0.5930193E+02  0.7816164E-02  0.1266605E+00
        -11   -1    0    0    0    0  0.00000000000E+00  0.00000000000E+00  0.45593999997E+02  0.45594000000E+02  0.51100000000E-03 0.  1.
         11   -1    0    0    0    0 -0.00000000000E+00 -0.00000000000E+00 -0.45593999997E+02  0.45594000000E+02  0.51100000000E-03 0. -1.
    9900012    2    1    2    0    0  0.72405952290E+01 -0.23786052160E+02  0.19962936472E+02  0.59301932052E+02  0.49999978159E+02 0.  0.
         12    1    1    2    0    0 -0.72405952290E+01  0.23786052160E+02 -0.19962936472E+02  0.31886067948E+02  0.00000000000E+00 0. -1.
         11    1    3    3    0    0  0.16751004623E+02 -0.27309248999E+02  0.59886344865E+01  0.32592253374E+02  0.51100000000E-03 0. -1.
        -11    1    3    3    0    0 -0.10680163733E+02  0.26017989618E+01  0.18734870063E+02  0.21721662270E+02  0.51100000000E-03 0.  1.
        -12    1    3    3    0    0  0.11697543395E+01  0.92139787693E+00 -0.47605680780E+01  0.49880164081E+01  0.00000000000E+00 0.  1.
</event>
<event>
 7    1  0.7579108E-012  0.5930193E+02  0.7816164E-02  0.1266605E+00
        -11   -1    0    0    0    0  0.00000000000E+00  0.00000000000E+00  0.45593999997E+02  0.45594000000E+02  0.51100000000E-03 0. -1.
         11   -1    0    0    0    0 -0.00000000000E+00 -0.00000000000E+00 -0.45593999997E+02  0.45594000000E+02  0.51100000000E-03 0.  1.
    9900012    2    1    2    0    0 -0.24161170075E+02 -0.19885516484E+02  0.61258014958E+01  0.59301931738E+02  0.49999977587E+02 0.  0.
         12    1    1    2    0    0  0.24161170075E+02  0.19885516484E+02 -0.61258014958E+01  0.31886068262E+02  0.00000000000E+00 0. -1.
         11    1    3    3    0    0 -0.24022526018E+02  0.11911728727E+01  0.13359295663E+02  0.27513113782E+02  0.51100000000E-03 0. -1.
        -11    1    3    3    0    0 -0.30189970198E+01 -0.13994562159E+02 -0.15107699454E+02  0.20813569999E+02  0.51100000000E-03 0.  1.
        -12    1    3    3    0    0  0.28803529632E+01 -0.70821271972E+01  0.78742052870E+01  0.10975247958E+02  0.00000000000E+00 0.  1.
</event>
<event>
 7    1  0.7579108E-012  0.5930195E+02  0.7816164E-02  0.1266605E+00
        -11   -1    0    0    0    0  0.00000000000E+00  0.00000000000E+00  0.45593999997E+02  0.45594000000E+02  0.51100000000E-03 0.  1.
         11   -1    0    0    0    0 -0.00000000000E+00 -0.00000000000E+00 -0.45593999997E+02  0.45594000000E+02  0.51100000000E-03 0. -1.
    9900012    2    1    2    0    0  0.30509883434E+02  0.64623762851E+01  0.66411697042E+01  0.59301946161E+02  0.50000003890E+02 0.  0.
         12    1    1    2    0    0 -0.30509883434E+02 -0.64623762851E+01 -0.66411697042E+01  0.31886053839E+02  0.00000000000E+00 0. -1.
         11    1    3    3    0    0  0.73745061937E+01  0.20106143196E+02 -0.81638578057E+01  0.22919182148E+02  0.51100000000E-03 0. -1.
        -11    1    3    3    0    0  0.99499791947E+00 -0.73081569542E+01  0.10692257055E+02  0.12989362576E+02  0.51100000000E-03 0.  1.
         12    1    3    3    0    0  0.22140379321E+02 -0.63356099563E+01  0.41127704548E+01  0.23393401437E+02  0.00000000000E+00 0. -1.
</event>
<event>
 7    1  0.7579108E-012  0.5930189E+02  0.7816164E-02  0.1266605E+00
        -11   -1    0    0    0    0  0.00000000000E+00  0.00000000000E+00  0.45593999997E+02  0.45594000000E+02  0.51100000000E-03 0.  1.
         11   -1    0    0    0    0 -0.00000000000E+00 -0.00000000000E+00 -0.45593999997E+02  0.45594000000E+02  0.51100000000E-03 0. -1.
    9900012    2    1    2    0    0  0.31224545475E+02  0.25785696974E+01  0.59247565331E+01  0.59301890143E+02  0.49999901727E+02 0.  0.
         12    1    1    2    0    0 -0.31224545475E+02 -0.25785696974E+01 -0.59247565331E+01  0.31886109857E+02  0.00000000000E+00 0. -1.
         11    1    3    3    0    0  0.17485590899E+01  0.10750169386E+02  0.16784725890E+01  0.11020021380E+02  0.51100000000E-03 0. -1.
        -11    1    3    3    0    0  0.34832968492E+02 -0.15309395046E+02 -0.74573531516E+00  0.38056134749E+02  0.51100000000E-03 0.  1.
        -12    1    3    3    0    0 -0.53569821061E+01  0.71377953566E+01  0.49920192593E+01  0.10225734014E+02  0.00000000000E+00 0.  1.
</event>
<event>
 7    1  0.7579108E-012  0.5930197E+02  0.7816164E-02  0.1266605E+00
        -11   -1    0    0    0    0  0.00000000000E+00  0.00000000000E+00  0.45593999997E+02  0.45594000000E+02  0.51100000000E-03 0. -1.
         11   -1    0    0    0    0 -0.00000000000E+00 -0.00000000000E+00 -0.45593999997E+02  0.45594000000E+02  0.51100000000E-03 0.  1.
    9900012    2    1    2    0    0 -0.16248617214E+02 -0.19081329430E+02 -0.19713047855E+02  0.59301969360E+02  0.50000046201E+02 0.  0.
         12    1    1    2    0    0  0.16248617214E+02  0.19081329430E+02  0.19713047855E+02  0.31886030640E+02  0.00000000000E+00 0. -1.
         11    1    3    3    0    0 -0.11486937748E+02 -0.17465888921E+01  0.69919877191E+01  0.13560538489E+02  0.51100000000E-03 0. -1.
        -11    1    3    3    0    0 -0.38997399636E+01 -0.26989541715E+02 -0.21587771370E+02  0.34780385374E+02  0.51100000000E-03 0.  1.
        -12    1    3    3    0    0 -0.86193950253E+00  0.96548011767E+01 -0.51172642050E+01  0.10961045498E+02  0.00000000000E+00 0.  1.
</event>
<event>
 7    1  0.7579108E-012  0.5930195E+02  0.7816164E-02  0.1266605E+00
        -11   -1    0    0    0    0  0.00000000000E+00  0.00000000000E+00  0.45593999997E+02  0.45594000000E+02  0.51100000000E-03 0. -1.
         11   -1    0    0    0    0 -0.00000000000E+00 -0.00000000000E+00 -0.45593999997E+02  0.45594000000E+02  0.51100000000E-03 0.  1.
    9900012    2    1    2    0    0 -0.75267689015E+01 -0.77284560479E+01 -0.30005648506E+02  0.59301949363E+02  0.50000009730E+02 0.  0.
         12    1    1    2    0    0  0.75267689015E+01  0.77284560479E+01  0.30005648506E+02  0.31886050637E+02  0.00000000000E+00 0. -1.
         11    1    3    3    0    0 -0.18013393785E+02  0.58993287637E+01 -0.16921631797E+02  0.25409172722E+02  0.51100000000E-03 0. -1.
        -11    1    3    3    0    0  0.14778423673E+02 -0.10057785026E+01  0.55147727023E+00  0.14822871655E+02  0.51100000000E-03 0.  1.
        -12    1    3    3    0    0 -0.42917987894E+01 -0.12622006309E+02 -0.13635493979E+02  0.19069904986E+02  0.00000000000E+00 0.  1.
</event>
<event>
 7    1  0.7579108E-012  0.5930192E+02  0.7816164E-02  0.1266605E+00
        -11   -1    0    0    0    0  0.00000000000E+00  0.00000000000E+00  0.45593999997E+02  0.45594000000E+02  0.51100000000E-03 0. -1.
         11   -1    0    0    0    0 -0.00000000000E+00 -0.00000000000E+00 -0.45593999997E+02  0.45594000000E+02  0.51100000000E-03 0.  1.
    9900012    2    1    2    0    0  0.15446935272E+02 -0.44268334935E+01 -0.27541192352E+02  0.59301922470E+02  0.49999960685E+02 0.  0.
         12    1    1    2    0    0 -0.15446935272E+02  0.44268334935E+01  0.27541192352E+02  0.31886077530E+02  0.00000000000E+00 0. -1.
         11    1    3    3    0    0  0.18928561186E+02 -0.58804717759E+01 -0.25057212202E+02  0.31948932072E+02  0.51100000000E-03 0. -1.
        -11    1    3    3    0    0 -0.12357259083E+02  0.70185032113E+01 -0.71223004990E+01  0.15896175768E+02  0.51100000000E-03 0.  1.
         12    1    3    3    0    0  0.88756331689E+01 -0.55648649289E+01  0.46383203499E+01  0.11456814631E+02  0.00000000000E+00 0. -1.
</event>
<event>
 7    1  0.7579108E-012  0.5930191E+02  0.7816164E-02  0.1266605E+00
        -11   -1    0    0    0    0  0.00000000000E+00  0.00000000000E+00  0.45593999997E+02  0.45594000000E+02  0.51100000000E-03 0.  1.
         11   -1    0    0    0    0 -0.00000000000E+00 -0.00000000000E+00 -0.45593999997E+02  0.45594000000E+02  0.51100000000E-03 0. -1.
    9900012    2    1    2    0    0 -0.30855029698E+02 -0.65370055813E+01 -0.46858577159E+01  0.59301912718E+02  0.49999942899E+02 0.  0.
         12    1    1    2    0    0  0.30855029698E+02  0.65370055813E+01  0.46858577159E+01  0.31886087282E+02  0.00000000000E+00 0. -1.
         11    1    3    3    0    0 -0.32685584385E+02 -0.10421703941E+02 -0.13033740559E+02  0.36699287907E+02  0.51100000000E-03 0. -1.
        -11    1    3    3    0    0  0.10871075112E+02  0.15341497909E+01  0.16355497115E+01  0.11099951027E+02  0.51100000000E-03 0.  1.
        -12    1    3    3    0    0 -0.90405204246E+01  0.23505485684E+01  0.67123331317E+01  0.11502673784E+02  0.00000000000E+00 0.  1.
</event>
<event>
 7    1  0.7579108E-012  0.5930193E+02  0.7816164E-02  0.1266605E+00
        -11   -1    0    0    0    0  0.00000000000E+00  0.00000000000E+00  0.45593999997E+02  0.45594000000E+02  0.51100000000E-03 0. -1.
         11   -1    0    0    0    0 -0.00000000000E+00 -0.00000000000E+00 -0.45593999997E+02  0.45594000000E+02  0.51100000000E-03 0.  1.
    9900012    2    1    2    0    0  0.28676229241E+02 -0.13478358445E+02  0.35677561731E+01  0.59301934799E+02  0.49999983170E+02 0.  0.
         12    1    1    2    0    0 -0.28676229241E+02  0.13478358445E+02 -0.35677561731E+01  0.31886065201E+02  0.00000000000E+00 0. -1.
         11    1    3    3    0    0  0.19790284388E+02 -0.22127342139E+00  0.23016931529E+01  0.19924911787E+02  0.51100000000E-03 0. -1.
        -11    1    3    3    0    0 -0.13722641712E+02 -0.27396035405E+01  0.32405055220E+01  0.14363746009E+02  0.51100000000E-03 0.  1.
        -12    1    3    3    0    0  0.22608586565E+02 -0.10517481483E+02 -0.19744425019E+01  0.25013277003E+02  0.00000000000E+00 0.  1.
</event>
<event>
 7    1  0.7579108E-012  0.5930197E+02  0.7816164E-02  0.1266605E+00
        -11   -1    0    0    0    0  0.00000000000E+00  0.00000000000E+00  0.45593999997E+02  0.45594000000E+02  0.51100000000E-03 0.  1.
         11   -1    0    0    0    0 -0.00000000000E+00 -0.00000000000E+00 -0.45593999997E+02  0.45594000000E+02  0.51100000000E-03 0. -1.
    9900012    2    1    2    0    0  0.27900581461E+02 -0.96767319947E+01 -0.12026527944E+02  0.59301969167E+02  0.50000045847E+02 0.  0.
         12    1    1    2    0    0 -0.27900581461E+02  0.96767319947E+01  0.12026527944E+02  0.31886030833E+02  0.00000000000E+00 0. -1.
         11    1    3    3    0    0  0.18142030957E+02  0.14136824992E+02  0.28066332808E+01  0.23170245979E+02  0.51100000000E-03 0.  1.
        -11    1    3    3    0    0  0.12332996001E+02 -0.24967817476E+02 -0.83680546193E+01  0.29077810066E+02  0.51100000000E-03 0. -1.
        -12    1    3    3    0    0 -0.25744454980E+01  0.11542604892E+01 -0.64651066053E+01  0.70539131209E+01  0.00000000000E+00 0.  1.
</event>
<event>
 7    1  0.7579108E-012  0.5930194E+02  0.7816164E-02  0.1266605E+00
        -11   -1    0    0    0    0  0.00000000000E+00  0.00000000000E+00  0.45593999997E+02  0.45594000000E+02  0.51100000000E-03 0.  1.
         11   -1    0    0    0    0 -0.00000000000E+00 -0.00000000000E+00 -0.45593999997E+02  0.45594000000E+02  0.51100000000E-03 0. -1.
    9900012    2    1    2    0    0 -0.15397869163E+02 -0.15458630489E+02  0.23252030134E+02  0.59301944479E+02  0.50000000823E+02 0.  0.
         12    1    1    2    0    0  0.15397869163E+02  0.15458630489E+02 -0.23252030134E+02  0.31886055521E+02  0.00000000000E+00 0. -1.
         11    1    3    3    0    0 -0.85494556197E+01  0.13771573359E+02  0.21304291357E+02  0.26769801170E+02  0.51100000000E-03 0.  1.
        -11    1    3    3    0    0 -0.62263500142E+01 -0.18896692499E+02  0.68971348076E+01  0.21057608855E+02  0.51100000000E-03 0. -1.
        -12    1    3    3    0    0 -0.62206352864E+00 -0.10333511350E+02 -0.49493960311E+01  0.11474534453E+02  0.00000000000E+00 0.  1.
</event>
<event>
 7    1  0.7579108E-012  0.5930195E+02  0.7816164E-02  0.1266605E+00
        -11   -1    0    0    0    0  0.00000000000E+00  0.00000000000E+00  0.45593999997E+02  0.45594000000E+02  0.51100000000E-03 0.  1.
         11   -1    0    0    0    0 -0.00000000000E+00 -0.00000000000E+00 -0.45593999997E+02  0.45594000000E+02  0.51100000000E-03 0. -1.
    9900012    2    1    2    0    0 -0.12756193118E+00  0.10972316861E+02  0.29938475665E+02  0.59301947649E+02  0.50000006605E+02 0.  0.
         12    1    1    2    0    0  0.12756193118E+00 -0.10972316861E+02 -0.29938475665E+02  0.31886052351E+02  0.00000000000E+00 0. -1.
         11    1    3    3    0    0 -0.10354792708E+02  0.23301720255E+02  0.40004962022E+01  0.25810770407E+02  0.51100000000E-03 0. -1.
        -11    1    3    3    0    0  0.77876536119E+01 -0.15392531285E+02  0.20551866089E+02  0.26832010140E+02  0.51100000000E-03 0.  1.
        -12    1    3    3    0    0  0.24395771650E+01  0.30631278915E+01  0.53861133741E+01  0.66591671028E+01  0.00000000000E+00 0.  1.
</event>
<event>
 7    1  0.7579108E-012  0.5930192E+02  0.7816164E-02  0.1266605E+00
        -11   -1    0    0    0    0  0.00000000000E+00  0.00000000000E+00  0.45593999997E+02  0.45594000000E+02  0.51100000000E-03 0.  1.
         11   -1    0    0    0    0 -0.00000000000E+00 -0.00000000000E+00 -0.45593999997E+02  0.45594000000E+02  0.51100000000E-03 0. -1.
    9900012    2    1    2    0    0  0.35857908782E+01 -0.15434190776E+01  0.31646201287E+02  0.59301920050E+02  0.49999956271E+02 0.  0.
         12    1    1    2    0    0 -0.35857908782E+01  0.15434190776E+01 -0.31646201287E+02  0.31886079950E+02  0.00000000000E+00 0. -1.
         11    1    3    3    0    0 -0.10773070369E+01  0.66464406108E+01 -0.48242123471E+01  0.82830422114E+01  0.51100000000E-03 0. -1.
        -11    1    3    3    0    0  0.16126089486E+02 -0.65963422235E+01  0.35326336330E+02  0.39389243857E+02  0.51100000000E-03 0.  1.
        -12    1    3    3    0    0 -0.11462991571E+02 -0.15935174649E+01  0.11440773041E+01  0.11629633982E+02  0.00000000000E+00 0.  1.
</event>
<event>
 7    1  0.7579108E-012  0.5930160E+02  0.7816164E-02  0.1266606E+00
        -11   -1    0    0    0    0  0.00000000000E+00  0.00000000000E+00  0.45593999997E+02  0.45594000000E+02  0.51100000000E-03 0.  1.
         11   -1    0    0    0    0 -0.00000000000E+00 -0.00000000000E+00 -0.45593999997E+02  0.45594000000E+02  0.51100000000E-03 0. -1.
    9900012    2    1    2    0    0  0.31703595826E+02  0.28704758384E+01  0.18398701889E+01  0.59301596281E+02  0.49999365789E+02 0.  0.
         12    1    1    2    0    0 -0.31703595826E+02 -0.28704758384E+01 -0.18398701889E+01  0.31886403719E+02  0.00000000000E+00 0. -1.
         11    1    3    3    0    0  0.56951134558E+00 -0.77550312219E+01  0.12878697395E+02  0.15044125075E+02  0.51100000000E-03 0. -1.
        -11    1    3    3    0    0  0.22202944001E+02 -0.55899304119E+01 -0.11743313701E+02  0.25731759778E+02  0.51100000000E-03 0.  1.
         12    1    3    3    0    0  0.89311404791E+01  0.16215437472E+02  0.70448649443E+00  0.18525711427E+02  0.00000000000E+00 0. -1.
</event>
<event>
 7    1  0.7579108E-012  0.5930193E+02  0.7816164E-02  0.1266605E+00
        -11   -1    0    0    0    0  0.00000000000E+00  0.00000000000E+00  0.45593999997E+02  0.45594000000E+02  0.51100000000E-03 0. -1.
         11   -1    0    0    0    0 -0.00000000000E+00 -0.00000000000E+00 -0.45593999997E+02  0.45594000000E+02  0.51100000000E-03 0.  1.
    9900012    2    1    2    0    0  0.17468115928E+02 -0.17440650263E+02 -0.20184408228E+02  0.59301926376E+02  0.49999967807E+02 0.  0.
         12    1    1    2    0    0 -0.17468115928E+02  0.17440650263E+02  0.20184408228E+02  0.31886073624E+02  0.00000000000E+00 0. -1.
         11    1    3    3    0    0 -0.76760106354E+00 -0.36157752655E+01  0.60566589832E+01  0.70955028337E+01  0.51100000000E-03 0. -1.
        -11    1    3    3    0    0  0.21482977367E+02  0.80966136532E+01 -0.12715322849E+02  0.26244102283E+02  0.51100000000E-03 0.  1.
        -12    1    3    3    0    0 -0.32472603760E+01 -0.21921488651E+02 -0.13525744363E+02  0.25962321259E+02  0.00000000000E+00 0.  1.
</event>
<event>
 7    1  0.7579108E-012  0.5930194E+02  0.7816164E-02  0.1266605E+00
        -11   -1    0    0    0    0  0.00000000000E+00  0.00000000000E+00  0.45593999997E+02  0.45594000000E+02  0.51100000000E-03 0.  1.
         11   -1    0    0    0    0 -0.00000000000E+00 -0.00000000000E+00 -0.45593999997E+02  0.45594000000E+02  0.51100000000E-03 0. -1.
    9900012    2    1    2    0    0  0.80967718206E+00 -0.17602337142E+02  0.26574861897E+02  0.59301935100E+02  0.49999983717E+02 0.  0.
         12    1    1    2    0    0 -0.80967718206E+00  0.17602337142E+02 -0.26574861897E+02  0.31886064900E+02  0.00000000000E+00 0. -1.
         11    1    3    3    0    0  0.85777550156E+01  0.94507030621E+01 -0.15457276869E+01  0.12856241434E+02  0.51100000000E-03 0. -1.
        -11    1    3    3    0    0 -0.29927891184E+01 -0.20272293047E+02  0.31426746349E+02  0.37517503094E+02  0.51100000000E-03 0.  1.
         12    1    3    3    0    0 -0.47752887152E+01 -0.67807471570E+01 -0.33061567648E+01  0.89281905711E+01  0.00000000000E+00 0. -1.
</event>
<event>
 7    1  0.7579108E-012  0.5930197E+02  0.7816164E-02  0.1266605E+00
        -11   -1    0    0    0    0  0.00000000000E+00  0.00000000000E+00  0.45593999997E+02  0.45594000000E+02  0.51100000000E-03 0. -1.
         11   -1    0    0    0    0 -0.00000000000E+00 -0.00000000000E+00 -0.45593999997E+02  0.45594000000E+02  0.51100000000E-03 0.  1.
    9900012    2    1    2    0    0 -0.19944497217E+02 -0.49297822566E+01 -0.24385105797E+02  0.59301966897E+02  0.50000041708E+02 0.  0.
         12    1    1    2    0    0  0.19944497217E+02  0.49297822566E+01  0.24385105797E+02  0.31886033103E+02  0.00000000000E+00 0. -1.
         11    1    3    3    0    0 -0.15124389645E+02 -0.12937459921E+02 -0.11560624057E+02  0.23016799521E+02  0.51100000000E-03 0. -1.
        -11    1    3    3    0    0 -0.81498168154E+01  0.17603405758E+01  0.96318853814E+01  0.12739369267E+02  0.51100000000E-03 0.  1.
        -12    1    3    3    0    0  0.33297092431E+01  0.62473370881E+01 -0.22456367121E+02  0.23545798109E+02  0.00000000000E+00 0.  1.
</event>
<event>
 7    1  0.7579108E-012  0.5930195E+02  0.7816164E-02  0.1266605E+00
        -11   -1    0    0    0    0  0.00000000000E+00  0.00000000000E+00  0.45593999997E+02  0.45594000000E+02  0.51100000000E-03 0.  1.
         11   -1    0    0    0    0 -0.00000000000E+00 -0.00000000000E+00 -0.45593999997E+02  0.45594000000E+02  0.51100000000E-03 0. -1.
    9900012    2    1    2    0    0  0.80705945576E+01 -0.13523405105E+02  0.27725499419E+02  0.59301948188E+02  0.50000007587E+02 0.  0.
         12    1    1    2    0    0 -0.80705945576E+01  0.13523405105E+02 -0.27725499419E+02  0.31886051812E+02  0.00000000000E+00 0. -1.
         11    1    3    3    0    0  0.12571264449E+02  0.36245767112E+01 -0.99782668255E+01  0.16454180481E+02  0.51100000000E-03 0. -1.
        -11    1    3    3    0    0 -0.34851708736E+01 -0.18350583430E+02  0.33444682465E+02  0.38307141811E+02  0.51100000000E-03 0.  1.
         12    1    3    3    0    0 -0.10154990182E+01  0.12026016133E+01  0.42590837788E+01  0.45406258964E+01  0.00000000000E+00 0. -1.
</event>
<event>
 7    1  0.7579108E-012  0.5930193E+02  0.7816164E-02  0.1266605E+00
        -11   -1    0    0    0    0  0.00000000000E+00  0.00000000000E+00  0.45593999997E+02  0.45594000000E+02  0.51100000000E-03 0.  1.
         11   -1    0    0    0    0 -0.00000000000E+00 -0.00000000000E+00 -0.45593999997E+02  0.45594000000E+02  0.51100000000E-03 0. -1.
    9900012    2    1    2    0    0  0.13002630233E+02 -0.22719537576E+02  0.18206474952E+02  0.59301929204E+02  0.49999972965E+02 0.  0.
         12    1    1    2    0    0 -0.13002630233E+02  0.22719537576E+02 -0.18206474952E+02  0.31886070796E+02  0.00000000000E+00 0. -1.
         11    1    3    3    0    0  0.31976225616E+01 -0.28208599320E+02  0.22706392340E+02  0.36352855720E+02  0.51100000000E-03 0. -1.
        -11    1    3    3    0    0  0.64633264778E+01  0.58904318889E+01  0.68514854756E+01  0.11109213765E+02  0.51100000000E-03 0.  1.
         12    1    3    3    0    0  0.33416811933E+01 -0.40137014556E+00 -0.11351402864E+02  0.11839859719E+02  0.00000000000E+00 0. -1.
</event>
<event>
 7    1  0.7579108E-012  0.5930191E+02  0.7816164E-02  0.1266605E+00
        -11   -1    0    0    0    0  0.00000000000E+00  0.00000000000E+00  0.45593999997E+02  0.45594000000E+02  0.51100000000E-03 0.  1.
         11   -1    0    0    0    0 -0.00000000000E+00 -0.00000000000E+00 -0.45593999997E+02  0.45594000000E+02  0.51100000000E-03 0. -1.
    9900012    2    1    2    0    0 -0.59690464029E+01 -0.23013685930E+01  0.31237746267E+02  0.59301912058E+02  0.49999941695E+02 0.  0.
         12    1    1    2    0    0  0.59690464029E+01  0.23013685930E+01 -0.31237746267E+02  0.31886087942E+02  0.00000000000E+00 0. -1.
         11    1    3    3    0    0  0.47853182425E+01 -0.10750268974E+00 -0.42626165646E+01  0.64094249156E+01  0.51100000000E-03 0. -1.
        -11    1    3    3    0    0 -0.15437354132E+00 -0.22111771926E+01  0.40925054170E+02  0.40985036231E+02  0.51100000000E-03 0.  1.
        -12    1    3    3    0    0 -0.10599991104E+02  0.17311289435E-01 -0.54246913384E+01  0.11907450911E+02  0.00000000000E+00 0.  1.
</event>
<event>
 7    1  0.7579108E-012  0.5930191E+02  0.7816164E-02  0.1266605E+00
        -11   -1    0    0    0    0  0.00000000000E+00  0.00000000000E+00  0.45593999997E+02  0.45594000000E+02  0.51100000000E-03 0. -1.
         11   -1    0    0    0    0 -0.00000000000E+00 -0.00000000000E+00 -0.45593999997E+02  0.45594000000E+02  0.51100000000E-03 0.  1.
    9900012    2    1    2    0    0 -0.20692254215E+02 -0.23755372570E+02 -0.49229944748E+01  0.59301906087E+02  0.49999930805E+02 0.  0.
         12    1    1    2    0    0  0.20692254215E+02  0.23755372570E+02  0.49229944748E+01  0.31886093913E+02  0.00000000000E+00 0. -1.
         11    1    3    3    0    0 -0.11399873185E+02 -0.92381557852E+01  0.13893172046E+02  0.20206950802E+02  0.51100000000E-03 0. -1.
        -11    1    3    3    0    0 -0.18805717454E+00 -0.58585158296E+00 -0.22119302741E+02  0.22127858948E+02  0.51100000000E-03 0.  1.
        -12    1    3    3    0    0 -0.91043238554E+01 -0.13931365202E+02  0.33031362207E+01  0.16967096338E+02  0.00000000000E+00 0.  1.
</event>
<event>
 7    1  0.7579108E-012  0.5930195E+02  0.7816164E-02  0.1266605E+00
        -11   -1    0    0    0    0  0.00000000000E+00  0.00000000000E+00  0.45593999997E+02  0.45594000000E+02  0.51100000000E-03 0. -1.
         11   -1    0    0    0    0 -0.00000000000E+00 -0.00000000000E+00 -0.45593999997E+02  0.45594000000E+02  0.51100000000E-03 0.  1.
    9900012    2    1    2    0    0 -0.27133329975E+02  0.16646381629E+02  0.18440186573E+01  0.59301952555E+02  0.50000015552E+02 0.  0.
         12    1    1    2    0    0  0.27133329975E+02 -0.16646381629E+02 -0.18440186573E+01  0.31886047445E+02  0.00000000000E+00 0. -1.
         11    1    3    3    0    0  0.70789751913E+00  0.17621949905E+02 -0.91249395534E+01  0.19856957457E+02  0.51100000000E-03 0.  1.
        -11    1    3    3    0    0 -0.30115004280E+02 -0.40218211904E+01  0.15017820028E+02  0.33891347674E+02  0.51100000000E-03 0. -1.
         12    1    3    3    0    0  0.22737767862E+01  0.30462529146E+01 -0.40488618177E+01  0.55536474242E+01  0.00000000000E+00 0. -1.
</event>
<event>
 7    1  0.7579108E-012  0.5930196E+02  0.7816164E-02  0.1266605E+00
        -11   -1    0    0    0    0  0.00000000000E+00  0.00000000000E+00  0.45593999997E+02  0.45594000000E+02  0.51100000000E-03 0. -1.
         11   -1    0    0    0    0 -0.00000000000E+00 -0.00000000000E+00 -0.45593999997E+02  0.45594000000E+02  0.51100000000E-03 0.  1.
    9900012    2    1    2    0    0  0.14323036641E+02 -0.23336334656E+02 -0.16339704894E+02  0.59301955250E+02  0.50000020466E+02 0.  0.
         12    1    1    2    0    0 -0.14323036641E+02  0.23336334656E+02  0.16339704894E+02  0.31886044750E+02  0.00000000000E+00 0. -1.
         11    1    3    3    0    0 -0.55297869648E+00  0.21538941588E+01 -0.10373128374E+02  0.10608809453E+02  0.51100000000E-03 0. -1.
        -11    1    3    3    0    0 -0.67558898601E+01 -0.11115831202E+02  0.11525762257E+02  0.17379497893E+02  0.51100000000E-03 0.  1.
        -12    1    3    3    0    0  0.21631905197E+02 -0.14374397612E+02 -0.17492338778E+02  0.31313647905E+02  0.00000000000E+00 0.  1.
</event>
<event>
 7    1  0.7579108E-012  0.5930197E+02  0.7816164E-02  0.1266605E+00
        -11   -1    0    0    0    0  0.00000000000E+00  0.00000000000E+00  0.45593999997E+02  0.45594000000E+02  0.51100000000E-03 0. -1.
         11   -1    0    0    0    0 -0.00000000000E+00 -0.00000000000E+00 -0.45593999997E+02  0.45594000000E+02  0.51100000000E-03 0.  1.
    9900012    2    1    2    0    0  0.72430104914E+01  0.23363923534E+02 -0.20454457497E+02  0.59301969275E+02  0.50000046046E+02 0.  0.
         12    1    1    2    0    0 -0.72430104914E+01 -0.23363923534E+02  0.20454457497E+02  0.31886030725E+02  0.00000000000E+00 0. -1.
         11    1    3    3    0    0  0.11836715441E+02 -0.33200578418E+01 -0.74452238739E+01  0.14372264097E+02  0.51100000000E-03 0. -1.
        -11    1    3    3    0    0  0.15783904305E+01  0.25966769843E+02  0.44546615346E+01  0.26393341246E+02  0.51100000000E-03 0.  1.
         12    1    3    3    0    0 -0.61720953797E+01  0.71721153232E+00 -0.17463895158E+02  0.18536363932E+02  0.00000000000E+00 0. -1.
</event>
<event>
 7    1  0.7579108E-012  0.5930215E+02  0.7816164E-02  0.1266604E+00
        -11   -1    0    0    0    0  0.00000000000E+00  0.00000000000E+00  0.45593999997E+02  0.45594000000E+02  0.51100000000E-03 0.  1.
         11   -1    0    0    0    0 -0.00000000000E+00 -0.00000000000E+00 -0.45593999997E+02  0.45594000000E+02  0.51100000000E-03 0. -1.
    9900012    2    1    2    0    0 -0.21364917801E+02  0.25834317276E+01  0.23528145971E+02  0.59302149141E+02  0.50000374077E+02 0.  0.
         12    1    1    2    0    0  0.21364917801E+02 -0.25834317276E+01 -0.23528145971E+02  0.31885850859E+02  0.00000000000E+00 0. -1.
         11    1    3    3    0    0  0.56762688938E+01  0.74423022061E+01 -0.39246982587E+01  0.10149440741E+02  0.51100000000E-03 0. -1.
        -11    1    3    3    0    0 -0.31130196513E+02 -0.15904233375E+01  0.30060697665E+02  0.43304319943E+02  0.51100000000E-03 0.  1.
        -12    1    3    3    0    0  0.40890098182E+01 -0.32684471410E+01 -0.26078534351E+01  0.58483884572E+01  0.00000000000E+00 0.  1.
</event>
<event>
 7    1  0.7579108E-012  0.5930197E+02  0.7816164E-02  0.1266605E+00
        -11   -1    0    0    0    0  0.00000000000E+00  0.00000000000E+00  0.45593999997E+02  0.45594000000E+02  0.51100000000E-03 0.  1.
         11   -1    0    0    0    0 -0.00000000000E+00 -0.00000000000E+00 -0.45593999997E+02  0.45594000000E+02  0.51100000000E-03 0. -1.
    9900012    2    1    2    0    0 -0.13247461066E+01 -0.29040579271E+02  0.13099954474E+02  0.59301968514E+02  0.50000044658E+02 0.  0.
         12    1    1    2    0    0  0.13247461066E+01  0.29040579271E+02 -0.13099954474E+02  0.31886031486E+02  0.00000000000E+00 0. -1.
         11    1    3    3    0    0  0.50489093252E+01  0.10835910789E+02  0.11423966805E+02  0.16535279430E+02  0.51100000000E-03 0.  1.
        -11    1    3    3    0    0 -0.10242388228E+02 -0.35039168762E+02  0.20354240997E+01  0.36562177392E+02  0.51100000000E-03 0. -1.
         12    1    3    3    0    0  0.38687327961E+01 -0.48373212984E+01 -0.35943643041E+00  0.62045116922E+01  0.00000000000E+00 0. -1.
</event>
<event>
 7    1  0.7579108E-012  0.5930190E+02  0.7816164E-02  0.1266605E+00
        -11   -1    0    0    0    0  0.00000000000E+00  0.00000000000E+00  0.45593999997E+02  0.45594000000E+02  0.51100000000E-03 0. -1.
         11   -1    0    0    0    0 -0.00000000000E+00 -0.00000000000E+00 -0.45593999997E+02  0.45594000000E+02  0.51100000000E-03 0.  1.
    9900012    2    1    2    0    0  0.30619578729E+01  0.30228738466E+02 -0.96732162724E+01  0.59301900704E+02  0.49999920987E+02 0.  0.
         12    1    1    2    0    0 -0.30619578729E+01 -0.30228738466E+02  0.96732162724E+01  0.31886099296E+02  0.00000000000E+00 0. -1.
         11    1    3    3    0    0 -0.80136016095E+01  0.31198607997E+02  0.61181596258E+01  0.32787235766E+02  0.51100000000E-03 0. -1.
        -11    1    3    3    0    0  0.15041334911E+02  0.26420793578E+01 -0.14360565634E+02  0.20963019459E+02  0.51100000000E-03 0.  1.
         12    1    3    3    0    0 -0.39657754283E+01 -0.36119488881E+01 -0.14308102638E+01  0.55516454794E+01  0.00000000000E+00 0. -1.
</event>
<event>
 7    1  0.7579108E-012  0.5930194E+02  0.7816164E-02  0.1266605E+00
        -11   -1    0    0    0    0  0.00000000000E+00  0.00000000000E+00  0.45593999997E+02  0.45594000000E+02  0.51100000000E-03 0.  1.
         11   -1    0    0    0    0 -0.00000000000E+00 -0.00000000000E+00 -0.45593999997E+02  0.45594000000E+02  0.51100000000E-03 0. -1.
    9900012    2    1    2    0    0 -0.16390869488E+02  0.41996208526E+01  0.27026342710E+02  0.59301943201E+02  0.49999998493E+02 0.  0.
         12    1    1    2    0    0  0.16390869488E+02 -0.41996208526E+01 -0.27026342710E+02  0.31886056799E+02  0.00000000000E+00 0. -1.
         11    1    3    3    0    0 -0.56191697072E+01  0.67280520621E+01 -0.10241313170E+02  0.13480587838E+02  0.51100000000E-03 0. -1.
        -11    1    3    3    0    0  0.49474264726E+01  0.53001336096E+01  0.19656673853E+02  0.20951211712E+02  0.51100000000E-03 0.  1.
         12    1    3    3    0    0 -0.15719126253E+02 -0.78285648192E+01  0.17610982027E+02  0.24870143652E+02  0.00000000000E+00 0. -1.
</event>
<event>
 7    1  0.7579108E-012  0.5930194E+02  0.7816164E-02  0.1266605E+00
        -11   -1    0    0    0    0  0.00000000000E+00  0.00000000000E+00  0.45593999997E+02  0.45594000000E+02  0.51100000000E-03 0. -1.
         11   -1    0    0    0    0 -0.00000000000E+00 -0.00000000000E+00 -0.45593999997E+02  0.45594000000E+02  0.51100000000E-03 0.  1.
    9900012    2    1    2    0    0 -0.30315721609E+02 -0.94929008699E+01  0.27500719168E+01  0.59301936600E+02  0.49999986454E+02 0.  0.
         12    1    1    2    0    0  0.30315721609E+02  0.94929008699E+01 -0.27500719168E+01  0.31886063400E+02  0.00000000000E+00 0. -1.
         11    1    3    3    0    0 -0.42570610224E+01  0.17213302273E+02  0.69360132423E+01  0.19040184444E+02  0.51100000000E-03 0. -1.
        -11    1    3    3    0    0 -0.64331806119E+01 -0.67252984662E+01  0.52776400132E+01  0.10699015684E+02  0.51100000000E-03 0.  1.
         12    1    3    3    0    0 -0.19625479974E+02 -0.19980904677E+02 -0.94635813387E+01  0.29562736472E+02  0.00000000000E+00 0. -1.
</event>
<event>
 7    1  0.7579108E-012  0.5930195E+02  0.7816164E-02  0.1266605E+00
        -11   -1    0    0    0    0  0.00000000000E+00  0.00000000000E+00  0.45593999997E+02  0.45594000000E+02  0.51100000000E-03 0. -1.
         11   -1    0    0    0    0 -0.00000000000E+00 -0.00000000000E+00 -0.45593999997E+02  0.45594000000E+02  0.51100000000E-03 0.  1.
    9900012    2    1    2    0    0 -0.94886868852E+01 -0.93683554277E+01 -0.28964101896E+02  0.59301945668E+02  0.50000002991E+02 0.  0.
         12    1    1    2    0    0  0.94886868852E+01  0.93683554277E+01  0.28964101896E+02  0.31886054332E+02  0.00000000000E+00 0. -1.
         11    1    3    3    0    0  0.23857572536E+01 -0.15321935311E+02 -0.35758866814E+02  0.38976276059E+02  0.51100000000E-03 0. -1.
        -11    1    3    3    0    0 -0.79082324450E+01 -0.28636661164E+00 -0.26370426086E+01  0.83412313372E+01  0.51100000000E-03 0.  1.
         12    1    3    3    0    0 -0.39662116938E+01  0.62399464950E+01  0.94318075264E+01  0.11984438271E+02  0.00000000000E+00 0. -1.
</event>
<event>
 7    1  0.7579108E-012  0.5930201E+02  0.7816164E-02  0.1266605E+00
        -11   -1    0    0    0    0  0.00000000000E+00  0.00000000000E+00  0.45593999997E+02  0.45594000000E+02  0.51100000000E-03 0.  1.
         11   -1    0    0    0    0 -0.00000000000E+00 -0.00000000000E+00 -0.45593999997E+02  0.45594000000E+02  0.51100000000E-03 0. -1.
    9900012    2    1    2    0    0 -0.28877827046E+02 -0.58443476378E+01  0.12191446919E+02  0.59302005077E+02  0.50000111340E+02 0.  0.
         12    1    1    2    0    0  0.28877827046E+02  0.58443476378E+01 -0.12191446919E+02  0.31885994923E+02  0.00000000000E+00 0. -1.
         11    1    3    3    0    0 -0.34205437021E+02 -0.82843868501E+00  0.18653123663E+01  0.34266275300E+02  0.51100000000E-03 0. -1.
        -11    1    3    3    0    0 -0.37965193186E+01  0.53132789837E+01  0.90982149823E+01  0.11199196785E+02  0.51100000000E-03 0.  1.
         12    1    3    3    0    0  0.91241292934E+01 -0.10329187936E+02  0.12279195706E+01  0.13836532993E+02  0.00000000000E+00 0. -1.
</event>
<event>
 7    1  0.7579108E-012  0.5930193E+02  0.7816164E-02  0.1266605E+00
        -11   -1    0    0    0    0  0.00000000000E+00  0.00000000000E+00  0.45593999997E+02  0.45594000000E+02  0.51100000000E-03 0.  1.
         11   -1    0    0    0    0 -0.00000000000E+00 -0.00000000000E+00 -0.45593999997E+02  0.45594000000E+02  0.51100000000E-03 0. -1.
    9900012    2    1    2    0    0  0.18682629888E+02  0.13095388368E+02  0.22275351626E+02  0.59301934923E+02  0.49999983395E+02 0.  0.
         12    1    1    2    0    0 -0.18682629888E+02 -0.13095388368E+02 -0.22275351626E+02  0.31886065077E+02  0.00000000000E+00 0. -1.
         11    1    3    3    0    0  0.12279716410E+02  0.23286831555E+02 -0.19542394414E+01  0.26398617597E+02  0.51100000000E-03 0. -1.
        -11    1    3    3    0    0  0.11498508804E+02 -0.32315452468E+01  0.75637218003E+01  0.14137484824E+02  0.51100000000E-03 0.  1.
         12    1    3    3    0    0 -0.50955953261E+01 -0.69598979405E+01  0.16665869267E+02  0.18765832502E+02  0.00000000000E+00 0. -1.
</event>
<event>
 7    1  0.7898515E-012  0.5930190E+02  0.7816164E-02  0.1266605E+00
        -11   -1    0    0    0    0  0.00000000000E+00  0.00000000000E+00  0.45593999997E+02  0.45594000000E+02  0.51100000000E-03 0. -1.
         11   -1    0    0    0    0 -0.00000000000E+00 -0.00000000000E+00 -0.45593999997E+02  0.45594000000E+02  0.51100000000E-03 0.  1.
    9900012    2    1    2    0    0  0.56331380059E+01 -0.24710083361E+02 -0.19349488164E+02  0.59301903410E+02  0.49999925924E+02 0.  0.
         12    1    1    2    0    0 -0.56331380059E+01  0.24710083361E+02  0.19349488164E+02  0.31886096590E+02  0.00000000000E+00 0. -1.
         11    1    3    3    0    0  0.15183190570E+02 -0.75912049756E+01 -0.15453240901E+01  0.17045342345E+02  0.51100000000E-03 0. -1.
        -11    1    3    3    0    0 -0.89528217870E+01 -0.20194521537E+02 -0.25624629173E+02  0.33831839125E+02  0.51100000000E-03 0.  1.
        -12    1    3    3    0    0 -0.59723077719E+00  0.30756431514E+01  0.78204650992E+01  0.84247219398E+01  0.00000000000E+00 0.  1.
</event>
<event>
 7    1  0.7579108E-012  0.5930192E+02  0.7816164E-02  0.1266605E+00
        -11   -1    0    0    0    0  0.00000000000E+00  0.00000000000E+00  0.45593999997E+02  0.45594000000E+02  0.51100000000E-03 0.  1.
         11   -1    0    0    0    0 -0.00000000000E+00 -0.00000000000E+00 -0.45593999997E+02  0.45594000000E+02  0.51100000000E-03 0. -1.
    9900012    2    1    2    0    0 -0.25758540077E+02 -0.10934178279E+02  0.15286053217E+02  0.59301920522E+02  0.49999957131E+02 0.  0.
         12    1    1    2    0    0  0.25758540077E+02  0.10934178279E+02 -0.15286053217E+02  0.31886079478E+02  0.00000000000E+00 0. -1.
         11    1    3    3    0    0  0.68947474922E+00  0.92466237084E+01 -0.31628752358E+01  0.97968977464E+01  0.51100000000E-03 0. -1.
        -11    1    3    3    0    0 -0.15445107350E+02 -0.22623904038E+02 -0.56779587418E+00  0.27399174575E+02  0.51100000000E-03 0.  1.
        -12    1    3    3    0    0 -0.11002907476E+02  0.24431020503E+01  0.19016724327E+02  0.22105848201E+02  0.00000000000E+00 0.  1.
</event>
<event>
 7    1  0.7579108E-012  0.5930191E+02  0.7816164E-02  0.1266605E+00
        -11   -1    0    0    0    0  0.00000000000E+00  0.00000000000E+00  0.45593999997E+02  0.45594000000E+02  0.51100000000E-03 0. -1.
         11   -1    0    0    0    0 -0.00000000000E+00 -0.00000000000E+00 -0.45593999997E+02  0.45594000000E+02  0.51100000000E-03 0.  1.
    9900012    2    1    2    0    0 -0.17609541525E+02  0.14324821802E+02 -0.22392544830E+02  0.59301913123E+02  0.49999943636E+02 0.  0.
         12    1    1    2    0    0  0.17609541525E+02 -0.14324821802E+02  0.22392544830E+02  0.31886086877E+02  0.00000000000E+00 0. -1.
         11    1    3    3    0    0  0.76764963187E+01 -0.12007776516E+02 -0.95688166309E+00  0.14283939071E+02  0.51100000000E-03 0. -1.
        -11    1    3    3    0    0 -0.22377515162E+02  0.16404684073E+02 -0.20755388678E+02  0.34650440167E+02  0.51100000000E-03 0.  1.
         12    1    3    3    0    0 -0.29085226816E+01  0.99279142459E+01 -0.68027448897E+00  0.10367533884E+02  0.00000000000E+00 0. -1.
</event>
<event>
 7    1  0.9427289E-012  0.5930193E+02  0.7816164E-02  0.1266605E+00
        -11   -1    0    0    0    0  0.00000000000E+00  0.00000000000E+00  0.45593999997E+02  0.45594000000E+02  0.51100000000E-03 0. -1.
         11   -1    0    0    0    0 -0.00000000000E+00 -0.00000000000E+00 -0.45593999997E+02  0.45594000000E+02  0.51100000000E-03 0.  1.
    9900012    2    1    2    0    0 -0.12480466921E+02  0.27303415421E+02 -0.10746292207E+02  0.59301931813E+02  0.49999977724E+02 0.  0.
         12    1    1    2    0    0  0.12480466921E+02 -0.27303415421E+02  0.10746292207E+02  0.31886068187E+02  0.00000000000E+00 0. -1.
         11    1    3    3    0    0 -0.23702933491E+01 -0.36807544414E+01  0.10335304723E+02  0.11224293644E+02  0.51100000000E-03 0. -1.
        -11    1    3    3    0    0  0.64689397479E+01  0.24001505449E+02 -0.15266038890E+02  0.29171413901E+02  0.51100000000E-03 0.  1.
        -12    1    3    3    0    0 -0.16579113320E+02  0.69826644127E+01 -0.58155580401E+01  0.18906224269E+02  0.00000000000E+00 0.  1.
</event>
<event>
 7    1  0.7579108E-012  0.5930199E+02  0.7816164E-02  0.1266605E+00
        -11   -1    0    0    0    0  0.00000000000E+00  0.00000000000E+00  0.45593999997E+02  0.45594000000E+02  0.51100000000E-03 0. -1.
         11   -1    0    0    0    0 -0.00000000000E+00 -0.00000000000E+00 -0.45593999997E+02  0.45594000000E+02  0.51100000000E-03 0.  1.
    9900012    2    1    2    0    0  0.10477662717E+01  0.29833023129E+02 -0.11207619310E+02  0.59301987177E+02  0.50000078693E+02 0.  0.
         12    1    1    2    0    0 -0.10477662717E+01 -0.29833023129E+02  0.11207619310E+02  0.31886012823E+02  0.00000000000E+00 0. -1.
         11    1    3    3    0    0 -0.40095221501E+01  0.16242051972E+02 -0.23211786205E+02  0.28612366893E+02  0.51100000000E-03 0. -1.
        -11    1    3    3    0    0  0.67037976884E+01  0.16969575497E+02  0.14203440987E+00  0.18246302914E+02  0.51100000000E-03 0.  1.
         12    1    3    3    0    0 -0.16465092666E+01 -0.33786043407E+01  0.11862132485E+02  0.12443317369E+02  0.00000000000E+00 0. -1.
</event>
<event>
 7    1  0.7579108E-012  0.5930191E+02  0.7816164E-02  0.1266605E+00
        -11   -1    0    0    0    0  0.00000000000E+00  0.00000000000E+00  0.45593999997E+02  0.45594000000E+02  0.51100000000E-03 0. -1.
         11   -1    0    0    0    0 -0.00000000000E+00 -0.00000000000E+00 -0.45593999997E+02  0.45594000000E+02  0.51100000000E-03 0.  1.
    9900012    2    1    2    0    0  0.14727389925E+02  0.15560061552E+02 -0.23615915725E+02  0.59301905773E+02  0.49999930233E+02 0.  0.
         12    1    1    2    0    0 -0.14727389925E+02 -0.15560061552E+02  0.23615915725E+02  0.31886094227E+02  0.00000000000E+00 0. -1.
         11    1    3    3    0    0  0.17647523290E+02  0.27816324318E+02 -0.11678775955E+02  0.34951062715E+02  0.51100000000E-03 0. -1.
        -11    1    3    3    0    0 -0.72553168805E+01 -0.33848254129E+01 -0.12060657190E+02  0.14476053269E+02  0.51100000000E-03 0.  1.
        -12    1    3    3    0    0  0.43351835158E+01 -0.88714373533E+01  0.12351742073E+00  0.98747897893E+01  0.00000000000E+00 0.  1.
</event>
<event>
 7    1  0.7579108E-012  0.5930194E+02  0.7816164E-02  0.1266605E+00
        -11   -1    0    0    0    0  0.00000000000E+00  0.00000000000E+00  0.45593999997E+02  0.45594000000E+02  0.51100000000E-03 0.  1.
         11   -1    0    0    0    0 -0.00000000000E+00 -0.00000000000E+00 -0.45593999997E+02  0.45594000000E+02  0.51100000000E-03 0. -1.
    9900012    2    1    2    0    0  0.26982052388E+02  0.66506134793E+01  0.15635190546E+02  0.59301937306E+02  0.49999987741E+02 0.  0.
         12    1    1    2    0    0 -0.26982052388E+02 -0.66506134793E+01 -0.15635190546E+02  0.31886062694E+02  0.00000000000E+00 0. -1.
         11    1    3    3    0    0 -0.14451865115E+02  0.25756233309E+01  0.55913981217E+01  0.15708404567E+02  0.51100000000E-03 0. -1.
        -11    1    3    3    0    0  0.92519365111E+01  0.12009012423E+01  0.58512006857E+01  0.11012585651E+02  0.51100000000E-03 0.  1.
         12    1    3    3    0    0  0.32181980992E+02  0.28740889061E+01  0.41925917382E+01  0.32580947087E+02  0.00000000000E+00 0. -1.
</event>
<event>
 7    1  0.7579108E-012  0.5930191E+02  0.7816164E-02  0.1266605E+00
        -11   -1    0    0    0    0  0.00000000000E+00  0.00000000000E+00  0.45593999997E+02  0.45594000000E+02  0.51100000000E-03 0.  1.
         11   -1    0    0    0    0 -0.00000000000E+00 -0.00000000000E+00 -0.45593999997E+02  0.45594000000E+02  0.51100000000E-03 0. -1.
    9900012    2    1    2    0    0  0.29006456888E+02 -0.40717118098E+01  0.12600377129E+02  0.59301907701E+02  0.49999933749E+02 0.  0.
         12    1    1    2    0    0 -0.29006456888E+02  0.40717118098E+01 -0.12600377129E+02  0.31886092299E+02  0.00000000000E+00 0. -1.
         11    1    3    3    0    0  0.65025884675E+01 -0.85912572241E+01 -0.14297971693E+02  0.17903221840E+02  0.51100000000E-03 0. -1.
        -11    1    3    3    0    0  0.25902997605E+02  0.17971165716E+01  0.18318171964E+02  0.31776568998E+02  0.51100000000E-03 0.  1.
         12    1    3    3    0    0 -0.33991291845E+01  0.27224288427E+01  0.85801768576E+01  0.96221168630E+01  0.00000000000E+00 0. -1.
</event>
<event>
 7    1  0.7579108E-012  0.5930196E+02  0.7816164E-02  0.1266605E+00
        -11   -1    0    0    0    0  0.00000000000E+00  0.00000000000E+00  0.45593999997E+02  0.45594000000E+02  0.51100000000E-03 0.  1.
         11   -1    0    0    0    0 -0.00000000000E+00 -0.00000000000E+00 -0.45593999997E+02  0.45594000000E+02  0.51100000000E-03 0. -1.
    9900012    2    1    2    0    0 -0.15439001250E+00  0.25371109594E+02 -0.19313270354E+02  0.59301961518E+02  0.50000031898E+02 0.  0.
         12    1    1    2    0    0  0.15439001250E+00 -0.25371109594E+02  0.19313270354E+02  0.31886038482E+02  0.00000000000E+00 0. -1.
         11    1    3    3    0    0 -0.14922597724E+02 -0.41401455757E+01 -0.15794050635E+01  0.15566606851E+02  0.51100000000E-03 0. -1.
        -11    1    3    3    0    0  0.99754487139E+01 -0.94898673897E-01 -0.48759988525E+01  0.11103780792E+02  0.51100000000E-03 0.  1.
         12    1    3    3    0    0  0.47927589977E+01  0.29606153844E+02 -0.12857866438E+02  0.32631573875E+02  0.00000000000E+00 0. -1.
</event>
<event>
 7    1  0.7579108E-012  0.5930193E+02  0.7816164E-02  0.1266605E+00
        -11   -1    0    0    0    0  0.00000000000E+00  0.00000000000E+00  0.45593999997E+02  0.45594000000E+02  0.51100000000E-03 0.  1.
         11   -1    0    0    0    0 -0.00000000000E+00 -0.00000000000E+00 -0.45593999997E+02  0.45594000000E+02  0.51100000000E-03 0. -1.
    9900012    2    1    2    0    0  0.15751795026E+02  0.22115521789E+02  0.16718432670E+02  0.59301931859E+02  0.49999977808E+02 0.  0.
         12    1    1    2    0    0 -0.15751795026E+02 -0.22115521789E+02 -0.16718432670E+02  0.31886068141E+02  0.00000000000E+00 0. -1.
         11    1    3    3    0    0  0.20156347119E+01  0.11564917091E+01 -0.87702601089E+01  0.90729112750E+01  0.51100000000E-03 0. -1.
        -11    1    3    3    0    0 -0.82956502712E+01  0.13160521484E+01  0.17868755521E+02  0.19744422777E+02  0.51100000000E-03 0.  1.
        -12    1    3    3    0    0  0.22031810585E+02  0.19642977931E+02  0.76199372581E+01  0.30484597808E+02  0.00000000000E+00 0.  1.
</event>
<event>
 7    1  0.7579108E-012  0.5930195E+02  0.7816164E-02  0.1266605E+00
        -11   -1    0    0    0    0  0.00000000000E+00  0.00000000000E+00  0.45593999997E+02  0.45594000000E+02  0.51100000000E-03 0. -1.
         11   -1    0    0    0    0 -0.00000000000E+00 -0.00000000000E+00 -0.45593999997E+02  0.45594000000E+02  0.51100000000E-03 0.  1.
    9900012    2    1    2    0    0 -0.22767188452E+02 -0.14115541066E+02 -0.17295279123E+02  0.59301952118E+02  0.50000014754E+02 0.  0.
         12    1    1    2    0    0  0.22767188452E+02  0.14115541066E+02  0.17295279123E+02  0.31886047882E+02  0.00000000000E+00 0. -1.
         11    1    3    3    0    0  0.44787781802E+01 -0.10407751795E+02 -0.37951202027E+01  0.11949212904E+02  0.51100000000E-03 0.  1.
        -11    1    3    3    0    0 -0.17761422493E+02  0.60098698154E+01  0.92116308314E+01  0.20891165765E+02  0.51100000000E-03 0. -1.
        -12    1    3    3    0    0 -0.94845441389E+01 -0.97176590864E+01 -0.22711789752E+02  0.26461573449E+02  0.00000000000E+00 0.  1.
</event>
<event>
 7    1  0.7579108E-012  0.5930189E+02  0.7816164E-02  0.1266605E+00
        -11   -1    0    0    0    0  0.00000000000E+00  0.00000000000E+00  0.45593999997E+02  0.45594000000E+02  0.51100000000E-03 0.  1.
         11   -1    0    0    0    0 -0.00000000000E+00 -0.00000000000E+00 -0.45593999997E+02  0.45594000000E+02  0.51100000000E-03 0. -1.
    9900012    2    1    2    0    0  0.28982942954E+02 -0.88144560200E+01 -0.99507880644E+01  0.59301893303E+02  0.49999907490E+02 0.  0.
         12    1    1    2    0    0 -0.28982942954E+02  0.88144560200E+01  0.99507880644E+01  0.31886106697E+02  0.00000000000E+00 0. -1.
         11    1    3    3    0    0 -0.75340522668E+01  0.43685061443E+01 -0.44894726946E+01  0.97980179031E+01  0.51100000000E-03 0. -1.
        -11    1    3    3    0    0  0.33241907706E+02 -0.30376934245E+01  0.59289716425E+01  0.33902871770E+02  0.51100000000E-03 0.  1.
        -12    1    3    3    0    0  0.32750875152E+01 -0.10145268740E+02 -0.11390287012E+02  0.15601003630E+02  0.00000000000E+00 0.  1.
</event>
<event>
 7    1  0.7579108E-012  0.5930190E+02  0.7816164E-02  0.1266605E+00
        -11   -1    0    0    0    0  0.00000000000E+00  0.00000000000E+00  0.45593999997E+02  0.45594000000E+02  0.51100000000E-03 0.  1.
         11   -1    0    0    0    0 -0.00000000000E+00 -0.00000000000E+00 -0.45593999997E+02  0.45594000000E+02  0.51100000000E-03 0. -1.
    9900012    2    1    2    0    0 -0.15750871530E+02 -0.63929204233E+01  0.26977105506E+02  0.59301896334E+02  0.49999913019E+02 0.  0.
         12    1    1    2    0    0  0.15750871530E+02  0.63929204233E+01 -0.26977105506E+02  0.31886103666E+02  0.00000000000E+00 0. -1.
         11    1    3    3    0    0  0.61570604332E+01  0.11796946225E+01 -0.62105531007E+00  0.62997446409E+01  0.51100000000E-03 0. -1.
        -11    1    3    3    0    0 -0.29529444036E+02 -0.12285049456E+02  0.10437781320E+02  0.33643094155E+02  0.51100000000E-03 0.  1.
        -12    1    3    3    0    0  0.76215120724E+01  0.47124344098E+01  0.17160379496E+02  0.19359057538E+02  0.00000000000E+00 0.  1.
</event>
<event>
 7    1  0.7579108E-012  0.5930196E+02  0.7816164E-02  0.1266605E+00
        -11   -1    0    0    0    0  0.00000000000E+00  0.00000000000E+00  0.45593999997E+02  0.45594000000E+02  0.51100000000E-03 0. -1.
         11   -1    0    0    0    0 -0.00000000000E+00 -0.00000000000E+00 -0.45593999997E+02  0.45594000000E+02  0.51100000000E-03 0.  1.
    9900012    2    1    2    0    0  0.88837197279E+01  0.80190382368E+01 -0.29554929605E+02  0.59301963645E+02  0.50000035778E+02 0.  0.
         12    1    1    2    0    0 -0.88837197279E+01 -0.80190382368E+01  0.29554929605E+02  0.31886036355E+02  0.00000000000E+00 0. -1.
         11    1    3    3    0    0 -0.76362114261E+01  0.19053898378E+01 -0.80093994596E+00  0.79109885878E+01  0.51100000000E-03 0. -1.
        -11    1    3    3    0    0  0.80338666768E-01 -0.37150974511E+01 -0.31782781571E+02  0.31999275117E+02  0.51100000000E-03 0.  1.
        -12    1    3    3    0    0  0.16439592487E+02  0.98287458500E+01  0.30287919118E+01  0.19391699940E+02  0.00000000000E+00 0.  1.
</event>
<event>
 7    1  0.7579108E-012  0.5930194E+02  0.7816164E-02  0.1266605E+00
        -11   -1    0    0    0    0  0.00000000000E+00  0.00000000000E+00  0.45593999997E+02  0.45594000000E+02  0.51100000000E-03 0.  1.
         11   -1    0    0    0    0 -0.00000000000E+00 -0.00000000000E+00 -0.45593999997E+02  0.45594000000E+02  0.51100000000E-03 0. -1.
    9900012    2    1    2    0    0  0.13570355760E+02 -0.47955680610E+01  0.28452920513E+02  0.59301941696E+02  0.49999995747E+02 0.  0.
         12    1    1    2    0    0 -0.13570355760E+02  0.47955680610E+01 -0.28452920513E+02  0.31886058304E+02  0.00000000000E+00 0. -1.
         11    1    3    3    0    0 -0.29296381835E+01 -0.87062340168E+01  0.33893643423E+01  0.97912757876E+01  0.51100000000E-03 0. -1.
        -11    1    3    3    0    0  0.22050588850E+02  0.14388658829E+02  0.59117723191E+01  0.26985385374E+02  0.51100000000E-03 0.  1.
        -12    1    3    3    0    0 -0.55505949073E+01 -0.10477992873E+02  0.19151783851E+02  0.22525280535E+02  0.00000000000E+00 0.  1.
</event>
<event>
 7    1  0.7579108E-012  0.5930187E+02  0.7816164E-02  0.1266605E+00
        -11   -1    0    0    0    0  0.00000000000E+00  0.00000000000E+00  0.45593999997E+02  0.45594000000E+02  0.51100000000E-03 0. -1.
         11   -1    0    0    0    0 -0.00000000000E+00 -0.00000000000E+00 -0.45593999997E+02  0.45594000000E+02  0.51100000000E-03 0.  1.
    9900012    2    1    2    0    0 -0.10382374078E+02  0.43844380848E+01 -0.29827978164E+02  0.59301870254E+02  0.49999865455E+02 0.  0.
         12    1    1    2    0    0  0.10382374078E+02 -0.43844380848E+01  0.29827978164E+02  0.31886129746E+02  0.00000000000E+00 0. -1.
         11    1    3    3    0    0  0.10005690570E+02 -0.53828669579E+01 -0.31133282676E+01  0.11780573570E+02  0.51100000000E-03 0. -1.
        -11    1    3    3    0    0 -0.28210866328E+02  0.65948812305E+01 -0.26204467842E+02  0.39064300487E+02  0.51100000000E-03 0.  1.
         12    1    3    3    0    0  0.78228016797E+01  0.31724238122E+01 -0.51018205460E+00  0.84569961980E+01  0.00000000000E+00 0. -1.
</event>
<event>
 7    1  0.7579108E-012  0.5930195E+02  0.7816164E-02  0.1266605E+00
        -11   -1    0    0    0    0  0.00000000000E+00  0.00000000000E+00  0.45593999997E+02  0.45594000000E+02  0.51100000000E-03 0. -1.
         11   -1    0    0    0    0 -0.00000000000E+00 -0.00000000000E+00 -0.45593999997E+02  0.45594000000E+02  0.51100000000E-03 0.  1.
    9900012    2    1    2    0    0  0.45568139170E+01  0.14804310552E+02 -0.27870917544E+02  0.59301949622E+02  0.50000010202E+02 0.  0.
         12    1    1    2    0    0 -0.45568139170E+01 -0.14804310552E+02  0.27870917544E+02  0.31886050378E+02  0.00000000000E+00 0. -1.
         11    1    3    3    0    0  0.83238171580E+01 -0.43789269449E+00  0.94015239084E+00  0.83881803075E+01  0.51100000000E-03 0. -1.
        -11    1    3    3    0    0 -0.15267533772E+02 -0.71079646484E+01 -0.11752644756E+02  0.20536440976E+02  0.51100000000E-03 0.  1.
        -12    1    3    3    0    0  0.11500530531E+02  0.22350167895E+02 -0.17058425178E+02  0.30377328338E+02  0.00000000000E+00 0.  1.
</event>
<event>
 7    1  0.7579108E-012  0.5930199E+02  0.7816164E-02  0.1266605E+00
        -11   -1    0    0    0    0  0.00000000000E+00  0.00000000000E+00  0.45593999997E+02  0.45594000000E+02  0.51100000000E-03 0.  1.
         11   -1    0    0    0    0 -0.00000000000E+00 -0.00000000000E+00 -0.45593999997E+02  0.45594000000E+02  0.51100000000E-03 0. -1.
    9900012    2    1    2    0    0  0.11998268197E+02  0.36158741717E+01 -0.29320380717E+02  0.59301988786E+02  0.50000081628E+02 0.  0.
         12    1    1    2    0    0 -0.11998268197E+02 -0.36158741717E+01  0.29320380717E+02  0.31886011214E+02  0.00000000000E+00 0. -1.
         11    1    3    3    0    0  0.21992932925E+02 -0.77096600905E+01 -0.24813686143E+02  0.34041841572E+02  0.51100000000E-03 0. -1.
        -11    1    3    3    0    0 -0.11603886007E+02  0.29295066309E+01 -0.95705415939E+01  0.15324080600E+02  0.51100000000E-03 0.  1.
         12    1    3    3    0    0  0.16092212798E+01  0.83960276312E+01  0.50638470202E+01  0.99360666139E+01  0.00000000000E+00 0. -1.
</event>
<event>
 7    1  0.7579108E-012  0.5930194E+02  0.7816164E-02  0.1266605E+00
        -11   -1    0    0    0    0  0.00000000000E+00  0.00000000000E+00  0.45593999997E+02  0.45594000000E+02  0.51100000000E-03 0.  1.
         11   -1    0    0    0    0 -0.00000000000E+00 -0.00000000000E+00 -0.45593999997E+02  0.45594000000E+02  0.51100000000E-03 0. -1.
    9900012    2    1    2    0    0  0.19336774625E+02  0.23927131854E+02 -0.83846558225E+01  0.59301938077E+02  0.49999989148E+02 0.  0.
         12    1    1    2    0    0 -0.19336774625E+02 -0.23927131854E+02  0.83846558225E+01  0.31886061923E+02  0.00000000000E+00 0. -1.
         11    1    3    3    0    0 -0.47552123768E+01  0.28596133876E+01  0.29892372167E+01  0.63027750137E+01  0.51100000000E-03 0. -1.
        -11    1    3    3    0    0  0.33090180325E+02  0.23571074662E+02 -0.34901004248E+01  0.40776664846E+02  0.51100000000E-03 0.  1.
        -12    1    3    3    0    0 -0.89981933233E+01 -0.25035561956E+01 -0.78837926144E+01  0.12222498218E+02  0.00000000000E+00 0.  1.
</event>
<event>
 7    1  0.7579108E-012  0.5930194E+02  0.7816164E-02  0.1266605E+00
        -11   -1    0    0    0    0  0.00000000000E+00  0.00000000000E+00  0.45593999997E+02  0.45594000000E+02  0.51100000000E-03 0.  1.
         11   -1    0    0    0    0 -0.00000000000E+00 -0.00000000000E+00 -0.45593999997E+02  0.45594000000E+02  0.51100000000E-03 0. -1.
    9900012    2    1    2    0    0  0.92689797294E+01  0.17468906037E+02 -0.25012879435E+02  0.59301940335E+02  0.49999993264E+02 0.  0.
         12    1    1    2    0    0 -0.92689797294E+01 -0.17468906037E+02  0.25012879435E+02  0.31886059665E+02  0.00000000000E+00 0. -1.
         11    1    3    3    0    0 -0.15724025680E+02 -0.87311751100E+00 -0.94772461534E+01  0.18380030269E+02  0.51100000000E-03 0.  1.
        -11    1    3    3    0    0  0.27410923001E+02  0.12764553714E+02 -0.16972981054E+02  0.34675273862E+02  0.51100000000E-03 0. -1.
         12    1    3    3    0    0 -0.24179175918E+01  0.55774698347E+01  0.14373477725E+01  0.62466362034E+01  0.00000000000E+00 0. -1.
</event>
<event>
 7    1  0.7579108E-012  0.5930194E+02  0.7816164E-02  0.1266605E+00
        -11   -1    0    0    0    0  0.00000000000E+00  0.00000000000E+00  0.45593999997E+02  0.45594000000E+02  0.51100000000E-03 0.  1.
         11   -1    0    0    0    0 -0.00000000000E+00 -0.00000000000E+00 -0.45593999997E+02  0.45594000000E+02  0.51100000000E-03 0. -1.
    9900012    2    1    2    0    0  0.17078393716E+02  0.67679945021E+01  0.26062303084E+02  0.59301938413E+02  0.49999989761E+02 0.  0.
         12    1    1    2    0    0 -0.17078393716E+02 -0.67679945021E+01 -0.26062303084E+02  0.31886061587E+02  0.00000000000E+00 0. -1.
         11    1    3    3    0    0  0.16074947754E+02 -0.59181989930E+00  0.14590578986E+02  0.21717255616E+02  0.51100000000E-03 0. -1.
        -11    1    3    3    0    0 -0.97210671623E+01 -0.96408558415E+00  0.19501877261E+02  0.21811735940E+02  0.51100000000E-03 0.  1.
        -12    1    3    3    0    0  0.10724513124E+02  0.83238999855E+01 -0.80301531634E+01  0.15772946857E+02  0.00000000000E+00 0.  1.
</event>
<event>
 7    1  0.7579108E-012  0.5930194E+02  0.7816164E-02  0.1266605E+00
        -11   -1    0    0    0    0  0.00000000000E+00  0.00000000000E+00  0.45593999997E+02  0.45594000000E+02  0.51100000000E-03 0. -1.
         11   -1    0    0    0    0 -0.00000000000E+00 -0.00000000000E+00 -0.45593999997E+02  0.45594000000E+02  0.51100000000E-03 0.  1.
    9900012    2    1    2    0    0  0.18433101880E+02 -0.25685280161E+02 -0.41482206208E+01  0.59301943547E+02  0.49999999123E+02 0.  0.
         12    1    1    2    0    0 -0.18433101880E+02  0.25685280161E+02  0.41482206208E+01  0.31886056453E+02  0.00000000000E+00 0. -1.
         11    1    3    3    0    0 -0.13329942024E+02 -0.98473834779E+01  0.72378959788E+01  0.18084398088E+02  0.51100000000E-03 0. -1.
        -11    1    3    3    0    0  0.28212883823E+02 -0.11866316832E+02 -0.23102894904E+01  0.30693871156E+02  0.51100000000E-03 0.  1.
         12    1    3    3    0    0  0.35501600805E+01 -0.39715798510E+01 -0.90758271093E+01  0.10523674303E+02  0.00000000000E+00 0. -1.
</event>
<event>
 7    1  0.7579108E-012  0.5930198E+02  0.7816164E-02  0.1266605E+00
        -11   -1    0    0    0    0  0.00000000000E+00  0.00000000000E+00  0.45593999997E+02  0.45594000000E+02  0.51100000000E-03 0. -1.
         11   -1    0    0    0    0 -0.00000000000E+00 -0.00000000000E+00 -0.45593999997E+02  0.45594000000E+02  0.51100000000E-03 0.  1.
    9900012    2    1    2    0    0 -0.13708799852E+02  0.19525626948E+02  0.21155063363E+02  0.59301984147E+02  0.50000073168E+02 0.  0.
         12    1    1    2    0    0  0.13708799852E+02 -0.19525626948E+02 -0.21155063363E+02  0.31886015853E+02  0.00000000000E+00 0. -1.
         11    1    3    3    0    0  0.63046924303E+01  0.25976253727E+02  0.20337898893E+02  0.33587870370E+02  0.51100000000E-03 0. -1.
        -11    1    3    3    0    0 -0.66421388062E+01 -0.90105054077E+01 -0.29730870014E+01  0.11582161379E+02  0.51100000000E-03 0.  1.
         12    1    3    3    0    0 -0.13371353476E+02  0.25598786282E+01  0.37902514709E+01  0.14131952399E+02  0.00000000000E+00 0. -1.
</event>
<event>
 7    1  0.7579108E-012  0.5930187E+02  0.7816164E-02  0.1266605E+00
        -11   -1    0    0    0    0  0.00000000000E+00  0.00000000000E+00  0.45593999997E+02  0.45594000000E+02  0.51100000000E-03 0.  1.
         11   -1    0    0    0    0 -0.00000000000E+00 -0.00000000000E+00 -0.45593999997E+02  0.45594000000E+02  0.51100000000E-03 0. -1.
    9900012    2    1    2    0    0  0.25969729260E+01 -0.21653559500E+02  0.23261656825E+02  0.59301865307E+02  0.49999856432E+02 0.  0.
         12    1    1    2    0    0 -0.25969729260E+01  0.21653559500E+02 -0.23261656825E+02  0.31886134693E+02  0.00000000000E+00 0. -1.
         11    1    3    3    0    0 -0.97146524056E+01 -0.31559279401E+02  0.11353889961E+02  0.34918095669E+02  0.51100000000E-03 0. -1.
        -11    1    3    3    0    0  0.13591636196E+02  0.30469437699E+01  0.10011078734E+02  0.17153371054E+02  0.51100000000E-03 0.  1.
         12    1    3    3    0    0 -0.12800108643E+01  0.68587761305E+01  0.18966881294E+01  0.72303985839E+01  0.00000000000E+00 0. -1.
</event>
<event>
 7    1  0.7579108E-012  0.5930195E+02  0.7816164E-02  0.1266605E+00
        -11   -1    0    0    0    0  0.00000000000E+00  0.00000000000E+00  0.45593999997E+02  0.45594000000E+02  0.51100000000E-03 0.  1.
         11   -1    0    0    0    0 -0.00000000000E+00 -0.00000000000E+00 -0.45593999997E+02  0.45594000000E+02  0.51100000000E-03 0. -1.
    9900012    2    1    2    0    0 -0.10241606079E+02 -0.29655324285E+02  0.56913455773E+01  0.59301950260E+02  0.50000011366E+02 0.  0.
         12    1    1    2    0    0  0.10241606079E+02  0.29655324285E+02 -0.56913455773E+01  0.31886049740E+02  0.00000000000E+00 0. -1.
         11    1    3    3    0    0  0.64732572738E+01  0.92947073504E+00  0.52080858292E-01  0.65398538407E+01  0.51100000000E-03 0. -1.
        -11    1    3    3    0    0 -0.20567327216E+02 -0.34134478196E+02 -0.57131074593E+01  0.40259373414E+02  0.51100000000E-03 0.  1.
        -12    1    3    3    0    0  0.38524638640E+01  0.35496831760E+01  0.11352372178E+02  0.12502723005E+02  0.00000000000E+00 0.  1.
</event>
<event>
 7    1  0.7579108E-012  0.5930193E+02  0.7816164E-02  0.1266605E+00
        -11   -1    0    0    0    0  0.00000000000E+00  0.00000000000E+00  0.45593999997E+02  0.45594000000E+02  0.51100000000E-03 0. -1.
         11   -1    0    0    0    0 -0.00000000000E+00 -0.00000000000E+00 -0.45593999997E+02  0.45594000000E+02  0.51100000000E-03 0.  1.
    9900012    2    1    2    0    0  0.21532151341E+02 -0.22724959820E+02 -0.60550714162E+01  0.59301933606E+02  0.49999980994E+02 0.  0.
         12    1    1    2    0    0 -0.21532151341E+02  0.22724959820E+02  0.60550714162E+01  0.31886066394E+02  0.00000000000E+00 0. -1.
         11    1    3    3    0    0  0.24108849167E+02 -0.19339180111E+02  0.94367638954E+01  0.32315522719E+02  0.51100000000E-03 0. -1.
        -11    1    3    3    0    0 -0.34081456002E+01  0.88020972631E+01 -0.94550344797E+01  0.13360016839E+02  0.51100000000E-03 0.  1.
         12    1    3    3    0    0  0.83144777496E+00 -0.12187876972E+02 -0.60368008319E+01  0.13626394048E+02  0.00000000000E+00 0. -1.
</event>
<event>
 7    1  0.7579108E-012  0.5930195E+02  0.7816164E-02  0.1266605E+00
        -11   -1    0    0    0    0  0.00000000000E+00  0.00000000000E+00  0.45593999997E+02  0.45594000000E+02  0.51100000000E-03 0.  1.
         11   -1    0    0    0    0 -0.00000000000E+00 -0.00000000000E+00 -0.45593999997E+02  0.45594000000E+02  0.51100000000E-03 0. -1.
    9900012    2    1    2    0    0 -0.69997352403E+01  0.11566402270E+02  0.28878056230E+02  0.59301951537E+02  0.50000013696E+02 0.  0.
         12    1    1    2    0    0  0.69997352403E+01 -0.11566402270E+02 -0.28878056230E+02  0.31886048463E+02  0.00000000000E+00 0. -1.
         11    1    3    3    0    0 -0.13433242996E+02  0.29614299468E+01 -0.10485936091E+02  0.17296732081E+02  0.51100000000E-03 0. -1.
        -11    1    3    3    0    0  0.73307118473E+01  0.14881214791E+01  0.20721797759E+02  0.22030586564E+02  0.51100000000E-03 0.  1.
         12    1    3    3    0    0 -0.89720409202E+00  0.71168508442E+01  0.18642194562E+02  0.19974632893E+02  0.00000000000E+00 0. -1.
</event>
<event>
 7    1  0.7579108E-012  0.5930195E+02  0.7816164E-02  0.1266605E+00
        -11   -1    0    0    0    0  0.00000000000E+00  0.00000000000E+00  0.45593999997E+02  0.45594000000E+02  0.51100000000E-03 0.  1.
         11   -1    0    0    0    0 -0.00000000000E+00 -0.00000000000E+00 -0.45593999997E+02  0.45594000000E+02  0.51100000000E-03 0. -1.
    9900012    2    1    2    0    0 -0.31826081663E+02  0.12922764345E+01 -0.14664497824E+01  0.59301954033E+02  0.50000018248E+02 0.  0.
         12    1    1    2    0    0  0.31826081663E+02 -0.12922764345E+01  0.14664497824E+01  0.31886045967E+02  0.00000000000E+00 0. -1.
         11    1    3    3    0    0 -0.13148484218E+02  0.22558155897E+02  0.20871179099E+01  0.26193684279E+02  0.51100000000E-03 0. -1.
        -11    1    3    3    0    0 -0.10839913095E+02 -0.39322972173E+01  0.45954989568E+01  0.12413109531E+02  0.51100000000E-03 0.  1.
         12    1    3    3    0    0 -0.78376843510E+01 -0.17333582245E+02 -0.81490666491E+01  0.20695160223E+02  0.00000000000E+00 0. -1.
</event>
<event>
 7    1  0.7579108E-012  0.5930195E+02  0.7816164E-02  0.1266605E+00
        -11   -1    0    0    0    0  0.00000000000E+00  0.00000000000E+00  0.45593999997E+02  0.45594000000E+02  0.51100000000E-03 0.  1.
         11   -1    0    0    0    0 -0.00000000000E+00 -0.00000000000E+00 -0.45593999997E+02  0.45594000000E+02  0.51100000000E-03 0. -1.
    9900012    2    1    2    0    0 -0.11642893921E+02 -0.10528814829E+02  0.27754413598E+02  0.59301946705E+02  0.50000004882E+02 0.  0.
         12    1    1    2    0    0  0.11642893921E+02  0.10528814829E+02 -0.27754413598E+02  0.31886053295E+02  0.00000000000E+00 0. -1.
         11    1    3    3    0    0 -0.21485224819E+02 -0.24543861022E+01  0.27366117456E+02  0.34878980512E+02  0.51100000000E-03 0. -1.
        -11    1    3    3    0    0  0.65218464846E+01 -0.10647513322E+02  0.86259880013E+01  0.15176023550E+02  0.51100000000E-03 0.  1.
         12    1    3    3    0    0  0.33204844143E+01  0.25730845952E+01 -0.82376918589E+01  0.92469426429E+01  0.00000000000E+00 0. -1.
</event>
<event>
 7    1  0.7579108E-012  0.5930193E+02  0.7816164E-02  0.1266605E+00
        -11   -1    0    0    0    0  0.00000000000E+00  0.00000000000E+00  0.45593999997E+02  0.45594000000E+02  0.51100000000E-03 0.  1.
         11   -1    0    0    0    0 -0.00000000000E+00 -0.00000000000E+00 -0.45593999997E+02  0.45594000000E+02  0.51100000000E-03 0. -1.
    9900012    2    1    2    0    0  0.19175221251E+02  0.24144426618E+02  0.81288958724E+01  0.59301931023E+02  0.49999976282E+02 0.  0.
         12    1    1    2    0    0 -0.19175221251E+02 -0.24144426618E+02 -0.81288958724E+01  0.31886068977E+02  0.00000000000E+00 0. -1.
         11    1    3    3    0    0  0.25873095677E+02 -0.57879529158E+01  0.93915942676E-01  0.26512757294E+02  0.51100000000E-03 0.  1.
        -11    1    3    3    0    0 -0.24660175659E+01  0.70618695701E+01  0.57181465993E+01  0.94153303316E+01  0.51100000000E-03 0. -1.
         12    1    3    3    0    0 -0.42318568601E+01  0.22870509963E+02  0.23168333304E+01  0.23373843397E+02  0.00000000000E+00 0. -1.
</event>
<event>
 7    1  0.7579108E-012  0.5930195E+02  0.7816164E-02  0.1266605E+00
        -11   -1    0    0    0    0  0.00000000000E+00  0.00000000000E+00  0.45593999997E+02  0.45594000000E+02  0.51100000000E-03 0. -1.
         11   -1    0    0    0    0 -0.00000000000E+00 -0.00000000000E+00 -0.45593999997E+02  0.45594000000E+02  0.51100000000E-03 0.  1.
    9900012    2    1    2    0    0 -0.28574930135E+02  0.12768688141E+02  0.60954299911E+01  0.59301948256E+02  0.50000007711E+02 0.  0.
         12    1    1    2    0    0  0.28574930135E+02 -0.12768688141E+02 -0.60954299911E+01  0.31886051744E+02  0.00000000000E+00 0. -1.
         11    1    3    3    0    0 -0.31304015819E+02  0.73660382919E+00 -0.44710966964E+01  0.31630281338E+02  0.51100000000E-03 0.  1.
        -11    1    3    3    0    0 -0.33914352770E+00  0.18453586530E+02  0.77469393191E+01  0.20016616678E+02  0.51100000000E-03 0. -1.
        -12    1    3    3    0    0  0.30682292121E+01 -0.64215022184E+01  0.28195873684E+01  0.76550502393E+01  0.00000000000E+00 0.  1.
</event>
<event>
 7    1  0.7579108E-012  0.5930197E+02  0.7816164E-02  0.1266605E+00
        -11   -1    0    0    0    0  0.00000000000E+00  0.00000000000E+00  0.45593999997E+02  0.45594000000E+02  0.51100000000E-03 0.  1.
         11   -1    0    0    0    0 -0.00000000000E+00 -0.00000000000E+00 -0.45593999997E+02  0.45594000000E+02  0.51100000000E-03 0. -1.
    9900012    2    1    2    0    0  0.19146851655E+02  0.24861472659E+02  0.56589935078E+01  0.59301969225E+02  0.50000045953E+02 0.  0.
         12    1    1    2    0    0 -0.19146851655E+02 -0.24861472659E+02 -0.56589935078E+01  0.31886030775E+02  0.00000000000E+00 0. -1.
         11    1    3    3    0    0  0.19523350477E+01 -0.47032733693E+01 -0.10520394309E+02  0.11688074658E+02  0.51100000000E-03 0. -1.
        -11    1    3    3    0    0  0.13656421058E+02  0.33346229410E+02  0.64710026593E+01  0.36610691439E+02  0.51100000000E-03 0.  1.
        -12    1    3    3    0    0  0.35380955496E+01 -0.37814833817E+01  0.97083851580E+01  0.11003203127E+02  0.00000000000E+00 0.  1.
</event>
<event>
 7    1  0.7579108E-012  0.5930193E+02  0.7816164E-02  0.1266605E+00
        -11   -1    0    0    0    0  0.00000000000E+00  0.00000000000E+00  0.45593999997E+02  0.45594000000E+02  0.51100000000E-03 0.  1.
         11   -1    0    0    0    0 -0.00000000000E+00 -0.00000000000E+00 -0.45593999997E+02  0.45594000000E+02  0.51100000000E-03 0. -1.
    9900012    2    1    2    0    0  0.23185522942E+02  0.17703811851E+02  0.12873537746E+02  0.59301930906E+02  0.49999976069E+02 0.  0.
         12    1    1    2    0    0 -0.23185522942E+02 -0.17703811851E+02 -0.12873537746E+02  0.31886069094E+02  0.00000000000E+00 0. -1.
         11    1    3    3    0    0  0.88771235431E+01  0.27436668837E+02 -0.68486271924E+01  0.29639126403E+02  0.51100000000E-03 0. -1.
        -11    1    3    3    0    0  0.87201502719E+01  0.26402767155E+00  0.26737439930E+01  0.91246719709E+01  0.51100000000E-03 0.  1.
         12    1    3    3    0    0  0.55882491268E+01 -0.99968846570E+01  0.17048420946E+02  0.20538132532E+02  0.00000000000E+00 0. -1.
</event>
<event>
 7    1  0.7579108E-012  0.5930191E+02  0.7816164E-02  0.1266605E+00
        -11   -1    0    0    0    0  0.00000000000E+00  0.00000000000E+00  0.45593999997E+02  0.45594000000E+02  0.51100000000E-03 0. -1.
         11   -1    0    0    0    0 -0.00000000000E+00 -0.00000000000E+00 -0.45593999997E+02  0.45594000000E+02  0.51100000000E-03 0.  1.
    9900012    2    1    2    0    0 -0.17849535904E+02 -0.10066097457E+02  0.24429294153E+02  0.59301911140E+02  0.49999940021E+02 0.  0.
         12    1    1    2    0    0  0.17849535904E+02  0.10066097457E+02 -0.24429294153E+02  0.31886088860E+02  0.00000000000E+00 0. -1.
         11    1    3    3    0    0  0.33755598445E+01  0.27996520153E+00  0.10203608193E+02  0.10751111812E+02  0.51100000000E-03 0. -1.
        -11    1    3    3    0    0 -0.12373437337E+02 -0.19139438176E+02 -0.70760283779E+01  0.23863994283E+02  0.51100000000E-03 0.  1.
        -12    1    3    3    0    0 -0.88516584107E+01  0.87933755182E+01  0.21301714338E+02  0.24686805046E+02  0.00000000000E+00 0.  1.
</event>
<event>
 7    1  0.7579108E-012  0.5930195E+02  0.7816164E-02  0.1266605E+00
        -11   -1    0    0    0    0  0.00000000000E+00  0.00000000000E+00  0.45593999997E+02  0.45594000000E+02  0.51100000000E-03 0. -1.
         11   -1    0    0    0    0 -0.00000000000E+00 -0.00000000000E+00 -0.45593999997E+02  0.45594000000E+02  0.51100000000E-03 0.  1.
    9900012    2    1    2    0    0 -0.65933738376E+01 -0.30607164145E+02 -0.60372970503E+01  0.59301952405E+02  0.50000015278E+02 0.  0.
         12    1    1    2    0    0  0.65933738376E+01  0.30607164145E+02  0.60372970503E+01  0.31886047595E+02  0.00000000000E+00 0. -1.
         11    1    3    3    0    0  0.71527631020E+01  0.28772196886E+01 -0.18772148141E+02  0.20293692597E+02  0.51100000000E-03 0. -1.
        -11    1    3    3    0    0 -0.32481469918E+01 -0.39377432801E+01  0.39216226654E+01  0.64370339141E+01  0.51100000000E-03 0.  1.
         12    1    3    3    0    0 -0.10497989948E+02 -0.29546640554E+02  0.88132284250E+01  0.32571225894E+02  0.00000000000E+00 0. -1.
</event>
<event>
 7    1  0.7579108E-012  0.5930232E+02  0.7816164E-02  0.1266603E+00
        -11   -1    0    0    0    0  0.00000000000E+00  0.00000000000E+00  0.45593999997E+02  0.45594000000E+02  0.51100000000E-03 0. -1.
         11   -1    0    0    0    0 -0.00000000000E+00 -0.00000000000E+00 -0.45593999997E+02  0.45594000000E+02  0.51100000000E-03 0.  1.
    9900012    2    1    2    0    0  0.13746928671E+02 -0.25808135239E+02  0.12714500069E+02  0.59302322896E+02  0.50000690959E+02 0.  0.
         12    1    1    2    0    0 -0.13746928671E+02  0.25808135239E+02 -0.12714500069E+02  0.31885677104E+02  0.00000000000E+00 0. -1.
         11    1    3    3    0    0  0.29239562047E+01  0.21065179956E+01  0.18710957682E+02  0.19054838640E+02  0.51100000000E-03 0. -1.
        -11    1    3    3    0    0  0.15865649846E+02 -0.28322486765E+02 -0.80958305979E-01  0.32463651306E+02  0.51100000000E-03 0.  1.
         12    1    3    3    0    0 -0.50426773796E+01  0.40783353012E+00 -0.59154993073E+01  0.77838329502E+01  0.00000000000E+00 0. -1.
</event>
<event>
 7    1  0.7579108E-012  0.5930194E+02  0.7816164E-02  0.1266605E+00
        -11   -1    0    0    0    0  0.00000000000E+00  0.00000000000E+00  0.45593999997E+02  0.45594000000E+02  0.51100000000E-03 0.  1.
         11   -1    0    0    0    0 -0.00000000000E+00 -0.00000000000E+00 -0.45593999997E+02  0.45594000000E+02  0.51100000000E-03 0. -1.
    9900012    2    1    2    0    0  0.19581646053E+01  0.15414967707E+01  0.31788526936E+02  0.59301936184E+02  0.49999985694E+02 0.  0.
         12    1    1    2    0    0 -0.19581646053E+01 -0.15414967707E+01 -0.31788526936E+02  0.31886063816E+02  0.00000000000E+00 0. -1.
         11    1    3    3    0    0 -0.13052991847E+02 -0.36009405941E+01  0.90761615316E+01  0.16301045296E+02  0.51100000000E-03 0. -1.
        -11    1    3    3    0    0  0.20755639432E+02  0.92047166874E+01  0.26591913874E+02  0.34966459090E+02  0.51100000000E-03 0.  1.
        -12    1    3    3    0    0 -0.57444829794E+01 -0.40622793227E+01 -0.38795484694E+01  0.80344317983E+01  0.00000000000E+00 0.  1.
</event>
<event>
 7    1  0.7579108E-012  0.5930198E+02  0.7816164E-02  0.1266605E+00
        -11   -1    0    0    0    0  0.00000000000E+00  0.00000000000E+00  0.45593999997E+02  0.45594000000E+02  0.51100000000E-03 0.  1.
         11   -1    0    0    0    0 -0.00000000000E+00 -0.00000000000E+00 -0.45593999997E+02  0.45594000000E+02  0.51100000000E-03 0. -1.
    9900012    2    1    2    0    0  0.93921512937E+01 -0.27688620409E+02 -0.12721874459E+02  0.59301979618E+02  0.50000064907E+02 0.  0.
         12    1    1    2    0    0 -0.93921512937E+01  0.27688620409E+02  0.12721874459E+02  0.31886020382E+02  0.00000000000E+00 0. -1.
         11    1    3    3    0    0  0.13748859508E+02  0.58370220860E+01 -0.16984766480E+02  0.22618228429E+02  0.51100000000E-03 0. -1.
        -11    1    3    3    0    0  0.47576385844E+01 -0.97149092167E+01 -0.98996894639E-01  0.10817781040E+02  0.51100000000E-03 0.  1.
         12    1    3    3    0    0 -0.91143467990E+01 -0.23810733278E+02  0.43618889155E+01  0.25865970149E+02  0.00000000000E+00 0. -1.
</event>
<event>
 7    1  0.7579108E-012  0.5930193E+02  0.7816164E-02  0.1266605E+00
        -11   -1    0    0    0    0  0.00000000000E+00  0.00000000000E+00  0.45593999997E+02  0.45594000000E+02  0.51100000000E-03 0. -1.
         11   -1    0    0    0    0 -0.00000000000E+00 -0.00000000000E+00 -0.45593999997E+02  0.45594000000E+02  0.51100000000E-03 0.  1.
    9900012    2    1    2    0    0  0.16079488783E+02 -0.63949254365E+01 -0.26782010961E+02  0.59301934988E+02  0.49999983513E+02 0.  0.
         12    1    1    2    0    0 -0.16079488783E+02  0.63949254365E+01  0.26782010961E+02  0.31886065012E+02  0.00000000000E+00 0. -1.
         11    1    3    3    0    0  0.13650189192E+01 -0.76667082545E+01 -0.24002616826E+01  0.81488004341E+01  0.51100000000E-03 0. -1.
        -11    1    3    3    0    0 -0.11037672815E+02  0.11430630678E+02 -0.29925918567E+01  0.16169265448E+02  0.51100000000E-03 0.  1.
        -12    1    3    3    0    0  0.25752142679E+02 -0.10158847860E+02 -0.21389157421E+02  0.34983869105E+02  0.00000000000E+00 0.  1.
</event>
<event>
 7    1  0.7579108E-012  0.5930196E+02  0.7816164E-02  0.1266605E+00
        -11   -1    0    0    0    0  0.00000000000E+00  0.00000000000E+00  0.45593999997E+02  0.45594000000E+02  0.51100000000E-03 0.  1.
         11   -1    0    0    0    0 -0.00000000000E+00 -0.00000000000E+00 -0.45593999997E+02  0.45594000000E+02  0.51100000000E-03 0. -1.
    9900012    2    1    2    0    0 -0.28186573829E+02 -0.17730482086E+01  0.14801795881E+02  0.59301955945E+02  0.50000021735E+02 0.  0.
         12    1    1    2    0    0  0.28186573829E+02  0.17730482086E+01 -0.14801795881E+02  0.31886044055E+02  0.00000000000E+00 0. -1.
         11    1    3    3    0    0  0.28218528805E+00 -0.98376395740E+00 -0.99679674470E+01  0.10020369022E+02  0.51100000000E-03 0. -1.
        -11    1    3    3    0    0 -0.12386542145E+02  0.13538241009E+02  0.20149793392E+02  0.27252973598E+02  0.51100000000E-03 0.  1.
        -12    1    3    3    0    0 -0.16082216971E+02 -0.14327525260E+02  0.46199699359E+01  0.22028613325E+02  0.00000000000E+00 0.  1.
</event>
<event>
 7    1  0.7579108E-012  0.5930197E+02  0.7816164E-02  0.1266605E+00
        -11   -1    0    0    0    0  0.00000000000E+00  0.00000000000E+00  0.45593999997E+02  0.45594000000E+02  0.51100000000E-03 0. -1.
         11   -1    0    0    0    0 -0.00000000000E+00 -0.00000000000E+00 -0.45593999997E+02  0.45594000000E+02  0.51100000000E-03 0.  1.
    9900012    2    1    2    0    0  0.10739047818E+02  0.30006999152E+02 -0.98573682709E+00  0.59301971347E+02  0.50000049825E+02 0.  0.
         12    1    1    2    0    0 -0.10739047818E+02 -0.30006999152E+02  0.98573682709E+00  0.31886028653E+02  0.00000000000E+00 0. -1.
         11    1    3    3    0    0  0.10994847831E+02  0.27220568301E+02  0.31578697071E+01  0.29526567000E+02  0.51100000000E-03 0. -1.
        -11    1    3    3    0    0 -0.14434440850E+02  0.32493722853E+01  0.62591453985E+00  0.14808891659E+02  0.51100000000E-03 0.  1.
        -12    1    3    3    0    0  0.14178640837E+02 -0.46294143456E+00 -0.47695210740E+01  0.14966512688E+02  0.00000000000E+00 0.  1.
</event>
<event>
 7    1  0.7579108E-012  0.5930192E+02  0.7816164E-02  0.1266605E+00
        -11   -1    0    0    0    0  0.00000000000E+00  0.00000000000E+00  0.45593999997E+02  0.45594000000E+02  0.51100000000E-03 0.  1.
         11   -1    0    0    0    0 -0.00000000000E+00 -0.00000000000E+00 -0.45593999997E+02  0.45594000000E+02  0.51100000000E-03 0. -1.
    9900012    2    1    2    0    0  0.26622250033E+02 -0.13664679744E+02  0.11011550715E+02  0.59301922811E+02  0.49999961306E+02 0.  0.
         12    1    1    2    0    0 -0.26622250033E+02  0.13664679744E+02 -0.11011550715E+02  0.31886077189E+02  0.00000000000E+00 0. -1.
         11    1    3    3    0    0  0.25311270296E+02 -0.51407332279E+01 -0.11503618856E+02  0.28274030296E+02  0.51100000000E-03 0. -1.
        -11    1    3    3    0    0  0.91449037647E+01 -0.97792908284E+01  0.13382004036E+02  0.18929918812E+02  0.51100000000E-03 0.  1.
         12    1    3    3    0    0 -0.78339240277E+01  0.12553443119E+01  0.91331655356E+01  0.12097973703E+02  0.00000000000E+00 0. -1.
</event>
<event>
 7    1  0.7579108E-012  0.5930195E+02  0.7816164E-02  0.1266605E+00
        -11   -1    0    0    0    0  0.00000000000E+00  0.00000000000E+00  0.45593999997E+02  0.45594000000E+02  0.51100000000E-03 0.  1.
         11   -1    0    0    0    0 -0.00000000000E+00 -0.00000000000E+00 -0.45593999997E+02  0.45594000000E+02  0.51100000000E-03 0. -1.
    9900012    2    1    2    0    0  0.10149328557E+02 -0.21189285482E+02  0.21557492768E+02  0.59301950012E+02  0.50000010914E+02 0.  0.
         12    1    1    2    0    0 -0.10149328557E+02  0.21189285482E+02 -0.21557492768E+02  0.31886049988E+02  0.00000000000E+00 0. -1.
         11    1    3    3    0    0  0.19875271174E+02 -0.39025721935E+01  0.71783495390E+01  0.21489187429E+02  0.51100000000E-03 0. -1.
        -11    1    3    3    0    0  0.63672326480E+01 -0.16815689289E+02  0.11801198920E+02  0.21507611538E+02  0.51100000000E-03 0.  1.
         12    1    3    3    0    0 -0.16093175266E+02 -0.47102399922E+00  0.25779443087E+01  0.16305151045E+02  0.00000000000E+00 0. -1.
</event>
<event>
 7    1  0.7579108E-012  0.5930193E+02  0.7816164E-02  0.1266605E+00
        -11   -1    0    0    0    0  0.00000000000E+00  0.00000000000E+00  0.45593999997E+02  0.45594000000E+02  0.51100000000E-03 0.  1.
         11   -1    0    0    0    0 -0.00000000000E+00 -0.00000000000E+00 -0.45593999997E+02  0.45594000000E+02  0.51100000000E-03 0. -1.
    9900012    2    1    2    0    0  0.51035089734E+01 -0.18254585414E+02  0.25640704258E+02  0.59301930827E+02  0.49999975924E+02 0.  0.
         12    1    1    2    0    0 -0.51035089734E+01  0.18254585414E+02 -0.25640704258E+02  0.31886069173E+02  0.00000000000E+00 0. -1.
         11    1    3    3    0    0 -0.12432243030E+02 -0.11166376931E+02 -0.24130291876E+01  0.16884056108E+02  0.51100000000E-03 0. -1.
        -11    1    3    3    0    0  0.21438696108E+02 -0.65996483467E+01  0.30443757271E+02  0.37815280062E+02  0.51100000000E-03 0.  1.
        -12    1    3    3    0    0 -0.39029441039E+01 -0.48856013586E+00 -0.23900238255E+01  0.46025946564E+01  0.00000000000E+00 0.  1.
</event>
<event>
 7    1  0.7579108E-012  0.5930191E+02  0.7816164E-02  0.1266605E+00
        -11   -1    0    0    0    0  0.00000000000E+00  0.00000000000E+00  0.45593999997E+02  0.45594000000E+02  0.51100000000E-03 0. -1.
         11   -1    0    0    0    0 -0.00000000000E+00 -0.00000000000E+00 -0.45593999997E+02  0.45594000000E+02  0.51100000000E-03 0.  1.
    9900012    2    1    2    0    0  0.31139146581E+01  0.26590999132E+02 -0.17318914302E+02  0.59301913819E+02  0.49999944907E+02 0.  0.
         12    1    1    2    0    0 -0.31139146581E+01 -0.26590999132E+02  0.17318914302E+02  0.31886086181E+02  0.00000000000E+00 0. -1.
         11    1    3    3    0    0 -0.10624709955E+02  0.13033324783E+02 -0.41279492090E+00  0.16820297751E+02  0.51100000000E-03 0. -1.
        -11    1    3    3    0    0  0.21620129915E+02  0.14073321745E+02 -0.23286998405E+01  0.25901954476E+02  0.51100000000E-03 0.  1.
        -12    1    3    3    0    0 -0.78815053019E+01 -0.51564739600E+00 -0.14577419541E+02  0.16579661593E+02  0.00000000000E+00 0.  1.
</event>
<event>
 7    1  0.7579108E-012  0.5930197E+02  0.7816164E-02  0.1266605E+00
        -11   -1    0    0    0    0  0.00000000000E+00  0.00000000000E+00  0.45593999997E+02  0.45594000000E+02  0.51100000000E-03 0. -1.
         11   -1    0    0    0    0 -0.00000000000E+00 -0.00000000000E+00 -0.45593999997E+02  0.45594000000E+02  0.51100000000E-03 0.  1.
    9900012    2    1    2    0    0 -0.62264834283E+01 -0.31266613664E+02  0.59054928855E+00  0.59301968978E+02  0.50000045503E+02 0.  0.
         12    1    1    2    0    0  0.62264834283E+01  0.31266613664E+02 -0.59054928855E+00  0.31886031022E+02  0.00000000000E+00 0. -1.
         11    1    3    3    0    0  0.28028621877E+00 -0.21582506632E+02  0.18963423344E+02  0.28731421441E+02  0.51100000000E-03 0. -1.
        -11    1    3    3    0    0 -0.10961008000E+02 -0.14292506658E+02 -0.13113254868E+02  0.22279517419E+02  0.51100000000E-03 0.  1.
         12    1    3    3    0    0  0.44542383530E+01  0.46083996256E+01 -0.52596191867E+01  0.82910301172E+01  0.00000000000E+00 0. -1.
</event>
<event>
 7    1  0.7579108E-012  0.5930194E+02  0.7816164E-02  0.1266605E+00
        -11   -1    0    0    0    0  0.00000000000E+00  0.00000000000E+00  0.45593999997E+02  0.45594000000E+02  0.51100000000E-03 0. -1.
         11   -1    0    0    0    0 -0.00000000000E+00 -0.00000000000E+00 -0.45593999997E+02  0.45594000000E+02  0.51100000000E-03 0.  1.
    9900012    2    1    2    0    0 -0.16550736014E+02  0.32863952632E+01 -0.27055381122E+02  0.59301938717E+02  0.49999990315E+02 0.  0.
         12    1    1    2    0    0  0.16550736014E+02 -0.32863952632E+01  0.27055381122E+02  0.31886061283E+02  0.00000000000E+00 0. -1.
         11    1    3    3    0    0  0.64375246883E+01  0.74021201822E+01  0.97557147063E+01  0.13834994651E+02  0.51100000000E-03 0. -1.
        -11    1    3    3    0    0 -0.19231737748E+02 -0.56981370261E+01 -0.20603797723E+02  0.28754912333E+02  0.51100000000E-03 0.  1.
         12    1    3    3    0    0 -0.37565229543E+01  0.15824121072E+01 -0.16207298106E+02  0.16712031734E+02  0.00000000000E+00 0. -1.
</event>
<event>
 7    1  0.7579108E-012  0.5930194E+02  0.7816164E-02  0.1266605E+00
        -11   -1    0    0    0    0  0.00000000000E+00  0.00000000000E+00  0.45593999997E+02  0.45594000000E+02  0.51100000000E-03 0. -1.
         11   -1    0    0    0    0 -0.00000000000E+00 -0.00000000000E+00 -0.45593999997E+02  0.45594000000E+02  0.51100000000E-03 0.  1.
    9900012    2    1    2    0    0 -0.12483469934E+02 -0.20342477983E+02 -0.21143965862E+02  0.59301941535E+02  0.49999995454E+02 0.  0.
         12    1    1    2    0    0  0.12483469934E+02  0.20342477983E+02  0.21143965862E+02  0.31886058465E+02  0.00000000000E+00 0. -1.
         11    1    3    3    0    0 -0.12437801087E+02 -0.12282553316E+02 -0.17336848308E+02  0.24619632844E+02  0.51100000000E-03 0.  1.
        -11    1    3    3    0    0  0.13253156038E+02 -0.34757420955E+01  0.83881910049E+01  0.16065138551E+02  0.51100000000E-03 0. -1.
         12    1    3    3    0    0 -0.13298824884E+02 -0.45841825708E+01 -0.12195308559E+02  0.18617170140E+02  0.00000000000E+00 0. -1.
</event>
<event>
 7    1  0.7579108E-012  0.5930195E+02  0.7816164E-02  0.1266605E+00
        -11   -1    0    0    0    0  0.00000000000E+00  0.00000000000E+00  0.45593999997E+02  0.45594000000E+02  0.51100000000E-03 0.  1.
         11   -1    0    0    0    0 -0.00000000000E+00 -0.00000000000E+00 -0.45593999997E+02  0.45594000000E+02  0.51100000000E-03 0. -1.
    9900012    2    1    2    0    0 -0.16777630504E+02  0.94048863938E+01  0.25431855866E+02  0.59301951857E+02  0.50000014278E+02 0.  0.
         12    1    1    2    0    0  0.16777630504E+02 -0.94048863938E+01 -0.25431855866E+02  0.31886048143E+02  0.00000000000E+00 0. -1.
         11    1    3    3    0    0 -0.12848074714E+02 -0.18718104657E+02  0.58817333393E+01  0.23452830387E+02  0.51100000000E-03 0. -1.
        -11    1    3    3    0    0 -0.35168437772E+01  0.14685655597E+02  0.46948435988E+01  0.15813861867E+02  0.51100000000E-03 0.  1.
         12    1    3    3    0    0 -0.41271201232E+00  0.13437335454E+02  0.14855278928E+02  0.20035259602E+02  0.00000000000E+00 0. -1.
</event>
<event>
 7    1  0.7579108E-012  0.5930196E+02  0.7816164E-02  0.1266605E+00
        -11   -1    0    0    0    0  0.00000000000E+00  0.00000000000E+00  0.45593999997E+02  0.45594000000E+02  0.51100000000E-03 0. -1.
         11   -1    0    0    0    0 -0.00000000000E+00 -0.00000000000E+00 -0.45593999997E+02  0.45594000000E+02  0.51100000000E-03 0.  1.
    9900012    2    1    2    0    0  0.26669909730E+02  0.13707036663E+02 -0.10842169372E+02  0.59301959547E+02  0.50000028303E+02 0.  0.
         12    1    1    2    0    0 -0.26669909730E+02 -0.13707036663E+02  0.10842169372E+02  0.31886040453E+02  0.00000000000E+00 0. -1.
         11    1    3    3    0    0 -0.34762106410E+00  0.10576144128E+02  0.39290236427E+01  0.11287731928E+02  0.51100000000E-03 0. -1.
        -11    1    3    3    0    0  0.13966572749E+02 -0.11703910099E+02  0.61553502555E+01  0.19233694471E+02  0.51100000000E-03 0.  1.
        -12    1    3    3    0    0  0.13050958045E+02  0.14834802635E+02 -0.20926543270E+02  0.28780533149E+02  0.00000000000E+00 0.  1.
</event>
<event>
 7    1  0.7579108E-012  0.5930195E+02  0.7816164E-02  0.1266605E+00
        -11   -1    0    0    0    0  0.00000000000E+00  0.00000000000E+00  0.45593999997E+02  0.45594000000E+02  0.51100000000E-03 0.  1.
         11   -1    0    0    0    0 -0.00000000000E+00 -0.00000000000E+00 -0.45593999997E+02  0.45594000000E+02  0.51100000000E-03 0. -1.
    9900012    2    1    2    0    0  0.10435032740E+02 -0.33051786395E+01  0.29948388750E+02  0.59301951282E+02  0.50000013230E+02 0.  0.
         12    1    1    2    0    0 -0.10435032740E+02  0.33051786395E+01 -0.29948388750E+02  0.31886048718E+02  0.00000000000E+00 0. -1.
         11    1    3    3    0    0  0.31267068969E+01 -0.92249764618E+01  0.69927210590E+00  0.97655244856E+01  0.51100000000E-03 0. -1.
        -11    1    3    3    0    0  0.85415661362E+01  0.27465378264E+01  0.38577015577E+02  0.39606665514E+02  0.51100000000E-03 0.  1.
        -12    1    3    3    0    0 -0.12332402930E+01  0.31732599959E+01 -0.93278989329E+01  0.99297612823E+01  0.00000000000E+00 0.  1.
</event>
<event>
 7    1  0.7579108E-012  0.5930194E+02  0.7816164E-02  0.1266605E+00
        -11   -1    0    0    0    0  0.00000000000E+00  0.00000000000E+00  0.45593999997E+02  0.45594000000E+02  0.51100000000E-03 0.  1.
         11   -1    0    0    0    0 -0.00000000000E+00 -0.00000000000E+00 -0.45593999997E+02  0.45594000000E+02  0.51100000000E-03 0. -1.
    9900012    2    1    2    0    0  0.24024250128E+02  0.94747179344E+01  0.18702557345E+02  0.59301944656E+02  0.50000001146E+02 0.  0.
         12    1    1    2    0    0 -0.24024250128E+02 -0.94747179344E+01 -0.18702557345E+02  0.31886055344E+02  0.00000000000E+00 0. -1.
         11    1    3    3    0    0  0.24624609231E+02 -0.75222739978E+01 -0.63724203018E+01  0.26524775714E+02  0.51100000000E-03 0. -1.
        -11    1    3    3    0    0  0.48577776535E+01  0.74948847406E+01  0.16867249484E+02  0.19086000273E+02  0.51100000000E-03 0.  1.
         12    1    3    3    0    0 -0.54581367572E+01  0.95021071917E+01  0.82077281628E+01  0.13691168670E+02  0.00000000000E+00 0. -1.
</event>
<event>
 7    1  0.7579108E-012  0.5930194E+02  0.7816164E-02  0.1266605E+00
        -11   -1    0    0    0    0  0.00000000000E+00  0.00000000000E+00  0.45593999997E+02  0.45594000000E+02  0.51100000000E-03 0.  1.
         11   -1    0    0    0    0 -0.00000000000E+00 -0.00000000000E+00 -0.45593999997E+02  0.45594000000E+02  0.51100000000E-03 0. -1.
    9900012    2    1    2    0    0 -0.29894172595E+02  0.89001202461E+01 -0.66216956385E+01  0.59301944292E+02  0.50000000481E+02 0.  0.
         12    1    1    2    0    0  0.29894172595E+02 -0.89001202461E+01  0.66216956385E+01  0.31886055708E+02  0.00000000000E+00 0. -1.
         11    1    3    3    0    0 -0.33762501892E+02  0.18846154049E+02 -0.34099537071E+01  0.38816386243E+02  0.51100000000E-03 0. -1.
        -11    1    3    3    0    0  0.16215553429E+01 -0.14100507697E+02 -0.55194193948E+01  0.15228845976E+02  0.51100000000E-03 0.  1.
         12    1    3    3    0    0  0.22467739545E+01  0.41544738937E+01  0.23076774634E+01  0.52567120724E+01  0.00000000000E+00 0. -1.
</event>
<event>
 7    1  0.7579108E-012  0.5930215E+02  0.7816164E-02  0.1266604E+00
        -11   -1    0    0    0    0  0.00000000000E+00  0.00000000000E+00  0.45593999997E+02  0.45594000000E+02  0.51100000000E-03 0. -1.
         11   -1    0    0    0    0 -0.00000000000E+00 -0.00000000000E+00 -0.45593999997E+02  0.45594000000E+02  0.51100000000E-03 0.  1.
    9900012    2    1    2    0    0 -0.20482013749E+02 -0.17356349813E+02 -0.17203251717E+02  0.59302146778E+02  0.50000369767E+02 0.  0.
         12    1    1    2    0    0  0.20482013749E+02  0.17356349813E+02  0.17203251717E+02  0.31885853222E+02  0.00000000000E+00 0. -1.
         11    1    3    3    0    0 -0.58594112926E+01 -0.16476100844E+02 -0.99092785857E+01  0.20099462731E+02  0.51100000000E-03 0. -1.
        -11    1    3    3    0    0 -0.21455449249E+02 -0.13461485480E+01  0.76064700471E+01  0.22803657716E+02  0.51100000000E-03 0.  1.
        -12    1    3    3    0    0  0.68328467923E+01  0.46589957910E+00 -0.14900443179E+02  0.16399026331E+02  0.00000000000E+00 0.  1.
</event>
<event>
 7    1  0.7579108E-012  0.5930193E+02  0.7816164E-02  0.1266605E+00
        -11   -1    0    0    0    0  0.00000000000E+00  0.00000000000E+00  0.45593999997E+02  0.45594000000E+02  0.51100000000E-03 0. -1.
         11   -1    0    0    0    0 -0.00000000000E+00 -0.00000000000E+00 -0.45593999997E+02  0.45594000000E+02  0.51100000000E-03 0.  1.
    9900012    2    1    2    0    0 -0.17791220190E+02 -0.19451802965E+02 -0.17939378740E+02  0.59301929938E+02  0.49999974303E+02 0.  0.
         12    1    1    2    0    0  0.17791220190E+02  0.19451802965E+02  0.17939378740E+02  0.31886070062E+02  0.00000000000E+00 0. -1.
         11    1    3    3    0    0  0.80701983724E+00  0.46056933122E+00  0.34244254840E+01  0.35482524266E+01  0.51100000000E-03 0. -1.
        -11    1    3    3    0    0 -0.26515167869E+02 -0.29092126969E+02 -0.15788010397E+02  0.42410697368E+02  0.51100000000E-03 0.  1.
        -12    1    3    3    0    0  0.79169278412E+01  0.91797546728E+01 -0.55757938271E+01  0.13342980143E+02  0.00000000000E+00 0.  1.
</event>
<event>
 7    1  0.7579108E-012  0.5930193E+02  0.7816164E-02  0.1266605E+00
        -11   -1    0    0    0    0  0.00000000000E+00  0.00000000000E+00  0.45593999997E+02  0.45594000000E+02  0.51100000000E-03 0.  1.
         11   -1    0    0    0    0 -0.00000000000E+00 -0.00000000000E+00 -0.45593999997E+02  0.45594000000E+02  0.51100000000E-03 0. -1.
    9900012    2    1    2    0    0 -0.99350568547E+01  0.13706261183E+02  0.27021369738E+02  0.59301931367E+02  0.49999976910E+02 0.  0.
         12    1    1    2    0    0  0.99350568547E+01 -0.13706261183E+02 -0.27021369738E+02  0.31886068633E+02  0.00000000000E+00 0. -1.
         11    1    3    3    0    0 -0.23625314777E+02  0.16522602159E+02  0.61282518081E+01  0.29473841807E+02  0.51100000000E-03 0. -1.
        -11    1    3    3    0    0  0.56470611244E+01 -0.85400303144E+00  0.20777506919E+02  0.21548164992E+02  0.51100000000E-03 0.  1.
         12    1    3    3    0    0  0.80431967977E+01 -0.19623379447E+01  0.11561101152E+00  0.82799245674E+01  0.00000000000E+00 0. -1.
</event>
<event>
 7    1  0.7579108E-012  0.5930192E+02  0.7816164E-02  0.1266605E+00
        -11   -1    0    0    0    0  0.00000000000E+00  0.00000000000E+00  0.45593999997E+02  0.45594000000E+02  0.51100000000E-03 0. -1.
         11   -1    0    0    0    0 -0.00000000000E+00 -0.00000000000E+00 -0.45593999997E+02  0.45594000000E+02  0.51100000000E-03 0.  1.
    9900012    2    1    2    0    0 -0.29136904041E+02 -0.12233056271E+02 -0.42561718164E+01  0.59301924020E+02  0.49999963511E+02 0.  0.
         12    1    1    2    0    0  0.29136904041E+02  0.12233056271E+02  0.42561718164E+01  0.31886075980E+02  0.00000000000E+00 0. -1.
         11    1    3    3    0    0 -0.47134393680E+01 -0.16218743470E+02 -0.17863056139E+02  0.24583590570E+02  0.51100000000E-03 0. -1.
        -11    1    3    3    0    0 -0.56965617590E+01  0.92318264551E+01 -0.23006507939E+00  0.10850362472E+02  0.51100000000E-03 0.  1.
         12    1    3    3    0    0 -0.18726902914E+02 -0.52461392560E+01  0.13836949402E+02  0.23867970978E+02  0.00000000000E+00 0. -1.
</event>
<event>
 7    1  0.7579108E-012  0.5930194E+02  0.7816164E-02  0.1266605E+00
        -11   -1    0    0    0    0  0.00000000000E+00  0.00000000000E+00  0.45593999997E+02  0.45594000000E+02  0.51100000000E-03 0. -1.
         11   -1    0    0    0    0 -0.00000000000E+00 -0.00000000000E+00 -0.45593999997E+02  0.45594000000E+02  0.51100000000E-03 0.  1.
    9900012    2    1    2    0    0  0.24036753615E+02  0.81237880224E+01 -0.19312154217E+02  0.59301941029E+02  0.49999994532E+02 0.  0.
         12    1    1    2    0    0 -0.24036753615E+02 -0.81237880224E+01  0.19312154217E+02  0.31886058971E+02  0.00000000000E+00 0. -1.
         11    1    3    3    0    0  0.88772518837E+01  0.10010984589E+02  0.95276616317E+01  0.16425643059E+02  0.51100000000E-03 0. -1.
        -11    1    3    3    0    0  0.15987234015E+02 -0.12823472842E+02 -0.16074517001E+02  0.26046558396E+02  0.51100000000E-03 0.  1.
         12    1    3    3    0    0 -0.82773228355E+00  0.10936276275E+02 -0.12765298848E+02  0.16829739575E+02  0.00000000000E+00 0. -1.
</event>
<event>
 7    1  0.7579108E-012  0.5930193E+02  0.7816164E-02  0.1266605E+00
        -11   -1    0    0    0    0  0.00000000000E+00  0.00000000000E+00  0.45593999997E+02  0.45594000000E+02  0.51100000000E-03 0.  1.
         11   -1    0    0    0    0 -0.00000000000E+00 -0.00000000000E+00 -0.45593999997E+02  0.45594000000E+02  0.51100000000E-03 0. -1.
    9900012    2    1    2    0    0  0.26932081904E+02  0.27850813058E+01  0.16841253279E+02  0.59301928972E+02  0.49999972542E+02 0.  0.
         12    1    1    2    0    0 -0.26932081904E+02 -0.27850813058E+01 -0.16841253279E+02  0.31886071028E+02  0.00000000000E+00 0. -1.
         11    1    3    3    0    0 -0.89472601599E+01  0.81479369555E+01 -0.35788045416E+01  0.12619436723E+02  0.51100000000E-03 0. -1.
        -11    1    3    3    0    0  0.97177783904E+01 -0.11337627901E+02  0.50835253748E+01  0.15774005635E+02  0.51100000000E-03 0.  1.
         12    1    3    3    0    0  0.26161563674E+02  0.59747722514E+01  0.15336532446E+02  0.30908486614E+02  0.00000000000E+00 0. -1.
</event>
<event>
 7    1  0.7579108E-012  0.5930193E+02  0.7816164E-02  0.1266605E+00
        -11   -1    0    0    0    0  0.00000000000E+00  0.00000000000E+00  0.45593999997E+02  0.45594000000E+02  0.51100000000E-03 0.  1.
         11   -1    0    0    0    0 -0.00000000000E+00 -0.00000000000E+00 -0.45593999997E+02  0.45594000000E+02  0.51100000000E-03 0. -1.
    9900012    2    1    2    0    0  0.14770635273E+02  0.25827799379E+02  0.11466238014E+02  0.59301929352E+02  0.49999973236E+02 0.  0.
         12    1    1    2    0    0 -0.14770635273E+02 -0.25827799379E+02 -0.11466238014E+02  0.31886070648E+02  0.00000000000E+00 0. -1.
         11    1    3    3    0    0  0.95372753893E+01  0.12429965144E+02  0.71336467766E+01  0.17214893898E+02  0.51100000000E-03 0. -1.
        -11    1    3    3    0    0  0.13614941981E+02 -0.82254793193E+01 -0.55929104401E+01  0.16861370129E+02  0.51100000000E-03 0.  1.
        -12    1    3    3    0    0 -0.83815820974E+01  0.21623313555E+02  0.99255016772E+01  0.25225665325E+02  0.00000000000E+00 0.  1.
</event>
<event>
 7    1  0.7579108E-012  0.5930194E+02  0.7816164E-02  0.1266605E+00
        -11   -1    0    0    0    0  0.00000000000E+00  0.00000000000E+00  0.45593999997E+02  0.45594000000E+02  0.51100000000E-03 0.  1.
         11   -1    0    0    0    0 -0.00000000000E+00 -0.00000000000E+00 -0.45593999997E+02  0.45594000000E+02  0.51100000000E-03 0. -1.
    9900012    2    1    2    0    0 -0.93327634483E+01 -0.22948655250E+02  0.20074355536E+02  0.59301937190E+02  0.49999987529E+02 0.  0.
         12    1    1    2    0    0  0.93327634483E+01  0.22948655250E+02 -0.20074355536E+02  0.31886062810E+02  0.00000000000E+00 0. -1.
         11    1    3    3    0    0  0.90383802218E+01 -0.22289359883E+02  0.12524107310E+02  0.27117543126E+02  0.51100000000E-03 0. -1.
        -11    1    3    3    0    0 -0.17716240785E+02  0.15366298606E+01  0.15698134200E+02  0.23720409704E+02  0.51100000000E-03 0.  1.
         12    1    3    3    0    0 -0.65490288479E+00 -0.21959252273E+01 -0.81478859744E+01  0.84639843599E+01  0.00000000000E+00 0. -1.
</event>
<event>
 7    1  0.7579108E-012  0.5930191E+02  0.7816164E-02  0.1266605E+00
        -11   -1    0    0    0    0  0.00000000000E+00  0.00000000000E+00  0.45593999997E+02  0.45594000000E+02  0.51100000000E-03 0.  1.
         11   -1    0    0    0    0 -0.00000000000E+00 -0.00000000000E+00 -0.45593999997E+02  0.45594000000E+02  0.51100000000E-03 0. -1.
    9900012    2    1    2    0    0  0.28666762130E+02  0.75117159635E+01 -0.11769172676E+02  0.59301912859E+02  0.49999943155E+02 0.  0.
         12    1    1    2    0    0 -0.28666762130E+02 -0.75117159635E+01  0.11769172676E+02  0.31886087141E+02  0.00000000000E+00 0. -1.
         11    1    3    3    0    0  0.18689089407E+02 -0.15743171543E+02  0.60987753335E+01  0.25185801038E+02  0.51100000000E-03 0. -1.
        -11    1    3    3    0    0  0.72603943390E+01  0.15817076654E+02 -0.35616783964E+01  0.17764537514E+02  0.51100000000E-03 0.  1.
        -12    1    3    3    0    0  0.27172783837E+01  0.74378108518E+01 -0.14306269613E+02  0.16351574307E+02  0.00000000000E+00 0.  1.
</event>
<event>
 7    1  0.7579108E-012  0.5930195E+02  0.7816164E-02  0.1266605E+00
        -11   -1    0    0    0    0  0.00000000000E+00  0.00000000000E+00  0.45593999997E+02  0.45594000000E+02  0.51100000000E-03 0.  1.
         11   -1    0    0    0    0 -0.00000000000E+00 -0.00000000000E+00 -0.45593999997E+02  0.45594000000E+02  0.51100000000E-03 0. -1.
    9900012    2    1    2    0    0  0.29357522877E+02 -0.99710599736E+01  0.74454065449E+01  0.59301948738E+02  0.50000008591E+02 0.  0.
         12    1    1    2    0    0 -0.29357522877E+02  0.99710599736E+01 -0.74454065449E+01  0.31886051262E+02  0.00000000000E+00 0. -1.
         11    1    3    3    0    0  0.11118646376E+02 -0.13885264230E+00 -0.11734608799E+02  0.16166156662E+02  0.51100000000E-03 0. -1.
        -11    1    3    3    0    0  0.27475578334E+02 -0.44969473573E+01  0.12260685023E+02  0.30421281002E+02  0.51100000000E-03 0.  1.
         12    1    3    3    0    0 -0.92367018337E+01 -0.53352599740E+01  0.69193303213E+01  0.12714511074E+02  0.00000000000E+00 0. -1.
</event>
<event>
 7    1  0.7579108E-012  0.5930195E+02  0.7816164E-02  0.1266605E+00
        -11   -1    0    0    0    0  0.00000000000E+00  0.00000000000E+00  0.45593999997E+02  0.45594000000E+02  0.51100000000E-03 0. -1.
         11   -1    0    0    0    0 -0.00000000000E+00 -0.00000000000E+00 -0.45593999997E+02  0.45594000000E+02  0.51100000000E-03 0.  1.
    9900012    2    1    2    0    0  0.30958248351E+02 -0.52363315592E+01  0.55576607310E+01  0.59301954433E+02  0.50000018976E+02 0.  0.
         12    1    1    2    0    0 -0.30958248351E+02  0.52363315592E+01 -0.55576607310E+01  0.31886045567E+02  0.00000000000E+00 0. -1.
         11    1    3    3    0    0  0.29470526177E+02  0.10404323081E+02  0.19629875989E+02  0.36906556105E+02  0.51100000000E-03 0. -1.
        -11    1    3    3    0    0  0.42542941961E+01 -0.59226190293E+01 -0.53028863939E+01  0.90164871009E+01  0.51100000000E-03 0.  1.
         12    1    3    3    0    0 -0.27665720221E+01 -0.97180356114E+01 -0.87693288638E+01  0.13378911227E+02  0.00000000000E+00 0. -1.
</event>
<event>
 7    1  0.7579108E-012  0.5930197E+02  0.7816164E-02  0.1266605E+00
        -11   -1    0    0    0    0  0.00000000000E+00  0.00000000000E+00  0.45593999997E+02  0.45594000000E+02  0.51100000000E-03 0. -1.
         11   -1    0    0    0    0 -0.00000000000E+00 -0.00000000000E+00 -0.45593999997E+02  0.45594000000E+02  0.51100000000E-03 0.  1.
    9900012    2    1    2    0    0 -0.21091334141E+02  0.91894814333E+01 -0.22077776270E+02  0.59301966225E+02  0.50000040483E+02 0.  0.
         12    1    1    2    0    0  0.21091334141E+02 -0.91894814333E+01  0.22077776270E+02  0.31886033775E+02  0.00000000000E+00 0. -1.
         11    1    3    3    0    0 -0.16983732437E+02 -0.29147085135E+01 -0.24685115930E+01  0.17407936206E+02  0.51100000000E-03 0. -1.
        -11    1    3    3    0    0 -0.76739486816E+01  0.19718524886E+02 -0.24336075998E+02  0.32248322550E+02  0.51100000000E-03 0.  1.
        -12    1    3    3    0    0  0.35663469774E+01 -0.76143349390E+01  0.47268113210E+01  0.96457074697E+01  0.00000000000E+00 0.  1.
</event>
<event>
 7    1  0.7579108E-012  0.5930182E+02  0.7816164E-02  0.1266605E+00
        -11   -1    0    0    0    0  0.00000000000E+00  0.00000000000E+00  0.45593999997E+02  0.45594000000E+02  0.51100000000E-03 0. -1.
         11   -1    0    0    0    0 -0.00000000000E+00 -0.00000000000E+00 -0.45593999997E+02  0.45594000000E+02  0.51100000000E-03 0.  1.
    9900012    2    1    2    0    0 -0.31912661646E+01 -0.23144137165E+02 -0.21700071148E+02  0.59301821917E+02  0.49999777300E+02 0.  0.
         12    1    1    2    0    0  0.31912661646E+01  0.23144137165E+02  0.21700071148E+02  0.31886178083E+02  0.00000000000E+00 0. -1.
         11    1    3    3    0    0 -0.15537863026E+01 -0.21976331529E+02 -0.17755587342E+01  0.22102624469E+02  0.51100000000E-03 0. -1.
        -11    1    3    3    0    0  0.32675196346E+01  0.89562705938E+01 -0.23528215249E+02  0.25386381793E+02  0.51100000000E-03 0.  1.
        -12    1    3    3    0    0 -0.49049994966E+01 -0.10124076230E+02  0.36037028344E+01  0.11812815655E+02  0.00000000000E+00 0.  1.
</event>
<event>
 7    1  0.7579108E-012  0.5930193E+02  0.7816164E-02  0.1266605E+00
        -11   -1    0    0    0    0  0.00000000000E+00  0.00000000000E+00  0.45593999997E+02  0.45594000000E+02  0.51100000000E-03 0.  1.
         11   -1    0    0    0    0 -0.00000000000E+00 -0.00000000000E+00 -0.45593999997E+02  0.45594000000E+02  0.51100000000E-03 0. -1.
    9900012    2    1    2    0    0  0.86858749059E+01  0.29328691254E+02 -0.90058196786E+01  0.59301931857E+02  0.49999977803E+02 0.  0.
         12    1    1    2    0    0 -0.86858749059E+01 -0.29328691254E+02  0.90058196786E+01  0.31886068143E+02  0.00000000000E+00 0. -1.
         11    1    3    3    0    0  0.15615845990E+02  0.21773140619E+02 -0.23580167448E+02  0.35692416499E+02  0.51100000000E-03 0.  1.
        -11    1    3    3    0    0 -0.71610154822E+01 -0.46491402189E+00  0.23743247972E+00  0.71800182609E+01  0.51100000000E-03 0. -1.
         12    1    3    3    0    0  0.23104439802E+00  0.80204646567E+01  0.14336915289E+02  0.16429497096E+02  0.00000000000E+00 0. -1.
</event>
<event>
 7    1  0.8245774E-012  0.5930189E+02  0.7816164E-02  0.1266605E+00
        -11   -1    0    0    0    0  0.00000000000E+00  0.00000000000E+00  0.45593999997E+02  0.45594000000E+02  0.51100000000E-03 0. -1.
         11   -1    0    0    0    0 -0.00000000000E+00 -0.00000000000E+00 -0.45593999997E+02  0.45594000000E+02  0.51100000000E-03 0.  1.
    9900012    2    1    2    0    0 -0.98626165375E+01  0.57824500602E+01 -0.29766021234E+02  0.59301890896E+02  0.49999903100E+02 0.  0.
         12    1    1    2    0    0  0.98626165375E+01 -0.57824500602E+01  0.29766021234E+02  0.31886109104E+02  0.00000000000E+00 0. -1.
         11    1    3    3    0    0 -0.47811979872E+00  0.50977333606E+01  0.70778815662E+01  0.87356677869E+01  0.51100000000E-03 0. -1.
        -11    1    3    3    0    0 -0.10748620804E+02  0.10667337530E+02 -0.37527422835E+02  0.40467671097E+02  0.51100000000E-03 0.  1.
        -12    1    3    3    0    0  0.13641240648E+01 -0.99826208300E+01  0.68352003427E+00  0.10098552012E+02  0.00000000000E+00 0.  1.
</event>
<event>
 7    1  0.7579108E-012  0.5930191E+02  0.7816164E-02  0.1266605E+00
        -11   -1    0    0    0    0  0.00000000000E+00  0.00000000000E+00  0.45593999997E+02  0.45594000000E+02  0.51100000000E-03 0. -1.
         11   -1    0    0    0    0 -0.00000000000E+00 -0.00000000000E+00 -0.45593999997E+02  0.45594000000E+02  0.51100000000E-03 0.  1.
    9900012    2    1    2    0    0  0.12469631494E+02  0.15925139965E+02 -0.24649973609E+02  0.59301905987E+02  0.49999930622E+02 0.  0.
         12    1    1    2    0    0 -0.12469631494E+02 -0.15925139965E+02  0.24649973609E+02  0.31886094013E+02  0.00000000000E+00 0. -1.
         11    1    3    3    0    0  0.14106267840E+02 -0.12714535128E+02  0.13607086811E+01  0.19039373001E+02  0.51100000000E-03 0. -1.
        -11    1    3    3    0    0 -0.16781090171E+01  0.44328123380E+01 -0.10479604761E+02  0.11501651677E+02  0.51100000000E-03 0.  1.
         12    1    3    3    0    0  0.41472670247E-01  0.24206862755E+02 -0.15531077530E+02  0.28760881309E+02  0.00000000000E+00 0. -1.
</event>
<event>
 7    1  0.7579108E-012  0.5930201E+02  0.7816164E-02  0.1266605E+00
        -11   -1    0    0    0    0  0.00000000000E+00  0.00000000000E+00  0.45593999997E+02  0.45594000000E+02  0.51100000000E-03 0. -1.
         11   -1    0    0    0    0 -0.00000000000E+00 -0.00000000000E+00 -0.45593999997E+02  0.45594000000E+02  0.51100000000E-03 0.  1.
    9900012    2    1    2    0    0 -0.28305280718E+02 -0.11604400188E+02 -0.89925266542E+01  0.59302006902E+02  0.50000114667E+02 0.  0.
         12    1    1    2    0    0  0.28305280718E+02  0.11604400188E+02  0.89925266542E+01  0.31885993098E+02  0.00000000000E+00 0. -1.
         11    1    3    3    0    0 -0.72645661013E+01  0.10401334252E+02  0.10191827181E+02  0.16273752376E+02  0.51100000000E-03 0. -1.
        -11    1    3    3    0    0 -0.69480963808E+01 -0.11284469260E+02 -0.21412293758E+02  0.25181374348E+02  0.51100000000E-03 0.  1.
        -12    1    3    3    0    0 -0.14092618236E+02 -0.10721265179E+02  0.22279399235E+01  0.17846880178E+02  0.00000000000E+00 0.  1.
</event>
<event>
 7    1  0.7579108E-012  0.5930195E+02  0.7816164E-02  0.1266605E+00
        -11   -1    0    0    0    0  0.00000000000E+00  0.00000000000E+00  0.45593999997E+02  0.45594000000E+02  0.51100000000E-03 0.  1.
         11   -1    0    0    0    0 -0.00000000000E+00 -0.00000000000E+00 -0.45593999997E+02  0.45594000000E+02  0.51100000000E-03 0. -1.
    9900012    2    1    2    0    0 -0.65789710442E+01 -0.94214654869E+01  0.29743459991E+02  0.59301948439E+02  0.50000008045E+02 0.  0.
         12    1    1    2    0    0  0.65789710442E+01  0.94214654869E+01 -0.29743459991E+02  0.31886051561E+02  0.00000000000E+00 0. -1.
         11    1    3    3    0    0 -0.10205843485E+01  0.13904103497E+02  0.81932716551E+01  0.16170819000E+02  0.51100000000E-03 0. -1.
        -11    1    3    3    0    0 -0.43089073410E+01 -0.16982439450E+02 -0.29721759657E+01  0.17770868363E+02  0.51100000000E-03 0.  1.
        -12    1    3    3    0    0 -0.12494793547E+01 -0.63431295340E+01  0.24522364301E+02  0.25360261077E+02  0.00000000000E+00 0.  1.
</event>
<event>
 7    1  0.7579108E-012  0.5930193E+02  0.7816164E-02  0.1266605E+00
        -11   -1    0    0    0    0  0.00000000000E+00  0.00000000000E+00  0.45593999997E+02  0.45594000000E+02  0.51100000000E-03 0.  1.
         11   -1    0    0    0    0 -0.00000000000E+00 -0.00000000000E+00 -0.45593999997E+02  0.45594000000E+02  0.51100000000E-03 0. -1.
    9900012    2    1    2    0    0 -0.37938426967E+01  0.28883646425E+02 -0.12963929060E+02  0.59301925769E+02  0.49999966700E+02 0.  0.
         12    1    1    2    0    0  0.37938426967E+01 -0.28883646425E+02  0.12963929060E+02  0.31886074231E+02  0.00000000000E+00 0. -1.
         11    1    3    3    0    0 -0.81193776712E+00  0.11817961738E+02 -0.34144931659E+01  0.12328107171E+02  0.51100000000E-03 0. -1.
        -11    1    3    3    0    0 -0.17461077556E+02  0.49845014303E+01  0.92220029636E+01  0.20366144035E+02  0.51100000000E-03 0.  1.
        -12    1    3    3    0    0  0.14479172627E+02  0.12081183257E+02 -0.18771438858E+02  0.26607674563E+02  0.00000000000E+00 0.  1.
</event>
<event>
 7    1  0.7579108E-012  0.5930197E+02  0.7816164E-02  0.1266605E+00
        -11   -1    0    0    0    0  0.00000000000E+00  0.00000000000E+00  0.45593999997E+02  0.45594000000E+02  0.51100000000E-03 0. -1.
         11   -1    0    0    0    0 -0.00000000000E+00 -0.00000000000E+00 -0.45593999997E+02  0.45594000000E+02  0.51100000000E-03 0.  1.
    9900012    2    1    2    0    0  0.22403928960E+01 -0.26154849638E+02 -0.18100361967E+02  0.59301974483E+02  0.50000055543E+02 0.  0.
         12    1    1    2    0    0 -0.22403928960E+01  0.26154849638E+02  0.18100361967E+02  0.31886025517E+02  0.00000000000E+00 0. -1.
         11    1    3    3    0    0  0.12109671722E+02  0.59102048638E+00 -0.57321655379E+01  0.13410860392E+02  0.51100000000E-03 0. -1.
        -11    1    3    3    0    0 -0.36621289939E+01 -0.18170212445E+02  0.10060295971E+02  0.21089745479E+02  0.51100000000E-03 0.  1.
        -12    1    3    3    0    0 -0.62071498324E+01 -0.85756576796E+01 -0.22428492400E+02  0.24801368612E+02  0.00000000000E+00 0.  1.
</event>
<event>
 7    1  0.7579108E-012  0.5930194E+02  0.7816164E-02  0.1266605E+00
        -11   -1    0    0    0    0  0.00000000000E+00  0.00000000000E+00  0.45593999997E+02  0.45594000000E+02  0.51100000000E-03 0.  1.
         11   -1    0    0    0    0 -0.00000000000E+00 -0.00000000000E+00 -0.45593999997E+02  0.45594000000E+02  0.51100000000E-03 0. -1.
    9900012    2    1    2    0    0 -0.10456588712E+02  0.41439545234E+00  0.30119903748E+02  0.59301943911E+02  0.49999999788E+02 0.  0.
         12    1    1    2    0    0  0.10456588712E+02 -0.41439545234E+00 -0.30119903748E+02  0.31886056089E+02  0.00000000000E+00 0. -1.
         11    1    3    3    0    0  0.95334091469E+01 -0.49336975070E+01  0.18112011048E+01  0.10886124689E+02  0.51100000000E-03 0. -1.
        -11    1    3    3    0    0 -0.92973521124E+01  0.98325526155E+01  0.33184381685E+02  0.35837452969E+02  0.51100000000E-03 0.  1.
        -12    1    3    3    0    0 -0.10692645747E+02 -0.44844596562E+01 -0.48756790417E+01  0.12578366253E+02  0.00000000000E+00 0.  1.
</event>
<event>
 7    1  0.7579108E-012  0.5930192E+02  0.7816164E-02  0.1266605E+00
        -11   -1    0    0    0    0  0.00000000000E+00  0.00000000000E+00  0.45593999997E+02  0.45594000000E+02  0.51100000000E-03 0.  1.
         11   -1    0    0    0    0 -0.00000000000E+00 -0.00000000000E+00 -0.45593999997E+02  0.45594000000E+02  0.51100000000E-03 0. -1.
    9900012    2    1    2    0    0  0.24823337686E+01 -0.17330174066E+01  0.31742035765E+02  0.59301918950E+02  0.49999954264E+02 0.  0.
         12    1    1    2    0    0 -0.24823337686E+01  0.17330174066E+01 -0.31742035765E+02  0.31886081050E+02  0.00000000000E+00 0. -1.
         11    1    3    3    0    0 -0.42753632234E+01 -0.54867186534E+01 -0.27776637616E+01  0.74898750662E+01  0.51100000000E-03 0. -1.
        -11    1    3    3    0    0  0.12340672403E+02 -0.18990848896E+01  0.40168016845E+02  0.42063859741E+02  0.51100000000E-03 0.  1.
        -12    1    3    3    0    0 -0.55829754112E+01  0.56527861364E+01 -0.56483173187E+01  0.97481841426E+01  0.00000000000E+00 0.  1.
</event>
<event>
 7    1  0.7579108E-012  0.5930195E+02  0.7816164E-02  0.1266605E+00
        -11   -1    0    0    0    0  0.00000000000E+00  0.00000000000E+00  0.45593999997E+02  0.45594000000E+02  0.51100000000E-03 0.  1.
         11   -1    0    0    0    0 -0.00000000000E+00 -0.00000000000E+00 -0.45593999997E+02  0.45594000000E+02  0.51100000000E-03 0. -1.
    9900012    2    1    2    0    0 -0.19147491491E+02 -0.88529472801E+01  0.23910641501E+02  0.59301954730E+02  0.50000019518E+02 0.  0.
         12    1    1    2    0    0  0.19147491491E+02  0.88529472801E+01 -0.23910641501E+02  0.31886045270E+02  0.00000000000E+00 0. -1.
         11    1    3    3    0    0  0.41620511870E+01 -0.91271954457E+00 -0.23443022116E+01  0.48632787469E+01  0.51100000000E-03 0. -1.
        -11    1    3    3    0    0 -0.55477971322E+01 -0.21835721712E+02  0.42433567189E+01  0.22925594260E+02  0.51100000000E-03 0.  1.
        -12    1    3    3    0    0 -0.17761745546E+02  0.13895493976E+02  0.22011586994E+02  0.31513081723E+02  0.00000000000E+00 0.  1.
</event>
<event>
 7    1  0.7579108E-012  0.5930194E+02  0.7816164E-02  0.1266605E+00
        -11   -1    0    0    0    0  0.00000000000E+00  0.00000000000E+00  0.45593999997E+02  0.45594000000E+02  0.51100000000E-03 0.  1.
         11   -1    0    0    0    0 -0.00000000000E+00 -0.00000000000E+00 -0.45593999997E+02  0.45594000000E+02  0.51100000000E-03 0. -1.
    9900012    2    1    2    0    0  0.19235698406E+02 -0.64990734452E+01  0.24585981126E+02  0.59301944791E+02  0.50000001393E+02 0.  0.
         12    1    1    2    0    0 -0.19235698406E+02  0.64990734452E+01 -0.24585981126E+02  0.31886055209E+02  0.00000000000E+00 0. -1.
         11    1    3    3    0    0  0.15231484330E+02 -0.24225455685E+01  0.13004082943E+01  0.15477658219E+02  0.51100000000E-03 0. -1.
        -11    1    3    3    0    0 -0.16019912776E+02  0.10109611267E+01  0.13451855721E+02  0.20943067358E+02  0.51100000000E-03 0.  1.
        -12    1    3    3    0    0  0.20024126852E+02 -0.50874890034E+01  0.98337171109E+01  0.22881219215E+02  0.00000000000E+00 0.  1.
</event>
<event>
 7    1  0.7579108E-012  0.5930197E+02  0.7816164E-02  0.1266605E+00
        -11   -1    0    0    0    0  0.00000000000E+00  0.00000000000E+00  0.45593999997E+02  0.45594000000E+02  0.51100000000E-03 0. -1.
         11   -1    0    0    0    0 -0.00000000000E+00 -0.00000000000E+00 -0.45593999997E+02  0.45594000000E+02  0.51100000000E-03 0.  1.
    9900012    2    1    2    0    0  0.21374264704E+02  0.22217458306E+02 -0.81390689875E+01  0.59301967177E+02  0.50000042219E+02 0.  0.
         12    1    1    2    0    0 -0.21374264704E+02 -0.22217458306E+02  0.81390689875E+01  0.31886032823E+02  0.00000000000E+00 0. -1.
         11    1    3    3    0    0  0.41319432371E+01 -0.24110823664E+01  0.60231627885E+01  0.76918634498E+01  0.51100000000E-03 0. -1.
        -11    1    3    3    0    0  0.25260170707E+02  0.24865488124E+02 -0.20887993886E+02  0.41142156150E+02  0.51100000000E-03 0.  1.
        -12    1    3    3    0    0 -0.80178492395E+01 -0.23694745222E+00  0.67257621103E+01  0.10467947578E+02  0.00000000000E+00 0.  1.
</event>
<event>
 7    1  0.7579108E-012  0.5930194E+02  0.7816164E-02  0.1266605E+00
        -11   -1    0    0    0    0  0.00000000000E+00  0.00000000000E+00  0.45593999997E+02  0.45594000000E+02  0.51100000000E-03 0.  1.
         11   -1    0    0    0    0 -0.00000000000E+00 -0.00000000000E+00 -0.45593999997E+02  0.45594000000E+02  0.51100000000E-03 0. -1.
    9900012    2    1    2    0    0 -0.20865674848E+02  0.19719641500E+02  0.13873726722E+02  0.59301938140E+02  0.49999989263E+02 0.  0.
         12    1    1    2    0    0  0.20865674848E+02 -0.19719641500E+02 -0.13873726722E+02  0.31886061860E+02  0.00000000000E+00 0. -1.
         11    1    3    3    0    0 -0.20371936510E+02  0.28070214535E+01 -0.10948145485E+02  0.23297146960E+02  0.51100000000E-03 0. -1.
        -11    1    3    3    0    0  0.90250720003E+01  0.72281174967E+01  0.67132531679E+01  0.13370316956E+02  0.51100000000E-03 0.  1.
         12    1    3    3    0    0 -0.95188103381E+01  0.96845025494E+01  0.18108619040E+02  0.22634474224E+02  0.00000000000E+00 0. -1.
</event>
<event>
 7    1  0.7579108E-012  0.5930192E+02  0.7816164E-02  0.1266605E+00
        -11   -1    0    0    0    0  0.00000000000E+00  0.00000000000E+00  0.45593999997E+02  0.45594000000E+02  0.51100000000E-03 0.  1.
         11   -1    0    0    0    0 -0.00000000000E+00 -0.00000000000E+00 -0.45593999997E+02  0.45594000000E+02  0.51100000000E-03 0. -1.
    9900012    2    1    2    0    0 -0.59090549750E+01 -0.31236267906E+02  0.24699633593E+01  0.59301920241E+02  0.49999956619E+02 0.  0.
         12    1    1    2    0    0  0.59090549750E+01  0.31236267906E+02 -0.24699633593E+01  0.31886079759E+02  0.00000000000E+00 0. -1.
         11    1    3    3    0    0 -0.97074641456E+01  0.10226123652E+02 -0.18745053628E+01  0.14224002098E+02  0.51100000000E-03 0. -1.
        -11    1    3    3    0    0 -0.60721813533E+01 -0.23882874471E+02  0.35892541103E+01  0.24902727254E+02  0.51100000000E-03 0.  1.
         12    1    3    3    0    0  0.98705905240E+01 -0.17579517087E+02  0.75521461182E+00  0.20175190889E+02  0.00000000000E+00 0. -1.
</event>
<event>
 7    1  0.7579108E-012  0.5930192E+02  0.7816164E-02  0.1266605E+00
        -11   -1    0    0    0    0  0.00000000000E+00  0.00000000000E+00  0.45593999997E+02  0.45594000000E+02  0.51100000000E-03 0.  1.
         11   -1    0    0    0    0 -0.00000000000E+00 -0.00000000000E+00 -0.45593999997E+02  0.45594000000E+02  0.51100000000E-03 0. -1.
    9900012    2    1    2    0    0  0.12926669703E+02  0.28749634681E+02 -0.48043820322E+01  0.59301915721E+02  0.49999948376E+02 0.  0.
         12    1    1    2    0    0 -0.12926669703E+02 -0.28749634681E+02  0.48043820322E+01  0.31886084279E+02  0.00000000000E+00 0. -1.
         11    1    3    3    0    0 -0.89127406923E+01 -0.17240768274E+01  0.11472477024E+02  0.14629665645E+02  0.51100000000E-03 0.  1.
        -11    1    3    3    0    0  0.10450625186E+02  0.26999694741E+02 -0.15246588486E+02  0.32720903772E+02  0.51100000000E-03 0. -1.
        -12    1    3    3    0    0  0.11388785209E+02  0.34740167673E+01 -0.10302705706E+01  0.11951346304E+02  0.00000000000E+00 0.  1.
</event>
<event>
 7    1  0.7579108E-012  0.5930220E+02  0.7816164E-02  0.1266604E+00
        -11   -1    0    0    0    0  0.00000000000E+00  0.00000000000E+00  0.45593999997E+02  0.45594000000E+02  0.51100000000E-03 0. -1.
         11   -1    0    0    0    0 -0.00000000000E+00 -0.00000000000E+00 -0.45593999997E+02  0.45594000000E+02  0.51100000000E-03 0.  1.
    9900012    2    1    2    0    0  0.31645143700E+02 -0.38385479727E+01 -0.74493109293E+00  0.59302196064E+02  0.50000459652E+02 0.  0.
         12    1    1    2    0    0 -0.31645143700E+02  0.38385479727E+01  0.74493109293E+00  0.31885803936E+02  0.00000000000E+00 0. -1.
         11    1    3    3    0    0 -0.46678485101E+00 -0.24650054729E+01  0.49320876604E+01  0.55335006126E+01  0.51100000000E-03 0. -1.
        -11    1    3    3    0    0  0.61988251776E+01  0.56024588104E+01 -0.21185808351E+02  0.22773920481E+02  0.51100000000E-03 0.  1.
        -12    1    3    3    0    0  0.25913103373E+02 -0.69760013102E+01  0.15508789598E+02  0.30994774971E+02  0.00000000000E+00 0.  1.
</event>
<event>
 7    1  0.7579108E-012  0.5930195E+02  0.7816164E-02  0.1266605E+00
        -11   -1    0    0    0    0  0.00000000000E+00  0.00000000000E+00  0.45593999997E+02  0.45594000000E+02  0.51100000000E-03 0.  1.
         11   -1    0    0    0    0 -0.00000000000E+00 -0.00000000000E+00 -0.45593999997E+02  0.45594000000E+02  0.51100000000E-03 0. -1.
    9900012    2    1    2    0    0  0.30873608817E+02  0.55079834323E+01  0.57621839940E+01  0.59301947136E+02  0.50000005668E+02 0.  0.
         12    1    1    2    0    0 -0.30873608817E+02 -0.55079834323E+01 -0.57621839940E+01  0.31886052864E+02  0.00000000000E+00 0. -1.
         11    1    3    3    0    0  0.97412488072E+01  0.17721194931E+02  0.15795757193E+02  0.25660058918E+02  0.51100000000E-03 0. -1.
        -11    1    3    3    0    0  0.57525760867E+01 -0.15104251306E+02 -0.28062929231E+01  0.16404445110E+02  0.51100000000E-03 0.  1.
         12    1    3    3    0    0  0.15379783923E+02  0.28910398072E+01 -0.72272802761E+01  0.17237443107E+02  0.00000000000E+00 0. -1.
</event>
<event>
 7    1  0.7579108E-012  0.5930196E+02  0.7816164E-02  0.1266605E+00
        -11   -1    0    0    0    0  0.00000000000E+00  0.00000000000E+00  0.45593999997E+02  0.45594000000E+02  0.51100000000E-03 0.  1.
         11   -1    0    0    0    0 -0.00000000000E+00 -0.00000000000E+00 -0.45593999997E+02  0.45594000000E+02  0.51100000000E-03 0. -1.
    9900012    2    1    2    0    0  0.14241050902E+02 -0.48565618359E+01  0.28112730115E+02  0.59301963586E+02  0.50000035670E+02 0.  0.
         12    1    1    2    0    0 -0.14241050902E+02  0.48565618359E+01 -0.28112730115E+02  0.31886036414E+02  0.00000000000E+00 0. -1.
         11    1    3    3    0    0 -0.76610983132E+01 -0.74581156692E+01 -0.80246496975E+01  0.13368280358E+02  0.51100000000E-03 0. -1.
        -11    1    3    3    0    0  0.15632300268E+02 -0.61224130516E+01  0.27176010079E+02  0.31943516984E+02  0.51100000000E-03 0.  1.
         12    1    3    3    0    0  0.62698489474E+01  0.87239668849E+01  0.89613697332E+01  0.13990166244E+02  0.00000000000E+00 0. -1.
</event>
<event>
 7    1  0.7579108E-012  0.5930181E+02  0.7816164E-02  0.1266605E+00
        -11   -1    0    0    0    0  0.00000000000E+00  0.00000000000E+00  0.45593999997E+02  0.45594000000E+02  0.51100000000E-03 0.  1.
         11   -1    0    0    0    0 -0.00000000000E+00 -0.00000000000E+00 -0.45593999997E+02  0.45594000000E+02  0.51100000000E-03 0. -1.
    9900012    2    1    2    0    0  0.11347150653E+00 -0.16783738872E+02  0.27111291502E+02  0.59301813442E+02  0.49999761843E+02 0.  0.
         12    1    1    2    0    0 -0.11347150653E+00  0.16783738872E+02 -0.27111291502E+02  0.31886186558E+02  0.00000000000E+00 0. -1.
         11    1    3    3    0    0 -0.13853958920E+02 -0.13815734776E+02 -0.70018404040E+01  0.20780579262E+02  0.51100000000E-03 0. -1.
        -11    1    3    3    0    0  0.73859946059E+01  0.26030183313E+01  0.23924386258E+02  0.25173495562E+02  0.51100000000E-03 0.  1.
         12    1    3    3    0    0  0.65814358203E+01 -0.55710224268E+01  0.10188745648E+02  0.13347738618E+02  0.00000000000E+00 0. -1.
</event>
<event>
 7    1  0.7579108E-012  0.5930195E+02  0.7816164E-02  0.1266605E+00
        -11   -1    0    0    0    0  0.00000000000E+00  0.00000000000E+00  0.45593999997E+02  0.45594000000E+02  0.51100000000E-03 0.  1.
         11   -1    0    0    0    0 -0.00000000000E+00 -0.00000000000E+00 -0.45593999997E+02  0.45594000000E+02  0.51100000000E-03 0. -1.
    9900012    2    1    2    0    0 -0.23122436584E+02 -0.68984200076E+01  0.20844303059E+02  0.59301949096E+02  0.50000009244E+02 0.  0.
         12    1    1    2    0    0  0.23122436584E+02  0.68984200076E+01 -0.20844303059E+02  0.31886050904E+02  0.00000000000E+00 0. -1.
         11    1    3    3    0    0  0.10865064851E+01 -0.13184908566E+02 -0.27660971334E+01  0.13515679925E+02  0.51100000000E-03 0. -1.
        -11    1    3    3    0    0 -0.73409433625E+01  0.16871357803E+02  0.16274439100E+02  0.24563988516E+02  0.51100000000E-03 0.  1.
        -12    1    3    3    0    0 -0.16867999707E+02 -0.10584869245E+02  0.73359610927E+01  0.21222280655E+02  0.00000000000E+00 0.  1.
</event>
<event>
 7    1  0.7579108E-012  0.5930195E+02  0.7816164E-02  0.1266605E+00
        -11   -1    0    0    0    0  0.00000000000E+00  0.00000000000E+00  0.45593999997E+02  0.45594000000E+02  0.51100000000E-03 0.  1.
         11   -1    0    0    0    0 -0.00000000000E+00 -0.00000000000E+00 -0.45593999997E+02  0.45594000000E+02  0.51100000000E-03 0. -1.
    9900012    2    1    2    0    0  0.37303163065E+01  0.14734718741E+02  0.28030217897E+02  0.59301948010E+02  0.50000007263E+02 0.  0.
         12    1    1    2    0    0 -0.37303163065E+01 -0.14734718741E+02 -0.28030217897E+02  0.31886051990E+02  0.00000000000E+00 0. -1.
         11    1    3    3    0    0  0.20106525422E+02  0.78490091459E+00  0.26693599220E+02  0.33428082111E+02  0.51100000000E-03 0. -1.
        -11    1    3    3    0    0 -0.26020388854E+00  0.46594111618E+01  0.50807988982E+01  0.68987198917E+01  0.51100000000E-03 0.  1.
         12    1    3    3    0    0 -0.16116005227E+02  0.92904066650E+01 -0.37441802214E+01  0.18975146008E+02  0.00000000000E+00 0. -1.
</event>
<event>
 7    1  0.7579108E-012  0.5930196E+02  0.7816164E-02  0.1266605E+00
        -11   -1    0    0    0    0  0.00000000000E+00  0.00000000000E+00  0.45593999997E+02  0.45594000000E+02  0.51100000000E-03 0. -1.
         11   -1    0    0    0    0 -0.00000000000E+00 -0.00000000000E+00 -0.45593999997E+02  0.45594000000E+02  0.51100000000E-03 0.  1.
    9900012    2    1    2    0    0  0.30119334129E+02  0.33335891562E+01 -0.99213224590E+01  0.59301956903E+02  0.50000023482E+02 0.  0.
         12    1    1    2    0    0 -0.30119334129E+02 -0.33335891562E+01  0.99213224590E+01  0.31886043097E+02  0.00000000000E+00 0. -1.
         11    1    3    3    0    0  0.40997373451E+01 -0.13044517232E+02 -0.11251646879E+02  0.17707818439E+02  0.51100000000E-03 0. -1.
        -11    1    3    3    0    0  0.14392906104E+02 -0.52775770714E+01  0.62011900101E+01  0.16536726510E+02  0.51100000000E-03 0.  1.
        -12    1    3    3    0    0  0.11626690679E+02  0.21655683459E+02 -0.48708655900E+01  0.25057411954E+02  0.00000000000E+00 0.  1.
</event>
<event>
 7    1  0.7579108E-012  0.5930197E+02  0.7816164E-02  0.1266605E+00
        -11   -1    0    0    0    0  0.00000000000E+00  0.00000000000E+00  0.45593999997E+02  0.45594000000E+02  0.51100000000E-03 0. -1.
         11   -1    0    0    0    0 -0.00000000000E+00 -0.00000000000E+00 -0.45593999997E+02  0.45594000000E+02  0.51100000000E-03 0.  1.
    9900012    2    1    2    0    0 -0.31213421151E+02  0.45777281442E+01 -0.46352670870E+01  0.59301969267E+02  0.50000046031E+02 0.  0.
         12    1    1    2    0    0  0.31213421151E+02 -0.45777281442E+01  0.46352670870E+01  0.31886030733E+02  0.00000000000E+00 0. -1.
         11    1    3    3    0    0 -0.10506298498E+02 -0.33274581150E+01  0.63718420591E+01  0.12730069015E+02  0.51100000000E-03 0. -1.
        -11    1    3    3    0    0 -0.91785499373E+01  0.21784646748E+02  0.28655218607E+01  0.23812346140E+02  0.51100000000E-03 0.  1.
        -12    1    3    3    0    0 -0.11528572716E+02 -0.13879460489E+02 -0.13872631007E+02  0.22759554113E+02  0.00000000000E+00 0.  1.
</event>
<event>
 7    1  0.7579108E-012  0.5930187E+02  0.7816164E-02  0.1266605E+00
        -11   -1    0    0    0    0  0.00000000000E+00  0.00000000000E+00  0.45593999997E+02  0.45594000000E+02  0.51100000000E-03 0.  1.
         11   -1    0    0    0    0 -0.00000000000E+00 -0.00000000000E+00 -0.45593999997E+02  0.45594000000E+02  0.51100000000E-03 0. -1.
    9900012    2    1    2    0    0 -0.91727450095E+01  0.23999162618E+02  0.18884550666E+02  0.59301869610E+02  0.49999864280E+02 0.  0.
         12    1    1    2    0    0  0.91727450095E+01 -0.23999162618E+02 -0.18884550666E+02  0.31886130390E+02  0.00000000000E+00 0. -1.
         11    1    3    3    0    0 -0.23044394154E+02  0.77283861150E+01 -0.52781552057E+01  0.24872293350E+02  0.51100000000E-03 0. -1.
        -11    1    3    3    0    0  0.16771817697E+01  0.94178112470E+01  0.52684654934E+01  0.10920844120E+02  0.51100000000E-03 0.  1.
         12    1    3    3    0    0  0.12194467374E+02  0.68529652561E+01  0.18894240379E+02  0.23508732140E+02  0.00000000000E+00 0. -1.
</event>
<event>
 7    1  0.7579108E-012  0.5930182E+02  0.7816164E-02  0.1266605E+00
        -11   -1    0    0    0    0  0.00000000000E+00  0.00000000000E+00  0.45593999997E+02  0.45594000000E+02  0.51100000000E-03 0. -1.
         11   -1    0    0    0    0 -0.00000000000E+00 -0.00000000000E+00 -0.45593999997E+02  0.45594000000E+02  0.51100000000E-03 0.  1.
    9900012    2    1    2    0    0 -0.18340815855E+02 -0.61867486023E+01 -0.25339046554E+02  0.59301817025E+02  0.49999768376E+02 0.  0.
         12    1    1    2    0    0  0.18340815855E+02  0.61867486023E+01  0.25339046554E+02  0.31886182975E+02  0.00000000000E+00 0. -1.
         11    1    3    3    0    0 -0.34745970480E+02 -0.77001501673E+01 -0.14810761225E+02  0.38547807013E+02  0.51100000000E-03 0. -1.
        -11    1    3    3    0    0  0.98249132948E+01  0.14656176921E+01 -0.22612363593E+01  0.10187744922E+02  0.51100000000E-03 0.  1.
         12    1    3    3    0    0  0.65802413307E+01  0.47783872798E-01 -0.82670489696E+01  0.10566265089E+02  0.00000000000E+00 0. -1.
</event>
<event>
 7    1  0.7579108E-012  0.5930194E+02  0.7816164E-02  0.1266605E+00
        -11   -1    0    0    0    0  0.00000000000E+00  0.00000000000E+00  0.45593999997E+02  0.45594000000E+02  0.51100000000E-03 0.  1.
         11   -1    0    0    0    0 -0.00000000000E+00 -0.00000000000E+00 -0.45593999997E+02  0.45594000000E+02  0.51100000000E-03 0. -1.
    9900012    2    1    2    0    0 -0.26798846513E+02 -0.90833747278E+01  0.14698116972E+02  0.59301944844E+02  0.50000001490E+02 0.  0.
         12    1    1    2    0    0  0.26798846513E+02  0.90833747278E+01 -0.14698116972E+02  0.31886055156E+02  0.00000000000E+00 0. -1.
         11    1    3    3    0    0 -0.21852537881E+02 -0.88778337223E+01  0.23321276686E+02  0.33169734548E+02  0.51100000000E-03 0. -1.
        -11    1    3    3    0    0  0.56233214818E+01  0.59564286946E+01  0.35004951763E+01  0.89081004722E+01  0.51100000000E-03 0.  1.
         12    1    3    3    0    0 -0.10569630114E+02 -0.61619697001E+01 -0.12123654891E+02  0.17224109824E+02  0.00000000000E+00 0. -1.
</event>
<event>
 7    1  0.7579108E-012  0.5930188E+02  0.7816164E-02  0.1266605E+00
        -11   -1    0    0    0    0  0.00000000000E+00  0.00000000000E+00  0.45593999997E+02  0.45594000000E+02  0.51100000000E-03 0. -1.
         11   -1    0    0    0    0 -0.00000000000E+00 -0.00000000000E+00 -0.45593999997E+02  0.45594000000E+02  0.51100000000E-03 0.  1.
    9900012    2    1    2    0    0 -0.29373104450E+02 -0.35764809427E+01 -0.11880837720E+02  0.59301877848E+02  0.49999879304E+02 0.  0.
         12    1    1    2    0    0  0.29373104450E+02  0.35764809427E+01  0.11880837720E+02  0.31886122152E+02  0.00000000000E+00 0. -1.
         11    1    3    3    0    0 -0.75081296834E+01 -0.91105902014E+01  0.95902184519E+01  0.15210100439E+02  0.51100000000E-03 0. -1.
        -11    1    3    3    0    0 -0.24609621759E+02  0.13171520923E+02 -0.22577906558E+02  0.35901034962E+02  0.51100000000E-03 0.  1.
        -12    1    3    3    0    0  0.27446469917E+01 -0.76374116645E+01  0.11068503868E+01  0.81907424463E+01  0.00000000000E+00 0.  1.
</event>
<event>
 7    1  0.7579108E-012  0.5930195E+02  0.7816164E-02  0.1266605E+00
        -11   -1    0    0    0    0  0.00000000000E+00  0.00000000000E+00  0.45593999997E+02  0.45594000000E+02  0.51100000000E-03 0.  1.
         11   -1    0    0    0    0 -0.00000000000E+00 -0.00000000000E+00 -0.45593999997E+02  0.45594000000E+02  0.51100000000E-03 0. -1.
    9900012    2    1    2    0    0  0.99757135239E+01 -0.28212793282E+02  0.11011069940E+02  0.59301949346E+02  0.50000009700E+02 0.  0.
         12    1    1    2    0    0 -0.99757135239E+01  0.28212793282E+02 -0.11011069940E+02  0.31886050654E+02  0.00000000000E+00 0. -1.
         11    1    3    3    0    0  0.81353460386E+01  0.10517153539E+02  0.11422975886E+02  0.17529368274E+02  0.51100000000E-03 0. -1.
        -11    1    3    3    0    0 -0.66365993222E+01 -0.18228136836E+02  0.17756258462E+01  0.19479791336E+02  0.51100000000E-03 0.  1.
         12    1    3    3    0    0  0.84769668075E+01 -0.20501809985E+02 -0.21875317921E+01  0.22292789737E+02  0.00000000000E+00 0. -1.
</event>
<event>
 7    1  0.7579108E-012  0.5930194E+02  0.7816164E-02  0.1266605E+00
        -11   -1    0    0    0    0  0.00000000000E+00  0.00000000000E+00  0.45593999997E+02  0.45594000000E+02  0.51100000000E-03 0.  1.
         11   -1    0    0    0    0 -0.00000000000E+00 -0.00000000000E+00 -0.45593999997E+02  0.45594000000E+02  0.51100000000E-03 0. -1.
    9900012    2    1    2    0    0 -0.15762587135E+02  0.11747809458E+02  0.25104790724E+02  0.59301941956E+02  0.49999996223E+02 0.  0.
         12    1    1    2    0    0  0.15762587135E+02 -0.11747809458E+02 -0.25104790724E+02  0.31886058044E+02  0.00000000000E+00 0. -1.
         11    1    3    3    0    0 -0.11025230909E+02  0.19270530970E+02  0.54904453264E+01  0.22870375393E+02  0.51100000000E-03 0. -1.
        -11    1    3    3    0    0 -0.15858562829E+02  0.84318089925E+00  0.14793363389E+02  0.21703653371E+02  0.51100000000E-03 0.  1.
         12    1    3    3    0    0  0.11121206603E+02 -0.83659024116E+01  0.48209820083E+01  0.14727913192E+02  0.00000000000E+00 0. -1.
</event>
<event>
 7    1  0.7579108E-012  0.5930201E+02  0.7816164E-02  0.1266605E+00
        -11   -1    0    0    0    0  0.00000000000E+00  0.00000000000E+00  0.45593999997E+02  0.45594000000E+02  0.51100000000E-03 0. -1.
         11   -1    0    0    0    0 -0.00000000000E+00 -0.00000000000E+00 -0.45593999997E+02  0.45594000000E+02  0.51100000000E-03 0.  1.
    9900012    2    1    2    0    0 -0.30890738764E+02  0.35303397987E+01 -0.70721439947E+01  0.59302011523E+02  0.50000123094E+02 0.  0.
         12    1    1    2    0    0  0.30890738764E+02 -0.35303397987E+01  0.70721439947E+01  0.31885988477E+02  0.00000000000E+00 0. -1.
         11    1    3    3    0    0 -0.14427468538E+02 -0.86481912273E+01  0.17705221371E+02  0.24421669148E+02  0.51100000000E-03 0. -1.
        -11    1    3    3    0    0 -0.13595830657E+02  0.10169734592E+02 -0.10022941179E+02  0.19716223347E+02  0.51100000000E-03 0.  1.
        -12    1    3    3    0    0 -0.28674395696E+01  0.20087964343E+01 -0.14754424187E+02  0.15164119028E+02  0.00000000000E+00 0.  1.
</event>
<event>
 7    1  0.7579108E-012  0.5930198E+02  0.7816164E-02  0.1266605E+00
        -11   -1    0    0    0    0  0.00000000000E+00  0.00000000000E+00  0.45593999997E+02  0.45594000000E+02  0.51100000000E-03 0. -1.
         11   -1    0    0    0    0 -0.00000000000E+00 -0.00000000000E+00 -0.45593999997E+02  0.45594000000E+02  0.51100000000E-03 0.  1.
    9900012    2    1    2    0    0  0.21871120164E+02 -0.23084568709E+02 -0.23398669084E+01  0.59301981326E+02  0.50000068023E+02 0.  0.
         12    1    1    2    0    0 -0.21871120164E+02  0.23084568709E+02  0.23398669084E+01  0.31886018674E+02  0.00000000000E+00 0. -1.
         11    1    3    3    0    0  0.75892573332E+01  0.45882590855E+01 -0.27997904819E+01  0.92998803922E+01  0.51100000000E-03 0. -1.
        -11    1    3    3    0    0 -0.10281758245E+02 -0.20875750423E+02  0.57543068951E+01  0.23971306940E+02  0.51100000000E-03 0.  1.
        -12    1    3    3    0    0  0.24563621076E+02 -0.67970773721E+01 -0.52943833215E+01  0.26030793993E+02  0.00000000000E+00 0.  1.
</event>
<event>
 7    1  0.7579108E-012  0.5930194E+02  0.7816164E-02  0.1266605E+00
        -11   -1    0    0    0    0  0.00000000000E+00  0.00000000000E+00  0.45593999997E+02  0.45594000000E+02  0.51100000000E-03 0.  1.
         11   -1    0    0    0    0 -0.00000000000E+00 -0.00000000000E+00 -0.45593999997E+02  0.45594000000E+02  0.51100000000E-03 0. -1.
    9900012    2    1    2    0    0 -0.19414224531E+02  0.16925273696E+02  0.18797437479E+02  0.59301942552E+02  0.49999997308E+02 0.  0.
         12    1    1    2    0    0  0.19414224531E+02 -0.16925273696E+02 -0.18797437479E+02  0.31886057448E+02  0.00000000000E+00 0. -1.
         11    1    3    3    0    0  0.54811391445E+01  0.61158066499E+01 -0.13980764044E+02  0.16214430018E+02  0.51100000000E-03 0. -1.
        -11    1    3    3    0    0 -0.57399493242E+01  0.55225676244E+01  0.75697354444E+01  0.10988478801E+02  0.51100000000E-03 0.  1.
         12    1    3    3    0    0 -0.19155414351E+02  0.52868994218E+01  0.25208466079E+02  0.32099033732E+02  0.00000000000E+00 0. -1.
</event>
<event>
 7    1  0.7579108E-012  0.5930195E+02  0.7816164E-02  0.1266605E+00
        -11   -1    0    0    0    0  0.00000000000E+00  0.00000000000E+00  0.45593999997E+02  0.45594000000E+02  0.51100000000E-03 0.  1.
         11   -1    0    0    0    0 -0.00000000000E+00 -0.00000000000E+00 -0.45593999997E+02  0.45594000000E+02  0.51100000000E-03 0. -1.
    9900012    2    1    2    0    0 -0.89410418069E+01  0.99575627722E+01  0.28941752586E+02  0.59301947756E+02  0.50000006800E+02 0.  0.
         12    1    1    2    0    0  0.89410418069E+01 -0.99575627722E+01 -0.28941752586E+02  0.31886052244E+02  0.00000000000E+00 0. -1.
         11    1    3    3    0    0 -0.10261085166E+02  0.14454708378E+02 -0.52784496067E+01  0.18495688514E+02  0.51100000000E-03 0. -1.
        -11    1    3    3    0    0  0.80242706126E+01  0.39807109300E+01  0.25146124909E+02  0.26693867771E+02  0.51100000000E-03 0.  1.
         12    1    3    3    0    0 -0.67042272538E+01 -0.84778565361E+01  0.90740772831E+01  0.14112391472E+02  0.00000000000E+00 0. -1.
</event>
<event>
 7    1  0.7579108E-012  0.5930194E+02  0.7816164E-02  0.1266605E+00
        -11   -1    0    0    0    0  0.00000000000E+00  0.00000000000E+00  0.45593999997E+02  0.45594000000E+02  0.51100000000E-03 0. -1.
         11   -1    0    0    0    0 -0.00000000000E+00 -0.00000000000E+00 -0.45593999997E+02  0.45594000000E+02  0.51100000000E-03 0.  1.
    9900012    2    1    2    0    0 -0.24340286388E+02 -0.39133771609E+01 -0.20222677969E+02  0.59301940876E+02  0.49999994252E+02 0.  0.
         12    1    1    2    0    0  0.24340286388E+02  0.39133771609E+01  0.20222677969E+02  0.31886059124E+02  0.00000000000E+00 0. -1.
         11    1    3    3    0    0  0.25840006768E+01 -0.97292913340E+01  0.90553279417E+01  0.13540130492E+02  0.51100000000E-03 0. -1.
        -11    1    3    3    0    0 -0.27292756635E+02  0.36346759871E+01 -0.15080705039E+02  0.31393201478E+02  0.51100000000E-03 0.  1.
         12    1    3    3    0    0  0.36846957099E+00  0.21812381861E+01 -0.14197300871E+02  0.14368608905E+02  0.00000000000E+00 0. -1.
</event>
<event>
 7    1  0.7579108E-012  0.5930200E+02  0.7816164E-02  0.1266605E+00
        -11   -1    0    0    0    0  0.00000000000E+00  0.00000000000E+00  0.45593999997E+02  0.45594000000E+02  0.51100000000E-03 0. -1.
         11   -1    0    0    0    0 -0.00000000000E+00 -0.00000000000E+00 -0.45593999997E+02  0.45594000000E+02  0.51100000000E-03 0.  1.
    9900012    2    1    2    0    0  0.47756669329E+01  0.91324192856E+01 -0.30174644489E+02  0.59301996069E+02  0.50000094911E+02 0.  0.
         12    1    1    2    0    0 -0.47756669329E+01 -0.91324192856E+01  0.30174644489E+02  0.31886003931E+02  0.00000000000E+00 0. -1.
         11    1    3    3    0    0 -0.15468932033E+02 -0.61792134409E+01 -0.25818997803E+02  0.30726066862E+02  0.51100000000E-03 0. -1.
        -11    1    3    3    0    0  0.16540146797E+02  0.53164005173E+01 -0.43763703386E+01  0.17916282765E+02  0.51100000000E-03 0.  1.
         12    1    3    3    0    0  0.37044521698E+01  0.99952322092E+01  0.20723652842E-01  0.10659646442E+02  0.00000000000E+00 0. -1.
</event>
<event>
 7    1  0.7579108E-012  0.5930194E+02  0.7816164E-02  0.1266605E+00
        -11   -1    0    0    0    0  0.00000000000E+00  0.00000000000E+00  0.45593999997E+02  0.45594000000E+02  0.51100000000E-03 0. -1.
         11   -1    0    0    0    0 -0.00000000000E+00 -0.00000000000E+00 -0.45593999997E+02  0.45594000000E+02  0.51100000000E-03 0.  1.
    9900012    2    1    2    0    0  0.26831236835E+02 -0.16726759136E+02 -0.41256626928E+01  0.59301939818E+02  0.49999992323E+02 0.  0.
         12    1    1    2    0    0 -0.26831236835E+02  0.16726759136E+02  0.41256626928E+01  0.31886060182E+02  0.00000000000E+00 0. -1.
         11    1    3    3    0    0  0.12162797030E+01 -0.54780378143E+01  0.74532511233E+01  0.93294794699E+01  0.51100000000E-03 0. -1.
        -11    1    3    3    0    0  0.27419445719E+02  0.40009972171E+01 -0.18302753701E+02  0.33208805694E+02  0.51100000000E-03 0.  1.
        -12    1    3    3    0    0 -0.18044885879E+01 -0.15249718539E+02  0.67238398853E+01  0.16763654655E+02  0.00000000000E+00 0.  1.
</event>
<event>
 7    1  0.7579108E-012  0.5930194E+02  0.7816164E-02  0.1266605E+00
        -11   -1    0    0    0    0  0.00000000000E+00  0.00000000000E+00  0.45593999997E+02  0.45594000000E+02  0.51100000000E-03 0.  1.
         11   -1    0    0    0    0 -0.00000000000E+00 -0.00000000000E+00 -0.45593999997E+02  0.45594000000E+02  0.51100000000E-03 0. -1.
    9900012    2    1    2    0    0 -0.26026132883E+02 -0.13760491970E+01  0.18370297272E+02  0.59301938373E+02  0.49999989687E+02 0.  0.
         12    1    1    2    0    0  0.26026132883E+02  0.13760491970E+01 -0.18370297272E+02  0.31886061627E+02  0.00000000000E+00 0. -1.
         11    1    3    3    0    0  0.86216636384E+01  0.32067005701E+01 -0.78628884411E+01  0.12101282053E+02  0.51100000000E-03 0. -1.
        -11    1    3    3    0    0 -0.27437707652E+02  0.30363073081E+01  0.23762272467E+02  0.36423791076E+02  0.51100000000E-03 0.  1.
         12    1    3    3    0    0 -0.72100888685E+01 -0.76190570753E+01  0.24709132468E+01  0.10776865244E+02  0.00000000000E+00 0. -1.
</event>
<event>
 7    1  0.7579108E-012  0.5930194E+02  0.7816164E-02  0.1266605E+00
        -11   -1    0    0    0    0  0.00000000000E+00  0.00000000000E+00  0.45593999997E+02  0.45594000000E+02  0.51100000000E-03 0.  1.
         11   -1    0    0    0    0 -0.00000000000E+00 -0.00000000000E+00 -0.45593999997E+02  0.45594000000E+02  0.51100000000E-03 0. -1.
    9900012    2    1    2    0    0  0.13595501821E+02 -0.37823580584E+01 -0.28593302172E+02  0.59301939859E+02  0.49999992397E+02 0.  0.
         12    1    1    2    0    0 -0.13595501821E+02  0.37823580584E+01  0.28593302172E+02  0.31886060141E+02  0.00000000000E+00 0. -1.
         11    1    3    3    0    0 -0.63068398818E+01 -0.16265242585E+01 -0.29829348164E+01  0.71637776932E+01  0.51100000000E-03 0. -1.
        -11    1    3    3    0    0  0.26386746102E+02  0.12562617723E+02 -0.18210025502E+02  0.34433773580E+02  0.51100000000E-03 0.  1.
        -12    1    3    3    0    0 -0.64844043995E+01 -0.14718451523E+02 -0.74003418533E+01  0.17704388586E+02  0.00000000000E+00 0.  1.
</event>
<event>
 7    1  0.7579108E-012  0.5930195E+02  0.7816164E-02  0.1266605E+00
        -11   -1    0    0    0    0  0.00000000000E+00  0.00000000000E+00  0.45593999997E+02  0.45594000000E+02  0.51100000000E-03 0. -1.
         11   -1    0    0    0    0 -0.00000000000E+00 -0.00000000000E+00 -0.45593999997E+02  0.45594000000E+02  0.51100000000E-03 0.  1.
    9900012    2    1    2    0    0 -0.24226602549E+02  0.89444341003E+01 -0.18702647031E+02  0.59301950097E+02  0.50000011069E+02 0.  0.
         12    1    1    2    0    0  0.24226602549E+02 -0.89444341003E+01  0.18702647031E+02  0.31886049903E+02  0.00000000000E+00 0. -1.
         11    1    3    3    0    0  0.88650411569E+00  0.14332578063E+02 -0.12606296329E+01  0.14415195830E+02  0.51100000000E-03 0. -1.
        -11    1    3    3    0    0 -0.26382871957E+02 -0.14863151264E+02 -0.18144196974E+02  0.35301290094E+02  0.51100000000E-03 0.  1.
        -12    1    3    3    0    0  0.12697652925E+01  0.94750073009E+01  0.70217957608E+00  0.95854641728E+01  0.00000000000E+00 0.  1.
</event>
<event>
 7    1  0.7579108E-012  0.5930194E+02  0.7816164E-02  0.1266605E+00
        -11   -1    0    0    0    0  0.00000000000E+00  0.00000000000E+00  0.45593999997E+02  0.45594000000E+02  0.51100000000E-03 0.  1.
         11   -1    0    0    0    0 -0.00000000000E+00 -0.00000000000E+00 -0.45593999997E+02  0.45594000000E+02  0.51100000000E-03 0. -1.
    9900012    2    1    2    0    0  0.80212646673E+01 -0.30860632775E+02 -0.35584472988E-01  0.59301943355E+02  0.49999998773E+02 0.  0.
         12    1    1    2    0    0 -0.80212646673E+01  0.30860632775E+02  0.35584472988E-01  0.31886056645E+02  0.00000000000E+00 0. -1.
         11    1    3    3    0    0 -0.15123785490E+01 -0.18539697459E+02 -0.54985334147E+01  0.19396946685E+02  0.51100000000E-03 0. -1.
        -11    1    3    3    0    0  0.30371775539E+01 -0.13425577751E+02  0.19806656230E+02  0.24119996201E+02  0.51100000000E-03 0.  1.
        -12    1    3    3    0    0  0.64964656623E+01  0.11046424355E+01 -0.14343707289E+02  0.15785000469E+02  0.00000000000E+00 0.  1.
</event>
<event>
 7    1  0.7579108E-012  0.5930194E+02  0.7816164E-02  0.1266605E+00
        -11   -1    0    0    0    0  0.00000000000E+00  0.00000000000E+00  0.45593999997E+02  0.45594000000E+02  0.51100000000E-03 0.  1.
         11   -1    0    0    0    0 -0.00000000000E+00 -0.00000000000E+00 -0.45593999997E+02  0.45594000000E+02  0.51100000000E-03 0. -1.
    9900012    2    1    2    0    0  0.24703726197E+02  0.19975512891E+02  0.27250183905E+01  0.59301938335E+02  0.49999989617E+02 0.  0.
         12    1    1    2    0    0 -0.24703726197E+02 -0.19975512891E+02 -0.27250183905E+01  0.31886061665E+02  0.00000000000E+00 0. -1.
         11    1    3    3    0    0  0.87929875781E+01 -0.71850386904E+00 -0.16128336601E+02  0.18383582897E+02  0.51100000000E-03 0. -1.
        -11    1    3    3    0    0  0.21037870944E+02  0.82013295033E+01  0.95303005667E+01  0.24508783092E+02  0.51100000000E-03 0.  1.
         12    1    3    3    0    0 -0.51271323251E+01  0.12492687257E+02  0.93230544246E+01  0.16409572346E+02  0.00000000000E+00 0. -1.
</event>
<event>
 7    1  0.7579108E-012  0.5930199E+02  0.7816164E-02  0.1266605E+00
        -11   -1    0    0    0    0  0.00000000000E+00  0.00000000000E+00  0.45593999997E+02  0.45594000000E+02  0.51100000000E-03 0. -1.
         11   -1    0    0    0    0 -0.00000000000E+00 -0.00000000000E+00 -0.45593999997E+02  0.45594000000E+02  0.51100000000E-03 0.  1.
    9900012    2    1    2    0    0  0.42629587485E+01  0.78308364614E+01 -0.30614092331E+02  0.59301992626E+02  0.50000088632E+02 0.  0.
         12    1    1    2    0    0 -0.42629587485E+01 -0.78308364614E+01  0.30614092331E+02  0.31886007374E+02  0.00000000000E+00 0. -1.
         11    1    3    3    0    0  0.92154852847E+01 -0.13466769543E+02 -0.20361375342E+02  0.26093383396E+02  0.51100000000E-03 0. -1.
        -11    1    3    3    0    0 -0.86287680148E+01  0.19592344360E+02  0.81345255817E+00  0.21423755514E+02  0.51100000000E-03 0.  1.
        -12    1    3    3    0    0  0.36762414787E+01  0.17052616441E+01 -0.11066169547E+02  0.11784853717E+02  0.00000000000E+00 0.  1.
</event>
<event>
 7    1  0.7579108E-012  0.5930190E+02  0.7816164E-02  0.1266605E+00
        -11   -1    0    0    0    0  0.00000000000E+00  0.00000000000E+00  0.45593999997E+02  0.45594000000E+02  0.51100000000E-03 0. -1.
         11   -1    0    0    0    0 -0.00000000000E+00 -0.00000000000E+00 -0.45593999997E+02  0.45594000000E+02  0.51100000000E-03 0.  1.
    9900012    2    1    2    0    0 -0.23400148117E+02  0.21643915652E+02 -0.83513378235E+00  0.59301898560E+02  0.49999917077E+02 0.  0.
         12    1    1    2    0    0  0.23400148117E+02 -0.21643915652E+02  0.83513378235E+00  0.31886101440E+02  0.00000000000E+00 0. -1.
         11    1    3    3    0    0 -0.98179613992E+01 -0.26488231678E+01 -0.11359759299E+02  0.15246401602E+02  0.51100000000E-03 0. -1.
        -11    1    3    3    0    0  0.11097245840E+01  0.22839787024E+02 -0.41490748575E+01  0.23240098588E+02  0.51100000000E-03 0.  1.
        -12    1    3    3    0    0 -0.14691911301E+02  0.14529517958E+01  0.14673700374E+02  0.20815398370E+02  0.00000000000E+00 0.  1.
</event>
<event>
 7    1  0.7579108E-012  0.5930196E+02  0.7816164E-02  0.1266605E+00
        -11   -1    0    0    0    0  0.00000000000E+00  0.00000000000E+00  0.45593999997E+02  0.45594000000E+02  0.51100000000E-03 0.  1.
         11   -1    0    0    0    0 -0.00000000000E+00 -0.00000000000E+00 -0.45593999997E+02  0.45594000000E+02  0.51100000000E-03 0. -1.
    9900012    2    1    2    0    0 -0.20303295390E+02 -0.22993095351E+02 -0.87070685379E+01  0.59301964184E+02  0.50000036761E+02 0.  0.
         12    1    1    2    0    0  0.20303295390E+02  0.22993095351E+02  0.87070685379E+01  0.31886035816E+02  0.00000000000E+00 0. -1.
         11    1    3    3    0    0  0.68711690133E+00  0.95813098985E+01 -0.11569675801E+02  0.15037653654E+02  0.51100000000E-03 0. -1.
        -11    1    3    3    0    0 -0.24367734256E+02 -0.24823940596E+02 -0.13646584150E+01  0.34812020802E+02  0.51100000000E-03 0.  1.
         12    1    3    3    0    0  0.33773219647E+01 -0.77504646539E+01  0.42272656781E+01  0.94522897288E+01  0.00000000000E+00 0. -1.
</event>
<event>
 7    1  0.7579108E-012  0.5930194E+02  0.7816164E-02  0.1266605E+00
        -11   -1    0    0    0    0  0.00000000000E+00  0.00000000000E+00  0.45593999997E+02  0.45594000000E+02  0.51100000000E-03 0.  1.
         11   -1    0    0    0    0 -0.00000000000E+00 -0.00000000000E+00 -0.45593999997E+02  0.45594000000E+02  0.51100000000E-03 0. -1.
    9900012    2    1    2    0    0  0.16817581366E+02  0.25772828672E+02 -0.83457224219E+01  0.59301939981E+02  0.49999992620E+02 0.  0.
         12    1    1    2    0    0 -0.16817581366E+02 -0.25772828672E+02  0.83457224219E+01  0.31886060019E+02  0.00000000000E+00 0. -1.
         11    1    3    3    0    0  0.19974337128E+02 -0.78778117912E+01  0.10092864682E+01  0.21495411644E+02  0.51100000000E-03 0. -1.
        -11    1    3    3    0    0  0.24234774068E+01  0.12600405602E+02 -0.96045013412E+01  0.16027785572E+02  0.51100000000E-03 0.  1.
         12    1    3    3    0    0 -0.55802331687E+01  0.21050234862E+02  0.24949245110E+00  0.21778742765E+02  0.00000000000E+00 0. -1.
</event>
<event>
 7    1  0.7579108E-012  0.5930193E+02  0.7816164E-02  0.1266605E+00
        -11   -1    0    0    0    0  0.00000000000E+00  0.00000000000E+00  0.45593999997E+02  0.45594000000E+02  0.51100000000E-03 0. -1.
         11   -1    0    0    0    0 -0.00000000000E+00 -0.00000000000E+00 -0.45593999997E+02  0.45594000000E+02  0.51100000000E-03 0.  1.
    9900012    2    1    2    0    0  0.64344253849E+01  0.28049639958E+02 -0.13730892685E+02  0.59301928656E+02  0.49999971966E+02 0.  0.
         12    1    1    2    0    0 -0.64344253849E+01 -0.28049639958E+02  0.13730892685E+02  0.31886071344E+02  0.00000000000E+00 0. -1.
         11    1    3    3    0    0 -0.51329476314E+01 -0.18998862330E+01  0.34148257197E+00  0.54839155439E+01  0.51100000000E-03 0. -1.
        -11    1    3    3    0    0  0.45083257373E+01  0.34433745781E+02  0.29495613261E+01  0.34852657886E+02  0.51100000000E-03 0.  1.
        -12    1    3    3    0    0  0.70590472790E+01 -0.44842195896E+01 -0.17021936583E+02  0.18965355226E+02  0.00000000000E+00 0.  1.
</event>
<event>
 7    1  0.7579108E-012  0.5930197E+02  0.7816164E-02  0.1266605E+00
        -11   -1    0    0    0    0  0.00000000000E+00  0.00000000000E+00  0.45593999997E+02  0.45594000000E+02  0.51100000000E-03 0.  1.
         11   -1    0    0    0    0 -0.00000000000E+00 -0.00000000000E+00 -0.45593999997E+02  0.45594000000E+02  0.51100000000E-03 0. -1.
    9900012    2    1    2    0    0  0.12692607902E+02 -0.15225522808E+02  0.24975994979E+02  0.59301965983E+02  0.50000040042E+02 0.  0.
         12    1    1    2    0    0 -0.12692607902E+02  0.15225522808E+02 -0.24975994979E+02  0.31886034017E+02  0.00000000000E+00 0. -1.
         11    1    3    3    0    0 -0.30953904605E+01 -0.33667447936E+01 -0.55037198814E-01  0.45737776468E+01  0.51100000000E-03 0. -1.
        -11    1    3    3    0    0  0.16549867565E+02  0.47712362514E+01  0.32266909622E+02  0.36576170775E+02  0.51100000000E-03 0.  1.
        -12    1    3    3    0    0 -0.76186920223E+00 -0.16630014266E+02 -0.72358774442E+01  0.18152017562E+02  0.00000000000E+00 0.  1.
</event>
<event>
 7    1  0.7579108E-012  0.5930196E+02  0.7816164E-02  0.1266605E+00
        -11   -1    0    0    0    0  0.00000000000E+00  0.00000000000E+00  0.45593999997E+02  0.45594000000E+02  0.51100000000E-03 0. -1.
         11   -1    0    0    0    0 -0.00000000000E+00 -0.00000000000E+00 -0.45593999997E+02  0.45594000000E+02  0.51100000000E-03 0.  1.
    9900012    2    1    2    0    0  0.54735282996E+00 -0.28526764199E+02 -0.14235292057E+02  0.59301962135E+02  0.50000033024E+02 0.  0.
         12    1    1    2    0    0 -0.54735282996E+00  0.28526764199E+02  0.14235292057E+02  0.31886037865E+02  0.00000000000E+00 0. -1.
         11    1    3    3    0    0  0.15826392538E+02  0.15137619506E+01 -0.17262277655E+02  0.23468114669E+02  0.51100000000E-03 0. -1.
        -11    1    3    3    0    0 -0.11632264139E+02 -0.15317233779E+02 -0.30872655552E+01  0.19479692721E+02  0.51100000000E-03 0.  1.
         12    1    3    3    0    0 -0.36467755695E+01 -0.14723292370E+02  0.61142511533E+01  0.16354154745E+02  0.00000000000E+00 0. -1.
</event>
<event>
 7    1  0.7579108E-012  0.5930170E+02  0.7816164E-02  0.1266606E+00
        -11   -1    0    0    0    0  0.00000000000E+00  0.00000000000E+00  0.45593999997E+02  0.45594000000E+02  0.51100000000E-03 0. -1.
         11   -1    0    0    0    0 -0.00000000000E+00 -0.00000000000E+00 -0.45593999997E+02  0.45594000000E+02  0.51100000000E-03 0.  1.
    9900012    2    1    2    0    0  0.22001612030E+02  0.22247158502E+02 -0.61423808755E+01  0.59301704571E+02  0.49999563287E+02 0.  0.
         12    1    1    2    0    0 -0.22001612030E+02 -0.22247158502E+02  0.61423808755E+01  0.31886295429E+02  0.00000000000E+00 0. -1.
         11    1    3    3    0    0  0.19952770436E+01  0.38318723602E+01  0.27775911778E+01  0.51360869616E+01  0.51100000000E-03 0. -1.
        -11    1    3    3    0    0  0.25561693527E+02  0.87648986533E+01 -0.23505619556E+02  0.35815328776E+02  0.51100000000E-03 0.  1.
        -12    1    3    3    0    0 -0.55553585401E+01  0.96503874887E+01  0.14585647503E+02  0.18350288833E+02  0.00000000000E+00 0.  1.
</event>
<event>
 7    1  0.7579108E-012  0.5930194E+02  0.7816164E-02  0.1266605E+00
        -11   -1    0    0    0    0  0.00000000000E+00  0.00000000000E+00  0.45593999997E+02  0.45594000000E+02  0.51100000000E-03 0. -1.
         11   -1    0    0    0    0 -0.00000000000E+00 -0.00000000000E+00 -0.45593999997E+02  0.45594000000E+02  0.51100000000E-03 0.  1.
    9900012    2    1    2    0    0  0.25251895438E+02  0.16297373579E+02 -0.10651682609E+02  0.59301937979E+02  0.49999988969E+02 0.  0.
         12    1    1    2    0    0 -0.25251895438E+02 -0.16297373579E+02  0.10651682609E+02  0.31886062021E+02  0.00000000000E+00 0. -1.
         11    1    3    3    0    0  0.68019552384E+01  0.52145703874E+00  0.45121219851E+01  0.81791049375E+01  0.51100000000E-03 0. -1.
        -11    1    3    3    0    0  0.24202821085E+02  0.75290828269E+01 -0.26020317536E+02  0.36325205596E+02  0.51100000000E-03 0.  1.
        -12    1    3    3    0    0 -0.57528808848E+01  0.82468337131E+01  0.10856512942E+02  0.14797627446E+02  0.00000000000E+00 0.  1.
</event>
<event>
 7    1  0.7579108E-012  0.5930199E+02  0.7816164E-02  0.1266605E+00
        -11   -1    0    0    0    0  0.00000000000E+00  0.00000000000E+00  0.45593999997E+02  0.45594000000E+02  0.51100000000E-03 0.  1.
         11   -1    0    0    0    0 -0.00000000000E+00 -0.00000000000E+00 -0.45593999997E+02  0.45594000000E+02  0.51100000000E-03 0. -1.
    9900012    2    1    2    0    0 -0.27173794583E+02  0.90412480984E+01 -0.14019927921E+02  0.59301989617E+02  0.50000083144E+02 0.  0.
         12    1    1    2    0    0  0.27173794583E+02 -0.90412480984E+01  0.14019927921E+02  0.31886010383E+02  0.00000000000E+00 0. -1.
         11    1    3    3    0    0 -0.24541830666E+02  0.27468375800E+02 -0.12290878661E+02  0.38831415375E+02  0.51100000000E-03 0. -1.
        -11    1    3    3    0    0 -0.55815287542E+01 -0.13960379684E+02 -0.99445300151E+00  0.15067667410E+02  0.51100000000E-03 0.  1.
         12    1    3    3    0    0  0.29495648369E+01 -0.44667480173E+01 -0.73459625842E+00  0.54029068324E+01  0.00000000000E+00 0. -1.
</event>
<event>
 7    1  0.7579108E-012  0.5930209E+02  0.7816164E-02  0.1266604E+00
        -11   -1    0    0    0    0  0.00000000000E+00  0.00000000000E+00  0.45593999997E+02  0.45594000000E+02  0.51100000000E-03 0.  1.
         11   -1    0    0    0    0 -0.00000000000E+00 -0.00000000000E+00 -0.45593999997E+02  0.45594000000E+02  0.51100000000E-03 0. -1.
    9900012    2    1    2    0    0 -0.21387536579E+02 -0.88776284362E+01  0.21919670066E+02  0.59302094910E+02  0.50000275173E+02 0.  0.
         12    1    1    2    0    0  0.21387536579E+02  0.88776284362E+01 -0.21919670066E+02  0.31885905090E+02  0.00000000000E+00 0. -1.
         11    1    3    3    0    0 -0.34854205276E+01  0.29768831727E+01 -0.11324670624E+02  0.12217125467E+02  0.51100000000E-03 0. -1.
        -11    1    3    3    0    0 -0.34564436932E+01 -0.17258689062E+02  0.20939022227E+02  0.27354195350E+02  0.51100000000E-03 0.  1.
         12    1    3    3    0    0 -0.14445672359E+02  0.54041774532E+01  0.12305318463E+02  0.19730774093E+02  0.00000000000E+00 0. -1.
</event>
<event>
 7    1  0.7579108E-012  0.5930196E+02  0.7816164E-02  0.1266605E+00
        -11   -1    0    0    0    0  0.00000000000E+00  0.00000000000E+00  0.45593999997E+02  0.45594000000E+02  0.51100000000E-03 0.  1.
         11   -1    0    0    0    0 -0.00000000000E+00 -0.00000000000E+00 -0.45593999997E+02  0.45594000000E+02  0.51100000000E-03 0. -1.
    9900012    2    1    2    0    0  0.26753943104E+02  0.17183041429E+02 -0.23852423997E+01  0.59301956570E+02  0.50000022873E+02 0.  0.
         12    1    1    2    0    0 -0.26753943104E+02 -0.17183041429E+02  0.23852423997E+01  0.31886043430E+02  0.00000000000E+00 0. -1.
         11    1    3    3    0    0 -0.54447460626E+01  0.11591421407E+02 -0.17368188967E+02  0.21579163519E+02  0.51100000000E-03 0. -1.
        -11    1    3    3    0    0  0.28998679015E+02  0.79485508027E+01  0.15297628684E+02  0.33736038417E+02  0.51100000000E-03 0.  1.
         12    1    3    3    0    0  0.32000101520E+01 -0.23569307808E+01 -0.31468211705E+00  0.39867546341E+01  0.00000000000E+00 0. -1.
</event>
<event>
 7    1  0.7579108E-012  0.5930194E+02  0.7816164E-02  0.1266605E+00
        -11   -1    0    0    0    0  0.00000000000E+00  0.00000000000E+00  0.45593999997E+02  0.45594000000E+02  0.51100000000E-03 0. -1.
         11   -1    0    0    0    0 -0.00000000000E+00 -0.00000000000E+00 -0.45593999997E+02  0.45594000000E+02  0.51100000000E-03 0.  1.
    9900012    2    1    2    0    0 -0.26952017351E+02  0.16293752595E+02 -0.49822671087E+01  0.59301943510E+02  0.49999999057E+02 0.  0.
         12    1    1    2    0    0  0.26952017351E+02 -0.16293752595E+02  0.49822671087E+01  0.31886056490E+02  0.00000000000E+00 0. -1.
         11    1    3    3    0    0 -0.32644646702E+01  0.96885327564E+01  0.56527792165E+01  0.11682393149E+02  0.51100000000E-03 0. -1.
        -11    1    3    3    0    0 -0.19285208555E+02 -0.14319647533E+02 -0.67246747665E+00  0.24029643926E+02  0.51100000000E-03 0.  1.
        -12    1    3    3    0    0 -0.44023441261E+01  0.20924867371E+02 -0.99625788486E+01  0.23589906435E+02  0.00000000000E+00 0.  1.
</event>
<event>
 7    1  0.7579108E-012  0.5930194E+02  0.7816164E-02  0.1266605E+00
        -11   -1    0    0    0    0  0.00000000000E+00  0.00000000000E+00  0.45593999997E+02  0.45594000000E+02  0.51100000000E-03 0. -1.
         11   -1    0    0    0    0 -0.00000000000E+00 -0.00000000000E+00 -0.45593999997E+02  0.45594000000E+02  0.51100000000E-03 0.  1.
    9900012    2    1    2    0    0  0.18958468172E+02 -0.21951566706E+02 -0.13244843151E+02  0.59301942445E+02  0.49999997114E+02 0.  0.
         12    1    1    2    0    0 -0.18958468172E+02  0.21951566706E+02  0.13244843151E+02  0.31886057555E+02  0.00000000000E+00 0. -1.
         11    1    3    3    0    0  0.21690474754E+02 -0.24460573302E+02 -0.16161148034E+01  0.32732371876E+02  0.51100000000E-03 0. -1.
        -11    1    3    3    0    0  0.40994360160E+01  0.11628595778E+02 -0.44826698657E+01  0.13119601549E+02  0.51100000000E-03 0.  1.
         12    1    3    3    0    0 -0.68314425980E+01 -0.91195891821E+01 -0.71460584819E+01  0.13449969020E+02  0.00000000000E+00 0. -1.
</event>
<event>
 7    1  0.7579108E-012  0.5930195E+02  0.7816164E-02  0.1266605E+00
        -11   -1    0    0    0    0  0.00000000000E+00  0.00000000000E+00  0.45593999997E+02  0.45594000000E+02  0.51100000000E-03 0. -1.
         11   -1    0    0    0    0 -0.00000000000E+00 -0.00000000000E+00 -0.45593999997E+02  0.45594000000E+02  0.51100000000E-03 0.  1.
    9900012    2    1    2    0    0 -0.29376016704E+02 -0.11964578429E+02 -0.32586268457E+01  0.59301950648E+02  0.50000012073E+02 0.  0.
         12    1    1    2    0    0  0.29376016704E+02  0.11964578429E+02  0.32586268457E+01  0.31886049352E+02  0.00000000000E+00 0. -1.
         11    1    3    3    0    0 -0.14481614288E+01  0.12611661785E+02  0.26977095298E+01  0.12978013001E+02  0.51100000000E-03 0.  1.
        -11    1    3    3    0    0 -0.16460120564E+02 -0.29215577233E+02 -0.51563289097E+01  0.33927470435E+02  0.51100000000E-03 0. -1.
         12    1    3    3    0    0 -0.11467734712E+02  0.46393370188E+01 -0.80000746581E+00  0.12396467212E+02  0.00000000000E+00 0. -1.
</event>
<event>
 7    1  0.7579108E-012  0.5930194E+02  0.7816164E-02  0.1266605E+00
        -11   -1    0    0    0    0  0.00000000000E+00  0.00000000000E+00  0.45593999997E+02  0.45594000000E+02  0.51100000000E-03 0.  1.
         11   -1    0    0    0    0 -0.00000000000E+00 -0.00000000000E+00 -0.45593999997E+02  0.45594000000E+02  0.51100000000E-03 0. -1.
    9900012    2    1    2    0    0  0.69241273186E+01 -0.31067621198E+02 -0.18921599335E+01  0.59301938856E+02  0.49999990569E+02 0.  0.
         12    1    1    2    0    0 -0.69241273186E+01  0.31067621198E+02  0.18921599335E+01  0.31886061144E+02  0.00000000000E+00 0. -1.
         11    1    3    3    0    0  0.12457029298E+02  0.23311360572E+01  0.29248082787E+01  0.13006393734E+02  0.51100000000E-03 0. -1.
        -11    1    3    3    0    0 -0.11295867909E+02 -0.23465336487E+02 -0.15753794906E+02  0.30436831347E+02  0.51100000000E-03 0.  1.
        -12    1    3    3    0    0  0.57629659298E+01 -0.99334207688E+01  0.10936826694E+02  0.15858713775E+02  0.00000000000E+00 0.  1.
</event>
<event>
 7    1  0.7579108E-012  0.5930195E+02  0.7816164E-02  0.1266605E+00
        -11   -1    0    0    0    0  0.00000000000E+00  0.00000000000E+00  0.45593999997E+02  0.45594000000E+02  0.51100000000E-03 0.  1.
         11   -1    0    0    0    0 -0.00000000000E+00 -0.00000000000E+00 -0.45593999997E+02  0.45594000000E+02  0.51100000000E-03 0. -1.
    9900012    2    1    2    0    0 -0.20869691590E+02  0.29477273491E+01  0.23926706736E+02  0.59301946327E+02  0.50000004193E+02 0.  0.
         12    1    1    2    0    0  0.20869691590E+02 -0.29477273491E+01 -0.23926706736E+02  0.31886053673E+02  0.00000000000E+00 0. -1.
         11    1    3    3    0    0 -0.21429701221E+02  0.12587044629E+02  0.28248125259E+02  0.37624757379E+02  0.51100000000E-03 0. -1.
        -11    1    3    3    0    0 -0.30765355326E+01 -0.91298363003E+01  0.55683617680E+01  0.11127696743E+02  0.51100000000E-03 0.  1.
         12    1    3    3    0    0  0.36365451636E+01 -0.50948097961E+00 -0.98897802908E+01  0.10549492206E+02  0.00000000000E+00 0. -1.
</event>
<event>
 7    1  0.7579108E-012  0.5930230E+02  0.7816164E-02  0.1266604E+00
        -11   -1    0    0    0    0  0.00000000000E+00  0.00000000000E+00  0.45593999997E+02  0.45594000000E+02  0.51100000000E-03 0.  1.
         11   -1    0    0    0    0 -0.00000000000E+00 -0.00000000000E+00 -0.45593999997E+02  0.45594000000E+02  0.51100000000E-03 0. -1.
    9900012    2    1    2    0    0 -0.12973507513E+02  0.25162812174E+02  0.14670337838E+02  0.59302300604E+02  0.50000650305E+02 0.  0.
         12    1    1    2    0    0  0.12973507513E+02 -0.25162812174E+02 -0.14670337838E+02  0.31885699396E+02  0.00000000000E+00 0. -1.
         11    1    3    3    0    0  0.75194327052E+01  0.90327007771E+01  0.24344754670E+02  0.27033287476E+02  0.51100000000E-03 0. -1.
        -11    1    3    3    0    0 -0.13159580609E+02  0.13443856788E+02 -0.13898731837E+02  0.23389882302E+02  0.51100000000E-03 0.  1.
        -12    1    3    3    0    0 -0.73333596091E+01  0.26862546084E+01  0.42243150046E+01  0.88791308266E+01  0.00000000000E+00 0.  1.
</event>
<event>
 7    1  0.7579108E-012  0.5930195E+02  0.7816164E-02  0.1266605E+00
        -11   -1    0    0    0    0  0.00000000000E+00  0.00000000000E+00  0.45593999997E+02  0.45594000000E+02  0.51100000000E-03 0. -1.
         11   -1    0    0    0    0 -0.00000000000E+00 -0.00000000000E+00 -0.45593999997E+02  0.45594000000E+02  0.51100000000E-03 0.  1.
    9900012    2    1    2    0    0 -0.27358361722E+02  0.58175884246E+01 -0.15309984134E+02  0.59301954378E+02  0.50000018877E+02 0.  0.
         12    1    1    2    0    0  0.27358361722E+02 -0.58175884246E+01  0.15309984134E+02  0.31886045622E+02  0.00000000000E+00 0. -1.
         11    1    3    3    0    0 -0.31336423472E+02  0.16597586328E+02 -0.20101064544E+02  0.40761551786E+02  0.51100000000E-03 0. -1.
        -11    1    3    3    0    0  0.45331232333E+01  0.90907658369E+00 -0.19698122105E+01  0.50255135946E+01  0.51100000000E-03 0.  1.
         12    1    3    3    0    0 -0.55506148332E+00 -0.11689074487E+02  0.67608926202E+01  0.13514888998E+02  0.00000000000E+00 0. -1.
</event>
<event>
 7    1  0.7579108E-012  0.5930191E+02  0.7816164E-02  0.1266605E+00
        -11   -1    0    0    0    0  0.00000000000E+00  0.00000000000E+00  0.45593999997E+02  0.45594000000E+02  0.51100000000E-03 0.  1.
         11   -1    0    0    0    0 -0.00000000000E+00 -0.00000000000E+00 -0.45593999997E+02  0.45594000000E+02  0.51100000000E-03 0. -1.
    9900012    2    1    2    0    0 -0.91490251509E+00  0.10199162713E+02  0.30197063515E+02  0.59301911942E+02  0.49999941484E+02 0.  0.
         12    1    1    2    0    0  0.91490251509E+00 -0.10199162713E+02 -0.30197063515E+02  0.31886088058E+02  0.00000000000E+00 0. -1.
         11    1    3    3    0    0  0.21217916102E+02 -0.64882328249E+01  0.78201753087E+01  0.23525566327E+02  0.51100000000E-03 0. -1.
        -11    1    3    3    0    0 -0.35282256060E+01  0.28714574616E+01  0.22147189594E+01  0.50595082974E+01  0.51100000000E-03 0.  1.
         12    1    3    3    0    0 -0.18604593011E+02  0.13815938076E+02  0.20162169247E+02  0.30716837318E+02  0.00000000000E+00 0. -1.
</event>
<event>
 7    1  0.7579108E-012  0.5930192E+02  0.7816164E-02  0.1266605E+00
        -11   -1    0    0    0    0  0.00000000000E+00  0.00000000000E+00  0.45593999997E+02  0.45594000000E+02  0.51100000000E-03 0. -1.
         11   -1    0    0    0    0 -0.00000000000E+00 -0.00000000000E+00 -0.45593999997E+02  0.45594000000E+02  0.51100000000E-03 0.  1.
    9900012    2    1    2    0    0  0.13206756328E+02 -0.13901157573E+01 -0.28989153944E+02  0.59301923401E+02  0.49999962382E+02 0.  0.
         12    1    1    2    0    0 -0.13206756328E+02  0.13901157573E+01  0.28989153944E+02  0.31886076599E+02  0.00000000000E+00 0. -1.
         11    1    3    3    0    0  0.23831502629E+01  0.75451815880E+01  0.98371025588E+01  0.12624490381E+02  0.51100000000E-03 0. -1.
        -11    1    3    3    0    0  0.11559402763E+02 -0.15431833774E+02 -0.27232083608E+02  0.33366864758E+02  0.51100000000E-03 0.  1.
        -12    1    3    3    0    0 -0.73579669861E+00  0.64965364285E+01 -0.11594172895E+02  0.13310568262E+02  0.00000000000E+00 0.  1.
</event>
<event>
 7    1  0.7579108E-012  0.5930192E+02  0.7816164E-02  0.1266605E+00
        -11   -1    0    0    0    0  0.00000000000E+00  0.00000000000E+00  0.45593999997E+02  0.45594000000E+02  0.51100000000E-03 0. -1.
         11   -1    0    0    0    0 -0.00000000000E+00 -0.00000000000E+00 -0.45593999997E+02  0.45594000000E+02  0.51100000000E-03 0.  1.
    9900012    2    1    2    0    0 -0.88709163262E+01 -0.24032271800E+02 -0.18986282653E+02  0.59301918815E+02  0.49999954019E+02 0.  0.
         12    1    1    2    0    0  0.88709163262E+01  0.24032271800E+02  0.18986282653E+02  0.31886081185E+02  0.00000000000E+00 0. -1.
         11    1    3    3    0    0  0.10697454011E+02 -0.22340722909E+02 -0.84120538516E+01  0.26159244497E+02  0.51100000000E-03 0. -1.
        -11    1    3    3    0    0 -0.22229148624E+02 -0.77871822814E+01 -0.41900763278E+01  0.23923461211E+02  0.51100000000E-03 0.  1.
         12    1    3    3    0    0  0.26607782871E+01  0.60956333896E+01 -0.63841524733E+01  0.92192131072E+01  0.00000000000E+00 0. -1.
</event>
<event>
 7    1  0.7579108E-012  0.5930194E+02  0.7816164E-02  0.1266605E+00
        -11   -1    0    0    0    0  0.00000000000E+00  0.00000000000E+00  0.45593999997E+02  0.45594000000E+02  0.51100000000E-03 0.  1.
         11   -1    0    0    0    0 -0.00000000000E+00 -0.00000000000E+00 -0.45593999997E+02  0.45594000000E+02  0.51100000000E-03 0. -1.
    9900012    2    1    2    0    0  0.59750221185E+01  0.23398551228E+02  0.20821325367E+02  0.59301942249E+02  0.49999996756E+02 0.  0.
         12    1    1    2    0    0 -0.59750221185E+01 -0.23398551228E+02 -0.20821325367E+02  0.31886057751E+02  0.00000000000E+00 0. -1.
         11    1    3    3    0    0  0.10590034799E+02  0.23165002837E+02 -0.29839772160E+01  0.25645083618E+02  0.51100000000E-03 0. -1.
        -11    1    3    3    0    0  0.41427861395E+01  0.81862175769E+01  0.18585320154E+02  0.20726576194E+02  0.51100000000E-03 0.  1.
         12    1    3    3    0    0 -0.87577988201E+01 -0.79526691860E+01  0.52199824285E+01  0.12930282437E+02  0.00000000000E+00 0. -1.
</event>
<event>
 7    1  0.7579108E-012  0.5930194E+02  0.7816164E-02  0.1266605E+00
        -11   -1    0    0    0    0  0.00000000000E+00  0.00000000000E+00  0.45593999997E+02  0.45594000000E+02  0.51100000000E-03 0.  1.
         11   -1    0    0    0    0 -0.00000000000E+00 -0.00000000000E+00 -0.45593999997E+02  0.45594000000E+02  0.51100000000E-03 0. -1.
    9900012    2    1    2    0    0  0.24527876676E+02 -0.17493944435E+02  0.10443465007E+02  0.59301940546E+02  0.49999993650E+02 0.  0.
         12    1    1    2    0    0 -0.24527876676E+02  0.17493944435E+02 -0.10443465007E+02  0.31886059454E+02  0.00000000000E+00 0. -1.
         11    1    3    3    0    0  0.15025599249E+02  0.90881979342E+01 -0.27171117863E+01  0.17769261977E+02  0.51100000000E-03 0. -1.
        -11    1    3    3    0    0  0.82519614972E+01 -0.22140529737E+02 -0.38210764163E+01  0.23935299264E+02  0.51100000000E-03 0.  1.
         12    1    3    3    0    0  0.12503159302E+01 -0.44416126325E+01  0.16981653210E+02  0.17597379306E+02  0.00000000000E+00 0. -1.
</event>
<event>
 7    1  0.7579108E-012  0.5930204E+02  0.7816164E-02  0.1266604E+00
        -11   -1    0    0    0    0  0.00000000000E+00  0.00000000000E+00  0.45593999997E+02  0.45594000000E+02  0.51100000000E-03 0. -1.
         11   -1    0    0    0    0 -0.00000000000E+00 -0.00000000000E+00 -0.45593999997E+02  0.45594000000E+02  0.51100000000E-03 0.  1.
    9900012    2    1    2    0    0 -0.24089841157E+01  0.11897992237E+02 -0.29484726303E+02  0.59302039000E+02  0.50000173206E+02 0.  0.
         12    1    1    2    0    0  0.24089841157E+01 -0.11897992237E+02  0.29484726303E+02  0.31885961000E+02  0.00000000000E+00 0. -1.
         11    1    3    3    0    0  0.64070910588E+01 -0.11490932025E+01  0.40521669565E+01  0.76675477389E+01  0.51100000000E-03 0. -1.
        -11    1    3    3    0    0 -0.91575333367E+00 -0.37042646898E+01 -0.32881354063E+02  0.33102018463E+02  0.51100000000E-03 0.  1.
        -12    1    3    3    0    0 -0.79003218409E+01  0.16751350130E+02 -0.65553919680E+00  0.18532472798E+02  0.00000000000E+00 0.  1.
</event>
<event>
 7    1  0.7579108E-012  0.5930195E+02  0.7816164E-02  0.1266605E+00
        -11   -1    0    0    0    0  0.00000000000E+00  0.00000000000E+00  0.45593999997E+02  0.45594000000E+02  0.51100000000E-03 0. -1.
         11   -1    0    0    0    0 -0.00000000000E+00 -0.00000000000E+00 -0.45593999997E+02  0.45594000000E+02  0.51100000000E-03 0.  1.
    9900012    2    1    2    0    0  0.13544593568E+02 -0.28796370266E+02 -0.20083492267E+01  0.59301946277E+02  0.50000004102E+02 0.  0.
         12    1    1    2    0    0 -0.13544593568E+02  0.28796370266E+02  0.20083492267E+01  0.31886053723E+02  0.00000000000E+00 0. -1.
         11    1    3    3    0    0  0.86505235032E+01  0.62745485620E+01  0.10187603764E+02  0.14764443344E+02  0.51100000000E-03 0. -1.
        -11    1    3    3    0    0 -0.54980743481E+01 -0.77276157901E+01 -0.11987196045E+02  0.15285213005E+02  0.51100000000E-03 0.  1.
         12    1    3    3    0    0  0.10392144413E+02 -0.27343303038E+02 -0.20875694578E+00  0.29252289927E+02  0.00000000000E+00 0. -1.
</event>
<event>
 7    1  0.7579108E-012  0.5930165E+02  0.7816164E-02  0.1266606E+00
        -11   -1    0    0    0    0  0.00000000000E+00  0.00000000000E+00  0.45593999997E+02  0.45594000000E+02  0.51100000000E-03 0.  1.
         11   -1    0    0    0    0 -0.00000000000E+00 -0.00000000000E+00 -0.45593999997E+02  0.45594000000E+02  0.51100000000E-03 0. -1.
    9900012    2    1    2    0    0 -0.10410721039E+02  0.25958506457E+02 -0.15313794440E+02  0.59301647587E+02  0.49999459361E+02 0.  0.
         12    1    1    2    0    0  0.10410721039E+02 -0.25958506457E+02  0.15313794440E+02  0.31886352413E+02  0.00000000000E+00 0. -1.
         11    1    3    3    0    0 -0.20669944374E+02  0.26271245011E+02 -0.61187596535E+01  0.33983291995E+02  0.51100000000E-03 0. -1.
        -11    1    3    3    0    0  0.14347155884E+02 -0.27490083091E+00  0.94940128696E+00  0.14381161827E+02  0.51100000000E-03 0.  1.
        -12    1    3    3    0    0 -0.40879325490E+01 -0.37837722650E-01 -0.10144436074E+02  0.10937193766E+02  0.00000000000E+00 0.  1.
</event>
<event>
 7    1  0.7579108E-012  0.5930195E+02  0.7816164E-02  0.1266605E+00
        -11   -1    0    0    0    0  0.00000000000E+00  0.00000000000E+00  0.45593999997E+02  0.45594000000E+02  0.51100000000E-03 0.  1.
         11   -1    0    0    0    0 -0.00000000000E+00 -0.00000000000E+00 -0.45593999997E+02  0.45594000000E+02  0.51100000000E-03 0. -1.
    9900012    2    1    2    0    0 -0.14060653568E+02  0.65369455139E+01 -0.27861923203E+02  0.59301946623E+02  0.50000004732E+02 0.  0.
         12    1    1    2    0    0  0.14060653568E+02 -0.65369455139E+01  0.27861923203E+02  0.31886053377E+02  0.00000000000E+00 0. -1.
         11    1    3    3    0    0  0.24690453628E+01 -0.18684815299E+02 -0.32773251551E+01  0.19130064511E+02  0.51100000000E-03 0. -1.
        -11    1    3    3    0    0 -0.81230281473E+01  0.13741517249E+02 -0.66861614959E+01  0.17306577894E+02  0.51100000000E-03 0.  1.
         12    1    3    3    0    0 -0.84066707840E+01  0.11480243564E+02 -0.17898436552E+02  0.22865304218E+02  0.00000000000E+00 0. -1.
</event>
<event>
 7    1  0.7579108E-012  0.5930194E+02  0.7816164E-02  0.1266605E+00
        -11   -1    0    0    0    0  0.00000000000E+00  0.00000000000E+00  0.45593999997E+02  0.45594000000E+02  0.51100000000E-03 0.  1.
         11   -1    0    0    0    0 -0.00000000000E+00 -0.00000000000E+00 -0.45593999997E+02  0.45594000000E+02  0.51100000000E-03 0. -1.
    9900012    2    1    2    0    0  0.85182423007E+01 -0.24352655739E+02  0.18737890385E+02  0.59301939887E+02  0.49999992449E+02 0.  0.
         12    1    1    2    0    0 -0.85182423007E+01  0.24352655739E+02 -0.18737890385E+02  0.31886060113E+02  0.00000000000E+00 0. -1.
         11    1    3    3    0    0  0.14076457314E+01 -0.47082031990E+01 -0.36406921252E+01  0.61158223715E+01  0.51100000000E-03 0. -1.
        -11    1    3    3    0    0  0.24601813182E+02 -0.42873528080E+01  0.11643598098E+02  0.27553656434E+02  0.51100000000E-03 0.  1.
        -12    1    3    3    0    0 -0.17491216613E+02 -0.15357099732E+02  0.10734984412E+02  0.25632461082E+02  0.00000000000E+00 0.  1.
</event>
<event>
 7    1  0.7579108E-012  0.5930193E+02  0.7816164E-02  0.1266605E+00
        -11   -1    0    0    0    0  0.00000000000E+00  0.00000000000E+00  0.45593999997E+02  0.45594000000E+02  0.51100000000E-03 0. -1.
         11   -1    0    0    0    0 -0.00000000000E+00 -0.00000000000E+00 -0.45593999997E+02  0.45594000000E+02  0.51100000000E-03 0.  1.
    9900012    2    1    2    0    0 -0.17125314093E+02 -0.16310469972E+02 -0.21387223487E+02  0.59301934988E+02  0.49999983514E+02 0.  0.
         12    1    1    2    0    0  0.17125314093E+02  0.16310469972E+02  0.21387223487E+02  0.31886065012E+02  0.00000000000E+00 0. -1.
         11    1    3    3    0    0 -0.15575063794E+02  0.39914909291E+01 -0.94046675365E+00  0.16105871289E+02  0.51100000000E-03 0. -1.
        -11    1    3    3    0    0 -0.22811507428E+00 -0.17415648558E+02 -0.29136009099E+02  0.33945012560E+02  0.51100000000E-03 0.  1.
        -12    1    3    3    0    0 -0.13221352253E+01 -0.28863123427E+01  0.86892523664E+01  0.92510511393E+01  0.00000000000E+00 0.  1.
</event>
<event>
 7    1  0.7579108E-012  0.5930195E+02  0.7816164E-02  0.1266605E+00
        -11   -1    0    0    0    0  0.00000000000E+00  0.00000000000E+00  0.45593999997E+02  0.45594000000E+02  0.51100000000E-03 0. -1.
         11   -1    0    0    0    0 -0.00000000000E+00 -0.00000000000E+00 -0.45593999997E+02  0.45594000000E+02  0.51100000000E-03 0.  1.
    9900012    2    1    2    0    0  0.29365313610E+02  0.63508727923E+01 -0.10680124445E+02  0.59301948398E+02  0.50000007970E+02 0.  0.
         12    1    1    2    0    0 -0.29365313610E+02 -0.63508727923E+01  0.10680124445E+02  0.31886051602E+02  0.00000000000E+00 0. -1.
         11    1    3    3    0    0  0.41134823609E+01  0.83383015283E+01 -0.80165252891E+00  0.93322374889E+01  0.51100000000E-03 0. -1.
        -11    1    3    3    0    0 -0.11280445465E+02 -0.42413593702E+01  0.26298279005E-01  0.12051484185E+02  0.51100000000E-03 0.  1.
        -12    1    3    3    0    0  0.36532276714E+02  0.22539306342E+01 -0.99047701950E+01  0.37918226724E+02  0.00000000000E+00 0.  1.
</event>
<event>
 7    1  0.7579108E-012  0.5930191E+02  0.7816164E-02  0.1266605E+00
        -11   -1    0    0    0    0  0.00000000000E+00  0.00000000000E+00  0.45593999997E+02  0.45594000000E+02  0.51100000000E-03 0.  1.
         11   -1    0    0    0    0 -0.00000000000E+00 -0.00000000000E+00 -0.45593999997E+02  0.45594000000E+02  0.51100000000E-03 0. -1.
    9900012    2    1    2    0    0  0.50931498721E+01 -0.43212588911E+01  0.31178670579E+02  0.59301906588E+02  0.49999931719E+02 0.  0.
         12    1    1    2    0    0 -0.50931498721E+01  0.43212588911E+01 -0.31178670579E+02  0.31886093412E+02  0.00000000000E+00 0. -1.
         11    1    3    3    0    0  0.10260757222E+02 -0.18224882302E+02  0.21438409777E+02  0.29950540692E+02  0.51100000000E-03 0.  1.
        -11    1    3    3    0    0  0.66133686726E+01  0.13871900930E+02  0.83470088069E+01  0.17488248537E+02  0.51100000000E-03 0. -1.
        -12    1    3    3    0    0 -0.11780976022E+02  0.31722480888E-01  0.13932519950E+01  0.11863117359E+02  0.00000000000E+00 0.  1.
</event>
<event>
 7    1  0.7579108E-012  0.5930192E+02  0.7816164E-02  0.1266605E+00
        -11   -1    0    0    0    0  0.00000000000E+00  0.00000000000E+00  0.45593999997E+02  0.45594000000E+02  0.51100000000E-03 0. -1.
         11   -1    0    0    0    0 -0.00000000000E+00 -0.00000000000E+00 -0.45593999997E+02  0.45594000000E+02  0.51100000000E-03 0.  1.
    9900012    2    1    2    0    0  0.18712328584E+02  0.21127643698E+02 -0.14838928739E+02  0.59301915647E+02  0.49999948240E+02 0.  0.
         12    1    1    2    0    0 -0.18712328584E+02 -0.21127643698E+02  0.14838928739E+02  0.31886084353E+02  0.00000000000E+00 0. -1.
         11    1    3    3    0    0  0.54057674183E+01 -0.74565124292E+01  0.93622668923E+01  0.13132933435E+02  0.51100000000E-03 0. -1.
        -11    1    3    3    0    0  0.31880039499E+01  0.20279719570E+02 -0.23042191959E+01  0.20657681898E+02  0.51100000000E-03 0.  1.
         12    1    3    3    0    0  0.10118557215E+02  0.83044365572E+01 -0.21896976436E+02  0.25511300313E+02  0.00000000000E+00 0. -1.
</event>
<event>
 7    1  0.7579108E-012  0.5930193E+02  0.7816164E-02  0.1266605E+00
        -11   -1    0    0    0    0  0.00000000000E+00  0.00000000000E+00  0.45593999997E+02  0.45594000000E+02  0.51100000000E-03 0.  1.
         11   -1    0    0    0    0 -0.00000000000E+00 -0.00000000000E+00 -0.45593999997E+02  0.45594000000E+02  0.51100000000E-03 0. -1.
    9900012    2    1    2    0    0 -0.28511410861E+02 -0.10328692882E+02 -0.98559243900E+01  0.59301926370E+02  0.49999967797E+02 0.  0.
         12    1    1    2    0    0  0.28511410861E+02  0.10328692882E+02  0.98559243900E+01  0.31886073630E+02  0.00000000000E+00 0. -1.
         11    1    3    3    0    0 -0.94861091485E+01 -0.18073746244E+02 -0.50352760374E+01  0.21023809719E+02  0.51100000000E-03 0. -1.
        -11    1    3    3    0    0  0.18693895362E+01  0.13656239373E+02 -0.85863940152E+01  0.16239262714E+02  0.51100000000E-03 0.  1.
        -12    1    3    3    0    0 -0.20894691249E+02 -0.59111860111E+01  0.37657456626E+01  0.22038853937E+02  0.00000000000E+00 0.  1.
</event>
<event>
 7    1  0.7579108E-012  0.5930198E+02  0.7816164E-02  0.1266605E+00
        -11   -1    0    0    0    0  0.00000000000E+00  0.00000000000E+00  0.45593999997E+02  0.45594000000E+02  0.51100000000E-03 0.  1.
         11   -1    0    0    0    0 -0.00000000000E+00 -0.00000000000E+00 -0.45593999997E+02  0.45594000000E+02  0.51100000000E-03 0. -1.
    9900012    2    1    2    0    0  0.23924879592E+01 -0.29735753112E+02 -0.11259617370E+02  0.59301984333E+02  0.50000073508E+02 0.  0.
         12    1    1    2    0    0 -0.23924879592E+01  0.29735753112E+02  0.11259617370E+02  0.31886015667E+02  0.00000000000E+00 0. -1.
         11    1    3    3    0    0 -0.12496956185E+01 -0.29295051254E+02  0.18567090955E+01  0.29380420965E+02  0.51100000000E-03 0. -1.
        -11    1    3    3    0    0  0.29949994741E+01  0.12212962998E+02 -0.13789846446E+01  0.12650220787E+02  0.51100000000E-03 0.  1.
        -12    1    3    3    0    0  0.64718410351E+00 -0.12653664856E+02 -0.11737341821E+02  0.17271342582E+02  0.00000000000E+00 0.  1.
</event>
<event>
 7    1  0.7579108E-012  0.5930194E+02  0.7816164E-02  0.1266605E+00
        -11   -1    0    0    0    0  0.00000000000E+00  0.00000000000E+00  0.45593999997E+02  0.45594000000E+02  0.51100000000E-03 0. -1.
         11   -1    0    0    0    0 -0.00000000000E+00 -0.00000000000E+00 -0.45593999997E+02  0.45594000000E+02  0.51100000000E-03 0.  1.
    9900012    2    1    2    0    0  0.22019910090E+02 -0.22769638812E+02 -0.36589854146E+01  0.59301936175E+02  0.49999985678E+02 0.  0.
         12    1    1    2    0    0 -0.22019910090E+02  0.22769638812E+02  0.36589854146E+01  0.31886063825E+02  0.00000000000E+00 0. -1.
         11    1    3    3    0    0  0.12908581412E+02  0.60861673847E+01  0.84043008705E+01  0.16562161118E+02  0.51100000000E-03 0. -1.
        -11    1    3    3    0    0  0.70416135167E+01 -0.13236348836E+02 -0.20081442665E+02  0.25060917605E+02  0.51100000000E-03 0.  1.
        -12    1    3    3    0    0  0.20697151614E+01 -0.15619457361E+02  0.80181563795E+01  0.17678857452E+02  0.00000000000E+00 0.  1.
</event>
<event>
 7    1  0.7579108E-012  0.5930193E+02  0.7816164E-02  0.1266605E+00
        -11   -1    0    0    0    0  0.00000000000E+00  0.00000000000E+00  0.45593999997E+02  0.45594000000E+02  0.51100000000E-03 0.  1.
         11   -1    0    0    0    0 -0.00000000000E+00 -0.00000000000E+00 -0.45593999997E+02  0.45594000000E+02  0.51100000000E-03 0. -1.
    9900012    2    1    2    0    0 -0.23291845720E+02  0.59804401055E+00  0.21768179215E+02  0.59301931568E+02  0.49999977277E+02 0.  0.
         12    1    1    2    0    0  0.23291845720E+02 -0.59804401055E+00 -0.21768179215E+02  0.31886068432E+02  0.00000000000E+00 0. -1.
         11    1    3    3    0    0 -0.13782258890E+02  0.17243134807E+02  0.11324093612E+01  0.22103364208E+02  0.51100000000E-03 0. -1.
        -11    1    3    3    0    0 -0.12882951406E+00 -0.65387396075E+01  0.22364943549E+02  0.23301553873E+02  0.51100000000E-03 0.  1.
         12    1    3    3    0    0 -0.93807573166E+01 -0.10106351189E+02 -0.17291736957E+01  0.13897013487E+02  0.00000000000E+00 0. -1.
</event>
<event>
 7    1  0.7579108E-012  0.5930192E+02  0.7816164E-02  0.1266605E+00
        -11   -1    0    0    0    0  0.00000000000E+00  0.00000000000E+00  0.45593999997E+02  0.45594000000E+02  0.51100000000E-03 0.  1.
         11   -1    0    0    0    0 -0.00000000000E+00 -0.00000000000E+00 -0.45593999997E+02  0.45594000000E+02  0.51100000000E-03 0. -1.
    9900012    2    1    2    0    0 -0.10345234500E+01  0.24231598833E+02  0.20699788078E+02  0.59301923928E+02  0.49999963343E+02 0.  0.
         12    1    1    2    0    0  0.10345234500E+01 -0.24231598833E+02 -0.20699788078E+02  0.31886076072E+02  0.00000000000E+00 0. -1.
         11    1    3    3    0    0 -0.54790011941E+01  0.29539626249E+02  0.72424100219E+01  0.30904068926E+02  0.51100000000E-03 0. -1.
        -11    1    3    3    0    0  0.71940738945E+01  0.48315726384E+01  0.15440852134E+02  0.17706459506E+02  0.51100000000E-03 0.  1.
         12    1    3    3    0    0 -0.27495961503E+01 -0.10139600054E+02 -0.19834740773E+01  0.10691395496E+02  0.00000000000E+00 0. -1.
</event>
<event>
 7    1  0.7579108E-012  0.5930195E+02  0.7816164E-02  0.1266605E+00
        -11   -1    0    0    0    0  0.00000000000E+00  0.00000000000E+00  0.45593999997E+02  0.45594000000E+02  0.51100000000E-03 0.  1.
         11   -1    0    0    0    0 -0.00000000000E+00 -0.00000000000E+00 -0.45593999997E+02  0.45594000000E+02  0.51100000000E-03 0. -1.
    9900012    2    1    2    0    0  0.20448354437E+02  0.12990223927E+02  0.20732565768E+02  0.59301946619E+02  0.50000004726E+02 0.  0.
         12    1    1    2    0    0 -0.20448354437E+02 -0.12990223927E+02 -0.20732565768E+02  0.31886053381E+02  0.00000000000E+00 0. -1.
         11    1    3    3    0    0  0.56813467894E+01  0.13460618401E+02 -0.66823570611E+01  0.16066108590E+02  0.51100000000E-03 0. -1.
        -11    1    3    3    0    0  0.39740902159E+01  0.45109187626E+01  0.30392675171E+02  0.30981550727E+02  0.51100000000E-03 0.  1.
        -12    1    3    3    0    0  0.10792917432E+02 -0.49813132369E+01 -0.29777523420E+01  0.12254287301E+02  0.00000000000E+00 0.  1.
</event>
<event>
 7    1  0.7579108E-012  0.5930195E+02  0.7816164E-02  0.1266605E+00
        -11   -1    0    0    0    0  0.00000000000E+00  0.00000000000E+00  0.45593999997E+02  0.45594000000E+02  0.51100000000E-03 0. -1.
         11   -1    0    0    0    0 -0.00000000000E+00 -0.00000000000E+00 -0.45593999997E+02  0.45594000000E+02  0.51100000000E-03 0.  1.
    9900012    2    1    2    0    0  0.23458065420E+02  0.18426155142E+02 -0.11265718568E+02  0.59301945973E+02  0.50000003547E+02 0.  0.
         12    1    1    2    0    0 -0.23458065420E+02 -0.18426155142E+02  0.11265718568E+02  0.31886054027E+02  0.00000000000E+00 0. -1.
         11    1    3    3    0    0  0.18685954204E+02  0.19073445292E+02  0.43203412478E+00  0.26704828282E+02  0.51100000000E-03 0.  1.
        -11    1    3    3    0    0 -0.10771641345E+02  0.55882680198E+01 -0.10072465155E+02  0.15770591342E+02  0.51100000000E-03 0. -1.
        -12    1    3    3    0    0  0.15543752561E+02 -0.62355581699E+01 -0.16252875383E+01  0.16826526349E+02  0.00000000000E+00 0.  1.
</event>
<event>
 7    1  0.7579108E-012  0.5930199E+02  0.7816164E-02  0.1266605E+00
        -11   -1    0    0    0    0  0.00000000000E+00  0.00000000000E+00  0.45593999997E+02  0.45594000000E+02  0.51100000000E-03 0.  1.
         11   -1    0    0    0    0 -0.00000000000E+00 -0.00000000000E+00 -0.45593999997E+02  0.45594000000E+02  0.51100000000E-03 0. -1.
    9900012    2    1    2    0    0 -0.37663506941E+01  0.21860075172E+02  0.22905667748E+02  0.59301985839E+02  0.50000076254E+02 0.  0.
         12    1    1    2    0    0  0.37663506941E+01 -0.21860075172E+02 -0.22905667748E+02  0.31886014161E+02  0.00000000000E+00 0. -1.
         11    1    3    3    0    0 -0.82371578004E+01 -0.90548242390E+01  0.98001380319E+01  0.15680666961E+02  0.51100000000E-03 0. -1.
        -11    1    3    3    0    0 -0.22342084329E+01  0.32103411466E+02  0.42653052280E+01  0.32462494421E+02  0.51100000000E-03 0.  1.
        -12    1    3    3    0    0  0.67050155393E+01 -0.11885120545E+01  0.88402244878E+01  0.11158824458E+02  0.00000000000E+00 0.  1.
</event>
<event>
 7    1  0.7579108E-012  0.5930196E+02  0.7816164E-02  0.1266605E+00
        -11   -1    0    0    0    0  0.00000000000E+00  0.00000000000E+00  0.45593999997E+02  0.45594000000E+02  0.51100000000E-03 0.  1.
         11   -1    0    0    0    0 -0.00000000000E+00 -0.00000000000E+00 -0.45593999997E+02  0.45594000000E+02  0.51100000000E-03 0. -1.
    9900012    2    1    2    0    0  0.29957516538E+02 -0.48657850360E+01  0.97770467979E+01  0.59301963789E+02  0.50000036040E+02 0.  0.
         12    1    1    2    0    0 -0.29957516538E+02  0.48657850360E+01 -0.97770467979E+01  0.31886036211E+02  0.00000000000E+00 0. -1.
         11    1    3    3    0    0  0.15864687734E+02  0.15370148194E+01 -0.10270407061E+02  0.18961328880E+02  0.51100000000E-03 0. -1.
        -11    1    3    3    0    0  0.11811834889E+01 -0.17161272000E+02  0.14916227059E+02  0.22768361405E+02  0.51100000000E-03 0.  1.
        -12    1    3    3    0    0  0.12911645315E+02  0.10758472145E+02  0.51312267991E+01  0.17572273504E+02  0.00000000000E+00 0.  1.
</event>
<event>
 7    1  0.7579108E-012  0.5930194E+02  0.7816164E-02  0.1266605E+00
        -11   -1    0    0    0    0  0.00000000000E+00  0.00000000000E+00  0.45593999997E+02  0.45594000000E+02  0.51100000000E-03 0.  1.
         11   -1    0    0    0    0 -0.00000000000E+00 -0.00000000000E+00 -0.45593999997E+02  0.45594000000E+02  0.51100000000E-03 0. -1.
    9900012    2    1    2    0    0  0.55551945020E+01  0.13310682854E+01  0.31370186487E+02  0.59301944600E+02  0.50000001044E+02 0.  0.
         12    1    1    2    0    0 -0.55551945020E+01 -0.13310682854E+01 -0.31370186487E+02  0.31886055400E+02  0.00000000000E+00 0. -1.
         11    1    3    3    0    0  0.45015299566E+01 -0.11196668335E+02 -0.73236616322E+01  0.14116131684E+02  0.51100000000E-03 0. -1.
        -11    1    3    3    0    0  0.69488641498E+01  0.15059488146E+02  0.31086794325E+02  0.35234410423E+02  0.51100000000E-03 0.  1.
         12    1    3    3    0    0 -0.58951996044E+01 -0.25317515253E+01  0.76070537937E+01  0.99514024932E+01  0.00000000000E+00 0. -1.
</event>
<event>
 7    1  0.7579108E-012  0.5930194E+02  0.7816164E-02  0.1266605E+00
        -11   -1    0    0    0    0  0.00000000000E+00  0.00000000000E+00  0.45593999997E+02  0.45594000000E+02  0.51100000000E-03 0. -1.
         11   -1    0    0    0    0 -0.00000000000E+00 -0.00000000000E+00 -0.45593999997E+02  0.45594000000E+02  0.51100000000E-03 0.  1.
    9900012    2    1    2    0    0 -0.27586239980E+02  0.12884261819E+02 -0.94718615922E+01  0.59301937200E+02  0.49999987548E+02 0.  0.
         12    1    1    2    0    0  0.27586239980E+02 -0.12884261819E+02  0.94718615922E+01  0.31886062800E+02  0.00000000000E+00 0. -1.
         11    1    3    3    0    0 -0.15054784357E+02 -0.31808904421E+00  0.87085464198E+01  0.17395013472E+02  0.51100000000E-03 0. -1.
        -11    1    3    3    0    0 -0.16985408376E+02  0.91982032538E+01 -0.25790898975E+02  0.32222375937E+02  0.51100000000E-03 0.  1.
        -12    1    3    3    0    0  0.44539527539E+01  0.40041476091E+01  0.76104909635E+01  0.96845477909E+01  0.00000000000E+00 0.  1.
</event>
<event>
 7    1  0.7579108E-012  0.5930198E+02  0.7816164E-02  0.1266605E+00
        -11   -1    0    0    0    0  0.00000000000E+00  0.00000000000E+00  0.45593999997E+02  0.45594000000E+02  0.51100000000E-03 0.  1.
         11   -1    0    0    0    0 -0.00000000000E+00 -0.00000000000E+00 -0.45593999997E+02  0.45594000000E+02  0.51100000000E-03 0. -1.
    9900012    2    1    2    0    0  0.23645976650E+02  0.17204481588E+02  0.12711876283E+02  0.59301981166E+02  0.50000067732E+02 0.  0.
         12    1    1    2    0    0 -0.23645976650E+02 -0.17204481588E+02 -0.12711876283E+02  0.31886018834E+02  0.00000000000E+00 0. -1.
         11    1    3    3    0    0  0.17380538154E+01  0.14858067997E+02  0.74610141070E+01  0.16716750505E+02  0.51100000000E-03 0. -1.
        -11    1    3    3    0    0  0.22824125005E+02 -0.38849774163E+01  0.17358722716E+02  0.28937155810E+02  0.51100000000E-03 0.  1.
        -12    1    3    3    0    0 -0.91620216968E+00  0.62313910066E+01 -0.12107860540E+02  0.13648074852E+02  0.00000000000E+00 0.  1.
</event>
<event>
 7    1  0.7579108E-012  0.5930186E+02  0.7816164E-02  0.1266605E+00
        -11   -1    0    0    0    0  0.00000000000E+00  0.00000000000E+00  0.45593999997E+02  0.45594000000E+02  0.51100000000E-03 0.  1.
         11   -1    0    0    0    0 -0.00000000000E+00 -0.00000000000E+00 -0.45593999997E+02  0.45594000000E+02  0.51100000000E-03 0. -1.
    9900012    2    1    2    0    0 -0.37071710758E+01  0.26728792168E+02  0.16986897223E+02  0.59301856843E+02  0.49999840995E+02 0.  0.
         12    1    1    2    0    0  0.37071710758E+01 -0.26728792168E+02 -0.16986897223E+02  0.31886143157E+02  0.00000000000E+00 0. -1.
         11    1    3    3    0    0 -0.16842794090E+02  0.39093907663E+01  0.12008821830E+02  0.21051718479E+02  0.51100000000E-03 0. -1.
        -11    1    3    3    0    0  0.15453254591E+02  0.22331842413E+02  0.12839706474E+02  0.30039512739E+02  0.51100000000E-03 0.  1.
         12    1    3    3    0    0 -0.23176315769E+01  0.48755898876E+00 -0.78616310807E+01  0.82106256244E+01  0.00000000000E+00 0. -1.
</event>
<event>
 7    1  0.7579108E-012  0.5930195E+02  0.7816164E-02  0.1266605E+00
        -11   -1    0    0    0    0  0.00000000000E+00  0.00000000000E+00  0.45593999997E+02  0.45594000000E+02  0.51100000000E-03 0. -1.
         11   -1    0    0    0    0 -0.00000000000E+00 -0.00000000000E+00 -0.45593999997E+02  0.45594000000E+02  0.51100000000E-03 0.  1.
    9900012    2    1    2    0    0 -0.17186905222E+02  0.41190445602E+01 -0.26539857324E+02  0.59301948724E+02  0.50000008564E+02 0.  0.
         12    1    1    2    0    0  0.17186905222E+02 -0.41190445602E+01  0.26539857324E+02  0.31886051276E+02  0.00000000000E+00 0. -1.
         11    1    3    3    0    0 -0.13314967379E+02 -0.11917058246E+02 -0.11169771837E+01  0.17903973632E+02  0.51100000000E-03 0. -1.
        -11    1    3    3    0    0  0.75456100810E+01  0.11119331936E+02 -0.25658683345E+02  0.28964526674E+02  0.51100000000E-03 0.  1.
        -12    1    3    3    0    0 -0.11417547924E+02  0.49167708705E+01  0.23580320429E+00  0.12433448417E+02  0.00000000000E+00 0.  1.
</event>
<event>
 7    1  0.7579108E-012  0.5930192E+02  0.7816164E-02  0.1266605E+00
        -11   -1    0    0    0    0  0.00000000000E+00  0.00000000000E+00  0.45593999997E+02  0.45594000000E+02  0.51100000000E-03 0.  1.
         11   -1    0    0    0    0 -0.00000000000E+00 -0.00000000000E+00 -0.45593999997E+02  0.45594000000E+02  0.51100000000E-03 0. -1.
    9900012    2    1    2    0    0  0.11432232114E+02 -0.17090643317E+02 -0.24370805659E+02  0.59301918576E+02  0.49999953582E+02 0.  0.
         12    1    1    2    0    0 -0.11432232114E+02  0.17090643317E+02  0.24370805659E+02  0.31886081424E+02  0.00000000000E+00 0. -1.
         11    1    3    3    0    0 -0.36065557077E+01 -0.95006891212E+01 -0.24963571901E+02  0.26952741237E+02  0.51100000000E-03 0. -1.
        -11    1    3    3    0    0 -0.27345814901E+01  0.67765874060E+01  0.52855053421E+01  0.90186828185E+01  0.51100000000E-03 0.  1.
        -12    1    3    3    0    0  0.17773369312E+02 -0.14366541602E+02 -0.46927391002E+01  0.23330494520E+02  0.00000000000E+00 0.  1.
</event>
<event>
 7    1  0.7579108E-012  0.5930195E+02  0.7816164E-02  0.1266605E+00
        -11   -1    0    0    0    0  0.00000000000E+00  0.00000000000E+00  0.45593999997E+02  0.45594000000E+02  0.51100000000E-03 0. -1.
         11   -1    0    0    0    0 -0.00000000000E+00 -0.00000000000E+00 -0.45593999997E+02  0.45594000000E+02  0.51100000000E-03 0.  1.
    9900012    2    1    2    0    0 -0.25537870571E+02  0.13604643195E+02  0.13395936932E+02  0.59301948566E+02  0.50000008277E+02 0.  0.
         12    1    1    2    0    0  0.25537870571E+02 -0.13604643195E+02 -0.13395936932E+02  0.31886051434E+02  0.00000000000E+00 0. -1.
         11    1    3    3    0    0 -0.43395729764E+01 -0.36027089076E+01  0.62652445148E+01  0.84299877925E+01  0.51100000000E-03 0. -1.
        -11    1    3    3    0    0  0.40991272873E+01  0.18626029701E+02 -0.87353472010E+01  0.20977085544E+02  0.51100000000E-03 0.  1.
        -12    1    3    3    0    0 -0.25297424882E+02 -0.14186775991E+01  0.15866039619E+02  0.29894875229E+02  0.00000000000E+00 0.  1.
</event>
<event>
 7    1  0.7579108E-012  0.5930183E+02  0.7816164E-02  0.1266605E+00
        -11   -1    0    0    0    0  0.00000000000E+00  0.00000000000E+00  0.45593999997E+02  0.45594000000E+02  0.51100000000E-03 0.  1.
         11   -1    0    0    0    0 -0.00000000000E+00 -0.00000000000E+00 -0.45593999997E+02  0.45594000000E+02  0.51100000000E-03 0. -1.
    9900012    2    1    2    0    0 -0.18686243059E+01  0.28173453381E+02  0.14815283371E+02  0.59301829745E+02  0.49999791575E+02 0.  0.
         12    1    1    2    0    0  0.18686243059E+01 -0.28173453381E+02 -0.14815283371E+02  0.31886170255E+02  0.00000000000E+00 0. -1.
         11    1    3    3    0    0 -0.23785174000E+01 -0.24028803183E+01 -0.51358855336E+01  0.61488616281E+01  0.51100000000E-03 0. -1.
        -11    1    3    3    0    0  0.30271331045E+01  0.38001657322E+02  0.81480330894E+01  0.38983072449E+02  0.51100000000E-03 0.  1.
        -12    1    3    3    0    0 -0.25172400105E+01 -0.74253236231E+01  0.11803135815E+02  0.14169895668E+02  0.00000000000E+00 0.  1.
</event>
<event>
 7    1  0.7579108E-012  0.5930197E+02  0.7816164E-02  0.1266605E+00
        -11   -1    0    0    0    0  0.00000000000E+00  0.00000000000E+00  0.45593999997E+02  0.45594000000E+02  0.51100000000E-03 0. -1.
         11   -1    0    0    0    0 -0.00000000000E+00 -0.00000000000E+00 -0.45593999997E+02  0.45594000000E+02  0.51100000000E-03 0.  1.
    9900012    2    1    2    0    0 -0.18971233357E+02  0.10016031786E+02 -0.23590043497E+02  0.59301972653E+02  0.50000052205E+02 0.  0.
         12    1    1    2    0    0  0.18971233357E+02 -0.10016031786E+02  0.23590043497E+02  0.31886027347E+02  0.00000000000E+00 0. -1.
         11    1    3    3    0    0 -0.12246796570E+01  0.26586925523E+01 -0.36201970954E+02  0.36320120974E+02  0.51100000000E-03 0.  1.
        -11    1    3    3    0    0 -0.16434891304E+02  0.67857966515E+01  0.11622986378E+02  0.21242563428E+02  0.51100000000E-03 0. -1.
        -12    1    3    3    0    0 -0.13116623953E+01  0.57154258178E+00  0.98894107939E+00  0.17392882511E+01  0.00000000000E+00 0.  1.
</event>
<event>
 7    1  0.7579108E-012  0.5930195E+02  0.7816164E-02  0.1266605E+00
        -11   -1    0    0    0    0  0.00000000000E+00  0.00000000000E+00  0.45593999997E+02  0.45594000000E+02  0.51100000000E-03 0.  1.
         11   -1    0    0    0    0 -0.00000000000E+00 -0.00000000000E+00 -0.45593999997E+02  0.45594000000E+02  0.51100000000E-03 0. -1.
    9900012    2    1    2    0    0  0.16386592821E+02  0.42647867173E+01  0.27018723777E+02  0.59301948746E+02  0.50000008604E+02 0.  0.
         12    1    1    2    0    0 -0.16386592821E+02 -0.42647867173E+01 -0.27018723777E+02  0.31886051254E+02  0.00000000000E+00 0. -1.
         11    1    3    3    0    0  0.10079011896E+02  0.64848837472E+01 -0.32898611339E+01  0.12428329918E+02  0.51100000000E-03 0. -1.
        -11    1    3    3    0    0 -0.14503237808E+02 -0.11791957185E+01  0.92136930913E+01  0.17222849651E+02  0.51100000000E-03 0.  1.
        -12    1    3    3    0    0  0.20810818733E+02 -0.10409013115E+01  0.21094891820E+02  0.29650769177E+02  0.00000000000E+00 0.  1.
</event>
<event>
 7    1  0.7579108E-012  0.5930194E+02  0.7816164E-02  0.1266605E+00
        -11   -1    0    0    0    0  0.00000000000E+00  0.00000000000E+00  0.45593999997E+02  0.45594000000E+02  0.51100000000E-03 0.  1.
         11   -1    0    0    0    0 -0.00000000000E+00 -0.00000000000E+00 -0.45593999997E+02  0.45594000000E+02  0.51100000000E-03 0. -1.
    9900012    2    1    2    0    0  0.58869352789E+01  0.26835360816E+02  0.16184189031E+02  0.59301943930E+02  0.49999999821E+02 0.  0.
         12    1    1    2    0    0 -0.58869352789E+01 -0.26835360816E+02 -0.16184189031E+02  0.31886056070E+02  0.00000000000E+00 0. -1.
         11    1    3    3    0    0  0.13410150951E+02  0.15610372867E+02  0.24655241951E+02  0.32115367746E+02  0.51100000000E-03 0. -1.
        -11    1    3    3    0    0 -0.50239845234E+01  0.14335975038E+02  0.26059337303E+01  0.15412705526E+02  0.51100000000E-03 0.  1.
         12    1    3    3    0    0 -0.24992311491E+01 -0.31109870880E+01 -0.11076986650E+02  0.11773870657E+02  0.00000000000E+00 0. -1.
</event>
<event>
 7    1  0.7579108E-012  0.5930211E+02  0.7816164E-02  0.1266604E+00
        -11   -1    0    0    0    0  0.00000000000E+00  0.00000000000E+00  0.45593999997E+02  0.45594000000E+02  0.51100000000E-03 0. -1.
         11   -1    0    0    0    0 -0.00000000000E+00 -0.00000000000E+00 -0.45593999997E+02  0.45594000000E+02  0.51100000000E-03 0.  1.
    9900012    2    1    2    0    0  0.19373437329E+02  0.22106802785E+02 -0.12355945782E+02  0.59302106575E+02  0.50000296447E+02 0.  0.
         12    1    1    2    0    0 -0.19373437329E+02 -0.22106802785E+02  0.12355945782E+02  0.31885893425E+02  0.00000000000E+00 0. -1.
         11    1    3    3    0    0  0.31012977078E+02  0.98996248083E+01 -0.10962337012E+02  0.34350839168E+02  0.51100000000E-03 0.  1.
        -11    1    3    3    0    0 -0.13240360734E+02  0.11757060023E+02  0.49560743799E+01  0.18387449150E+02  0.51100000000E-03 0. -1.
         12    1    3    3    0    0  0.16008209855E+01  0.45011795344E+00 -0.63496831501E+01  0.65638182567E+01  0.00000000000E+00 0. -1.
</event>
<event>
 7    1  0.7579108E-012  0.5930199E+02  0.7816164E-02  0.1266605E+00
        -11   -1    0    0    0    0  0.00000000000E+00  0.00000000000E+00  0.45593999997E+02  0.45594000000E+02  0.51100000000E-03 0.  1.
         11   -1    0    0    0    0 -0.00000000000E+00 -0.00000000000E+00 -0.45593999997E+02  0.45594000000E+02  0.51100000000E-03 0. -1.
    9900012    2    1    2    0    0  0.49573097071E+01  0.73508158922E+01  0.30628554458E+02  0.59301987988E+02  0.50000080173E+02 0.  0.
         12    1    1    2    0    0 -0.49573097071E+01 -0.73508158922E+01 -0.30628554458E+02  0.31886012012E+02  0.00000000000E+00 0. -1.
         11    1    3    3    0    0 -0.39446690837E+01 -0.17602418467E+01 -0.87904343684E+01  0.97944168885E+01  0.51100000000E-03 0. -1.
        -11    1    3    3    0    0 -0.47769803091E+01  0.10489334869E+02  0.31722834670E+02  0.33751798865E+02  0.51100000000E-03 0.  1.
        -12    1    3    3    0    0  0.13678959100E+02 -0.13782771306E+01  0.76961541571E+01  0.15755772235E+02  0.00000000000E+00 0.  1.
</event>
<event>
 7    1  0.7579108E-012  0.5930192E+02  0.7816164E-02  0.1266605E+00
        -11   -1    0    0    0    0  0.00000000000E+00  0.00000000000E+00  0.45593999997E+02  0.45594000000E+02  0.51100000000E-03 0.  1.
         11   -1    0    0    0    0 -0.00000000000E+00 -0.00000000000E+00 -0.45593999997E+02  0.45594000000E+02  0.51100000000E-03 0. -1.
    9900012    2    1    2    0    0  0.25963266077E+02  0.92516419672E+01  0.16032405569E+02  0.59301920077E+02  0.49999956320E+02 0.  0.
         12    1    1    2    0    0 -0.25963266077E+02 -0.92516419672E+01 -0.16032405569E+02  0.31886079923E+02  0.00000000000E+00 0. -1.
         11    1    3    3    0    0  0.74103377461E+01  0.17826905262E+02 -0.28844923965E+01  0.19520039790E+02  0.51100000000E-03 0. -1.
        -11    1    3    3    0    0  0.24364231484E+02 -0.12608503564E+02  0.12188284182E+02  0.30019067432E+02  0.51100000000E-03 0.  1.
        -12    1    3    3    0    0 -0.58113031531E+01  0.40332402688E+01  0.67286137839E+01  0.97628128557E+01  0.00000000000E+00 0.  1.
</event>
<event>
 7    1  0.7579108E-012  0.5930191E+02  0.7816164E-02  0.1266605E+00
        -11   -1    0    0    0    0  0.00000000000E+00  0.00000000000E+00  0.45593999997E+02  0.45594000000E+02  0.51100000000E-03 0.  1.
         11   -1    0    0    0    0 -0.00000000000E+00 -0.00000000000E+00 -0.45593999997E+02  0.45594000000E+02  0.51100000000E-03 0. -1.
    9900012    2    1    2    0    0 -0.15524151640E+02 -0.87841239335E+01  0.26430336914E+02  0.59301908569E+02  0.49999935331E+02 0.  0.
         12    1    1    2    0    0  0.15524151640E+02  0.87841239335E+01 -0.26430336914E+02  0.31886091431E+02  0.00000000000E+00 0. -1.
         11    1    3    3    0    0 -0.25075529457E+02  0.33603134488E+01  0.13899413915E+02  0.28866374754E+02  0.51100000000E-03 0. -1.
        -11    1    3    3    0    0  0.12432918123E+02  0.17249129196E+01  0.99938128377E+01  0.16044596378E+02  0.51100000000E-03 0.  1.
        -12    1    3    3    0    0 -0.28815403059E+01 -0.13869350302E+02  0.25371101613E+01  0.14390937437E+02  0.00000000000E+00 0.  1.
</event>
<event>
 7    1  0.7579108E-012  0.5930192E+02  0.7816164E-02  0.1266605E+00
        -11   -1    0    0    0    0  0.00000000000E+00  0.00000000000E+00  0.45593999997E+02  0.45594000000E+02  0.51100000000E-03 0. -1.
         11   -1    0    0    0    0 -0.00000000000E+00 -0.00000000000E+00 -0.45593999997E+02  0.45594000000E+02  0.51100000000E-03 0.  1.
    9900012    2    1    2    0    0 -0.12724253967E+01 -0.31755025469E+02 -0.25925281707E+01  0.59301922924E+02  0.49999961513E+02 0.  0.
         12    1    1    2    0    0  0.12724253967E+01  0.31755025469E+02  0.25925281707E+01  0.31886077076E+02  0.00000000000E+00 0. -1.
         11    1    3    3    0    0 -0.11336063077E+02 -0.61976399357E+01  0.10929256698E+02  0.16922343782E+02  0.51100000000E-03 0. -1.
        -11    1    3    3    0    0  0.49419761543E+01 -0.30839170440E+02 -0.58978442487E+01  0.31784620947E+02  0.51100000000E-03 0.  1.
         12    1    3    3    0    0  0.51216615257E+01  0.52817849059E+01 -0.76239406200E+01  0.10594958195E+02  0.00000000000E+00 0. -1.
</event>
<event>
 7    1  0.7579108E-012  0.5930194E+02  0.7816164E-02  0.1266605E+00
        -11   -1    0    0    0    0  0.00000000000E+00  0.00000000000E+00  0.45593999997E+02  0.45594000000E+02  0.51100000000E-03 0.  1.
         11   -1    0    0    0    0 -0.00000000000E+00 -0.00000000000E+00 -0.45593999997E+02  0.45594000000E+02  0.51100000000E-03 0. -1.
    9900012    2    1    2    0    0 -0.21492501299E+02  0.19538397320E+01  0.23472874964E+02  0.59301937828E+02  0.49999988693E+02 0.  0.
         12    1    1    2    0    0  0.21492501299E+02 -0.19538397320E+01 -0.23472874964E+02  0.31886062172E+02  0.00000000000E+00 0. -1.
         11    1    3    3    0    0 -0.60058222891E+01 -0.18648722439E+02  0.16313776936E+02  0.25494785117E+02  0.51100000000E-03 0.  1.
        -11    1    3    3    0    0 -0.77182902077E+01  0.12179902159E+02 -0.66367706810E+01  0.15873523417E+02  0.51100000000E-03 0. -1.
        -12    1    3    3    0    0 -0.77683888019E+01  0.84226600121E+01  0.13795868708E+02  0.17933629295E+02  0.00000000000E+00 0.  1.
</event>
<event>
 7    1  0.7579108E-012  0.5930190E+02  0.7816164E-02  0.1266605E+00
        -11   -1    0    0    0    0  0.00000000000E+00  0.00000000000E+00  0.45593999997E+02  0.45594000000E+02  0.51100000000E-03 0.  1.
         11   -1    0    0    0    0 -0.00000000000E+00 -0.00000000000E+00 -0.45593999997E+02  0.45594000000E+02  0.51100000000E-03 0. -1.
    9900012    2    1    2    0    0 -0.29177671199E+02 -0.11886970519E+02  0.49078420127E+01  0.59301898357E+02  0.49999916708E+02 0.  0.
         12    1    1    2    0    0  0.29177671199E+02  0.11886970519E+02 -0.49078420127E+01  0.31886101643E+02  0.00000000000E+00 0. -1.
         11    1    3    3    0    0 -0.36386267949E+01  0.57135012040E+01 -0.49573627798E+01  0.83939946958E+01  0.51100000000E-03 0. -1.
        -11    1    3    3    0    0  0.75167186173E+01 -0.13249491848E+02 -0.23225516038E+01  0.15409229027E+02  0.51100000000E-03 0.  1.
        -12    1    3    3    0    0 -0.33055763022E+02 -0.43509798753E+01  0.12187756396E+02  0.35498674634E+02  0.00000000000E+00 0.  1.
</event>
<event>
 7    1  0.7579108E-012  0.5930196E+02  0.7816164E-02  0.1266605E+00
        -11   -1    0    0    0    0  0.00000000000E+00  0.00000000000E+00  0.45593999997E+02  0.45594000000E+02  0.51100000000E-03 0. -1.
         11   -1    0    0    0    0 -0.00000000000E+00 -0.00000000000E+00 -0.45593999997E+02  0.45594000000E+02  0.51100000000E-03 0.  1.
    9900012    2    1    2    0    0 -0.96541694710E+01 -0.28011068794E+02 -0.11785452002E+02  0.59301955371E+02  0.50000020688E+02 0.  0.
         12    1    1    2    0    0  0.96541694710E+01  0.28011068794E+02  0.11785452002E+02  0.31886044629E+02  0.00000000000E+00 0. -1.
         11    1    3    3    0    0  0.11900880668E+02 -0.15671491443E+02 -0.31728817413E+01  0.19932229768E+02  0.51100000000E-03 0. -1.
        -11    1    3    3    0    0 -0.24483413099E+02 -0.72973309204E+01  0.36349036058E+01  0.25805059194E+02  0.51100000000E-03 0.  1.
        -12    1    3    3    0    0  0.29283629598E+01 -0.50422464308E+01 -0.12247473866E+02  0.13564666409E+02  0.00000000000E+00 0.  1.
</event>
<event>
 7    1  0.7579108E-012  0.5930182E+02  0.7816164E-02  0.1266605E+00
        -11   -1    0    0    0    0  0.00000000000E+00  0.00000000000E+00  0.45593999997E+02  0.45594000000E+02  0.51100000000E-03 0.  1.
         11   -1    0    0    0    0 -0.00000000000E+00 -0.00000000000E+00 -0.45593999997E+02  0.45594000000E+02  0.51100000000E-03 0. -1.
    9900012    2    1    2    0    0 -0.12551534024E+02  0.13059042570E+02  0.26242120770E+02  0.59301819581E+02  0.49999773039E+02 0.  0.
         12    1    1    2    0    0  0.12551534024E+02 -0.13059042570E+02 -0.26242120770E+02  0.31886180419E+02  0.00000000000E+00 0. -1.
         11    1    3    3    0    0 -0.21967423189E+02  0.12088850352E+02  0.49628736180E+01  0.25560479245E+02  0.51100000000E-03 0. -1.
        -11    1    3    3    0    0  0.10303082134E+01 -0.46199843595E+01 -0.42082589077E+01  0.63336587998E+01  0.51100000000E-03 0.  1.
         12    1    3    3    0    0  0.83855809518E+01  0.55901765772E+01  0.25487506060E+02  0.27407681536E+02  0.00000000000E+00 0. -1.
</event>
<event>
 7    1  0.7579108E-012  0.5930193E+02  0.7816164E-02  0.1266605E+00
        -11   -1    0    0    0    0  0.00000000000E+00  0.00000000000E+00  0.45593999997E+02  0.45594000000E+02  0.51100000000E-03 0. -1.
         11   -1    0    0    0    0 -0.00000000000E+00 -0.00000000000E+00 -0.45593999997E+02  0.45594000000E+02  0.51100000000E-03 0.  1.
    9900012    2    1    2    0    0 -0.42800069983E+01  0.24820607522E+02 -0.19553524613E+02  0.59301931844E+02  0.49999977780E+02 0.  0.
         12    1    1    2    0    0  0.42800069983E+01 -0.24820607522E+02  0.19553524613E+02  0.31886068156E+02  0.00000000000E+00 0. -1.
         11    1    3    3    0    0  0.15211698550E+02  0.15833440989E+02 -0.24979670799E+02  0.33257744660E+02  0.51100000000E-03 0. -1.
        -11    1    3    3    0    0 -0.54167299577E+01  0.71037950327E+00  0.78222305052E+01  0.95411159101E+01  0.51100000000E-03 0.  1.
        -12    1    3    3    0    0 -0.14074975591E+02  0.82767870297E+01 -0.23960843184E+01  0.16503071274E+02  0.00000000000E+00 0.  1.
</event>
<event>
 7    1  0.7579108E-012  0.5930195E+02  0.7816164E-02  0.1266605E+00
        -11   -1    0    0    0    0  0.00000000000E+00  0.00000000000E+00  0.45593999997E+02  0.45594000000E+02  0.51100000000E-03 0. -1.
         11   -1    0    0    0    0 -0.00000000000E+00 -0.00000000000E+00 -0.45593999997E+02  0.45594000000E+02  0.51100000000E-03 0.  1.
    9900012    2    1    2    0    0 -0.19806469667E+02  0.15800060170E+01  0.24938472684E+02  0.59301951648E+02  0.50000013897E+02 0.  0.
         12    1    1    2    0    0  0.19806469667E+02 -0.15800060170E+01 -0.24938472684E+02  0.31886048352E+02  0.00000000000E+00 0. -1.
         11    1    3    3    0    0 -0.35552559560E+01 -0.16222530533E+02  0.29899300998E+02  0.34202025411E+02  0.51100000000E-03 0. -1.
        -11    1    3    3    0    0 -0.10188287617E+02  0.80054697344E+01 -0.13568035635E+01  0.13028033866E+02  0.51100000000E-03 0.  1.
         12    1    3    3    0    0 -0.60629260946E+01  0.97970668154E+01 -0.36040247506E+01  0.12071892371E+02  0.00000000000E+00 0. -1.
</event>
<event>
 7    1  0.7579108E-012  0.5930195E+02  0.7816164E-02  0.1266605E+00
        -11   -1    0    0    0    0  0.00000000000E+00  0.00000000000E+00  0.45593999997E+02  0.45594000000E+02  0.51100000000E-03 0.  1.
         11   -1    0    0    0    0 -0.00000000000E+00 -0.00000000000E+00 -0.45593999997E+02  0.45594000000E+02  0.51100000000E-03 0. -1.
    9900012    2    1    2    0    0 -0.19413508761E+02 -0.96527462265E+01  0.23380769531E+02  0.59301949507E+02  0.50000009993E+02 0.  0.
         12    1    1    2    0    0  0.19413508761E+02  0.96527462265E+01 -0.23380769531E+02  0.31886050493E+02  0.00000000000E+00 0. -1.
         11    1    3    3    0    0 -0.19682935205E+02 -0.73766604880E+00 -0.80745543212E+01  0.21287567199E+02  0.51100000000E-03 0. -1.
        -11    1    3    3    0    0 -0.67836173703E+01 -0.90796226098E+01  0.27899938196E+02  0.30114175449E+02  0.51100000000E-03 0.  1.
        -12    1    3    3    0    0  0.70530438143E+01  0.16454243216E+00  0.35553856569E+01  0.79002068598E+01  0.00000000000E+00 0.  1.
</event>
<event>
 7    1  0.7579108E-012  0.5930196E+02  0.7816164E-02  0.1266605E+00
        -11   -1    0    0    0    0  0.00000000000E+00  0.00000000000E+00  0.45593999997E+02  0.45594000000E+02  0.51100000000E-03 0.  1.
         11   -1    0    0    0    0 -0.00000000000E+00 -0.00000000000E+00 -0.45593999997E+02  0.45594000000E+02  0.51100000000E-03 0. -1.
    9900012    2    1    2    0    0 -0.27592131905E+02  0.52398056335E+01  0.15097621239E+02  0.59301961155E+02  0.50000031236E+02 0.  0.
         12    1    1    2    0    0  0.27592131905E+02 -0.52398056335E+01 -0.15097621239E+02  0.31886038845E+02  0.00000000000E+00 0. -1.
         11    1    3    3    0    0 -0.13925082547E+02  0.75279208770E+01  0.39739900894E+00  0.15834627968E+02  0.51100000000E-03 0. -1.
        -11    1    3    3    0    0 -0.98094561821E+01 -0.20229895912E+02  0.68123634214E+01  0.23492177737E+02  0.51100000000E-03 0.  1.
        -12    1    3    3    0    0 -0.38575931763E+01  0.17941780668E+02  0.78878588086E+01  0.19975155450E+02  0.00000000000E+00 0.  1.
</event>
<event>
 7    1  0.7579108E-012  0.5930186E+02  0.7816164E-02  0.1266605E+00
        -11   -1    0    0    0    0  0.00000000000E+00  0.00000000000E+00  0.45593999997E+02  0.45594000000E+02  0.51100000000E-03 0.  1.
         11   -1    0    0    0    0 -0.00000000000E+00 -0.00000000000E+00 -0.45593999997E+02  0.45594000000E+02  0.51100000000E-03 0. -1.
    9900012    2    1    2    0    0  0.10885254302E+02 -0.18836465657E+02  0.23311476804E+02  0.59301856451E+02  0.49999840280E+02 0.  0.
         12    1    1    2    0    0 -0.10885254302E+02  0.18836465657E+02 -0.23311476804E+02  0.31886143549E+02  0.00000000000E+00 0. -1.
         11    1    3    3    0    0  0.96768534199E+01 -0.97067254181E+01 -0.61890193647E+01  0.15038815492E+02  0.51100000000E-03 0. -1.
        -11    1    3    3    0    0 -0.10511456140E+02 -0.13815900859E+02  0.25823626592E+02  0.31116386637E+02  0.51100000000E-03 0.  1.
        -12    1    3    3    0    0  0.11719857022E+02  0.46861606197E+01  0.36768695768E+01  0.13146654321E+02  0.00000000000E+00 0.  1.
</event>
<event>
 7    1  0.7579108E-012  0.5930207E+02  0.7816164E-02  0.1266604E+00
        -11   -1    0    0    0    0  0.00000000000E+00  0.00000000000E+00  0.45593999997E+02  0.45594000000E+02  0.51100000000E-03 0.  1.
         11   -1    0    0    0    0 -0.00000000000E+00 -0.00000000000E+00 -0.45593999997E+02  0.45594000000E+02  0.51100000000E-03 0. -1.
    9900012    2    1    2    0    0 -0.27936636062E+02 -0.86821290479E+01  0.12683751004E+02  0.59302069893E+02  0.50000229547E+02 0.  0.
         12    1    1    2    0    0  0.27936636062E+02  0.86821290479E+01 -0.12683751004E+02  0.31885930107E+02  0.00000000000E+00 0. -1.
         11    1    3    3    0    0 -0.42874315921E+01 -0.22243409608E+02  0.61651974196E+01  0.23476818357E+02  0.51100000000E-03 0.  1.
        -11    1    3    3    0    0 -0.14336407398E+02  0.10526168650E+02 -0.70148899741E+01  0.19119139237E+02  0.51100000000E-03 0. -1.
         12    1    3    3    0    0 -0.93127970719E+01  0.30351119106E+01  0.13533443558E+02  0.16706112299E+02  0.00000000000E+00 0. -1.
</event>
<event>
 7    1  0.7579108E-012  0.5930194E+02  0.7816164E-02  0.1266605E+00
        -11   -1    0    0    0    0  0.00000000000E+00  0.00000000000E+00  0.45593999997E+02  0.45594000000E+02  0.51100000000E-03 0. -1.
         11   -1    0    0    0    0 -0.00000000000E+00 -0.00000000000E+00 -0.45593999997E+02  0.45594000000E+02  0.51100000000E-03 0.  1.
    9900012    2    1    2    0    0 -0.15127784018E+01 -0.16329441103E+02 -0.27345601179E+02  0.59301936445E+02  0.49999986171E+02 0.  0.
         12    1    1    2    0    0  0.15127784018E+01  0.16329441103E+02  0.27345601179E+02  0.31886063555E+02  0.00000000000E+00 0. -1.
         11    1    3    3    0    0  0.28311277878E+01  0.34447599229E+01  0.53395598361E+01  0.69564757587E+01  0.51100000000E-03 0. -1.
        -11    1    3    3    0    0 -0.16197083166E+02 -0.42738872313E+01 -0.27424293290E+02  0.32135704098E+02  0.51100000000E-03 0.  1.
         12    1    3    3    0    0  0.11853176976E+02 -0.15500313794E+02 -0.52608677250E+01  0.20209756589E+02  0.00000000000E+00 0. -1.
</event>
<event>
 7    1  0.7579108E-012  0.5930195E+02  0.7816164E-02  0.1266605E+00
        -11   -1    0    0    0    0  0.00000000000E+00  0.00000000000E+00  0.45593999997E+02  0.45594000000E+02  0.51100000000E-03 0.  1.
         11   -1    0    0    0    0 -0.00000000000E+00 -0.00000000000E+00 -0.45593999997E+02  0.45594000000E+02  0.51100000000E-03 0. -1.
    9900012    2    1    2    0    0  0.12974002897E+02 -0.10967436338E+02  0.26983531681E+02  0.59301946733E+02  0.50000004933E+02 0.  0.
         12    1    1    2    0    0 -0.12974002897E+02  0.10967436338E+02 -0.26983531681E+02  0.31886053267E+02  0.00000000000E+00 0. -1.
         11    1    3    3    0    0  0.10061755601E+02 -0.69386508131E+00 -0.78927990650E+01  0.12806898604E+02  0.51100000000E-03 0. -1.
        -11    1    3    3    0    0 -0.41118729586E+01 -0.13039651749E+02  0.36320740493E+02  0.38808970705E+02  0.51100000000E-03 0.  1.
        -12    1    3    3    0    0  0.70241202547E+01  0.27660804921E+01 -0.14444097470E+01  0.76860774234E+01  0.00000000000E+00 0.  1.
</event>
<event>
 7    1  0.7579108E-012  0.5930200E+02  0.7816164E-02  0.1266605E+00
        -11   -1    0    0    0    0  0.00000000000E+00  0.00000000000E+00  0.45593999997E+02  0.45594000000E+02  0.51100000000E-03 0.  1.
         11   -1    0    0    0    0 -0.00000000000E+00 -0.00000000000E+00 -0.45593999997E+02  0.45594000000E+02  0.51100000000E-03 0. -1.
    9900012    2    1    2    0    0 -0.18779638018E+01 -0.31750092740E+02  0.22631340695E+01  0.59302001304E+02  0.50000104457E+02 0.  0.
         12    1    1    2    0    0  0.18779638018E+01  0.31750092740E+02 -0.22631340695E+01  0.31885998696E+02  0.00000000000E+00 0. -1.
         11    1    3    3    0    0  0.26457065256E+01 -0.29158262366E+01 -0.93047928391E+01  0.10103513038E+02  0.51100000000E-03 0. -1.
        -11    1    3    3    0    0 -0.10788606265E+02 -0.47823243486E+01  0.19771136652E+02  0.23025257785E+02  0.51100000000E-03 0.  1.
        -12    1    3    3    0    0  0.62649359374E+01 -0.24051942155E+02 -0.82032097429E+01  0.26173230481E+02  0.00000000000E+00 0.  1.
</event>
<event>
 7    1  0.7579108E-012  0.5930198E+02  0.7816164E-02  0.1266605E+00
        -11   -1    0    0    0    0  0.00000000000E+00  0.00000000000E+00  0.45593999997E+02  0.45594000000E+02  0.51100000000E-03 0.  1.
         11   -1    0    0    0    0 -0.00000000000E+00 -0.00000000000E+00 -0.45593999997E+02  0.45594000000E+02  0.51100000000E-03 0. -1.
    9900012    2    1    2    0    0  0.26646422617E+02 -0.18845075692E+01  0.17410772253E+02  0.59301981159E+02  0.50000067718E+02 0.  0.
         12    1    1    2    0    0 -0.26646422617E+02  0.18845075692E+01 -0.17410772253E+02  0.31886018841E+02  0.00000000000E+00 0. -1.
         11    1    3    3    0    0 -0.41533520629E+01 -0.16452813777E+01  0.14112193905E+00  0.44695860919E+01  0.51100000000E-03 0. -1.
        -11    1    3    3    0    0  0.31411995613E+02 -0.98304292917E+01 -0.23367846276E+01  0.32997141863E+02  0.51100000000E-03 0.  1.
        -12    1    3    3    0    0 -0.61222093259E+00  0.95912031002E+01  0.19606434942E+02  0.21835253204E+02  0.00000000000E+00 0.  1.
</event>
<event>
 7    1  0.7579108E-012  0.5930194E+02  0.7816164E-02  0.1266605E+00
        -11   -1    0    0    0    0  0.00000000000E+00  0.00000000000E+00  0.45593999997E+02  0.45594000000E+02  0.51100000000E-03 0.  1.
         11   -1    0    0    0    0 -0.00000000000E+00 -0.00000000000E+00 -0.45593999997E+02  0.45594000000E+02  0.51100000000E-03 0. -1.
    9900012    2    1    2    0    0  0.19622342057E+02 -0.41179582721E+01  0.24793689629E+02  0.59301938256E+02  0.49999989473E+02 0.  0.
         12    1    1    2    0    0 -0.19622342057E+02  0.41179582721E+01 -0.24793689629E+02  0.31886061744E+02  0.00000000000E+00 0. -1.
         11    1    3    3    0    0 -0.13427706888E+01  0.42197632756E+01  0.20197781240E+01  0.48671284302E+01  0.51100000000E-03 0. -1.
        -11    1    3    3    0    0  0.29230198130E+02  0.43750702503E+01  0.25491019602E+02  0.39029960326E+02  0.51100000000E-03 0.  1.
        -12    1    3    3    0    0 -0.82650853838E+01 -0.12712791798E+02 -0.27171080972E+01  0.15404849500E+02  0.00000000000E+00 0.  1.
</event>
<event>
 7    1  0.7579108E-012  0.5930192E+02  0.7816164E-02  0.1266605E+00
        -11   -1    0    0    0    0  0.00000000000E+00  0.00000000000E+00  0.45593999997E+02  0.45594000000E+02  0.51100000000E-03 0.  1.
         11   -1    0    0    0    0 -0.00000000000E+00 -0.00000000000E+00 -0.45593999997E+02  0.45594000000E+02  0.51100000000E-03 0. -1.
    9900012    2    1    2    0    0  0.25748566062E+02 -0.11185482288E+02  0.15120124921E+02  0.59301923950E+02  0.49999963383E+02 0.  0.
         12    1    1    2    0    0 -0.25748566062E+02  0.11185482288E+02 -0.15120124921E+02  0.31886076050E+02  0.00000000000E+00 0. -1.
         11    1    3    3    0    0  0.14760347880E+02  0.10179394523E+02  0.10784038415E+02  0.20923274772E+02  0.51100000000E-03 0. -1.
        -11    1    3    3    0    0 -0.82381657263E+01  0.13774685720E+01  0.97547248266E+00  0.84093008644E+01  0.51100000000E-03 0.  1.
        -12    1    3    3    0    0  0.19226383908E+02 -0.22742345383E+02  0.33606140229E+01  0.29969348313E+02  0.00000000000E+00 0.  1.
</event>
<event>
 7    1  0.7579108E-012  0.5930200E+02  0.7816164E-02  0.1266605E+00
        -11   -1    0    0    0    0  0.00000000000E+00  0.00000000000E+00  0.45593999997E+02  0.45594000000E+02  0.51100000000E-03 0.  1.
         11   -1    0    0    0    0 -0.00000000000E+00 -0.00000000000E+00 -0.45593999997E+02  0.45594000000E+02  0.51100000000E-03 0. -1.
    9900012    2    1    2    0    0  0.11030678537E+02  0.18478903350E+01  0.29860115849E+02  0.59301998585E+02  0.50000099500E+02 0.  0.
         12    1    1    2    0    0 -0.11030678537E+02 -0.18478903350E+01 -0.29860115849E+02  0.31886001415E+02  0.00000000000E+00 0. -1.
         11    1    3    3    0    0  0.94043398497E+01  0.41067379821E+01 -0.11911581444E+02  0.15722362342E+02  0.51100000000E-03 0. -1.
        -11    1    3    3    0    0 -0.35516739815E+01  0.22522620639E+01  0.26542754847E+02  0.26873870350E+02  0.51100000000E-03 0.  1.
        -12    1    3    3    0    0  0.51780126684E+01 -0.45111097111E+01  0.15228942447E+02  0.16705765893E+02  0.00000000000E+00 0.  1.
</event>
<event>
 7    1  0.7579108E-012  0.5930195E+02  0.7816164E-02  0.1266605E+00
        -11   -1    0    0    0    0  0.00000000000E+00  0.00000000000E+00  0.45593999997E+02  0.45594000000E+02  0.51100000000E-03 0. -1.
         11   -1    0    0    0    0 -0.00000000000E+00 -0.00000000000E+00 -0.45593999997E+02  0.45594000000E+02  0.51100000000E-03 0.  1.
    9900012    2    1    2    0    0 -0.24522771324E+02  0.11688142901E+02 -0.16695536531E+02  0.59301953868E+02  0.50000017946E+02 0.  0.
         12    1    1    2    0    0  0.24522771324E+02 -0.11688142901E+02  0.16695536531E+02  0.31886046132E+02  0.00000000000E+00 0. -1.
         11    1    3    3    0    0  0.12829893752E+01 -0.51782462537E+01 -0.16802163589E+02  0.17628754849E+02  0.51100000000E-03 0. -1.
        -11    1    3    3    0    0 -0.26633651300E+02  0.72563921299E+01 -0.83560095690E+01  0.28841454619E+02  0.51100000000E-03 0.  1.
         12    1    3    3    0    0  0.82789060089E+00  0.96099970248E+01  0.84626366272E+01  0.12831744400E+02  0.00000000000E+00 0. -1.
</event>
<event>
 7    1  0.7579108E-012  0.5930206E+02  0.7816164E-02  0.1266604E+00
        -11   -1    0    0    0    0  0.00000000000E+00  0.00000000000E+00  0.45593999997E+02  0.45594000000E+02  0.51100000000E-03 0.  1.
         11   -1    0    0    0    0 -0.00000000000E+00 -0.00000000000E+00 -0.45593999997E+02  0.45594000000E+02  0.51100000000E-03 0. -1.
    9900012    2    1    2    0    0 -0.57072643997E+01 -0.30872535077E+02 -0.55701841729E+01  0.59302058886E+02  0.50000209474E+02 0.  0.
         12    1    1    2    0    0  0.57072643997E+01  0.30872535077E+02  0.55701841729E+01  0.31885941114E+02  0.00000000000E+00 0. -1.
         11    1    3    3    0    0  0.39644383360E+01 -0.39945013506E+02 -0.98904663271E+01  0.41341773060E+02  0.51100000000E-03 0. -1.
        -11    1    3    3    0    0 -0.65652785671E+01  0.94697412220E+01 -0.12289709220E+01  0.11588323919E+02  0.51100000000E-03 0.  1.
         12    1    3    3    0    0 -0.31064241687E+01 -0.39726279285E+00  0.55492530763E+01  0.63719619072E+01  0.00000000000E+00 0. -1.
</event>
<event>
 7    1  0.7579108E-012  0.5930179E+02  0.7816164E-02  0.1266605E+00
        -11   -1    0    0    0    0  0.00000000000E+00  0.00000000000E+00  0.45593999997E+02  0.45594000000E+02  0.51100000000E-03 0.  1.
         11   -1    0    0    0    0 -0.00000000000E+00 -0.00000000000E+00 -0.45593999997E+02  0.45594000000E+02  0.51100000000E-03 0. -1.
    9900012    2    1    2    0    0 -0.18138969627E+02  0.78399389257E+01  0.25024857888E+02  0.59301790225E+02  0.49999719501E+02 0.  0.
         12    1    1    2    0    0  0.18138969627E+02 -0.78399389257E+01 -0.25024857888E+02  0.31886209775E+02  0.00000000000E+00 0. -1.
         11    1    3    3    0    0  0.83254984607E+01 -0.86221785960E+01 -0.13234291535E+01  0.12058497143E+02  0.51100000000E-03 0. -1.
        -11    1    3    3    0    0 -0.29202454740E+02  0.14311555498E+02  0.15840126720E+02  0.36173382457E+02  0.51100000000E-03 0.  1.
         12    1    3    3    0    0  0.27379866520E+01  0.21505620232E+01  0.10508160321E+02  0.11069910626E+02  0.00000000000E+00 0. -1.
</event>
<event>
 7    1  0.7579108E-012  0.5930193E+02  0.7816164E-02  0.1266605E+00
        -11   -1    0    0    0    0  0.00000000000E+00  0.00000000000E+00  0.45593999997E+02  0.45594000000E+02  0.51100000000E-03 0.  1.
         11   -1    0    0    0    0 -0.00000000000E+00 -0.00000000000E+00 -0.45593999997E+02  0.45594000000E+02  0.51100000000E-03 0. -1.
    9900012    2    1    2    0    0  0.23653389727E+02 -0.18190166390E+02  0.11240835788E+02  0.59301931128E+02  0.49999976475E+02 0.  0.
         12    1    1    2    0    0 -0.23653389727E+02  0.18190166390E+02 -0.11240835788E+02  0.31886068872E+02  0.00000000000E+00 0. -1.
         11    1    3    3    0    0  0.20028429329E+02  0.10698800572E+02  0.17802821787E+02  0.28853817406E+02  0.51100000000E-03 0. -1.
        -11    1    3    3    0    0  0.27987662623E+01 -0.18931936451E+02 -0.71739938999E+01  0.20438138348E+02  0.51100000000E-03 0.  1.
         12    1    3    3    0    0  0.82619413629E+00 -0.99570305103E+01  0.61200790101E+00  0.10009975375E+02  0.00000000000E+00 0. -1.
</event>
<event>
 7    1  0.7579108E-012  0.5930193E+02  0.7816164E-02  0.1266605E+00
        -11   -1    0    0    0    0  0.00000000000E+00  0.00000000000E+00  0.45593999997E+02  0.45594000000E+02  0.51100000000E-03 0. -1.
         11   -1    0    0    0    0 -0.00000000000E+00 -0.00000000000E+00 -0.45593999997E+02  0.45594000000E+02  0.51100000000E-03 0.  1.
    9900012    2    1    2    0    0  0.23065172952E+02 -0.20894998338E+02 -0.69367390599E+01  0.59301929254E+02  0.49999973056E+02 0.  0.
         12    1    1    2    0    0 -0.23065172952E+02  0.20894998338E+02  0.69367390599E+01  0.31886070746E+02  0.00000000000E+00 0. -1.
         11    1    3    3    0    0  0.24995674862E+02 -0.12575847196E+02  0.76293330344E+01  0.29002455367E+02  0.51100000000E-03 0. -1.
        -11    1    3    3    0    0 -0.11371816607E+02 -0.60252775617E+01 -0.95625380767E-01  0.12869783491E+02  0.51100000000E-03 0.  1.
         12    1    3    3    0    0  0.94413146966E+01 -0.22938735808E+01 -0.14470446713E+02  0.17429690396E+02  0.00000000000E+00 0. -1.
</event>
<event>
 7    1  0.7579108E-012  0.5930193E+02  0.7816164E-02  0.1266605E+00
        -11   -1    0    0    0    0  0.00000000000E+00  0.00000000000E+00  0.45593999997E+02  0.45594000000E+02  0.51100000000E-03 0.  1.
         11   -1    0    0    0    0 -0.00000000000E+00 -0.00000000000E+00 -0.45593999997E+02  0.45594000000E+02  0.51100000000E-03 0. -1.
    9900012    2    1    2    0    0  0.76759960726E+00  0.14854785926E+02  0.28204033496E+02  0.59301931263E+02  0.49999976721E+02 0.  0.
         12    1    1    2    0    0 -0.76759960726E+00 -0.14854785926E+02 -0.28204033496E+02  0.31886068737E+02  0.00000000000E+00 0. -1.
         11    1    3    3    0    0 -0.46240439507E+01 -0.52368930938E+00  0.27719485766E+02  0.28107399815E+02  0.51100000000E-03 0. -1.
        -11    1    3    3    0    0  0.15561922570E+02  0.13272802766E+02 -0.18901670571E+01  0.20540532104E+02  0.51100000000E-03 0.  1.
         12    1    3    3    0    0 -0.10170279012E+02  0.21056724689E+01  0.23747147871E+01  0.10653999345E+02  0.00000000000E+00 0. -1.
</event>
<event>
 7    1  0.7579108E-012  0.5930195E+02  0.7816164E-02  0.1266605E+00
        -11   -1    0    0    0    0  0.00000000000E+00  0.00000000000E+00  0.45593999997E+02  0.45594000000E+02  0.51100000000E-03 0.  1.
         11   -1    0    0    0    0 -0.00000000000E+00 -0.00000000000E+00 -0.45593999997E+02  0.45594000000E+02  0.51100000000E-03 0. -1.
    9900012    2    1    2    0    0  0.29363246811E+02 -0.23793119939E+01  0.12200764535E+02  0.59301952203E+02  0.50000014910E+02 0.  0.
         12    1    1    2    0    0 -0.29363246811E+02  0.23793119939E+01 -0.12200764535E+02  0.31886047797E+02  0.00000000000E+00 0. -1.
         11    1    3    3    0    0 -0.67050350545E+01 -0.13846884457E+02  0.47753601570E+01  0.16108934451E+02  0.51100000000E-03 0. -1.
        -11    1    3    3    0    0  0.12157930669E+02  0.41242106644E+00  0.11256017760E+02  0.16573572498E+02  0.51100000000E-03 0.  1.
         12    1    3    3    0    0  0.23910351197E+02  0.11055151397E+02 -0.38306133818E+01  0.26619445254E+02  0.00000000000E+00 0. -1.
</event>
<event>
 7    1  0.7579108E-012  0.5930193E+02  0.7816164E-02  0.1266605E+00
        -11   -1    0    0    0    0  0.00000000000E+00  0.00000000000E+00  0.45593999997E+02  0.45594000000E+02  0.51100000000E-03 0.  1.
         11   -1    0    0    0    0 -0.00000000000E+00 -0.00000000000E+00 -0.45593999997E+02  0.45594000000E+02  0.51100000000E-03 0. -1.
    9900012    2    1    2    0    0 -0.36233069624E+01  0.21469368764E+02  0.23295047151E+02  0.59301931408E+02  0.49999976985E+02 0.  0.
         12    1    1    2    0    0  0.36233069624E+01 -0.21469368764E+02 -0.23295047151E+02  0.31886068592E+02  0.00000000000E+00 0. -1.
         11    1    3    3    0    0 -0.14674704793E+01 -0.11331878770E+02  0.22014118149E-01  0.11426523135E+02  0.51100000000E-03 0. -1.
        -11    1    3    3    0    0 -0.75520786671E+01  0.30682751556E+02  0.26500766684E+02  0.41240220300E+02  0.51100000000E-03 0.  1.
         12    1    3    3    0    0  0.53962421839E+01  0.21184959782E+01 -0.32277336520E+01  0.66351879736E+01  0.00000000000E+00 0. -1.
</event>
<event>
 7    1  0.7579108E-012  0.5930194E+02  0.7816164E-02  0.1266605E+00
        -11   -1    0    0    0    0  0.00000000000E+00  0.00000000000E+00  0.45593999997E+02  0.45594000000E+02  0.51100000000E-03 0. -1.
         11   -1    0    0    0    0 -0.00000000000E+00 -0.00000000000E+00 -0.45593999997E+02  0.45594000000E+02  0.51100000000E-03 0.  1.
    9900012    2    1    2    0    0 -0.57975148192E+01  0.27753879821E+02  0.14588753137E+02  0.59301941271E+02  0.49999994972E+02 0.  0.
         12    1    1    2    0    0  0.57975148192E+01 -0.27753879821E+02 -0.14588753137E+02  0.31886058729E+02  0.00000000000E+00 0. -1.
         11    1    3    3    0    0 -0.40238959552E+01  0.19131177670E+00  0.52072313384E+01  0.65835854461E+01  0.51100000000E-03 0. -1.
        -11    1    3    3    0    0  0.72460787728E+00  0.25436183551E+02 -0.14043661157E+02  0.29064564493E+02  0.51100000000E-03 0.  1.
        -12    1    3    3    0    0 -0.24982267412E+01  0.21263844931E+01  0.23425182956E+02  0.23653791332E+02  0.00000000000E+00 0.  1.
</event>
<event>
 7    1  0.7579108E-012  0.5930194E+02  0.7816164E-02  0.1266605E+00
        -11   -1    0    0    0    0  0.00000000000E+00  0.00000000000E+00  0.45593999997E+02  0.45594000000E+02  0.51100000000E-03 0.  1.
         11   -1    0    0    0    0 -0.00000000000E+00 -0.00000000000E+00 -0.45593999997E+02  0.45594000000E+02  0.51100000000E-03 0. -1.
    9900012    2    1    2    0    0  0.89476846614E+01  0.22472032211E+02  0.20776609902E+02  0.59301940170E+02  0.49999992964E+02 0.  0.
         12    1    1    2    0    0 -0.89476846614E+01 -0.22472032211E+02 -0.20776609902E+02  0.31886059830E+02  0.00000000000E+00 0. -1.
         11    1    3    3    0    0 -0.83217747489E+00 -0.11638415175E+02 -0.14277958342E+01  0.11755161774E+02  0.51100000000E-03 0. -1.
        -11    1    3    3    0    0  0.86411147927E+00  0.31192200803E+02  0.21970177764E+02  0.38162662261E+02  0.51100000000E-03 0.  1.
        -12    1    3    3    0    0  0.89157506571E+01  0.29182465825E+01  0.23422797247E+00  0.93841161352E+01  0.00000000000E+00 0.  1.
</event>
<event>
 7    1  0.7579108E-012  0.5930186E+02  0.7816164E-02  0.1266605E+00
        -11   -1    0    0    0    0  0.00000000000E+00  0.00000000000E+00  0.45593999997E+02  0.45594000000E+02  0.51100000000E-03 0. -1.
         11   -1    0    0    0    0 -0.00000000000E+00 -0.00000000000E+00 -0.45593999997E+02  0.45594000000E+02  0.51100000000E-03 0.  1.
    9900012    2    1    2    0    0 -0.19142133672E+02  0.17909627161E+01 -0.25438102871E+02  0.59301860274E+02  0.49999847253E+02 0.  0.
         12    1    1    2    0    0  0.19142133672E+02 -0.17909627161E+01  0.25438102871E+02  0.31886139726E+02  0.00000000000E+00 0. -1.
         11    1    3    3    0    0  0.57243130860E+00  0.42213733314E+01  0.14144151265E+01  0.44886791841E+01  0.51100000000E-03 0. -1.
        -11    1    3    3    0    0 -0.14725827936E+02 -0.19139550665E+02 -0.17021594952E+01  0.24208877613E+02  0.51100000000E-03 0.  1.
        -12    1    3    3    0    0 -0.49887370445E+01  0.16709140050E+02 -0.25150358502E+02  0.30604303477E+02  0.00000000000E+00 0.  1.
</event>
<event>
 7    1  0.7579108E-012  0.5930221E+02  0.7816164E-02  0.1266604E+00
        -11   -1    0    0    0    0  0.00000000000E+00  0.00000000000E+00  0.45593999997E+02  0.45594000000E+02  0.51100000000E-03 0.  1.
         11   -1    0    0    0    0 -0.00000000000E+00 -0.00000000000E+00 -0.45593999997E+02  0.45594000000E+02  0.51100000000E-03 0. -1.
    9900012    2    1    2    0    0  0.84155640005E+01 -0.28186268366E+02  0.12305127714E+02  0.59302209906E+02  0.50000484896E+02 0.  0.
         12    1    1    2    0    0 -0.84155640005E+01  0.28186268366E+02 -0.12305127714E+02  0.31885790094E+02  0.00000000000E+00 0. -1.
         11    1    3    3    0    0  0.14893034423E+02 -0.34407927626E+02 -0.34573849193E+01  0.37651845487E+02  0.51100000000E-03 0. -1.
        -11    1    3    3    0    0  0.21936439372E+01  0.30377676398E+01  0.10202796465E+02  0.10869092047E+02  0.51100000000E-03 0.  1.
         12    1    3    3    0    0 -0.86711143595E+01  0.31838916204E+01  0.55597161683E+01  0.10781272372E+02  0.00000000000E+00 0. -1.
</event>
<event>
 7    1  0.7579108E-012  0.5930194E+02  0.7816164E-02  0.1266605E+00
        -11   -1    0    0    0    0  0.00000000000E+00  0.00000000000E+00  0.45593999997E+02  0.45594000000E+02  0.51100000000E-03 0.  1.
         11   -1    0    0    0    0 -0.00000000000E+00 -0.00000000000E+00 -0.45593999997E+02  0.45594000000E+02  0.51100000000E-03 0. -1.
    9900012    2    1    2    0    0 -0.24144734227E+02  0.18274231930E+02  0.99902503641E+01  0.59301939631E+02  0.49999991982E+02 0.  0.
         12    1    1    2    0    0  0.24144734227E+02 -0.18274231930E+02 -0.99902503641E+01  0.31886060369E+02  0.00000000000E+00 0. -1.
         11    1    3    3    0    0  0.11509685631E+02  0.13856762531E+02 -0.37577522887E+01  0.18401180225E+02  0.51100000000E-03 0. -1.
        -11    1    3    3    0    0 -0.10400267979E+02  0.78496173663E+01  0.49508789065E+01  0.13938912047E+02  0.51100000000E-03 0.  1.
         12    1    3    3    0    0 -0.25254151879E+02 -0.34321479670E+01  0.87971237463E+01  0.26961847359E+02  0.00000000000E+00 0. -1.
</event>
<event>
 7    1  0.7579108E-012  0.5930194E+02  0.7816164E-02  0.1266605E+00
        -11   -1    0    0    0    0  0.00000000000E+00  0.00000000000E+00  0.45593999997E+02  0.45594000000E+02  0.51100000000E-03 0.  1.
         11   -1    0    0    0    0 -0.00000000000E+00 -0.00000000000E+00 -0.45593999997E+02  0.45594000000E+02  0.51100000000E-03 0. -1.
    9900012    2    1    2    0    0 -0.53511395387E+01 -0.11358462511E+02  0.29309920031E+02  0.59301940708E+02  0.49999993946E+02 0.  0.
         12    1    1    2    0    0  0.53511395387E+01  0.11358462511E+02 -0.29309920031E+02  0.31886059292E+02  0.00000000000E+00 0. -1.
         11    1    3    3    0    0  0.18824031811E+02 -0.12252207740E+02  0.16676964037E+01  0.22522033205E+02  0.51100000000E-03 0. -1.
        -11    1    3    3    0    0 -0.16393364202E+02  0.13890683973E+01  0.19307392401E+02  0.25366263076E+02  0.51100000000E-03 0.  1.
         12    1    3    3    0    0 -0.77818071480E+01 -0.49532316788E+00  0.83348312261E+01  0.11413644427E+02  0.00000000000E+00 0. -1.
</event>
<event>
 7    1  0.7579108E-012  0.5930195E+02  0.7816164E-02  0.1266605E+00
        -11   -1    0    0    0    0  0.00000000000E+00  0.00000000000E+00  0.45593999997E+02  0.45594000000E+02  0.51100000000E-03 0.  1.
         11   -1    0    0    0    0 -0.00000000000E+00 -0.00000000000E+00 -0.45593999997E+02  0.45594000000E+02  0.51100000000E-03 0. -1.
    9900012    2    1    2    0    0  0.84168242797E+01 -0.30433777917E+02  0.44342611430E+01  0.59301945977E+02  0.50000003556E+02 0.  0.
         12    1    1    2    0    0 -0.84168242797E+01  0.30433777917E+02 -0.44342611430E+01  0.31886054023E+02  0.00000000000E+00 0. -1.
         11    1    3    3    0    0  0.18480578265E+02 -0.59572221655E-01 -0.36174395205E+01  0.18831388446E+02  0.51100000000E-03 0. -1.
        -11    1    3    3    0    0 -0.13651058713E+02 -0.26317242416E+02  0.13687815117E+02  0.32654324910E+02  0.51100000000E-03 0.  1.
         12    1    3    3    0    0  0.35873047272E+01 -0.40569632787E+01 -0.56361144539E+01  0.78162326211E+01  0.00000000000E+00 0. -1.
</event>
<event>
 7    1  0.7579108E-012  0.5930194E+02  0.7816164E-02  0.1266605E+00
        -11   -1    0    0    0    0  0.00000000000E+00  0.00000000000E+00  0.45593999997E+02  0.45594000000E+02  0.51100000000E-03 0.  1.
         11   -1    0    0    0    0 -0.00000000000E+00 -0.00000000000E+00 -0.45593999997E+02  0.45594000000E+02  0.51100000000E-03 0. -1.
    9900012    2    1    2    0    0 -0.15814945766E+02  0.13702704669E+02  0.24059181887E+02  0.59301939442E+02  0.49999991636E+02 0.  0.
         12    1    1    2    0    0  0.15814945766E+02 -0.13702704669E+02 -0.24059181887E+02  0.31886060558E+02  0.00000000000E+00 0. -1.
         11    1    3    3    0    0 -0.17603317776E+01  0.30642986046E+02  0.15777619694E+02  0.34511224917E+02  0.51100000000E-03 0. -1.
        -11    1    3    3    0    0 -0.33323544019E+00 -0.52221451490E+01  0.97207685398E+00  0.53222908120E+01  0.51100000000E-03 0.  1.
         12    1    3    3    0    0 -0.13721378548E+02 -0.11718136228E+02  0.73094853396E+01  0.19468423713E+02  0.00000000000E+00 0. -1.
</event>
<event>
 7    1  0.7579108E-012  0.5930194E+02  0.7816164E-02  0.1266605E+00
        -11   -1    0    0    0    0  0.00000000000E+00  0.00000000000E+00  0.45593999997E+02  0.45594000000E+02  0.51100000000E-03 0.  1.
         11   -1    0    0    0    0 -0.00000000000E+00 -0.00000000000E+00 -0.45593999997E+02  0.45594000000E+02  0.51100000000E-03 0. -1.
    9900012    2    1    2    0    0 -0.92877714175E+01 -0.19837783307E+02  0.23171544168E+02  0.59301940294E+02  0.49999993190E+02 0.  0.
         12    1    1    2    0    0  0.92877714175E+01  0.19837783307E+02 -0.23171544168E+02  0.31886059706E+02  0.00000000000E+00 0. -1.
         11    1    3    3    0    0  0.10220108870E+02  0.27821300554E+00  0.20864871743E+02  0.23235122141E+02  0.51100000000E-03 0. -1.
        -11    1    3    3    0    0 -0.11768364064E+02 -0.17756954965E+02 -0.81820901515E+01  0.22819957096E+02  0.51100000000E-03 0.  1.
         12    1    3    3    0    0 -0.77395162235E+01 -0.23590413481E+01  0.10488762577E+02  0.13246861057E+02  0.00000000000E+00 0. -1.
</event>
<event>
 7    1  0.7579108E-012  0.5930190E+02  0.7816164E-02  0.1266605E+00
        -11   -1    0    0    0    0  0.00000000000E+00  0.00000000000E+00  0.45593999997E+02  0.45594000000E+02  0.51100000000E-03 0. -1.
         11   -1    0    0    0    0 -0.00000000000E+00 -0.00000000000E+00 -0.45593999997E+02  0.45594000000E+02  0.51100000000E-03 0.  1.
    9900012    2    1    2    0    0 -0.19391045846E+02  0.21531172803E+02 -0.13308612726E+02  0.59301902184E+02  0.49999923687E+02 0.  0.
         12    1    1    2    0    0  0.19391045846E+02 -0.21531172803E+02  0.13308612726E+02  0.31886097816E+02  0.00000000000E+00 0. -1.
         11    1    3    3    0    0 -0.30084992122E+02  0.21210415776E+02 -0.83715717948E+01  0.37750121893E+02  0.51100000000E-03 0. -1.
        -11    1    3    3    0    0  0.72272439656E+01  0.49977264431E+01 -0.10367661948E+02  0.13590391439E+02  0.51100000000E-03 0.  1.
         12    1    3    3    0    0  0.34667023108E+01 -0.46769694163E+01  0.54306210161E+01  0.79613888520E+01  0.00000000000E+00 0. -1.
</event>
<event>
 7    1  0.7579108E-012  0.5930196E+02  0.7816164E-02  0.1266605E+00
        -11   -1    0    0    0    0  0.00000000000E+00  0.00000000000E+00  0.45593999997E+02  0.45594000000E+02  0.51100000000E-03 0. -1.
         11   -1    0    0    0    0 -0.00000000000E+00 -0.00000000000E+00 -0.45593999997E+02  0.45594000000E+02  0.51100000000E-03 0.  1.
    9900012    2    1    2    0    0 -0.27793019524E+02 -0.91225630435E-01 -0.15628796704E+02  0.59301960064E+02  0.50000029247E+02 0.  0.
         12    1    1    2    0    0  0.27793019524E+02  0.91225630435E-01  0.15628796704E+02  0.31886039936E+02  0.00000000000E+00 0. -1.
         11    1    3    3    0    0  0.72580245930E+01 -0.80157263488E+01 -0.11888076881E+02  0.16070381516E+02  0.51100000000E-03 0. -1.
        -11    1    3    3    0    0 -0.38041184113E+02  0.57139673835E+01 -0.77583392915E+00  0.38475746004E+02  0.51100000000E-03 0.  1.
        -12    1    3    3    0    0  0.29901399964E+01  0.22105333349E+01 -0.29648858947E+01  0.47558325444E+01  0.00000000000E+00 0.  1.
</event>
<event>
 7    1  0.7579108E-012  0.5930195E+02  0.7816164E-02  0.1266605E+00
        -11   -1    0    0    0    0  0.00000000000E+00  0.00000000000E+00  0.45593999997E+02  0.45594000000E+02  0.51100000000E-03 0.  1.
         11   -1    0    0    0    0 -0.00000000000E+00 -0.00000000000E+00 -0.45593999997E+02  0.45594000000E+02  0.51100000000E-03 0. -1.
    9900012    2    1    2    0    0  0.46587747009E+01  0.31508286316E+02  0.14980057453E+01  0.59301948042E+02  0.50000007321E+02 0.  0.
         12    1    1    2    0    0 -0.46587747009E+01 -0.31508286316E+02 -0.14980057453E+01  0.31886051958E+02  0.00000000000E+00 0. -1.
         11    1    3    3    0    0 -0.38539589170E+01 -0.69992929516E+01  0.10603134442E+02  0.13276654752E+02  0.51100000000E-03 0. -1.
        -11    1    3    3    0    0  0.95595357382E+01  0.22581212219E+02 -0.15301640859E+02  0.28903911189E+02  0.51100000000E-03 0.  1.
         12    1    3    3    0    0 -0.10468021203E+01  0.15926367049E+02  0.61965121625E+01  0.17121382101E+02  0.00000000000E+00 0. -1.
</event>
<event>
 7    1  0.7579108E-012  0.5930194E+02  0.7816164E-02  0.1266605E+00
        -11   -1    0    0    0    0  0.00000000000E+00  0.00000000000E+00  0.45593999997E+02  0.45594000000E+02  0.51100000000E-03 0.  1.
         11   -1    0    0    0    0 -0.00000000000E+00 -0.00000000000E+00 -0.45593999997E+02  0.45594000000E+02  0.51100000000E-03 0. -1.
    9900012    2    1    2    0    0 -0.28101007127E+02  0.14578607286E+02  0.38103184488E+01  0.59301938490E+02  0.49999989900E+02 0.  0.
         12    1    1    2    0    0  0.28101007127E+02 -0.14578607286E+02 -0.38103184488E+01  0.31886061510E+02  0.00000000000E+00 0. -1.
         11    1    3    3    0    0 -0.15605698661E+02  0.11953843037E+00 -0.12303859512E+02  0.19873023910E+02  0.51100000000E-03 0. -1.
        -11    1    3    3    0    0 -0.16375654697E+02  0.11860692436E+02  0.23305543980E+02  0.30854278022E+02  0.51100000000E-03 0.  1.
        -12    1    3    3    0    0  0.38803462316E+01  0.25983764202E+01 -0.71913660184E+01  0.85746365584E+01  0.00000000000E+00 0.  1.
</event>
<event>
 7    1  0.7579108E-012  0.5930194E+02  0.7816164E-02  0.1266605E+00
        -11   -1    0    0    0    0  0.00000000000E+00  0.00000000000E+00  0.45593999997E+02  0.45594000000E+02  0.51100000000E-03 0.  1.
         11   -1    0    0    0    0 -0.00000000000E+00 -0.00000000000E+00 -0.45593999997E+02  0.45594000000E+02  0.51100000000E-03 0. -1.
    9900012    2    1    2    0    0 -0.34717542310E+00  0.28984140545E+02  0.13286071453E+02  0.59301943039E+02  0.49999998196E+02 0.  0.
         12    1    1    2    0    0  0.34717542310E+00 -0.28984140545E+02 -0.13286071453E+02  0.31886056961E+02  0.00000000000E+00 0. -1.
         11    1    3    3    0    0  0.18339697038E+02  0.26240628150E+02  0.39090951089E+01  0.32252070910E+02  0.51100000000E-03 0. -1.
        -11    1    3    3    0    0 -0.73497812255E+01  0.35293500851E+01  0.12804500205E+02  0.15179948018E+02  0.51100000000E-03 0.  1.
         12    1    3    3    0    0 -0.11337091236E+02 -0.78583769068E+00 -0.34275238610E+01  0.11869924110E+02  0.00000000000E+00 0. -1.
</event>
<event>
 7    1  0.7579108E-012  0.5930193E+02  0.7816164E-02  0.1266605E+00
        -11   -1    0    0    0    0  0.00000000000E+00  0.00000000000E+00  0.45593999997E+02  0.45594000000E+02  0.51100000000E-03 0.  1.
         11   -1    0    0    0    0 -0.00000000000E+00 -0.00000000000E+00 -0.45593999997E+02  0.45594000000E+02  0.51100000000E-03 0. -1.
    9900012    2    1    2    0    0 -0.41266532645E+01  0.63278053684E+01  0.30978234532E+02  0.59301930900E+02  0.49999976058E+02 0.  0.
         12    1    1    2    0    0  0.41266532645E+01 -0.63278053684E+01 -0.30978234532E+02  0.31886069100E+02  0.00000000000E+00 0. -1.
         11    1    3    3    0    0 -0.73872813391E+01 -0.81547622002E+01 -0.28874182860E+01  0.11375818948E+02  0.51100000000E-03 0. -1.
        -11    1    3    3    0    0 -0.60857194098E+01  0.28460864439E+01  0.32217084578E+02  0.32910131081E+02  0.51100000000E-03 0.  1.
        -12    1    3    3    0    0  0.93463474844E+01  0.11636481125E+02  0.16485682395E+01  0.15015980871E+02  0.00000000000E+00 0.  1.
</event>
<event>
 7    1  0.7579108E-012  0.5930194E+02  0.7816164E-02  0.1266605E+00
        -11   -1    0    0    0    0  0.00000000000E+00  0.00000000000E+00  0.45593999997E+02  0.45594000000E+02  0.51100000000E-03 0. -1.
         11   -1    0    0    0    0 -0.00000000000E+00 -0.00000000000E+00 -0.45593999997E+02  0.45594000000E+02  0.51100000000E-03 0.  1.
    9900012    2    1    2    0    0 -0.13888878751E+02  0.64066702269E+01 -0.27978101876E+02  0.59301944099E+02  0.50000000129E+02 0.  0.
         12    1    1    2    0    0  0.13888878751E+02 -0.64066702269E+01  0.27978101876E+02  0.31886055901E+02  0.00000000000E+00 0. -1.
         11    1    3    3    0    0 -0.27207505895E+02  0.10888313931E+02 -0.15428464526E+01  0.29345938948E+02  0.51100000000E-03 0. -1.
        -11    1    3    3    0    0  0.84989777474E+01 -0.33617951616E+01 -0.17426635895E+02  0.19677955390E+02  0.51100000000E-03 0.  1.
         12    1    3    3    0    0  0.48196493972E+01 -0.11198485424E+01 -0.90086195283E+01  0.10278049760E+02  0.00000000000E+00 0. -1.
</event>
<event>
 7    1  0.7579108E-012  0.5930221E+02  0.7816164E-02  0.1266604E+00
        -11   -1    0    0    0    0  0.00000000000E+00  0.00000000000E+00  0.45593999997E+02  0.45594000000E+02  0.51100000000E-03 0. -1.
         11   -1    0    0    0    0 -0.00000000000E+00 -0.00000000000E+00 -0.45593999997E+02  0.45594000000E+02  0.51100000000E-03 0.  1.
    9900012    2    1    2    0    0 -0.50233653519E+01 -0.14147671973E+02 -0.28130278539E+02  0.59302213317E+02  0.50000491117E+02 0.  0.
         12    1    1    2    0    0  0.50233653519E+01  0.14147671973E+02  0.28130278539E+02  0.31885786683E+02  0.00000000000E+00 0. -1.
         11    1    3    3    0    0  0.10097189704E+02  0.93365335880E+01  0.68484306252E+00  0.13769281377E+02  0.51100000000E-03 0. -1.
        -11    1    3    3    0    0 -0.12956651962E+02 -0.26350801563E+02 -0.18733846546E+02  0.34830971559E+02  0.51100000000E-03 0.  1.
        -12    1    3    3    0    0 -0.21639030947E+01  0.28665960024E+01 -0.10081275056E+02  0.10701960381E+02  0.00000000000E+00 0.  1.
</event>
<event>
 7    1  0.7579108E-012  0.5930194E+02  0.7816164E-02  0.1266605E+00
        -11   -1    0    0    0    0  0.00000000000E+00  0.00000000000E+00  0.45593999997E+02  0.45594000000E+02  0.51100000000E-03 0.  1.
         11   -1    0    0    0    0 -0.00000000000E+00 -0.00000000000E+00 -0.45593999997E+02  0.45594000000E+02  0.51100000000E-03 0. -1.
    9900012    2    1    2    0    0 -0.33928643814E+01 -0.99088857553E+01  0.30116821911E+02  0.59301944934E+02  0.50000001653E+02 0.  0.
         12    1    1    2    0    0  0.33928643814E+01  0.99088857553E+01 -0.30116821911E+02  0.31886055066E+02  0.00000000000E+00 0. -1.
         11    1    3    3    0    0  0.10819731825E+02  0.44445325981E+01 -0.33182426034E+00  0.11701733819E+02  0.51100000000E-03 0. -1.
        -11    1    3    3    0    0 -0.77756460748E+01 -0.79745541725E+01  0.35513168680E+02  0.37218803528E+02  0.51100000000E-03 0.  1.
        -12    1    3    3    0    0 -0.64369501315E+01 -0.63788641809E+01 -0.50645225082E+01  0.10381407586E+02  0.00000000000E+00 0.  1.
</event>
<event>
 7    1  0.7579108E-012  0.5930194E+02  0.7816164E-02  0.1266605E+00
        -11   -1    0    0    0    0  0.00000000000E+00  0.00000000000E+00  0.45593999997E+02  0.45594000000E+02  0.51100000000E-03 0.  1.
         11   -1    0    0    0    0 -0.00000000000E+00 -0.00000000000E+00 -0.45593999997E+02  0.45594000000E+02  0.51100000000E-03 0. -1.
    9900012    2    1    2    0    0 -0.15854481221E+02 -0.26783595670E+02  0.69278774145E+01  0.59301936316E+02  0.49999985936E+02 0.  0.
         12    1    1    2    0    0  0.15854481221E+02  0.26783595670E+02 -0.69278774145E+01  0.31886063684E+02  0.00000000000E+00 0. -1.
         11    1    3    3    0    0  0.77814389847E+01  0.36230861383E+01  0.75750240546E+01  0.11448079993E+02  0.51100000000E-03 0. -1.
        -11    1    3    3    0    0 -0.23361013086E+02 -0.17567001941E+02  0.10287651584E+02  0.30986646559E+02  0.51100000000E-03 0.  1.
         12    1    3    3    0    0 -0.27490711914E+00 -0.12839679867E+02 -0.10934798224E+02  0.16867209764E+02  0.00000000000E+00 0. -1.
</event>
<event>
 7    1  0.7579108E-012  0.5930157E+02  0.7816164E-02  0.1266606E+00
        -11   -1    0    0    0    0  0.00000000000E+00  0.00000000000E+00  0.45593999997E+02  0.45594000000E+02  0.51100000000E-03 0. -1.
         11   -1    0    0    0    0 -0.00000000000E+00 -0.00000000000E+00 -0.45593999997E+02  0.45594000000E+02  0.51100000000E-03 0.  1.
    9900012    2    1    2    0    0  0.20299937744E+02 -0.24548538685E+02  0.14234879031E+01  0.59301568061E+02  0.49999314322E+02 0.  0.
         12    1    1    2    0    0 -0.20299937744E+02  0.24548538685E+02 -0.14234879031E+01  0.31886431939E+02  0.00000000000E+00 0. -1.
         11    1    3    3    0    0  0.21061983853E+01  0.83519397604E+01  0.17021080382E+01  0.87799852753E+01  0.51100000000E-03 0. -1.
        -11    1    3    3    0    0  0.79878814248E+01 -0.19762448154E+02 -0.16750864908E+02  0.27109999670E+02  0.51100000000E-03 0.  1.
        -12    1    3    3    0    0  0.10205857934E+02 -0.13138030292E+02  0.16472244773E+02  0.23411583116E+02  0.00000000000E+00 0.  1.
</event>
<event>
 7    1  0.7579108E-012  0.5930195E+02  0.7816164E-02  0.1266605E+00
        -11   -1    0    0    0    0  0.00000000000E+00  0.00000000000E+00  0.45593999997E+02  0.45594000000E+02  0.51100000000E-03 0.  1.
         11   -1    0    0    0    0 -0.00000000000E+00 -0.00000000000E+00 -0.45593999997E+02  0.45594000000E+02  0.51100000000E-03 0. -1.
    9900012    2    1    2    0    0 -0.25008534316E+02 -0.13354358378E+02 -0.14592969920E+02  0.59301945879E+02  0.50000003377E+02 0.  0.
         12    1    1    2    0    0  0.25008534316E+02  0.13354358378E+02  0.14592969920E+02  0.31886054121E+02  0.00000000000E+00 0. -1.
         11    1    3    3    0    0 -0.17230969890E+02 -0.25052361426E+02 -0.13432346909E+02  0.33240864612E+02  0.51100000000E-03 0. -1.
        -11    1    3    3    0    0 -0.10573693525E+02  0.57921641156E+01  0.82468352952E+01  0.14606931661E+02  0.51100000000E-03 0.  1.
         12    1    3    3    0    0  0.27961290987E+01  0.59058389328E+01 -0.94074583061E+01  0.11454149607E+02  0.00000000000E+00 0. -1.
</event>
<event>
 7    1  0.7579108E-012  0.5930192E+02  0.7816164E-02  0.1266605E+00
        -11   -1    0    0    0    0  0.00000000000E+00  0.00000000000E+00  0.45593999997E+02  0.45594000000E+02  0.51100000000E-03 0.  1.
         11   -1    0    0    0    0 -0.00000000000E+00 -0.00000000000E+00 -0.45593999997E+02  0.45594000000E+02  0.51100000000E-03 0. -1.
    9900012    2    1    2    0    0 -0.25139966263E+02  0.18728882672E+02  0.58252068030E+01  0.59301921782E+02  0.49999959428E+02 0.  0.
         12    1    1    2    0    0  0.25139966263E+02 -0.18728882672E+02 -0.58252068030E+01  0.31886078218E+02  0.00000000000E+00 0. -1.
         11    1    3    3    0    0 -0.79584278168E+01  0.20225549797E+01  0.20482341397E+02  0.22067025430E+02  0.51100000000E-03 0. -1.
        -11    1    3    3    0    0 -0.19969876989E+02  0.19415713777E+02 -0.71108450484E+01  0.28745957037E+02  0.51100000000E-03 0.  1.
         12    1    3    3    0    0  0.27883385424E+01 -0.27093860850E+01 -0.75462895453E+01  0.84889393146E+01  0.00000000000E+00 0. -1.
</event>
<event>
 7    1  0.7579108E-012  0.5930195E+02  0.7816164E-02  0.1266605E+00
        -11   -1    0    0    0    0  0.00000000000E+00  0.00000000000E+00  0.45593999997E+02  0.45594000000E+02  0.51100000000E-03 0. -1.
         11   -1    0    0    0    0 -0.00000000000E+00 -0.00000000000E+00 -0.45593999997E+02  0.45594000000E+02  0.51100000000E-03 0.  1.
    9900012    2    1    2    0    0 -0.29357902773E+02  0.95987730131E+00  0.12406146694E+02  0.59301948262E+02  0.50000007722E+02 0.  0.
         12    1    1    2    0    0  0.29357902773E+02 -0.95987730131E+00 -0.12406146694E+02  0.31886051738E+02  0.00000000000E+00 0. -1.
         11    1    3    3    0    0  0.83537519048E+01 -0.12017254183E+02 -0.23872781718E+01  0.14828980623E+02  0.51100000000E-03 0.  1.
        -11    1    3    3    0    0 -0.11420677567E+02  0.10361471352E+02  0.39866460928E+01  0.15927501750E+02  0.51100000000E-03 0. -1.
        -12    1    3    3    0    0 -0.26290977110E+02  0.26156601321E+01  0.10806778773E+02  0.28545465889E+02  0.00000000000E+00 0.  1.
</event>
<event>
 7    1  0.7579108E-012  0.5930194E+02  0.7816164E-02  0.1266605E+00
        -11   -1    0    0    0    0  0.00000000000E+00  0.00000000000E+00  0.45593999997E+02  0.45594000000E+02  0.51100000000E-03 0.  1.
         11   -1    0    0    0    0 -0.00000000000E+00 -0.00000000000E+00 -0.45593999997E+02  0.45594000000E+02  0.51100000000E-03 0. -1.
    9900012    2    1    2    0    0 -0.17894903945E+02  0.14058572341E+02  0.22334945516E+02  0.59301939806E+02  0.49999992301E+02 0.  0.
         12    1    1    2    0    0  0.17894903945E+02 -0.14058572341E+02 -0.22334945516E+02  0.31886060194E+02  0.00000000000E+00 0. -1.
         11    1    3    3    0    0 -0.14397988264E+02  0.10042426635E+02 -0.59379571594E+01  0.18531371624E+02  0.51100000000E-03 0. -1.
        -11    1    3    3    0    0  0.11577719571E+02  0.57889116237E+01  0.18978113419E+02  0.22972241455E+02  0.51100000000E-03 0.  1.
         12    1    3    3    0    0 -0.15074635252E+02 -0.17727659172E+01  0.92947892560E+01  0.17798326728E+02  0.00000000000E+00 0. -1.
</event>
<event>
 7    1  0.7579108E-012  0.5930184E+02  0.7816164E-02  0.1266605E+00
        -11   -1    0    0    0    0  0.00000000000E+00  0.00000000000E+00  0.45593999997E+02  0.45594000000E+02  0.51100000000E-03 0.  1.
         11   -1    0    0    0    0 -0.00000000000E+00 -0.00000000000E+00 -0.45593999997E+02  0.45594000000E+02  0.51100000000E-03 0. -1.
    9900012    2    1    2    0    0  0.88428485801E+00 -0.29723137873E+02  0.11510005541E+02  0.59301841368E+02  0.49999812774E+02 0.  0.
         12    1    1    2    0    0 -0.88428485801E+00  0.29723137873E+02 -0.11510005541E+02  0.31886158632E+02  0.00000000000E+00 0. -1.
         11    1    3    3    0    0 -0.16428610892E+00 -0.47021984933E+01 -0.13665535644E+02  0.14452837966E+02  0.51100000000E-03 0. -1.
        -11    1    3    3    0    0 -0.99826523445E+01 -0.39427540563E+00  0.51072611771E+01  0.11220201331E+02  0.51100000000E-03 0.  1.
        -12    1    3    3    0    0  0.11031223311E+02 -0.24626663974E+02  0.20068280008E+02  0.33628802071E+02  0.00000000000E+00 0.  1.
</event>
<event>
 7    1  0.7579108E-012  0.5930188E+02  0.7816164E-02  0.1266605E+00
        -11   -1    0    0    0    0  0.00000000000E+00  0.00000000000E+00  0.45593999997E+02  0.45594000000E+02  0.51100000000E-03 0.  1.
         11   -1    0    0    0    0 -0.00000000000E+00 -0.00000000000E+00 -0.45593999997E+02  0.45594000000E+02  0.51100000000E-03 0. -1.
    9900012    2    1    2    0    0 -0.18408518042E+02 -0.22545565669E+02  0.13021085295E+02  0.59301878723E+02  0.49999880900E+02 0.  0.
         12    1    1    2    0    0  0.18408518042E+02  0.22545565669E+02 -0.13021085295E+02  0.31886121277E+02  0.00000000000E+00 0. -1.
         11    1    3    3    0    0  0.45114829520E+00  0.97713171188E+01 -0.22197168921E+01  0.10030419551E+02  0.51100000000E-03 0. -1.
        -11    1    3    3    0    0 -0.86879163375E+00 -0.19904511645E+02  0.18481193109E+02  0.27175335909E+02  0.51100000000E-03 0.  1.
        -12    1    3    3    0    0 -0.17990874704E+02 -0.12412371142E+02 -0.32403909221E+01  0.22096123264E+02  0.00000000000E+00 0.  1.
</event>
<event>
 7    1  0.7579108E-012  0.5930197E+02  0.7816164E-02  0.1266605E+00
        -11   -1    0    0    0    0  0.00000000000E+00  0.00000000000E+00  0.45593999997E+02  0.45594000000E+02  0.51100000000E-03 0.  1.
         11   -1    0    0    0    0 -0.00000000000E+00 -0.00000000000E+00 -0.45593999997E+02  0.45594000000E+02  0.51100000000E-03 0. -1.
    9900012    2    1    2    0    0  0.51029655005E+01 -0.30770730483E+02  0.66212560468E+01  0.59301966334E+02  0.50000040681E+02 0.  0.
         12    1    1    2    0    0 -0.51029655005E+01  0.30770730483E+02 -0.66212560468E+01  0.31886033666E+02  0.00000000000E+00 0. -1.
         11    1    3    3    0    0 -0.72603709247E+01  0.96383098364E+01  0.15910593014E+01  0.12171338153E+02  0.51100000000E-03 0. -1.
        -11    1    3    3    0    0  0.11187927008E+02 -0.83781944591E+01 -0.25159642183E+01  0.14201898793E+02  0.51100000000E-03 0.  1.
         12    1    3    3    0    0  0.11754094172E+01 -0.32030845860E+02  0.75461609637E+01  0.32928729388E+02  0.00000000000E+00 0. -1.
</event>
<event>
 7    1  0.7579108E-012  0.5930195E+02  0.7816164E-02  0.1266605E+00
        -11   -1    0    0    0    0  0.00000000000E+00  0.00000000000E+00  0.45593999997E+02  0.45594000000E+02  0.51100000000E-03 0.  1.
         11   -1    0    0    0    0 -0.00000000000E+00 -0.00000000000E+00 -0.45593999997E+02  0.45594000000E+02  0.51100000000E-03 0. -1.
    9900012    2    1    2    0    0  0.10762367746E+02 -0.27845454351E+02  0.11203664167E+02  0.59301953236E+02  0.50000016793E+02 0.  0.
         12    1    1    2    0    0 -0.10762367746E+02  0.27845454351E+02 -0.11203664167E+02  0.31886046764E+02  0.00000000000E+00 0. -1.
         11    1    3    3    0    0  0.12180293585E+02 -0.34234764075E+02 -0.60411016332E+01  0.36835764310E+02  0.51100000000E-03 0. -1.
        -11    1    3    3    0    0 -0.71338758152E+01  0.31988162076E+01  0.10164780311E+02  0.12823703377E+02  0.51100000000E-03 0.  1.
         12    1    3    3    0    0  0.57159499768E+01  0.31904935171E+01  0.70799854895E+01  0.96424855485E+01  0.00000000000E+00 0. -1.
</event>
<event>
 7    1  0.7579108E-012  0.5930195E+02  0.7816164E-02  0.1266605E+00
        -11   -1    0    0    0    0  0.00000000000E+00  0.00000000000E+00  0.45593999997E+02  0.45594000000E+02  0.51100000000E-03 0. -1.
         11   -1    0    0    0    0 -0.00000000000E+00 -0.00000000000E+00 -0.45593999997E+02  0.45594000000E+02  0.51100000000E-03 0.  1.
    9900012    2    1    2    0    0 -0.17656770417E+02  0.19019295482E+02  0.18526340384E+02  0.59301946149E+02  0.50000003868E+02 0.  0.
         12    1    1    2    0    0  0.17656770417E+02 -0.19019295482E+02 -0.18526340384E+02  0.31886053851E+02  0.00000000000E+00 0. -1.
         11    1    3    3    0    0 -0.47693153746E+01  0.13726584812E+02 -0.13915049436E+02  0.20119495541E+02  0.51100000000E-03 0.  1.
        -11    1    3    3    0    0 -0.12749111890E+02  0.64696067552E+01  0.34196498307E+02  0.37064756337E+02  0.51100000000E-03 0. -1.
         12    1    3    3    0    0 -0.13834315215E+00 -0.11768960853E+01 -0.17551084871E+01  0.21176942709E+01  0.00000000000E+00 0. -1.
</event>
<event>
 7    1  0.7579108E-012  0.5930191E+02  0.7816164E-02  0.1266605E+00
        -11   -1    0    0    0    0  0.00000000000E+00  0.00000000000E+00  0.45593999997E+02  0.45594000000E+02  0.51100000000E-03 0. -1.
         11   -1    0    0    0    0 -0.00000000000E+00 -0.00000000000E+00 -0.45593999997E+02  0.45594000000E+02  0.51100000000E-03 0.  1.
    9900012    2    1    2    0    0  0.30024112370E+02  0.23476368460E+00  0.10734085782E+02  0.59301905301E+02  0.49999929371E+02 0.  0.
         12    1    1    2    0    0 -0.30024112370E+02 -0.23476368460E+00 -0.10734085782E+02  0.31886094699E+02  0.00000000000E+00 0. -1.
         11    1    3    3    0    0 -0.30117792767E+01 -0.14451416326E+02  0.71349880026E+01  0.16395801362E+02  0.51100000000E-03 0. -1.
        -11    1    3    3    0    0  0.12419505613E+02  0.57868946171E+01 -0.97190012522E+01  0.16798549181E+02  0.51100000000E-03 0.  1.
         12    1    3    3    0    0  0.20616386034E+02  0.88992853936E+01  0.13318099032E+02  0.26107554758E+02  0.00000000000E+00 0. -1.
</event>
<event>
 7    1  0.7579108E-012  0.5930198E+02  0.7816164E-02  0.1266605E+00
        -11   -1    0    0    0    0  0.00000000000E+00  0.00000000000E+00  0.45593999997E+02  0.45594000000E+02  0.51100000000E-03 0.  1.
         11   -1    0    0    0    0 -0.00000000000E+00 -0.00000000000E+00 -0.45593999997E+02  0.45594000000E+02  0.51100000000E-03 0. -1.
    9900012    2    1    2    0    0 -0.27162248346E+02 -0.30874511574E+01  0.16413361419E+02  0.59301976056E+02  0.50000058412E+02 0.  0.
         12    1    1    2    0    0  0.27162248346E+02  0.30874511574E+01 -0.16413361419E+02  0.31886023944E+02  0.00000000000E+00 0. -1.
         11    1    3    3    0    0 -0.61478472679E+01 -0.39493461947E+01 -0.60265229490E+01  0.94716598604E+01  0.51100000000E-03 0. -1.
        -11    1    3    3    0    0 -0.28375494435E+02 -0.36806777004E+01  0.27602487485E+02  0.39756928810E+02  0.51100000000E-03 0.  1.
        -12    1    3    3    0    0  0.73610933570E+01  0.45425727377E+01 -0.51626031168E+01  0.10073387386E+02  0.00000000000E+00 0.  1.
</event>
<event>
 7    1  0.7579108E-012  0.5930193E+02  0.7816164E-02  0.1266605E+00
        -11   -1    0    0    0    0  0.00000000000E+00  0.00000000000E+00  0.45593999997E+02  0.45594000000E+02  0.51100000000E-03 0.  1.
         11   -1    0    0    0    0 -0.00000000000E+00 -0.00000000000E+00 -0.45593999997E+02  0.45594000000E+02  0.51100000000E-03 0. -1.
    9900012    2    1    2    0    0 -0.15644456444E+02 -0.15094726727E+02  0.23326419043E+02  0.59301927527E+02  0.49999969906E+02 0.  0.
         12    1    1    2    0    0  0.15644456444E+02  0.15094726727E+02 -0.23326419043E+02  0.31886072473E+02  0.00000000000E+00 0. -1.
         11    1    3    3    0    0  0.43529798571E+00 -0.12181718994E+02 -0.11331428006E+02  0.16642867028E+02  0.51100000000E-03 0. -1.
        -11    1    3    3    0    0 -0.13241337188E+02  0.24665481361E+01  0.87849169885E+01  0.16080784713E+02  0.51100000000E-03 0.  1.
         12    1    3    3    0    0 -0.28384172417E+01 -0.53795558689E+01  0.25872930061E+02  0.26578275786E+02  0.00000000000E+00 0. -1.
</event>
<event>
 7    1  0.7579108E-012  0.5930198E+02  0.7816164E-02  0.1266605E+00
        -11   -1    0    0    0    0  0.00000000000E+00  0.00000000000E+00  0.45593999997E+02  0.45594000000E+02  0.51100000000E-03 0.  1.
         11   -1    0    0    0    0 -0.00000000000E+00 -0.00000000000E+00 -0.45593999997E+02  0.45594000000E+02  0.51100000000E-03 0. -1.
    9900012    2    1    2    0    0  0.10156892233E+02  0.26361791549E+02  0.14785526328E+02  0.59301979517E+02  0.50000064723E+02 0.  0.
         12    1    1    2    0    0 -0.10156892233E+02 -0.26361791549E+02 -0.14785526328E+02  0.31886020483E+02  0.00000000000E+00 0. -1.
         11    1    3    3    0    0 -0.80393773574E+01  0.21502087236E+02  0.99122087184E+01  0.25004464116E+02  0.51100000000E-03 0. -1.
        -11    1    3    3    0    0  0.19904001177E+02 -0.62067115523E+00  0.13411713269E+02  0.24008926436E+02  0.51100000000E-03 0.  1.
        -12    1    3    3    0    0 -0.17077315873E+01  0.54803754682E+01 -0.85383956595E+01  0.10288588965E+02  0.00000000000E+00 0.  1.
</event>
<event>
 7    1  0.7579108E-012  0.5930194E+02  0.7816164E-02  0.1266605E+00
        -11   -1    0    0    0    0  0.00000000000E+00  0.00000000000E+00  0.45593999997E+02  0.45594000000E+02  0.51100000000E-03 0.  1.
         11   -1    0    0    0    0 -0.00000000000E+00 -0.00000000000E+00 -0.45593999997E+02  0.45594000000E+02  0.51100000000E-03 0. -1.
    9900012    2    1    2    0    0 -0.96701066367E+00  0.25909791236E+02 -0.18559865296E+02  0.59301937350E+02  0.49999987821E+02 0.  0.
         12    1    1    2    0    0  0.96701066367E+00 -0.25909791236E+02  0.18559865296E+02  0.31886062650E+02  0.00000000000E+00 0. -1.
         11    1    3    3    0    0 -0.13232896075E+02  0.24447092285E+02  0.45300396009E+01  0.28165424171E+02  0.51100000000E-03 0. -1.
        -11    1    3    3    0    0  0.73529511408E+01 -0.72052880321E+01 -0.79269286755E+01  0.12993008296E+02  0.51100000000E-03 0.  1.
         12    1    3    3    0    0  0.49129342707E+01  0.86679869835E+01 -0.15162976222E+02  0.18143504882E+02  0.00000000000E+00 0. -1.
</event>
<event>
 7    1  0.7579108E-012  0.5930196E+02  0.7816164E-02  0.1266605E+00
        -11   -1    0    0    0    0  0.00000000000E+00  0.00000000000E+00  0.45593999997E+02  0.45594000000E+02  0.51100000000E-03 0. -1.
         11   -1    0    0    0    0 -0.00000000000E+00 -0.00000000000E+00 -0.45593999997E+02  0.45594000000E+02  0.51100000000E-03 0.  1.
    9900012    2    1    2    0    0  0.29979495886E+02  0.35551792481E+01  0.10262084112E+02  0.59301955350E+02  0.50000020650E+02 0.  0.
         12    1    1    2    0    0 -0.29979495886E+02 -0.35551792481E+01 -0.10262084112E+02  0.31886044650E+02  0.00000000000E+00 0. -1.
         11    1    3    3    0    0 -0.52049483896E+01  0.20507339072E+01  0.31070197604E+01  0.63992631880E+01  0.51100000000E-03 0. -1.
        -11    1    3    3    0    0  0.20736069450E+02 -0.63517337036E+01  0.21895223851E+02  0.30817688509E+02  0.51100000000E-03 0.  1.
        -12    1    3    3    0    0  0.14448374826E+02  0.78561790445E+01 -0.14740159500E+02  0.22085003653E+02  0.00000000000E+00 0.  1.
</event>
<event>
 7    1  0.7579108E-012  0.5930195E+02  0.7816164E-02  0.1266605E+00
        -11   -1    0    0    0    0  0.00000000000E+00  0.00000000000E+00  0.45593999997E+02  0.45594000000E+02  0.51100000000E-03 0. -1.
         11   -1    0    0    0    0 -0.00000000000E+00 -0.00000000000E+00 -0.45593999997E+02  0.45594000000E+02  0.51100000000E-03 0.  1.
    9900012    2    1    2    0    0 -0.15729128298E+02 -0.21758006665E+02 -0.17201865087E+02  0.59301945156E+02  0.50000002057E+02 0.  0.
         12    1    1    2    0    0  0.15729128298E+02  0.21758006665E+02  0.17201865087E+02  0.31886054844E+02  0.00000000000E+00 0. -1.
         11    1    3    3    0    0 -0.65077883439E+01  0.15828226316E+00 -0.12250021121E+02  0.13872252165E+02  0.51100000000E-03 0. -1.
        -11    1    3    3    0    0  0.12200211089E+02 -0.20265856812E+02 -0.19339289230E+01  0.23733735152E+02  0.51100000000E-03 0.  1.
        -12    1    3    3    0    0 -0.21421551044E+02 -0.16504321165E+01 -0.30179150430E+01  0.21695957838E+02  0.00000000000E+00 0.  1.
</event>
<event>
 7    1  0.7579108E-012  0.5930194E+02  0.7816164E-02  0.1266605E+00
        -11   -1    0    0    0    0  0.00000000000E+00  0.00000000000E+00  0.45593999997E+02  0.45594000000E+02  0.51100000000E-03 0. -1.
         11   -1    0    0    0    0 -0.00000000000E+00 -0.00000000000E+00 -0.45593999997E+02  0.45594000000E+02  0.51100000000E-03 0.  1.
    9900012    2    1    2    0    0 -0.24673270301E+02  0.17696074437E+02 -0.97365009889E+01  0.59301940831E+02  0.49999994170E+02 0.  0.
         12    1    1    2    0    0  0.24673270301E+02 -0.17696074437E+02  0.97365009889E+01  0.31886059169E+02  0.00000000000E+00 0. -1.
         11    1    3    3    0    0 -0.11111956989E+02  0.20198161158E+02 -0.49072317954E+01  0.23569519011E+02  0.51100000000E-03 0. -1.
        -11    1    3    3    0    0 -0.17506154449E+02 -0.11086892112E+02  0.57933441691E+01  0.21516213821E+02  0.51100000000E-03 0.  1.
        -12    1    3    3    0    0  0.39448411363E+01  0.85848053914E+01 -0.10622613363E+02  0.14216207998E+02  0.00000000000E+00 0.  1.
</event>
<event>
 7    1  0.7579108E-012  0.5930195E+02  0.7816164E-02  0.1266605E+00
        -11   -1    0    0    0    0  0.00000000000E+00  0.00000000000E+00  0.45593999997E+02  0.45594000000E+02  0.51100000000E-03 0. -1.
         11   -1    0    0    0    0 -0.00000000000E+00 -0.00000000000E+00 -0.45593999997E+02  0.45594000000E+02  0.51100000000E-03 0.  1.
    9900012    2    1    2    0    0  0.30029379311E+02  0.52426039110E+01  0.93526351883E+01  0.59301948151E+02  0.50000007520E+02 0.  0.
         12    1    1    2    0    0 -0.30029379311E+02 -0.52426039110E+01 -0.93526351883E+01  0.31886051849E+02  0.00000000000E+00 0. -1.
         11    1    3    3    0    0  0.71350422995E+01 -0.58764315722E+01  0.26375894918E+02  0.27948687082E+02  0.51100000000E-03 0. -1.
        -11    1    3    3    0    0  0.13445526421E+02  0.52237468790E+01 -0.13271922893E+02  0.19601368568E+02  0.51100000000E-03 0.  1.
         12    1    3    3    0    0  0.94488105896E+01  0.58952886042E+01 -0.37513368368E+01  0.11751892501E+02  0.00000000000E+00 0. -1.
</event>
<event>
 7    1  0.7579108E-012  0.5930193E+02  0.7816164E-02  0.1266605E+00
        -11   -1    0    0    0    0  0.00000000000E+00  0.00000000000E+00  0.45593999997E+02  0.45594000000E+02  0.51100000000E-03 0.  1.
         11   -1    0    0    0    0 -0.00000000000E+00 -0.00000000000E+00 -0.45593999997E+02  0.45594000000E+02  0.51100000000E-03 0. -1.
    9900012    2    1    2    0    0 -0.84378401815E+01 -0.29716026965E+02 -0.79045655918E+01  0.59301928390E+02  0.49999971480E+02 0.  0.
         12    1    1    2    0    0  0.84378401815E+01  0.29716026965E+02  0.79045655918E+01  0.31886071610E+02  0.00000000000E+00 0. -1.
         11    1    3    3    0    0  0.60101904989E+01 -0.33703004378E+02  0.48610042071E+01  0.34578089248E+02  0.51100000000E-03 0. -1.
        -11    1    3    3    0    0 -0.10135858072E+02 -0.59259445114E+00  0.36991392146E+00  0.10159902736E+02  0.51100000000E-03 0.  1.
         12    1    3    3    0    0 -0.43121726087E+01  0.45795718635E+01 -0.13135483720E+02  0.14563936406E+02  0.00000000000E+00 0. -1.
</event>
<event>
 7    1  0.7579108E-012  0.5930194E+02  0.7816164E-02  0.1266605E+00
        -11   -1    0    0    0    0  0.00000000000E+00  0.00000000000E+00  0.45593999997E+02  0.45594000000E+02  0.51100000000E-03 0. -1.
         11   -1    0    0    0    0 -0.00000000000E+00 -0.00000000000E+00 -0.45593999997E+02  0.45594000000E+02  0.51100000000E-03 0.  1.
    9900012    2    1    2    0    0  0.14942956342E+02 -0.23120800810E+02 -0.16089056323E+02  0.59301935525E+02  0.49999984492E+02 0.  0.
         12    1    1    2    0    0 -0.14942956342E+02  0.23120800810E+02  0.16089056323E+02  0.31886064475E+02  0.00000000000E+00 0. -1.
         11    1    3    3    0    0 -0.76616827891E+01 -0.76673826716E+01  0.13669322241E+02  0.17445357863E+02  0.51100000000E-03 0. -1.
        -11    1    3    3    0    0  0.73541762270E+01 -0.20306562985E+01 -0.14721448112E+02  0.16580968240E+02  0.51100000000E-03 0.  1.
         12    1    3    3    0    0  0.15250462904E+02 -0.13422761840E+02 -0.15036930452E+02  0.25275609422E+02  0.00000000000E+00 0. -1.
</event>
<event>
 7    1  0.7579108E-012  0.5930182E+02  0.7816164E-02  0.1266605E+00
        -11   -1    0    0    0    0  0.00000000000E+00  0.00000000000E+00  0.45593999997E+02  0.45594000000E+02  0.51100000000E-03 0.  1.
         11   -1    0    0    0    0 -0.00000000000E+00 -0.00000000000E+00 -0.45593999997E+02  0.45594000000E+02  0.51100000000E-03 0. -1.
    9900012    2    1    2    0    0  0.32681794241E+01 -0.19228250921E+02  0.25225422001E+02  0.59301818896E+02  0.49999771789E+02 0.  0.
         12    1    1    2    0    0 -0.32681794241E+01  0.19228250921E+02 -0.25225422001E+02  0.31886181104E+02  0.00000000000E+00 0. -1.
         11    1    3    3    0    0 -0.97380921070E+01 -0.17716474594E+02 -0.62584194035E+01  0.21162980027E+02  0.51100000000E-03 0. -1.
        -11    1    3    3    0    0  0.62973239961E+01  0.66228118384E+01  0.70996741794E+01  0.11572523488E+02  0.51100000000E-03 0.  1.
         12    1    3    3    0    0  0.67089475350E+01 -0.81345881659E+01  0.24384167226E+02  0.26566315381E+02  0.00000000000E+00 0. -1.
</event>
<event>
 7    1  0.7579108E-012  0.5930196E+02  0.7816164E-02  0.1266605E+00
        -11   -1    0    0    0    0  0.00000000000E+00  0.00000000000E+00  0.45593999997E+02  0.45594000000E+02  0.51100000000E-03 0.  1.
         11   -1    0    0    0    0 -0.00000000000E+00 -0.00000000000E+00 -0.45593999997E+02  0.45594000000E+02  0.51100000000E-03 0. -1.
    9900012    2    1    2    0    0  0.29444389848E+02  0.97473601959E+01 -0.73983895676E+01  0.59301963989E+02  0.50000036404E+02 0.  0.
         12    1    1    2    0    0 -0.29444389848E+02 -0.97473601959E+01  0.73983895676E+01  0.31886036011E+02  0.00000000000E+00 0. -1.
         11    1    3    3    0    0 -0.42761812380E+01 -0.37264296075E+00  0.55784049088E+01  0.70386923746E+01  0.51100000000E-03 0. -1.
        -11    1    3    3    0    0  0.11983540062E+02  0.13074679261E+02 -0.22244139706E+02  0.28449151512E+02  0.51100000000E-03 0.  1.
        -12    1    3    3    0    0  0.21737031024E+02 -0.29546761045E+01  0.92673452300E+01  0.23814120102E+02  0.00000000000E+00 0.  1.
</event>
<event>
 7    1  0.7579108E-012  0.5930194E+02  0.7816164E-02  0.1266605E+00
        -11   -1    0    0    0    0  0.00000000000E+00  0.00000000000E+00  0.45593999997E+02  0.45594000000E+02  0.51100000000E-03 0. -1.
         11   -1    0    0    0    0 -0.00000000000E+00 -0.00000000000E+00 -0.45593999997E+02  0.45594000000E+02  0.51100000000E-03 0.  1.
    9900012    2    1    2    0    0 -0.17890117937E+02 -0.20797178439E+02 -0.16252436434E+02  0.59301942845E+02  0.49999997844E+02 0.  0.
         12    1    1    2    0    0  0.17890117937E+02  0.20797178439E+02  0.16252436434E+02  0.31886057155E+02  0.00000000000E+00 0. -1.
         11    1    3    3    0    0 -0.60805368203E+01 -0.24982738539E+02  0.11345016285E+02  0.28103728359E+02  0.51100000000E-03 0. -1.
        -11    1    3    3    0    0 -0.16723602477E+01  0.18504089889E+01 -0.13213039573E+02  0.13446383055E+02  0.51100000000E-03 0.  1.
         12    1    3    3    0    0 -0.10137220869E+02  0.23351511105E+01 -0.14384413145E+02  0.17751831432E+02  0.00000000000E+00 0. -1.
</event>
<event>
 7    1  0.7579108E-012  0.5930196E+02  0.7816164E-02  0.1266605E+00
        -11   -1    0    0    0    0  0.00000000000E+00  0.00000000000E+00  0.45593999997E+02  0.45594000000E+02  0.51100000000E-03 0.  1.
         11   -1    0    0    0    0 -0.00000000000E+00 -0.00000000000E+00 -0.45593999997E+02  0.45594000000E+02  0.51100000000E-03 0. -1.
    9900012    2    1    2    0    0  0.26637659621E+02  0.15228595754E+02 -0.86743526873E+01  0.59301961781E+02  0.50000032378E+02 0.  0.
         12    1    1    2    0    0 -0.26637659621E+02 -0.15228595754E+02  0.86743526873E+01  0.31886038219E+02  0.00000000000E+00 0. -1.
         11    1    3    3    0    0 -0.32940865214E+01 -0.75195799376E+01 -0.19520159256E+01  0.84383324706E+01  0.51100000000E-03 0. -1.
        -11    1    3    3    0    0  0.31985834425E+02  0.28247938503E+02 -0.10297164646E+01  0.42686062711E+02  0.51100000000E-03 0.  1.
         12    1    3    3    0    0 -0.20540882820E+01 -0.54997628110E+01 -0.56926202971E+01  0.81775665999E+01  0.00000000000E+00 0. -1.
</event>
<event>
 7    1  0.7579108E-012  0.5930197E+02  0.7816164E-02  0.1266605E+00
        -11   -1    0    0    0    0  0.00000000000E+00  0.00000000000E+00  0.45593999997E+02  0.45594000000E+02  0.51100000000E-03 0. -1.
         11   -1    0    0    0    0 -0.00000000000E+00 -0.00000000000E+00 -0.45593999997E+02  0.45594000000E+02  0.51100000000E-03 0.  1.
    9900012    2    1    2    0    0 -0.28498140656E+02 -0.24433726750E+01  0.14092718571E+02  0.59301971592E+02  0.50000050271E+02 0.  0.
         12    1    1    2    0    0  0.28498140656E+02  0.24433726750E+01 -0.14092718571E+02  0.31886028408E+02  0.00000000000E+00 0. -1.
         11    1    3    3    0    0 -0.13246128565E+02  0.21920592354E+02  0.93078457732E+01  0.27250840066E+02  0.51100000000E-03 0. -1.
        -11    1    3    3    0    0  0.22098026490E+01 -0.31438556159E+01  0.22509250944E+01  0.44535064750E+01  0.51100000000E-03 0.  1.
         12    1    3    3    0    0 -0.17461814741E+02 -0.21220109413E+02  0.25339477035E+01  0.27597625051E+02  0.00000000000E+00 0. -1.
</event>
<event>
 7    1  0.7579108E-012  0.5930199E+02  0.7816164E-02  0.1266605E+00
        -11   -1    0    0    0    0  0.00000000000E+00  0.00000000000E+00  0.45593999997E+02  0.45594000000E+02  0.51100000000E-03 0. -1.
         11   -1    0    0    0    0 -0.00000000000E+00 -0.00000000000E+00 -0.45593999997E+02  0.45594000000E+02  0.51100000000E-03 0.  1.
    9900012    2    1    2    0    0 -0.96815047771E+01 -0.16232436423E+02 -0.25680617083E+02  0.59301990204E+02  0.50000084214E+02 0.  0.
         12    1    1    2    0    0  0.96815047771E+01  0.16232436423E+02  0.25680617083E+02  0.31886009796E+02  0.00000000000E+00 0. -1.
         11    1    3    3    0    0 -0.11556295878E+02 -0.20245117164E+02 -0.19676309285E+02  0.30505243660E+02  0.51100000000E-03 0. -1.
        -11    1    3    3    0    0 -0.83184782489E+01  0.10507292875E+02  0.29898531093E+01  0.13730968859E+02  0.51100000000E-03 0.  1.
         12    1    3    3    0    0  0.10193269350E+02 -0.64946121339E+01 -0.89941609071E+01  0.15065777684E+02  0.00000000000E+00 0. -1.
</event>
<event>
 7    1  0.7579108E-012  0.5930172E+02  0.7816164E-02  0.1266606E+00
        -11   -1    0    0    0    0  0.00000000000E+00  0.00000000000E+00  0.45593999997E+02  0.45594000000E+02  0.51100000000E-03 0.  1.
         11   -1    0    0    0    0 -0.00000000000E+00 -0.00000000000E+00 -0.45593999997E+02  0.45594000000E+02  0.51100000000E-03 0. -1.
    9900012    2    1    2    0    0 -0.76925676553E+01 -0.32721744634E+01  0.30770965117E+02  0.59301717415E+02  0.49999586711E+02 0.  0.
         12    1    1    2    0    0  0.76925676553E+01  0.32721744634E+01 -0.30770965117E+02  0.31886282585E+02  0.00000000000E+00 0. -1.
         11    1    3    3    0    0  0.10254361246E+01 -0.89742105238E+01 -0.14829750407E+01  0.91535342357E+01  0.51100000000E-03 0. -1.
        -11    1    3    3    0    0 -0.31126014073E+01  0.20917724720E+02  0.12405192533E+02  0.24517917877E+02  0.51100000000E-03 0.  1.
        -12    1    3    3    0    0 -0.56054023726E+01 -0.15215688660E+02  0.19848747625E+02  0.25630265302E+02  0.00000000000E+00 0.  1.
</event>
<event>
 7    1  0.7579108E-012  0.5930194E+02  0.7816164E-02  0.1266605E+00
        -11   -1    0    0    0    0  0.00000000000E+00  0.00000000000E+00  0.45593999997E+02  0.45594000000E+02  0.51100000000E-03 0.  1.
         11   -1    0    0    0    0 -0.00000000000E+00 -0.00000000000E+00 -0.45593999997E+02  0.45594000000E+02  0.51100000000E-03 0. -1.
    9900012    2    1    2    0    0 -0.19170973390E+02  0.14773495965E+02  0.20759052721E+02  0.59301942331E+02  0.49999996906E+02 0.  0.
         12    1    1    2    0    0  0.19170973390E+02 -0.14773495965E+02 -0.20759052721E+02  0.31886057669E+02  0.00000000000E+00 0. -1.
         11    1    3    3    0    0  0.95202557660E+01  0.10756855583E+02  0.33094344357E+01  0.14741016533E+02  0.51100000000E-03 0. -1.
        -11    1    3    3    0    0 -0.14766981281E+02 -0.49322468949E+01 -0.52830094731E+01  0.16440832854E+02  0.51100000000E-03 0.  1.
        -12    1    3    3    0    0 -0.13924247875E+02  0.89488872771E+01  0.22732627759E+02  0.28120092944E+02  0.00000000000E+00 0.  1.
</event>
<event>
 7    1  0.7579108E-012  0.5930196E+02  0.7816164E-02  0.1266605E+00
        -11   -1    0    0    0    0  0.00000000000E+00  0.00000000000E+00  0.45593999997E+02  0.45594000000E+02  0.51100000000E-03 0.  1.
         11   -1    0    0    0    0 -0.00000000000E+00 -0.00000000000E+00 -0.45593999997E+02  0.45594000000E+02  0.51100000000E-03 0. -1.
    9900012    2    1    2    0    0  0.24111826114E+02 -0.14635132363E+02  0.14871197940E+02  0.59301956250E+02  0.50000022291E+02 0.  0.
         12    1    1    2    0    0 -0.24111826114E+02  0.14635132363E+02 -0.14871197940E+02  0.31886043750E+02  0.00000000000E+00 0. -1.
         11    1    3    3    0    0 -0.12751241220E+02  0.45613790883E+00 -0.54340905151E+00  0.12770963476E+02  0.51100000000E-03 0. -1.
        -11    1    3    3    0    0  0.23138373133E+02 -0.91087806045E+00  0.33409022721E+01  0.23396060317E+02  0.51100000000E-03 0.  1.
        -12    1    3    3    0    0  0.13724694201E+02 -0.14180392211E+02  0.12073704719E+02  0.23134932458E+02  0.00000000000E+00 0.  1.
</event>
<event>
 7    1  0.7579108E-012  0.5930197E+02  0.7816164E-02  0.1266605E+00
        -11   -1    0    0    0    0  0.00000000000E+00  0.00000000000E+00  0.45593999997E+02  0.45594000000E+02  0.51100000000E-03 0.  1.
         11   -1    0    0    0    0 -0.00000000000E+00 -0.00000000000E+00 -0.45593999997E+02  0.45594000000E+02  0.51100000000E-03 0. -1.
    9900012    2    1    2    0    0 -0.27531385607E+02  0.15358703742E+02  0.47803421136E+01  0.59301974146E+02  0.50000054928E+02 0.  0.
         12    1    1    2    0    0  0.27531385607E+02 -0.15358703742E+02 -0.47803421136E+01  0.31886025854E+02  0.00000000000E+00 0. -1.
         11    1    3    3    0    0  0.61804487381E+01 -0.93493201465E+01  0.14989567254E+01  0.11307281076E+02  0.51100000000E-03 0. -1.
        -11    1    3    3    0    0 -0.29664925247E+02  0.10372878717E+02 -0.35147583807E+01  0.31622111402E+02  0.51100000000E-03 0.  1.
         12    1    3    3    0    0 -0.40469090976E+01  0.14335145171E+02  0.67961437689E+01  0.16372581667E+02  0.00000000000E+00 0. -1.
</event>
<event>
 7    1  0.7579108E-012  0.5930194E+02  0.7816164E-02  0.1266605E+00
        -11   -1    0    0    0    0  0.00000000000E+00  0.00000000000E+00  0.45593999997E+02  0.45594000000E+02  0.51100000000E-03 0.  1.
         11   -1    0    0    0    0 -0.00000000000E+00 -0.00000000000E+00 -0.45593999997E+02  0.45594000000E+02  0.51100000000E-03 0. -1.
    9900012    2    1    2    0    0 -0.11918564916E+02 -0.18730671266E+02  0.22887347609E+02  0.59301938526E+02  0.49999989966E+02 0.  0.
         12    1    1    2    0    0  0.11918564916E+02  0.18730671266E+02 -0.22887347609E+02  0.31886061474E+02  0.00000000000E+00 0. -1.
         11    1    3    3    0    0  0.88560861472E+01 -0.57528958457E+01 -0.67254759315E+01  0.12520307473E+02  0.51100000000E-03 0. -1.
        -11    1    3    3    0    0 -0.10629445459E+02  0.13308090756E+01  0.27000448308E+02  0.29047897904E+02  0.51100000000E-03 0.  1.
         12    1    3    3    0    0 -0.10145205604E+02 -0.14308584496E+02  0.26123752328E+01  0.17733733149E+02  0.00000000000E+00 0. -1.
</event>
<event>
 7    1  0.7579108E-012  0.5930191E+02  0.7816164E-02  0.1266605E+00
        -11   -1    0    0    0    0  0.00000000000E+00  0.00000000000E+00  0.45593999997E+02  0.45594000000E+02  0.51100000000E-03 0.  1.
         11   -1    0    0    0    0 -0.00000000000E+00 -0.00000000000E+00 -0.45593999997E+02  0.45594000000E+02  0.51100000000E-03 0. -1.
    9900012    2    1    2    0    0  0.23578462942E+02 -0.23824715950E+00  0.21464432344E+02  0.59301913186E+02  0.49999943753E+02 0.  0.
         12    1    1    2    0    0 -0.23578462942E+02  0.23824715950E+00 -0.21464432344E+02  0.31886086814E+02  0.00000000000E+00 0. -1.
         11    1    3    3    0    0  0.13033460177E+02 -0.14566362855E+01  0.57722949696E+01  0.14328721609E+02  0.51100000000E-03 0.  1.
        -11    1    3    3    0    0 -0.42762057745E+00  0.13698507842E+02  0.23036255925E+02  0.26804870151E+02  0.51100000000E-03 0. -1.
        -12    1    3    3    0    0  0.10972623343E+02 -0.12480118716E+02 -0.73441185507E+01  0.18168321427E+02  0.00000000000E+00 0.  1.
</event>
<event>
 7    1  0.7579108E-012  0.5930197E+02  0.7816164E-02  0.1266605E+00
        -11   -1    0    0    0    0  0.00000000000E+00  0.00000000000E+00  0.45593999997E+02  0.45594000000E+02  0.51100000000E-03 0. -1.
         11   -1    0    0    0    0 -0.00000000000E+00 -0.00000000000E+00 -0.45593999997E+02  0.45594000000E+02  0.51100000000E-03 0.  1.
    9900012    2    1    2    0    0  0.10320168835E+02 -0.71888836202E+01 -0.29300730436E+02  0.59301972706E+02  0.50000052303E+02 0.  0.
         12    1    1    2    0    0 -0.10320168835E+02  0.71888836202E+01  0.29300730436E+02  0.31886027294E+02  0.00000000000E+00 0. -1.
         11    1    3    3    0    0 -0.24123256702E+00 -0.12958847481E+02 -0.26588943681E+01  0.13231010570E+02  0.51100000000E-03 0. -1.
        -11    1    3    3    0    0 -0.24672938146E+01  0.98440995440E+01  0.52168118680E+01  0.11410914114E+02  0.51100000000E-03 0.  1.
        -12    1    3    3    0    0  0.13028695216E+02 -0.40741356836E+01 -0.31858647936E+02  0.34660048022E+02  0.00000000000E+00 0.  1.
</event>
<event>
 7    1  0.7579108E-012  0.5930193E+02  0.7816164E-02  0.1266605E+00
        -11   -1    0    0    0    0  0.00000000000E+00  0.00000000000E+00  0.45593999997E+02  0.45594000000E+02  0.51100000000E-03 0.  1.
         11   -1    0    0    0    0 -0.00000000000E+00 -0.00000000000E+00 -0.45593999997E+02  0.45594000000E+02  0.51100000000E-03 0. -1.
    9900012    2    1    2    0    0  0.30007155757E+02 -0.10566019690E+02 -0.21566775148E+01  0.59301930524E+02  0.49999975372E+02 0.  0.
         12    1    1    2    0    0 -0.30007155757E+02  0.10566019690E+02  0.21566775148E+01  0.31886069476E+02  0.00000000000E+00 0. -1.
         11    1    3    3    0    0  0.13407569158E+02 -0.68900241286E+01 -0.21991606634E+02  0.26662072422E+02  0.51100000000E-03 0. -1.
        -11    1    3    3    0    0  0.17006250175E+02 -0.97087606707E+01  0.12951660320E+02  0.23478034076E+02  0.51100000000E-03 0.  1.
         12    1    3    3    0    0 -0.40666357480E+00  0.60327651095E+01  0.68832687993E+01  0.91618240265E+01  0.00000000000E+00 0. -1.
</event>
<event>
 7    1  0.7579108E-012  0.5930191E+02  0.7816164E-02  0.1266605E+00
        -11   -1    0    0    0    0  0.00000000000E+00  0.00000000000E+00  0.45593999997E+02  0.45594000000E+02  0.51100000000E-03 0.  1.
         11   -1    0    0    0    0 -0.00000000000E+00 -0.00000000000E+00 -0.45593999997E+02  0.45594000000E+02  0.51100000000E-03 0. -1.
    9900012    2    1    2    0    0  0.21734183441E+02 -0.23134448488E+02  0.30241438384E+01  0.59301907693E+02  0.49999933734E+02 0.  0.
         12    1    1    2    0    0 -0.21734183441E+02  0.23134448488E+02 -0.30241438384E+01  0.31886092307E+02  0.00000000000E+00 0. -1.
         11    1    3    3    0    0  0.26789813383E+02  0.35260155468E+01 -0.10412925729E+02  0.28957829844E+02  0.51100000000E-03 0. -1.
        -11    1    3    3    0    0 -0.27039753721E+01 -0.16852781430E+02  0.93523234265E+01  0.19462622600E+02  0.51100000000E-03 0.  1.
         12    1    3    3    0    0 -0.23516545708E+01 -0.98076826047E+01  0.40847461413E+01  0.10881455249E+02  0.00000000000E+00 0. -1.
</event>
<event>
 7    1  0.7579108E-012  0.5930195E+02  0.7816164E-02  0.1266605E+00
        -11   -1    0    0    0    0  0.00000000000E+00  0.00000000000E+00  0.45593999997E+02  0.45594000000E+02  0.51100000000E-03 0.  1.
         11   -1    0    0    0    0 -0.00000000000E+00 -0.00000000000E+00 -0.45593999997E+02  0.45594000000E+02  0.51100000000E-03 0. -1.
    9900012    2    1    2    0    0 -0.39669120817E+01 -0.12776566191E+02  0.28943791783E+02  0.59301951046E+02  0.50000012800E+02 0.  0.
         12    1    1    2    0    0  0.39669120817E+01  0.12776566191E+02 -0.28943791783E+02  0.31886048954E+02  0.00000000000E+00 0. -1.
         11    1    3    3    0    0  0.11299324582E+02  0.88521385069E+01  0.10475446993E+02  0.17769920712E+02  0.51100000000E-03 0. -1.
        -11    1    3    3    0    0 -0.34760214885E+01 -0.12017223779E+02  0.22545470377E+02  0.25783611608E+02  0.51100000000E-03 0.  1.
         12    1    3    3    0    0 -0.11790215175E+02 -0.96114809186E+01 -0.40771255866E+01  0.15748418726E+02  0.00000000000E+00 0. -1.
</event>
<event>
 7    1  0.7579108E-012  0.5930194E+02  0.7816164E-02  0.1266605E+00
        -11   -1    0    0    0    0  0.00000000000E+00  0.00000000000E+00  0.45593999997E+02  0.45594000000E+02  0.51100000000E-03 0.  1.
         11   -1    0    0    0    0 -0.00000000000E+00 -0.00000000000E+00 -0.45593999997E+02  0.45594000000E+02  0.51100000000E-03 0. -1.
    9900012    2    1    2    0    0 -0.60830335644E+01  0.17479308010E+02  0.25965191914E+02  0.59301941965E+02  0.49999996238E+02 0.  0.
         12    1    1    2    0    0  0.60830335644E+01 -0.17479308010E+02 -0.25965191914E+02  0.31886058035E+02  0.00000000000E+00 0. -1.
         11    1    3    3    0    0  0.32310111208E+01 -0.14889863602E+02 -0.15375280181E+01  0.15313767127E+02  0.51100000000E-03 0. -1.
        -11    1    3    3    0    0 -0.76866363100E+01  0.21601371265E+02  0.22045030173E+02  0.31807027115E+02  0.51100000000E-03 0.  1.
         12    1    3    3    0    0 -0.16274083751E+01  0.10767800347E+02  0.54576897601E+01  0.12181147723E+02  0.00000000000E+00 0. -1.
</event>
<event>
 7    1  0.7579108E-012  0.5930193E+02  0.7816164E-02  0.1266605E+00
        -11   -1    0    0    0    0  0.00000000000E+00  0.00000000000E+00  0.45593999997E+02  0.45594000000E+02  0.51100000000E-03 0. -1.
         11   -1    0    0    0    0 -0.00000000000E+00 -0.00000000000E+00 -0.45593999997E+02  0.45594000000E+02  0.51100000000E-03 0.  1.
    9900012    2    1    2    0    0  0.36384955288E+01 -0.30677919165E+02 -0.78960772990E+01  0.59301930774E+02  0.49999975828E+02 0.  0.
         12    1    1    2    0    0 -0.36384955288E+01  0.30677919165E+02  0.78960772990E+01  0.31886069226E+02  0.00000000000E+00 0. -1.
         11    1    3    3    0    0  0.27572316801E+01 -0.52509277529E+01  0.72881923627E+01  0.93963991498E+01  0.51100000000E-03 0. -1.
        -11    1    3    3    0    0  0.11454896626E+02 -0.29614223526E+02 -0.20031569141E+02  0.37543050679E+02  0.51100000000E-03 0.  1.
        -12    1    3    3    0    0 -0.10573632777E+02  0.41872321141E+01  0.48472994794E+01  0.12362480945E+02  0.00000000000E+00 0.  1.
</event>
<event>
 7    1  0.7579108E-012  0.5930198E+02  0.7816164E-02  0.1266605E+00
        -11   -1    0    0    0    0  0.00000000000E+00  0.00000000000E+00  0.45593999997E+02  0.45594000000E+02  0.51100000000E-03 0. -1.
         11   -1    0    0    0    0 -0.00000000000E+00 -0.00000000000E+00 -0.45593999997E+02  0.45594000000E+02  0.51100000000E-03 0.  1.
    9900012    2    1    2    0    0  0.89966621556E-01  0.30791753609E+02 -0.82811745835E+01  0.59301983679E+02  0.50000072314E+02 0.  0.
         12    1    1    2    0    0 -0.89966621556E-01 -0.30791753609E+02  0.82811745835E+01  0.31886016321E+02  0.00000000000E+00 0. -1.
         11    1    3    3    0    0 -0.48828554374E+01  0.84832861903E+01  0.16660670668E+02  0.19323208046E+02  0.51100000000E-03 0. -1.
        -11    1    3    3    0    0  0.95792089624E+01  0.16769373269E+01 -0.10863213413E+02  0.14580218416E+02  0.51100000000E-03 0.  1.
         12    1    3    3    0    0 -0.46063869034E+01  0.20631530092E+02 -0.14078631838E+02  0.25398557217E+02  0.00000000000E+00 0. -1.
</event>
<event>
 7    1  0.7579108E-012  0.5930195E+02  0.7816164E-02  0.1266605E+00
        -11   -1    0    0    0    0  0.00000000000E+00  0.00000000000E+00  0.45593999997E+02  0.45594000000E+02  0.51100000000E-03 0. -1.
         11   -1    0    0    0    0 -0.00000000000E+00 -0.00000000000E+00 -0.45593999997E+02  0.45594000000E+02  0.51100000000E-03 0.  1.
    9900012    2    1    2    0    0  0.82963677346E+01 -0.13339460405E+02 -0.27747960909E+02  0.59301948879E+02  0.50000008848E+02 0.  0.
         12    1    1    2    0    0 -0.82963677346E+01  0.13339460405E+02  0.27747960909E+02  0.31886051121E+02  0.00000000000E+00 0. -1.
         11    1    3    3    0    0  0.22413996097E+02 -0.55723106609E+01 -0.30886886111E+02  0.38567312598E+02  0.51100000000E-03 0.  1.
        -11    1    3    3    0    0 -0.80257665119E+01  0.26296314959E+01  0.13095335889E+01  0.85465062095E+01  0.51100000000E-03 0. -1.
        -12    1    3    3    0    0 -0.60918618506E+01 -0.10396781240E+02  0.18293916132E+01  0.12188130072E+02  0.00000000000E+00 0.  1.
</event>
<event>
 7    1  0.7579108E-012  0.5930188E+02  0.7816164E-02  0.1266605E+00
        -11   -1    0    0    0    0  0.00000000000E+00  0.00000000000E+00  0.45593999997E+02  0.45594000000E+02  0.51100000000E-03 0.  1.
         11   -1    0    0    0    0 -0.00000000000E+00 -0.00000000000E+00 -0.45593999997E+02  0.45594000000E+02  0.51100000000E-03 0. -1.
    9900012    2    1    2    0    0 -0.15045536149E+02  0.25946069376E+02 -0.10823967193E+02  0.59301875434E+02  0.49999874901E+02 0.  0.
         12    1    1    2    0    0  0.15045536149E+02 -0.25946069376E+02  0.10823967193E+02  0.31886124566E+02  0.00000000000E+00 0. -1.
         11    1    3    3    0    0 -0.19875580198E+02  0.94116218923E+01 -0.15186770866E+02  0.26725555643E+02  0.51100000000E-03 0. -1.
        -11    1    3    3    0    0  0.16125423522E+02  0.12044627160E+02  0.28237186230E+01  0.20324264177E+02  0.51100000000E-03 0.  1.
        -12    1    3    3    0    0 -0.11295379474E+02  0.44898203230E+01  0.15390850496E+01  0.12252055614E+02  0.00000000000E+00 0.  1.
</event>
<event>
 7    1  0.7579108E-012  0.5930193E+02  0.7816164E-02  0.1266605E+00
        -11   -1    0    0    0    0  0.00000000000E+00  0.00000000000E+00  0.45593999997E+02  0.45594000000E+02  0.51100000000E-03 0.  1.
         11   -1    0    0    0    0 -0.00000000000E+00 -0.00000000000E+00 -0.45593999997E+02  0.45594000000E+02  0.51100000000E-03 0. -1.
    9900012    2    1    2    0    0 -0.18748031744E+02 -0.19875366177E+02  0.16437845899E+02  0.59301926978E+02  0.49999968906E+02 0.  0.
         12    1    1    2    0    0  0.18748031744E+02  0.19875366177E+02 -0.16437845899E+02  0.31886073022E+02  0.00000000000E+00 0. -1.
         11    1    3    3    0    0 -0.33801194858E+01  0.18307601958E+01  0.23949610657E+02  0.24256148530E+02  0.51100000000E-03 0. -1.
        -11    1    3    3    0    0 -0.19715205015E+02 -0.11054391643E+02 -0.63771701679E+01  0.23485254586E+02  0.51100000000E-03 0.  1.
         12    1    3    3    0    0  0.43472927566E+01 -0.10651734730E+02 -0.11345945905E+01  0.11560523862E+02  0.00000000000E+00 0. -1.
</event>
<event>
 7    1  0.7579108E-012  0.5930195E+02  0.7816164E-02  0.1266605E+00
        -11   -1    0    0    0    0  0.00000000000E+00  0.00000000000E+00  0.45593999997E+02  0.45594000000E+02  0.51100000000E-03 0. -1.
         11   -1    0    0    0    0 -0.00000000000E+00 -0.00000000000E+00 -0.45593999997E+02  0.45594000000E+02  0.51100000000E-03 0.  1.
    9900012    2    1    2    0    0 -0.35646114530E+01 -0.63818365391E+01 -0.31036851319E+02  0.59301946117E+02  0.50000003810E+02 0.  0.
         12    1    1    2    0    0  0.35646114530E+01  0.63818365391E+01  0.31036851319E+02  0.31886053883E+02  0.00000000000E+00 0. -1.
         11    1    3    3    0    0 -0.28460373787E+01  0.21305628062E+02 -0.20296502648E+02  0.29563114449E+02  0.51100000000E-03 0. -1.
        -11    1    3    3    0    0 -0.89644352075E+00 -0.12653478213E+02 -0.44906626194E+01  0.13456603320E+02  0.51100000000E-03 0.  1.
         12    1    3    3    0    0  0.17786944643E+00 -0.15033986388E+02 -0.62496860517E+01  0.16282228348E+02  0.00000000000E+00 0. -1.
</event>
<event>
 7    1  0.7579108E-012  0.5930195E+02  0.7816164E-02  0.1266605E+00
        -11   -1    0    0    0    0  0.00000000000E+00  0.00000000000E+00  0.45593999997E+02  0.45594000000E+02  0.51100000000E-03 0.  1.
         11   -1    0    0    0    0 -0.00000000000E+00 -0.00000000000E+00 -0.45593999997E+02  0.45594000000E+02  0.51100000000E-03 0. -1.
    9900012    2    1    2    0    0  0.31826926987E+02 -0.29456363828E+00  0.19184497379E+01  0.59301945077E+02  0.50000001914E+02 0.  0.
         12    1    1    2    0    0 -0.31826926987E+02  0.29456363828E+00 -0.19184497379E+01  0.31886054923E+02  0.00000000000E+00 0. -1.
         11    1    3    3    0    0  0.27415566904E+02 -0.10675919073E+02 -0.12134203080E+02  0.31824949982E+02  0.51100000000E-03 0. -1.
        -11    1    3    3    0    0  0.66832562809E+01  0.36889790235E+01  0.17878771447E+02  0.19440291908E+02  0.51100000000E-03 0.  1.
        -12    1    3    3    0    0 -0.22718961979E+01  0.66923764112E+01 -0.38261186283E+01  0.80367031873E+01  0.00000000000E+00 0.  1.
</event>
<event>
 7    1  0.7579108E-012  0.5930195E+02  0.7816164E-02  0.1266605E+00
        -11   -1    0    0    0    0  0.00000000000E+00  0.00000000000E+00  0.45593999997E+02  0.45594000000E+02  0.51100000000E-03 0.  1.
         11   -1    0    0    0    0 -0.00000000000E+00 -0.00000000000E+00 -0.45593999997E+02  0.45594000000E+02  0.51100000000E-03 0. -1.
    9900012    2    1    2    0    0  0.12472301838E+02 -0.91171366501E+01  0.27893360994E+02  0.59301951619E+02  0.50000013844E+02 0.  0.
         12    1    1    2    0    0 -0.12472301838E+02  0.91171366501E+01 -0.27893360994E+02  0.31886048381E+02  0.00000000000E+00 0. -1.
         11    1    3    3    0    0  0.65792261283E+01  0.15223278494E+02 -0.93905238233E+00  0.16610726781E+02  0.51100000000E-03 0. -1.
        -11    1    3    3    0    0 -0.44363597507E+01 -0.89197081922E+01  0.21552766391E+01  0.10192531566E+02  0.51100000000E-03 0.  1.
         12    1    3    3    0    0  0.10329435461E+02 -0.15420706952E+02  0.26677136737E+02  0.32498693271E+02  0.00000000000E+00 0. -1.
</event>
<event>
 7    1  0.7579108E-012  0.5930201E+02  0.7816164E-02  0.1266605E+00
        -11   -1    0    0    0    0  0.00000000000E+00  0.00000000000E+00  0.45593999997E+02  0.45594000000E+02  0.51100000000E-03 0. -1.
         11   -1    0    0    0    0 -0.00000000000E+00 -0.00000000000E+00 -0.45593999997E+02  0.45594000000E+02  0.51100000000E-03 0.  1.
    9900012    2    1    2    0    0 -0.31469596046E+02  0.11962365728E+01 -0.49950000834E+01  0.59302008043E+02  0.50000116749E+02 0.  0.
         12    1    1    2    0    0  0.31469596046E+02 -0.11962365728E+01  0.49950000834E+01  0.31885991957E+02  0.00000000000E+00 0. -1.
         11    1    3    3    0    0  0.35773877358E+01  0.81590319719E+01  0.86836759487E+01  0.12440809217E+02  0.51100000000E-03 0. -1.
        -11    1    3    3    0    0 -0.37262263860E+02 -0.12070776961E+02 -0.12906468770E+02  0.41240234005E+02  0.51100000000E-03 0.  1.
        -12    1    3    3    0    0  0.22152800786E+01  0.51079815619E+01 -0.77220726231E+00  0.56209648210E+01  0.00000000000E+00 0.  1.
</event>
<event>
 7    1  0.7579108E-012  0.5930194E+02  0.7816164E-02  0.1266605E+00
        -11   -1    0    0    0    0  0.00000000000E+00  0.00000000000E+00  0.45593999997E+02  0.45594000000E+02  0.51100000000E-03 0. -1.
         11   -1    0    0    0    0 -0.00000000000E+00 -0.00000000000E+00 -0.45593999997E+02  0.45594000000E+02  0.51100000000E-03 0.  1.
    9900012    2    1    2    0    0 -0.17688761562E+02  0.20425569290E+01 -0.26451021846E+02  0.59301939079E+02  0.49999990974E+02 0.  0.
         12    1    1    2    0    0  0.17688761562E+02 -0.20425569290E+01  0.26451021846E+02  0.31886060921E+02  0.00000000000E+00 0. -1.
         11    1    3    3    0    0  0.63543871499E+01 -0.31736976217E+01  0.10602545124E+02  0.12761839836E+02  0.51100000000E-03 0. -1.
        -11    1    3    3    0    0 -0.24558723146E+02  0.73901791602E+01 -0.31958667299E+02  0.40976847687E+02  0.51100000000E-03 0.  1.
        -12    1    3    3    0    0  0.51557443476E+00 -0.21739246095E+01 -0.50948996708E+01  0.55632515547E+01  0.00000000000E+00 0.  1.
</event>
<event>
 7    1  0.7579108E-012  0.5930206E+02  0.7816164E-02  0.1266604E+00
        -11   -1    0    0    0    0  0.00000000000E+00  0.00000000000E+00  0.45593999997E+02  0.45594000000E+02  0.51100000000E-03 0. -1.
         11   -1    0    0    0    0 -0.00000000000E+00 -0.00000000000E+00 -0.45593999997E+02  0.45594000000E+02  0.51100000000E-03 0.  1.
    9900012    2    1    2    0    0  0.11082844309E+02  0.21007339235E+02 -0.21273813598E+02  0.59302064469E+02  0.50000219655E+02 0.  0.
         12    1    1    2    0    0 -0.11082844309E+02 -0.21007339235E+02  0.21273813598E+02  0.31885935531E+02  0.00000000000E+00 0. -1.
         11    1    3    3    0    0 -0.68947287891E+01  0.20933830691E+01  0.26163993324E+01  0.76658387328E+01  0.51100000000E-03 0. -1.
        -11    1    3    3    0    0  0.20065822133E+02  0.19026112200E+02  0.27204421896E-02  0.27651946965E+02  0.51100000000E-03 0.  1.
        -12    1    3    3    0    0 -0.20882490342E+01 -0.11215603469E+00 -0.23892933373E+02  0.23984278771E+02  0.00000000000E+00 0.  1.
</event>
<event>
 7    1  0.7579108E-012  0.5930194E+02  0.7816164E-02  0.1266605E+00
        -11   -1    0    0    0    0  0.00000000000E+00  0.00000000000E+00  0.45593999997E+02  0.45594000000E+02  0.51100000000E-03 0.  1.
         11   -1    0    0    0    0 -0.00000000000E+00 -0.00000000000E+00 -0.45593999997E+02  0.45594000000E+02  0.51100000000E-03 0. -1.
    9900012    2    1    2    0    0  0.24461594797E+02 -0.19256020794E+02  0.68961350056E+01  0.59301942940E+02  0.49999998016E+02 0.  0.
         12    1    1    2    0    0 -0.24461594797E+02  0.19256020794E+02 -0.68961350056E+01  0.31886057060E+02  0.00000000000E+00 0. -1.
         11    1    3    3    0    0  0.32721142604E+02 -0.81889453690E+01 -0.13599322795E+01  0.33757686763E+02  0.51100000000E-03 0. -1.
        -11    1    3    3    0    0 -0.31082929060E+01  0.41621518084E+01  0.79105429733E+01  0.94637034431E+01  0.51100000000E-03 0.  1.
         12    1    3    3    0    0 -0.51512549008E+01 -0.15229227233E+02  0.34552431172E+00  0.16080552734E+02  0.00000000000E+00 0. -1.
</event>
<event>
 7    1  0.7579108E-012  0.5930198E+02  0.7816164E-02  0.1266605E+00
        -11   -1    0    0    0    0  0.00000000000E+00  0.00000000000E+00  0.45593999997E+02  0.45594000000E+02  0.51100000000E-03 0.  1.
         11   -1    0    0    0    0 -0.00000000000E+00 -0.00000000000E+00 -0.45593999997E+02  0.45594000000E+02  0.51100000000E-03 0. -1.
    9900012    2    1    2    0    0  0.78962433704E+01 -0.30766168100E+02  0.27947286906E+01  0.59301980064E+02  0.50000065721E+02 0.  0.
         12    1    1    2    0    0 -0.78962433704E+01  0.30766168100E+02 -0.27947286906E+01  0.31886019936E+02  0.00000000000E+00 0. -1.
         11    1    3    3    0    0  0.19314780280E+02 -0.21353779964E+02 -0.10296773861E+02  0.30578885007E+02  0.51100000000E-03 0. -1.
        -11    1    3    3    0    0 -0.68110720214E+01  0.33201323430E+01  0.13156433137E+02  0.15182414631E+02  0.51100000000E-03 0.  1.
         12    1    3    3    0    0 -0.46074648882E+01 -0.12732520479E+02 -0.64930585473E-01  0.13540680427E+02  0.00000000000E+00 0. -1.
</event>
<event>
 7    1  0.7579108E-012  0.5930195E+02  0.7816164E-02  0.1266605E+00
        -11   -1    0    0    0    0  0.00000000000E+00  0.00000000000E+00  0.45593999997E+02  0.45594000000E+02  0.51100000000E-03 0.  1.
         11   -1    0    0    0    0 -0.00000000000E+00 -0.00000000000E+00 -0.45593999997E+02  0.45594000000E+02  0.51100000000E-03 0. -1.
    9900012    2    1    2    0    0 -0.23528000822E+02 -0.20067741988E+02  0.77742670380E+01  0.59301947890E+02  0.50000007045E+02 0.  0.
         12    1    1    2    0    0  0.23528000822E+02  0.20067741988E+02 -0.77742670380E+01  0.31886052110E+02  0.00000000000E+00 0. -1.
         11    1    3    3    0    0 -0.17467230995E+02  0.10917573293E+02 -0.96187829746E+01  0.22733643602E+02  0.51100000000E-03 0. -1.
        -11    1    3    3    0    0  0.11317039094E+00 -0.14582326796E+02  0.68100390943E+01  0.16094523759E+02  0.51100000000E-03 0.  1.
         12    1    3    3    0    0 -0.61739402177E+01 -0.16402988485E+02  0.10583010918E+02  0.20473780529E+02  0.00000000000E+00 0. -1.
</event>
<event>
 7    1  0.7579108E-012  0.5930196E+02  0.7816164E-02  0.1266605E+00
        -11   -1    0    0    0    0  0.00000000000E+00  0.00000000000E+00  0.45593999997E+02  0.45594000000E+02  0.51100000000E-03 0. -1.
         11   -1    0    0    0    0 -0.00000000000E+00 -0.00000000000E+00 -0.45593999997E+02  0.45594000000E+02  0.51100000000E-03 0.  1.
    9900012    2    1    2    0    0 -0.25754749177E+02  0.17848496571E+02  0.59028540341E+01  0.59301958841E+02  0.50000027016E+02 0.  0.
         12    1    1    2    0    0  0.25754749177E+02 -0.17848496571E+02 -0.59028540341E+01  0.31886041159E+02  0.00000000000E+00 0. -1.
         11    1    3    3    0    0  0.42423648687E+01 -0.59248153249E+01 -0.21269979186E+01  0.75911275000E+01  0.51100000000E-03 0. -1.
        -11    1    3    3    0    0 -0.30478544415E+02  0.30078220988E+02  0.11711702916E+02  0.44393749930E+02  0.51100000000E-03 0.  1.
        -12    1    3    3    0    0  0.48143036858E+00 -0.63049090920E+01 -0.36818509634E+01  0.73170814110E+01  0.00000000000E+00 0.  1.
</event>
<event>
 7    1  0.7579108E-012  0.5930184E+02  0.7816164E-02  0.1266605E+00
        -11   -1    0    0    0    0  0.00000000000E+00  0.00000000000E+00  0.45593999997E+02  0.45594000000E+02  0.51100000000E-03 0.  1.
         11   -1    0    0    0    0 -0.00000000000E+00 -0.00000000000E+00 -0.45593999997E+02  0.45594000000E+02  0.51100000000E-03 0. -1.
    9900012    2    1    2    0    0  0.14355198782E+02  0.27091008504E+02 -0.87597296599E+01  0.59301837836E+02  0.49999806332E+02 0.  0.
         12    1    1    2    0    0 -0.14355198782E+02 -0.27091008504E+02  0.87597296599E+01  0.31886162164E+02  0.00000000000E+00 0. -1.
         11    1    3    3    0    0  0.16897220018E+02  0.49246530619E+01 -0.10213269754E+01  0.17629842914E+02  0.51100000000E-03 0. -1.
        -11    1    3    3    0    0 -0.14500008707E+02 -0.13078404508E+01 -0.36799083052E+01  0.15016738146E+02  0.51100000000E-03 0.  1.
        -12    1    3    3    0    0  0.11957987471E+02  0.23474195893E+02 -0.40584943793E+01  0.26655256776E+02  0.00000000000E+00 0.  1.
</event>
<event>
 7    1  0.7579108E-012  0.5930195E+02  0.7816164E-02  0.1266605E+00
        -11   -1    0    0    0    0  0.00000000000E+00  0.00000000000E+00  0.45593999997E+02  0.45594000000E+02  0.51100000000E-03 0.  1.
         11   -1    0    0    0    0 -0.00000000000E+00 -0.00000000000E+00 -0.45593999997E+02  0.45594000000E+02  0.51100000000E-03 0. -1.
    9900012    2    1    2    0    0  0.22593459694E+02 -0.29437200219E+01  0.22306735350E+02  0.59301947399E+02  0.50000006148E+02 0.  0.
         12    1    1    2    0    0 -0.22593459694E+02  0.29437200219E+01 -0.22306735350E+02  0.31886052601E+02  0.00000000000E+00 0. -1.
         11    1    3    3    0    0 -0.73116494612E+01  0.58238775912E+01 -0.76173253055E+01  0.12058250831E+02  0.51100000000E-03 0. -1.
        -11    1    3    3    0    0  0.14002814537E+02 -0.13803008438E+02  0.13621201759E+02  0.23919427136E+02  0.51100000000E-03 0.  1.
        -12    1    3    3    0    0  0.15902294618E+02  0.50354108250E+01  0.16302858897E+02  0.23324269432E+02  0.00000000000E+00 0.  1.
</event>
<event>
 7    1  0.7579108E-012  0.5930193E+02  0.7816164E-02  0.1266605E+00
        -11   -1    0    0    0    0  0.00000000000E+00  0.00000000000E+00  0.45593999997E+02  0.45594000000E+02  0.51100000000E-03 0. -1.
         11   -1    0    0    0    0 -0.00000000000E+00 -0.00000000000E+00 -0.45593999997E+02  0.45594000000E+02  0.51100000000E-03 0.  1.
    9900012    2    1    2    0    0  0.16858254423E+02  0.27051236723E+02 -0.86659764250E+00  0.59301934989E+02  0.49999983516E+02 0.  0.
         12    1    1    2    0    0 -0.16858254423E+02 -0.27051236723E+02  0.86659764250E+00  0.31886065011E+02  0.00000000000E+00 0. -1.
         11    1    3    3    0    0  0.20983610963E+02 -0.54159464979E+01  0.53952801930E+01  0.22332788767E+02  0.51100000000E-03 0. -1.
        -11    1    3    3    0    0 -0.91832546512E+01  0.17362548182E+02  0.53936685384E+00  0.19648948120E+02  0.51100000000E-03 0.  1.
        -12    1    3    3    0    0  0.50578981112E+01  0.15104635038E+02 -0.68012446894E+01  0.17320198101E+02  0.00000000000E+00 0.  1.
</event>
<event>
 7    1  0.7579108E-012  0.5930195E+02  0.7816164E-02  0.1266605E+00
        -11   -1    0    0    0    0  0.00000000000E+00  0.00000000000E+00  0.45593999997E+02  0.45594000000E+02  0.51100000000E-03 0.  1.
         11   -1    0    0    0    0 -0.00000000000E+00 -0.00000000000E+00 -0.45593999997E+02  0.45594000000E+02  0.51100000000E-03 0. -1.
    9900012    2    1    2    0    0  0.13289101989E+02  0.18562406337E+02 -0.22261108998E+02  0.59301950785E+02  0.50000012324E+02 0.  0.
         12    1    1    2    0    0 -0.13289101989E+02 -0.18562406337E+02  0.22261108998E+02  0.31886049215E+02  0.00000000000E+00 0. -1.
         11    1    3    3    0    0  0.10160170623E+02  0.13729181631E+01 -0.22652508635E+02  0.24864635913E+02  0.51100000000E-03 0. -1.
        -11    1    3    3    0    0  0.10765356806E+02  0.22476010382E+02 -0.14715778196E+01  0.24964564714E+02  0.51100000000E-03 0.  1.
         12    1    3    3    0    0 -0.76364254392E+01 -0.52865222074E+01  0.18629774571E+01  0.94727501573E+01  0.00000000000E+00 0. -1.
</event>
<event>
 7    1  0.7579108E-012  0.5930194E+02  0.7816164E-02  0.1266605E+00
        -11   -1    0    0    0    0  0.00000000000E+00  0.00000000000E+00  0.45593999997E+02  0.45594000000E+02  0.51100000000E-03 0.  1.
         11   -1    0    0    0    0 -0.00000000000E+00 -0.00000000000E+00 -0.45593999997E+02  0.45594000000E+02  0.51100000000E-03 0. -1.
    9900012    2    1    2    0    0  0.20048494339E+02 -0.15295717105E+02  0.19514605966E+02  0.59301938264E+02  0.49999989489E+02 0.  0.
         12    1    1    2    0    0 -0.20048494339E+02  0.15295717105E+02 -0.19514605966E+02  0.31886061736E+02  0.00000000000E+00 0. -1.
         11    1    3    3    0    0 -0.15591358631E+02 -0.18969024551E+01 -0.10279612331E+01  0.15739930351E+02  0.51100000000E-03 0. -1.
        -11    1    3    3    0    0  0.27633175595E+02 -0.84127711700E+01  0.16790330707E+02  0.33410811390E+02  0.51100000000E-03 0.  1.
         12    1    3    3    0    0  0.80066773754E+01 -0.49860434797E+01  0.37522364919E+01  0.10151196524E+02  0.00000000000E+00 0. -1.
</event>
<event>
 7    1  0.7579108E-012  0.5930193E+02  0.7816164E-02  0.1266605E+00
        -11   -1    0    0    0    0  0.00000000000E+00  0.00000000000E+00  0.45593999997E+02  0.45594000000E+02  0.51100000000E-03 0.  1.
         11   -1    0    0    0    0 -0.00000000000E+00 -0.00000000000E+00 -0.45593999997E+02  0.45594000000E+02  0.51100000000E-03 0. -1.
    9900012    2    1    2    0    0 -0.90835157928E+01 -0.26679418683E+02  0.14913745745E+02  0.59301930117E+02  0.49999974631E+02 0.  0.
         12    1    1    2    0    0  0.90835157928E+01  0.26679418683E+02 -0.14913745745E+02  0.31886069883E+02  0.00000000000E+00 0. -1.
         11    1    3    3    0    0 -0.16655218683E+02 -0.74166421613E+01  0.16987199530E+02  0.24919226281E+02  0.51100000000E-03 0.  1.
        -11    1    3    3    0    0  0.11904505302E+02 -0.19286319779E+02  0.75009729504E+01  0.23873499378E+02  0.51100000000E-03 0. -1.
        -12    1    3    3    0    0 -0.43328024117E+01  0.23543256719E-01 -0.95744267359E+01  0.10509204458E+02  0.00000000000E+00 0.  1.
</event>
<event>
 7    1  0.7579108E-012  0.5930192E+02  0.7816164E-02  0.1266605E+00
        -11   -1    0    0    0    0  0.00000000000E+00  0.00000000000E+00  0.45593999997E+02  0.45594000000E+02  0.51100000000E-03 0. -1.
         11   -1    0    0    0    0 -0.00000000000E+00 -0.00000000000E+00 -0.45593999997E+02  0.45594000000E+02  0.51100000000E-03 0.  1.
    9900012    2    1    2    0    0 -0.25715106001E+02 -0.30655167882E+01 -0.18602641802E+02  0.59301916016E+02  0.49999948913E+02 0.  0.
         12    1    1    2    0    0  0.25715106001E+02  0.30655167882E+01  0.18602641802E+02  0.31886083984E+02  0.00000000000E+00 0. -1.
         11    1    3    3    0    0 -0.44535064000E+01  0.16474110403E+02 -0.12403579844E+02  0.21096891383E+02  0.51100000000E-03 0.  1.
        -11    1    3    3    0    0 -0.22338277551E+02 -0.22173704069E+02 -0.10034892535E+00  0.31475099146E+02  0.51100000000E-03 0. -1.
         12    1    3    3    0    0  0.10766779496E+01  0.26340768780E+01 -0.60987130327E+01  0.67299254871E+01  0.00000000000E+00 0. -1.
</event>
<event>
 7    1  0.7579108E-012  0.5930191E+02  0.7816164E-02  0.1266605E+00
        -11   -1    0    0    0    0  0.00000000000E+00  0.00000000000E+00  0.45593999997E+02  0.45594000000E+02  0.51100000000E-03 0.  1.
         11   -1    0    0    0    0 -0.00000000000E+00 -0.00000000000E+00 -0.45593999997E+02  0.45594000000E+02  0.51100000000E-03 0. -1.
    9900012    2    1    2    0    0  0.79292650543E+01 -0.18549333514E+02  0.24693556437E+02  0.59301909809E+02  0.49999937594E+02 0.  0.
         12    1    1    2    0    0 -0.79292650543E+01  0.18549333514E+02 -0.24693556437E+02  0.31886090191E+02  0.00000000000E+00 0. -1.
         11    1    3    3    0    0  0.13090657641E+02 -0.15109386827E+01 -0.76089822680E+01  0.15216598325E+02  0.51100000000E-03 0. -1.
        -11    1    3    3    0    0  0.55064868852E+00 -0.84282340551E+01  0.32672044230E+02  0.33746123003E+02  0.51100000000E-03 0.  1.
        -12    1    3    3    0    0 -0.57120412753E+01 -0.86101607761E+01 -0.36950552490E+00  0.10339188481E+02  0.00000000000E+00 0.  1.
</event>
<event>
 7    1  0.7579108E-012  0.5930193E+02  0.7816164E-02  0.1266605E+00
        -11   -1    0    0    0    0  0.00000000000E+00  0.00000000000E+00  0.45593999997E+02  0.45594000000E+02  0.51100000000E-03 0.  1.
         11   -1    0    0    0    0 -0.00000000000E+00 -0.00000000000E+00 -0.45593999997E+02  0.45594000000E+02  0.51100000000E-03 0. -1.
    9900012    2    1    2    0    0 -0.18941870429E+02 -0.21357494616E+01  0.25561016430E+02  0.59301930282E+02  0.49999974931E+02 0.  0.
         12    1    1    2    0    0  0.18941870429E+02  0.21357494616E+01 -0.25561016430E+02  0.31886069718E+02  0.00000000000E+00 0. -1.
         11    1    3    3    0    0 -0.27357977266E+01  0.98607403666E+01 -0.25163770548E+01  0.10538071148E+02  0.51100000000E-03 0. -1.
        -11    1    3    3    0    0 -0.24124923025E+02 -0.92776093886E+01  0.30565682262E+02  0.40029325242E+02  0.51100000000E-03 0.  1.
         12    1    3    3    0    0  0.79188503227E+01 -0.27188804396E+01 -0.24882887766E+01  0.87345338922E+01  0.00000000000E+00 0. -1.
</event>
<event>
 7    1  0.7579108E-012  0.5930200E+02  0.7816164E-02  0.1266605E+00
        -11   -1    0    0    0    0  0.00000000000E+00  0.00000000000E+00  0.45593999997E+02  0.45594000000E+02  0.51100000000E-03 0.  1.
         11   -1    0    0    0    0 -0.00000000000E+00 -0.00000000000E+00 -0.45593999997E+02  0.45594000000E+02  0.51100000000E-03 0. -1.
    9900012    2    1    2    0    0  0.30406949827E+02  0.93876861498E+01 -0.20013841580E+01  0.59302003268E+02  0.50000108040E+02 0.  0.
         12    1    1    2    0    0 -0.30406949827E+02 -0.93876861498E+01  0.20013841580E+01  0.31885996732E+02  0.00000000000E+00 0. -1.
         11    1    3    3    0    0  0.42990613927E+01  0.17079724634E+02  0.14821185151E+01  0.17674716348E+02  0.51100000000E-03 0. -1.
        -11    1    3    3    0    0  0.15939657905E+02 -0.16591868299E+02  0.75150249270E+01  0.24204098573E+02  0.51100000000E-03 0.  1.
        -12    1    3    3    0    0  0.10168230529E+02  0.88998298150E+01 -0.10998527600E+02  0.17423188348E+02  0.00000000000E+00 0.  1.
</event>
<event>
 7    1  0.7579108E-012  0.5930189E+02  0.7816164E-02  0.1266605E+00
        -11   -1    0    0    0    0  0.00000000000E+00  0.00000000000E+00  0.45593999997E+02  0.45594000000E+02  0.51100000000E-03 0.  1.
         11   -1    0    0    0    0 -0.00000000000E+00 -0.00000000000E+00 -0.45593999997E+02  0.45594000000E+02  0.51100000000E-03 0. -1.
    9900012    2    1    2    0    0  0.25116783053E+02  0.39377003715E+01  0.19244896667E+02  0.59301885108E+02  0.49999892545E+02 0.  0.
         12    1    1    2    0    0 -0.25116783053E+02 -0.39377003715E+01 -0.19244896667E+02  0.31886114892E+02  0.00000000000E+00 0. -1.
         11    1    3    3    0    0  0.47311882687E+01  0.22496520792E+02 -0.78957639333E+00  0.23002196011E+02  0.51100000000E-03 0. -1.
        -11    1    3    3    0    0  0.19090578999E+02 -0.10139586294E+02  0.15880231521E+02  0.26822437812E+02  0.51100000000E-03 0.  1.
        -12    1    3    3    0    0  0.12950157854E+01 -0.84192341263E+01  0.41542415392E+01  0.94772512853E+01  0.00000000000E+00 0.  1.
</event>
<event>
 7    1  0.7579108E-012  0.5930197E+02  0.7816164E-02  0.1266605E+00
        -11   -1    0    0    0    0  0.00000000000E+00  0.00000000000E+00  0.45593999997E+02  0.45594000000E+02  0.51100000000E-03 0. -1.
         11   -1    0    0    0    0 -0.00000000000E+00 -0.00000000000E+00 -0.45593999997E+02  0.45594000000E+02  0.51100000000E-03 0.  1.
    9900012    2    1    2    0    0  0.25577965370E+02  0.16009185717E+02 -0.10304984062E+02  0.59301968006E+02  0.50000043731E+02 0.  0.
         12    1    1    2    0    0 -0.25577965370E+02 -0.16009185717E+02  0.10304984062E+02  0.31886031994E+02  0.00000000000E+00 0. -1.
         11    1    3    3    0    0  0.36508726690E+02  0.83354994540E+01 -0.70887591305E+01  0.38113228438E+02  0.51100000000E-03 0. -1.
        -11    1    3    3    0    0 -0.70710956473E+01  0.37063607723E+01 -0.97656366059E+01  0.12613689484E+02  0.51100000000E-03 0.  1.
         12    1    3    3    0    0 -0.38596656731E+01  0.39673254912E+01  0.65494116740E+01  0.85750500836E+01  0.00000000000E+00 0. -1.
</event>
<event>
 7    1  0.7579108E-012  0.5930193E+02  0.7816164E-02  0.1266605E+00
        -11   -1    0    0    0    0  0.00000000000E+00  0.00000000000E+00  0.45593999997E+02  0.45594000000E+02  0.51100000000E-03 0.  1.
         11   -1    0    0    0    0 -0.00000000000E+00 -0.00000000000E+00 -0.45593999997E+02  0.45594000000E+02  0.51100000000E-03 0. -1.
    9900012    2    1    2    0    0  0.19850544267E+02  0.76604086274E+01  0.23748583531E+02  0.59301934269E+02  0.49999982203E+02 0.  0.
         12    1    1    2    0    0 -0.19850544267E+02 -0.76604086274E+01 -0.23748583531E+02  0.31886065731E+02  0.00000000000E+00 0. -1.
         11    1    3    3    0    0  0.13005847507E+01 -0.30398802431E+01 -0.12867983752E+01  0.35479913903E+01  0.51100000000E-03 0. -1.
        -11    1    3    3    0    0  0.43554429626E+01  0.17932469899E+02  0.33101212569E+02  0.37897673199E+02  0.51100000000E-03 0.  1.
        -12    1    3    3    0    0  0.14194516554E+02 -0.72321810286E+01 -0.80658306621E+01  0.17856269680E+02  0.00000000000E+00 0.  1.
</event>
<event>
 7    1  0.7579108E-012  0.5930201E+02  0.7816164E-02  0.1266605E+00
        -11   -1    0    0    0    0  0.00000000000E+00  0.00000000000E+00  0.45593999997E+02  0.45594000000E+02  0.51100000000E-03 0. -1.
         11   -1    0    0    0    0 -0.00000000000E+00 -0.00000000000E+00 -0.45593999997E+02  0.45594000000E+02  0.51100000000E-03 0.  1.
    9900012    2    1    2    0    0  0.16558498102E+02  0.22949980062E+02 -0.14691189879E+02  0.59302007710E+02  0.50000116141E+02 0.  0.
         12    1    1    2    0    0 -0.16558498102E+02 -0.22949980062E+02  0.14691189879E+02  0.31885992290E+02  0.00000000000E+00 0. -1.
         11    1    3    3    0    0 -0.15076189222E+02  0.13996608444E+02 -0.11033080800E+02  0.23343637283E+02  0.51100000000E-03 0. -1.
        -11    1    3    3    0    0  0.14397506659E+02  0.91744287760E+01 -0.69067469465E+01  0.18416337720E+02  0.51100000000E-03 0.  1.
         12    1    3    3    0    0  0.17237180664E+02 -0.22105715742E+00  0.32486378674E+01  0.17542032708E+02  0.00000000000E+00 0. -1.
</event>
<event>
 7    1  0.7579108E-012  0.5930195E+02  0.7816164E-02  0.1266605E+00
        -11   -1    0    0    0    0  0.00000000000E+00  0.00000000000E+00  0.45593999997E+02  0.45594000000E+02  0.51100000000E-03 0.  1.
         11   -1    0    0    0    0 -0.00000000000E+00 -0.00000000000E+00 -0.45593999997E+02  0.45594000000E+02  0.51100000000E-03 0. -1.
    9900012    2    1    2    0    0  0.25775308491E+02 -0.61825417205E+01  0.17723701850E+02  0.59301953566E+02  0.50000017395E+02 0.  0.
         12    1    1    2    0    0 -0.25775308491E+02  0.61825417205E+01 -0.17723701850E+02  0.31886046434E+02  0.00000000000E+00 0. -1.
         11    1    3    3    0    0  0.19526363711E+02  0.54520751483E+01  0.80482170175E+01  0.21812331389E+02  0.51100000000E-03 0. -1.
        -11    1    3    3    0    0 -0.83859423201E+01 -0.53230439593E+01  0.17202173215E+02  0.19863876489E+02  0.51100000000E-03 0.  1.
        -12    1    3    3    0    0  0.14634887100E+02 -0.63115729095E+01 -0.75266883833E+01  0.17625745688E+02  0.00000000000E+00 0.  1.
</event>
<event>
 7    1  0.7579108E-012  0.5930194E+02  0.7816164E-02  0.1266605E+00
        -11   -1    0    0    0    0  0.00000000000E+00  0.00000000000E+00  0.45593999997E+02  0.45594000000E+02  0.51100000000E-03 0.  1.
         11   -1    0    0    0    0 -0.00000000000E+00 -0.00000000000E+00 -0.45593999997E+02  0.45594000000E+02  0.51100000000E-03 0. -1.
    9900012    2    1    2    0    0  0.26235111258E+01 -0.25580708320E+02  0.18853781580E+02  0.59301944605E+02  0.50000001053E+02 0.  0.
         12    1    1    2    0    0 -0.26235111258E+01  0.25580708320E+02 -0.18853781580E+02  0.31886055395E+02  0.00000000000E+00 0. -1.
         11    1    3    3    0    0 -0.16847390003E+02 -0.79076305871E+01  0.10018426397E+02  0.21136083817E+02  0.51100000000E-03 0. -1.
        -11    1    3    3    0    0  0.60854807627E+01 -0.35814938251E+00  0.14354377541E+02  0.15595175598E+02  0.51100000000E-03 0.  1.
         12    1    3    3    0    0  0.13385420366E+02 -0.17314928351E+02 -0.55190223572E+01  0.22570685190E+02  0.00000000000E+00 0. -1.
</event>
<event>
 7    1  0.7579108E-012  0.5930195E+02  0.7816164E-02  0.1266605E+00
        -11   -1    0    0    0    0  0.00000000000E+00  0.00000000000E+00  0.45593999997E+02  0.45594000000E+02  0.51100000000E-03 0.  1.
         11   -1    0    0    0    0 -0.00000000000E+00 -0.00000000000E+00 -0.45593999997E+02  0.45594000000E+02  0.51100000000E-03 0. -1.
    9900012    2    1    2    0    0 -0.46558590789E+01 -0.31699910190E+01  0.31384615819E+02  0.59301953257E+02  0.50000016831E+02 0.  0.
         12    1    1    2    0    0  0.46558590789E+01  0.31699910190E+01 -0.31384615819E+02  0.31886046743E+02  0.00000000000E+00 0. -1.
         11    1    3    3    0    0 -0.13117441027E+02 -0.82173867944E+01  0.55452515009E+01  0.16442095952E+02  0.51100000000E-03 0. -1.
        -11    1    3    3    0    0  0.19542057273E+02 -0.31682895560E+01  0.19094660494E+02  0.27505201705E+02  0.51100000000E-03 0.  1.
        -12    1    3    3    0    0 -0.11080475325E+02  0.82156853315E+01  0.67447038236E+01  0.15354655599E+02  0.00000000000E+00 0.  1.
</event>
<event>
 7    1  0.7579108E-012  0.5930195E+02  0.7816164E-02  0.1266605E+00
        -11   -1    0    0    0    0  0.00000000000E+00  0.00000000000E+00  0.45593999997E+02  0.45594000000E+02  0.51100000000E-03 0.  1.
         11   -1    0    0    0    0 -0.00000000000E+00 -0.00000000000E+00 -0.45593999997E+02  0.45594000000E+02  0.51100000000E-03 0. -1.
    9900012    2    1    2    0    0  0.18632890577E+02 -0.22246448245E+02  0.13214812307E+02  0.59301947640E+02  0.50000006589E+02 0.  0.
         12    1    1    2    0    0 -0.18632890577E+02  0.22246448245E+02 -0.13214812307E+02  0.31886052360E+02  0.00000000000E+00 0. -1.
         11    1    3    3    0    0 -0.46184854939E+01 -0.76176809529E+01  0.32804215720E+00  0.89144311808E+01  0.51100000000E-03 0. -1.
        -11    1    3    3    0    0  0.25747255689E+02  0.68675325675E+01  0.38020751230E+01  0.26917279851E+02  0.51100000000E-03 0.  1.
        -12    1    3    3    0    0 -0.24958796181E+01 -0.21496299859E+02  0.90846950270E+01  0.23470236608E+02  0.00000000000E+00 0.  1.
</event>
<event>
 7    1  0.7579108E-012  0.5930195E+02  0.7816164E-02  0.1266605E+00
        -11   -1    0    0    0    0  0.00000000000E+00  0.00000000000E+00  0.45593999997E+02  0.45594000000E+02  0.51100000000E-03 0.  1.
         11   -1    0    0    0    0 -0.00000000000E+00 -0.00000000000E+00 -0.45593999997E+02  0.45594000000E+02  0.51100000000E-03 0. -1.
    9900012    2    1    2    0    0 -0.74912577634E+01  0.26207364644E+02  0.16546163376E+02  0.59301946200E+02  0.50000003962E+02 0.  0.
         12    1    1    2    0    0  0.74912577634E+01 -0.26207364644E+02 -0.16546163376E+02  0.31886053800E+02  0.00000000000E+00 0. -1.
         11    1    3    3    0    0  0.14165169161E+02 -0.25025009382E+01 -0.33873542143E+01  0.14777980144E+02  0.51100000000E-03 0. -1.
        -11    1    3    3    0    0 -0.36492759231E+01  0.14539891776E+02  0.14057285615E+01  0.15056617837E+02  0.51100000000E-03 0.  1.
         12    1    3    3    0    0 -0.18007151001E+02  0.14169973806E+02  0.18527789028E+02  0.29467348220E+02  0.00000000000E+00 0. -1.
</event>
<event>
 7    1  0.7579108E-012  0.5930193E+02  0.7816164E-02  0.1266605E+00
        -11   -1    0    0    0    0  0.00000000000E+00  0.00000000000E+00  0.45593999997E+02  0.45594000000E+02  0.51100000000E-03 0. -1.
         11   -1    0    0    0    0 -0.00000000000E+00 -0.00000000000E+00 -0.45593999997E+02  0.45594000000E+02  0.51100000000E-03 0.  1.
    9900012    2    1    2    0    0 -0.52802811670E+01 -0.29650094392E+02 -0.10474356618E+02  0.59301927598E+02  0.49999970036E+02 0.  0.
         12    1    1    2    0    0  0.52802811670E+01  0.29650094392E+02  0.10474356618E+02  0.31886072402E+02  0.00000000000E+00 0. -1.
         11    1    3    3    0    0  0.16398751406E+02 -0.23538822226E+02 -0.14419747722E+02  0.32108010279E+02  0.51100000000E-03 0. -1.
        -11    1    3    3    0    0 -0.13721804419E+02  0.18665158158E+01  0.70036825101E+01  0.15518484680E+02  0.51100000000E-03 0.  1.
         12    1    3    3    0    0 -0.79572281545E+01 -0.79777879824E+01 -0.30582914057E+01  0.11675432639E+02  0.00000000000E+00 0. -1.
</event>
<event>
 7    1  0.7579108E-012  0.5930216E+02  0.7816164E-02  0.1266604E+00
        -11   -1    0    0    0    0  0.00000000000E+00  0.00000000000E+00  0.45593999997E+02  0.45594000000E+02  0.51100000000E-03 0. -1.
         11   -1    0    0    0    0 -0.00000000000E+00 -0.00000000000E+00 -0.45593999997E+02  0.45594000000E+02  0.51100000000E-03 0.  1.
    9900012    2    1    2    0    0 -0.44732397568E+01 -0.22607115235E+02 -0.22036685121E+02  0.59302156366E+02  0.50000387252E+02 0.  0.
         12    1    1    2    0    0  0.44732397568E+01  0.22607115235E+02  0.22036685121E+02  0.31885843634E+02  0.00000000000E+00 0. -1.
         11    1    3    3    0    0 -0.10582242323E+02  0.67341101198E+01  0.38763769287E+01  0.13128533431E+02  0.51100000000E-03 0. -1.
        -11    1    3    3    0    0 -0.23112113379E+01 -0.16204829313E+02 -0.25818308962E+02  0.30569973320E+02  0.51100000000E-03 0.  1.
         12    1    3    3    0    0  0.84202139039E+01 -0.13136396042E+02 -0.94753087940E-01  0.15603649615E+02  0.00000000000E+00 0. -1.
</event>
<event>
 7    1  0.7579108E-012  0.5930191E+02  0.7816164E-02  0.1266605E+00
        -11   -1    0    0    0    0  0.00000000000E+00  0.00000000000E+00  0.45593999997E+02  0.45594000000E+02  0.51100000000E-03 0. -1.
         11   -1    0    0    0    0 -0.00000000000E+00 -0.00000000000E+00 -0.45593999997E+02  0.45594000000E+02  0.51100000000E-03 0.  1.
    9900012    2    1    2    0    0  0.29730980160E+00  0.23226806155E+02 -0.21843758017E+02  0.59301910845E+02  0.49999939483E+02 0.  0.
         12    1    1    2    0    0 -0.29730980160E+00 -0.23226806155E+02  0.21843758017E+02  0.31886089155E+02  0.00000000000E+00 0. -1.
         11    1    3    3    0    0  0.74467199812E+01 -0.65836484980E+01  0.11895663140E+01  0.10010651043E+02  0.51100000000E-03 0. -1.
        -11    1    3    3    0    0 -0.13023917510E+02  0.16849478220E+02 -0.27123519190E+02  0.34484962478E+02  0.51100000000E-03 0.  1.
         12    1    3    3    0    0  0.58745073306E+01  0.12960976433E+02  0.40901948588E+01  0.14806297325E+02  0.00000000000E+00 0. -1.
</event>
<event>
 7    1  0.7579108E-012  0.5930196E+02  0.7816164E-02  0.1266605E+00
        -11   -1    0    0    0    0  0.00000000000E+00  0.00000000000E+00  0.45593999997E+02  0.45594000000E+02  0.51100000000E-03 0.  1.
         11   -1    0    0    0    0 -0.00000000000E+00 -0.00000000000E+00 -0.45593999997E+02  0.45594000000E+02  0.51100000000E-03 0. -1.
    9900012    2    1    2    0    0 -0.16854364464E+02  0.24780502264E+02  0.10889299410E+02  0.59301957041E+02  0.50000023734E+02 0.  0.
         12    1    1    2    0    0  0.16854364464E+02 -0.24780502264E+02 -0.10889299410E+02  0.31886042959E+02  0.00000000000E+00 0. -1.
         11    1    3    3    0    0 -0.62065723833E+01  0.31608817823E+02  0.63056091112E+01  0.32823765955E+02  0.51100000000E-03 0.  1.
        -11    1    3    3    0    0 -0.10983265984E+02 -0.11468920386E+02 -0.42983880695E+01  0.16451273712E+02  0.51100000000E-03 0. -1.
        -12    1    3    3    0    0  0.33547390395E+00  0.46406048260E+01  0.88820783680E+01  0.10026917374E+02  0.00000000000E+00 0.  1.
</event>
<event>
 7    1  0.7579108E-012  0.5930197E+02  0.7816164E-02  0.1266605E+00
        -11   -1    0    0    0    0  0.00000000000E+00  0.00000000000E+00  0.45593999997E+02  0.45594000000E+02  0.51100000000E-03 0.  1.
         11   -1    0    0    0    0 -0.00000000000E+00 -0.00000000000E+00 -0.45593999997E+02  0.45594000000E+02  0.51100000000E-03 0. -1.
    9900012    2    1    2    0    0 -0.25300271528E+02  0.16123380168E+02 -0.10800532730E+02  0.59301974304E+02  0.50000055217E+02 0.  0.
         12    1    1    2    0    0  0.25300271528E+02 -0.16123380168E+02  0.10800532730E+02  0.31886025696E+02  0.00000000000E+00 0. -1.
         11    1    3    3    0    0 -0.69619869568E+01  0.22149288039E+02  0.67021622187E+01  0.24165661623E+02  0.51100000000E-03 0. -1.
        -11    1    3    3    0    0 -0.17983247305E+02 -0.11438053280E+02 -0.55693991989E+01  0.22028264892E+02  0.51100000000E-03 0.  1.
         12    1    3    3    0    0 -0.35503726668E+00  0.54121454089E+01 -0.11933295750E+02  0.13108047789E+02  0.00000000000E+00 0. -1.
</event>
<event>
 7    1  0.7579108E-012  0.5930183E+02  0.7816164E-02  0.1266605E+00
        -11   -1    0    0    0    0  0.00000000000E+00  0.00000000000E+00  0.45593999997E+02  0.45594000000E+02  0.51100000000E-03 0.  1.
         11   -1    0    0    0    0 -0.00000000000E+00 -0.00000000000E+00 -0.45593999997E+02  0.45594000000E+02  0.51100000000E-03 0. -1.
    9900012    2    1    2    0    0  0.38832152591E+01 -0.47165484456E+01  0.31295407912E+02  0.59301831426E+02  0.49999794641E+02 0.  0.
         12    1    1    2    0    0 -0.38832152591E+01  0.47165484456E+01 -0.31295407912E+02  0.31886168574E+02  0.00000000000E+00 0. -1.
         11    1    3    3    0    0 -0.91206021886E+01  0.34151515144E+01  0.12338831833E+02  0.15719268921E+02  0.51100000000E-03 0. -1.
        -11    1    3    3    0    0  0.11710007480E+02 -0.17361417297E+02  0.24894915554E+02  0.32531521736E+02  0.51100000000E-03 0.  1.
        -12    1    3    3    0    0  0.12938099681E+01  0.92297173372E+01 -0.59383394753E+01  0.11051040769E+02  0.00000000000E+00 0.  1.
</event>
<event>
 7    1  0.7579108E-012  0.5930196E+02  0.7816164E-02  0.1266605E+00
        -11   -1    0    0    0    0  0.00000000000E+00  0.00000000000E+00  0.45593999997E+02  0.45594000000E+02  0.51100000000E-03 0. -1.
         11   -1    0    0    0    0 -0.00000000000E+00 -0.00000000000E+00 -0.45593999997E+02  0.45594000000E+02  0.51100000000E-03 0.  1.
    9900012    2    1    2    0    0  0.13647291481E+02 -0.22975595009E+02 -0.17395209134E+02  0.59301955535E+02  0.50000020987E+02 0.  0.
         12    1    1    2    0    0 -0.13647291481E+02  0.22975595009E+02  0.17395209134E+02  0.31886044465E+02  0.00000000000E+00 0. -1.
         11    1    3    3    0    0  0.11956462209E+02 -0.21183868646E+02  0.17239029832E+01  0.24386166593E+02  0.51100000000E-03 0. -1.
        -11    1    3    3    0    0 -0.50927858460E+01  0.25077715987E+01 -0.24564836871E+02  0.25212231095E+02  0.51100000000E-03 0.  1.
        -12    1    3    3    0    0  0.67836151180E+01 -0.42994979624E+01  0.54457247537E+01  0.97035578471E+01  0.00000000000E+00 0.  1.
</event>
<event>
 7    1  0.7579108E-012  0.5930198E+02  0.7816164E-02  0.1266605E+00
        -11   -1    0    0    0    0  0.00000000000E+00  0.00000000000E+00  0.45593999997E+02  0.45594000000E+02  0.51100000000E-03 0.  1.
         11   -1    0    0    0    0 -0.00000000000E+00 -0.00000000000E+00 -0.45593999997E+02  0.45594000000E+02  0.51100000000E-03 0. -1.
    9900012    2    1    2    0    0  0.24452596726E+02  0.14662627184E+02  0.14275728459E+02  0.59301975701E+02  0.50000057764E+02 0.  0.
         12    1    1    2    0    0 -0.24452596726E+02 -0.14662627184E+02 -0.14275728459E+02  0.31886024299E+02  0.00000000000E+00 0. -1.
         11    1    3    3    0    0  0.25391489272E+02  0.17101359830E+02  0.15400232384E+02  0.34268810794E+02  0.51100000000E-03 0.  1.
        -11    1    3    3    0    0  0.57315333220E+01 -0.96486896285E+01 -0.73396693533E+01  0.13409639527E+02  0.51100000000E-03 0. -1.
         12    1    3    3    0    0 -0.66704258686E+01  0.72099569824E+01  0.62151654280E+01  0.11623525380E+02  0.00000000000E+00 0. -1.
</event>
<event>
 7    1  0.7579108E-012  0.5930192E+02  0.7816164E-02  0.1266605E+00
        -11   -1    0    0    0    0  0.00000000000E+00  0.00000000000E+00  0.45593999997E+02  0.45594000000E+02  0.51100000000E-03 0.  1.
         11   -1    0    0    0    0 -0.00000000000E+00 -0.00000000000E+00 -0.45593999997E+02  0.45594000000E+02  0.51100000000E-03 0. -1.
    9900012    2    1    2    0    0  0.18776482358E+02 -0.19072800258E+01  0.25700744015E+02  0.59301917617E+02  0.49999951833E+02 0.  0.
         12    1    1    2    0    0 -0.18776482358E+02  0.19072800258E+01 -0.25700744015E+02  0.31886082383E+02  0.00000000000E+00 0. -1.
         11    1    3    3    0    0 -0.89004441853E+01  0.64011277568E+01 -0.53251436418E+01  0.12188088378E+02  0.51100000000E-03 0. -1.
        -11    1    3    3    0    0  0.19016753574E+02 -0.15191911334E+02  0.20117378464E+02  0.31577523699E+02  0.51100000000E-03 0.  1.
        -12    1    3    3    0    0  0.86601729693E+01  0.68835035510E+01  0.10908509193E+02  0.15536305539E+02  0.00000000000E+00 0.  1.
</event>
<event>
 7    1  0.7579108E-012  0.5930193E+02  0.7816164E-02  0.1266605E+00
        -11   -1    0    0    0    0  0.00000000000E+00  0.00000000000E+00  0.45593999997E+02  0.45594000000E+02  0.51100000000E-03 0. -1.
         11   -1    0    0    0    0 -0.00000000000E+00 -0.00000000000E+00 -0.45593999997E+02  0.45594000000E+02  0.51100000000E-03 0.  1.
    9900012    2    1    2    0    0  0.20354761165E+01  0.17177611485E+02 -0.26786341293E+02  0.59301928131E+02  0.49999971009E+02 0.  0.
         12    1    1    2    0    0 -0.20354761165E+01 -0.17177611485E+02  0.26786341293E+02  0.31886071869E+02  0.00000000000E+00 0. -1.
         11    1    3    3    0    0 -0.93902440244E+01  0.17410522145E+01 -0.52960346378E+01  0.10920436292E+02  0.51100000000E-03 0. -1.
        -11    1    3    3    0    0  0.24548634937E+02  0.71121773614E+01 -0.56184915379E+01  0.26168415915E+02  0.51100000000E-03 0.  1.
        -12    1    3    3    0    0 -0.13122914796E+02  0.83243819091E+01 -0.15871815117E+02  0.22213075925E+02  0.00000000000E+00 0.  1.
</event>
<event>
 7    1  0.7579108E-012  0.5930196E+02  0.7816164E-02  0.1266605E+00
        -11   -1    0    0    0    0  0.00000000000E+00  0.00000000000E+00  0.45593999997E+02  0.45594000000E+02  0.51100000000E-03 0. -1.
         11   -1    0    0    0    0 -0.00000000000E+00 -0.00000000000E+00 -0.45593999997E+02  0.45594000000E+02  0.51100000000E-03 0.  1.
    9900012    2    1    2    0    0 -0.13077778268E+02 -0.28708266525E+02  0.46396893252E+01  0.59301959663E+02  0.50000028516E+02 0.  0.
         12    1    1    2    0    0  0.13077778268E+02  0.28708266525E+02 -0.46396893252E+01  0.31886040337E+02  0.00000000000E+00 0. -1.
         11    1    3    3    0    0  0.81809218710E+01  0.24814361299E+01 -0.36662428052E+01  0.93019537998E+01  0.51100000000E-03 0.  1.
        -11    1    3    3    0    0 -0.28315804809E+02 -0.16163189831E+02  0.39934081665E+01  0.32847843408E+02  0.51100000000E-03 0. -1.
         12    1    3    3    0    0  0.70571046702E+01 -0.15026512824E+02  0.43125239638E+01  0.17152162456E+02  0.00000000000E+00 0. -1.
</event>
<event>
 7    1  0.7579108E-012  0.5930196E+02  0.7816164E-02  0.1266605E+00
        -11   -1    0    0    0    0  0.00000000000E+00  0.00000000000E+00  0.45593999997E+02  0.45594000000E+02  0.51100000000E-03 0. -1.
         11   -1    0    0    0    0 -0.00000000000E+00 -0.00000000000E+00 -0.45593999997E+02  0.45594000000E+02  0.51100000000E-03 0.  1.
    9900012    2    1    2    0    0 -0.27078995237E+02  0.35741871277E+01 -0.16452132881E+02  0.59301961158E+02  0.50000031242E+02 0.  0.
         12    1    1    2    0    0  0.27078995237E+02 -0.35741871277E+01  0.16452132881E+02  0.31886038842E+02  0.00000000000E+00 0. -1.
         11    1    3    3    0    0 -0.15825855707E+02 -0.12222724568E+02  0.10880640866E+02  0.22764908316E+02  0.51100000000E-03 0. -1.
        -11    1    3    3    0    0 -0.11543518917E+02  0.75915383808E+01 -0.23965695537E+02  0.27662950798E+02  0.51100000000E-03 0.  1.
        -12    1    3    3    0    0  0.29037938678E+00  0.82053733150E+01 -0.33670782093E+01  0.88741020444E+01  0.00000000000E+00 0.  1.
</event>
<event>
 7    1  0.7579108E-012  0.5930191E+02  0.7816164E-02  0.1266605E+00
        -11   -1    0    0    0    0  0.00000000000E+00  0.00000000000E+00  0.45593999997E+02  0.45594000000E+02  0.51100000000E-03 0. -1.
         11   -1    0    0    0    0 -0.00000000000E+00 -0.00000000000E+00 -0.45593999997E+02  0.45594000000E+02  0.51100000000E-03 0.  1.
    9900012    2    1    2    0    0 -0.15173749970E+02  0.10168557550E+02 -0.26135814024E+02  0.59301905453E+02  0.49999929648E+02 0.  0.
         12    1    1    2    0    0  0.15173749970E+02 -0.10168557550E+02  0.26135814024E+02  0.31886094547E+02  0.00000000000E+00 0. -1.
         11    1    3    3    0    0  0.60464070513E+00  0.81344544210E+01  0.71258214833E+01  0.10831078948E+02  0.51100000000E-03 0. -1.
        -11    1    3    3    0    0 -0.22743767067E+02  0.17625047122E+01 -0.34530835759E+02  0.41385552814E+02  0.51100000000E-03 0.  1.
        -12    1    3    3    0    0  0.69653763920E+01  0.27159841639E+00  0.12692002519E+01  0.70852736899E+01  0.00000000000E+00 0.  1.
</event>
<event>
 7    1  0.7579108E-012  0.5930192E+02  0.7816164E-02  0.1266605E+00
        -11   -1    0    0    0    0  0.00000000000E+00  0.00000000000E+00  0.45593999997E+02  0.45594000000E+02  0.51100000000E-03 0.  1.
         11   -1    0    0    0    0 -0.00000000000E+00 -0.00000000000E+00 -0.45593999997E+02  0.45594000000E+02  0.51100000000E-03 0. -1.
    9900012    2    1    2    0    0  0.21692206069E+02 -0.45789835832E+01  0.22917318682E+02  0.59301915412E+02  0.49999947812E+02 0.  0.
         12    1    1    2    0    0 -0.21692206069E+02  0.45789835832E+01 -0.22917318682E+02  0.31886084588E+02  0.00000000000E+00 0. -1.
         11    1    3    3    0    0 -0.13947461208E+01 -0.98421828380E+01  0.49143244544E+01  0.11088934343E+02  0.51100000000E-03 0. -1.
        -11    1    3    3    0    0  0.18879599542E+02  0.16062096220E+02  0.24562212719E+02  0.34896024240E+02  0.51100000000E-03 0.  1.
        -12    1    3    3    0    0  0.42073526477E+01 -0.10798896965E+02 -0.65592184914E+01  0.13316956829E+02  0.00000000000E+00 0.  1.
</event>
<event>
 7    1  0.7579108E-012  0.5930196E+02  0.7816164E-02  0.1266605E+00
        -11   -1    0    0    0    0  0.00000000000E+00  0.00000000000E+00  0.45593999997E+02  0.45594000000E+02  0.51100000000E-03 0. -1.
         11   -1    0    0    0    0 -0.00000000000E+00 -0.00000000000E+00 -0.45593999997E+02  0.45594000000E+02  0.51100000000E-03 0.  1.
    9900012    2    1    2    0    0 -0.31437812014E+02  0.52173636990E+01 -0.10782413873E+01  0.59301960536E+02  0.50000030107E+02 0.  0.
         12    1    1    2    0    0  0.31437812014E+02 -0.52173636990E+01  0.10782413873E+01  0.31886039464E+02  0.00000000000E+00 0. -1.
         11    1    3    3    0    0 -0.16394249911E+02 -0.13373340759E+02  0.12939860586E+02  0.24800356156E+02  0.51100000000E-03 0. -1.
        -11    1    3    3    0    0 -0.17612462019E+02  0.83432943526E+01 -0.13897578001E+02  0.23936416891E+02  0.51100000000E-03 0.  1.
         12    1    3    3    0    0  0.25688999159E+01  0.10247410106E+02 -0.12052397260E+00  0.10565187489E+02  0.00000000000E+00 0. -1.
</event>
<event>
 7    1  0.7579108E-012  0.5930195E+02  0.7816164E-02  0.1266605E+00
        -11   -1    0    0    0    0  0.00000000000E+00  0.00000000000E+00  0.45593999997E+02  0.45594000000E+02  0.51100000000E-03 0. -1.
         11   -1    0    0    0    0 -0.00000000000E+00 -0.00000000000E+00 -0.45593999997E+02  0.45594000000E+02  0.51100000000E-03 0.  1.
    9900012    2    1    2    0    0  0.29716115435E+02 -0.10411852315E+02  0.50265077299E+01  0.59301953442E+02  0.50000017169E+02 0.  0.
         12    1    1    2    0    0 -0.29716115435E+02  0.10411852315E+02 -0.50265077299E+01  0.31886046558E+02  0.00000000000E+00 0. -1.
         11    1    3    3    0    0  0.63574200718E+01  0.13888417350E+01  0.22335780669E+02  0.23264409936E+02  0.51100000000E-03 0. -1.
        -11    1    3    3    0    0  0.25751736244E+02 -0.10493169904E+02 -0.18122856251E+02  0.33191813044E+02  0.51100000000E-03 0.  1.
        -12    1    3    3    0    0 -0.23930408809E+01 -0.13075241462E+01  0.81358331242E+00  0.28457304610E+01  0.00000000000E+00 0.  1.
</event>
<event>
 7    1  0.7579108E-012  0.5930196E+02  0.7816164E-02  0.1266605E+00
        -11   -1    0    0    0    0  0.00000000000E+00  0.00000000000E+00  0.45593999997E+02  0.45594000000E+02  0.51100000000E-03 0. -1.
         11   -1    0    0    0    0 -0.00000000000E+00 -0.00000000000E+00 -0.45593999997E+02  0.45594000000E+02  0.51100000000E-03 0.  1.
    9900012    2    1    2    0    0 -0.18234012610E+02 -0.24550617134E+02  0.90281526607E+01  0.59301959825E+02  0.50000028811E+02 0.  0.
         12    1    1    2    0    0  0.18234012610E+02  0.24550617134E+02 -0.90281526607E+01  0.31886040175E+02  0.00000000000E+00 0. -1.
         11    1    3    3    0    0 -0.23717615214E+02  0.94494726570E+00  0.19505387364E+02  0.30722602970E+02  0.51100000000E-03 0. -1.
        -11    1    3    3    0    0  0.40079817871E+01 -0.98407160787E+01 -0.61222551653E+01  0.12263181460E+02  0.51100000000E-03 0.  1.
         12    1    3    3    0    0  0.14756208168E+01 -0.15654848321E+02 -0.43549795376E+01  0.16316175395E+02  0.00000000000E+00 0. -1.
</event>
<event>
 7    1  0.7579108E-012  0.5930194E+02  0.7816164E-02  0.1266605E+00
        -11   -1    0    0    0    0  0.00000000000E+00  0.00000000000E+00  0.45593999997E+02  0.45594000000E+02  0.51100000000E-03 0.  1.
         11   -1    0    0    0    0 -0.00000000000E+00 -0.00000000000E+00 -0.45593999997E+02  0.45594000000E+02  0.51100000000E-03 0. -1.
    9900012    2    1    2    0    0  0.13821339364E+01  0.21124352083E+02  0.23844751051E+02  0.59301941952E+02  0.49999996214E+02 0.  0.
         12    1    1    2    0    0 -0.13821339364E+01 -0.21124352083E+02 -0.23844751051E+02  0.31886058048E+02  0.00000000000E+00 0. -1.
         11    1    3    3    0    0  0.10038106698E+02  0.15956735116E+02  0.59098747023E+01  0.19756204112E+02  0.51100000000E-03 0. -1.
        -11    1    3    3    0    0 -0.19115754908E+02  0.88601366927E+01  0.19040770118E+02  0.28398328029E+02  0.51100000000E-03 0.  1.
        -12    1    3    3    0    0  0.10459782145E+02 -0.36925197256E+01 -0.11058937688E+01  0.11147409810E+02  0.00000000000E+00 0.  1.
</event>
<event>
 7    1  0.7579108E-012  0.5930193E+02  0.7816164E-02  0.1266605E+00
        -11   -1    0    0    0    0  0.00000000000E+00  0.00000000000E+00  0.45593999997E+02  0.45594000000E+02  0.51100000000E-03 0. -1.
         11   -1    0    0    0    0 -0.00000000000E+00 -0.00000000000E+00 -0.45593999997E+02  0.45594000000E+02  0.51100000000E-03 0.  1.
    9900012    2    1    2    0    0  0.26386988196E+02 -0.15375633416E+02 -0.91672439585E+01  0.59301927636E+02  0.49999970105E+02 0.  0.
         12    1    1    2    0    0 -0.26386988196E+02  0.15375633416E+02  0.91672439585E+01  0.31886072364E+02  0.00000000000E+00 0. -1.
         11    1    3    3    0    0  0.53919471772E+01 -0.33018659130E+01  0.47689063458E+01  0.79194621576E+01  0.51100000000E-03 0. -1.
        -11    1    3    3    0    0 -0.10826954432E+02  0.20135438153E+01 -0.12348140750E+02  0.16545509397E+02  0.51100000000E-03 0.  1.
        -12    1    3    3    0    0  0.31821995451E+02 -0.14087311319E+02 -0.15880095546E+01  0.34836956081E+02  0.00000000000E+00 0.  1.
</event>
<event>
 7    1  0.7579108E-012  0.5930195E+02  0.7816164E-02  0.1266605E+00
        -11   -1    0    0    0    0  0.00000000000E+00  0.00000000000E+00  0.45593999997E+02  0.45594000000E+02  0.51100000000E-03 0.  1.
         11   -1    0    0    0    0 -0.00000000000E+00 -0.00000000000E+00 -0.45593999997E+02  0.45594000000E+02  0.51100000000E-03 0. -1.
    9900012    2    1    2    0    0 -0.26558093278E+02  0.11862659763E+02  0.13063891154E+02  0.59301948703E+02  0.50000008527E+02 0.  0.
         12    1    1    2    0    0  0.26558093278E+02 -0.11862659763E+02 -0.13063891154E+02  0.31886051297E+02  0.00000000000E+00 0. -1.
         11    1    3    3    0    0 -0.18816915199E+02  0.13666733502E+02 -0.54828114957E+01  0.23893872110E+02  0.51100000000E-03 0. -1.
        -11    1    3    3    0    0 -0.94284490881E+01 -0.13853462421E+02  0.56658898955E+01  0.17689442666E+02  0.51100000000E-03 0.  1.
        -12    1    3    3    0    0  0.16872710089E+01  0.12049388682E+02  0.12880812754E+02  0.17718633928E+02  0.00000000000E+00 0.  1.
</event>
<event>
 7    1  0.7579108E-012  0.5930176E+02  0.7816164E-02  0.1266605E+00
        -11   -1    0    0    0    0  0.00000000000E+00  0.00000000000E+00  0.45593999997E+02  0.45594000000E+02  0.51100000000E-03 0. -1.
         11   -1    0    0    0    0 -0.00000000000E+00 -0.00000000000E+00 -0.45593999997E+02  0.45594000000E+02  0.51100000000E-03 0.  1.
    9900012    2    1    2    0    0 -0.21605708021E+00 -0.16914729371E+02 -0.27029194829E+02  0.59301762789E+02  0.49999669463E+02 0.  0.
         12    1    1    2    0    0  0.21605708021E+00  0.16914729371E+02  0.27029194829E+02  0.31886237211E+02  0.00000000000E+00 0. -1.
         11    1    3    3    0    0 -0.18029329497E+01  0.33322614341E+01 -0.13127779885E+02  0.13663569755E+02  0.51100000000E-03 0. -1.
        -11    1    3    3    0    0 -0.76486505298E+01 -0.13980141389E+02  0.10308651008E+02  0.18979317534E+02  0.51100000000E-03 0.  1.
        -12    1    3    3    0    0  0.92355263993E+01 -0.62668494160E+01 -0.24210065953E+02  0.26658875500E+02  0.00000000000E+00 0.  1.
</event>
<event>
 7    1  0.7579108E-012  0.5930196E+02  0.7816164E-02  0.1266605E+00
        -11   -1    0    0    0    0  0.00000000000E+00  0.00000000000E+00  0.45593999997E+02  0.45594000000E+02  0.51100000000E-03 0. -1.
         11   -1    0    0    0    0 -0.00000000000E+00 -0.00000000000E+00 -0.45593999997E+02  0.45594000000E+02  0.51100000000E-03 0.  1.
    9900012    2    1    2    0    0 -0.11975908408E+02  0.27541386582E+02  0.10713043458E+02  0.59301958270E+02  0.50000025975E+02 0.  0.
         12    1    1    2    0    0  0.11975908408E+02 -0.27541386582E+02 -0.10713043458E+02  0.31886041730E+02  0.00000000000E+00 0. -1.
         11    1    3    3    0    0 -0.82089677986E+01  0.46652156745E+01  0.51377413160E+01  0.10749315127E+02  0.51100000000E-03 0.  1.
        -11    1    3    3    0    0  0.15774639677E+02  0.17989307815E+02  0.12822350125E+02  0.27145296380E+02  0.51100000000E-03 0. -1.
        -12    1    3    3    0    0 -0.19541580286E+02  0.48868630924E+01 -0.72470479824E+01  0.21407346763E+02  0.00000000000E+00 0.  1.
</event>
<event>
 7    1  0.7579108E-012  0.5930197E+02  0.7816164E-02  0.1266605E+00
        -11   -1    0    0    0    0  0.00000000000E+00  0.00000000000E+00  0.45593999997E+02  0.45594000000E+02  0.51100000000E-03 0. -1.
         11   -1    0    0    0    0 -0.00000000000E+00 -0.00000000000E+00 -0.45593999997E+02  0.45594000000E+02  0.51100000000E-03 0.  1.
    9900012    2    1    2    0    0  0.31839084466E+02  0.17250504498E+01 -0.12576899871E+00  0.59301969884E+02  0.50000047156E+02 0.  0.
         12    1    1    2    0    0 -0.31839084466E+02 -0.17250504498E+01  0.12576899871E+00  0.31886030116E+02  0.00000000000E+00 0. -1.
         11    1    3    3    0    0 -0.10578015973E+02 -0.18823154812E+01  0.47249302623E+01  0.11737227089E+02  0.51100000000E-03 0. -1.
        -11    1    3    3    0    0  0.14686247669E+02  0.91782155393E+01 -0.80530817639E+01  0.19099152788E+02  0.51100000000E-03 0.  1.
         12    1    3    3    0    0  0.27730852771E+02 -0.55708496084E+01  0.32023825030E+01  0.28465590007E+02  0.00000000000E+00 0. -1.
</event>
<event>
 7    1  0.7579108E-012  0.5930192E+02  0.7816164E-02  0.1266605E+00
        -11   -1    0    0    0    0  0.00000000000E+00  0.00000000000E+00  0.45593999997E+02  0.45594000000E+02  0.51100000000E-03 0.  1.
         11   -1    0    0    0    0 -0.00000000000E+00 -0.00000000000E+00 -0.45593999997E+02  0.45594000000E+02  0.51100000000E-03 0. -1.
    9900012    2    1    2    0    0  0.63203095412E+01 -0.28319393159E+02  0.13220725953E+02  0.59301922531E+02  0.49999960796E+02 0.  0.
         12    1    1    2    0    0 -0.63203095412E+01  0.28319393159E+02 -0.13220725953E+02  0.31886077469E+02  0.00000000000E+00 0. -1.
         11    1    3    3    0    0 -0.12793995443E+02 -0.18064986883E+02  0.10490837851E+02  0.24496688543E+02  0.51100000000E-03 0. -1.
        -11    1    3    3    0    0  0.14089476867E+02 -0.19489820902E+02  0.48384287351E+00  0.24054117763E+02  0.51100000000E-03 0.  1.
         12    1    3    3    0    0  0.50248281167E+01  0.92354146260E+01  0.22460452281E+01  0.10751116225E+02  0.00000000000E+00 0. -1.
</event>
<event>
 7    1  0.7579108E-012  0.5930197E+02  0.7816164E-02  0.1266605E+00
        -11   -1    0    0    0    0  0.00000000000E+00  0.00000000000E+00  0.45593999997E+02  0.45594000000E+02  0.51100000000E-03 0.  1.
         11   -1    0    0    0    0 -0.00000000000E+00 -0.00000000000E+00 -0.45593999997E+02  0.45594000000E+02  0.51100000000E-03 0. -1.
    9900012    2    1    2    0    0 -0.33335507447E+01  0.73448548700E+01  0.30848980824E+02  0.59301967454E+02  0.50000042725E+02 0.  0.
         12    1    1    2    0    0  0.33335507447E+01 -0.73448548700E+01 -0.30848980824E+02  0.31886032546E+02  0.00000000000E+00 0. -1.
         11    1    3    3    0    0 -0.34915377709E+01 -0.44611792174E+01  0.43707188998E+01  0.71551477957E+01  0.51100000000E-03 0. -1.
        -11    1    3    3    0    0  0.18596728539E+02  0.60911984398E+01  0.23741833744E+00  0.19570318815E+02  0.51100000000E-03 0.  1.
        -12    1    3    3    0    0 -0.18438741513E+02  0.57148356476E+01  0.26240843587E+02  0.32576500844E+02  0.00000000000E+00 0.  1.
</event>
<event>
 7    1  0.7579108E-012  0.5930186E+02  0.7816164E-02  0.1266605E+00
        -11   -1    0    0    0    0  0.00000000000E+00  0.00000000000E+00  0.45593999997E+02  0.45594000000E+02  0.51100000000E-03 0. -1.
         11   -1    0    0    0    0 -0.00000000000E+00 -0.00000000000E+00 -0.45593999997E+02  0.45594000000E+02  0.51100000000E-03 0.  1.
    9900012    2    1    2    0    0 -0.13984330374E+02 -0.24891860792E+02 -0.14197161183E+02  0.59301864842E+02  0.49999855583E+02 0.  0.
         12    1    1    2    0    0  0.13984330374E+02  0.24891860792E+02  0.14197161183E+02  0.31886135158E+02  0.00000000000E+00 0. -1.
         11    1    3    3    0    0  0.38724489887E+01 -0.91773695505E+01  0.31600939458E+01  0.10450175455E+02  0.51100000000E-03 0. -1.
        -11    1    3    3    0    0  0.23575752548E+01  0.78483243973E+01 -0.15762219274E+02  0.17765188252E+02  0.51100000000E-03 0.  1.
        -12    1    3    3    0    0 -0.20214354617E+02 -0.23562815639E+02 -0.15950358551E+01  0.31086501135E+02  0.00000000000E+00 0.  1.
</event>
<event>
 7    1  0.7579108E-012  0.5930195E+02  0.7816164E-02  0.1266605E+00
        -11   -1    0    0    0    0  0.00000000000E+00  0.00000000000E+00  0.45593999997E+02  0.45594000000E+02  0.51100000000E-03 0.  1.
         11   -1    0    0    0    0 -0.00000000000E+00 -0.00000000000E+00 -0.45593999997E+02  0.45594000000E+02  0.51100000000E-03 0. -1.
    9900012    2    1    2    0    0 -0.21054258807E+01 -0.69476426591E+01  0.31048636844E+02  0.59301946520E+02  0.50000004546E+02 0.  0.
         12    1    1    2    0    0  0.21054258807E+01  0.69476426591E+01 -0.31048636844E+02  0.31886053480E+02  0.00000000000E+00 0. -1.
         11    1    3    3    0    0  0.53506480304E+01  0.42705848526E+01  0.24071834881E+01  0.72568493119E+01  0.51100000000E-03 0. -1.
        -11    1    3    3    0    0 -0.11916461539E+02 -0.18030690526E+02 -0.67056674746E+00  0.21623078330E+02  0.51100000000E-03 0.  1.
        -12    1    3    3    0    0  0.44603876283E+01  0.68124630140E+01  0.29312020103E+02  0.30422018878E+02  0.00000000000E+00 0.  1.
</event>
<event>
 7    1  0.7579108E-012  0.5930195E+02  0.7816164E-02  0.1266605E+00
        -11   -1    0    0    0    0  0.00000000000E+00  0.00000000000E+00  0.45593999997E+02  0.45594000000E+02  0.51100000000E-03 0.  1.
         11   -1    0    0    0    0 -0.00000000000E+00 -0.00000000000E+00 -0.45593999997E+02  0.45594000000E+02  0.51100000000E-03 0. -1.
    9900012    2    1    2    0    0  0.14376305761E+02  0.26772730154E+02 -0.96572812073E+01  0.59301947758E+02  0.50000006804E+02 0.  0.
         12    1    1    2    0    0 -0.14376305761E+02 -0.26772730154E+02  0.96572812073E+01  0.31886052242E+02  0.00000000000E+00 0. -1.
         11    1    3    3    0    0  0.94321599564E+01  0.67605521632E+01 -0.27339986857E+02  0.29700935820E+02  0.51100000000E-03 0. -1.
        -11    1    3    3    0    0  0.22786542341E+01  0.14863887343E+02  0.53276553213E+01  0.15953411032E+02  0.51100000000E-03 0.  1.
         12    1    3    3    0    0  0.26654915705E+01  0.51482906478E+01  0.12355050328E+02  0.13647600907E+02  0.00000000000E+00 0. -1.
</event>
<event>
 7    1  0.7579108E-012  0.5930195E+02  0.7816164E-02  0.1266605E+00
        -11   -1    0    0    0    0  0.00000000000E+00  0.00000000000E+00  0.45593999997E+02  0.45594000000E+02  0.51100000000E-03 0.  1.
         11   -1    0    0    0    0 -0.00000000000E+00 -0.00000000000E+00 -0.45593999997E+02  0.45594000000E+02  0.51100000000E-03 0. -1.
    9900012    2    1    2    0    0 -0.10160383942E+02  0.74350544958E+01  0.29295163159E+02  0.59301952554E+02  0.50000015550E+02 0.  0.
         12    1    1    2    0    0  0.10160383942E+02 -0.74350544958E+01 -0.29295163159E+02  0.31886047446E+02  0.00000000000E+00 0. -1.
         11    1    3    3    0    0  0.10486361516E+02  0.18308928052E+02 -0.16949377286E+00  0.21099984660E+02  0.51100000000E-03 0. -1.
        -11    1    3    3    0    0 -0.92145998328E+01 -0.52860870830E+01  0.81957627321E+01  0.13417231225E+02  0.51100000000E-03 0.  1.
         12    1    3    3    0    0 -0.11432145625E+02 -0.55877864734E+01  0.21268894200E+02  0.24784736669E+02  0.00000000000E+00 0. -1.
</event>
<event>
 7    1  0.7579108E-012  0.5930194E+02  0.7816164E-02  0.1266605E+00
        -11   -1    0    0    0    0  0.00000000000E+00  0.00000000000E+00  0.45593999997E+02  0.45594000000E+02  0.51100000000E-03 0.  1.
         11   -1    0    0    0    0 -0.00000000000E+00 -0.00000000000E+00 -0.45593999997E+02  0.45594000000E+02  0.51100000000E-03 0. -1.
    9900012    2    1    2    0    0 -0.17187263424E+02 -0.26857284748E+02 -0.68876213354E-01  0.59301944866E+02  0.50000001529E+02 0.  0.
         12    1    1    2    0    0  0.17187263424E+02  0.26857284748E+02  0.68876213354E-01  0.31886055134E+02  0.00000000000E+00 0. -1.
         11    1    3    3    0    0 -0.16725600623E+02 -0.27438064769E+00 -0.68781261654E+01  0.18086724986E+02  0.51100000000E-03 0. -1.
        -11    1    3    3    0    0 -0.41988385744E+01 -0.27312409380E+02  0.15530845573E+02  0.31698661107E+02  0.51100000000E-03 0.  1.
        -12    1    3    3    0    0  0.37371757726E+01  0.72950527954E+00 -0.87215956205E+01  0.95165587728E+01  0.00000000000E+00 0.  1.
</event>
<event>
 7    1  0.7579108E-012  0.5930194E+02  0.7816164E-02  0.1266605E+00
        -11   -1    0    0    0    0  0.00000000000E+00  0.00000000000E+00  0.45593999997E+02  0.45594000000E+02  0.51100000000E-03 0. -1.
         11   -1    0    0    0    0 -0.00000000000E+00 -0.00000000000E+00 -0.45593999997E+02  0.45594000000E+02  0.51100000000E-03 0.  1.
    9900012    2    1    2    0    0 -0.18114312888E+02  0.16432661652E+02 -0.20458736157E+02  0.59301943714E+02  0.49999999428E+02 0.  0.
         12    1    1    2    0    0  0.18114312888E+02 -0.16432661652E+02  0.20458736157E+02  0.31886056286E+02  0.00000000000E+00 0. -1.
         11    1    3    3    0    0 -0.30173574964E+00 -0.68126214749E+01  0.12420510319E+02  0.14169401281E+02  0.51100000000E-03 0. -1.
        -11    1    3    3    0    0 -0.17413180419E+02  0.20438126250E+02 -0.24727886218E+02  0.36502112460E+02  0.51100000000E-03 0.  1.
         12    1    3    3    0    0 -0.39939671887E+00  0.28071568764E+01 -0.81513602575E+01  0.86304299728E+01  0.00000000000E+00 0. -1.
</event>
<event>
 7    1  0.7579108E-012  0.5930194E+02  0.7816164E-02  0.1266605E+00
        -11   -1    0    0    0    0  0.00000000000E+00  0.00000000000E+00  0.45593999997E+02  0.45594000000E+02  0.51100000000E-03 0.  1.
         11   -1    0    0    0    0 -0.00000000000E+00 -0.00000000000E+00 -0.45593999997E+02  0.45594000000E+02  0.51100000000E-03 0. -1.
    9900012    2    1    2    0    0  0.14517095617E+02  0.13644369774E+02  0.24895904990E+02  0.59301937575E+02  0.49999988232E+02 0.  0.
         12    1    1    2    0    0 -0.14517095617E+02 -0.13644369774E+02 -0.24895904990E+02  0.31886062425E+02  0.00000000000E+00 0. -1.
         11    1    3    3    0    0  0.86643407445E+01  0.30399186722E+01 -0.92979635215E+01  0.13067671253E+02  0.51100000000E-03 0. -1.
        -11    1    3    3    0    0  0.14585509981E+02  0.13544774021E+02  0.30249844167E+02  0.36211200989E+02  0.51100000000E-03 0.  1.
        -12    1    3    3    0    0 -0.87327551082E+01 -0.29403229184E+01  0.39440243438E+01  0.10023065333E+02  0.00000000000E+00 0.  1.
</event>
<event>
 7    1  0.7579108E-012  0.5930193E+02  0.7816164E-02  0.1266605E+00
        -11   -1    0    0    0    0  0.00000000000E+00  0.00000000000E+00  0.45593999997E+02  0.45594000000E+02  0.51100000000E-03 0.  1.
         11   -1    0    0    0    0 -0.00000000000E+00 -0.00000000000E+00 -0.45593999997E+02  0.45594000000E+02  0.51100000000E-03 0. -1.
    9900012    2    1    2    0    0  0.12149569311E+01 -0.10014575006E+02  0.30248200484E+02  0.59301929916E+02  0.49999974264E+02 0.  0.
         12    1    1    2    0    0 -0.12149569311E+01  0.10014575006E+02 -0.30248200484E+02  0.31886070084E+02  0.00000000000E+00 0. -1.
         11    1    3    3    0    0  0.75942770666E+01  0.27964842672E+01  0.68430245871E+00  0.81216770767E+01  0.51100000000E-03 0. -1.
        -11    1    3    3    0    0 -0.71673595832E+01  0.42745923464E+01  0.32737568021E+02  0.33784486725E+02  0.51100000000E-03 0.  1.
        -12    1    3    3    0    0  0.78803944772E+00 -0.17085651620E+02 -0.31736699957E+01  0.17395766114E+02  0.00000000000E+00 0.  1.
</event>
<event>
 7    1  0.7579108E-012  0.5930192E+02  0.7816164E-02  0.1266605E+00
        -11   -1    0    0    0    0  0.00000000000E+00  0.00000000000E+00  0.45593999997E+02  0.45594000000E+02  0.51100000000E-03 0.  1.
         11   -1    0    0    0    0 -0.00000000000E+00 -0.00000000000E+00 -0.45593999997E+02  0.45594000000E+02  0.51100000000E-03 0. -1.
    9900012    2    1    2    0    0  0.10176873812E+02 -0.16180572418E+01  0.30175075053E+02  0.59301921153E+02  0.49999958282E+02 0.  0.
         12    1    1    2    0    0 -0.10176873812E+02  0.16180572418E+01 -0.30175075053E+02  0.31886078847E+02  0.00000000000E+00 0. -1.
         11    1    3    3    0    0 -0.17747758039E+02 -0.49716104630E+01  0.23149486227E+01  0.18575758757E+02  0.51100000000E-03 0. -1.
        -11    1    3    3    0    0  0.24315561254E+02  0.13282074143E+00  0.19942572248E+02  0.31447898954E+02  0.51100000000E-03 0.  1.
        -12    1    3    3    0    0  0.36090705971E+01  0.32207324798E+01  0.79175541814E+01  0.92782634419E+01  0.00000000000E+00 0.  1.
</event>
<event>
 7    1  0.7579108E-012  0.5930191E+02  0.7816164E-02  0.1266605E+00
        -11   -1    0    0    0    0  0.00000000000E+00  0.00000000000E+00  0.45593999997E+02  0.45594000000E+02  0.51100000000E-03 0.  1.
         11   -1    0    0    0    0 -0.00000000000E+00 -0.00000000000E+00 -0.45593999997E+02  0.45594000000E+02  0.51100000000E-03 0. -1.
    9900012    2    1    2    0    0  0.13886631445E+02 -0.15048077443E+01  0.28663907343E+02  0.59301912699E+02  0.49999942863E+02 0.  0.
         12    1    1    2    0    0 -0.13886631445E+02  0.15048077443E+01 -0.28663907343E+02  0.31886087301E+02  0.00000000000E+00 0. -1.
         11    1    3    3    0    0 -0.30247717486E+01  0.15939376424E+02  0.29241402447E+02  0.33440582864E+02  0.51100000000E-03 0. -1.
        -11    1    3    3    0    0  0.10555115333E+02 -0.13223007198E+02 -0.41732756906E+01  0.17426262057E+02  0.51100000000E-03 0.  1.
        -12    1    3    3    0    0  0.63562878611E+01 -0.42211769708E+01  0.35957805859E+01  0.84350677777E+01  0.00000000000E+00 0.  1.
</event>
<event>
 7    1  0.7579108E-012  0.5930195E+02  0.7816164E-02  0.1266605E+00
        -11   -1    0    0    0    0  0.00000000000E+00  0.00000000000E+00  0.45593999997E+02  0.45594000000E+02  0.51100000000E-03 0. -1.
         11   -1    0    0    0    0 -0.00000000000E+00 -0.00000000000E+00 -0.45593999997E+02  0.45594000000E+02  0.51100000000E-03 0.  1.
    9900012    2    1    2    0    0  0.17620613909E+02  0.24844058468E+02  0.94343580021E+01  0.59301946832E+02  0.50000005115E+02 0.  0.
         12    1    1    2    0    0 -0.17620613909E+02 -0.24844058468E+02 -0.94343580021E+01  0.31886053168E+02  0.00000000000E+00 0. -1.
         11    1    3    3    0    0  0.26893535086E+02  0.10756730648E+02  0.12697856266E+02  0.31626018366E+02  0.51100000000E-03 0. -1.
        -11    1    3    3    0    0 -0.92757158841E+01 -0.33637915102E+01 -0.26390200416E+01  0.10213639191E+02  0.51100000000E-03 0.  1.
        -12    1    3    3    0    0  0.27947068824E-02  0.17451119330E+02 -0.62447822242E+00  0.17462289275E+02  0.00000000000E+00 0.  1.
</event>
<event>
 7    1  0.7579108E-012  0.5930195E+02  0.7816164E-02  0.1266605E+00
        -11   -1    0    0    0    0  0.00000000000E+00  0.00000000000E+00  0.45593999997E+02  0.45594000000E+02  0.51100000000E-03 0.  1.
         11   -1    0    0    0    0 -0.00000000000E+00 -0.00000000000E+00 -0.45593999997E+02  0.45594000000E+02  0.51100000000E-03 0. -1.
    9900012    2    1    2    0    0 -0.18029926857E+01  0.21129176097E+02  0.23812330372E+02  0.59301953790E+02  0.50000017803E+02 0.  0.
         12    1    1    2    0    0  0.18029926857E+01 -0.21129176097E+02 -0.23812330372E+02  0.31886046210E+02  0.00000000000E+00 0. -1.
         11    1    3    3    0    0 -0.17043011263E+02 -0.69548304662E+01 -0.13868071142E+01  0.18459608174E+02  0.51100000000E-03 0. -1.
        -11    1    3    3    0    0  0.91604112785E+01  0.20246474969E+02  0.17520317830E+02  0.28298311268E+02  0.51100000000E-03 0.  1.
         12    1    3    3    0    0  0.60796072987E+01  0.78375315943E+01  0.76788196558E+01  0.12544034347E+02  0.00000000000E+00 0. -1.
</event>
<event>
 7    1  0.7579108E-012  0.5930196E+02  0.7816164E-02  0.1266605E+00
        -11   -1    0    0    0    0  0.00000000000E+00  0.00000000000E+00  0.45593999997E+02  0.45594000000E+02  0.51100000000E-03 0. -1.
         11   -1    0    0    0    0 -0.00000000000E+00 -0.00000000000E+00 -0.45593999997E+02  0.45594000000E+02  0.51100000000E-03 0.  1.
    9900012    2    1    2    0    0 -0.24750196710E+02  0.13272908535E+02  0.15098909832E+02  0.59301962048E+02  0.50000032865E+02 0.  0.
         12    1    1    2    0    0  0.24750196710E+02 -0.13272908535E+02 -0.15098909832E+02  0.31886037952E+02  0.00000000000E+00 0. -1.
         11    1    3    3    0    0  0.21829813364E+01 -0.23412977783E+01 -0.31581190083E+01  0.44967542442E+01  0.51100000000E-03 0. -1.
        -11    1    3    3    0    0 -0.31637091765E+02  0.24578150963E+02  0.19588460166E+02  0.44594829880E+02  0.51100000000E-03 0.  1.
        -12    1    3    3    0    0  0.47039137189E+01 -0.89639446503E+01 -0.13314313257E+01  0.10210377924E+02  0.00000000000E+00 0.  1.
</event>
<event>
 7    1  0.7579108E-012  0.5930205E+02  0.7816164E-02  0.1266604E+00
        -11   -1    0    0    0    0  0.00000000000E+00  0.00000000000E+00  0.45593999997E+02  0.45594000000E+02  0.51100000000E-03 0.  1.
         11   -1    0    0    0    0 -0.00000000000E+00 -0.00000000000E+00 -0.45593999997E+02  0.45594000000E+02  0.51100000000E-03 0. -1.
    9900012    2    1    2    0    0  0.15344331396E+02 -0.26262389623E+02 -0.95682922411E+01  0.59302049629E+02  0.50000192590E+02 0.  0.
         12    1    1    2    0    0 -0.15344331396E+02  0.26262389623E+02  0.95682922411E+01  0.31885950371E+02  0.00000000000E+00 0. -1.
         11    1    3    3    0    0 -0.10379031599E+02 -0.52957370130E+01 -0.41540871624E+01  0.12370350353E+02  0.51100000000E-03 0. -1.
        -11    1    3    3    0    0  0.28444884031E+02 -0.24402204496E+02 -0.11706433603E+02  0.39263463930E+02  0.51100000000E-03 0.  1.
        -12    1    3    3    0    0 -0.27215210367E+01  0.34355518865E+01  0.62922285243E+01  0.76682353459E+01  0.00000000000E+00 0.  1.
</event>
<event>
 7    1  0.7579108E-012  0.5930197E+02  0.7816164E-02  0.1266605E+00
        -11   -1    0    0    0    0  0.00000000000E+00  0.00000000000E+00  0.45593999997E+02  0.45594000000E+02  0.51100000000E-03 0.  1.
         11   -1    0    0    0    0 -0.00000000000E+00 -0.00000000000E+00 -0.45593999997E+02  0.45594000000E+02  0.51100000000E-03 0. -1.
    9900012    2    1    2    0    0  0.12324470044E+02  0.29550621274E+01  0.29259077957E+02  0.59301974896E+02  0.50000056296E+02 0.  0.
         12    1    1    2    0    0 -0.12324470044E+02 -0.29550621274E+01 -0.29259077957E+02  0.31886025104E+02  0.00000000000E+00 0. -1.
         11    1    3    3    0    0 -0.75444058905E+01 -0.11839947888E+02 -0.46521417929E+01  0.14790025346E+02  0.51100000000E-03 0. -1.
        -11    1    3    3    0    0  0.11759717542E+02  0.15366469424E+02  0.29452625571E+02  0.35240268054E+02  0.51100000000E-03 0.  1.
         12    1    3    3    0    0  0.81091583928E+01 -0.57145940929E+00  0.44585941788E+01  0.92716814952E+01  0.00000000000E+00 0. -1.
</event>
<event>
 7    1  0.7579108E-012  0.5930195E+02  0.7816164E-02  0.1266605E+00
        -11   -1    0    0    0    0  0.00000000000E+00  0.00000000000E+00  0.45593999997E+02  0.45594000000E+02  0.51100000000E-03 0.  1.
         11   -1    0    0    0    0 -0.00000000000E+00 -0.00000000000E+00 -0.45593999997E+02  0.45594000000E+02  0.51100000000E-03 0. -1.
    9900012    2    1    2    0    0  0.16063870682E+02 -0.18692174506E+02  0.20230545313E+02  0.59301948304E+02  0.50000007799E+02 0.  0.
         12    1    1    2    0    0 -0.16063870682E+02  0.18692174506E+02 -0.20230545313E+02  0.31886051696E+02  0.00000000000E+00 0. -1.
         11    1    3    3    0    0 -0.10261055552E+02 -0.50289718716E+01 -0.70991676693E+01  0.13452806436E+02  0.51100000000E-03 0. -1.
        -11    1    3    3    0    0  0.11627653625E+02 -0.15065723941E+02  0.24148617674E+02  0.30746285995E+02  0.51100000000E-03 0.  1.
        -12    1    3    3    0    0  0.14697272609E+02  0.14025213061E+01  0.31810953088E+01  0.15102855873E+02  0.00000000000E+00 0.  1.
</event>
<event>
 7    1  0.7579108E-012  0.5930190E+02  0.7816164E-02  0.1266605E+00
        -11   -1    0    0    0    0  0.00000000000E+00  0.00000000000E+00  0.45593999997E+02  0.45594000000E+02  0.51100000000E-03 0. -1.
         11   -1    0    0    0    0 -0.00000000000E+00 -0.00000000000E+00 -0.45593999997E+02  0.45594000000E+02  0.51100000000E-03 0.  1.
    9900012    2    1    2    0    0 -0.35725678026E+01 -0.30354758248E+02  0.90856417915E+01  0.59301898392E+02  0.49999916771E+02 0.  0.
         12    1    1    2    0    0  0.35725678026E+01  0.30354758248E+02 -0.90856417915E+01  0.31886101608E+02  0.00000000000E+00 0. -1.
         11    1    3    3    0    0  0.16628126400E+02 -0.58067530927E+01  0.52799895635E+01  0.18387258063E+02  0.51100000000E-03 0. -1.
        -11    1    3    3    0    0 -0.21689644959E+02 -0.72409516021E+01  0.53221305369E+01  0.23477588298E+02  0.51100000000E-03 0.  1.
         12    1    3    3    0    0  0.14889507570E+01 -0.17307053553E+02 -0.15164783088E+01  0.17437052031E+02  0.00000000000E+00 0. -1.
</event>
<event>
 7    1  0.7579108E-012  0.5930163E+02  0.7816164E-02  0.1266606E+00
        -11   -1    0    0    0    0  0.00000000000E+00  0.00000000000E+00  0.45593999997E+02  0.45594000000E+02  0.51100000000E-03 0.  1.
         11   -1    0    0    0    0 -0.00000000000E+00 -0.00000000000E+00 -0.45593999997E+02  0.45594000000E+02  0.51100000000E-03 0. -1.
    9900012    2    1    2    0    0 -0.13418787624E+02  0.22371331834E+02  0.18335756917E+02  0.59301634089E+02  0.49999434743E+02 0.  0.
         12    1    1    2    0    0  0.13418787624E+02 -0.22371331834E+02 -0.18335756917E+02  0.31886365911E+02  0.00000000000E+00 0. -1.
         11    1    3    3    0    0  0.52830674127E+01 -0.64135692647E+00  0.19407336781E+01  0.56646789374E+01  0.51100000000E-03 0. -1.
        -11    1    3    3    0    0 -0.14335269126E+02  0.31775315305E+02  0.23057253371E+02  0.41794826677E+02  0.51100000000E-03 0.  1.
        -12    1    3    3    0    0 -0.43665859105E+01 -0.87626265448E+01 -0.66622301323E+01  0.11842128475E+02  0.00000000000E+00 0.  1.
</event>
<event>
 7    1  0.7579108E-012  0.5930200E+02  0.7816164E-02  0.1266605E+00
        -11   -1    0    0    0    0  0.00000000000E+00  0.00000000000E+00  0.45593999997E+02  0.45594000000E+02  0.51100000000E-03 0.  1.
         11   -1    0    0    0    0 -0.00000000000E+00 -0.00000000000E+00 -0.45593999997E+02  0.45594000000E+02  0.51100000000E-03 0. -1.
    9900012    2    1    2    0    0  0.28038174108E+02 -0.15180041057E+02  0.37951879810E+00  0.59302001689E+02  0.50000105160E+02 0.  0.
         12    1    1    2    0    0 -0.28038174108E+02  0.15180041057E+02 -0.37951879810E+00  0.31885998311E+02  0.00000000000E+00 0. -1.
         11    1    3    3    0    0  0.31109153233E+01 -0.80720155550E+01  0.16117683226E+02  0.18292483213E+02  0.51100000000E-03 0. -1.
        -11    1    3    3    0    0  0.16690620781E+02 -0.10190788654E+02 -0.22576952315E+02  0.29868842822E+02  0.51100000000E-03 0.  1.
        -12    1    3    3    0    0  0.82366380032E+01  0.30827631517E+01  0.68387878872E+01  0.11140675653E+02  0.00000000000E+00 0.  1.
</event>
<event>
 7    1  0.7579108E-012  0.5930196E+02  0.7816164E-02  0.1266605E+00
        -11   -1    0    0    0    0  0.00000000000E+00  0.00000000000E+00  0.45593999997E+02  0.45594000000E+02  0.51100000000E-03 0. -1.
         11   -1    0    0    0    0 -0.00000000000E+00 -0.00000000000E+00 -0.45593999997E+02  0.45594000000E+02  0.51100000000E-03 0.  1.
    9900012    2    1    2    0    0 -0.10677073164E+02 -0.15967374968E+02 -0.25451180020E+02  0.59301960435E+02  0.50000029923E+02 0.  0.
         12    1    1    2    0    0  0.10677073164E+02  0.15967374968E+02  0.25451180020E+02  0.31886039565E+02  0.00000000000E+00 0. -1.
         11    1    3    3    0    0 -0.76223851957E+01  0.10317880799E+02  0.10637960619E+01  0.12872104823E+02  0.51100000000E-03 0. -1.
        -11    1    3    3    0    0 -0.11845119931E+02 -0.25785334208E+02 -0.24280455592E+02  0.37346095517E+02  0.51100000000E-03 0.  1.
        -12    1    3    3    0    0  0.87904319620E+01 -0.49992155891E+00 -0.22345204907E+01  0.90837600952E+01  0.00000000000E+00 0.  1.
</event>
<event>
 7    1  0.7579108E-012  0.5930194E+02  0.7816164E-02  0.1266605E+00
        -11   -1    0    0    0    0  0.00000000000E+00  0.00000000000E+00  0.45593999997E+02  0.45594000000E+02  0.51100000000E-03 0. -1.
         11   -1    0    0    0    0 -0.00000000000E+00 -0.00000000000E+00 -0.45593999997E+02  0.45594000000E+02  0.51100000000E-03 0.  1.
    9900012    2    1    2    0    0  0.24455183660E+02 -0.13763514507E+02 -0.15140360221E+02  0.59301939612E+02  0.49999991947E+02 0.  0.
         12    1    1    2    0    0 -0.24455183660E+02  0.13763514507E+02  0.15140360221E+02  0.31886060388E+02  0.00000000000E+00 0. -1.
         11    1    3    3    0    0  0.16822157992E+02  0.12332242630E+02 -0.49232194060E+01  0.21431455793E+02  0.51100000000E-03 0. -1.
        -11    1    3    3    0    0  0.63706361459E+01 -0.13342489704E+02  0.70394468986E+01  0.16375617525E+02  0.51100000000E-03 0.  1.
         12    1    3    3    0    0  0.12623895215E+01 -0.12753267433E+02 -0.17256587714E+02  0.21494866295E+02  0.00000000000E+00 0. -1.
</event>
<event>
 7    1  0.7579108E-012  0.5930184E+02  0.7816164E-02  0.1266605E+00
        -11   -1    0    0    0    0  0.00000000000E+00  0.00000000000E+00  0.45593999997E+02  0.45594000000E+02  0.51100000000E-03 0.  1.
         11   -1    0    0    0    0 -0.00000000000E+00 -0.00000000000E+00 -0.45593999997E+02  0.45594000000E+02  0.51100000000E-03 0. -1.
    9900012    2    1    2    0    0 -0.20067468429E+02 -0.47837879504E+01  0.24313355710E+02  0.59301840272E+02  0.49999810774E+02 0.  0.
         12    1    1    2    0    0  0.20067468429E+02  0.47837879504E+01 -0.24313355710E+02  0.31886159728E+02  0.00000000000E+00 0. -1.
         11    1    3    3    0    0 -0.79384047564E+01  0.11187701611E+02 -0.11462586959E+02  0.17876628247E+02  0.51100000000E-03 0. -1.
        -11    1    3    3    0    0 -0.31180592101E+01 -0.18423672296E+01  0.10423921906E+02  0.11035160099E+02  0.51100000000E-03 0.  1.
         12    1    3    3    0    0 -0.90110044625E+01 -0.14129122332E+02  0.25352020763E+02  0.30390051926E+02  0.00000000000E+00 0. -1.
</event>
<event>
 7    1  0.7579108E-012  0.5930195E+02  0.7816164E-02  0.1266605E+00
        -11   -1    0    0    0    0  0.00000000000E+00  0.00000000000E+00  0.45593999997E+02  0.45594000000E+02  0.51100000000E-03 0. -1.
         11   -1    0    0    0    0 -0.00000000000E+00 -0.00000000000E+00 -0.45593999997E+02  0.45594000000E+02  0.51100000000E-03 0.  1.
    9900012    2    1    2    0    0  0.25510212976E+02  0.13343459296E+02 -0.13707717382E+02  0.59301946813E+02  0.50000005079E+02 0.  0.
         12    1    1    2    0    0 -0.25510212976E+02 -0.13343459296E+02  0.13707717382E+02  0.31886053187E+02  0.00000000000E+00 0. -1.
         11    1    3    3    0    0 -0.75979983227E+01  0.43510437443E+01 -0.14849078185E+02  0.17238221584E+02  0.51100000000E-03 0. -1.
        -11    1    3    3    0    0  0.26582500942E+02 -0.11108419320E+01 -0.70351751350E+01  0.27520120195E+02  0.51100000000E-03 0.  1.
         12    1    3    3    0    0  0.65257103565E+01  0.10103257484E+02  0.81765359379E+01  0.14543605034E+02  0.00000000000E+00 0. -1.
</event>
<event>
 7    1  0.7579108E-012  0.5930194E+02  0.7816164E-02  0.1266605E+00
        -11   -1    0    0    0    0  0.00000000000E+00  0.00000000000E+00  0.45593999997E+02  0.45594000000E+02  0.51100000000E-03 0.  1.
         11   -1    0    0    0    0 -0.00000000000E+00 -0.00000000000E+00 -0.45593999997E+02  0.45594000000E+02  0.51100000000E-03 0. -1.
    9900012    2    1    2    0    0  0.16974804707E+01 -0.26133249825E+02 -0.18190454227E+02  0.59301940172E+02  0.49999992968E+02 0.  0.
         12    1    1    2    0    0 -0.16974804707E+01  0.26133249825E+02  0.18190454227E+02  0.31886059828E+02  0.00000000000E+00 0. -1.
         11    1    3    3    0    0  0.43007250975E+01 -0.33144171839E+02 -0.69022705365E+01  0.34127316069E+02  0.51100000000E-03 0. -1.
        -11    1    3    3    0    0 -0.85908236332E+01 -0.38622742412E+00 -0.12918727951E+02  0.15519180212E+02  0.51100000000E-03 0.  1.
         12    1    3    3    0    0  0.59875790064E+01  0.73971494372E+01  0.16305442603E+01  0.96554438914E+01  0.00000000000E+00 0. -1.
</event>
<event>
 7    1  0.7579108E-012  0.5930194E+02  0.7816164E-02  0.1266605E+00
        -11   -1    0    0    0    0  0.00000000000E+00  0.00000000000E+00  0.45593999997E+02  0.45594000000E+02  0.51100000000E-03 0.  1.
         11   -1    0    0    0    0 -0.00000000000E+00 -0.00000000000E+00 -0.45593999997E+02  0.45594000000E+02  0.51100000000E-03 0. -1.
    9900012    2    1    2    0    0 -0.26412241934E+02  0.11919120118E+02  0.13305978895E+02  0.59301936857E+02  0.49999986923E+02 0.  0.
         12    1    1    2    0    0  0.26412241934E+02 -0.11919120118E+02 -0.13305978895E+02  0.31886063143E+02  0.00000000000E+00 0. -1.
         11    1    3    3    0    0 -0.15022550623E+02  0.17426939670E+02 -0.45247546740E+01  0.23448851968E+02  0.51100000000E-03 0. -1.
        -11    1    3    3    0    0 -0.38858580097E+01 -0.16379024580E+02  0.53067691806E+01  0.17650329687E+02  0.51100000000E-03 0.  1.
        -12    1    3    3    0    0 -0.75038333018E+01  0.10871205027E+02  0.12523964388E+02  0.18202755203E+02  0.00000000000E+00 0.  1.
</event>
<event>
 7    1  0.7579108E-012  0.5930196E+02  0.7816164E-02  0.1266605E+00
        -11   -1    0    0    0    0  0.00000000000E+00  0.00000000000E+00  0.45593999997E+02  0.45594000000E+02  0.51100000000E-03 0.  1.
         11   -1    0    0    0    0 -0.00000000000E+00 -0.00000000000E+00 -0.45593999997E+02  0.45594000000E+02  0.51100000000E-03 0. -1.
    9900012    2    1    2    0    0  0.19408714573E+02  0.32222873559E+00  0.25296588047E+02  0.59301962310E+02  0.50000033343E+02 0.  0.
         12    1    1    2    0    0 -0.19408714573E+02 -0.32222873559E+00 -0.25296588047E+02  0.31886037690E+02  0.00000000000E+00 0. -1.
         11    1    3    3    0    0 -0.82340802016E+01  0.95264082859E+01 -0.57377250359E+01  0.13837413792E+02  0.51100000000E-03 0. -1.
        -11    1    3    3    0    0  0.23132165298E+02 -0.92422272183E+01  0.32290364235E+02  0.40782146315E+02  0.51100000000E-03 0.  1.
        -12    1    3    3    0    0  0.45106294764E+01  0.38047668058E-01 -0.12560511523E+01  0.46824022036E+01  0.00000000000E+00 0.  1.
</event>
<event>
 7    1  0.7579108E-012  0.5930192E+02  0.7816164E-02  0.1266605E+00
        -11   -1    0    0    0    0  0.00000000000E+00  0.00000000000E+00  0.45593999997E+02  0.45594000000E+02  0.51100000000E-03 0. -1.
         11   -1    0    0    0    0 -0.00000000000E+00 -0.00000000000E+00 -0.45593999997E+02  0.45594000000E+02  0.51100000000E-03 0.  1.
    9900012    2    1    2    0    0 -0.22225733479E+02 -0.13982552352E+02 -0.18089423194E+02  0.59301917919E+02  0.49999952384E+02 0.  0.
         12    1    1    2    0    0  0.22225733479E+02  0.13982552352E+02  0.18089423194E+02  0.31886082081E+02  0.00000000000E+00 0. -1.
         11    1    3    3    0    0 -0.12982360497E+00  0.39540193811E+01 -0.53339630168E+01  0.66409551391E+01  0.51100000000E-03 0. -1.
        -11    1    3    3    0    0 -0.33777812673E+02 -0.85933872195E+01 -0.14194195306E+02  0.37633258077E+02  0.51100000000E-03 0.  1.
        -12    1    3    3    0    0  0.11681902798E+02 -0.93431845139E+01  0.14387351285E+01  0.15027704702E+02  0.00000000000E+00 0.  1.
</event>
<event>
 7    1  0.7579108E-012  0.5930192E+02  0.7816164E-02  0.1266605E+00
        -11   -1    0    0    0    0  0.00000000000E+00  0.00000000000E+00  0.45593999997E+02  0.45594000000E+02  0.51100000000E-03 0.  1.
         11   -1    0    0    0    0 -0.00000000000E+00 -0.00000000000E+00 -0.45593999997E+02  0.45594000000E+02  0.51100000000E-03 0. -1.
    9900012    2    1    2    0    0 -0.20176981141E+02  0.19288391902E+02  0.15413290604E+02  0.59301919065E+02  0.49999954474E+02 0.  0.
         12    1    1    2    0    0  0.20176981141E+02 -0.19288391902E+02 -0.15413290604E+02  0.31886080935E+02  0.00000000000E+00 0. -1.
         11    1    3    3    0    0 -0.13148409621E+02 -0.14727591879E+02  0.18672625338E+01  0.19831018828E+02  0.51100000000E-03 0. -1.
        -11    1    3    3    0    0 -0.53207628071E+01  0.75550860263E+01  0.83421103668E+01  0.12449122352E+02  0.51100000000E-03 0.  1.
         12    1    3    3    0    0 -0.17078087131E+01  0.26460897755E+02  0.52039177037E+01  0.27021777885E+02  0.00000000000E+00 0. -1.
</event>
<event>
 7    1  0.7579108E-012  0.5930193E+02  0.7816164E-02  0.1266605E+00
        -11   -1    0    0    0    0  0.00000000000E+00  0.00000000000E+00  0.45593999997E+02  0.45594000000E+02  0.51100000000E-03 0.  1.
         11   -1    0    0    0    0 -0.00000000000E+00 -0.00000000000E+00 -0.45593999997E+02  0.45594000000E+02  0.51100000000E-03 0. -1.
    9900012    2    1    2    0    0 -0.73494591367E+01  0.26067436240E+02  0.16828424300E+02  0.59301927082E+02  0.49999969094E+02 0.  0.
         12    1    1    2    0    0  0.73494591367E+01 -0.26067436240E+02 -0.16828424300E+02  0.31886072918E+02  0.00000000000E+00 0. -1.
         11    1    3    3    0    0 -0.56737771487E+01 -0.40786221814E+01  0.66140147054E+01  0.96214394358E+01  0.51100000000E-03 0. -1.
        -11    1    3    3    0    0  0.15208752002E+02  0.15561715887E+02  0.15544577143E+02  0.26741484956E+02  0.51100000000E-03 0.  1.
        -12    1    3    3    0    0 -0.16884433990E+02  0.14584342534E+02 -0.53301675482E+01  0.22939002690E+02  0.00000000000E+00 0.  1.
</event>
<event>
 7    1  0.7579108E-012  0.5930198E+02  0.7816164E-02  0.1266605E+00
        -11   -1    0    0    0    0  0.00000000000E+00  0.00000000000E+00  0.45593999997E+02  0.45594000000E+02  0.51100000000E-03 0. -1.
         11   -1    0    0    0    0 -0.00000000000E+00 -0.00000000000E+00 -0.45593999997E+02  0.45594000000E+02  0.51100000000E-03 0.  1.
    9900012    2    1    2    0    0 -0.28755342074E+02  0.44369911934E+01 -0.13044613491E+02  0.59301975949E+02  0.50000058217E+02 0.  0.
         12    1    1    2    0    0  0.28755342074E+02 -0.44369911934E+01  0.13044613491E+02  0.31886024051E+02  0.00000000000E+00 0. -1.
         11    1    3    3    0    0 -0.38304788859E+02  0.26853102916E+01 -0.37749565780E+01  0.38583909060E+02  0.51100000000E-03 0. -1.
        -11    1    3    3    0    0  0.91760041822E+01 -0.32779839196E+01 -0.11610807117E+02  0.15157673750E+02  0.51100000000E-03 0.  1.
        -12    1    3    3    0    0  0.37344260294E+00  0.50296648215E+01  0.23411502042E+01  0.55603931401E+01  0.00000000000E+00 0.  1.
</event>
<event>
 7    1  0.7579108E-012  0.5930192E+02  0.7816164E-02  0.1266605E+00
        -11   -1    0    0    0    0  0.00000000000E+00  0.00000000000E+00  0.45593999997E+02  0.45594000000E+02  0.51100000000E-03 0. -1.
         11   -1    0    0    0    0 -0.00000000000E+00 -0.00000000000E+00 -0.45593999997E+02  0.45594000000E+02  0.51100000000E-03 0.  1.
    9900012    2    1    2    0    0  0.14649841906E+02 -0.27714770368E+02 -0.58306127875E+01  0.59301915105E+02  0.49999947252E+02 0.  0.
         12    1    1    2    0    0 -0.14649841906E+02  0.27714770368E+02  0.58306127875E+01  0.31886084895E+02  0.00000000000E+00 0. -1.
         11    1    3    3    0    0 -0.12097669437E+02 -0.70726642085E+01  0.22325371242E+01  0.14190151764E+02  0.51100000000E-03 0. -1.
        -11    1    3    3    0    0  0.13130131997E+02 -0.57343135788E+00 -0.14944940691E+02  0.19901769829E+02  0.51100000000E-03 0.  1.
        -12    1    3    3    0    0  0.13617379346E+02 -0.20068674802E+02  0.68817907796E+01  0.25209993512E+02  0.00000000000E+00 0.  1.
</event>
<event>
 7    1  0.7579108E-012  0.5930196E+02  0.7816164E-02  0.1266605E+00
        -11   -1    0    0    0    0  0.00000000000E+00  0.00000000000E+00  0.45593999997E+02  0.45594000000E+02  0.51100000000E-03 0. -1.
         11   -1    0    0    0    0 -0.00000000000E+00 -0.00000000000E+00 -0.45593999997E+02  0.45594000000E+02  0.51100000000E-03 0.  1.
    9900012    2    1    2    0    0 -0.20868125770E+02  0.23886763033E+02 -0.32654961598E+01  0.59301959379E+02  0.50000027997E+02 0.  0.
         12    1    1    2    0    0  0.20868125770E+02 -0.23886763033E+02  0.32654961598E+01  0.31886040621E+02  0.00000000000E+00 0. -1.
         11    1    3    3    0    0 -0.17726122650E+02  0.28038953906E+02 -0.85796370585E+00  0.33183346160E+02  0.51100000000E-03 0.  1.
        -11    1    3    3    0    0  0.13946106959E+01 -0.11268311163E+02  0.71113315531E+01  0.13397418116E+02  0.51100000000E-03 0. -1.
        -12    1    3    3    0    0 -0.45366138153E+01  0.71161202889E+01 -0.95188640071E+01  0.12721195104E+02  0.00000000000E+00 0.  1.
</event>
<event>
 7    1  0.7579108E-012  0.5930192E+02  0.7816164E-02  0.1266605E+00
        -11   -1    0    0    0    0  0.00000000000E+00  0.00000000000E+00  0.45593999997E+02  0.45594000000E+02  0.51100000000E-03 0.  1.
         11   -1    0    0    0    0 -0.00000000000E+00 -0.00000000000E+00 -0.45593999997E+02  0.45594000000E+02  0.51100000000E-03 0. -1.
    9900012    2    1    2    0    0  0.46724618684E+01 -0.18854654827E+02  0.25286204442E+02  0.59301920849E+02  0.49999957727E+02 0.  0.
         12    1    1    2    0    0 -0.46724618684E+01  0.18854654827E+02 -0.25286204442E+02  0.31886079151E+02  0.00000000000E+00 0. -1.
         11    1    3    3    0    0 -0.25875366906E+00  0.92699741362E+01  0.12880492171E+02  0.15871561132E+02  0.51100000000E-03 0. -1.
        -11    1    3    3    0    0 -0.44181231078E+00 -0.33794724322E+02  0.10477352556E+02  0.35384368116E+02  0.51100000000E-03 0.  1.
        -12    1    3    3    0    0  0.53730278482E+01  0.56700953593E+01  0.19283597161E+01  0.80459916006E+01  0.00000000000E+00 0.  1.
</event>
<event>
 7    1  0.7579108E-012  0.5930195E+02  0.7816164E-02  0.1266605E+00
        -11   -1    0    0    0    0  0.00000000000E+00  0.00000000000E+00  0.45593999997E+02  0.45594000000E+02  0.51100000000E-03 0.  1.
         11   -1    0    0    0    0 -0.00000000000E+00 -0.00000000000E+00 -0.45593999997E+02  0.45594000000E+02  0.51100000000E-03 0. -1.
    9900012    2    1    2    0    0 -0.23713893043E+02 -0.21313229492E+02  0.34346523579E+00  0.59301945949E+02  0.50000003503E+02 0.  0.
         12    1    1    2    0    0  0.23713893043E+02  0.21313229492E+02 -0.34346523579E+00  0.31886054051E+02  0.00000000000E+00 0. -1.
         11    1    3    3    0    0  0.34954652867E+01 -0.20016273742E+02 -0.16845478080E+01  0.20388898785E+02  0.51100000000E-03 0. -1.
        -11    1    3    3    0    0 -0.10962900709E+02  0.12204594480E+02 -0.41149538807E+01  0.16913608842E+02  0.51100000000E-03 0.  1.
         12    1    3    3    0    0 -0.16246457621E+02 -0.13501550229E+02  0.61429669245E+01  0.21999438321E+02  0.00000000000E+00 0. -1.
</event>
<event>
 7    1  0.7579108E-012  0.5930192E+02  0.7816164E-02  0.1266605E+00
        -11   -1    0    0    0    0  0.00000000000E+00  0.00000000000E+00  0.45593999997E+02  0.45594000000E+02  0.51100000000E-03 0.  1.
         11   -1    0    0    0    0 -0.00000000000E+00 -0.00000000000E+00 -0.45593999997E+02  0.45594000000E+02  0.51100000000E-03 0. -1.
    9900012    2    1    2    0    0  0.31777884189E+01  0.11348946397E+02  0.29628118552E+02  0.59301916319E+02  0.49999949467E+02 0.  0.
         12    1    1    2    0    0 -0.31777884189E+01 -0.11348946397E+02 -0.29628118552E+02  0.31886083681E+02  0.00000000000E+00 0. -1.
         11    1    3    3    0    0  0.20798800842E+01 -0.13737501128E+02  0.34625586050E+01  0.14319013610E+02  0.51100000000E-03 0. -1.
        -11    1    3    3    0    0  0.52735507223E+01  0.29768377381E+02  0.22784679782E+02  0.37856416393E+02  0.51100000000E-03 0.  1.
        -12    1    3    3    0    0 -0.41756423876E+01 -0.46819298554E+01  0.33808801653E+01  0.71264863160E+01  0.00000000000E+00 0.  1.
</event>
<event>
 7    1  0.7579108E-012  0.5930192E+02  0.7816164E-02  0.1266605E+00
        -11   -1    0    0    0    0  0.00000000000E+00  0.00000000000E+00  0.45593999997E+02  0.45594000000E+02  0.51100000000E-03 0. -1.
         11   -1    0    0    0    0 -0.00000000000E+00 -0.00000000000E+00 -0.45593999997E+02  0.45594000000E+02  0.51100000000E-03 0.  1.
    9900012    2    1    2    0    0 -0.10985136104E+02  0.29054992102E+02 -0.72011124230E+01  0.59301924648E+02  0.49999964655E+02 0.  0.
         12    1    1    2    0    0  0.10985136104E+02 -0.29054992102E+02  0.72011124230E+01  0.31886075352E+02  0.00000000000E+00 0. -1.
         11    1    3    3    0    0 -0.11403957799E+02  0.66573283327E+01  0.16891624775E+02  0.21440551807E+02  0.51100000000E-03 0. -1.
        -11    1    3    3    0    0 -0.62278542108E+01  0.19740959408E+02 -0.22411793775E+02  0.30508689695E+02  0.51100000000E-03 0.  1.
         12    1    3    3    0    0  0.66466759053E+01  0.26567043606E+01 -0.16809434229E+01  0.73526831457E+01  0.00000000000E+00 0. -1.
</event>
<event>
 7    1  0.7579108E-012  0.5930194E+02  0.7816164E-02  0.1266605E+00
        -11   -1    0    0    0    0  0.00000000000E+00  0.00000000000E+00  0.45593999997E+02  0.45594000000E+02  0.51100000000E-03 0. -1.
         11   -1    0    0    0    0 -0.00000000000E+00 -0.00000000000E+00 -0.45593999997E+02  0.45594000000E+02  0.51100000000E-03 0.  1.
    9900012    2    1    2    0    0 -0.16808465665E+02  0.16050176613E+01 -0.27048478779E+02  0.59301940288E+02  0.49999993180E+02 0.  0.
         12    1    1    2    0    0  0.16808465665E+02 -0.16050176613E+01  0.27048478779E+02  0.31886059712E+02  0.00000000000E+00 0. -1.
         11    1    3    3    0    0  0.16225616844E+01 -0.86055279744E+01 -0.30942396540E+02  0.32157731917E+02  0.51100000000E-03 0. -1.
        -11    1    3    3    0    0 -0.10862390471E+02 -0.28173610055E+01 -0.10895129329E+01  0.11274577086E+02  0.51100000000E-03 0.  1.
         12    1    3    3    0    0 -0.75686368781E+01  0.13027906641E+02  0.49834306940E+01  0.15869631285E+02  0.00000000000E+00 0. -1.
</event>
<event>
 7    1  0.7579108E-012  0.5930193E+02  0.7816164E-02  0.1266605E+00
        -11   -1    0    0    0    0  0.00000000000E+00  0.00000000000E+00  0.45593999997E+02  0.45594000000E+02  0.51100000000E-03 0.  1.
         11   -1    0    0    0    0 -0.00000000000E+00 -0.00000000000E+00 -0.45593999997E+02  0.45594000000E+02  0.51100000000E-03 0. -1.
    9900012    2    1    2    0    0  0.31382839696E+02  0.54757666931E+01 -0.13618084267E+01  0.59301934541E+02  0.49999982699E+02 0.  0.
         12    1    1    2    0    0 -0.31382839696E+02 -0.54757666931E+01  0.13618084267E+01  0.31886065459E+02  0.00000000000E+00 0. -1.
         11    1    3    3    0    0  0.25369871199E+02  0.12883829835E+02 -0.14868223721E+02  0.32104322338E+02  0.51100000000E-03 0. -1.
        -11    1    3    3    0    0  0.79770977611E+00 -0.84035205676E+01  0.18231029636E+02  0.20090444014E+02  0.51100000000E-03 0.  1.
        -12    1    3    3    0    0  0.52152587200E+01  0.99545742564E+00 -0.47246143415E+01  0.71071681898E+01  0.00000000000E+00 0.  1.
</event>
<event>
 7    1  0.7579108E-012  0.5930194E+02  0.7816164E-02  0.1266605E+00
        -11   -1    0    0    0    0  0.00000000000E+00  0.00000000000E+00  0.45593999997E+02  0.45594000000E+02  0.51100000000E-03 0.  1.
         11   -1    0    0    0    0 -0.00000000000E+00 -0.00000000000E+00 -0.45593999997E+02  0.45594000000E+02  0.51100000000E-03 0. -1.
    9900012    2    1    2    0    0  0.10022275755E+02  0.53158364878E+01  0.29799610249E+02  0.59301938784E+02  0.49999990436E+02 0.  0.
         12    1    1    2    0    0 -0.10022275755E+02 -0.53158364878E+01 -0.29799610249E+02  0.31886061216E+02  0.00000000000E+00 0. -1.
         11    1    3    3    0    0  0.13243630987E+02 -0.93861385427E+01 -0.30212842595E+01  0.16511254262E+02  0.51100000000E-03 0. -1.
        -11    1    3    3    0    0  0.84067922318E+01  0.90788146490E+01  0.24439553038E+02  0.27393261654E+02  0.51100000000E-03 0.  1.
         12    1    3    3    0    0 -0.11628147464E+02  0.56231603815E+01  0.83813414707E+01  0.15397422868E+02  0.00000000000E+00 0. -1.
</event>
<event>
 7    1  0.7579108E-012  0.5930194E+02  0.7816164E-02  0.1266605E+00
        -11   -1    0    0    0    0  0.00000000000E+00  0.00000000000E+00  0.45593999997E+02  0.45594000000E+02  0.51100000000E-03 0.  1.
         11   -1    0    0    0    0 -0.00000000000E+00 -0.00000000000E+00 -0.45593999997E+02  0.45594000000E+02  0.51100000000E-03 0. -1.
    9900012    2    1    2    0    0  0.20402412181E+02 -0.94259786271E+01  0.22618875700E+02  0.59301936684E+02  0.49999986606E+02 0.  0.
         12    1    1    2    0    0 -0.20402412181E+02  0.94259786271E+01 -0.22618875700E+02  0.31886063316E+02  0.00000000000E+00 0. -1.
         11    1    3    3    0    0 -0.40804238824E+01  0.70759364750E+01 -0.19951788838E+01  0.84082979905E+01  0.51100000000E-03 0. -1.
        -11    1    3    3    0    0  0.21311476427E+02 -0.10054391907E+02  0.32552532368E+02  0.40186281091E+02  0.51100000000E-03 0.  1.
        -12    1    3    3    0    0  0.31713596357E+01 -0.64475231948E+01 -0.79384777840E+01  0.10707357602E+02  0.00000000000E+00 0.  1.
</event>
<event>
 7    1  0.7579108E-012  0.5930193E+02  0.7816164E-02  0.1266605E+00
        -11   -1    0    0    0    0  0.00000000000E+00  0.00000000000E+00  0.45593999997E+02  0.45594000000E+02  0.51100000000E-03 0. -1.
         11   -1    0    0    0    0 -0.00000000000E+00 -0.00000000000E+00 -0.45593999997E+02  0.45594000000E+02  0.51100000000E-03 0.  1.
    9900012    2    1    2    0    0 -0.67228689987E+01  0.10771915286E+01 -0.31150666209E+02  0.59301932284E+02  0.49999978582E+02 0.  0.
         12    1    1    2    0    0  0.67228689987E+01 -0.10771915286E+01  0.31150666209E+02  0.31886067716E+02  0.00000000000E+00 0. -1.
         11    1    3    3    0    0  0.51302596583E+01 -0.10153198608E+02  0.73739593975E+01  0.13556632458E+02  0.51100000000E-03 0. -1.
        -11    1    3    3    0    0 -0.24505974066E+01  0.84094615459E+01 -0.36049943615E+01  0.94720882464E+01  0.51100000000E-03 0.  1.
         12    1    3    3    0    0 -0.94025312504E+01  0.28209285908E+01 -0.34919631245E+02  0.36273211580E+02  0.00000000000E+00 0. -1.
</event>
<event>
 7    1  0.7579108E-012  0.5930191E+02  0.7816164E-02  0.1266605E+00
        -11   -1    0    0    0    0  0.00000000000E+00  0.00000000000E+00  0.45593999997E+02  0.45594000000E+02  0.51100000000E-03 0. -1.
         11   -1    0    0    0    0 -0.00000000000E+00 -0.00000000000E+00 -0.45593999997E+02  0.45594000000E+02  0.51100000000E-03 0.  1.
    9900012    2    1    2    0    0 -0.65278853366E+01 -0.80130009576E+01 -0.30164568248E+02  0.59301911358E+02  0.49999940417E+02 0.  0.
         12    1    1    2    0    0  0.65278853366E+01  0.80130009576E+01  0.30164568248E+02  0.31886088642E+02  0.00000000000E+00 0. -1.
         11    1    3    3    0    0  0.72473833774E+01 -0.17954581202E+02  0.28658659496E+01  0.19573061586E+02  0.51100000000E-03 0. -1.
        -11    1    3    3    0    0 -0.89226408741E+01  0.60756079095E+01 -0.67622854471E+01  0.12737936896E+02  0.51100000000E-03 0.  1.
         12    1    3    3    0    0 -0.48526278399E+01  0.38659723349E+01 -0.26268148751E+02  0.26990912875E+02  0.00000000000E+00 0. -1.
</event>
<event>
 7    1  0.7579108E-012  0.5930193E+02  0.7816164E-02  0.1266605E+00
        -11   -1    0    0    0    0  0.00000000000E+00  0.00000000000E+00  0.45593999997E+02  0.45594000000E+02  0.51100000000E-03 0. -1.
         11   -1    0    0    0    0 -0.00000000000E+00 -0.00000000000E+00 -0.45593999997E+02  0.45594000000E+02  0.51100000000E-03 0.  1.
    9900012    2    1    2    0    0  0.25293865263E+02 -0.89386882416E+01 -0.17234903461E+02  0.59301926791E+02  0.49999968564E+02 0.  0.
         12    1    1    2    0    0 -0.25293865263E+02  0.89386882416E+01  0.17234903461E+02  0.31886073209E+02  0.00000000000E+00 0. -1.
         11    1    3    3    0    0  0.17737641634E+02  0.11032062998E+02  0.29845709946E+01  0.21100663710E+02  0.51100000000E-03 0. -1.
        -11    1    3    3    0    0  0.73212074744E+01 -0.22839096464E+02 -0.23677472731E+02  0.33702331097E+02  0.51100000000E-03 0.  1.
        -12    1    3    3    0    0  0.23501615458E+00  0.28683452247E+01  0.34579982754E+01  0.44989319837E+01  0.00000000000E+00 0.  1.
</event>
<event>
 7    1  0.7579108E-012  0.5930195E+02  0.7816164E-02  0.1266605E+00
        -11   -1    0    0    0    0  0.00000000000E+00  0.00000000000E+00  0.45593999997E+02  0.45594000000E+02  0.51100000000E-03 0. -1.
         11   -1    0    0    0    0 -0.00000000000E+00 -0.00000000000E+00 -0.45593999997E+02  0.45594000000E+02  0.51100000000E-03 0.  1.
    9900012    2    1    2    0    0  0.20007729650E+01  0.31760414510E+02 -0.19983679031E+01  0.59301945108E+02  0.50000001970E+02 0.  0.
         12    1    1    2    0    0 -0.20007729650E+01 -0.31760414510E+02  0.19983679031E+01  0.31886054892E+02  0.00000000000E+00 0. -1.
         11    1    3    3    0    0  0.48224293758E+01 -0.45048108304E+00 -0.62607281567E+01  0.79155211833E+01  0.51100000000E-03 0. -1.
        -11    1    3    3    0    0 -0.17259587213E+02  0.30442267519E+02 -0.30101196449E+01  0.35123864010E+02  0.51100000000E-03 0.  1.
        -12    1    3    3    0    0  0.14437930802E+02  0.17686280748E+01  0.72724798984E+01  0.16262559915E+02  0.00000000000E+00 0.  1.
</event>
<event>
 7    1  0.7579108E-012  0.5930195E+02  0.7816164E-02  0.1266605E+00
        -11   -1    0    0    0    0  0.00000000000E+00  0.00000000000E+00  0.45593999997E+02  0.45594000000E+02  0.51100000000E-03 0. -1.
         11   -1    0    0    0    0 -0.00000000000E+00 -0.00000000000E+00 -0.45593999997E+02  0.45594000000E+02  0.51100000000E-03 0.  1.
    9900012    2    1    2    0    0  0.11385433587E+01  0.31025894425E+02 -0.72675653268E+01  0.59301954280E+02  0.50000018698E+02 0.  0.
         12    1    1    2    0    0 -0.11385433587E+01 -0.31025894425E+02  0.72675653268E+01  0.31886045720E+02  0.00000000000E+00 0. -1.
         11    1    3    3    0    0 -0.82905532168E+00 -0.57783455031E+01  0.49779998988E+01  0.76718376373E+01  0.51100000000E-03 0. -1.
        -11    1    3    3    0    0  0.71770084927E+01  0.28740641688E+02 -0.22786184617E+02  0.37373040353E+02  0.51100000000E-03 0.  1.
        -12    1    3    3    0    0 -0.52094098123E+01  0.80635982401E+01  0.10540619392E+02  0.14257076290E+02  0.00000000000E+00 0.  1.
</event>
<event>
 7    1  0.7579108E-012  0.5930190E+02  0.7816164E-02  0.1266605E+00
        -11   -1    0    0    0    0  0.00000000000E+00  0.00000000000E+00  0.45593999997E+02  0.45594000000E+02  0.51100000000E-03 0. -1.
         11   -1    0    0    0    0 -0.00000000000E+00 -0.00000000000E+00 -0.45593999997E+02  0.45594000000E+02  0.51100000000E-03 0.  1.
    9900012    2    1    2    0    0  0.19466505200E+02  0.24063199754E+02  0.76642654944E+01  0.59301900008E+02  0.49999919719E+02 0.  0.
         12    1    1    2    0    0 -0.19466505200E+02 -0.24063199754E+02 -0.76642654944E+01  0.31886099992E+02  0.00000000000E+00 0. -1.
         11    1    3    3    0    0  0.19443610305E+02 -0.73482911883E+01  0.95040333767E+01  0.22855590471E+02  0.51100000000E-03 0. -1.
        -11    1    3    3    0    0 -0.17322623740E+01  0.12329871805E+02 -0.96508572441E+01  0.15753270056E+02  0.51100000000E-03 0.  1.
         12    1    3    3    0    0  0.17551572686E+01  0.19081619138E+02  0.78110893618E+01  0.20693039481E+02  0.00000000000E+00 0. -1.
</event>
<event>
 7    1  0.7579108E-012  0.5930194E+02  0.7816164E-02  0.1266605E+00
        -11   -1    0    0    0    0  0.00000000000E+00  0.00000000000E+00  0.45593999997E+02  0.45594000000E+02  0.51100000000E-03 0. -1.
         11   -1    0    0    0    0 -0.00000000000E+00 -0.00000000000E+00 -0.45593999997E+02  0.45594000000E+02  0.51100000000E-03 0.  1.
    9900012    2    1    2    0    0  0.11459806122E+02  0.74916026831E+01 -0.28797036516E+02  0.59301943812E+02  0.49999999606E+02 0.  0.
         12    1    1    2    0    0 -0.11459806122E+02 -0.74916026831E+01  0.28797036516E+02  0.31886056188E+02  0.00000000000E+00 0. -1.
         11    1    3    3    0    0  0.36910303595E+01  0.47910217855E+01 -0.25872077358E+01  0.65780877915E+01  0.51100000000E-03 0. -1.
        -11    1    3    3    0    0  0.10027386839E+02 -0.10225656945E+02  0.77732789940E+01  0.16295288072E+02  0.51100000000E-03 0.  1.
        -12    1    3    3    0    0 -0.22586110761E+01  0.12926237842E+02 -0.33983107775E+02  0.36428567948E+02  0.00000000000E+00 0.  1.
</event>
<event>
 7    1  0.7579108E-012  0.5930192E+02  0.7816164E-02  0.1266605E+00
        -11   -1    0    0    0    0  0.00000000000E+00  0.00000000000E+00  0.45593999997E+02  0.45594000000E+02  0.51100000000E-03 0.  1.
         11   -1    0    0    0    0 -0.00000000000E+00 -0.00000000000E+00 -0.45593999997E+02  0.45594000000E+02  0.51100000000E-03 0. -1.
    9900012    2    1    2    0    0  0.14217495700E+02  0.23300756688E+02  0.16482099324E+02  0.59301920838E+02  0.49999957707E+02 0.  0.
         12    1    1    2    0    0 -0.14217495700E+02 -0.23300756688E+02 -0.16482099324E+02  0.31886079162E+02  0.00000000000E+00 0. -1.
         11    1    3    3    0    0 -0.24542962064E+01  0.17549595845E+02  0.23741135346E+02  0.29625215476E+02  0.51100000000E-03 0. -1.
        -11    1    3    3    0    0  0.53038085129E+01  0.13661899214E+02 -0.57585873632E+01  0.15746085340E+02  0.51100000000E-03 0.  1.
         12    1    3    3    0    0  0.11367983394E+02 -0.79107383707E+01 -0.15004486587E+01  0.13930620022E+02  0.00000000000E+00 0. -1.
</event>
<event>
 7    1  0.7579108E-012  0.5930194E+02  0.7816164E-02  0.1266605E+00
        -11   -1    0    0    0    0  0.00000000000E+00  0.00000000000E+00  0.45593999997E+02  0.45594000000E+02  0.51100000000E-03 0.  1.
         11   -1    0    0    0    0 -0.00000000000E+00 -0.00000000000E+00 -0.45593999997E+02  0.45594000000E+02  0.51100000000E-03 0. -1.
    9900012    2    1    2    0    0  0.16456902550E+02  0.77481009173E+00  0.27300016760E+02  0.59301938981E+02  0.49999990795E+02 0.  0.
         12    1    1    2    0    0 -0.16456902550E+02 -0.77481009173E+00 -0.27300016760E+02  0.31886061019E+02  0.00000000000E+00 0. -1.
         11    1    3    3    0    0 -0.71816056846E+01 -0.90836819031E+00 -0.58050123136E+01  0.92789418147E+01  0.51100000000E-03 0. -1.
        -11    1    3    3    0    0  0.62879474157E+01  0.76207361682E+01  0.29792272865E+02  0.31387791020E+02  0.51100000000E-03 0.  1.
        -12    1    3    3    0    0  0.17350560819E+02 -0.59375578862E+01  0.33127562095E+01  0.18635206145E+02  0.00000000000E+00 0.  1.
</event>
<event>
 7    1  0.7579108E-012  0.5930195E+02  0.7816164E-02  0.1266605E+00
        -11   -1    0    0    0    0  0.00000000000E+00  0.00000000000E+00  0.45593999997E+02  0.45594000000E+02  0.51100000000E-03 0.  1.
         11   -1    0    0    0    0 -0.00000000000E+00 -0.00000000000E+00 -0.45593999997E+02  0.45594000000E+02  0.51100000000E-03 0. -1.
    9900012    2    1    2    0    0  0.31555128674E+02  0.43981716573E+01  0.12846388226E+01  0.59301947305E+02  0.50000005978E+02 0.  0.
         12    1    1    2    0    0 -0.31555128674E+02 -0.43981716573E+01 -0.12846388226E+01  0.31886052695E+02  0.00000000000E+00 0. -1.
         11    1    3    3    0    0  0.21682916929E+02  0.77738905325E+01 -0.98550841077E+01  0.25054040464E+02  0.51100000000E-03 0. -1.
        -11    1    3    3    0    0  0.44470320141E+01 -0.12630761736E+02  0.17300076334E+02  0.21877039955E+02  0.51100000000E-03 0.  1.
         12    1    3    3    0    0  0.54251797311E+01  0.92550428610E+01 -0.61603534034E+01  0.12370866887E+02  0.00000000000E+00 0. -1.
</event>
<event>
 7    1  0.7579108E-012  0.5930195E+02  0.7816164E-02  0.1266605E+00
        -11   -1    0    0    0    0  0.00000000000E+00  0.00000000000E+00  0.45593999997E+02  0.45594000000E+02  0.51100000000E-03 0.  1.
         11   -1    0    0    0    0 -0.00000000000E+00 -0.00000000000E+00 -0.45593999997E+02  0.45594000000E+02  0.51100000000E-03 0. -1.
    9900012    2    1    2    0    0 -0.28302328400E+02 -0.18282959148E+01  0.14572438191E+02  0.59301946408E+02  0.50000004342E+02 0.  0.
         12    1    1    2    0    0  0.28302328400E+02  0.18282959148E+01 -0.14572438191E+02  0.31886053592E+02  0.00000000000E+00 0. -1.
         11    1    3    3    0    0 -0.14364029587E+02 -0.23156977082E+02  0.70335948062E+01  0.28143247675E+02  0.51100000000E-03 0. -1.
        -11    1    3    3    0    0 -0.29528981666E+01  0.17148740628E+02  0.84990837298E+01  0.19365777475E+02  0.51100000000E-03 0.  1.
         12    1    3    3    0    0 -0.10985400647E+02  0.41799405394E+01 -0.96024034546E+00  0.11792921258E+02  0.00000000000E+00 0. -1.
</event>
<event>
 7    1  0.7579108E-012  0.5930196E+02  0.7816164E-02  0.1266605E+00
        -11   -1    0    0    0    0  0.00000000000E+00  0.00000000000E+00  0.45593999997E+02  0.45594000000E+02  0.51100000000E-03 0.  1.
         11   -1    0    0    0    0 -0.00000000000E+00 -0.00000000000E+00 -0.45593999997E+02  0.45594000000E+02  0.51100000000E-03 0. -1.
    9900012    2    1    2    0    0 -0.31255852966E+02  0.30894160460E+01 -0.54997068824E+01  0.59301958980E+02  0.50000027270E+02 0.  0.
         12    1    1    2    0    0  0.31255852966E+02 -0.30894160460E+01  0.54997068824E+01  0.31886041020E+02  0.00000000000E+00 0. -1.
         11    1    3    3    0    0 -0.32145515662E+02  0.16129955459E+01 -0.21693218126E+02  0.38814065037E+02  0.51100000000E-03 0. -1.
        -11    1    3    3    0    0 -0.32069336782E+00 -0.53489644528E+01  0.50432892303E+01  0.73586025491E+01  0.51100000000E-03 0.  1.
         12    1    3    3    0    0  0.12103560643E+01  0.68253849529E+01  0.11150222013E+02  0.13129291394E+02  0.00000000000E+00 0. -1.
</event>
<event>
 7    1  0.7579108E-012  0.5930191E+02  0.7816164E-02  0.1266605E+00
        -11   -1    0    0    0    0  0.00000000000E+00  0.00000000000E+00  0.45593999997E+02  0.45594000000E+02  0.51100000000E-03 0.  1.
         11   -1    0    0    0    0 -0.00000000000E+00 -0.00000000000E+00 -0.45593999997E+02  0.45594000000E+02  0.51100000000E-03 0. -1.
    9900012    2    1    2    0    0  0.31120888760E+02  0.60171400569E+01  0.34650762724E+01  0.59301914551E+02  0.49999946242E+02 0.  0.
         12    1    1    2    0    0 -0.31120888760E+02 -0.60171400569E+01 -0.34650762724E+01  0.31886085449E+02  0.00000000000E+00 0. -1.
         11    1    3    3    0    0  0.15075540962E+02 -0.13046583422E+02 -0.64319186371E+01  0.20948862783E+02  0.51100000000E-03 0. -1.
        -11    1    3    3    0    0  0.13259603962E+02  0.49491859862E+01  0.17154491597E+02  0.22239337251E+02  0.51100000000E-03 0.  1.
         12    1    3    3    0    0  0.27857438357E+01  0.14114537493E+02 -0.72574966876E+01  0.16113714517E+02  0.00000000000E+00 0. -1.
</event>
<event>
 7    1  0.7579108E-012  0.5930189E+02  0.7816164E-02  0.1266605E+00
        -11   -1    0    0    0    0  0.00000000000E+00  0.00000000000E+00  0.45593999997E+02  0.45594000000E+02  0.51100000000E-03 0.  1.
         11   -1    0    0    0    0 -0.00000000000E+00 -0.00000000000E+00 -0.45593999997E+02  0.45594000000E+02  0.51100000000E-03 0. -1.
    9900012    2    1    2    0    0 -0.78279794827E+01  0.19514871189E+02  0.23971154246E+02  0.59301894935E+02  0.49999910467E+02 0.  0.
         12    1    1    2    0    0  0.78279794827E+01 -0.19514871189E+02 -0.23971154246E+02  0.31886105065E+02  0.00000000000E+00 0. -1.
         11    1    3    3    0    0 -0.26708118203E+02  0.12423127477E+02  0.10550344049E+02  0.31288455284E+02  0.51100000000E-03 0. -1.
        -11    1    3    3    0    0  0.39336520397E+01  0.47391450021E+01  0.11116259756E+02  0.12708435975E+02  0.51100000000E-03 0.  1.
         12    1    3    3    0    0  0.14946486681E+02  0.23525987101E+01  0.23045504415E+01  0.15305003676E+02  0.00000000000E+00 0. -1.
</event>
<event>
 7    1  0.7579108E-012  0.5930194E+02  0.7816164E-02  0.1266605E+00
        -11   -1    0    0    0    0  0.00000000000E+00  0.00000000000E+00  0.45593999997E+02  0.45594000000E+02  0.51100000000E-03 0.  1.
         11   -1    0    0    0    0 -0.00000000000E+00 -0.00000000000E+00 -0.45593999997E+02  0.45594000000E+02  0.51100000000E-03 0. -1.
    9900012    2    1    2    0    0 -0.19582303105E+02  0.12765438360E+02  0.21686347559E+02  0.59301942203E+02  0.49999996671E+02 0.  0.
         12    1    1    2    0    0  0.19582303105E+02 -0.12765438360E+02 -0.21686347559E+02  0.31886057797E+02  0.00000000000E+00 0. -1.
         11    1    3    3    0    0 -0.21322649619E+01 -0.14830017829E+02  0.21172044821E+02  0.25937067391E+02  0.51100000000E-03 0. -1.
        -11    1    3    3    0    0 -0.15532935426E+02  0.19012978520E+02 -0.71677316967E-01  0.24551386377E+02  0.51100000000E-03 0.  1.
        -12    1    3    3    0    0 -0.19171027173E+01  0.85824776683E+01  0.58598005527E+00  0.88134884342E+01  0.00000000000E+00 0.  1.
</event>
<event>
 7    1  0.7579108E-012  0.5930194E+02  0.7816164E-02  0.1266605E+00
        -11   -1    0    0    0    0  0.00000000000E+00  0.00000000000E+00  0.45593999997E+02  0.45594000000E+02  0.51100000000E-03 0. -1.
         11   -1    0    0    0    0 -0.00000000000E+00 -0.00000000000E+00 -0.45593999997E+02  0.45594000000E+02  0.51100000000E-03 0.  1.
    9900012    2    1    2    0    0 -0.22158422242E+02  0.81516308422E+01 -0.21430725034E+02  0.59301941336E+02  0.49999995091E+02 0.  0.
         12    1    1    2    0    0  0.22158422242E+02 -0.81516308422E+01  0.21430725034E+02  0.31886058664E+02  0.00000000000E+00 0. -1.
         11    1    3    3    0    0 -0.54744948517E+01  0.21366203691E+02  0.21822742800E+01  0.22164094282E+02  0.51100000000E-03 0. -1.
        -11    1    3    3    0    0 -0.12421660059E+02 -0.76352505531E+01 -0.25926665260E+02  0.29745363696E+02  0.51100000000E-03 0.  1.
         12    1    3    3    0    0 -0.42622673312E+01 -0.55793222960E+01  0.23136659461E+01  0.73924833578E+01  0.00000000000E+00 0. -1.
</event>
<event>
 7    1  0.7579108E-012  0.5930195E+02  0.7816164E-02  0.1266605E+00
        -11   -1    0    0    0    0  0.00000000000E+00  0.00000000000E+00  0.45593999997E+02  0.45594000000E+02  0.51100000000E-03 0. -1.
         11   -1    0    0    0    0 -0.00000000000E+00 -0.00000000000E+00 -0.45593999997E+02  0.45594000000E+02  0.51100000000E-03 0.  1.
    9900012    2    1    2    0    0  0.36769022188E+01 -0.27277643375E+02 -0.16097538120E+02  0.59301950204E+02  0.50000011265E+02 0.  0.
         12    1    1    2    0    0 -0.36769022188E+01  0.27277643375E+02  0.16097538120E+02  0.31886049796E+02  0.00000000000E+00 0. -1.
         11    1    3    3    0    0 -0.16061366656E+02 -0.17462576909E+02  0.40250663490E+01  0.24064709650E+02  0.51100000000E-03 0. -1.
        -11    1    3    3    0    0  0.47714274486E+01 -0.65463048940E+01 -0.18041805934E+02  0.19776940847E+02  0.51100000000E-03 0.  1.
         12    1    3    3    0    0  0.14966841426E+02 -0.32687615722E+01 -0.20807985358E+01  0.15460299707E+02  0.00000000000E+00 0. -1.
</event>
<event>
 7    1  0.7579108E-012  0.5930195E+02  0.7816164E-02  0.1266605E+00
        -11   -1    0    0    0    0  0.00000000000E+00  0.00000000000E+00  0.45593999997E+02  0.45594000000E+02  0.51100000000E-03 0.  1.
         11   -1    0    0    0    0 -0.00000000000E+00 -0.00000000000E+00 -0.45593999997E+02  0.45594000000E+02  0.51100000000E-03 0. -1.
    9900012    2    1    2    0    0  0.24971440770E+02  0.18817975479E+02  0.62474812127E+01  0.59301951691E+02  0.50000013977E+02 0.  0.
         12    1    1    2    0    0 -0.24971440770E+02 -0.18817975479E+02 -0.62474812127E+01  0.31886048309E+02  0.00000000000E+00 0. -1.
         11    1    3    3    0    0 -0.50710330917E+00  0.39834370115E+01 -0.37593373330E+01  0.55006855605E+01  0.51100000000E-03 0. -1.
        -11    1    3    3    0    0  0.29720370776E+02  0.24461557958E+02  0.16009608726E+02  0.41689037271E+02  0.51100000000E-03 0.  1.
        -12    1    3    3    0    0 -0.42418266971E+01 -0.96270194906E+01 -0.60027901803E+01  0.12112228860E+02  0.00000000000E+00 0.  1.
</event>
<event>
 7    1  0.7579108E-012  0.5930195E+02  0.7816164E-02  0.1266605E+00
        -11   -1    0    0    0    0  0.00000000000E+00  0.00000000000E+00  0.45593999997E+02  0.45594000000E+02  0.51100000000E-03 0. -1.
         11   -1    0    0    0    0 -0.00000000000E+00 -0.00000000000E+00 -0.45593999997E+02  0.45594000000E+02  0.51100000000E-03 0.  1.
    9900012    2    1    2    0    0 -0.17794867582E+02  0.11730354083E+02 -0.23716269596E+02  0.59301953479E+02  0.50000017236E+02 0.  0.
         12    1    1    2    0    0  0.17794867582E+02 -0.11730354083E+02  0.23716269596E+02  0.31886046521E+02  0.00000000000E+00 0. -1.
         11    1    3    3    0    0  0.21290202112E+01 -0.30391738560E+01  0.79134106670E+01  0.87402158688E+01  0.51100000000E-03 0. -1.
        -11    1    3    3    0    0 -0.87544430206E+01  0.16344534194E+02 -0.34281370380E+02  0.38974304689E+02  0.51100000000E-03 0.  1.
         12    1    3    3    0    0 -0.11169444773E+02 -0.15750062543E+01  0.26516901161E+01  0.11587432921E+02  0.00000000000E+00 0. -1.
</event>
<event>
 7    1  0.7579108E-012  0.5930192E+02  0.7816164E-02  0.1266605E+00
        -11   -1    0    0    0    0  0.00000000000E+00  0.00000000000E+00  0.45593999997E+02  0.45594000000E+02  0.51100000000E-03 0. -1.
         11   -1    0    0    0    0 -0.00000000000E+00 -0.00000000000E+00 -0.45593999997E+02  0.45594000000E+02  0.51100000000E-03 0.  1.
    9900012    2    1    2    0    0 -0.26473276124E+02 -0.76125995778E+01 -0.16060381884E+02  0.59301923300E+02  0.49999962197E+02 0.  0.
         12    1    1    2    0    0  0.26473276124E+02  0.76125995778E+01  0.16060381884E+02  0.31886076700E+02  0.00000000000E+00 0. -1.
         11    1    3    3    0    0 -0.11243537082E+02  0.12430921490E+02  0.23259620631E+01  0.16922028099E+02  0.51100000000E-03 0.  1.
        -11    1    3    3    0    0 -0.75423737752E+00 -0.18945660245E+02 -0.93293254976E-02  0.18960669910E+02  0.51100000000E-03 0. -1.
        -12    1    3    3    0    0 -0.14475501665E+02 -0.10978608229E+01 -0.18377014622E+02  0.23419225291E+02  0.00000000000E+00 0.  1.
</event>
<event>
 7    1  0.7579108E-012  0.5930191E+02  0.7816164E-02  0.1266605E+00
        -11   -1    0    0    0    0  0.00000000000E+00  0.00000000000E+00  0.45593999997E+02  0.45594000000E+02  0.51100000000E-03 0. -1.
         11   -1    0    0    0    0 -0.00000000000E+00 -0.00000000000E+00 -0.45593999997E+02  0.45594000000E+02  0.51100000000E-03 0.  1.
    9900012    2    1    2    0    0  0.34566813351E+01  0.99231229824E+01 -0.30104913627E+02  0.59301908360E+02  0.49999934950E+02 0.  0.
         12    1    1    2    0    0 -0.34566813351E+01 -0.99231229824E+01  0.30104913627E+02  0.31886091640E+02  0.00000000000E+00 0. -1.
         11    1    3    3    0    0 -0.11598612339E+01 -0.16637569886E+02 -0.18319130182E+02  0.24773868101E+02  0.51100000000E-03 0. -1.
        -11    1    3    3    0    0 -0.30915679385E+01  0.18880879968E+02 -0.13631385981E+02  0.23491702891E+02  0.51100000000E-03 0.  1.
        -12    1    3    3    0    0  0.77081105075E+01  0.76798129010E+01  0.18456025350E+01  0.11036337368E+02  0.00000000000E+00 0.  1.
</event>
<event>
 7    1  0.7579108E-012  0.5930194E+02  0.7816164E-02  0.1266605E+00
        -11   -1    0    0    0    0  0.00000000000E+00  0.00000000000E+00  0.45593999997E+02  0.45594000000E+02  0.51100000000E-03 0.  1.
         11   -1    0    0    0    0 -0.00000000000E+00 -0.00000000000E+00 -0.45593999997E+02  0.45594000000E+02  0.51100000000E-03 0. -1.
    9900012    2    1    2    0    0  0.21774167922E+02 -0.22355278810E+02  0.65458332546E+01  0.59301940156E+02  0.49999992939E+02 0.  0.
         12    1    1    2    0    0 -0.21774167922E+02  0.22355278810E+02 -0.65458332546E+01  0.31886059844E+02  0.00000000000E+00 0. -1.
         11    1    3    3    0    0  0.16187763465E+02 -0.17038698738E+01 -0.15959343440E+02  0.22795778159E+02  0.51100000000E-03 0. -1.
        -11    1    3    3    0    0 -0.34965682935E+01 -0.13586972499E+01  0.12312827619E+02  0.12871587792E+02  0.51100000000E-03 0.  1.
         12    1    3    3    0    0  0.90829727504E+01 -0.19292711686E+02  0.10192349076E+02  0.23634574206E+02  0.00000000000E+00 0. -1.
</event>
<event>
 7    1  0.7579108E-012  0.5930194E+02  0.7816164E-02  0.1266605E+00
        -11   -1    0    0    0    0  0.00000000000E+00  0.00000000000E+00  0.45593999997E+02  0.45594000000E+02  0.51100000000E-03 0.  1.
         11   -1    0    0    0    0 -0.00000000000E+00 -0.00000000000E+00 -0.45593999997E+02  0.45594000000E+02  0.51100000000E-03 0. -1.
    9900012    2    1    2    0    0  0.64983997904E+01 -0.97106415816E+01  0.29668077915E+02  0.59301943378E+02  0.49999998815E+02 0.  0.
         12    1    1    2    0    0 -0.64983997904E+01  0.97106415816E+01 -0.29668077915E+02  0.31886056622E+02  0.00000000000E+00 0. -1.
         11    1    3    3    0    0  0.26142999756E+01 -0.32059826828E+01 -0.12656922071E+02  0.13315801361E+02  0.51100000000E-03 0. -1.
        -11    1    3    3    0    0  0.38314518013E+01 -0.93911781499E+01  0.12852443552E+02  0.16372524408E+02  0.51100000000E-03 0.  1.
         12    1    3    3    0    0  0.52648013586E-01  0.28865192511E+01  0.29472556433E+02  0.29613617609E+02  0.00000000000E+00 0. -1.
</event>
<event>
 7    1  0.7579108E-012  0.5930194E+02  0.7816164E-02  0.1266605E+00
        -11   -1    0    0    0    0  0.00000000000E+00  0.00000000000E+00  0.45593999997E+02  0.45594000000E+02  0.51100000000E-03 0.  1.
         11   -1    0    0    0    0 -0.00000000000E+00 -0.00000000000E+00 -0.45593999997E+02  0.45594000000E+02  0.51100000000E-03 0. -1.
    9900012    2    1    2    0    0 -0.29912649933E+02 -0.30593696716E+01 -0.10611043217E+02  0.59301943378E+02  0.49999998814E+02 0.  0.
         12    1    1    2    0    0  0.29912649933E+02  0.30593696716E+01  0.10611043217E+02  0.31886056622E+02  0.00000000000E+00 0. -1.
         11    1    3    3    0    0 -0.59423437752E+01 -0.19062746681E+01 -0.18814705070E+01  0.65180721217E+01  0.51100000000E-03 0. -1.
        -11    1    3    3    0    0  0.78904099335E+01  0.94796677671E+01  0.85539868963E+01  0.15009775547E+02  0.51100000000E-03 0.  1.
        -12    1    3    3    0    0 -0.31860716091E+02 -0.10632762771E+02 -0.17283559606E+02  0.37774095709E+02  0.00000000000E+00 0.  1.
</event>
<event>
 7    1  0.7579108E-012  0.5930197E+02  0.7816164E-02  0.1266605E+00
        -11   -1    0    0    0    0  0.00000000000E+00  0.00000000000E+00  0.45593999997E+02  0.45594000000E+02  0.51100000000E-03 0.  1.
         11   -1    0    0    0    0 -0.00000000000E+00 -0.00000000000E+00 -0.45593999997E+02  0.45594000000E+02  0.51100000000E-03 0. -1.
    9900012    2    1    2    0    0 -0.41204557808E+01 -0.31206025074E+02 -0.50916356135E+01  0.59301969987E+02  0.50000047344E+02 0.  0.
         12    1    1    2    0    0  0.41204557808E+01  0.31206025074E+02  0.50916356135E+01  0.31886030013E+02  0.00000000000E+00 0. -1.
         11    1    3    3    0    0 -0.65243115601E+01 -0.61222818671E+01 -0.13984971005E+02  0.16602059838E+02  0.51100000000E-03 0. -1.
        -11    1    3    3    0    0  0.13783619483E+02 -0.10478787614E+02  0.15301952137E+02  0.23107204405E+02  0.51100000000E-03 0.  1.
        -12    1    3    3    0    0 -0.11379763704E+02 -0.14604955592E+02 -0.64086167460E+01  0.19592705745E+02  0.00000000000E+00 0.  1.
</event>
<event>
 7    1  0.7579108E-012  0.5930192E+02  0.7816164E-02  0.1266605E+00
        -11   -1    0    0    0    0  0.00000000000E+00  0.00000000000E+00  0.45593999997E+02  0.45594000000E+02  0.51100000000E-03 0. -1.
         11   -1    0    0    0    0 -0.00000000000E+00 -0.00000000000E+00 -0.45593999997E+02  0.45594000000E+02  0.51100000000E-03 0.  1.
    9900012    2    1    2    0    0  0.18549666780E+01 -0.12599188683E+02 -0.29232543210E+02  0.59301920916E+02  0.49999957849E+02 0.  0.
         12    1    1    2    0    0 -0.18549666780E+01  0.12599188683E+02  0.29232543210E+02  0.31886079084E+02  0.00000000000E+00 0. -1.
         11    1    3    3    0    0  0.49842635008E+01  0.92334769274E+00  0.12609265703E+01  0.52235418715E+01  0.51100000000E-03 0. -1.
        -11    1    3    3    0    0 -0.11505844635E+02 -0.11649663166E+02 -0.38812619048E+02  0.42125034247E+02  0.51100000000E-03 0.  1.
        -12    1    3    3    0    0  0.83765478125E+01 -0.18728732097E+01  0.83191492674E+01  0.11953344797E+02  0.00000000000E+00 0.  1.
</event>
<event>
 7    1  0.7579108E-012  0.5930194E+02  0.7816164E-02  0.1266605E+00
        -11   -1    0    0    0    0  0.00000000000E+00  0.00000000000E+00  0.45593999997E+02  0.45594000000E+02  0.51100000000E-03 0.  1.
         11   -1    0    0    0    0 -0.00000000000E+00 -0.00000000000E+00 -0.45593999997E+02  0.45594000000E+02  0.51100000000E-03 0. -1.
    9900012    2    1    2    0    0  0.45246212437E+01 -0.27273447497E+02 -0.15887345084E+02  0.59301939259E+02  0.49999991303E+02 0.  0.
         12    1    1    2    0    0 -0.45246212437E+01  0.27273447497E+02  0.15887345084E+02  0.31886060741E+02  0.00000000000E+00 0. -1.
         11    1    3    3    0    0  0.10063850488E+02 -0.26635383709E+01  0.10960337561E+02  0.15116366065E+02  0.51100000000E-03 0. -1.
        -11    1    3    3    0    0 -0.83780119463E+01 -0.24863043364E+02 -0.30054500033E+02  0.39895300250E+02  0.51100000000E-03 0.  1.
        -12    1    3    3    0    0  0.28387827019E+01  0.25313423847E+00  0.32068173885E+01  0.42902729441E+01  0.00000000000E+00 0.  1.
</event>
<event>
 7    1  0.7579108E-012  0.5930192E+02  0.7816164E-02  0.1266605E+00
        -11   -1    0    0    0    0  0.00000000000E+00  0.00000000000E+00  0.45593999997E+02  0.45594000000E+02  0.51100000000E-03 0.  1.
         11   -1    0    0    0    0 -0.00000000000E+00 -0.00000000000E+00 -0.45593999997E+02  0.45594000000E+02  0.51100000000E-03 0. -1.
    9900012    2    1    2    0    0  0.19474970352E+02 -0.20944218765E+02  0.14099196606E+02  0.59301919733E+02  0.49999955692E+02 0.  0.
         12    1    1    2    0    0 -0.19474970352E+02  0.20944218765E+02 -0.14099196606E+02  0.31886080267E+02  0.00000000000E+00 0. -1.
         11    1    3    3    0    0  0.41415584886E+01  0.14951959072E+02  0.12799574220E+01  0.15567654868E+02  0.51100000000E-03 0. -1.
        -11    1    3    3    0    0  0.92575713722E+01 -0.21512828419E+02  0.15227993988E+02  0.27935572581E+02  0.51100000000E-03 0.  1.
         12    1    3    3    0    0  0.60758404915E+01 -0.14383349418E+02 -0.24087548043E+01  0.15798692284E+02  0.00000000000E+00 0. -1.
</event>
<event>
 7    1  0.7579108E-012  0.5930194E+02  0.7816164E-02  0.1266605E+00
        -11   -1    0    0    0    0  0.00000000000E+00  0.00000000000E+00  0.45593999997E+02  0.45594000000E+02  0.51100000000E-03 0. -1.
         11   -1    0    0    0    0 -0.00000000000E+00 -0.00000000000E+00 -0.45593999997E+02  0.45594000000E+02  0.51100000000E-03 0.  1.
    9900012    2    1    2    0    0  0.14197316604E+02  0.25866715188E+01 -0.28433533928E+02  0.59301944742E+02  0.50000001303E+02 0.  0.
         12    1    1    2    0    0 -0.14197316604E+02 -0.25866715188E+01  0.28433533928E+02  0.31886055258E+02  0.00000000000E+00 0. -1.
         11    1    3    3    0    0  0.53857794704E+01 -0.12104895880E+02  0.22103060241E+01  0.13432072728E+02  0.51100000000E-03 0. -1.
        -11    1    3    3    0    0 -0.64386118038E+01  0.17130489791E+02 -0.20024269518E+02  0.27127122450E+02  0.51100000000E-03 0.  1.
         12    1    3    3    0    0  0.15250148937E+02 -0.24389223913E+01 -0.10619570434E+02  0.18742749565E+02  0.00000000000E+00 0. -1.
</event>
<event>
 7    1  0.7579108E-012  0.5930191E+02  0.7816164E-02  0.1266605E+00
        -11   -1    0    0    0    0  0.00000000000E+00  0.00000000000E+00  0.45593999997E+02  0.45594000000E+02  0.51100000000E-03 0. -1.
         11   -1    0    0    0    0 -0.00000000000E+00 -0.00000000000E+00 -0.45593999997E+02  0.45594000000E+02  0.51100000000E-03 0.  1.
    9900012    2    1    2    0    0  0.18244869863E+02 -0.74814151934E+00 -0.26139768891E+02  0.59301913540E+02  0.49999944398E+02 0.  0.
         12    1    1    2    0    0 -0.18244869863E+02  0.74814151934E+00  0.26139768891E+02  0.31886086460E+02  0.00000000000E+00 0. -1.
         11    1    3    3    0    0 -0.21851951757E+01  0.50076658196E+01  0.11283676667E+02  0.12536871791E+02  0.51100000000E-03 0. -1.
        -11    1    3    3    0    0  0.22846213521E+02 -0.57266730382E+01 -0.37572058043E+02  0.44344151837E+02  0.51100000000E-03 0.  1.
         12    1    3    3    0    0 -0.24161484818E+01 -0.29134300730E-01  0.14861248441E+00  0.24208899117E+01  0.00000000000E+00 0. -1.
</event>
<event>
 7    1  0.7579108E-012  0.5930192E+02  0.7816164E-02  0.1266605E+00
        -11   -1    0    0    0    0  0.00000000000E+00  0.00000000000E+00  0.45593999997E+02  0.45594000000E+02  0.51100000000E-03 0.  1.
         11   -1    0    0    0    0 -0.00000000000E+00 -0.00000000000E+00 -0.45593999997E+02  0.45594000000E+02  0.51100000000E-03 0. -1.
    9900012    2    1    2    0    0  0.10672287731E+01 -0.23118252799E+02  0.21934662892E+02  0.59301921126E+02  0.49999958233E+02 0.  0.
         12    1    1    2    0    0 -0.10672287731E+01  0.23118252799E+02 -0.21934662892E+02  0.31886078874E+02  0.00000000000E+00 0. -1.
         11    1    3    3    0    0 -0.36337404879E+01 -0.22786679868E+02  0.15082422519E+01  0.23123832820E+02  0.51100000000E-03 0. -1.
        -11    1    3    3    0    0  0.14260335882E+02  0.19997798070E+01  0.21919059762E+02  0.26225969570E+02  0.51100000000E-03 0.  1.
         12    1    3    3    0    0 -0.95593666214E+01 -0.23313527381E+01 -0.14926391219E+01  0.99521187362E+01  0.00000000000E+00 0. -1.
</event>
<event>
 7    1  0.7579108E-012  0.5930194E+02  0.7816164E-02  0.1266605E+00
        -11   -1    0    0    0    0  0.00000000000E+00  0.00000000000E+00  0.45593999997E+02  0.45594000000E+02  0.51100000000E-03 0.  1.
         11   -1    0    0    0    0 -0.00000000000E+00 -0.00000000000E+00 -0.45593999997E+02  0.45594000000E+02  0.51100000000E-03 0. -1.
    9900012    2    1    2    0    0 -0.20604536625E+02  0.24212733421E+02  0.24326184919E+01  0.59301936870E+02  0.49999986946E+02 0.  0.
         12    1    1    2    0    0  0.20604536625E+02 -0.24212733421E+02 -0.24326184919E+01  0.31886063130E+02  0.00000000000E+00 0. -1.
         11    1    3    3    0    0 -0.87916151810E+01  0.47205817450E+01 -0.42569664576E+01  0.10848877969E+02  0.51100000000E-03 0. -1.
        -11    1    3    3    0    0 -0.26641919771E+01  0.14602367605E+02  0.24031086545E+02  0.28245710814E+02  0.51100000000E-03 0.  1.
        -12    1    3    3    0    0 -0.91487294665E+01  0.48897840702E+01 -0.17341501596E+02  0.20207348087E+02  0.00000000000E+00 0.  1.
</event>
<event>
 7    1  0.7579108E-012  0.5930195E+02  0.7816164E-02  0.1266605E+00
        -11   -1    0    0    0    0  0.00000000000E+00  0.00000000000E+00  0.45593999997E+02  0.45594000000E+02  0.51100000000E-03 0. -1.
         11   -1    0    0    0    0 -0.00000000000E+00 -0.00000000000E+00 -0.45593999997E+02  0.45594000000E+02  0.51100000000E-03 0.  1.
    9900012    2    1    2    0    0 -0.30831329682E+02 -0.80141350975E+01  0.13866957764E+01  0.59301950127E+02  0.50000011123E+02 0.  0.
         12    1    1    2    0    0  0.30831329682E+02  0.80141350975E+01 -0.13866957764E+01  0.31886049873E+02  0.00000000000E+00 0. -1.
         11    1    3    3    0    0 -0.44726339193E+01  0.10809226776E+02 -0.73378383885E+01  0.13808972089E+02  0.51100000000E-03 0. -1.
        -11    1    3    3    0    0 -0.29664515002E+02 -0.14032326967E+02 -0.24353716225E+01  0.32906240831E+02  0.51100000000E-03 0.  1.
        -12    1    3    3    0    0  0.33058192392E+01 -0.47910349067E+01  0.11159905787E+02  0.12586737206E+02  0.00000000000E+00 0.  1.
</event>
<event>
 7    1  0.7579108E-012  0.5930194E+02  0.7816164E-02  0.1266605E+00
        -11   -1    0    0    0    0  0.00000000000E+00  0.00000000000E+00  0.45593999997E+02  0.45594000000E+02  0.51100000000E-03 0. -1.
         11   -1    0    0    0    0 -0.00000000000E+00 -0.00000000000E+00 -0.45593999997E+02  0.45594000000E+02  0.51100000000E-03 0.  1.
    9900012    2    1    2    0    0 -0.94112562120E+00 -0.10792433046E+02 -0.29989307651E+02  0.59301938752E+02  0.49999990379E+02 0.  0.
         12    1    1    2    0    0  0.94112562120E+00  0.10792433046E+02  0.29989307651E+02  0.31886061248E+02  0.00000000000E+00 0. -1.
         11    1    3    3    0    0 -0.11444191799E+02  0.14658614342E+01 -0.23660051673E+02  0.26323303765E+02  0.51100000000E-03 0. -1.
        -11    1    3    3    0    0  0.35504090137E+01 -0.20788608439E+02 -0.21184526214E+01  0.21195742185E+02  0.51100000000E-03 0.  1.
        -12    1    3    3    0    0  0.69526571641E+01  0.85303139591E+01 -0.42108033567E+01  0.11782892802E+02  0.00000000000E+00 0.  1.
</event>
<event>
 7    1  0.7579108E-012  0.5930191E+02  0.7816164E-02  0.1266605E+00
        -11   -1    0    0    0    0  0.00000000000E+00  0.00000000000E+00  0.45593999997E+02  0.45594000000E+02  0.51100000000E-03 0.  1.
         11   -1    0    0    0    0 -0.00000000000E+00 -0.00000000000E+00 -0.45593999997E+02  0.45594000000E+02  0.51100000000E-03 0. -1.
    9900012    2    1    2    0    0  0.14968120323E+02 -0.11208199085E+02  0.25827392516E+02  0.59301912800E+02  0.49999943049E+02 0.  0.
         12    1    1    2    0    0 -0.14968120323E+02  0.11208199085E+02 -0.25827392516E+02  0.31886087200E+02  0.00000000000E+00 0. -1.
         11    1    3    3    0    0  0.18462714058E+02  0.58173586622E+01 -0.49184486299E-02  0.19357517832E+02  0.51100000000E-03 0. -1.
        -11    1    3    3    0    0  0.34441109492E+01 -0.19333028781E+02  0.26057588284E+02  0.32628604161E+02  0.51100000000E-03 0.  1.
         12    1    3    3    0    0 -0.69387046837E+01  0.23074710339E+01 -0.22527731906E+00  0.73157908070E+01  0.00000000000E+00 0. -1.
</event>
<event>
 7    1  0.7579108E-012  0.5930197E+02  0.7816164E-02  0.1266605E+00
        -11   -1    0    0    0    0  0.00000000000E+00  0.00000000000E+00  0.45593999997E+02  0.45594000000E+02  0.51100000000E-03 0.  1.
         11   -1    0    0    0    0 -0.00000000000E+00 -0.00000000000E+00 -0.45593999997E+02  0.45594000000E+02  0.51100000000E-03 0. -1.
    9900012    2    1    2    0    0 -0.53543942273E-01  0.31695553115E+02  0.34796402364E+01  0.59301970922E+02  0.50000049048E+02 0.  0.
         12    1    1    2    0    0  0.53543942273E-01 -0.31695553115E+02 -0.34796402364E+01  0.31886029078E+02  0.00000000000E+00 0. -1.
         11    1    3    3    0    0 -0.79901184091E+01  0.16284183397E+01 -0.14076808321E+02  0.16268075217E+02  0.51100000000E-03 0. -1.
        -11    1    3    3    0    0  0.63087142898E+01  0.32731061176E+02  0.20171299224E+02  0.38961565091E+02  0.51100000000E-03 0.  1.
        -12    1    3    3    0    0  0.16278601771E+01 -0.26639264010E+01 -0.26148506660E+01  0.40723306142E+01  0.00000000000E+00 0.  1.
</event>
<event>
 7    1  0.7579108E-012  0.5930189E+02  0.7816164E-02  0.1266605E+00
        -11   -1    0    0    0    0  0.00000000000E+00  0.00000000000E+00  0.45593999997E+02  0.45594000000E+02  0.51100000000E-03 0.  1.
         11   -1    0    0    0    0 -0.00000000000E+00 -0.00000000000E+00 -0.45593999997E+02  0.45594000000E+02  0.51100000000E-03 0. -1.
    9900012    2    1    2    0    0 -0.17696693382E+02 -0.10097813789E+02  0.24527228352E+02  0.59301894396E+02  0.49999909483E+02 0.  0.
         12    1    1    2    0    0  0.17696693382E+02  0.10097813789E+02 -0.24527228352E+02  0.31886105604E+02  0.00000000000E+00 0. -1.
         11    1    3    3    0    0 -0.34001850066E-02 -0.11897351441E+02  0.58547413365E+00  0.11911748952E+02  0.51100000000E-03 0. -1.
        -11    1    3    3    0    0 -0.38292082414E+01  0.98043767579E+01 -0.69385067541E+01  0.12606804338E+02  0.51100000000E-03 0.  1.
        -12    1    3    3    0    0 -0.13864084956E+02 -0.80048391061E+01  0.30880260973E+02  0.34783341106E+02  0.00000000000E+00 0.  1.
</event>
<event>
 7    1  0.7579108E-012  0.5930193E+02  0.7816164E-02  0.1266605E+00
        -11   -1    0    0    0    0  0.00000000000E+00  0.00000000000E+00  0.45593999997E+02  0.45594000000E+02  0.51100000000E-03 0.  1.
         11   -1    0    0    0    0 -0.00000000000E+00 -0.00000000000E+00 -0.45593999997E+02  0.45594000000E+02  0.51100000000E-03 0. -1.
    9900012    2    1    2    0    0 -0.52101545392E+01 -0.40069246335E+01  0.31201283654E+02  0.59301933184E+02  0.49999980223E+02 0.  0.
         12    1    1    2    0    0  0.52101545392E+01  0.40069246335E+01 -0.31201283654E+02  0.31886066816E+02  0.00000000000E+00 0. -1.
         11    1    3    3    0    0 -0.56208073003E+01 -0.22231146147E+02  0.62932169852E+01  0.23778602020E+02  0.51100000000E-03 0. -1.
        -11    1    3    3    0    0 -0.58348798658E+01  0.14631443036E+01  0.12134380109E+02  0.13543625629E+02  0.51100000000E-03 0.  1.
         12    1    3    3    0    0  0.62455326269E+01  0.16761077210E+02  0.12773686560E+02  0.21979705534E+02  0.00000000000E+00 0. -1.
</event>
<event>
 7    1  0.7579108E-012  0.5930198E+02  0.7816164E-02  0.1266605E+00
        -11   -1    0    0    0    0  0.00000000000E+00  0.00000000000E+00  0.45593999997E+02  0.45594000000E+02  0.51100000000E-03 0. -1.
         11   -1    0    0    0    0 -0.00000000000E+00 -0.00000000000E+00 -0.45593999997E+02  0.45594000000E+02  0.51100000000E-03 0.  1.
    9900012    2    1    2    0    0 -0.30435372684E+02  0.31763378079E+01 -0.89619812509E+01  0.59301982058E+02  0.50000069358E+02 0.  0.
         12    1    1    2    0    0  0.30435372684E+02 -0.31763378079E+01  0.89619812509E+01  0.31886017942E+02  0.00000000000E+00 0. -1.
         11    1    3    3    0    0 -0.13276096387E+02 -0.11890986218E+02  0.41370109705E+01  0.18296588440E+02  0.51100000000E-03 0. -1.
        -11    1    3    3    0    0 -0.25813705192E+02  0.10762707975E+02 -0.50343986063E+01  0.28417044679E+02  0.51100000000E-03 0.  1.
         12    1    3    3    0    0  0.86544288948E+01  0.43046160504E+01 -0.80645936152E+01  0.12588348939E+02  0.00000000000E+00 0. -1.
</event>
<event>
 7    1  0.7748115E-012  0.5930195E+02  0.7816164E-02  0.1266605E+00
        -11   -1    0    0    0    0  0.00000000000E+00  0.00000000000E+00  0.45593999997E+02  0.45594000000E+02  0.51100000000E-03 0. -1.
         11   -1    0    0    0    0 -0.00000000000E+00 -0.00000000000E+00 -0.45593999997E+02  0.45594000000E+02  0.51100000000E-03 0.  1.
    9900012    2    1    2    0    0 -0.27375064150E+02  0.95305474836E+01 -0.13285128123E+02  0.59301951299E+02  0.50000013260E+02 0.  0.
         12    1    1    2    0    0  0.27375064150E+02 -0.95305474836E+01  0.13285128123E+02  0.31886048701E+02  0.00000000000E+00 0. -1.
         11    1    3    3    0    0 -0.76342120305E+01  0.57435890765E+01  0.10470716340E+02  0.14174128183E+02  0.51100000000E-03 0. -1.
        -11    1    3    3    0    0  0.64873397573E+01 -0.38701399389E+01 -0.14375503890E+02  0.16239417250E+02  0.51100000000E-03 0.  1.
        -12    1    3    3    0    0 -0.26228191877E+02  0.76570983461E+01 -0.93803405724E+01  0.28888405866E+02  0.00000000000E+00 0.  1.
</event>
<event>
 7    1  0.8081247E-012  0.5930190E+02  0.7816164E-02  0.1266605E+00
        -11   -1    0    0    0    0  0.00000000000E+00  0.00000000000E+00  0.45593999997E+02  0.45594000000E+02  0.51100000000E-03 0. -1.
         11   -1    0    0    0    0 -0.00000000000E+00 -0.00000000000E+00 -0.45593999997E+02  0.45594000000E+02  0.51100000000E-03 0.  1.
    9900012    2    1    2    0    0  0.55320956619E+01  0.14388766510E+02 -0.27912051051E+02  0.59301901493E+02  0.49999922428E+02 0.  0.
         12    1    1    2    0    0 -0.55320956619E+01 -0.14388766510E+02  0.27912051051E+02  0.31886098507E+02  0.00000000000E+00 0. -1.
         11    1    3    3    0    0  0.20629592975E+01  0.11587244454E+02  0.50419783395E+01  0.12803967391E+02  0.51100000000E-03 0. -1.
        -11    1    3    3    0    0  0.14321926740E+02 -0.20734300347E+01 -0.31303478520E+02  0.34486583846E+02  0.51100000000E-03 0.  1.
        -12    1    3    3    0    0 -0.10852790375E+02  0.48749520898E+01 -0.16505508706E+01  0.12011350257E+02  0.00000000000E+00 0.  1.
</event>
<event>
 7    1  0.7579108E-012  0.5930193E+02  0.7816164E-02  0.1266605E+00
        -11   -1    0    0    0    0  0.00000000000E+00  0.00000000000E+00  0.45593999997E+02  0.45594000000E+02  0.51100000000E-03 0. -1.
         11   -1    0    0    0    0 -0.00000000000E+00 -0.00000000000E+00 -0.45593999997E+02  0.45594000000E+02  0.51100000000E-03 0.  1.
    9900012    2    1    2    0    0 -0.14754051714E+02  0.21479690653E+02 -0.18375591324E+02  0.59301929232E+02  0.49999973017E+02 0.  0.
         12    1    1    2    0    0  0.14754051714E+02 -0.21479690653E+02  0.18375591324E+02  0.31886070768E+02  0.00000000000E+00 0. -1.
         11    1    3    3    0    0 -0.84099701330E+01 -0.11917599649E+01  0.25017777325E+01  0.88547603884E+01  0.51100000000E-03 0. -1.
        -11    1    3    3    0    0 -0.60569901662E+01  0.25732127272E+02 -0.30490381294E+02  0.40354589027E+02  0.51100000000E-03 0.  1.
        -12    1    3    3    0    0 -0.28709141465E+00 -0.30606766545E+01  0.96130122382E+01  0.10092579817E+02  0.00000000000E+00 0.  1.
</event>
<event>
 7    1  0.7579108E-012  0.5930194E+02  0.7816164E-02  0.1266605E+00
        -11   -1    0    0    0    0  0.00000000000E+00  0.00000000000E+00  0.45593999997E+02  0.45594000000E+02  0.51100000000E-03 0.  1.
         11   -1    0    0    0    0 -0.00000000000E+00 -0.00000000000E+00 -0.45593999997E+02  0.45594000000E+02  0.51100000000E-03 0. -1.
    9900012    2    1    2    0    0 -0.21962575724E+02 -0.22000799168E+02 -0.70944423351E+01  0.59301937080E+02  0.49999987330E+02 0.  0.
         12    1    1    2    0    0  0.21962575724E+02  0.22000799168E+02  0.70944423351E+01  0.31886062920E+02  0.00000000000E+00 0. -1.
         11    1    3    3    0    0 -0.18681193825E+02  0.71557198268E+01  0.11293913734E+01  0.20036637794E+02  0.51100000000E-03 0. -1.
        -11    1    3    3    0    0  0.10482120522E+02 -0.84342567557E+01 -0.18108717210E+01  0.13575374555E+02  0.51100000000E-03 0.  1.
        -12    1    3    3    0    0 -0.13763502422E+02 -0.20722262239E+02 -0.64129619875E+01  0.25689924731E+02  0.00000000000E+00 0.  1.
</event>
<event>
 7    1  0.7579108E-012  0.5930193E+02  0.7816164E-02  0.1266605E+00
        -11   -1    0    0    0    0  0.00000000000E+00  0.00000000000E+00  0.45593999997E+02  0.45594000000E+02  0.51100000000E-03 0. -1.
         11   -1    0    0    0    0 -0.00000000000E+00 -0.00000000000E+00 -0.45593999997E+02  0.45594000000E+02  0.51100000000E-03 0.  1.
    9900012    2    1    2    0    0 -0.13007886571E+02  0.29082669109E+02  0.13093807255E+01  0.59301933553E+02  0.49999980897E+02 0.  0.
         12    1    1    2    0    0  0.13007886571E+02 -0.29082669109E+02 -0.13093807255E+01  0.31886066447E+02  0.00000000000E+00 0. -1.
         11    1    3    3    0    0  0.88511296877E+01  0.23971593286E+02  0.11388182175E+02  0.27976248407E+02  0.51100000000E-03 0. -1.
        -11    1    3    3    0    0 -0.20315691313E+02  0.32553400688E+01  0.39372533067E+00  0.20578619302E+02  0.51100000000E-03 0.  1.
        -12    1    3    3    0    0 -0.15433249455E+01  0.18557357548E+01 -0.10472526781E+02  0.10747065844E+02  0.00000000000E+00 0.  1.
</event>
<event>
 7    1  0.7579108E-012  0.5930195E+02  0.7816164E-02  0.1266605E+00
        -11   -1    0    0    0    0  0.00000000000E+00  0.00000000000E+00  0.45593999997E+02  0.45594000000E+02  0.51100000000E-03 0.  1.
         11   -1    0    0    0    0 -0.00000000000E+00 -0.00000000000E+00 -0.45593999997E+02  0.45594000000E+02  0.51100000000E-03 0. -1.
    9900012    2    1    2    0    0  0.15123925283E+02  0.13263550360E+02  0.24739952706E+02  0.59301950636E+02  0.50000012052E+02 0.  0.
         12    1    1    2    0    0 -0.15123925283E+02 -0.13263550360E+02 -0.24739952706E+02  0.31886049364E+02  0.00000000000E+00 0. -1.
         11    1    3    3    0    0  0.16368208001E+02  0.30592155551E+02  0.15263127022E+02  0.37904633769E+02  0.51100000000E-03 0. -1.
        -11    1    3    3    0    0  0.24732460952E+01 -0.73953993020E+01  0.70605025193E+01  0.10519485404E+02  0.51100000000E-03 0.  1.
         12    1    3    3    0    0 -0.37175288128E+01 -0.99332058887E+01  0.24163231650E+01  0.10877831463E+02  0.00000000000E+00 0. -1.
</event>
<event>
 7    1  0.7579108E-012  0.5930194E+02  0.7816164E-02  0.1266605E+00
        -11   -1    0    0    0    0  0.00000000000E+00  0.00000000000E+00  0.45593999997E+02  0.45594000000E+02  0.51100000000E-03 0. -1.
         11   -1    0    0    0    0 -0.00000000000E+00 -0.00000000000E+00 -0.45593999997E+02  0.45594000000E+02  0.51100000000E-03 0.  1.
    9900012    2    1    2    0    0 -0.24729875502E+02 -0.19695115458E+02  0.41540699411E+01  0.59301943293E+02  0.49999998660E+02 0.  0.
         12    1    1    2    0    0  0.24729875502E+02  0.19695115458E+02 -0.41540699411E+01  0.31886056707E+02  0.00000000000E+00 0. -1.
         11    1    3    3    0    0  0.95467093062E+00  0.13899063376E+02 -0.58041913826E+01  0.15092514607E+02  0.51100000000E-03 0. -1.
        -11    1    3    3    0    0 -0.88853210057E+01 -0.15369205932E+02  0.75998726099E+01  0.19311123331E+02  0.51100000000E-03 0.  1.
         12    1    3    3    0    0 -0.16799225427E+02 -0.18224972902E+02  0.23583887138E+01  0.24898305355E+02  0.00000000000E+00 0. -1.
</event>
<event>
 7    1  0.7579108E-012  0.5930192E+02  0.7816164E-02  0.1266605E+00
        -11   -1    0    0    0    0  0.00000000000E+00  0.00000000000E+00  0.45593999997E+02  0.45594000000E+02  0.51100000000E-03 0.  1.
         11   -1    0    0    0    0 -0.00000000000E+00 -0.00000000000E+00 -0.45593999997E+02  0.45594000000E+02  0.51100000000E-03 0. -1.
    9900012    2    1    2    0    0 -0.22049394605E+02  0.10443612363E+02  0.20529910782E+02  0.59301920304E+02  0.49999956734E+02 0.  0.
         12    1    1    2    0    0  0.22049394605E+02 -0.10443612363E+02 -0.20529910782E+02  0.31886079696E+02  0.00000000000E+00 0. -1.
         11    1    3    3    0    0 -0.65187843124E+01 -0.89578690166E+01  0.11685890671E+02  0.16102732913E+02  0.51100000000E-03 0. -1.
        -11    1    3    3    0    0 -0.78899818958E+01  0.21951815027E+02 -0.78920500569E+01  0.24625565002E+02  0.51100000000E-03 0.  1.
        -12    1    3    3    0    0 -0.76406283972E+01 -0.25503336471E+01  0.16736070168E+02  0.18573622390E+02  0.00000000000E+00 0.  1.
</event>
<event>
 7    1  0.7579108E-012  0.5930190E+02  0.7816164E-02  0.1266605E+00
        -11   -1    0    0    0    0  0.00000000000E+00  0.00000000000E+00  0.45593999997E+02  0.45594000000E+02  0.51100000000E-03 0. -1.
         11   -1    0    0    0    0 -0.00000000000E+00 -0.00000000000E+00 -0.45593999997E+02  0.45594000000E+02  0.51100000000E-03 0.  1.
    9900012    2    1    2    0    0  0.26236504176E+02  0.15322764676E+02  0.96737794256E+01  0.59301901508E+02  0.49999922453E+02 0.  0.
         12    1    1    2    0    0 -0.26236504176E+02 -0.15322764676E+02 -0.96737794256E+01  0.31886098492E+02  0.00000000000E+00 0. -1.
         11    1    3    3    0    0  0.26645075062E+01 -0.54094012900E+01  0.12108993622E+00  0.60312424592E+01  0.51100000000E-03 0. -1.
        -11    1    3    3    0    0  0.24595267268E+01  0.29016373042E+02  0.13446729441E+01  0.29151454883E+02  0.51100000000E-03 0.  1.
        -12    1    3    3    0    0  0.21112469943E+02 -0.82842070756E+01  0.82080165453E+01  0.24119204165E+02  0.00000000000E+00 0.  1.
</event>
<event>
 7    1  0.7579108E-012  0.5930194E+02  0.7816164E-02  0.1266605E+00
        -11   -1    0    0    0    0  0.00000000000E+00  0.00000000000E+00  0.45593999997E+02  0.45594000000E+02  0.51100000000E-03 0. -1.
         11   -1    0    0    0    0 -0.00000000000E+00 -0.00000000000E+00 -0.45593999997E+02  0.45594000000E+02  0.51100000000E-03 0.  1.
    9900012    2    1    2    0    0 -0.24047492199E+02  0.16348524672E+02 -0.13082997302E+02  0.59301937866E+02  0.49999988763E+02 0.  0.
         12    1    1    2    0    0  0.24047492199E+02 -0.16348524672E+02  0.13082997302E+02  0.31886062134E+02  0.00000000000E+00 0. -1.
         11    1    3    3    0    0  0.13313227605E+02  0.43210008543E+00 -0.11738967199E+01  0.13371864998E+02  0.51100000000E-03 0. -1.
        -11    1    3    3    0    0 -0.55299822987E+01  0.86740785180E+01  0.19423728592E+01  0.10468674937E+02  0.51100000000E-03 0.  1.
         12    1    3    3    0    0 -0.31830737505E+02  0.72423460682E+01 -0.13851473442E+02  0.35461397931E+02  0.00000000000E+00 0. -1.
</event>
<event>
 7    1  0.7579108E-012  0.5930195E+02  0.7816164E-02  0.1266605E+00
        -11   -1    0    0    0    0  0.00000000000E+00  0.00000000000E+00  0.45593999997E+02  0.45594000000E+02  0.51100000000E-03 0.  1.
         11   -1    0    0    0    0 -0.00000000000E+00 -0.00000000000E+00 -0.45593999997E+02  0.45594000000E+02  0.51100000000E-03 0. -1.
    9900012    2    1    2    0    0 -0.27285027217E+02  0.38133168460E+01 -0.16053233511E+02  0.59301946595E+02  0.50000004682E+02 0.  0.
         12    1    1    2    0    0  0.27285027217E+02 -0.38133168460E+01  0.16053233511E+02  0.31886053405E+02  0.00000000000E+00 0. -1.
         11    1    3    3    0    0 -0.12857801196E+02 -0.80418790487E+01 -0.25331456795E+02  0.29524186252E+02  0.51100000000E-03 0. -1.
        -11    1    3    3    0    0 -0.14804533899E+02  0.16629979504E+02  0.10808152552E+02  0.24749678869E+02  0.51100000000E-03 0.  1.
         12    1    3    3    0    0  0.37730787780E+00 -0.47747836088E+01 -0.15299292685E+01  0.50280814743E+01  0.00000000000E+00 0. -1.
</event>
<event>
 7    1  0.7579108E-012  0.5930199E+02  0.7816164E-02  0.1266605E+00
        -11   -1    0    0    0    0  0.00000000000E+00  0.00000000000E+00  0.45593999997E+02  0.45594000000E+02  0.51100000000E-03 0.  1.
         11   -1    0    0    0    0 -0.00000000000E+00 -0.00000000000E+00 -0.45593999997E+02  0.45594000000E+02  0.51100000000E-03 0. -1.
    9900012    2    1    2    0    0 -0.26613164096E+02  0.23410273906E+01  0.17406218722E+02  0.59301994251E+02  0.50000091595E+02 0.  0.
         12    1    1    2    0    0  0.26613164096E+02 -0.23410273906E+01 -0.17406218722E+02  0.31886005749E+02  0.00000000000E+00 0. -1.
         11    1    3    3    0    0 -0.84291352816E+00 -0.68380004254E+01  0.20836352467E+02  0.21945895685E+02  0.51100000000E-03 0. -1.
        -11    1    3    3    0    0 -0.15853251028E+02  0.87071502567E+01  0.99901326843E+01  0.20662593861E+02  0.51100000000E-03 0.  1.
         12    1    3    3    0    0 -0.99169995394E+01  0.47187755931E+00 -0.13420266429E+02  0.16693504705E+02  0.00000000000E+00 0. -1.
</event>
<event>
 7    1  0.7579108E-012  0.5930194E+02  0.7816164E-02  0.1266605E+00
        -11   -1    0    0    0    0  0.00000000000E+00  0.00000000000E+00  0.45593999997E+02  0.45594000000E+02  0.51100000000E-03 0. -1.
         11   -1    0    0    0    0 -0.00000000000E+00 -0.00000000000E+00 -0.45593999997E+02  0.45594000000E+02  0.51100000000E-03 0.  1.
    9900012    2    1    2    0    0 -0.14021182626E+02  0.28235172328E+02 -0.47856348761E+01  0.59301940040E+02  0.49999992727E+02 0.  0.
         12    1    1    2    0    0  0.14021182626E+02 -0.28235172328E+02  0.47856348761E+01  0.31886059960E+02  0.00000000000E+00 0. -1.
         11    1    3    3    0    0  0.70008038694E+01 -0.44436264647E+01 -0.13760721308E+02  0.16065942927E+02  0.51100000000E-03 0. -1.
        -11    1    3    3    0    0 -0.84790122324E+01  0.17459597231E+02 -0.37454922995E+01  0.19767647729E+02  0.51100000000E-03 0.  1.
         12    1    3    3    0    0 -0.12542974263E+02  0.15219201562E+02  0.12720578731E+02  0.23468349384E+02  0.00000000000E+00 0. -1.
</event>
<event>
 7    1  0.7579108E-012  0.5930203E+02  0.7816164E-02  0.1266604E+00
        -11   -1    0    0    0    0  0.00000000000E+00  0.00000000000E+00  0.45593999997E+02  0.45594000000E+02  0.51100000000E-03 0.  1.
         11   -1    0    0    0    0 -0.00000000000E+00 -0.00000000000E+00 -0.45593999997E+02  0.45594000000E+02  0.51100000000E-03 0. -1.
    9900012    2    1    2    0    0  0.74615944757E+01 -0.30836175522E+02 -0.31890537435E+01  0.59302028528E+02  0.50000154107E+02 0.  0.
         12    1    1    2    0    0 -0.74615944757E+01  0.30836175522E+02  0.31890537435E+01  0.31885971472E+02  0.00000000000E+00 0. -1.
         11    1    3    3    0    0  0.14387796084E+02  0.11237443642E+01 -0.10315623211E+02  0.17739322423E+02  0.51100000000E-03 0. -1.
        -11    1    3    3    0    0 -0.15220239918E+02 -0.12882609022E+02  0.14145485197E+01  0.19990454376E+02  0.51100000000E-03 0.  1.
        -12    1    3    3    0    0  0.82940383105E+01 -0.19077310864E+02  0.57120209480E+01  0.21572251728E+02  0.00000000000E+00 0.  1.
</event>
<event>
 7    1  0.7579108E-012  0.5930197E+02  0.7816164E-02  0.1266605E+00
        -11   -1    0    0    0    0  0.00000000000E+00  0.00000000000E+00  0.45593999997E+02  0.45594000000E+02  0.51100000000E-03 0.  1.
         11   -1    0    0    0    0 -0.00000000000E+00 -0.00000000000E+00 -0.45593999997E+02  0.45594000000E+02  0.51100000000E-03 0. -1.
    9900012    2    1    2    0    0  0.25778082085E+00 -0.17361238879E+02  0.26743970882E+02  0.59301967872E+02  0.50000043485E+02 0.  0.
         12    1    1    2    0    0 -0.25778082085E+00  0.17361238879E+02 -0.26743970882E+02  0.31886032128E+02  0.00000000000E+00 0. -1.
         11    1    3    3    0    0  0.19136175014E+02  0.29961252498E+01  0.10294018075E+02  0.21934830044E+02  0.51100000000E-03 0. -1.
        -11    1    3    3    0    0 -0.19044257009E+02 -0.18683959100E+02  0.20063546734E+02  0.33381431373E+02  0.51100000000E-03 0.  1.
        -12    1    3    3    0    0  0.16586281579E+00 -0.16734050285E+01 -0.36135939275E+01  0.39857064538E+01  0.00000000000E+00 0.  1.
</event>
<event>
 7    1  0.7579108E-012  0.5930194E+02  0.7816164E-02  0.1266605E+00
        -11   -1    0    0    0    0  0.00000000000E+00  0.00000000000E+00  0.45593999997E+02  0.45594000000E+02  0.51100000000E-03 0.  1.
         11   -1    0    0    0    0 -0.00000000000E+00 -0.00000000000E+00 -0.45593999997E+02  0.45594000000E+02  0.51100000000E-03 0. -1.
    9900012    2    1    2    0    0 -0.17144180927E+02 -0.20448470429E+02  0.17454447940E+02  0.59301942931E+02  0.49999997999E+02 0.  0.
         12    1    1    2    0    0  0.17144180927E+02  0.20448470429E+02 -0.17454447940E+02  0.31886057069E+02  0.00000000000E+00 0. -1.
         11    1    3    3    0    0 -0.22046394083E+02  0.94189478047E+00  0.14252055100E+01  0.22112482195E+02  0.51100000000E-03 0. -1.
        -11    1    3    3    0    0  0.10988884186E+02 -0.64779416123E+01  0.16764648047E+02  0.21065913880E+02  0.51100000000E-03 0.  1.
        -12    1    3    3    0    0 -0.60866710308E+01 -0.14912423597E+02 -0.73540561702E+00  0.16123546856E+02  0.00000000000E+00 0.  1.
</event>
<event>
 7    1  0.7579108E-012  0.5930197E+02  0.7816164E-02  0.1266605E+00
        -11   -1    0    0    0    0  0.00000000000E+00  0.00000000000E+00  0.45593999997E+02  0.45594000000E+02  0.51100000000E-03 0.  1.
         11   -1    0    0    0    0 -0.00000000000E+00 -0.00000000000E+00 -0.45593999997E+02  0.45594000000E+02  0.51100000000E-03 0. -1.
    9900012    2    1    2    0    0  0.19650003568E+01  0.31811935471E+02  0.92649559297E+00  0.59301970788E+02  0.50000048805E+02 0.  0.
         12    1    1    2    0    0 -0.19650003568E+01 -0.31811935471E+02 -0.92649559297E+00  0.31886029212E+02  0.00000000000E+00 0. -1.
         11    1    3    3    0    0  0.45957313742E+01  0.36547187191E+02  0.11005588063E+02  0.38443993123E+02  0.51100000000E-03 0. -1.
        -11    1    3    3    0    0 -0.76531494878E+01 -0.79999714208E+01 -0.27787041115E+01  0.11414527437E+02  0.51100000000E-03 0.  1.
        -12    1    3    3    0    0  0.50224184704E+01  0.32647197013E+01 -0.73003883580E+01  0.94434502274E+01  0.00000000000E+00 0.  1.
</event>
<event>
 7    1  0.7579108E-012  0.5930195E+02  0.7816164E-02  0.1266605E+00
        -11   -1    0    0    0    0  0.00000000000E+00  0.00000000000E+00  0.45593999997E+02  0.45594000000E+02  0.51100000000E-03 0.  1.
         11   -1    0    0    0    0 -0.00000000000E+00 -0.00000000000E+00 -0.45593999997E+02  0.45594000000E+02  0.51100000000E-03 0. -1.
    9900012    2    1    2    0    0  0.12349712744E+02  0.26964061104E+02 -0.11710860000E+02  0.59301949162E+02  0.50000009364E+02 0.  0.
         12    1    1    2    0    0 -0.12349712744E+02 -0.26964061104E+02  0.11710860000E+02  0.31886050838E+02  0.00000000000E+00 0. -1.
         11    1    3    3    0    0  0.21783155459E+01  0.18442856602E+01 -0.20791804309E+02  0.20986795250E+02  0.51100000000E-03 0. -1.
        -11    1    3    3    0    0  0.11291880105E+02  0.96377482072E-01  0.67560280701E+01  0.13159018218E+02  0.51100000000E-03 0.  1.
         12    1    3    3    0    0 -0.11204829069E+01  0.25023397962E+02  0.23249162386E+01  0.25156135694E+02  0.00000000000E+00 0. -1.
</event>
<event>
 7    1  0.7579108E-012  0.5930210E+02  0.7816164E-02  0.1266604E+00
        -11   -1    0    0    0    0  0.00000000000E+00  0.00000000000E+00  0.45593999997E+02  0.45594000000E+02  0.51100000000E-03 0. -1.
         11   -1    0    0    0    0 -0.00000000000E+00 -0.00000000000E+00 -0.45593999997E+02  0.45594000000E+02  0.51100000000E-03 0.  1.
    9900012    2    1    2    0    0  0.10575750404E+02  0.12470855982E+02 -0.27374107838E+02  0.59302101464E+02  0.50000287125E+02 0.  0.
         12    1    1    2    0    0 -0.10575750404E+02 -0.12470855982E+02  0.27374107838E+02  0.31885898536E+02  0.00000000000E+00 0. -1.
         11    1    3    3    0    0  0.10175700059E+02  0.21020405958E+02 -0.12839803841E+02  0.26650757987E+02  0.51100000000E-03 0. -1.
        -11    1    3    3    0    0  0.11570396021E+01 -0.10091051433E+02 -0.22402684995E+02  0.24597730686E+02  0.51100000000E-03 0.  1.
        -12    1    3    3    0    0 -0.75698925771E+00  0.15415014564E+01  0.78683809972E+01  0.80536127914E+01  0.00000000000E+00 0.  1.
</event>
<event>
 7    1  0.7579108E-012  0.5930196E+02  0.7816164E-02  0.1266605E+00
        -11   -1    0    0    0    0  0.00000000000E+00  0.00000000000E+00  0.45593999997E+02  0.45594000000E+02  0.51100000000E-03 0.  1.
         11   -1    0    0    0    0 -0.00000000000E+00 -0.00000000000E+00 -0.45593999997E+02  0.45594000000E+02  0.51100000000E-03 0. -1.
    9900012    2    1    2    0    0  0.18831477544E+02 -0.25054921586E+02  0.58605611518E+01  0.59301955730E+02  0.50000021342E+02 0.  0.
         12    1    1    2    0    0 -0.18831477544E+02  0.25054921586E+02 -0.58605611518E+01  0.31886044270E+02  0.00000000000E+00 0. -1.
         11    1    3    3    0    0 -0.53037655235E+01 -0.38223375353E+00  0.18555920515E+02  0.19302803366E+02  0.51100000000E-03 0. -1.
        -11    1    3    3    0    0  0.10125544501E+02 -0.85285757180E+00 -0.49318467646E+01  0.11295004659E+02  0.51100000000E-03 0.  1.
         12    1    3    3    0    0  0.14009698566E+02 -0.23819830261E+02 -0.77635125988E+01  0.28704147704E+02  0.00000000000E+00 0. -1.
</event>
<event>
 7    1  0.7579108E-012  0.5930195E+02  0.7816164E-02  0.1266605E+00
        -11   -1    0    0    0    0  0.00000000000E+00  0.00000000000E+00  0.45593999997E+02  0.45594000000E+02  0.51100000000E-03 0.  1.
         11   -1    0    0    0    0 -0.00000000000E+00 -0.00000000000E+00 -0.45593999997E+02  0.45594000000E+02  0.51100000000E-03 0. -1.
    9900012    2    1    2    0    0 -0.20203798625E+02  0.20066441148E+02  0.14347992167E+02  0.59301946333E+02  0.50000004204E+02 0.  0.
         12    1    1    2    0    0  0.20203798625E+02 -0.20066441148E+02 -0.14347992167E+02  0.31886053667E+02  0.00000000000E+00 0. -1.
         11    1    3    3    0    0 -0.39966058441E+01  0.22673022151E+02  0.18962288080E+02  0.29826283061E+02  0.51100000000E-03 0. -1.
        -11    1    3    3    0    0 -0.15781245526E+02 -0.66525568953E+01  0.59696557102E+01  0.18136731049E+02  0.51100000000E-03 0.  1.
         12    1    3    3    0    0 -0.42594725563E+00  0.40459758931E+01 -0.10583951624E+02  0.11338932223E+02  0.00000000000E+00 0. -1.
</event>
<event>
 7    1  0.7579108E-012  0.5930194E+02  0.7816164E-02  0.1266605E+00
        -11   -1    0    0    0    0  0.00000000000E+00  0.00000000000E+00  0.45593999997E+02  0.45594000000E+02  0.51100000000E-03 0. -1.
         11   -1    0    0    0    0 -0.00000000000E+00 -0.00000000000E+00 -0.45593999997E+02  0.45594000000E+02  0.51100000000E-03 0.  1.
    9900012    2    1    2    0    0 -0.85459999676E-01  0.23331748270E+02 -0.21733449111E+02  0.59301943627E+02  0.49999999269E+02 0.  0.
         12    1    1    2    0    0  0.85459999676E-01 -0.23331748270E+02  0.21733449111E+02  0.31886056373E+02  0.00000000000E+00 0. -1.
         11    1    3    3    0    0  0.13431626402E+02  0.45529295739E+01 -0.16680512898E+01  0.14280061305E+02  0.51100000000E-03 0. -1.
        -11    1    3    3    0    0 -0.17084240112E+02  0.26104179911E+02 -0.19635926502E+02  0.36862841438E+02  0.51100000000E-03 0.  1.
        -12    1    3    3    0    0  0.35671537110E+01 -0.73253612154E+01 -0.42947132014E+00  0.81590408841E+01  0.00000000000E+00 0.  1.
</event>
<event>
 7    1  0.7579108E-012  0.5930199E+02  0.7816164E-02  0.1266605E+00
        -11   -1    0    0    0    0  0.00000000000E+00  0.00000000000E+00  0.45593999997E+02  0.45594000000E+02  0.51100000000E-03 0.  1.
         11   -1    0    0    0    0 -0.00000000000E+00 -0.00000000000E+00 -0.45593999997E+02  0.45594000000E+02  0.51100000000E-03 0. -1.
    9900012    2    1    2    0    0  0.13369498662E+01 -0.88571951865E+01  0.30601970034E+02  0.59301985644E+02  0.50000075899E+02 0.  0.
         12    1    1    2    0    0 -0.13369498662E+01  0.88571951865E+01 -0.30601970034E+02  0.31886014356E+02  0.00000000000E+00 0. -1.
         11    1    3    3    0    0 -0.13451345701E+02  0.30951573378E+01  0.75759317602E+01  0.15745267302E+02  0.51100000000E-03 0. -1.
        -11    1    3    3    0    0  0.19869603774E+02 -0.88550923316E+01  0.28238471703E+02  0.35645828630E+02  0.51100000000E-03 0.  1.
         12    1    3    3    0    0 -0.50813082067E+01 -0.30972601927E+01 -0.52124334291E+01  0.79108897127E+01  0.00000000000E+00 0. -1.
</event>
<event>
 7    1  0.7579108E-012  0.5930194E+02  0.7816164E-02  0.1266605E+00
        -11   -1    0    0    0    0  0.00000000000E+00  0.00000000000E+00  0.45593999997E+02  0.45594000000E+02  0.51100000000E-03 0.  1.
         11   -1    0    0    0    0 -0.00000000000E+00 -0.00000000000E+00 -0.45593999997E+02  0.45594000000E+02  0.51100000000E-03 0. -1.
    9900012    2    1    2    0    0  0.15021666705E+02 -0.14270433936E+02  0.24236847457E+02  0.59301944584E+02  0.50000001015E+02 0.  0.
         12    1    1    2    0    0 -0.15021666705E+02  0.14270433936E+02 -0.24236847457E+02  0.31886055416E+02  0.00000000000E+00 0. -1.
         11    1    3    3    0    0 -0.56941273418E+01 -0.76395219522E+01  0.61069138711E+01  0.11317233723E+02  0.51100000000E-03 0. -1.
        -11    1    3    3    0    0  0.31394141015E+02 -0.90652445552E+01  0.17368700631E+02  0.37005979393E+02  0.51100000000E-03 0.  1.
        -12    1    3    3    0    0 -0.10678346969E+02  0.24343325711E+01  0.76123295488E+00  0.10978731469E+02  0.00000000000E+00 0.  1.
</event>
<event>
 7    1  0.7579108E-012  0.5930193E+02  0.7816164E-02  0.1266605E+00
        -11   -1    0    0    0    0  0.00000000000E+00  0.00000000000E+00  0.45593999997E+02  0.45594000000E+02  0.51100000000E-03 0.  1.
         11   -1    0    0    0    0 -0.00000000000E+00 -0.00000000000E+00 -0.45593999997E+02  0.45594000000E+02  0.51100000000E-03 0. -1.
    9900012    2    1    2    0    0 -0.31104094869E+02  0.68457355370E+01 -0.15469012656E+01  0.59301925984E+02  0.49999967092E+02 0.  0.
         12    1    1    2    0    0  0.31104094869E+02 -0.68457355370E+01  0.15469012656E+01  0.31886074016E+02  0.00000000000E+00 0. -1.
         11    1    3    3    0    0 -0.27554209492E+02  0.20042460837E+01 -0.13474265871E+02  0.30737717939E+02  0.51100000000E-03 0. -1.
        -11    1    3    3    0    0 -0.10485573642E+02  0.97776686971E+01  0.13742798788E+02  0.19859873578E+02  0.51100000000E-03 0.  1.
         12    1    3    3    0    0  0.69356882645E+01 -0.49361792438E+01 -0.18154341828E+01  0.87043344663E+01  0.00000000000E+00 0. -1.
</event>
<event>
 7    1  0.7579108E-012  0.5930196E+02  0.7816164E-02  0.1266605E+00
        -11   -1    0    0    0    0  0.00000000000E+00  0.00000000000E+00  0.45593999997E+02  0.45594000000E+02  0.51100000000E-03 0.  1.
         11   -1    0    0    0    0 -0.00000000000E+00 -0.00000000000E+00 -0.45593999997E+02  0.45594000000E+02  0.51100000000E-03 0. -1.
    9900012    2    1    2    0    0  0.85561812994E+01  0.13021913240E+02  0.27819792912E+02  0.59301963235E+02  0.50000035030E+02 0.  0.
         12    1    1    2    0    0 -0.85561812994E+01 -0.13021913240E+02 -0.27819792912E+02  0.31886036765E+02  0.00000000000E+00 0. -1.
         11    1    3    3    0    0 -0.10286372735E+02 -0.39437917826E+01 -0.16679483239E+00  0.11017748338E+02  0.51100000000E-03 0. -1.
        -11    1    3    3    0    0  0.10684437747E+02  0.23865605045E+02  0.26948381735E+02  0.37549162341E+02  0.51100000000E-03 0.  1.
        -12    1    3    3    0    0  0.81581162877E+01 -0.68999000218E+01  0.10382060103E+01  0.10735052557E+02  0.00000000000E+00 0.  1.
</event>
<event>
 7    1  0.7579108E-012  0.5930195E+02  0.7816164E-02  0.1266605E+00
        -11   -1    0    0    0    0  0.00000000000E+00  0.00000000000E+00  0.45593999997E+02  0.45594000000E+02  0.51100000000E-03 0.  1.
         11   -1    0    0    0    0 -0.00000000000E+00 -0.00000000000E+00 -0.45593999997E+02  0.45594000000E+02  0.51100000000E-03 0. -1.
    9900012    2    1    2    0    0 -0.27963750463E+02  0.14792275153E+02 -0.39921758072E+01  0.59301949573E+02  0.50000010113E+02 0.  0.
         12    1    1    2    0    0  0.27963750463E+02 -0.14792275153E+02  0.39921758072E+01  0.31886050427E+02  0.00000000000E+00 0. -1.
         11    1    3    3    0    0  0.74549059699E+01 -0.79821286079E+00  0.34580108900E+01  0.82565493015E+01  0.51100000000E-03 0. -1.
        -11    1    3    3    0    0 -0.18506903782E+02  0.22440232518E+02 -0.13161166758E+02  0.31926256181E+02  0.51100000000E-03 0.  1.
        -12    1    3    3    0    0 -0.16911752650E+02 -0.68497445039E+01  0.57109800609E+01  0.19119144090E+02  0.00000000000E+00 0.  1.
</event>
<event>
 7    1  0.7579108E-012  0.5930196E+02  0.7816164E-02  0.1266605E+00
        -11   -1    0    0    0    0  0.00000000000E+00  0.00000000000E+00  0.45593999997E+02  0.45594000000E+02  0.51100000000E-03 0. -1.
         11   -1    0    0    0    0 -0.00000000000E+00 -0.00000000000E+00 -0.45593999997E+02  0.45594000000E+02  0.51100000000E-03 0.  1.
    9900012    2    1    2    0    0 -0.69432590854E+00  0.20785084044E+02  0.24170599825E+02  0.59301957550E+02  0.50000024662E+02 0.  0.
         12    1    1    2    0    0  0.69432590854E+00 -0.20785084044E+02 -0.24170599825E+02  0.31886042450E+02  0.00000000000E+00 0. -1.
         11    1    3    3    0    0 -0.49512168100E+01 -0.90841520862E+01  0.20556339265E+02  0.23013027860E+02  0.51100000000E-03 0. -1.
        -11    1    3    3    0    0 -0.29103351714E+01  0.20981394141E+02 -0.52629410312E+01  0.21826302927E+02  0.51100000000E-03 0.  1.
         12    1    3    3    0    0  0.71672260729E+01  0.88878419891E+01  0.88772015913E+01  0.14462626763E+02  0.00000000000E+00 0. -1.
</event>
<event>
 7    1  0.7579108E-012  0.5930189E+02  0.7816164E-02  0.1266605E+00
        -11   -1    0    0    0    0  0.00000000000E+00  0.00000000000E+00  0.45593999997E+02  0.45594000000E+02  0.51100000000E-03 0. -1.
         11   -1    0    0    0    0 -0.00000000000E+00 -0.00000000000E+00 -0.45593999997E+02  0.45594000000E+02  0.51100000000E-03 0.  1.
    9900012    2    1    2    0    0 -0.21838017874E+01 -0.31536689832E+02 -0.41703889532E+01  0.59301891115E+02  0.49999903499E+02 0.  0.
         12    1    1    2    0    0  0.21838017874E+01  0.31536689832E+02  0.41703889532E+01  0.31886108885E+02  0.00000000000E+00 0. -1.
         11    1    3    3    0    0 -0.12213046383E+02 -0.15908212217E+02  0.10361892886E+02  0.22574289410E+02  0.51100000000E-03 0.  1.
        -11    1    3    3    0    0  0.73259546652E+01  0.68602792052E+01 -0.43028393256E+00  0.10045804450E+02  0.51100000000E-03 0. -1.
        -12    1    3    3    0    0  0.27032899299E+01 -0.22488756820E+02 -0.14101997907E+02  0.26681797255E+02  0.00000000000E+00 0.  1.
</event>
<event>
 7    1  0.7579108E-012  0.5930195E+02  0.7816164E-02  0.1266605E+00
        -11   -1    0    0    0    0  0.00000000000E+00  0.00000000000E+00  0.45593999997E+02  0.45594000000E+02  0.51100000000E-03 0.  1.
         11   -1    0    0    0    0 -0.00000000000E+00 -0.00000000000E+00 -0.45593999997E+02  0.45594000000E+02  0.51100000000E-03 0. -1.
    9900012    2    1    2    0    0  0.11228109632E+02 -0.66568900316E+01  0.29091849848E+02  0.59301947275E+02  0.50000005922E+02 0.  0.
         12    1    1    2    0    0 -0.11228109632E+02  0.66568900316E+01 -0.29091849848E+02  0.31886052725E+02  0.00000000000E+00 0. -1.
         11    1    3    3    0    0  0.50366615914E+00  0.18178110810E+02  0.21675019693E+02  0.28293177113E+02  0.51100000000E-03 0.  1.
        -11    1    3    3    0    0  0.11511238617E+02 -0.12813807906E+02  0.75275345503E+00  0.17241488496E+02  0.51100000000E-03 0. -1.
         12    1    3    3    0    0 -0.78679514345E+00 -0.12021192935E+02  0.66640766999E+01  0.13767281665E+02  0.00000000000E+00 0. -1.
</event>
<event>
 7    1  0.7579108E-012  0.5930194E+02  0.7816164E-02  0.1266605E+00
        -11   -1    0    0    0    0  0.00000000000E+00  0.00000000000E+00  0.45593999997E+02  0.45594000000E+02  0.51100000000E-03 0.  1.
         11   -1    0    0    0    0 -0.00000000000E+00 -0.00000000000E+00 -0.45593999997E+02  0.45594000000E+02  0.51100000000E-03 0. -1.
    9900012    2    1    2    0    0 -0.92816119192E+00 -0.25128351655E+02  0.19606773227E+02  0.59301935701E+02  0.49999984813E+02 0.  0.
         12    1    1    2    0    0  0.92816119192E+00  0.25128351655E+02 -0.19606773227E+02  0.31886064299E+02  0.00000000000E+00 0. -1.
         11    1    3    3    0    0  0.46478245134E+00 -0.47752470752E+01  0.25244094403E+02  0.25695978476E+02  0.51100000000E-03 0. -1.
        -11    1    3    3    0    0  0.11760995384E+02 -0.12261549995E+02 -0.63702342121E+01  0.18145151002E+02  0.51100000000E-03 0.  1.
         12    1    3    3    0    0 -0.13153939028E+02 -0.80915545854E+01  0.73291303690E+00  0.15460806223E+02  0.00000000000E+00 0. -1.
</event>
<event>
 7    1  0.7579108E-012  0.5930201E+02  0.7816164E-02  0.1266605E+00
        -11   -1    0    0    0    0  0.00000000000E+00  0.00000000000E+00  0.45593999997E+02  0.45594000000E+02  0.51100000000E-03 0.  1.
         11   -1    0    0    0    0 -0.00000000000E+00 -0.00000000000E+00 -0.45593999997E+02  0.45594000000E+02  0.51100000000E-03 0. -1.
    9900012    2    1    2    0    0  0.24961836790E+02 -0.18128088055E+02  0.80619916256E+01  0.59302006501E+02  0.50000113936E+02 0.  0.
         12    1    1    2    0    0 -0.24961836790E+02  0.18128088055E+02 -0.80619916256E+01  0.31885993499E+02  0.00000000000E+00 0. -1.
         11    1    3    3    0    0  0.23661049983E+02 -0.47309800130E+01 -0.38095736039E+01  0.24428268655E+02  0.51100000000E-03 0. -1.
        -11    1    3    3    0    0 -0.79078656019E+01 -0.17375365973E+00 -0.66427815930E+01  0.10329137247E+02  0.51100000000E-03 0.  1.
        -12    1    3    3    0    0  0.92086524086E+01 -0.13223354382E+02  0.18514346822E+02  0.24544600599E+02  0.00000000000E+00 0.  1.
</event>
<event>
 7    1  0.7579108E-012  0.5930193E+02  0.7816164E-02  0.1266605E+00
        -11   -1    0    0    0    0  0.00000000000E+00  0.00000000000E+00  0.45593999997E+02  0.45594000000E+02  0.51100000000E-03 0.  1.
         11   -1    0    0    0    0 -0.00000000000E+00 -0.00000000000E+00 -0.45593999997E+02  0.45594000000E+02  0.51100000000E-03 0. -1.
    9900012    2    1    2    0    0  0.27652796039E+02  0.33315832494E+01  0.15522392671E+02  0.59301933295E+02  0.49999980426E+02 0.  0.
         12    1    1    2    0    0 -0.27652796039E+02 -0.33315832494E+01 -0.15522392671E+02  0.31886066705E+02  0.00000000000E+00 0. -1.
         11    1    3    3    0    0  0.22861502362E+02 -0.18558272425E+01 -0.70863798998E+01  0.24006440081E+02  0.51100000000E-03 0. -1.
        -11    1    3    3    0    0  0.80946891768E+01  0.56909113859E+01  0.27582410869E+02  0.29303580923E+02  0.51100000000E-03 0.  1.
        -12    1    3    3    0    0 -0.33033955001E+01 -0.50350089398E+00 -0.49736382986E+01  0.59919122912E+01  0.00000000000E+00 0.  1.
</event>
<event>
 7    1  0.7579108E-012  0.5930191E+02  0.7816164E-02  0.1266605E+00
        -11   -1    0    0    0    0  0.00000000000E+00  0.00000000000E+00  0.45593999997E+02  0.45594000000E+02  0.51100000000E-03 0. -1.
         11   -1    0    0    0    0 -0.00000000000E+00 -0.00000000000E+00 -0.45593999997E+02  0.45594000000E+02  0.51100000000E-03 0.  1.
    9900012    2    1    2    0    0 -0.12985079629E+02  0.25120031262E+02 -0.14734117508E+02  0.59301913970E+02  0.49999945181E+02 0.  0.
         12    1    1    2    0    0  0.12985079629E+02 -0.25120031262E+02  0.14734117508E+02  0.31886086030E+02  0.00000000000E+00 0. -1.
         11    1    3    3    0    0 -0.14471834949E+02  0.16902207315E+02  0.11416974661E+02  0.25009316855E+02  0.51100000000E-03 0. -1.
        -11    1    3    3    0    0 -0.78285850002E+01  0.96320726133E+01 -0.11808168689E+02  0.17131737039E+02  0.51100000000E-03 0.  1.
         12    1    3    3    0    0  0.93153403198E+01 -0.14142486662E+01 -0.14342923480E+02  0.17160860075E+02  0.00000000000E+00 0. -1.
</event>
<event>
 7    1  0.7579108E-012  0.5930195E+02  0.7816164E-02  0.1266605E+00
        -11   -1    0    0    0    0  0.00000000000E+00  0.00000000000E+00  0.45593999997E+02  0.45594000000E+02  0.51100000000E-03 0. -1.
         11   -1    0    0    0    0 -0.00000000000E+00 -0.00000000000E+00 -0.45593999997E+02  0.45594000000E+02  0.51100000000E-03 0.  1.
    9900012    2    1    2    0    0 -0.15940902145E+02  0.22382893611E+02  0.16174484007E+02  0.59301949437E+02  0.50000009865E+02 0.  0.
         12    1    1    2    0    0  0.15940902145E+02 -0.22382893611E+02 -0.16174484007E+02  0.31886050563E+02  0.00000000000E+00 0. -1.
         11    1    3    3    0    0 -0.30755737998E+01 -0.11561581154E+01  0.81828953307E+01  0.88179154022E+01  0.51100000000E-03 0. -1.
        -11    1    3    3    0    0 -0.20194307153E+02  0.31797614092E+02  0.10614324355E+02  0.39135178359E+02  0.51100000000E-03 0.  1.
        -12    1    3    3    0    0  0.73289788084E+01 -0.82585623658E+01 -0.26227356789E+01  0.11348855676E+02  0.00000000000E+00 0.  1.
</event>
<event>
 7    1  0.7579108E-012  0.5930195E+02  0.7816164E-02  0.1266605E+00
        -11   -1    0    0    0    0  0.00000000000E+00  0.00000000000E+00  0.45593999997E+02  0.45594000000E+02  0.51100000000E-03 0.  1.
         11   -1    0    0    0    0 -0.00000000000E+00 -0.00000000000E+00 -0.45593999997E+02  0.45594000000E+02  0.51100000000E-03 0. -1.
    9900012    2    1    2    0    0 -0.30868612780E+02 -0.13040319718E+01  0.78834392843E+01  0.59301947104E+02  0.50000005610E+02 0.  0.
         12    1    1    2    0    0  0.30868612780E+02  0.13040319718E+01 -0.78834392843E+01  0.31886052896E+02  0.00000000000E+00 0. -1.
         11    1    3    3    0    0 -0.12236555540E+02 -0.10070964151E+02 -0.54804155938E-01  0.15848047645E+02  0.51100000000E-03 0. -1.
        -11    1    3    3    0    0  0.95559714499E+01  0.10775162179E+02  0.37821235825E+01  0.14890438858E+02  0.51100000000E-03 0.  1.
        -12    1    3    3    0    0 -0.28188028690E+02 -0.20082300005E+01  0.41561198578E+01  0.28563460600E+02  0.00000000000E+00 0.  1.
</event>
<event>
 7    1  0.7579108E-012  0.5930188E+02  0.7816164E-02  0.1266605E+00
        -11   -1    0    0    0    0  0.00000000000E+00  0.00000000000E+00  0.45593999997E+02  0.45594000000E+02  0.51100000000E-03 0. -1.
         11   -1    0    0    0    0 -0.00000000000E+00 -0.00000000000E+00 -0.45593999997E+02  0.45594000000E+02  0.51100000000E-03 0.  1.
    9900012    2    1    2    0    0 -0.14529382486E+02 -0.27262299965E+02 -0.78986330490E+01  0.59301884544E+02  0.49999891517E+02 0.  0.
         12    1    1    2    0    0  0.14529382486E+02  0.27262299965E+02  0.78986330490E+01  0.31886115456E+02  0.00000000000E+00 0. -1.
         11    1    3    3    0    0  0.94254303399E+01 -0.18122193890E+02  0.10460293035E+02  0.22949300188E+02  0.51100000000E-03 0. -1.
        -11    1    3    3    0    0 -0.10888051629E+02  0.41849368848E+01 -0.11743293679E+02  0.16551988149E+02  0.51100000000E-03 0.  1.
        -12    1    3    3    0    0 -0.13066761197E+02 -0.13325042960E+02 -0.66156324048E+01  0.19800596207E+02  0.00000000000E+00 0.  1.
</event>
<event>
 7    1  0.7579108E-012  0.5930185E+02  0.7816164E-02  0.1266605E+00
        -11   -1    0    0    0    0  0.00000000000E+00  0.00000000000E+00  0.45593999997E+02  0.45594000000E+02  0.51100000000E-03 0.  1.
         11   -1    0    0    0    0 -0.00000000000E+00 -0.00000000000E+00 -0.45593999997E+02  0.45594000000E+02  0.51100000000E-03 0. -1.
    9900012    2    1    2    0    0  0.28752872825E+02 -0.79562080118E+01  0.11256006941E+02  0.59301848870E+02  0.49999826454E+02 0.  0.
         12    1    1    2    0    0 -0.28752872825E+02  0.79562080118E+01 -0.11256006941E+02  0.31886151130E+02  0.00000000000E+00 0. -1.
         11    1    3    3    0    0 -0.15330607954E+01 -0.38930074690E+01 -0.57812611458E+01  0.71364391157E+01  0.51100000000E-03 0. -1.
        -11    1    3    3    0    0  0.28506446879E+02  0.97862872983E+01  0.22034190801E+02  0.37334896508E+02  0.51100000000E-03 0.  1.
        -12    1    3    3    0    0  0.17794867414E+01 -0.13849487841E+02 -0.49969227142E+01  0.14830513246E+02  0.00000000000E+00 0.  1.
</event>
<event>
 7    1  0.7579108E-012  0.5930208E+02  0.7816164E-02  0.1266604E+00
        -11   -1    0    0    0    0  0.00000000000E+00  0.00000000000E+00  0.45593999997E+02  0.45594000000E+02  0.51100000000E-03 0.  1.
         11   -1    0    0    0    0 -0.00000000000E+00 -0.00000000000E+00 -0.45593999997E+02  0.45594000000E+02  0.51100000000E-03 0. -1.
    9900012    2    1    2    0    0  0.12647066938E+02  0.21310483752E+02  0.20065560192E+02  0.59302082643E+02  0.50000252801E+02 0.  0.
         12    1    1    2    0    0 -0.12647066938E+02 -0.21310483752E+02 -0.20065560192E+02  0.31885917357E+02  0.00000000000E+00 0. -1.
         11    1    3    3    0    0  0.16786548302E+02  0.10479549954E+02 -0.59509462066E+01  0.20664533195E+02  0.51100000000E-03 0. -1.
        -11    1    3    3    0    0  0.31471355747E+01  0.44265160501E+01  0.28179589878E+02  0.28698219328E+02  0.51100000000E-03 0.  1.
        -12    1    3    3    0    0 -0.72866169392E+01  0.64044177477E+01 -0.21630834790E+01  0.99393301204E+01  0.00000000000E+00 0.  1.
</event>
<event>
 7    1  0.7579108E-012  0.5930194E+02  0.7816164E-02  0.1266605E+00
        -11   -1    0    0    0    0  0.00000000000E+00  0.00000000000E+00  0.45593999997E+02  0.45594000000E+02  0.51100000000E-03 0.  1.
         11   -1    0    0    0    0 -0.00000000000E+00 -0.00000000000E+00 -0.45593999997E+02  0.45594000000E+02  0.51100000000E-03 0. -1.
    9900012    2    1    2    0    0 -0.28952800962E+02  0.61069806656E+01  0.11881110585E+02  0.59301942151E+02  0.49999996578E+02 0.  0.
         12    1    1    2    0    0  0.28952800962E+02 -0.61069806656E+01 -0.11881110585E+02  0.31886057849E+02  0.00000000000E+00 0. -1.
         11    1    3    3    0    0  0.16601750854E+01  0.63533252257E+01 -0.22140442079E+01  0.69298567628E+01  0.51100000000E-03 0. -1.
        -11    1    3    3    0    0 -0.72587538568E+01  0.25530742663E+01  0.25209012133E+02  0.26357199941E+02  0.51100000000E-03 0.  1.
        -12    1    3    3    0    0 -0.23354222191E+02 -0.27994188264E+01 -0.11113857340E+02  0.26014885448E+02  0.00000000000E+00 0.  1.
</event>
<event>
 7    1  0.7579108E-012  0.5930183E+02  0.7816164E-02  0.1266605E+00
        -11   -1    0    0    0    0  0.00000000000E+00  0.00000000000E+00  0.45593999997E+02  0.45594000000E+02  0.51100000000E-03 0.  1.
         11   -1    0    0    0    0 -0.00000000000E+00 -0.00000000000E+00 -0.45593999997E+02  0.45594000000E+02  0.51100000000E-03 0. -1.
    9900012    2    1    2    0    0 -0.28797055238E+02  0.10001985806E+02  0.93497368361E+01  0.59301832320E+02  0.49999796271E+02 0.  0.
         12    1    1    2    0    0  0.28797055238E+02 -0.10001985806E+02 -0.93497368361E+01  0.31886167680E+02  0.00000000000E+00 0. -1.
         11    1    3    3    0    0  0.99319901770E+01 -0.68250387087E+01  0.22914283818E+00  0.12053136063E+02  0.51100000000E-03 0. -1.
        -11    1    3    3    0    0 -0.26544144879E+02  0.65243677902E+01 -0.25889292719E+01  0.27456539430E+02  0.51100000000E-03 0.  1.
         12    1    3    3    0    0 -0.12184900536E+02  0.10302656724E+02  0.11709523270E+02  0.19792156827E+02  0.00000000000E+00 0. -1.
</event>
<event>
 7    1  0.7579108E-012  0.5930195E+02  0.7816164E-02  0.1266605E+00
        -11   -1    0    0    0    0  0.00000000000E+00  0.00000000000E+00  0.45593999997E+02  0.45594000000E+02  0.51100000000E-03 0. -1.
         11   -1    0    0    0    0 -0.00000000000E+00 -0.00000000000E+00 -0.45593999997E+02  0.45594000000E+02  0.51100000000E-03 0.  1.
    9900012    2    1    2    0    0 -0.15871860150E+01  0.26543842002E+02 -0.17596171475E+02  0.59301953549E+02  0.50000017365E+02 0.  0.
         12    1    1    2    0    0  0.15871860150E+01 -0.26543842002E+02  0.17596171475E+02  0.31886046451E+02  0.00000000000E+00 0. -1.
         11    1    3    3    0    0  0.38697230692E+01  0.37246711835E+02 -0.99467815165E+01  0.38745719272E+02  0.51100000000E-03 0.  1.
        -11    1    3    3    0    0 -0.20351156152E+01 -0.13116896287E+02 -0.91344013509E+01  0.16113098773E+02  0.51100000000E-03 0. -1.
        -12    1    3    3    0    0 -0.34217934691E+01  0.24140264545E+01  0.14850113924E+01  0.44431355036E+01  0.00000000000E+00 0.  1.
</event>
<event>
 7    1  0.7579108E-012  0.5930192E+02  0.7816164E-02  0.1266605E+00
        -11   -1    0    0    0    0  0.00000000000E+00  0.00000000000E+00  0.45593999997E+02  0.45594000000E+02  0.51100000000E-03 0.  1.
         11   -1    0    0    0    0 -0.00000000000E+00 -0.00000000000E+00 -0.45593999997E+02  0.45594000000E+02  0.51100000000E-03 0. -1.
    9900012    2    1    2    0    0 -0.22425938521E+02  0.56424909830E+01  0.21953622969E+02  0.59301921776E+02  0.49999959418E+02 0.  0.
         12    1    1    2    0    0  0.22425938521E+02 -0.56424909830E+01 -0.21953622969E+02  0.31886078224E+02  0.00000000000E+00 0. -1.
         11    1    3    3    0    0 -0.75652105690E+01  0.16370877775E+01 -0.62656984130E+01  0.99584860399E+01  0.51100000000E-03 0. -1.
        -11    1    3    3    0    0 -0.75160867215E+01 -0.50969562198E+01  0.34771051232E+02  0.35937397323E+02  0.51100000000E-03 0.  1.
        -12    1    3    3    0    0 -0.73446412302E+01  0.91023594253E+01 -0.65517298497E+01  0.13406038413E+02  0.00000000000E+00 0.  1.
</event>
<event>
 7    1  0.7579108E-012  0.5930195E+02  0.7816164E-02  0.1266605E+00
        -11   -1    0    0    0    0  0.00000000000E+00  0.00000000000E+00  0.45593999997E+02  0.45594000000E+02  0.51100000000E-03 0.  1.
         11   -1    0    0    0    0 -0.00000000000E+00 -0.00000000000E+00 -0.45593999997E+02  0.45594000000E+02  0.51100000000E-03 0. -1.
    9900012    2    1    2    0    0  0.11589641549E+02  0.83092357330E+01  0.28519413043E+02  0.59301951170E+02  0.50000013026E+02 0.  0.
         12    1    1    2    0    0 -0.11589641549E+02 -0.83092357330E+01 -0.28519413043E+02  0.31886048830E+02  0.00000000000E+00 0. -1.
         11    1    3    3    0    0  0.12537487399E+02 -0.60390580944E+00  0.37859904698E+01  0.13110568889E+02  0.51100000000E-03 0. -1.
        -11    1    3    3    0    0 -0.12130015924E+02  0.13892550945E+02  0.27994587989E+02  0.33523681406E+02  0.51100000000E-03 0.  1.
        -12    1    3    3    0    0  0.11182170074E+02 -0.49794094031E+01 -0.32611654165E+01  0.12667700874E+02  0.00000000000E+00 0.  1.
</event>
<event>
 7    1  0.7579108E-012  0.5930193E+02  0.7816164E-02  0.1266605E+00
        -11   -1    0    0    0    0  0.00000000000E+00  0.00000000000E+00  0.45593999997E+02  0.45594000000E+02  0.51100000000E-03 0. -1.
         11   -1    0    0    0    0 -0.00000000000E+00 -0.00000000000E+00 -0.45593999997E+02  0.45594000000E+02  0.51100000000E-03 0.  1.
    9900012    2    1    2    0    0 -0.60100061766E+00 -0.29441562446E+02 -0.12229261886E+02  0.59301927064E+02  0.49999969063E+02 0.  0.
         12    1    1    2    0    0  0.60100061766E+00  0.29441562446E+02  0.12229261886E+02  0.31886072936E+02  0.00000000000E+00 0. -1.
         11    1    3    3    0    0 -0.77932020575E+01  0.37953484393E+01 -0.11442239766E+02  0.14354912721E+02  0.51100000000E-03 0.  1.
        -11    1    3    3    0    0  0.80846162751E+01 -0.38151711813E+02  0.23141163357E+01  0.39067496327E+02  0.51100000000E-03 0. -1.
         12    1    3    3    0    0 -0.89241483523E+00  0.49148009276E+01 -0.31011384550E+01  0.58795180171E+01  0.00000000000E+00 0. -1.
</event>
<event>
 7    1  0.7579108E-012  0.5930192E+02  0.7816164E-02  0.1266605E+00
        -11   -1    0    0    0    0  0.00000000000E+00  0.00000000000E+00  0.45593999997E+02  0.45594000000E+02  0.51100000000E-03 0. -1.
         11   -1    0    0    0    0 -0.00000000000E+00 -0.00000000000E+00 -0.45593999997E+02  0.45594000000E+02  0.51100000000E-03 0.  1.
    9900012    2    1    2    0    0  0.20426307395E+02  0.23910587427E+02  0.52699220733E+01  0.59301916773E+02  0.49999950294E+02 0.  0.
         12    1    1    2    0    0 -0.20426307395E+02 -0.23910587427E+02 -0.52699220733E+01  0.31886083227E+02  0.00000000000E+00 0. -1.
         11    1    3    3    0    0 -0.34601517911E+01  0.39257294293E+01 -0.61171033545E+00  0.52686043469E+01  0.51100000000E-03 0. -1.
        -11    1    3    3    0    0  0.33879654901E+02  0.23297050111E+02  0.10653600054E+02  0.42474495341E+02  0.51100000000E-03 0.  1.
        -12    1    3    3    0    0 -0.99931957149E+01 -0.33121921139E+01 -0.47719676455E+01  0.11558817085E+02  0.00000000000E+00 0.  1.
</event>
<event>
 7    1  0.7579108E-012  0.5930194E+02  0.7816164E-02  0.1266605E+00
        -11   -1    0    0    0    0  0.00000000000E+00  0.00000000000E+00  0.45593999997E+02  0.45594000000E+02  0.51100000000E-03 0.  1.
         11   -1    0    0    0    0 -0.00000000000E+00 -0.00000000000E+00 -0.45593999997E+02  0.45594000000E+02  0.51100000000E-03 0. -1.
    9900012    2    1    2    0    0 -0.10239503848E+02 -0.24377149190E+02  0.17822122387E+02  0.59301938969E+02  0.49999990775E+02 0.  0.
         12    1    1    2    0    0  0.10239503848E+02  0.24377149190E+02 -0.17822122387E+02  0.31886061031E+02  0.00000000000E+00 0. -1.
         11    1    3    3    0    0 -0.42986910098E+01 -0.43703212635E+01 -0.38212197805E+01  0.72235845130E+01  0.51100000000E-03 0. -1.
        -11    1    3    3    0    0 -0.18717518785E+02 -0.44681427746E+01  0.25140114729E+02  0.31659677480E+02  0.51100000000E-03 0.  1.
        -12    1    3    3    0    0  0.12776705947E+02 -0.15538685152E+02 -0.34967725619E+01  0.20418676976E+02  0.00000000000E+00 0.  1.
</event>
<event>
 7    1  0.7579108E-012  0.5930182E+02  0.7816164E-02  0.1266605E+00
        -11   -1    0    0    0    0  0.00000000000E+00  0.00000000000E+00  0.45593999997E+02  0.45594000000E+02  0.51100000000E-03 0.  1.
         11   -1    0    0    0    0 -0.00000000000E+00 -0.00000000000E+00 -0.45593999997E+02  0.45594000000E+02  0.51100000000E-03 0. -1.
    9900012    2    1    2    0    0  0.11535936389E+02  0.23166684903E+02 -0.18626745538E+02  0.59301815419E+02  0.49999765448E+02 0.  0.
         12    1    1    2    0    0 -0.11535936389E+02 -0.23166684903E+02  0.18626745538E+02  0.31886184581E+02  0.00000000000E+00 0. -1.
         11    1    3    3    0    0 -0.16777307924E+00  0.82650359631E+01 -0.10381569003E+02  0.13270868190E+02  0.51100000000E-03 0. -1.
        -11    1    3    3    0    0 -0.88508796462E+01 -0.91235486357E+01  0.18391813570E+01  0.12843667644E+02  0.51100000000E-03 0.  1.
        -12    1    3    3    0    0  0.20554589114E+02  0.24025197576E+02 -0.10084357892E+02  0.33187279586E+02  0.00000000000E+00 0.  1.
</event>
<event>
 7    1  0.7579108E-012  0.5930194E+02  0.7816164E-02  0.1266605E+00
        -11   -1    0    0    0    0  0.00000000000E+00  0.00000000000E+00  0.45593999997E+02  0.45594000000E+02  0.51100000000E-03 0. -1.
         11   -1    0    0    0    0 -0.00000000000E+00 -0.00000000000E+00 -0.45593999997E+02  0.45594000000E+02  0.51100000000E-03 0.  1.
    9900012    2    1    2    0    0 -0.24329705230E+01  0.26975408745E+02 -0.16826432569E+02  0.59301939480E+02  0.49999991705E+02 0.  0.
         12    1    1    2    0    0  0.24329705230E+01 -0.26975408745E+02  0.16826432569E+02  0.31886060520E+02  0.00000000000E+00 0. -1.
         11    1    3    3    0    0 -0.52322678750E+01  0.29030858365E+02  0.73170387294E+01  0.30392538896E+02  0.51100000000E-03 0. -1.
        -11    1    3    3    0    0 -0.52783825200E+01 -0.45141315001E+01 -0.14593822260E+02  0.16162250884E+02  0.51100000000E-03 0.  1.
         12    1    3    3    0    0  0.80776798721E+01  0.24586818798E+01 -0.95496490386E+01  0.12747149700E+02  0.00000000000E+00 0. -1.
</event>
<event>
 7    1  0.7579108E-012  0.5930180E+02  0.7816164E-02  0.1266605E+00
        -11   -1    0    0    0    0  0.00000000000E+00  0.00000000000E+00  0.45593999997E+02  0.45594000000E+02  0.51100000000E-03 0.  1.
         11   -1    0    0    0    0 -0.00000000000E+00 -0.00000000000E+00 -0.45593999997E+02  0.45594000000E+02  0.51100000000E-03 0. -1.
    9900012    2    1    2    0    0  0.28955590726E+02 -0.47066234800E+01  0.12496046844E+02  0.59301800390E+02  0.49999738038E+02 0.  0.
         12    1    1    2    0    0 -0.28955590726E+02  0.47066234800E+01 -0.12496046844E+02  0.31886199610E+02  0.00000000000E+00 0. -1.
         11    1    3    3    0    0 -0.69568487237E+01 -0.70337893249E+01 -0.97976067198E+01  0.13923542442E+02  0.51100000000E-03 0. -1.
        -11    1    3    3    0    0  0.31614765203E+02 -0.32358839445E+01  0.14651846176E+02  0.34994869915E+02  0.51100000000E-03 0.  1.
         12    1    3    3    0    0  0.42976742465E+01  0.55630497894E+01  0.76418073873E+01  0.10383388032E+02  0.00000000000E+00 0. -1.
</event>
<event>
 7    1  0.7579108E-012  0.5930193E+02  0.7816164E-02  0.1266605E+00
        -11   -1    0    0    0    0  0.00000000000E+00  0.00000000000E+00  0.45593999997E+02  0.45594000000E+02  0.51100000000E-03 0. -1.
         11   -1    0    0    0    0 -0.00000000000E+00 -0.00000000000E+00 -0.45593999997E+02  0.45594000000E+02  0.51100000000E-03 0.  1.
    9900012    2    1    2    0    0 -0.17150441311E+02 -0.66187132109E+01 -0.26053341331E+02  0.59301927864E+02  0.49999970522E+02 0.  0.
         12    1    1    2    0    0  0.17150441311E+02  0.66187132109E+01  0.26053341331E+02  0.31886072136E+02  0.00000000000E+00 0. -1.
         11    1    3    3    0    0  0.15342605970E+01 -0.12561440562E+02  0.10853941935E+02  0.16671886527E+02  0.51100000000E-03 0. -1.
        -11    1    3    3    0    0 -0.17877998978E+02  0.50051843433E+01 -0.27737943199E+02  0.33377660357E+02  0.51100000000E-03 0.  1.
         12    1    3    3    0    0 -0.80670293016E+00  0.93754300831E+00 -0.91693400682E+01  0.92523809798E+01  0.00000000000E+00 0. -1.
</event>
<event>
 7    1  0.7579108E-012  0.5930191E+02  0.7816164E-02  0.1266605E+00
        -11   -1    0    0    0    0  0.00000000000E+00  0.00000000000E+00  0.45593999997E+02  0.45594000000E+02  0.51100000000E-03 0.  1.
         11   -1    0    0    0    0 -0.00000000000E+00 -0.00000000000E+00 -0.45593999997E+02  0.45594000000E+02  0.51100000000E-03 0. -1.
    9900012    2    1    2    0    0  0.66018933884E+01 -0.14262895168E+02  0.27743600454E+02  0.59301913049E+02  0.49999943502E+02 0.  0.
         12    1    1    2    0    0 -0.66018933884E+01  0.14262895168E+02 -0.27743600454E+02  0.31886086951E+02  0.00000000000E+00 0. -1.
         11    1    3    3    0    0 -0.19678289855E+01 -0.13739977359E+02 -0.32096767553E+01  0.14246450571E+02  0.51100000000E-03 0. -1.
        -11    1    3    3    0    0  0.18604981715E+02  0.49197684769E+01  0.26612982617E+02  0.32842050948E+02  0.51100000000E-03 0.  1.
        -12    1    3    3    0    0 -0.10035259341E+02 -0.54426862857E+01  0.43402945928E+01  0.12213411530E+02  0.00000000000E+00 0.  1.
</event>
<event>
 7    1  0.7579108E-012  0.5930191E+02  0.7816164E-02  0.1266605E+00
        -11   -1    0    0    0    0  0.00000000000E+00  0.00000000000E+00  0.45593999997E+02  0.45594000000E+02  0.51100000000E-03 0.  1.
         11   -1    0    0    0    0 -0.00000000000E+00 -0.00000000000E+00 -0.45593999997E+02  0.45594000000E+02  0.51100000000E-03 0. -1.
    9900012    2    1    2    0    0  0.73212891839E+01 -0.30608333083E+02  0.51235911077E+01  0.59301913453E+02  0.49999944239E+02 0.  0.
         12    1    1    2    0    0 -0.73212891839E+01  0.30608333083E+02 -0.51235911077E+01  0.31886086547E+02  0.00000000000E+00 0. -1.
         11    1    3    3    0    0  0.10128871163E+02  0.98618645369E+01 -0.20439664756E+01  0.14283844104E+02  0.51100000000E-03 0. -1.
        -11    1    3    3    0    0 -0.29115197941E+01 -0.37577029980E+02  0.11853733984E+02  0.39509760051E+02  0.51100000000E-03 0.  1.
         12    1    3    3    0    0  0.10393781471E+00 -0.28931676401E+01 -0.46861764004E+01  0.55083092977E+01  0.00000000000E+00 0. -1.
</event>
<event>
 7    1  0.7579108E-012  0.5930195E+02  0.7816164E-02  0.1266605E+00
        -11   -1    0    0    0    0  0.00000000000E+00  0.00000000000E+00  0.45593999997E+02  0.45594000000E+02  0.51100000000E-03 0. -1.
         11   -1    0    0    0    0 -0.00000000000E+00 -0.00000000000E+00 -0.45593999997E+02  0.45594000000E+02  0.51100000000E-03 0.  1.
    9900012    2    1    2    0    0  0.26254397289E+02  0.75353698125E+01 -0.16451300556E+02  0.59301945600E+02  0.50000002867E+02 0.  0.
         12    1    1    2    0    0 -0.26254397289E+02 -0.75353698125E+01  0.16451300556E+02  0.31886054400E+02  0.00000000000E+00 0. -1.
         11    1    3    3    0    0 -0.50861233173E+01 -0.13417074700E+02 -0.62051400350E+01  0.15632987783E+02  0.51100000000E-03 0. -1.
        -11    1    3    3    0    0  0.24679086409E+02  0.10320757712E+02  0.10723630621E+01  0.26771725916E+02  0.51100000000E-03 0.  1.
         12    1    3    3    0    0  0.66614341967E+01  0.10631686801E+02 -0.11318523583E+02  0.16897231901E+02  0.00000000000E+00 0. -1.
</event>
<event>
 7    1  0.7579108E-012  0.5930194E+02  0.7816164E-02  0.1266605E+00
        -11   -1    0    0    0    0  0.00000000000E+00  0.00000000000E+00  0.45593999997E+02  0.45594000000E+02  0.51100000000E-03 0.  1.
         11   -1    0    0    0    0 -0.00000000000E+00 -0.00000000000E+00 -0.45593999997E+02  0.45594000000E+02  0.51100000000E-03 0. -1.
    9900012    2    1    2    0    0  0.21533715330E+02  0.16592745619E+02  0.16664357492E+02  0.59301938567E+02  0.49999990041E+02 0.  0.
         12    1    1    2    0    0 -0.21533715330E+02 -0.16592745619E+02 -0.16664357492E+02  0.31886061433E+02  0.00000000000E+00 0. -1.
         11    1    3    3    0    0  0.85199408574E+01 -0.32902990721E+00  0.68939038437E+01  0.10964650627E+02  0.51100000000E-03 0. -1.
        -11    1    3    3    0    0  0.84219254284E+01  0.25582275413E+02 -0.79539089764E+01  0.28082847282E+02  0.51100000000E-03 0.  1.
        -12    1    3    3    0    0  0.45918490442E+01 -0.86604998867E+01  0.17724362625E+02  0.20254440658E+02  0.00000000000E+00 0.  1.
</event>
<event>
 7    1  0.7579108E-012  0.5930234E+02  0.7816164E-02  0.1266603E+00
        -11   -1    0    0    0    0  0.00000000000E+00  0.00000000000E+00  0.45593999997E+02  0.45594000000E+02  0.51100000000E-03 0. -1.
         11   -1    0    0    0    0 -0.00000000000E+00 -0.00000000000E+00 -0.45593999997E+02  0.45594000000E+02  0.51100000000E-03 0.  1.
    9900012    2    1    2    0    0 -0.86077776796E+01  0.21031415708E+02 -0.22366966929E+02  0.59302337189E+02  0.50000717026E+02 0.  0.
         12    1    1    2    0    0  0.86077776796E+01 -0.21031415708E+02  0.22366966929E+02  0.31885662811E+02  0.00000000000E+00 0. -1.
         11    1    3    3    0    0  0.11544163398E+02  0.69291667747E+01  0.33155519752E+01  0.13866288109E+02  0.51100000000E-03 0. -1.
        -11    1    3    3    0    0 -0.18565568266E+02  0.19894415195E+02 -0.27957629903E+02  0.39014063504E+02  0.51100000000E-03 0.  1.
         12    1    3    3    0    0 -0.15863728111E+01 -0.57921662611E+01  0.22751109985E+01  0.64219855767E+01  0.00000000000E+00 0. -1.
</event>
<event>
 7    1  0.7579108E-012  0.5930194E+02  0.7816164E-02  0.1266605E+00
        -11   -1    0    0    0    0  0.00000000000E+00  0.00000000000E+00  0.45593999997E+02  0.45594000000E+02  0.51100000000E-03 0. -1.
         11   -1    0    0    0    0 -0.00000000000E+00 -0.00000000000E+00 -0.45593999997E+02  0.45594000000E+02  0.51100000000E-03 0.  1.
    9900012    2    1    2    0    0  0.14090357591E+02 -0.21153354154E+02 -0.19254038341E+02  0.59301944091E+02  0.50000000115E+02 0.  0.
         12    1    1    2    0    0 -0.14090357591E+02  0.21153354154E+02  0.19254038341E+02  0.31886055909E+02  0.00000000000E+00 0. -1.
         11    1    3    3    0    0  0.14425835691E+02 -0.27817346924E+02 -0.83823975769E+01  0.32437233462E+02  0.51100000000E-03 0. -1.
        -11    1    3    3    0    0 -0.11209981327E+02 -0.91243780788E+00 -0.40122062776E+01  0.11941273952E+02  0.51100000000E-03 0.  1.
        -12    1    3    3    0    0  0.10874503228E+02  0.75764305783E+01 -0.68594344866E+01  0.14923436677E+02  0.00000000000E+00 0.  1.
</event>
<event>
 7    1  0.7579108E-012  0.5930181E+02  0.7816164E-02  0.1266605E+00
        -11   -1    0    0    0    0  0.00000000000E+00  0.00000000000E+00  0.45593999997E+02  0.45594000000E+02  0.51100000000E-03 0.  1.
         11   -1    0    0    0    0 -0.00000000000E+00 -0.00000000000E+00 -0.45593999997E+02  0.45594000000E+02  0.51100000000E-03 0. -1.
    9900012    2    1    2    0    0  0.26905783280E+02 -0.17103179796E+02 -0.53790643662E+00  0.59301807434E+02  0.49999750885E+02 0.  0.
         12    1    1    2    0    0 -0.26905783280E+02  0.17103179796E+02  0.53790643662E+00  0.31886192566E+02  0.00000000000E+00 0. -1.
         11    1    3    3    0    0  0.28539338275E+01  0.68531612967E+01  0.80884681817E+01  0.10978801202E+02  0.51100000000E-03 0. -1.
        -11    1    3    3    0    0  0.17362414363E+02 -0.31796807160E+02 -0.10771595424E+02  0.37795735822E+02  0.51100000000E-03 0.  1.
        -12    1    3    3    0    0  0.66894350890E+01  0.78404660676E+01  0.21452208059E+01  0.10527270409E+02  0.00000000000E+00 0.  1.
</event>
<event>
 7    1  0.7579108E-012  0.5930192E+02  0.7816164E-02  0.1266605E+00
        -11   -1    0    0    0    0  0.00000000000E+00  0.00000000000E+00  0.45593999997E+02  0.45594000000E+02  0.51100000000E-03 0.  1.
         11   -1    0    0    0    0 -0.00000000000E+00 -0.00000000000E+00 -0.45593999997E+02  0.45594000000E+02  0.51100000000E-03 0. -1.
    9900012    2    1    2    0    0 -0.21620881955E+02  0.23121990567E+02  0.38252868881E+01  0.59301924605E+02  0.49999964578E+02 0.  0.
         12    1    1    2    0    0  0.21620881955E+02 -0.23121990567E+02 -0.38252868881E+01  0.31886075395E+02  0.00000000000E+00 0. -1.
         11    1    3    3    0    0 -0.20996492517E+02  0.64635459883E+01  0.10740356049E+02  0.24453739449E+02  0.51100000000E-03 0. -1.
        -11    1    3    3    0    0  0.69730799129E+01  0.18567374854E+02  0.51240759231E+01  0.20484809171E+02  0.51100000000E-03 0.  1.
         12    1    3    3    0    0 -0.75974693516E+01 -0.19089302756E+01 -0.12039145084E+02  0.14363375985E+02  0.00000000000E+00 0. -1.
</event>
<event>
 7    1  0.7579108E-012  0.5930194E+02  0.7816164E-02  0.1266605E+00
        -11   -1    0    0    0    0  0.00000000000E+00  0.00000000000E+00  0.45593999997E+02  0.45594000000E+02  0.51100000000E-03 0.  1.
         11   -1    0    0    0    0 -0.00000000000E+00 -0.00000000000E+00 -0.45593999997E+02  0.45594000000E+02  0.51100000000E-03 0. -1.
    9900012    2    1    2    0    0 -0.49693887528E+01  0.18751700955E+02  0.25306117984E+02  0.59301941593E+02  0.49999995560E+02 0.  0.
         12    1    1    2    0    0  0.49693887528E+01 -0.18751700955E+02 -0.25306117984E+02  0.31886058407E+02  0.00000000000E+00 0. -1.
         11    1    3    3    0    0 -0.42510011168E+01 -0.33348278253E+01 -0.79374714049E+01  0.96018508468E+01  0.51100000000E-03 0. -1.
        -11    1    3    3    0    0 -0.52924401802E+01  0.28543371947E+02  0.26368107500E+02  0.39217484603E+02  0.51100000000E-03 0.  1.
        -12    1    3    3    0    0  0.45740525443E+01 -0.64568431667E+01  0.68754818893E+01  0.10482606144E+02  0.00000000000E+00 0.  1.
</event>
<event>
 7    1  0.7579108E-012  0.5930194E+02  0.7816164E-02  0.1266605E+00
        -11   -1    0    0    0    0  0.00000000000E+00  0.00000000000E+00  0.45593999997E+02  0.45594000000E+02  0.51100000000E-03 0. -1.
         11   -1    0    0    0    0 -0.00000000000E+00 -0.00000000000E+00 -0.45593999997E+02  0.45594000000E+02  0.51100000000E-03 0.  1.
    9900012    2    1    2    0    0 -0.16882897351E+02  0.79320783052E+01 -0.25860598010E+02  0.59301943194E+02  0.49999998479E+02 0.  0.
         12    1    1    2    0    0  0.16882897351E+02 -0.79320783052E+01  0.25860598010E+02  0.31886056806E+02  0.00000000000E+00 0. -1.
         11    1    3    3    0    0 -0.14974537732E+02  0.66596631611E+01  0.57013662350E+01  0.17352045150E+02  0.51100000000E-03 0. -1.
        -11    1    3    3    0    0 -0.10405134318E+02 -0.70107194766E+01 -0.25949285803E+02  0.28823296857E+02  0.51100000000E-03 0.  1.
         12    1    3    3    0    0  0.84967746986E+01  0.82831346207E+01 -0.56126784422E+01  0.13126601187E+02  0.00000000000E+00 0. -1.
</event>
<event>
 7    1  0.7579108E-012  0.5930194E+02  0.7816164E-02  0.1266605E+00
        -11   -1    0    0    0    0  0.00000000000E+00  0.00000000000E+00  0.45593999997E+02  0.45594000000E+02  0.51100000000E-03 0. -1.
         11   -1    0    0    0    0 -0.00000000000E+00 -0.00000000000E+00 -0.45593999997E+02  0.45594000000E+02  0.51100000000E-03 0.  1.
    9900012    2    1    2    0    0 -0.27937181933E+02 -0.10530977708E+02  0.11195223805E+02  0.59301942516E+02  0.49999997243E+02 0.  0.
         12    1    1    2    0    0  0.27937181933E+02  0.10530977708E+02 -0.11195223805E+02  0.31886057484E+02  0.00000000000E+00 0. -1.
         11    1    3    3    0    0 -0.21819859279E+02 -0.16142721554E+02  0.12101150787E+02  0.29717529654E+02  0.51100000000E-03 0. -1.
        -11    1    3    3    0    0  0.85274604958E+01  0.10633042699E+02  0.21653408321E+01  0.13801010134E+02  0.51100000000E-03 0.  1.
         12    1    3    3    0    0 -0.14644783150E+02 -0.50212988532E+01 -0.30712678136E+01  0.15783402728E+02  0.00000000000E+00 0. -1.
</event>
<event>
 7    1  0.7579108E-012  0.5930200E+02  0.7816164E-02  0.1266605E+00
        -11   -1    0    0    0    0  0.00000000000E+00  0.00000000000E+00  0.45593999997E+02  0.45594000000E+02  0.51100000000E-03 0. -1.
         11   -1    0    0    0    0 -0.00000000000E+00 -0.00000000000E+00 -0.45593999997E+02  0.45594000000E+02  0.51100000000E-03 0.  1.
    9900012    2    1    2    0    0  0.26794437849E+02 -0.39064282691E+01 -0.16837899765E+02  0.59302000722E+02  0.50000103396E+02 0.  0.
         12    1    1    2    0    0 -0.26794437849E+02  0.39064282691E+01  0.16837899765E+02  0.31885999278E+02  0.00000000000E+00 0. -1.
         11    1    3    3    0    0 -0.57663133504E+01 -0.11203564700E+02  0.41883003331E+01  0.13278256346E+02  0.51100000000E-03 0. -1.
        -11    1    3    3    0    0  0.20078909208E+02 -0.65490519650E+01 -0.16602382617E+02  0.26864321794E+02  0.51100000000E-03 0.  1.
         12    1    3    3    0    0  0.12481841991E+02  0.13846188396E+02 -0.44238174816E+01  0.19159422582E+02  0.00000000000E+00 0. -1.
</event>
<event>
 7    1  0.7579108E-012  0.5930195E+02  0.7816164E-02  0.1266605E+00
        -11   -1    0    0    0    0  0.00000000000E+00  0.00000000000E+00  0.45593999997E+02  0.45594000000E+02  0.51100000000E-03 0. -1.
         11   -1    0    0    0    0 -0.00000000000E+00 -0.00000000000E+00 -0.45593999997E+02  0.45594000000E+02  0.51100000000E-03 0.  1.
    9900012    2    1    2    0    0  0.97966227697E+01  0.30325709447E+02 -0.10477687969E+01  0.59301948338E+02  0.50000007861E+02 0.  0.
         12    1    1    2    0    0 -0.97966227697E+01 -0.30325709447E+02  0.10477687969E+01  0.31886051662E+02  0.00000000000E+00 0. -1.
         11    1    3    3    0    0  0.94294823924E+01 -0.27770552888E+01  0.13963729490E+02  0.17076677540E+02  0.51100000000E-03 0. -1.
        -11    1    3    3    0    0 -0.10013517441E+02  0.10683248027E+02 -0.71763143195E+01  0.16306495866E+02  0.51100000000E-03 0.  1.
        -12    1    3    3    0    0  0.10380657818E+02  0.22419516708E+02 -0.78351839677E+01  0.25918774932E+02  0.00000000000E+00 0.  1.
</event>
<event>
 7    1  0.7579108E-012  0.5930193E+02  0.7816164E-02  0.1266605E+00
        -11   -1    0    0    0    0  0.00000000000E+00  0.00000000000E+00  0.45593999997E+02  0.45594000000E+02  0.51100000000E-03 0. -1.
         11   -1    0    0    0    0 -0.00000000000E+00 -0.00000000000E+00 -0.45593999997E+02  0.45594000000E+02  0.51100000000E-03 0.  1.
    9900012    2    1    2    0    0  0.20882532901E+02 -0.11934350012E+02 -0.20933524941E+02  0.59301931615E+02  0.49999977363E+02 0.  0.
         12    1    1    2    0    0 -0.20882532901E+02  0.11934350012E+02  0.20933524941E+02  0.31886068385E+02  0.00000000000E+00 0. -1.
         11    1    3    3    0    0  0.23198770186E+02 -0.17308936650E+02 -0.10473819846E+02  0.30781213890E+02  0.51100000000E-03 0. -1.
        -11    1    3    3    0    0 -0.12756631364E+02  0.46094496178E+01 -0.11785415994E+02  0.17968714477E+02  0.51100000000E-03 0.  1.
         12    1    3    3    0    0  0.10440394079E+02  0.76513701993E+00  0.13257108985E+01  0.10552003249E+02  0.00000000000E+00 0. -1.
</event>
<event>
 7    1  0.7579108E-012  0.5930193E+02  0.7816164E-02  0.1266605E+00
        -11   -1    0    0    0    0  0.00000000000E+00  0.00000000000E+00  0.45593999997E+02  0.45594000000E+02  0.51100000000E-03 0. -1.
         11   -1    0    0    0    0 -0.00000000000E+00 -0.00000000000E+00 -0.45593999997E+02  0.45594000000E+02  0.51100000000E-03 0.  1.
    9900012    2    1    2    0    0 -0.24429822058E+02  0.17513011995E+02 -0.10639547577E+02  0.59301925178E+02  0.49999965622E+02 0.  0.
         12    1    1    2    0    0  0.24429822058E+02 -0.17513011995E+02  0.10639547577E+02  0.31886074822E+02  0.00000000000E+00 0. -1.
         11    1    3    3    0    0 -0.32886113575E+01 -0.10566345428E+02  0.13816254068E+01  0.11152197514E+02  0.51100000000E-03 0. -1.
        -11    1    3    3    0    0 -0.56951312308E+01  0.25099431099E+02  0.35908994532E+01  0.25986737394E+02  0.51100000000E-03 0.  1.
         12    1    3    3    0    0 -0.15446079470E+02  0.29799263241E+01 -0.15612072437E+02  0.22162990269E+02  0.00000000000E+00 0. -1.
</event>
<event>
 7    1  0.7579108E-012  0.5930198E+02  0.7816164E-02  0.1266605E+00
        -11   -1    0    0    0    0  0.00000000000E+00  0.00000000000E+00  0.45593999997E+02  0.45594000000E+02  0.51100000000E-03 0.  1.
         11   -1    0    0    0    0 -0.00000000000E+00 -0.00000000000E+00 -0.45593999997E+02  0.45594000000E+02  0.51100000000E-03 0. -1.
    9900012    2    1    2    0    0  0.65299448236E+01  0.22237290146E+02  0.21899338214E+02  0.59301980076E+02  0.50000065742E+02 0.  0.
         12    1    1    2    0    0 -0.65299448236E+01 -0.22237290146E+02 -0.21899338214E+02  0.31886019924E+02  0.00000000000E+00 0. -1.
         11    1    3    3    0    0  0.47822602493E+01  0.10643524612E+01 -0.63567553417E+01  0.80256587262E+01  0.51100000000E-03 0. -1.
        -11    1    3    3    0    0  0.26498737620E+01  0.31906467334E+02  0.21277743809E+02  0.38441993581E+02  0.51100000000E-03 0.  1.
        -12    1    3    3    0    0 -0.90218918781E+00 -0.10733529649E+02  0.69783497471E+01  0.12834327768E+02  0.00000000000E+00 0.  1.
</event>
<event>
 7    1  0.7579108E-012  0.5930197E+02  0.7816164E-02  0.1266605E+00
        -11   -1    0    0    0    0  0.00000000000E+00  0.00000000000E+00  0.45593999997E+02  0.45594000000E+02  0.51100000000E-03 0. -1.
         11   -1    0    0    0    0 -0.00000000000E+00 -0.00000000000E+00 -0.45593999997E+02  0.45594000000E+02  0.51100000000E-03 0.  1.
    9900012    2    1    2    0    0 -0.29903416576E+02  0.57330985821E+01  0.94676529336E+01  0.59301965528E+02  0.50000039211E+02 0.  0.
         12    1    1    2    0    0  0.29903416576E+02 -0.57330985821E+01 -0.94676529336E+01  0.31886034472E+02  0.00000000000E+00 0. -1.
         11    1    3    3    0    0 -0.17469688536E+02 -0.53270270933E+01  0.10990910024E+02  0.21315894038E+02  0.51100000000E-03 0. -1.
        -11    1    3    3    0    0  0.93873570612E+00  0.17894887513E+02 -0.10222804140E+02  0.20630413194E+02  0.51100000000E-03 0.  1.
        -12    1    3    3    0    0 -0.13372463746E+02 -0.68347618375E+01  0.86995470492E+01  0.17355658296E+02  0.00000000000E+00 0.  1.
</event>
<event>
 7    1  0.7579108E-012  0.5930217E+02  0.7816164E-02  0.1266604E+00
        -11   -1    0    0    0    0  0.00000000000E+00  0.00000000000E+00  0.45593999997E+02  0.45594000000E+02  0.51100000000E-03 0. -1.
         11   -1    0    0    0    0 -0.00000000000E+00 -0.00000000000E+00 -0.45593999997E+02  0.45594000000E+02  0.51100000000E-03 0.  1.
    9900012    2    1    2    0    0  0.11485171386E+02  0.15416372681E+02 -0.25438797169E+02  0.59302170705E+02  0.50000413404E+02 0.  0.
         12    1    1    2    0    0 -0.11485171386E+02 -0.15416372681E+02  0.25438797169E+02  0.31885829295E+02  0.00000000000E+00 0. -1.
         11    1    3    3    0    0  0.78169857094E+01 -0.10951841749E+01  0.25766903472E+01  0.83032540227E+01  0.51100000000E-03 0. -1.
        -11    1    3    3    0    0  0.12099774495E+02  0.26504234260E+02 -0.15989657899E+02  0.33234742913E+02  0.51100000000E-03 0.  1.
        -12    1    3    3    0    0 -0.84315888191E+01 -0.99926774041E+01 -0.12025829618E+02  0.17764173770E+02  0.00000000000E+00 0.  1.
</event>
<event>
 7    1  0.7579108E-012  0.5930198E+02  0.7816164E-02  0.1266605E+00
        -11   -1    0    0    0    0  0.00000000000E+00  0.00000000000E+00  0.45593999997E+02  0.45594000000E+02  0.51100000000E-03 0.  1.
         11   -1    0    0    0    0 -0.00000000000E+00 -0.00000000000E+00 -0.45593999997E+02  0.45594000000E+02  0.51100000000E-03 0. -1.
    9900012    2    1    2    0    0 -0.24033770068E+02 -0.84081420178E+01  0.19193723589E+02  0.59301984553E+02  0.50000073909E+02 0.  0.
         12    1    1    2    0    0  0.24033770068E+02  0.84081420178E+01 -0.19193723589E+02  0.31886015447E+02  0.00000000000E+00 0. -1.
         11    1    3    3    0    0 -0.32289336092E+00  0.49279062641E+01  0.16718434725E+02  0.17432572392E+02  0.51100000000E-03 0.  1.
        -11    1    3    3    0    0 -0.27023421328E+02 -0.94128736279E+01  0.12014797111E+02  0.31035831552E+02  0.51100000000E-03 0. -1.
         12    1    3    3    0    0  0.33125446216E+01 -0.39231746539E+01 -0.95395082469E+01  0.10833580610E+02  0.00000000000E+00 0. -1.
</event>
<event>
 7    1  0.7579108E-012  0.5930196E+02  0.7816164E-02  0.1266605E+00
        -11   -1    0    0    0    0  0.00000000000E+00  0.00000000000E+00  0.45593999997E+02  0.45594000000E+02  0.51100000000E-03 0. -1.
         11   -1    0    0    0    0 -0.00000000000E+00 -0.00000000000E+00 -0.45593999997E+02  0.45594000000E+02  0.51100000000E-03 0.  1.
    9900012    2    1    2    0    0 -0.26158710172E+02  0.78683607918E+01 -0.16447802190E+02  0.59301962048E+02  0.50000032865E+02 0.  0.
         12    1    1    2    0    0  0.26158710172E+02 -0.78683607918E+01  0.16447802190E+02  0.31886037952E+02  0.00000000000E+00 0. -1.
         11    1    3    3    0    0  0.53139183337E+01 -0.18991433703E+01 -0.22392733787E+02  0.23092834393E+02  0.51100000000E-03 0. -1.
        -11    1    3    3    0    0 -0.26539429439E+02  0.22946215078E+01  0.31243244301E+01  0.26821036635E+02  0.51100000000E-03 0.  1.
        -12    1    3    3    0    0 -0.49331990667E+01  0.74728826542E+01  0.28206071672E+01  0.93880910193E+01  0.00000000000E+00 0.  1.
</event>
<event>
 7    1  0.7579108E-012  0.5930193E+02  0.7816164E-02  0.1266605E+00
        -11   -1    0    0    0    0  0.00000000000E+00  0.00000000000E+00  0.45593999997E+02  0.45594000000E+02  0.51100000000E-03 0.  1.
         11   -1    0    0    0    0 -0.00000000000E+00 -0.00000000000E+00 -0.45593999997E+02  0.45594000000E+02  0.51100000000E-03 0. -1.
    9900012    2    1    2    0    0 -0.19575518553E+02  0.52736137679E+01  0.24611169283E+02  0.59301928084E+02  0.49999970922E+02 0.  0.
         12    1    1    2    0    0  0.19575518553E+02 -0.52736137679E+01 -0.24611169283E+02  0.31886071916E+02  0.00000000000E+00 0. -1.
         11    1    3    3    0    0 -0.45896947778E+01  0.21787881201E+02  0.11121032966E+02  0.24888841674E+02  0.51100000000E-03 0. -1.
        -11    1    3    3    0    0 -0.13294903905E+02 -0.62429711515E+01  0.17859778802E+02  0.23123599585E+02  0.51100000000E-03 0.  1.
         12    1    3    3    0    0 -0.16909198706E+01 -0.10271296282E+02 -0.43696424856E+01  0.11289486825E+02  0.00000000000E+00 0. -1.
</event>
<event>
 7    1  0.7579108E-012  0.5930192E+02  0.7816164E-02  0.1266605E+00
        -11   -1    0    0    0    0  0.00000000000E+00  0.00000000000E+00  0.45593999997E+02  0.45594000000E+02  0.51100000000E-03 0. -1.
         11   -1    0    0    0    0 -0.00000000000E+00 -0.00000000000E+00 -0.45593999997E+02  0.45594000000E+02  0.51100000000E-03 0.  1.
    9900012    2    1    2    0    0  0.28016321793E+02  0.69296676669E+01 -0.13556826088E+02  0.59301919740E+02  0.49999955705E+02 0.  0.
         12    1    1    2    0    0 -0.28016321793E+02 -0.69296676669E+01  0.13556826088E+02  0.31886080260E+02  0.00000000000E+00 0. -1.
         11    1    3    3    0    0  0.20676508856E+01  0.11637192937E+02 -0.25132638667E+02  0.27773169900E+02  0.51100000000E-03 0.  1.
        -11    1    3    3    0    0  0.24330706373E+02 -0.79782622113E+01  0.93766459301E+01  0.27268249480E+02  0.51100000000E-03 0. -1.
        -12    1    3    3    0    0  0.16179645337E+01  0.32707369413E+01  0.21991666489E+01  0.42605003605E+01  0.00000000000E+00 0.  1.
</event>
<event>
 7    1  0.7579108E-012  0.5930190E+02  0.7816164E-02  0.1266605E+00
        -11   -1    0    0    0    0  0.00000000000E+00  0.00000000000E+00  0.45593999997E+02  0.45594000000E+02  0.51100000000E-03 0.  1.
         11   -1    0    0    0    0 -0.00000000000E+00 -0.00000000000E+00 -0.45593999997E+02  0.45594000000E+02  0.51100000000E-03 0. -1.
    9900012    2    1    2    0    0  0.11014762015E+02  0.20130387024E+02  0.22139696541E+02  0.59301896021E+02  0.49999912448E+02 0.  0.
         12    1    1    2    0    0 -0.11014762015E+02 -0.20130387024E+02 -0.22139696541E+02  0.31886103979E+02  0.00000000000E+00 0. -1.
         11    1    3    3    0    0  0.16105040102E+02  0.30498838012E+01 -0.11877293965E+02  0.20242139711E+02  0.51100000000E-03 0. -1.
        -11    1    3    3    0    0 -0.41827309387E+01  0.31519650011E+01  0.90930637986E+01  0.10493518522E+02  0.51100000000E-03 0.  1.
         12    1    3    3    0    0 -0.90754714902E+00  0.13928538222E+02  0.24923926707E+02  0.28566237788E+02  0.00000000000E+00 0. -1.
</event>
<event>
 7    1  0.7579108E-012  0.5930194E+02  0.7816164E-02  0.1266605E+00
        -11   -1    0    0    0    0  0.00000000000E+00  0.00000000000E+00  0.45593999997E+02  0.45594000000E+02  0.51100000000E-03 0.  1.
         11   -1    0    0    0    0 -0.00000000000E+00 -0.00000000000E+00 -0.45593999997E+02  0.45594000000E+02  0.51100000000E-03 0. -1.
    9900012    2    1    2    0    0 -0.22784050607E+02 -0.10887750008E+02  0.19469581659E+02  0.59301942353E+02  0.49999996945E+02 0.  0.
         12    1    1    2    0    0  0.22784050607E+02  0.10887750008E+02 -0.19469581659E+02  0.31886057647E+02  0.00000000000E+00 0. -1.
         11    1    3    3    0    0  0.53388948143E+01  0.28637955697E+00  0.17253052452E+00  0.53493530573E+01  0.51100000000E-03 0. -1.
        -11    1    3    3    0    0 -0.32632624805E+02  0.44753348317E+01  0.18194094382E+02  0.37629003364E+02  0.51100000000E-03 0.  1.
        -12    1    3    3    0    0  0.45096793837E+01 -0.15649464397E+02  0.11029567518E+01  0.16323585931E+02  0.00000000000E+00 0.  1.
</event>
<event>
 7    1  0.7579108E-012  0.5930199E+02  0.7816164E-02  0.1266605E+00
        -11   -1    0    0    0    0  0.00000000000E+00  0.00000000000E+00  0.45593999997E+02  0.45594000000E+02  0.51100000000E-03 0. -1.
         11   -1    0    0    0    0 -0.00000000000E+00 -0.00000000000E+00 -0.45593999997E+02  0.45594000000E+02  0.51100000000E-03 0.  1.
    9900012    2    1    2    0    0 -0.30188388340E+00 -0.31843417403E+02 -0.16197315552E+01  0.59301985886E+02  0.50000076340E+02 0.  0.
         12    1    1    2    0    0  0.30188388340E+00  0.31843417403E+02  0.16197315552E+01  0.31886014114E+02  0.00000000000E+00 0. -1.
         11    1    3    3    0    0  0.37958026770E+01 -0.28165193135E+01  0.83991056306E+01  0.96377318214E+01  0.51100000000E-03 0. -1.
        -11    1    3    3    0    0 -0.19302095092E+02 -0.19882471601E+02 -0.14625510951E+02  0.31333514370E+02  0.51100000000E-03 0.  1.
        -12    1    3    3    0    0  0.15204408532E+02 -0.91444264880E+01  0.46066737652E+01  0.18330739695E+02  0.00000000000E+00 0.  1.
</event>
<event>
 7    1  0.7579108E-012  0.5930195E+02  0.7816164E-02  0.1266605E+00
        -11   -1    0    0    0    0  0.00000000000E+00  0.00000000000E+00  0.45593999997E+02  0.45594000000E+02  0.51100000000E-03 0.  1.
         11   -1    0    0    0    0 -0.00000000000E+00 -0.00000000000E+00 -0.45593999997E+02  0.45594000000E+02  0.51100000000E-03 0. -1.
    9900012    2    1    2    0    0 -0.27934754525E+01 -0.15231982361E+02  0.27872988381E+02  0.59301948614E+02  0.50000008363E+02 0.  0.
         12    1    1    2    0    0  0.27934754525E+01  0.15231982361E+02 -0.27872988381E+02  0.31886051386E+02  0.00000000000E+00 0. -1.
         11    1    3    3    0    0  0.52853649773E+01 -0.17098597113E+02  0.19861612347E+02  0.26735383885E+02  0.51100000000E-03 0. -1.
        -11    1    3    3    0    0  0.32007478982E+01  0.10558693394E+01 -0.10414968893E+02  0.10946744926E+02  0.51100000000E-03 0.  1.
        -12    1    3    3    0    0 -0.11279588328E+02  0.81074541287E+00  0.18426344927E+02  0.21619819803E+02  0.00000000000E+00 0.  1.
</event>
<event>
 7    1  0.7717063E-012  0.5930195E+02  0.7816164E-02  0.1266605E+00
        -11   -1    0    0    0    0  0.00000000000E+00  0.00000000000E+00  0.45593999997E+02  0.45594000000E+02  0.51100000000E-03 0.  1.
         11   -1    0    0    0    0 -0.00000000000E+00 -0.00000000000E+00 -0.45593999997E+02  0.45594000000E+02  0.51100000000E-03 0. -1.
    9900012    2    1    2    0    0 -0.31405827393E+02 -0.41330392274E+01  0.36485502980E+01  0.59301954043E+02  0.50000018266E+02 0.  0.
         12    1    1    2    0    0  0.31405827393E+02  0.41330392274E+01 -0.36485502980E+01  0.31886045957E+02  0.00000000000E+00 0. -1.
         11    1    3    3    0    0  0.92678792913E-01  0.57836337847E+01 -0.59545551099E+01  0.83015502126E+01  0.51100000000E-03 0. -1.
        -11    1    3    3    0    0 -0.20977422434E+02 -0.23834080880E+00  0.23194894181E+02  0.31274784966E+02  0.51100000000E-03 0.  1.
        -12    1    3    3    0    0 -0.10521083752E+02 -0.96783322034E+01 -0.13591788773E+02  0.19725618865E+02  0.00000000000E+00 0.  1.
</event>
<event>
 7    1  0.7579108E-012  0.5930194E+02  0.7816164E-02  0.1266605E+00
        -11   -1    0    0    0    0  0.00000000000E+00  0.00000000000E+00  0.45593999997E+02  0.45594000000E+02  0.51100000000E-03 0. -1.
         11   -1    0    0    0    0 -0.00000000000E+00 -0.00000000000E+00 -0.45593999997E+02  0.45594000000E+02  0.51100000000E-03 0.  1.
    9900012    2    1    2    0    0  0.27060474814E+02 -0.95075543615E+00 -0.16838866582E+02  0.59301942532E+02  0.49999997273E+02 0.  0.
         12    1    1    2    0    0 -0.27060474814E+02  0.95075543615E+00  0.16838866582E+02  0.31886057468E+02  0.00000000000E+00 0. -1.
         11    1    3    3    0    0  0.13008227131E+01 -0.17463589226E+02 -0.24584234595E+01  0.17683691203E+02  0.51100000000E-03 0. -1.
        -11    1    3    3    0    0  0.25829339493E+02  0.76149798381E+01 -0.28868106473E+01  0.27082768924E+02  0.51100000000E-03 0.  1.
        -12    1    3    3    0    0 -0.69687392292E-01  0.88978539521E+01 -0.11493632475E+02  0.14535482406E+02  0.00000000000E+00 0.  1.
</event>
<event>
 7    1  0.7579108E-012  0.5930195E+02  0.7816164E-02  0.1266605E+00
        -11   -1    0    0    0    0  0.00000000000E+00  0.00000000000E+00  0.45593999997E+02  0.45594000000E+02  0.51100000000E-03 0. -1.
         11   -1    0    0    0    0 -0.00000000000E+00 -0.00000000000E+00 -0.45593999997E+02  0.45594000000E+02  0.51100000000E-03 0.  1.
    9900012    2    1    2    0    0 -0.76800304382E+01  0.23131062748E+01 -0.30860762240E+02  0.59301953299E+02  0.50000016909E+02 0.  0.
         12    1    1    2    0    0  0.76800304382E+01 -0.23131062748E+01  0.30860762240E+02  0.31886046701E+02  0.00000000000E+00 0. -1.
         11    1    3    3    0    0 -0.44718957075E+00  0.13248889376E+02  0.55574268801E+01  0.14374214483E+02  0.51100000000E-03 0. -1.
        -11    1    3    3    0    0 -0.11167029276E+02  0.21612845932E+01 -0.23536596733E+02  0.26140869916E+02  0.51100000000E-03 0.  1.
         12    1    3    3    0    0  0.39341884086E+01 -0.13097067695E+02 -0.12881592388E+02  0.18786868900E+02  0.00000000000E+00 0. -1.
</event>
<event>
 7    1  0.7579108E-012  0.5930194E+02  0.7816164E-02  0.1266605E+00
        -11   -1    0    0    0    0  0.00000000000E+00  0.00000000000E+00  0.45593999997E+02  0.45594000000E+02  0.51100000000E-03 0.  1.
         11   -1    0    0    0    0 -0.00000000000E+00 -0.00000000000E+00 -0.45593999997E+02  0.45594000000E+02  0.51100000000E-03 0. -1.
    9900012    2    1    2    0    0 -0.31168818917E+02 -0.34454063885E+01 -0.57753467818E+01  0.59301941474E+02  0.49999995342E+02 0.  0.
         12    1    1    2    0    0  0.31168818917E+02  0.34454063885E+01  0.57753467818E+01  0.31886058526E+02  0.00000000000E+00 0. -1.
         11    1    3    3    0    0 -0.25154147531E+02 -0.15630318358E+01 -0.22915786207E+02  0.34063286163E+02  0.51100000000E-03 0. -1.
        -11    1    3    3    0    0  0.38705431161E+01 -0.61568989929E+01  0.98065327349E+01  0.12208873567E+02  0.51100000000E-03 0.  1.
         12    1    3    3    0    0 -0.98852145030E+01  0.42745244403E+01  0.73339066899E+01  0.13029781744E+02  0.00000000000E+00 0. -1.
</event>
<event>
 7    1  0.7579108E-012  0.5930195E+02  0.7816164E-02  0.1266605E+00
        -11   -1    0    0    0    0  0.00000000000E+00  0.00000000000E+00  0.45593999997E+02  0.45594000000E+02  0.51100000000E-03 0.  1.
         11   -1    0    0    0    0 -0.00000000000E+00 -0.00000000000E+00 -0.45593999997E+02  0.45594000000E+02  0.51100000000E-03 0. -1.
    9900012    2    1    2    0    0  0.31342361813E+02  0.41050127896E+01  0.41863681395E+01  0.59301945804E+02  0.50000003239E+02 0.  0.
         12    1    1    2    0    0 -0.31342361813E+02 -0.41050127896E+01 -0.41863681395E+01  0.31886054196E+02  0.00000000000E+00 0. -1.
         11    1    3    3    0    0  0.15864124140E+02  0.13950146527E+02  0.11480512148E+02  0.24043277279E+02  0.51100000000E-03 0. -1.
        -11    1    3    3    0    0  0.18536502864E+02 -0.17169510174E+02 -0.12774290899E+01  0.25298732050E+02  0.51100000000E-03 0.  1.
         12    1    3    3    0    0 -0.30582651909E+01  0.73243764367E+01 -0.60167149189E+01  0.99599364747E+01  0.00000000000E+00 0. -1.
</event>
<event>
 7    1  0.7579108E-012  0.5930194E+02  0.7816164E-02  0.1266605E+00
        -11   -1    0    0    0    0  0.00000000000E+00  0.00000000000E+00  0.45593999997E+02  0.45594000000E+02  0.51100000000E-03 0.  1.
         11   -1    0    0    0    0 -0.00000000000E+00 -0.00000000000E+00 -0.45593999997E+02  0.45594000000E+02  0.51100000000E-03 0. -1.
    9900012    2    1    2    0    0 -0.16570082960E+01 -0.96789336821E+01  0.30336341936E+02  0.59301936026E+02  0.49999985406E+02 0.  0.
         12    1    1    2    0    0  0.16570082960E+01  0.96789336821E+01 -0.30336341936E+02  0.31886063974E+02  0.00000000000E+00 0. -1.
         11    1    3    3    0    0  0.14729772723E+02 -0.35864201537E+01 -0.21773493500E+01  0.15315660757E+02  0.51100000000E-03 0.  1.
        -11    1    3    3    0    0 -0.15919238300E+02  0.35855603086E+01  0.91851115333E+01  0.18725508402E+02  0.51100000000E-03 0. -1.
        -12    1    3    3    0    0 -0.46754271870E+00 -0.96780738370E+01  0.23328579753E+02  0.25260766866E+02  0.00000000000E+00 0.  1.
</event>
<event>
 7    1  0.7579108E-012  0.5930194E+02  0.7816164E-02  0.1266605E+00
        -11   -1    0    0    0    0  0.00000000000E+00  0.00000000000E+00  0.45593999997E+02  0.45594000000E+02  0.51100000000E-03 0.  1.
         11   -1    0    0    0    0 -0.00000000000E+00 -0.00000000000E+00 -0.45593999997E+02  0.45594000000E+02  0.51100000000E-03 0. -1.
    9900012    2    1    2    0    0 -0.10460993388E+02 -0.29154790500E+02 -0.75688101931E+01  0.59301935967E+02  0.49999985299E+02 0.  0.
         12    1    1    2    0    0  0.10460993388E+02  0.29154790500E+02  0.75688101931E+01  0.31886064033E+02  0.00000000000E+00 0. -1.
         11    1    3    3    0    0 -0.22657085182E+02 -0.27562679499E+01 -0.85142998967E+01  0.24360497223E+02  0.51100000000E-03 0. -1.
        -11    1    3    3    0    0  0.17281003761E+02 -0.19903452422E+02 -0.13056487854E+01  0.26391006580E+02  0.51100000000E-03 0.  1.
        -12    1    3    3    0    0 -0.50849119671E+01 -0.64950701287E+01  0.22511384890E+01  0.85504321638E+01  0.00000000000E+00 0.  1.
</event>
<event>
 7    1  0.7579108E-012  0.5930196E+02  0.7816164E-02  0.1266605E+00
        -11   -1    0    0    0    0  0.00000000000E+00  0.00000000000E+00  0.45593999997E+02  0.45594000000E+02  0.51100000000E-03 0.  1.
         11   -1    0    0    0    0 -0.00000000000E+00 -0.00000000000E+00 -0.45593999997E+02  0.45594000000E+02  0.51100000000E-03 0. -1.
    9900012    2    1    2    0    0 -0.88069275746E+01  0.14939761099E+02  0.26757447566E+02  0.59301961751E+02  0.50000032322E+02 0.  0.
         12    1    1    2    0    0  0.88069275746E+01 -0.14939761099E+02 -0.26757447566E+02  0.31886038249E+02  0.00000000000E+00 0. -1.
         11    1    3    3    0    0 -0.34887322292E+01 -0.16978059271E+02  0.15554832932E+02  0.23289022671E+02  0.51100000000E-03 0. -1.
        -11    1    3    3    0    0 -0.45094556849E+01  0.88370792585E+01  0.79017663483E+01  0.12683338365E+02  0.51100000000E-03 0.  1.
         12    1    3    3    0    0 -0.80873966052E+00  0.23080741112E+02  0.33008482852E+01  0.23329600715E+02  0.00000000000E+00 0. -1.
</event>
<event>
 7    1  0.7579108E-012  0.5930194E+02  0.7816164E-02  0.1266605E+00
        -11   -1    0    0    0    0  0.00000000000E+00  0.00000000000E+00  0.45593999997E+02  0.45594000000E+02  0.51100000000E-03 0.  1.
         11   -1    0    0    0    0 -0.00000000000E+00 -0.00000000000E+00 -0.45593999997E+02  0.45594000000E+02  0.51100000000E-03 0. -1.
    9900012    2    1    2    0    0  0.22354764454E+02  0.21452292906E+02  0.75355449896E+01  0.59301940303E+02  0.49999993207E+02 0.  0.
         12    1    1    2    0    0 -0.22354764454E+02 -0.21452292906E+02 -0.75355449896E+01  0.31886059697E+02  0.00000000000E+00 0. -1.
         11    1    3    3    0    0 -0.95112338745E+01  0.23040560662E+00 -0.23754797501E+01  0.98060981467E+01  0.51100000000E-03 0. -1.
        -11    1    3    3    0    0  0.89564726940E+01  0.20490773341E+02  0.13755328187E+02  0.26254509118E+02  0.51100000000E-03 0.  1.
         12    1    3    3    0    0  0.22909525634E+02  0.73111395821E+00 -0.38443034471E+01  0.23241333038E+02  0.00000000000E+00 0. -1.
</event>
<event>
 7    1  0.7579108E-012  0.5930193E+02  0.7816164E-02  0.1266605E+00
        -11   -1    0    0    0    0  0.00000000000E+00  0.00000000000E+00  0.45593999997E+02  0.45594000000E+02  0.51100000000E-03 0. -1.
         11   -1    0    0    0    0 -0.00000000000E+00 -0.00000000000E+00 -0.45593999997E+02  0.45594000000E+02  0.51100000000E-03 0.  1.
    9900012    2    1    2    0    0 -0.30951957070E+02  0.72819465013E+01 -0.23813770744E+01  0.59301931756E+02  0.49999977619E+02 0.  0.
         12    1    1    2    0    0  0.30951957070E+02 -0.72819465013E+01  0.23813770744E+01  0.31886068244E+02  0.00000000000E+00 0. -1.
         11    1    3    3    0    0 -0.10794874772E+02 -0.72293848388E+00  0.15375041696E+02  0.18800102894E+02  0.51100000000E-03 0. -1.
        -11    1    3    3    0    0 -0.21016934837E+02 -0.33344854709E+01 -0.19660253756E+02  0.28971639949E+02  0.51100000000E-03 0.  1.
        -12    1    3    3    0    0  0.85985253928E+00  0.11339370456E+02  0.19038349850E+01  0.11530188913E+02  0.00000000000E+00 0.  1.
</event>
<event>
 7    1  0.7579108E-012  0.5930169E+02  0.7816164E-02  0.1266606E+00
        -11   -1    0    0    0    0  0.00000000000E+00  0.00000000000E+00  0.45593999997E+02  0.45594000000E+02  0.51100000000E-03 0.  1.
         11   -1    0    0    0    0 -0.00000000000E+00 -0.00000000000E+00 -0.45593999997E+02  0.45594000000E+02  0.51100000000E-03 0. -1.
    9900012    2    1    2    0    0  0.30193427161E+02  0.10167577368E+01  0.10200966516E+02  0.59301693254E+02  0.49999542647E+02 0.  0.
         12    1    1    2    0    0 -0.30193427161E+02 -0.10167577368E+01 -0.10200966516E+02  0.31886306746E+02  0.00000000000E+00 0. -1.
         11    1    3    3    0    0 -0.77424097628E+01  0.37595402456E+01  0.15531985029E+02  0.17757297401E+02  0.51100000000E-03 0.  1.
        -11    1    3    3    0    0  0.18269596221E+02  0.49852282907E+01 -0.73590610414E+01  0.20317146130E+02  0.51100000000E-03 0. -1.
        -12    1    3    3    0    0  0.19666240703E+02 -0.77280107995E+01  0.20280425280E+01  0.21227249723E+02  0.00000000000E+00 0.  1.
</event>
<event>
 7    1  0.7579108E-012  0.5930195E+02  0.7816164E-02  0.1266605E+00
        -11   -1    0    0    0    0  0.00000000000E+00  0.00000000000E+00  0.45593999997E+02  0.45594000000E+02  0.51100000000E-03 0. -1.
         11   -1    0    0    0    0 -0.00000000000E+00 -0.00000000000E+00 -0.45593999997E+02  0.45594000000E+02  0.51100000000E-03 0.  1.
    9900012    2    1    2    0    0  0.26005447577E+02 -0.11459046446E+01 -0.18415320113E+02  0.59301946372E+02  0.50000004275E+02 0.  0.
         12    1    1    2    0    0 -0.26005447577E+02  0.11459046446E+01  0.18415320113E+02  0.31886053628E+02  0.00000000000E+00 0. -1.
         11    1    3    3    0    0  0.64369825410E+01 -0.42134720757E+01 -0.20158698739E+01  0.79531014564E+01  0.51100000000E-03 0. -1.
        -11    1    3    3    0    0  0.15923454255E+02  0.22028651179E+02 -0.19851501228E+01  0.27253599569E+02  0.51100000000E-03 0.  1.
        -12    1    3    3    0    0  0.36450107804E+01 -0.18961083748E+02 -0.14414300116E+02  0.24095245347E+02  0.00000000000E+00 0.  1.
</event>
<event>
 7    1  0.7579108E-012  0.5930195E+02  0.7816164E-02  0.1266605E+00
        -11   -1    0    0    0    0  0.00000000000E+00  0.00000000000E+00  0.45593999997E+02  0.45594000000E+02  0.51100000000E-03 0. -1.
         11   -1    0    0    0    0 -0.00000000000E+00 -0.00000000000E+00 -0.45593999997E+02  0.45594000000E+02  0.51100000000E-03 0.  1.
    9900012    2    1    2    0    0 -0.14057626517E+02  0.23369702653E+02 -0.16521512823E+02  0.59301948953E+02  0.50000008983E+02 0.  0.
         12    1    1    2    0    0  0.14057626517E+02 -0.23369702653E+02  0.16521512823E+02  0.31886051047E+02  0.00000000000E+00 0. -1.
         11    1    3    3    0    0 -0.21791426602E+02  0.18023252700E+02 -0.30307339689E+02  0.41451643520E+02  0.51100000000E-03 0. -1.
        -11    1    3    3    0    0  0.87488894380E+01  0.49853485765E+01  0.13263834814E+02  0.16653110252E+02  0.51100000000E-03 0.  1.
         12    1    3    3    0    0 -0.10150893533E+01  0.36110137634E+00  0.52199205212E+00  0.11971951811E+01  0.00000000000E+00 0. -1.
</event>
<event>
 7    1  0.7579108E-012  0.5930195E+02  0.7816164E-02  0.1266605E+00
        -11   -1    0    0    0    0  0.00000000000E+00  0.00000000000E+00  0.45593999997E+02  0.45594000000E+02  0.51100000000E-03 0.  1.
         11   -1    0    0    0    0 -0.00000000000E+00 -0.00000000000E+00 -0.45593999997E+02  0.45594000000E+02  0.51100000000E-03 0. -1.
    9900012    2    1    2    0    0  0.22373233607E+02  0.57612518326E+01  0.21976503686E+02  0.59301947893E+02  0.50000007049E+02 0.  0.
         12    1    1    2    0    0 -0.22373233607E+02 -0.57612518326E+01 -0.21976503686E+02  0.31886052107E+02  0.00000000000E+00 0. -1.
         11    1    3    3    0    0  0.41394514562E+00 -0.13158104151E+02  0.85503897041E+00  0.13192351850E+02  0.51100000000E-03 0. -1.
        -11    1    3    3    0    0  0.25838150145E+02  0.49285389209E+01  0.15564324479E+02  0.30563846216E+02  0.51100000000E-03 0.  1.
         12    1    3    3    0    0 -0.38788616837E+01  0.13990817063E+02  0.55571402372E+01  0.15545749826E+02  0.00000000000E+00 0. -1.
</event>
<event>
 7    1  0.7579108E-012  0.5930193E+02  0.7816164E-02  0.1266605E+00
        -11   -1    0    0    0    0  0.00000000000E+00  0.00000000000E+00  0.45593999997E+02  0.45594000000E+02  0.51100000000E-03 0.  1.
         11   -1    0    0    0    0 -0.00000000000E+00 -0.00000000000E+00 -0.45593999997E+02  0.45594000000E+02  0.51100000000E-03 0. -1.
    9900012    2    1    2    0    0  0.31856056574E+01  0.48982368985E+01  0.31346143151E+02  0.59301929396E+02  0.49999973315E+02 0.  0.
         12    1    1    2    0    0 -0.31856056574E+01 -0.48982368985E+01 -0.31346143151E+02  0.31886070604E+02  0.00000000000E+00 0. -1.
         11    1    3    3    0    0 -0.95357671313E+01  0.21855264554E+02  0.19236660369E+02  0.30637110600E+02  0.51100000000E-03 0. -1.
        -11    1    3    3    0    0  0.91539821433E+01 -0.58995148875E+01  0.13062910261E+02  0.17007036477E+02  0.51100000000E-03 0.  1.
         12    1    3    3    0    0  0.35673906455E+01 -0.11057512768E+02 -0.95342747918E+00  0.11657782319E+02  0.00000000000E+00 0. -1.
</event>
<event>
 7    1  0.7579108E-012  0.5930194E+02  0.7816164E-02  0.1266605E+00
        -11   -1    0    0    0    0  0.00000000000E+00  0.00000000000E+00  0.45593999997E+02  0.45594000000E+02  0.51100000000E-03 0.  1.
         11   -1    0    0    0    0 -0.00000000000E+00 -0.00000000000E+00 -0.45593999997E+02  0.45594000000E+02  0.51100000000E-03 0. -1.
    9900012    2    1    2    0    0 -0.24530443969E+02 -0.20188487128E+02  0.27208679563E+01  0.59301940095E+02  0.49999992827E+02 0.  0.
         12    1    1    2    0    0  0.24530443969E+02  0.20188487128E+02 -0.27208679563E+01  0.31886059905E+02  0.00000000000E+00 0. -1.
         11    1    3    3    0    0  0.37252138232E+01 -0.38660714500E+01  0.11360321946E+01  0.54876493960E+01  0.51100000000E-03 0. -1.
        -11    1    3    3    0    0 -0.20162024667E+02  0.19120758622E+01 -0.17080858572E+02  0.26493754030E+02  0.51100000000E-03 0.  1.
        -12    1    3    3    0    0 -0.80936331254E+01 -0.18234491541E+02  0.18665694334E+02  0.27320536669E+02  0.00000000000E+00 0.  1.
</event>
<event>
 7    1  0.7579108E-012  0.5930199E+02  0.7816164E-02  0.1266605E+00
        -11   -1    0    0    0    0  0.00000000000E+00  0.00000000000E+00  0.45593999997E+02  0.45594000000E+02  0.51100000000E-03 0.  1.
         11   -1    0    0    0    0 -0.00000000000E+00 -0.00000000000E+00 -0.45593999997E+02  0.45594000000E+02  0.51100000000E-03 0. -1.
    9900012    2    1    2    0    0  0.82533237671E+01  0.24025020034E+02  0.19271706030E+02  0.59301990621E+02  0.50000084974E+02 0.  0.
         12    1    1    2    0    0 -0.82533237671E+01 -0.24025020034E+02 -0.19271706030E+02  0.31886009379E+02  0.00000000000E+00 0. -1.
         11    1    3    3    0    0 -0.10122460271E+02  0.21904646420E+02  0.94462643684E+01  0.25913503188E+02  0.51100000000E-03 0. -1.
        -11    1    3    3    0    0 -0.20785639749E+00 -0.92878804231E+01 -0.41120367644E+00  0.92993018964E+01  0.51100000000E-03 0.  1.
        -12    1    3    3    0    0  0.18583640435E+02  0.11408254037E+02  0.10236645338E+02  0.24089185536E+02  0.00000000000E+00 0.  1.
</event>
<event>
 7    1  0.7579108E-012  0.5930194E+02  0.7816164E-02  0.1266605E+00
        -11   -1    0    0    0    0  0.00000000000E+00  0.00000000000E+00  0.45593999997E+02  0.45594000000E+02  0.51100000000E-03 0. -1.
         11   -1    0    0    0    0 -0.00000000000E+00 -0.00000000000E+00 -0.45593999997E+02  0.45594000000E+02  0.51100000000E-03 0.  1.
    9900012    2    1    2    0    0 -0.21234579268E+02 -0.20934048329E+02  0.11295091472E+02  0.59301939919E+02  0.49999992506E+02 0.  0.
         12    1    1    2    0    0  0.21234579268E+02  0.20934048329E+02 -0.11295091472E+02  0.31886060081E+02  0.00000000000E+00 0. -1.
         11    1    3    3    0    0 -0.23414190132E+02 -0.89147092288E+01  0.11877783160E+02  0.27726847517E+02  0.51100000000E-03 0. -1.
        -11    1    3    3    0    0  0.14912244255E+02 -0.10463515245E+02  0.24858003556E+01  0.18385847375E+02  0.51100000000E-03 0.  1.
        -12    1    3    3    0    0 -0.12732633392E+02 -0.15558238546E+01 -0.30684920434E+01  0.13189245027E+02  0.00000000000E+00 0.  1.
</event>
<event>
 7    1  0.7579108E-012  0.5930184E+02  0.7816164E-02  0.1266605E+00
        -11   -1    0    0    0    0  0.00000000000E+00  0.00000000000E+00  0.45593999997E+02  0.45594000000E+02  0.51100000000E-03 0.  1.
         11   -1    0    0    0    0 -0.00000000000E+00 -0.00000000000E+00 -0.45593999997E+02  0.45594000000E+02  0.51100000000E-03 0. -1.
    9900012    2    1    2    0    0  0.47131974995E+01 -0.31129524820E+02  0.50463574320E+01  0.59301838903E+02  0.49999808278E+02 0.  0.
         12    1    1    2    0    0 -0.47131974995E+01  0.31129524820E+02 -0.50463574320E+01  0.31886161097E+02  0.00000000000E+00 0. -1.
         11    1    3    3    0    0 -0.16109741407E+01 -0.49623036462E+01 -0.14803457658E+02  0.15695924759E+02  0.51100000000E-03 0. -1.
        -11    1    3    3    0    0  0.15457750529E+02 -0.23813746964E+02  0.18943554435E+02  0.34130555969E+02  0.51100000000E-03 0.  1.
        -12    1    3    3    0    0 -0.91335788887E+01 -0.23534742094E+01  0.90626065463E+00  0.94753581750E+01  0.00000000000E+00 0.  1.
</event>
<event>
 7    1  0.7579108E-012  0.5930199E+02  0.7816164E-02  0.1266605E+00
        -11   -1    0    0    0    0  0.00000000000E+00  0.00000000000E+00  0.45593999997E+02  0.45594000000E+02  0.51100000000E-03 0.  1.
         11   -1    0    0    0    0 -0.00000000000E+00 -0.00000000000E+00 -0.45593999997E+02  0.45594000000E+02  0.51100000000E-03 0. -1.
    9900012    2    1    2    0    0  0.16985865531E+02  0.23440813147E+02  0.13368859557E+02  0.59301988103E+02  0.50000080383E+02 0.  0.
         12    1    1    2    0    0 -0.16985865531E+02 -0.23440813147E+02 -0.13368859557E+02  0.31886011897E+02  0.00000000000E+00 0. -1.
         11    1    3    3    0    0  0.65017659893E+01 -0.89723638397E+01  0.16749584878E+02  0.20082949676E+02  0.51100000000E-03 0. -1.
        -11    1    3    3    0    0  0.25937863977E+01  0.30871672938E+02 -0.18539628571E+01  0.31035867901E+02  0.51100000000E-03 0.  1.
        -12    1    3    3    0    0  0.78903131437E+01  0.15415040488E+01 -0.15267624636E+01  0.81831705260E+01  0.00000000000E+00 0.  1.
</event>
<event>
 7    1  0.7579108E-012  0.5930193E+02  0.7816164E-02  0.1266605E+00
        -11   -1    0    0    0    0  0.00000000000E+00  0.00000000000E+00  0.45593999997E+02  0.45594000000E+02  0.51100000000E-03 0.  1.
         11   -1    0    0    0    0 -0.00000000000E+00 -0.00000000000E+00 -0.45593999997E+02  0.45594000000E+02  0.51100000000E-03 0. -1.
    9900012    2    1    2    0    0 -0.52343347171E+01  0.25047144965E+02  0.19025336048E+02  0.59301934978E+02  0.49999983496E+02 0.  0.
         12    1    1    2    0    0  0.52343347171E+01 -0.25047144965E+02 -0.19025336048E+02  0.31886065022E+02  0.00000000000E+00 0. -1.
         11    1    3    3    0    0 -0.59472376605E+01 -0.17771290660E+01 -0.37691330976E+01  0.72618309039E+01  0.51100000000E-03 0. -1.
        -11    1    3    3    0    0 -0.11456115550E+02  0.14179587422E+02  0.28286548097E+02  0.33651628288E+02  0.51100000000E-03 0.  1.
        -12    1    3    3    0    0  0.12169018493E+02  0.12644686609E+02 -0.54920789514E+01  0.18388475786E+02  0.00000000000E+00 0.  1.
</event>
<event>
 7    1  0.7579108E-012  0.5930192E+02  0.7816164E-02  0.1266605E+00
        -11   -1    0    0    0    0  0.00000000000E+00  0.00000000000E+00  0.45593999997E+02  0.45594000000E+02  0.51100000000E-03 0. -1.
         11   -1    0    0    0    0 -0.00000000000E+00 -0.00000000000E+00 -0.45593999997E+02  0.45594000000E+02  0.51100000000E-03 0.  1.
    9900012    2    1    2    0    0  0.80366193825E+01 -0.93586098752E+01 -0.29403251238E+02  0.59301921325E+02  0.49999958596E+02 0.  0.
         12    1    1    2    0    0 -0.80366193825E+01  0.93586098752E+01  0.29403251238E+02  0.31886078675E+02  0.00000000000E+00 0. -1.
         11    1    3    3    0    0  0.19464311348E+02 -0.10894290789E+02  0.43269209915E+01  0.22721514773E+02  0.51100000000E-03 0. -1.
        -11    1    3    3    0    0 -0.67891217268E+01  0.21163038556E+01 -0.93016521754E+01  0.11708614320E+02  0.51100000000E-03 0.  1.
         12    1    3    3    0    0 -0.46385702389E+01 -0.58062294200E+00 -0.24428520054E+02  0.24871792233E+02  0.00000000000E+00 0. -1.
</event>
<event>
 7    1  0.7579108E-012  0.5930198E+02  0.7816164E-02  0.1266605E+00
        -11   -1    0    0    0    0  0.00000000000E+00  0.00000000000E+00  0.45593999997E+02  0.45594000000E+02  0.51100000000E-03 0.  1.
         11   -1    0    0    0    0 -0.00000000000E+00 -0.00000000000E+00 -0.45593999997E+02  0.45594000000E+02  0.51100000000E-03 0. -1.
    9900012    2    1    2    0    0 -0.15729657265E+02 -0.21529546033E+02  0.17486419196E+02  0.59301979138E+02  0.50000064034E+02 0.  0.
         12    1    1    2    0    0  0.15729657265E+02  0.21529546033E+02 -0.17486419196E+02  0.31886020862E+02  0.00000000000E+00 0. -1.
         11    1    3    3    0    0 -0.18454509352E+02 -0.12927503087E+02  0.25437659657E+02  0.33981815440E+02  0.51100000000E-03 0.  1.
        -11    1    3    3    0    0  0.67615138144E+01 -0.11204752822E+02 -0.12933731019E+02  0.18399618289E+02  0.51100000000E-03 0. -1.
        -12    1    3    3    0    0 -0.40366617280E+01  0.26027098761E+01  0.49824905582E+01  0.69205454097E+01  0.00000000000E+00 0.  1.
</event>
<event>
 7    1  0.7579108E-012  0.5930192E+02  0.7816164E-02  0.1266605E+00
        -11   -1    0    0    0    0  0.00000000000E+00  0.00000000000E+00  0.45593999997E+02  0.45594000000E+02  0.51100000000E-03 0.  1.
         11   -1    0    0    0    0 -0.00000000000E+00 -0.00000000000E+00 -0.45593999997E+02  0.45594000000E+02  0.51100000000E-03 0. -1.
    9900012    2    1    2    0    0 -0.19483190338E+02 -0.67924763290E+01  0.24310283543E+02  0.59301916415E+02  0.49999949642E+02 0.  0.
         12    1    1    2    0    0  0.19483190338E+02  0.67924763290E+01 -0.24310283543E+02  0.31886083585E+02  0.00000000000E+00 0. -1.
         11    1    3    3    0    0  0.19141590475E+01  0.10960181672E+02 -0.51653655809E+01  0.12266645384E+02  0.51100000000E-03 0. -1.
        -11    1    3    3    0    0 -0.20209454987E+02 -0.21577049040E+02  0.17379404514E+02  0.34293364047E+02  0.51100000000E-03 0.  1.
        -12    1    3    3    0    0 -0.11878943979E+01  0.38243910389E+01  0.12096244610E+02  0.12741906984E+02  0.00000000000E+00 0.  1.
</event>
<event>
 7    1  0.7579108E-012  0.5930212E+02  0.7816164E-02  0.1266604E+00
        -11   -1    0    0    0    0  0.00000000000E+00  0.00000000000E+00  0.45593999997E+02  0.45594000000E+02  0.51100000000E-03 0.  1.
         11   -1    0    0    0    0 -0.00000000000E+00 -0.00000000000E+00 -0.45593999997E+02  0.45594000000E+02  0.51100000000E-03 0. -1.
    9900012    2    1    2    0    0 -0.11741241189E+02 -0.29505944251E+02  0.28725668473E+01  0.59302123329E+02  0.50000327001E+02 0.  0.
         12    1    1    2    0    0  0.11741241189E+02  0.29505944251E+02 -0.28725668473E+01  0.31885876671E+02  0.00000000000E+00 0. -1.
         11    1    3    3    0    0  0.11250887625E+02 -0.10135824362E+02 -0.60474916454E+01  0.16306120424E+02  0.51100000000E-03 0. -1.
        -11    1    3    3    0    0 -0.57055999956E+01  0.50649260069E+01  0.10550632525E+02  0.13020107285E+02  0.51100000000E-03 0.  1.
        -12    1    3    3    0    0 -0.17286528817E+02 -0.24435045897E+02 -0.16305740322E+01  0.29975895620E+02  0.00000000000E+00 0.  1.
</event>
<event>
 7    1  0.7579108E-012  0.5930196E+02  0.7816164E-02  0.1266605E+00
        -11   -1    0    0    0    0  0.00000000000E+00  0.00000000000E+00  0.45593999997E+02  0.45594000000E+02  0.51100000000E-03 0.  1.
         11   -1    0    0    0    0 -0.00000000000E+00 -0.00000000000E+00 -0.45593999997E+02  0.45594000000E+02  0.51100000000E-03 0. -1.
    9900012    2    1    2    0    0 -0.31254094155E+02 -0.60679561980E+01  0.17552742557E+01  0.59301961023E+02  0.50000030996E+02 0.  0.
         12    1    1    2    0    0  0.31254094155E+02  0.60679561980E+01 -0.17552742557E+01  0.31886038977E+02  0.00000000000E+00 0. -1.
         11    1    3    3    0    0 -0.22538762030E+02  0.11030675681E+02 -0.15120507600E+02  0.29296780543E+02  0.51100000000E-03 0. -1.
        -11    1    3    3    0    0 -0.13144773736E+02 -0.10452961729E+02  0.12105343456E+02  0.20702386962E+02  0.51100000000E-03 0.  1.
         12    1    3    3    0    0  0.44294416106E+01 -0.66456701508E+01  0.47704383991E+01  0.93027935188E+01  0.00000000000E+00 0. -1.
</event>
<event>
 7    1  0.7579108E-012  0.5930196E+02  0.7816164E-02  0.1266605E+00
        -11   -1    0    0    0    0  0.00000000000E+00  0.00000000000E+00  0.45593999997E+02  0.45594000000E+02  0.51100000000E-03 0. -1.
         11   -1    0    0    0    0 -0.00000000000E+00 -0.00000000000E+00 -0.45593999997E+02  0.45594000000E+02  0.51100000000E-03 0.  1.
    9900012    2    1    2    0    0 -0.24934610615E+01  0.14096092607E+02 -0.28492147203E+02  0.59301958742E+02  0.50000026836E+02 0.  0.
         12    1    1    2    0    0  0.24934610615E+01 -0.14096092607E+02  0.28492147203E+02  0.31886041258E+02  0.00000000000E+00 0. -1.
         11    1    3    3    0    0  0.88765566985E+01  0.11299514371E+01  0.11281825577E+02  0.14399640193E+02  0.51100000000E-03 0. -1.
        -11    1    3    3    0    0 -0.33390020076E+01  0.83611987902E+01 -0.88587527863E+01  0.12630759312E+02  0.51100000000E-03 0.  1.
         12    1    3    3    0    0 -0.80310157524E+01  0.46049423797E+01 -0.30915219994E+02  0.32271559237E+02  0.00000000000E+00 0. -1.
</event>
<event>
 7    1  0.7579108E-012  0.5930194E+02  0.7816164E-02  0.1266605E+00
        -11   -1    0    0    0    0  0.00000000000E+00  0.00000000000E+00  0.45593999997E+02  0.45594000000E+02  0.51100000000E-03 0. -1.
         11   -1    0    0    0    0 -0.00000000000E+00 -0.00000000000E+00 -0.45593999997E+02  0.45594000000E+02  0.51100000000E-03 0.  1.
    9900012    2    1    2    0    0  0.24685964830E+02  0.12998516783E+02 -0.15438998794E+02  0.59301937498E+02  0.49999988091E+02 0.  0.
         12    1    1    2    0    0 -0.24685964830E+02 -0.12998516783E+02  0.15438998794E+02  0.31886062502E+02  0.00000000000E+00 0. -1.
         11    1    3    3    0    0  0.79492835515E+01  0.52675991742E+01  0.43989387018E+01  0.10501874690E+02  0.51100000000E-03 0. -1.
        -11    1    3    3    0    0  0.73991747254E+01  0.21236571542E+02 -0.22901988208E+02  0.32097364715E+02  0.51100000000E-03 0.  1.
        -12    1    3    3    0    0  0.93375065529E+01 -0.13505653934E+02  0.30640507123E+01  0.16702698093E+02  0.00000000000E+00 0.  1.
</event>
<event>
 7    1  0.7579108E-012  0.5930195E+02  0.7816164E-02  0.1266605E+00
        -11   -1    0    0    0    0  0.00000000000E+00  0.00000000000E+00  0.45593999997E+02  0.45594000000E+02  0.51100000000E-03 0.  1.
         11   -1    0    0    0    0 -0.00000000000E+00 -0.00000000000E+00 -0.45593999997E+02  0.45594000000E+02  0.51100000000E-03 0. -1.
    9900012    2    1    2    0    0 -0.21476846910E+02 -0.70755246660E+01  0.22481149723E+02  0.59301951399E+02  0.50000013444E+02 0.  0.
         12    1    1    2    0    0  0.21476846910E+02  0.70755246660E+01 -0.22481149723E+02  0.31886048601E+02  0.00000000000E+00 0. -1.
         11    1    3    3    0    0 -0.16856379943E+01 -0.18187240842E+02 -0.24324760776E+01  0.18426449604E+02  0.51100000000E-03 0.  1.
        -11    1    3    3    0    0 -0.22560134509E+02  0.13624112463E+02  0.25959760469E+02  0.36993043580E+02  0.51100000000E-03 0. -1.
         12    1    3    3    0    0  0.27689255932E+01 -0.25123962873E+01 -0.10461346683E+01  0.38824582147E+01  0.00000000000E+00 0. -1.
</event>
<event>
 7    1  0.7579108E-012  0.5930194E+02  0.7816164E-02  0.1266605E+00
        -11   -1    0    0    0    0  0.00000000000E+00  0.00000000000E+00  0.45593999997E+02  0.45594000000E+02  0.51100000000E-03 0.  1.
         11   -1    0    0    0    0 -0.00000000000E+00 -0.00000000000E+00 -0.45593999997E+02  0.45594000000E+02  0.51100000000E-03 0. -1.
    9900012    2    1    2    0    0  0.24789212762E+02  0.89105686084E+01  0.17967129018E+02  0.59301936784E+02  0.49999986788E+02 0.  0.
         12    1    1    2    0    0 -0.24789212762E+02 -0.89105686084E+01 -0.17967129018E+02  0.31886063216E+02  0.00000000000E+00 0. -1.
         11    1    3    3    0    0 -0.13143697201E+02  0.63073902509E+01  0.44247694917E+01  0.15235436758E+02  0.51100000000E-03 0. -1.
        -11    1    3    3    0    0  0.23727650647E+02  0.12521267482E+01 -0.88152945623E+00  0.23777012451E+02  0.51100000000E-03 0.  1.
         12    1    3    3    0    0  0.14205259316E+02  0.13510516093E+01  0.14423888982E+02  0.20289487575E+02  0.00000000000E+00 0. -1.
</event>
<event>
 7    1  0.7579108E-012  0.5930191E+02  0.7816164E-02  0.1266605E+00
        -11   -1    0    0    0    0  0.00000000000E+00  0.00000000000E+00  0.45593999997E+02  0.45594000000E+02  0.51100000000E-03 0. -1.
         11   -1    0    0    0    0 -0.00000000000E+00 -0.00000000000E+00 -0.45593999997E+02  0.45594000000E+02  0.51100000000E-03 0.  1.
    9900012    2    1    2    0    0  0.14813722585E+01 -0.25972926075E+02 -0.18437344954E+02  0.59301905200E+02  0.49999929188E+02 0.  0.
         12    1    1    2    0    0 -0.14813722585E+01  0.25972926075E+02  0.18437344954E+02  0.31886094800E+02  0.00000000000E+00 0. -1.
         11    1    3    3    0    0  0.12655475159E+02 -0.86778759658E+01 -0.24922848852E+02  0.29267985547E+02  0.51100000000E-03 0. -1.
        -11    1    3    3    0    0 -0.12042149040E+02 -0.11761797842E+02 -0.47408358181E+01  0.17487960615E+02  0.51100000000E-03 0.  1.
         12    1    3    3    0    0  0.86804613889E+00 -0.55332522673E+01  0.11226339717E+02  0.12545959038E+02  0.00000000000E+00 0. -1.
</event>
<event>
 7    1  0.7579108E-012  0.5930194E+02  0.7816164E-02  0.1266605E+00
        -11   -1    0    0    0    0  0.00000000000E+00  0.00000000000E+00  0.45593999997E+02  0.45594000000E+02  0.51100000000E-03 0.  1.
         11   -1    0    0    0    0 -0.00000000000E+00 -0.00000000000E+00 -0.45593999997E+02  0.45594000000E+02  0.51100000000E-03 0. -1.
    9900012    2    1    2    0    0  0.20647267234E+02  0.96779996047E+01  0.22287835747E+02  0.59301938110E+02  0.49999989208E+02 0.  0.
         12    1    1    2    0    0 -0.20647267234E+02 -0.96779996047E+01 -0.22287835747E+02  0.31886061890E+02  0.00000000000E+00 0. -1.
         11    1    3    3    0    0 -0.90242151938E+01  0.14894359025E+02  0.11422515108E+02  0.20826719432E+02  0.51100000000E-03 0. -1.
        -11    1    3    3    0    0  0.13969206558E+02  0.82452319583E+01  0.44500585598E+01  0.16820392485E+02  0.51100000000E-03 0.  1.
         12    1    3    3    0    0  0.15702275870E+02 -0.13461591379E+02  0.64152620790E+01  0.21654826194E+02  0.00000000000E+00 0. -1.
</event>
<event>
 7    1  0.7579108E-012  0.5930194E+02  0.7816164E-02  0.1266605E+00
        -11   -1    0    0    0    0  0.00000000000E+00  0.00000000000E+00  0.45593999997E+02  0.45594000000E+02  0.51100000000E-03 0.  1.
         11   -1    0    0    0    0 -0.00000000000E+00 -0.00000000000E+00 -0.45593999997E+02  0.45594000000E+02  0.51100000000E-03 0. -1.
    9900012    2    1    2    0    0  0.18644381102E+02  0.24360918459E+02  0.86978973304E+01  0.59301941717E+02  0.49999995786E+02 0.  0.
         12    1    1    2    0    0 -0.18644381102E+02 -0.24360918459E+02 -0.86978973304E+01  0.31886058283E+02  0.00000000000E+00 0. -1.
         11    1    3    3    0    0 -0.26342126929E+01  0.17367886892E+01  0.12675633253E+02  0.13062434310E+02  0.51100000000E-03 0. -1.
        -11    1    3    3    0    0  0.14629154509E+02  0.30938679448E+02 -0.74817034571E+01  0.35031270809E+02  0.51100000000E-03 0.  1.
         12    1    3    3    0    0  0.66494392863E+01 -0.83145496779E+01  0.35039675340E+01  0.11208236598E+02  0.00000000000E+00 0. -1.
</event>
<event>
 7    1  0.7579108E-012  0.5930196E+02  0.7816164E-02  0.1266605E+00
        -11   -1    0    0    0    0  0.00000000000E+00  0.00000000000E+00  0.45593999997E+02  0.45594000000E+02  0.51100000000E-03 0. -1.
         11   -1    0    0    0    0 -0.00000000000E+00 -0.00000000000E+00 -0.45593999997E+02  0.45594000000E+02  0.51100000000E-03 0.  1.
    9900012    2    1    2    0    0  0.76797205775E+01 -0.28783980235E+02 -0.11367657771E+02  0.59301964350E+02  0.50000037062E+02 0.  0.
         12    1    1    2    0    0 -0.76797205775E+01  0.28783980235E+02  0.11367657771E+02  0.31886035650E+02  0.00000000000E+00 0. -1.
         11    1    3    3    0    0  0.22271894994E+01 -0.21242004278E+02  0.45689760948E+00  0.21363330136E+02  0.51100000000E-03 0. -1.
        -11    1    3    3    0    0  0.15313962880E+02  0.39863824588E+01 -0.15688968940E+02  0.22283456888E+02  0.51100000000E-03 0.  1.
        -12    1    3    3    0    0 -0.98614318022E+01 -0.11528358416E+02  0.38644135595E+01  0.15655177326E+02  0.00000000000E+00 0.  1.
</event>
<event>
 7    1  0.7579108E-012  0.5930193E+02  0.7816164E-02  0.1266605E+00
        -11   -1    0    0    0    0  0.00000000000E+00  0.00000000000E+00  0.45593999997E+02  0.45594000000E+02  0.51100000000E-03 0.  1.
         11   -1    0    0    0    0 -0.00000000000E+00 -0.00000000000E+00 -0.45593999997E+02  0.45594000000E+02  0.51100000000E-03 0. -1.
    9900012    2    1    2    0    0 -0.15160867615E+02  0.27883180540E+02 -0.30655869852E+01  0.59301929571E+02  0.49999973634E+02 0.  0.
         12    1    1    2    0    0  0.15160867615E+02 -0.27883180540E+02  0.30655869852E+01  0.31886070429E+02  0.00000000000E+00 0. -1.
         11    1    3    3    0    0 -0.37060410235E+01 -0.81820002247E+01 -0.46434572835E+01  0.10111457044E+02  0.51100000000E-03 0. -1.
        -11    1    3    3    0    0 -0.22071845501E+02  0.27523071770E+02  0.33950230052E+01  0.35443081482E+02  0.51100000000E-03 0.  1.
        -12    1    3    3    0    0  0.10617018909E+02  0.85421089944E+01 -0.18171527068E+01  0.13747391045E+02  0.00000000000E+00 0.  1.
</event>
<event>
 7    1  0.7579108E-012  0.5930195E+02  0.7816164E-02  0.1266605E+00
        -11   -1    0    0    0    0  0.00000000000E+00  0.00000000000E+00  0.45593999997E+02  0.45594000000E+02  0.51100000000E-03 0. -1.
         11   -1    0    0    0    0 -0.00000000000E+00 -0.00000000000E+00 -0.45593999997E+02  0.45594000000E+02  0.51100000000E-03 0.  1.
    9900012    2    1    2    0    0 -0.74950467552E+01 -0.10025226887E+02 -0.29326424082E+02  0.59301952119E+02  0.50000014757E+02 0.  0.
         12    1    1    2    0    0  0.74950467552E+01  0.10025226887E+02  0.29326424082E+02  0.31886047881E+02  0.00000000000E+00 0. -1.
         11    1    3    3    0    0 -0.96674457205E+01  0.70881862734E+01 -0.71976770649E+01  0.13982433508E+02  0.51100000000E-03 0. -1.
        -11    1    3    3    0    0 -0.20106748483E+01 -0.18734699070E+02  0.36165840201E+01  0.19186230553E+02  0.51100000000E-03 0.  1.
        -12    1    3    3    0    0  0.41830738136E+01  0.16212859099E+01 -0.25745331037E+02  0.26133288058E+02  0.00000000000E+00 0.  1.
</event>
<event>
 7    1  0.7579108E-012  0.5930194E+02  0.7816164E-02  0.1266605E+00
        -11   -1    0    0    0    0  0.00000000000E+00  0.00000000000E+00  0.45593999997E+02  0.45594000000E+02  0.51100000000E-03 0.  1.
         11   -1    0    0    0    0 -0.00000000000E+00 -0.00000000000E+00 -0.45593999997E+02  0.45594000000E+02  0.51100000000E-03 0. -1.
    9900012    2    1    2    0    0 -0.18010606799E+02 -0.18047666045E+02  0.19147331759E+02  0.59301944734E+02  0.50000001288E+02 0.  0.
         12    1    1    2    0    0  0.18010606799E+02  0.18047666045E+02 -0.19147331759E+02  0.31886055266E+02  0.00000000000E+00 0. -1.
         11    1    3    3    0    0  0.60500864765E+01 -0.27833567487E+01  0.24679151530E+02  0.25561908021E+02  0.51100000000E-03 0. -1.
        -11    1    3    3    0    0 -0.11436537519E+02 -0.15758815871E+02  0.10400422362E+01  0.19499137319E+02  0.51100000000E-03 0.  1.
         12    1    3    3    0    0 -0.12624155756E+02  0.49450657435E+00 -0.65718620074E+01  0.14240899394E+02  0.00000000000E+00 0. -1.
</event>
<event>
 7    1  0.7579108E-012  0.5930196E+02  0.7816164E-02  0.1266605E+00
        -11   -1    0    0    0    0  0.00000000000E+00  0.00000000000E+00  0.45593999997E+02  0.45594000000E+02  0.51100000000E-03 0.  1.
         11   -1    0    0    0    0 -0.00000000000E+00 -0.00000000000E+00 -0.45593999997E+02  0.45594000000E+02  0.51100000000E-03 0. -1.
    9900012    2    1    2    0    0  0.61565704726E+01  0.40781189384E+01  0.31019111586E+02  0.59301957636E+02  0.50000024818E+02 0.  0.
         12    1    1    2    0    0 -0.61565704726E+01 -0.40781189384E+01 -0.31019111586E+02  0.31886042364E+02  0.00000000000E+00 0. -1.
         11    1    3    3    0    0  0.61859545402E+01 -0.75911198626E+01 -0.36300978206E+00  0.97991280584E+01  0.51100000000E-03 0. -1.
        -11    1    3    3    0    0 -0.15342940831E+02  0.36846122222E+01  0.26794813318E+01  0.16005056108E+02  0.51100000000E-03 0.  1.
        -12    1    3    3    0    0  0.15313556763E+02  0.79846265787E+01  0.28702640036E+02  0.33497773469E+02  0.00000000000E+00 0.  1.
</event>
<event>
 7    1  0.7579108E-012  0.5930194E+02  0.7816164E-02  0.1266605E+00
        -11   -1    0    0    0    0  0.00000000000E+00  0.00000000000E+00  0.45593999997E+02  0.45594000000E+02  0.51100000000E-03 0. -1.
         11   -1    0    0    0    0 -0.00000000000E+00 -0.00000000000E+00 -0.45593999997E+02  0.45594000000E+02  0.51100000000E-03 0.  1.
    9900012    2    1    2    0    0 -0.18433083659E+02 -0.25900641818E+02 -0.24695591404E+01  0.59301944394E+02  0.50000000669E+02 0.  0.
         12    1    1    2    0    0  0.18433083659E+02  0.25900641818E+02  0.24695591404E+01  0.31886055606E+02  0.00000000000E+00 0. -1.
         11    1    3    3    0    0  0.82353379102E+01 -0.14241009561E+02 -0.12333198532E+02  0.20560518722E+02  0.51100000000E-03 0. -1.
        -11    1    3    3    0    0 -0.30128773935E+02 -0.73893903363E+01  0.11374514211E+02  0.33041272405E+02  0.51100000000E-03 0.  1.
        -12    1    3    3    0    0  0.34603523656E+01 -0.42702419202E+01 -0.15108748192E+01  0.57001532672E+01  0.00000000000E+00 0.  1.
</event>
<event>
 7    1  0.7579108E-012  0.5930196E+02  0.7816164E-02  0.1266605E+00
        -11   -1    0    0    0    0  0.00000000000E+00  0.00000000000E+00  0.45593999997E+02  0.45594000000E+02  0.51100000000E-03 0.  1.
         11   -1    0    0    0    0 -0.00000000000E+00 -0.00000000000E+00 -0.45593999997E+02  0.45594000000E+02  0.51100000000E-03 0. -1.
    9900012    2    1    2    0    0 -0.14235551403E+02  0.24649289265E+02  0.14369451479E+02  0.59301960409E+02  0.50000029875E+02 0.  0.
         12    1    1    2    0    0  0.14235551403E+02 -0.24649289265E+02 -0.14369451479E+02  0.31886039591E+02  0.00000000000E+00 0. -1.
         11    1    3    3    0    0 -0.82647904600E+00  0.19996804829E+02 -0.10844733041E+02  0.22763205090E+02  0.51100000000E-03 0. -1.
        -11    1    3    3    0    0 -0.10490351591E+02 -0.40320645794E+01  0.24959852060E+02  0.27373330751E+02  0.51100000000E-03 0.  1.
        -12    1    3    3    0    0 -0.29187207662E+01  0.86845490157E+01  0.25433245992E+00  0.91654245683E+01  0.00000000000E+00 0.  1.
</event>
<event>
 7    1  0.7579108E-012  0.5930195E+02  0.7816164E-02  0.1266605E+00
        -11   -1    0    0    0    0  0.00000000000E+00  0.00000000000E+00  0.45593999997E+02  0.45594000000E+02  0.51100000000E-03 0.  1.
         11   -1    0    0    0    0 -0.00000000000E+00 -0.00000000000E+00 -0.45593999997E+02  0.45594000000E+02  0.51100000000E-03 0. -1.
    9900012    2    1    2    0    0 -0.23025263476E+02  0.67107197776E+00  0.22047843514E+02  0.59301945065E+02  0.50000001891E+02 0.  0.
         12    1    1    2    0    0  0.23025263476E+02 -0.67107197776E+00 -0.22047843514E+02  0.31886054935E+02  0.00000000000E+00 0. -1.
         11    1    3    3    0    0 -0.40932236763E+01  0.44036584325E+01 -0.13090161270E+02  0.14404825927E+02  0.51100000000E-03 0. -1.
        -11    1    3    3    0    0 -0.11326700458E+02 -0.12142960233E+02  0.21200053864E+02  0.26929313222E+02  0.51100000000E-03 0.  1.
        -12    1    3    3    0    0 -0.76053393414E+01  0.84103737787E+01  0.13937950919E+02  0.17967805916E+02  0.00000000000E+00 0.  1.
</event>
<event>
 7    1  0.7579108E-012  0.5930199E+02  0.7816164E-02  0.1266605E+00
        -11   -1    0    0    0    0  0.00000000000E+00  0.00000000000E+00  0.45593999997E+02  0.45594000000E+02  0.51100000000E-03 0. -1.
         11   -1    0    0    0    0 -0.00000000000E+00 -0.00000000000E+00 -0.45593999997E+02  0.45594000000E+02  0.51100000000E-03 0.  1.
    9900012    2    1    2    0    0  0.79714178377E+01  0.30770505703E+02  0.25199463220E+01  0.59301989698E+02  0.50000083291E+02 0.  0.
         12    1    1    2    0    0 -0.79714178377E+01 -0.30770505703E+02 -0.25199463220E+01  0.31886010302E+02  0.00000000000E+00 0. -1.
         11    1    3    3    0    0 -0.13445948157E+01 -0.33249363533E+01  0.10077232822E+02  0.10696436723E+02  0.51100000000E-03 0. -1.
        -11    1    3    3    0    0  0.12009806660E+02  0.30315160664E+02 -0.17951228232E+02  0.37222184479E+02  0.51100000000E-03 0.  1.
        -12    1    3    3    0    0 -0.26937940070E+01  0.37802813918E+01  0.10393941732E+02  0.11383368495E+02  0.00000000000E+00 0.  1.
</event>
<event>
 7    1  0.7579108E-012  0.5930196E+02  0.7816164E-02  0.1266605E+00
        -11   -1    0    0    0    0  0.00000000000E+00  0.00000000000E+00  0.45593999997E+02  0.45594000000E+02  0.51100000000E-03 0.  1.
         11   -1    0    0    0    0 -0.00000000000E+00 -0.00000000000E+00 -0.45593999997E+02  0.45594000000E+02  0.51100000000E-03 0. -1.
    9900012    2    1    2    0    0 -0.13169726635E+01  0.31644152283E+02  0.36922911030E+01  0.59301955963E+02  0.50000021768E+02 0.  0.
         12    1    1    2    0    0  0.13169726635E+01 -0.31644152283E+02 -0.36922911030E+01  0.31886044037E+02  0.00000000000E+00 0. -1.
         11    1    3    3    0    0  0.75002293653E+01  0.14757335116E+02  0.23371009817E+02  0.28639770956E+02  0.51100000000E-03 0. -1.
        -11    1    3    3    0    0 -0.11550579528E+02  0.97598412655E+01 -0.16534810322E+02  0.22406926197E+02  0.51100000000E-03 0.  1.
        -12    1    3    3    0    0  0.27333774991E+01  0.71269759014E+01 -0.31439083921E+01  0.82552588106E+01  0.00000000000E+00 0.  1.
</event>
<event>
 7    1  0.7579108E-012  0.5930192E+02  0.7816164E-02  0.1266605E+00
        -11   -1    0    0    0    0  0.00000000000E+00  0.00000000000E+00  0.45593999997E+02  0.45594000000E+02  0.51100000000E-03 0.  1.
         11   -1    0    0    0    0 -0.00000000000E+00 -0.00000000000E+00 -0.45593999997E+02  0.45594000000E+02  0.51100000000E-03 0. -1.
    9900012    2    1    2    0    0  0.59408466367E+00 -0.20771724503E+02  0.24184800304E+02  0.59301920888E+02  0.49999957798E+02 0.  0.
         12    1    1    2    0    0 -0.59408466367E+00  0.20771724503E+02 -0.24184800304E+02  0.31886079112E+02  0.00000000000E+00 0. -1.
         11    1    3    3    0    0  0.21047393552E+02  0.30766800351E+01  0.12973742314E+02  0.24915391332E+02  0.51100000000E-03 0.  1.
        -11    1    3    3    0    0 -0.15300296842E+02 -0.18516672889E+02  0.12139969589E+02  0.26913660476E+02  0.51100000000E-03 0. -1.
        -12    1    3    3    0    0 -0.51530120462E+01 -0.53317316486E+01 -0.92891159825E+00  0.74728690794E+01  0.00000000000E+00 0.  1.
</event>
<event>
 7    1  0.7579108E-012  0.5930193E+02  0.7816164E-02  0.1266605E+00
        -11   -1    0    0    0    0  0.00000000000E+00  0.00000000000E+00  0.45593999997E+02  0.45594000000E+02  0.51100000000E-03 0. -1.
         11   -1    0    0    0    0 -0.00000000000E+00 -0.00000000000E+00 -0.45593999997E+02  0.45594000000E+02  0.51100000000E-03 0.  1.
    9900012    2    1    2    0    0 -0.96297970288E+01 -0.30310995641E+02 -0.22873718247E+01  0.59301929100E+02  0.49999972776E+02 0.  0.
         12    1    1    2    0    0  0.96297970288E+01  0.30310995641E+02  0.22873718247E+01  0.31886070900E+02  0.00000000000E+00 0. -1.
         11    1    3    3    0    0 -0.23307202624E+02  0.90862641421E+00 -0.12850531044E+01  0.23360279490E+02  0.51100000000E-03 0. -1.
        -11    1    3    3    0    0  0.12741996625E+02 -0.17305673397E+02  0.22920432158E+01  0.21612456410E+02  0.51100000000E-03 0.  1.
        -12    1    3    3    0    0  0.93540897004E+00 -0.13913948658E+02 -0.32943619362E+01  0.14329193200E+02  0.00000000000E+00 0.  1.
</event>
<event>
 7    1  0.7579108E-012  0.5930194E+02  0.7816164E-02  0.1266605E+00
        -11   -1    0    0    0    0  0.00000000000E+00  0.00000000000E+00  0.45593999997E+02  0.45594000000E+02  0.51100000000E-03 0.  1.
         11   -1    0    0    0    0 -0.00000000000E+00 -0.00000000000E+00 -0.45593999997E+02  0.45594000000E+02  0.51100000000E-03 0. -1.
    9900012    2    1    2    0    0  0.27929253026E+02 -0.15359639479E+02 -0.87115675430E+00  0.59301943273E+02  0.49999998623E+02 0.  0.
         12    1    1    2    0    0 -0.27929253026E+02  0.15359639479E+02  0.87115675430E+00  0.31886056727E+02  0.00000000000E+00 0. -1.
         11    1    3    3    0    0 -0.20811473672E+01  0.25790421816E+01 -0.75983689228E+01  0.82896226384E+01  0.51100000000E-03 0. -1.
        -11    1    3    3    0    0  0.28435252862E+02 -0.21240118614E+02 -0.75393554128E+01  0.36284268276E+02  0.51100000000E-03 0.  1.
        -12    1    3    3    0    0  0.15751475315E+01  0.33014369535E+01  0.14266567581E+02  0.14728052358E+02  0.00000000000E+00 0.  1.
</event>
<event>
 7    1  0.7579108E-012  0.5930191E+02  0.7816164E-02  0.1266605E+00
        -11   -1    0    0    0    0  0.00000000000E+00  0.00000000000E+00  0.45593999997E+02  0.45594000000E+02  0.51100000000E-03 0. -1.
         11   -1    0    0    0    0 -0.00000000000E+00 -0.00000000000E+00 -0.45593999997E+02  0.45594000000E+02  0.51100000000E-03 0.  1.
    9900012    2    1    2    0    0  0.42987757593E+00  0.28078592172E+02 -0.15103994185E+02  0.59301909405E+02  0.49999936856E+02 0.  0.
         12    1    1    2    0    0 -0.42987757593E+00 -0.28078592172E+02  0.15103994185E+02  0.31886090595E+02  0.00000000000E+00 0. -1.
         11    1    3    3    0    0  0.12206241575E+02 -0.52522258755E+01  0.11968530720E+01  0.13342063843E+02  0.51100000000E-03 0. -1.
        -11    1    3    3    0    0 -0.18001721505E+02  0.20335247507E+02 -0.49261756859E+01  0.27601657115E+02  0.51100000000E-03 0.  1.
         12    1    3    3    0    0  0.62253575054E+01  0.12995570540E+02 -0.11374671571E+02  0.18358188448E+02  0.00000000000E+00 0. -1.
</event>
<event>
 7    1  0.7579108E-012  0.5930193E+02  0.7816164E-02  0.1266605E+00
        -11   -1    0    0    0    0  0.00000000000E+00  0.00000000000E+00  0.45593999997E+02  0.45594000000E+02  0.51100000000E-03 0.  1.
         11   -1    0    0    0    0 -0.00000000000E+00 -0.00000000000E+00 -0.45593999997E+02  0.45594000000E+02  0.51100000000E-03 0. -1.
    9900012    2    1    2    0    0 -0.92533612008E+01  0.43062748779E+01  0.30208485029E+02  0.59301933065E+02  0.49999980006E+02 0.  0.
         12    1    1    2    0    0  0.92533612008E+01 -0.43062748779E+01 -0.30208485029E+02  0.31886066935E+02  0.00000000000E+00 0. -1.
         11    1    3    3    0    0  0.53624311676E+01  0.54965493082E+01 -0.12134930368E+02  0.14360510354E+02  0.51100000000E-03 0. -1.
        -11    1    3    3    0    0 -0.41872215840E+01 -0.19148472072E+01  0.13158065298E+02  0.13940378297E+02  0.51100000000E-03 0.  1.
         12    1    3    3    0    0 -0.10428570784E+02  0.72457277690E+00  0.29185350100E+02  0.31001044414E+02  0.00000000000E+00 0. -1.
</event>
<event>
 7    1  0.7579108E-012  0.5930195E+02  0.7816164E-02  0.1266605E+00
        -11   -1    0    0    0    0  0.00000000000E+00  0.00000000000E+00  0.45593999997E+02  0.45594000000E+02  0.51100000000E-03 0. -1.
         11   -1    0    0    0    0 -0.00000000000E+00 -0.00000000000E+00 -0.45593999997E+02  0.45594000000E+02  0.51100000000E-03 0.  1.
    9900012    2    1    2    0    0 -0.35205178992E+01 -0.14189838490E+01 -0.31659321669E+02  0.59301949602E+02  0.50000010165E+02 0.  0.
         12    1    1    2    0    0  0.35205178992E+01  0.14189838490E+01  0.31659321669E+02  0.31886050398E+02  0.00000000000E+00 0. -1.
         11    1    3    3    0    0  0.11821268172E+01 -0.29075280297E+01  0.11093097817E+02  0.11528571572E+02  0.51100000000E-03 0. -1.
        -11    1    3    3    0    0  0.62761768790E+01  0.65607145149E+01 -0.21141578482E+02  0.23008687754E+02  0.51100000000E-03 0.  1.
         12    1    3    3    0    0 -0.10978821595E+02 -0.50721703342E+01 -0.21610841004E+02  0.24764690275E+02  0.00000000000E+00 0. -1.
</event>
<event>
 7    1  0.7579108E-012  0.5930193E+02  0.7816164E-02  0.1266605E+00
        -11   -1    0    0    0    0  0.00000000000E+00  0.00000000000E+00  0.45593999997E+02  0.45594000000E+02  0.51100000000E-03 0.  1.
         11   -1    0    0    0    0 -0.00000000000E+00 -0.00000000000E+00 -0.45593999997E+02  0.45594000000E+02  0.51100000000E-03 0. -1.
    9900012    2    1    2    0    0 -0.23199766160E+02  0.20161332351E+02  0.84860481911E+01  0.59301929594E+02  0.49999973676E+02 0.  0.
         12    1    1    2    0    0  0.23199766160E+02 -0.20161332351E+02 -0.84860481911E+01  0.31886070406E+02  0.00000000000E+00 0. -1.
         11    1    3    3    0    0 -0.18313414970E+02  0.94271802053E+01 -0.94265945003E+01  0.22652010477E+02  0.51100000000E-03 0. -1.
        -11    1    3    3    0    0  0.11870124316E+01 -0.54623538959E+01  0.18516270899E+02  0.19341628599E+02  0.51100000000E-03 0.  1.
         12    1    3    3    0    0 -0.60733636210E+01  0.16196506042E+02 -0.60362820765E+00  0.17308290518E+02  0.00000000000E+00 0. -1.
</event>
<event>
 7    1  0.7579108E-012  0.5930191E+02  0.7816164E-02  0.1266605E+00
        -11   -1    0    0    0    0  0.00000000000E+00  0.00000000000E+00  0.45593999997E+02  0.45594000000E+02  0.51100000000E-03 0. -1.
         11   -1    0    0    0    0 -0.00000000000E+00 -0.00000000000E+00 -0.45593999997E+02  0.45594000000E+02  0.51100000000E-03 0.  1.
    9900012    2    1    2    0    0 -0.18570818821E+02  0.19697225256E+02  0.16848352232E+02  0.59301906363E+02  0.49999931309E+02 0.  0.
         12    1    1    2    0    0  0.18570818821E+02 -0.19697225256E+02 -0.16848352232E+02  0.31886093637E+02  0.00000000000E+00 0. -1.
         11    1    3    3    0    0 -0.16162666586E+01 -0.18103246675E+01  0.24738008344E+02  0.24856762670E+02  0.51100000000E-03 0. -1.
        -11    1    3    3    0    0 -0.20833854119E+02  0.14087629648E+02 -0.56176154545E+01  0.25769524446E+02  0.51100000000E-03 0.  1.
         12    1    3    3    0    0  0.38793019563E+01  0.74199202762E+01 -0.22720406577E+01  0.86756192472E+01  0.00000000000E+00 0. -1.
</event>
<event>
 7    1  0.7579108E-012  0.5930192E+02  0.7816164E-02  0.1266605E+00
        -11   -1    0    0    0    0  0.00000000000E+00  0.00000000000E+00  0.45593999997E+02  0.45594000000E+02  0.51100000000E-03 0.  1.
         11   -1    0    0    0    0 -0.00000000000E+00 -0.00000000000E+00 -0.45593999997E+02  0.45594000000E+02  0.51100000000E-03 0. -1.
    9900012    2    1    2    0    0 -0.46947139027E+01  0.18686636156E+02  0.25406525812E+02  0.59301917404E+02  0.49999951446E+02 0.  0.
         12    1    1    2    0    0  0.46947139027E+01 -0.18686636156E+02 -0.25406525812E+02  0.31886082596E+02  0.00000000000E+00 0. -1.
         11    1    3    3    0    0  0.17877638012E+02  0.71400079187E+01  0.59111042144E+01  0.20137795492E+02  0.51100000000E-03 0. -1.
        -11    1    3    3    0    0 -0.13253461718E+02  0.12190336028E+02  0.22979476373E+02  0.29194432254E+02  0.51100000000E-03 0.  1.
        -12    1    3    3    0    0 -0.93188901969E+01 -0.64370779129E+00 -0.34840547752E+01  0.99696896591E+01  0.00000000000E+00 0.  1.
</event>
<event>
 7    1  0.7579108E-012  0.5930196E+02  0.7816164E-02  0.1266605E+00
        -11   -1    0    0    0    0  0.00000000000E+00  0.00000000000E+00  0.45593999997E+02  0.45594000000E+02  0.51100000000E-03 0.  1.
         11   -1    0    0    0    0 -0.00000000000E+00 -0.00000000000E+00 -0.45593999997E+02  0.45594000000E+02  0.51100000000E-03 0. -1.
    9900012    2    1    2    0    0  0.19823337190E+02  0.13843991788E+02  0.20786985488E+02  0.59301959611E+02  0.50000028420E+02 0.  0.
         12    1    1    2    0    0 -0.19823337190E+02 -0.13843991788E+02 -0.20786985488E+02  0.31886040389E+02  0.00000000000E+00 0. -1.
         11    1    3    3    0    0  0.25062370715E+02  0.14527263953E+02  0.23447201158E+02  0.37268419154E+02  0.51100000000E-03 0. -1.
        -11    1    3    3    0    0 -0.91167122064E+01 -0.88949230126E+01 -0.78855716238E+00  0.12761501460E+02  0.51100000000E-03 0.  1.
        -12    1    3    3    0    0  0.38776786815E+01  0.82116508475E+01 -0.18716585072E+01  0.92720389972E+01  0.00000000000E+00 0.  1.
</event>
<event>
 7    1  0.7579108E-012  0.5930198E+02  0.7816164E-02  0.1266605E+00
        -11   -1    0    0    0    0  0.00000000000E+00  0.00000000000E+00  0.45593999997E+02  0.45594000000E+02  0.51100000000E-03 0.  1.
         11   -1    0    0    0    0 -0.00000000000E+00 -0.00000000000E+00 -0.45593999997E+02  0.45594000000E+02  0.51100000000E-03 0. -1.
    9900012    2    1    2    0    0 -0.25406952623E+01 -0.29547286981E+02  0.11714138979E+02  0.59301978731E+02  0.50000063291E+02 0.  0.
         12    1    1    2    0    0  0.25406952623E+01  0.29547286981E+02 -0.11714138979E+02  0.31886021269E+02  0.00000000000E+00 0. -1.
         11    1    3    3    0    0 -0.61962376539E+01  0.68981809013E+01 -0.13927236568E+01  0.93764567004E+01  0.51100000000E-03 0. -1.
        -11    1    3    3    0    0  0.76701884979E+01 -0.31697371486E+02 -0.29122733193E+01  0.32741968281E+02  0.51100000000E-03 0.  1.
        -12    1    3    3    0    0 -0.40146461064E+01 -0.47480963957E+01  0.16019135955E+02  0.17183553750E+02  0.00000000000E+00 0.  1.
</event>
<event>
 7    1  0.7579108E-012  0.5930195E+02  0.7816164E-02  0.1266605E+00
        -11   -1    0    0    0    0  0.00000000000E+00  0.00000000000E+00  0.45593999997E+02  0.45594000000E+02  0.51100000000E-03 0.  1.
         11   -1    0    0    0    0 -0.00000000000E+00 -0.00000000000E+00 -0.45593999997E+02  0.45594000000E+02  0.51100000000E-03 0. -1.
    9900012    2    1    2    0    0 -0.12179743956E+02 -0.24413504761E+01  0.29366880959E+02  0.59301952076E+02  0.50000014678E+02 0.  0.
         12    1    1    2    0    0  0.12179743956E+02  0.24413504761E+01 -0.29366880959E+02  0.31886047924E+02  0.00000000000E+00 0. -1.
         11    1    3    3    0    0  0.10339924160E+02  0.63524229241E+01 -0.56662423320E+01  0.13393043383E+02  0.51100000000E-03 0. -1.
        -11    1    3    3    0    0 -0.17957986195E+02 -0.30680940955E+01  0.33921702771E+02  0.38504342466E+02  0.51100000000E-03 0.  1.
        -12    1    3    3    0    0 -0.45616819200E+01 -0.57256793047E+01  0.11114205196E+01  0.74045662271E+01  0.00000000000E+00 0.  1.
</event>
<event>
 7    1  0.7579108E-012  0.5930196E+02  0.7816164E-02  0.1266605E+00
        -11   -1    0    0    0    0  0.00000000000E+00  0.00000000000E+00  0.45593999997E+02  0.45594000000E+02  0.51100000000E-03 0.  1.
         11   -1    0    0    0    0 -0.00000000000E+00 -0.00000000000E+00 -0.45593999997E+02  0.45594000000E+02  0.51100000000E-03 0. -1.
    9900012    2    1    2    0    0 -0.14828181186E+02 -0.17854797087E+01  0.28171912131E+02  0.59301960294E+02  0.50000029665E+02 0.  0.
         12    1    1    2    0    0  0.14828181186E+02  0.17854797087E+01 -0.28171912131E+02  0.31886039706E+02  0.00000000000E+00 0. -1.
         11    1    3    3    0    0  0.59813772848E+01 -0.11871573684E+02  0.32539876167E+01  0.13685743372E+02  0.51100000000E-03 0. -1.
        -11    1    3    3    0    0 -0.19356458389E+02  0.54150082794E+01  0.31529755374E+02  0.37391446485E+02  0.51100000000E-03 0.  1.
         12    1    3    3    0    0 -0.14531000817E+01  0.46710856962E+01 -0.66118308598E+01  0.82247704373E+01  0.00000000000E+00 0. -1.
</event>
<event>
 7    1  0.7579108E-012  0.5930211E+02  0.7816164E-02  0.1266604E+00
        -11   -1    0    0    0    0  0.00000000000E+00  0.00000000000E+00  0.45593999997E+02  0.45594000000E+02  0.51100000000E-03 0.  1.
         11   -1    0    0    0    0 -0.00000000000E+00 -0.00000000000E+00 -0.45593999997E+02  0.45594000000E+02  0.51100000000E-03 0. -1.
    9900012    2    1    2    0    0 -0.18256059144E+02 -0.28890966149E+01  0.25982293949E+02  0.59302106982E+02  0.50000297188E+02 0.  0.
         12    1    1    2    0    0  0.18256059144E+02  0.28890966149E+01 -0.25982293949E+02  0.31885893018E+02  0.00000000000E+00 0. -1.
         11    1    3    3    0    0  0.16993298032E+01 -0.63451358299E+01 -0.33103598524E+01  0.73557428648E+01  0.51100000000E-03 0. -1.
        -11    1    3    3    0    0 -0.23364447985E+02  0.15170072969E+02  0.10982426783E+02  0.29943985069E+02  0.51100000000E-03 0.  1.
        -12    1    3    3    0    0  0.34090590378E+01 -0.11714033754E+02  0.18310227019E+02  0.22002379048E+02  0.00000000000E+00 0.  1.
</event>
<event>
 7    1  0.7579108E-012  0.5930195E+02  0.7816164E-02  0.1266605E+00
        -11   -1    0    0    0    0  0.00000000000E+00  0.00000000000E+00  0.45593999997E+02  0.45594000000E+02  0.51100000000E-03 0.  1.
         11   -1    0    0    0    0 -0.00000000000E+00 -0.00000000000E+00 -0.45593999997E+02  0.45594000000E+02  0.51100000000E-03 0. -1.
    9900012    2    1    2    0    0 -0.56068398944E+01  0.26145271895E+02  0.17369759611E+02  0.59301945917E+02  0.50000003445E+02 0.  0.
         12    1    1    2    0    0  0.56068398944E+01 -0.26145271895E+02 -0.17369759611E+02  0.31886054083E+02  0.00000000000E+00 0. -1.
         11    1    3    3    0    0  0.14922530931E+02  0.21691476049E+01  0.67497159186E+01  0.16521071272E+02  0.51100000000E-03 0. -1.
        -11    1    3    3    0    0 -0.18163356480E+02  0.20960253160E+01  0.98304546655E+01  0.20759062598E+02  0.51100000000E-03 0.  1.
        -12    1    3    3    0    0 -0.23660143457E+01  0.21880098974E+02  0.78958902690E+00  0.22021812047E+02  0.00000000000E+00 0.  1.
</event>
<event>
 7    1  0.7579108E-012  0.5930185E+02  0.7816164E-02  0.1266605E+00
        -11   -1    0    0    0    0  0.00000000000E+00  0.00000000000E+00  0.45593999997E+02  0.45594000000E+02  0.51100000000E-03 0. -1.
         11   -1    0    0    0    0 -0.00000000000E+00 -0.00000000000E+00 -0.45593999997E+02  0.45594000000E+02  0.51100000000E-03 0.  1.
    9900012    2    1    2    0    0  0.28243890523E+02 -0.11562408945E+02 -0.92368842745E+01  0.59301848091E+02  0.49999825033E+02 0.  0.
         12    1    1    2    0    0 -0.28243890523E+02  0.11562408945E+02  0.92368842745E+01  0.31886151909E+02  0.00000000000E+00 0. -1.
         11    1    3    3    0    0  0.17706055287E+02 -0.20212714124E+02  0.88978412934E+01  0.28306002650E+02  0.51100000000E-03 0. -1.
        -11    1    3    3    0    0  0.12483539124E+02 -0.33054073492E+01 -0.10804920641E+02  0.16837778271E+02  0.51100000000E-03 0.  1.
         12    1    3    3    0    0 -0.19457038876E+01  0.11955712529E+02 -0.73298049272E+01  0.14158067169E+02  0.00000000000E+00 0. -1.
</event>
<event>
 7    1  0.7579108E-012  0.5930198E+02  0.7816164E-02  0.1266605E+00
        -11   -1    0    0    0    0  0.00000000000E+00  0.00000000000E+00  0.45593999997E+02  0.45594000000E+02  0.51100000000E-03 0.  1.
         11   -1    0    0    0    0 -0.00000000000E+00 -0.00000000000E+00 -0.45593999997E+02  0.45594000000E+02  0.51100000000E-03 0. -1.
    9900012    2    1    2    0    0 -0.26284981741E+02 -0.17523752616E+02  0.43285300753E+01  0.59301978870E+02  0.50000063544E+02 0.  0.
         12    1    1    2    0    0  0.26284981741E+02  0.17523752616E+02 -0.43285300753E+01  0.31886021130E+02  0.00000000000E+00 0. -1.
         11    1    3    3    0    0  0.15102876240E+01 -0.18341599252E+02 -0.47324674617E-01  0.18403735266E+02  0.51100000000E-03 0. -1.
        -11    1    3    3    0    0 -0.21530153019E+02 -0.82737241355E+01 -0.79064856068E+01  0.24382668332E+02  0.51100000000E-03 0.  1.
         12    1    3    3    0    0 -0.62651163467E+01  0.90915707723E+01  0.12282340357E+02  0.16515575273E+02  0.00000000000E+00 0. -1.
</event>
<event>
 7    1  0.7579108E-012  0.5930188E+02  0.7816164E-02  0.1266605E+00
        -11   -1    0    0    0    0  0.00000000000E+00  0.00000000000E+00  0.45593999997E+02  0.45594000000E+02  0.51100000000E-03 0. -1.
         11   -1    0    0    0    0 -0.00000000000E+00 -0.00000000000E+00 -0.45593999997E+02  0.45594000000E+02  0.51100000000E-03 0.  1.
    9900012    2    1    2    0    0 -0.15708650936E+02 -0.43936899762E+01 -0.27398143771E+02  0.59301882207E+02  0.49999887254E+02 0.  0.
         12    1    1    2    0    0  0.15708650936E+02  0.43936899762E+01  0.27398143771E+02  0.31886117793E+02  0.00000000000E+00 0. -1.
         11    1    3    3    0    0 -0.19018743372E+02  0.35210415303E+01 -0.35312250746E+02  0.40262456283E+02  0.51100000000E-03 0. -1.
        -11    1    3    3    0    0  0.58680946567E+01 -0.11051269317E+02  0.33788188907E+01  0.12960767947E+02  0.51100000000E-03 0.  1.
         12    1    3    3    0    0 -0.25580022204E+01  0.31365378107E+01  0.45352880846E+01  0.60786579775E+01  0.00000000000E+00 0. -1.
</event>
<event>
 7    1  0.7579108E-012  0.5930192E+02  0.7816164E-02  0.1266605E+00
        -11   -1    0    0    0    0  0.00000000000E+00  0.00000000000E+00  0.45593999997E+02  0.45594000000E+02  0.51100000000E-03 0.  1.
         11   -1    0    0    0    0 -0.00000000000E+00 -0.00000000000E+00 -0.45593999997E+02  0.45594000000E+02  0.51100000000E-03 0. -1.
    9900012    2    1    2    0    0  0.19531772742E+02  0.24140481094E+02  0.72435784931E+01  0.59301915209E+02  0.49999947441E+02 0.  0.
         12    1    1    2    0    0 -0.19531772742E+02 -0.24140481094E+02 -0.72435784931E+01  0.31886084791E+02  0.00000000000E+00 0. -1.
         11    1    3    3    0    0 -0.22351331105E+01 -0.62876802381E+01  0.14860813282E+01  0.68366059396E+01  0.51100000000E-03 0. -1.
        -11    1    3    3    0    0  0.21051896704E+02  0.15343440260E+02  0.19109500621E+02  0.32307530517E+02  0.51100000000E-03 0.  1.
        -12    1    3    3    0    0  0.71500914862E+00  0.15084721073E+02 -0.13352003457E+02  0.20157778752E+02  0.00000000000E+00 0.  1.
</event>
<event>
 7    1  0.7579108E-012  0.5930194E+02  0.7816164E-02  0.1266605E+00
        -11   -1    0    0    0    0  0.00000000000E+00  0.00000000000E+00  0.45593999997E+02  0.45594000000E+02  0.51100000000E-03 0. -1.
         11   -1    0    0    0    0 -0.00000000000E+00 -0.00000000000E+00 -0.45593999997E+02  0.45594000000E+02  0.51100000000E-03 0.  1.
    9900012    2    1    2    0    0  0.17177570073E+02  0.25772597129E+02  0.75779320550E+01  0.59301941438E+02  0.49999995277E+02 0.  0.
         12    1    1    2    0    0 -0.17177570073E+02 -0.25772597129E+02 -0.75779320550E+01  0.31886058562E+02  0.00000000000E+00 0. -1.
         11    1    3    3    0    0  0.16780263124E+02 -0.61582223395E+01  0.10966969980E+02  0.20970821723E+02  0.51100000000E-03 0. -1.
        -11    1    3    3    0    0  0.34467084271E+01  0.33879155709E+02 -0.11453145012E+01  0.34073284786E+02  0.51100000000E-03 0.  1.
        -12    1    3    3    0    0 -0.30494014787E+01 -0.19483362404E+01 -0.22437234243E+01  0.42578349297E+01  0.00000000000E+00 0.  1.
</event>
<event>
 7    1  0.7579108E-012  0.5930195E+02  0.7816164E-02  0.1266605E+00
        -11   -1    0    0    0    0  0.00000000000E+00  0.00000000000E+00  0.45593999997E+02  0.45594000000E+02  0.51100000000E-03 0.  1.
         11   -1    0    0    0    0 -0.00000000000E+00 -0.00000000000E+00 -0.45593999997E+02  0.45594000000E+02  0.51100000000E-03 0. -1.
    9900012    2    1    2    0    0  0.26146483807E+02 -0.10203628885E+02  0.15131666611E+02  0.59301953015E+02  0.50000016390E+02 0.  0.
         12    1    1    2    0    0 -0.26146483807E+02  0.10203628885E+02 -0.15131666611E+02  0.31886046985E+02  0.00000000000E+00 0. -1.
         11    1    3    3    0    0  0.55690784012E+01 -0.41518658645E+01 -0.13495079916E+01  0.70762840867E+01  0.51100000000E-03 0. -1.
        -11    1    3    3    0    0 -0.99376175666E+01  0.94240113756E+01 -0.11339909010E+01  0.13742422237E+02  0.51100000000E-03 0.  1.
        -12    1    3    3    0    0  0.30515022973E+02 -0.15475774396E+02  0.17615165504E+02  0.38483246691E+02  0.00000000000E+00 0.  1.
</event>
<event>
 7    1  0.7579108E-012  0.5930194E+02  0.7816164E-02  0.1266605E+00
        -11   -1    0    0    0    0  0.00000000000E+00  0.00000000000E+00  0.45593999997E+02  0.45594000000E+02  0.51100000000E-03 0. -1.
         11   -1    0    0    0    0 -0.00000000000E+00 -0.00000000000E+00 -0.45593999997E+02  0.45594000000E+02  0.51100000000E-03 0.  1.
    9900012    2    1    2    0    0  0.13753807941E+02  0.65938845603E+01 -0.28001321336E+02  0.59301944379E+02  0.50000000642E+02 0.  0.
         12    1    1    2    0    0 -0.13753807941E+02 -0.65938845603E+01  0.28001321336E+02  0.31886055621E+02  0.00000000000E+00 0. -1.
         11    1    3    3    0    0  0.26347434705E+02 -0.11782111470E+02 -0.19576489634E+02  0.34874695883E+02  0.51100000000E-03 0. -1.
        -11    1    3    3    0    0 -0.94821226119E+01  0.16698857719E+02 -0.59200116285E+01  0.20095000281E+02  0.51100000000E-03 0.  1.
         12    1    3    3    0    0 -0.31115041522E+01  0.16771383118E+01 -0.25048200733E+01  0.43322482161E+01  0.00000000000E+00 0. -1.
</event>
<event>
 7    1  0.7579108E-012  0.5930203E+02  0.7816164E-02  0.1266604E+00
        -11   -1    0    0    0    0  0.00000000000E+00  0.00000000000E+00  0.45593999997E+02  0.45594000000E+02  0.51100000000E-03 0. -1.
         11   -1    0    0    0    0 -0.00000000000E+00 -0.00000000000E+00 -0.45593999997E+02  0.45594000000E+02  0.51100000000E-03 0.  1.
    9900012    2    1    2    0    0 -0.25107023424E+02 -0.19383141042E+02  0.32629044915E+01  0.59302026162E+02  0.50000149794E+02 0.  0.
         12    1    1    2    0    0  0.25107023424E+02  0.19383141042E+02 -0.32629044915E+01  0.31885973838E+02  0.00000000000E+00 0. -1.
         11    1    3    3    0    0 -0.11140106855E+02  0.24202084791E+01  0.10633952021E+02  0.15589750661E+02  0.51100000000E-03 0. -1.
        -11    1    3    3    0    0  0.10899345093E+02 -0.12290414366E+02 -0.36746790935E+01  0.16833100590E+02  0.51100000000E-03 0.  1.
        -12    1    3    3    0    0 -0.24866261662E+02 -0.95129351548E+01 -0.36963684365E+01  0.26879174912E+02  0.00000000000E+00 0.  1.
</event>
<event>
 7    1  0.7579108E-012  0.5930194E+02  0.7816164E-02  0.1266605E+00
        -11   -1    0    0    0    0  0.00000000000E+00  0.00000000000E+00  0.45593999997E+02  0.45594000000E+02  0.51100000000E-03 0. -1.
         11   -1    0    0    0    0 -0.00000000000E+00 -0.00000000000E+00 -0.45593999997E+02  0.45594000000E+02  0.51100000000E-03 0.  1.
    9900012    2    1    2    0    0 -0.22862463132E+02 -0.12791364202E+02 -0.18177170329E+02  0.59301941295E+02  0.49999995016E+02 0.  0.
         12    1    1    2    0    0  0.22862463132E+02  0.12791364202E+02  0.18177170329E+02  0.31886058705E+02  0.00000000000E+00 0. -1.
         11    1    3    3    0    0 -0.19018209981E+02 -0.19286323800E+01 -0.89723472730E+01  0.21116698359E+02  0.51100000000E-03 0.  1.
        -11    1    3    3    0    0  0.56883402812E+01 -0.72952948793E+01  0.11711209047E+02  0.14924173683E+02  0.51100000000E-03 0. -1.
         12    1    3    3    0    0 -0.95325934319E+01 -0.35674369426E+01 -0.20916032102E+02  0.23261069253E+02  0.00000000000E+00 0. -1.
</event>
<event>
 7    1  0.7579108E-012  0.5930197E+02  0.7816164E-02  0.1266605E+00
        -11   -1    0    0    0    0  0.00000000000E+00  0.00000000000E+00  0.45593999997E+02  0.45594000000E+02  0.51100000000E-03 0. -1.
         11   -1    0    0    0    0 -0.00000000000E+00 -0.00000000000E+00 -0.45593999997E+02  0.45594000000E+02  0.51100000000E-03 0.  1.
    9900012    2    1    2    0    0 -0.16809181687E+02 -0.26322912253E+02  0.64245167991E+01  0.59301973052E+02  0.50000052933E+02 0.  0.
         12    1    1    2    0    0  0.16809181687E+02  0.26322912253E+02 -0.64245167991E+01  0.31886026948E+02  0.00000000000E+00 0. -1.
         11    1    3    3    0    0  0.16691324845E+02 -0.15725824145E+02  0.51626040627E+01  0.23506474663E+02  0.51100000000E-03 0. -1.
        -11    1    3    3    0    0 -0.25446394112E+02 -0.10959724921E+02  0.73344578187E+00  0.27715924784E+02  0.51100000000E-03 0.  1.
         12    1    3    3    0    0 -0.80541124194E+01  0.36263681305E+00  0.52846695451E+00  0.80795736053E+01  0.00000000000E+00 0. -1.
</event>
<event>
 7    1  0.7579108E-012  0.5930194E+02  0.7816164E-02  0.1266605E+00
        -11   -1    0    0    0    0  0.00000000000E+00  0.00000000000E+00  0.45593999997E+02  0.45594000000E+02  0.51100000000E-03 0.  1.
         11   -1    0    0    0    0 -0.00000000000E+00 -0.00000000000E+00 -0.45593999997E+02  0.45594000000E+02  0.51100000000E-03 0. -1.
    9900012    2    1    2    0    0 -0.21430399750E+01  0.31029395095E+02  0.70217358728E+01  0.59301941057E+02  0.49999994582E+02 0.  0.
         12    1    1    2    0    0  0.21430399750E+01 -0.31029395095E+02 -0.70217358728E+01  0.31886058943E+02  0.00000000000E+00 0. -1.
         11    1    3    3    0    0  0.12984923867E+02  0.11117399631E+02 -0.61613448372E+01  0.18170497871E+02  0.51100000000E-03 0. -1.
        -11    1    3    3    0    0 -0.12363567243E+02 -0.16071610203E+01  0.14828306903E+02  0.19373163071E+02  0.51100000000E-03 0.  1.
        -12    1    3    3    0    0 -0.27643965996E+01  0.21519156484E+02 -0.16452261931E+01  0.21758280115E+02  0.00000000000E+00 0.  1.
</event>
<event>
 7    1  0.7579108E-012  0.5930189E+02  0.7816164E-02  0.1266605E+00
        -11   -1    0    0    0    0  0.00000000000E+00  0.00000000000E+00  0.45593999997E+02  0.45594000000E+02  0.51100000000E-03 0.  1.
         11   -1    0    0    0    0 -0.00000000000E+00 -0.00000000000E+00 -0.45593999997E+02  0.45594000000E+02  0.51100000000E-03 0. -1.
    9900012    2    1    2    0    0 -0.25102278135E+02  0.27429226400E+01  0.19469876001E+02  0.59301889173E+02  0.49999899958E+02 0.  0.
         12    1    1    2    0    0  0.25102278135E+02 -0.27429226400E+01 -0.19469876001E+02  0.31886110827E+02  0.00000000000E+00 0. -1.
         11    1    3    3    0    0 -0.17342629319E+01  0.14180322431E+02 -0.98191949500E+01  0.17335103170E+02  0.51100000000E-03 0. -1.
        -11    1    3    3    0    0 -0.16906529323E+02 -0.10265212672E+02  0.11216221028E+02  0.22737830578E+02  0.51100000000E-03 0.  1.
         12    1    3    3    0    0 -0.64614858796E+01 -0.11721871192E+01  0.18072849923E+02  0.19228955425E+02  0.00000000000E+00 0. -1.
</event>
<event>
 7    1  0.7579108E-012  0.5930194E+02  0.7816164E-02  0.1266605E+00
        -11   -1    0    0    0    0  0.00000000000E+00  0.00000000000E+00  0.45593999997E+02  0.45594000000E+02  0.51100000000E-03 0.  1.
         11   -1    0    0    0    0 -0.00000000000E+00 -0.00000000000E+00 -0.45593999997E+02  0.45594000000E+02  0.51100000000E-03 0. -1.
    9900012    2    1    2    0    0 -0.98770333024E+01 -0.10457426516E+02  0.28457118268E+02  0.59301935076E+02  0.49999983675E+02 0.  0.
         12    1    1    2    0    0  0.98770333024E+01  0.10457426516E+02 -0.28457118268E+02  0.31886064924E+02  0.00000000000E+00 0. -1.
         11    1    3    3    0    0  0.62979728647E+01 -0.40186777955E+01 -0.47522199469E+00  0.74859915598E+01  0.51100000000E-03 0. -1.
        -11    1    3    3    0    0 -0.15078268388E+02 -0.22050400291E+02  0.13887448494E+02  0.30107068216E+02  0.51100000000E-03 0.  1.
        -12    1    3    3    0    0 -0.10967377789E+01  0.15611651571E+02  0.15044891768E+02  0.21708875301E+02  0.00000000000E+00 0.  1.
</event>
<event>
 7    1  0.7579108E-012  0.5930195E+02  0.7816164E-02  0.1266605E+00
        -11   -1    0    0    0    0  0.00000000000E+00  0.00000000000E+00  0.45593999997E+02  0.45594000000E+02  0.51100000000E-03 0. -1.
         11   -1    0    0    0    0 -0.00000000000E+00 -0.00000000000E+00 -0.45593999997E+02  0.45594000000E+02  0.51100000000E-03 0.  1.
    9900012    2    1    2    0    0 -0.56114500086E+01 -0.25148223453E+02 -0.18782942580E+02  0.59301945901E+02  0.50000003417E+02 0.  0.
         12    1    1    2    0    0  0.56114500086E+01  0.25148223453E+02  0.18782942580E+02  0.31886054099E+02  0.00000000000E+00 0. -1.
         11    1    3    3    0    0 -0.12872263891E+02 -0.35289047894E+02 -0.15014298160E+02  0.40452950800E+02  0.51100000000E-03 0. -1.
        -11    1    3    3    0    0  0.11404230512E+01  0.24004099782E+01 -0.77615952990E+01  0.82039560363E+01  0.51100000000E-03 0.  1.
         12    1    3    3    0    0  0.61203908310E+01  0.77404144626E+01  0.39929508790E+01  0.10645039065E+02  0.00000000000E+00 0. -1.
</event>
<event>
 7    1  0.7579108E-012  0.5930195E+02  0.7816164E-02  0.1266605E+00
        -11   -1    0    0    0    0  0.00000000000E+00  0.00000000000E+00  0.45593999997E+02  0.45594000000E+02  0.51100000000E-03 0.  1.
         11   -1    0    0    0    0 -0.00000000000E+00 -0.00000000000E+00 -0.45593999997E+02  0.45594000000E+02  0.51100000000E-03 0. -1.
    9900012    2    1    2    0    0  0.16079509755E+02  0.24512708182E+02  0.12541801541E+02  0.59301948469E+02  0.50000008099E+02 0.  0.
         12    1    1    2    0    0 -0.16079509755E+02 -0.24512708182E+02 -0.12541801541E+02  0.31886051531E+02  0.00000000000E+00 0. -1.
         11    1    3    3    0    0  0.34229938395E+01 -0.92383523255E+01  0.48728824724E+01  0.10991315861E+02  0.51100000000E-03 0. -1.
        -11    1    3    3    0    0  0.21063342020E+02  0.33140853083E+02  0.61908887964E+01  0.39753083207E+02  0.51100000000E-03 0.  1.
        -12    1    3    3    0    0 -0.84068261043E+01  0.61020742435E+00  0.14780302724E+01  0.85575494001E+01  0.00000000000E+00 0.  1.
</event>
<event>
 7    1  0.7579108E-012  0.5930193E+02  0.7816164E-02  0.1266605E+00
        -11   -1    0    0    0    0  0.00000000000E+00  0.00000000000E+00  0.45593999997E+02  0.45594000000E+02  0.51100000000E-03 0. -1.
         11   -1    0    0    0    0 -0.00000000000E+00 -0.00000000000E+00 -0.45593999997E+02  0.45594000000E+02  0.51100000000E-03 0.  1.
    9900012    2    1    2    0    0  0.21828696307E+02 -0.71937110345E+01  0.22101586443E+02  0.59301928053E+02  0.49999970866E+02 0.  0.
         12    1    1    2    0    0 -0.21828696307E+02  0.71937110345E+01 -0.22101586443E+02  0.31886071947E+02  0.00000000000E+00 0. -1.
         11    1    3    3    0    0  0.62848786030E+01  0.10636535158E+02 -0.91117305493E+01  0.15351195820E+02  0.51100000000E-03 0. -1.
        -11    1    3    3    0    0 -0.22548708390E+01 -0.98683362893E+01  0.17132943804E+02  0.19899906212E+02  0.51100000000E-03 0.  1.
         12    1    3    3    0    0  0.17798688543E+02 -0.79619099035E+01  0.14080373188E+02  0.24050826021E+02  0.00000000000E+00 0. -1.
</event>
<event>
 7    1  0.8663300E-012  0.5930189E+02  0.7816164E-02  0.1266605E+00
        -11   -1    0    0    0    0  0.00000000000E+00  0.00000000000E+00  0.45593999997E+02  0.45594000000E+02  0.51100000000E-03 0.  1.
         11   -1    0    0    0    0 -0.00000000000E+00 -0.00000000000E+00 -0.45593999997E+02  0.45594000000E+02  0.51100000000E-03 0. -1.
    9900012    2    1    2    0    0  0.16359157008E+01 -0.31655684921E+02  0.34591190788E+01  0.59301888403E+02  0.49999898554E+02 0.  0.
         12    1    1    2    0    0 -0.16359157008E+01  0.31655684921E+02 -0.34591190788E+01  0.31886111597E+02  0.00000000000E+00 0. -1.
         11    1    3    3    0    0  0.31068060240E+01 -0.22971844116E+01 -0.14026184641E+02  0.14548647901E+02  0.51100000000E-03 0. -1.
        -11    1    3    3    0    0  0.35023408073E+01 -0.96633835948E+01  0.21696476968E+02  0.24008008803E+02  0.51100000000E-03 0.  1.
        -12    1    3    3    0    0 -0.49732311305E+01 -0.19695116914E+02 -0.42111732478E+01  0.20745231699E+02  0.00000000000E+00 0.  1.
</event>
<event>
 7    1  0.7579108E-012  0.5930189E+02  0.7816164E-02  0.1266605E+00
        -11   -1    0    0    0    0  0.00000000000E+00  0.00000000000E+00  0.45593999997E+02  0.45594000000E+02  0.51100000000E-03 0.  1.
         11   -1    0    0    0    0 -0.00000000000E+00 -0.00000000000E+00 -0.45593999997E+02  0.45594000000E+02  0.51100000000E-03 0. -1.
    9900012    2    1    2    0    0 -0.90522196413E+01 -0.30489912297E+02 -0.22685511594E+01  0.59301893987E+02  0.49999908738E+02 0.  0.
         12    1    1    2    0    0  0.90522196413E+01  0.30489912297E+02  0.22685511594E+01  0.31886106013E+02  0.00000000000E+00 0. -1.
         11    1    3    3    0    0 -0.19792184279E+02 -0.27765988757E+02 -0.10646761542E+02  0.35721621209E+02  0.51100000000E-03 0. -1.
        -11    1    3    3    0    0  0.64945531469E+01 -0.10566375038E+02  0.18762615068E+01  0.12543837512E+02  0.51100000000E-03 0.  1.
         12    1    3    3    0    0  0.42454114906E+01  0.78424514984E+01  0.65019488754E+01  0.11036435267E+02  0.00000000000E+00 0. -1.
</event>
<event>
 7    1  0.7579108E-012  0.5930191E+02  0.7816164E-02  0.1266605E+00
        -11   -1    0    0    0    0  0.00000000000E+00  0.00000000000E+00  0.45593999997E+02  0.45594000000E+02  0.51100000000E-03 0.  1.
         11   -1    0    0    0    0 -0.00000000000E+00 -0.00000000000E+00 -0.45593999997E+02  0.45594000000E+02  0.51100000000E-03 0. -1.
    9900012    2    1    2    0    0  0.41822806708E+01  0.27768166721E+02 -0.15104975384E+02  0.59301908423E+02  0.49999935066E+02 0.  0.
         12    1    1    2    0    0 -0.41822806708E+01 -0.27768166721E+02  0.15104975384E+02  0.31886091577E+02  0.00000000000E+00 0. -1.
         11    1    3    3    0    0  0.13297124151E+02  0.21243216514E+02 -0.11873255320E+02  0.27731966225E+02  0.51100000000E-03 0. -1.
        -11    1    3    3    0    0 -0.16100136775E+02  0.10224374269E+02  0.54432891452E+01  0.19833850618E+02  0.51100000000E-03 0.  1.
        -12    1    3    3    0    0  0.69852932950E+01 -0.36994240613E+01 -0.86750092092E+01  0.11736091580E+02  0.00000000000E+00 0.  1.
</event>
<event>
 7    1  0.7579108E-012  0.5930194E+02  0.7816164E-02  0.1266605E+00
        -11   -1    0    0    0    0  0.00000000000E+00  0.00000000000E+00  0.45593999997E+02  0.45594000000E+02  0.51100000000E-03 0.  1.
         11   -1    0    0    0    0 -0.00000000000E+00 -0.00000000000E+00 -0.45593999997E+02  0.45594000000E+02  0.51100000000E-03 0. -1.
    9900012    2    1    2    0    0  0.28428239676E+02  0.12833311577E+02  0.66228320784E+01  0.59301943457E+02  0.49999998960E+02 0.  0.
         12    1    1    2    0    0 -0.28428239676E+02 -0.12833311577E+02 -0.66228320784E+01  0.31886056543E+02  0.00000000000E+00 0. -1.
         11    1    3    3    0    0  0.26027088604E+02  0.34239571280E+01 -0.63570876248E+01  0.27010097870E+02  0.51100000000E-03 0. -1.
        -11    1    3    3    0    0 -0.50153504294E+01  0.88129143234E+01  0.19770040099E+02  0.22218813753E+02  0.51100000000E-03 0.  1.
        -12    1    3    3    0    0  0.74165015014E+01  0.59644012597E+00 -0.67901203961E+01  0.10073031834E+02  0.00000000000E+00 0.  1.
</event>
<event>
 7    1  0.7579108E-012  0.5930190E+02  0.7816164E-02  0.1266605E+00
        -11   -1    0    0    0    0  0.00000000000E+00  0.00000000000E+00  0.45593999997E+02  0.45594000000E+02  0.51100000000E-03 0.  1.
         11   -1    0    0    0    0 -0.00000000000E+00 -0.00000000000E+00 -0.45593999997E+02  0.45594000000E+02  0.51100000000E-03 0. -1.
    9900012    2    1    2    0    0 -0.14159034418E+02 -0.20527876511E+02  0.19870875688E+02  0.59301895341E+02  0.49999911208E+02 0.  0.
         12    1    1    2    0    0  0.14159034418E+02  0.20527876511E+02 -0.19870875688E+02  0.31886104659E+02  0.00000000000E+00 0. -1.
         11    1    3    3    0    0  0.75211231881E+01  0.63232024680E+01  0.20512875059E+02  0.22744850558E+02  0.51100000000E-03 0. -1.
        -11    1    3    3    0    0 -0.12157025783E+02 -0.21655228003E+02  0.32190881771E+01  0.25042058716E+02  0.51100000000E-03 0.  1.
         12    1    3    3    0    0 -0.95231318232E+01 -0.51958509753E+01 -0.38610875485E+01  0.11514986068E+02  0.00000000000E+00 0. -1.
</event>
<event>
 7    1  0.7579108E-012  0.5930194E+02  0.7816164E-02  0.1266605E+00
        -11   -1    0    0    0    0  0.00000000000E+00  0.00000000000E+00  0.45593999997E+02  0.45594000000E+02  0.51100000000E-03 0. -1.
         11   -1    0    0    0    0 -0.00000000000E+00 -0.00000000000E+00 -0.45593999997E+02  0.45594000000E+02  0.51100000000E-03 0.  1.
    9900012    2    1    2    0    0 -0.23572260360E+02 -0.21440954586E+02  0.11639433804E+01  0.59301941037E+02  0.49999994545E+02 0.  0.
         12    1    1    2    0    0  0.23572260360E+02  0.21440954586E+02 -0.11639433804E+01  0.31886058963E+02  0.00000000000E+00 0. -1.
         11    1    3    3    0    0 -0.57800420271E+01  0.95253564079E+00  0.17378050520E+02  0.18338834481E+02  0.51100000000E-03 0. -1.
        -11    1    3    3    0    0 -0.83818666244E+01 -0.12909186410E+02  0.47461022136E+01  0.16106777094E+02  0.51100000000E-03 0.  1.
         12    1    3    3    0    0 -0.94103517081E+01 -0.94843038170E+01 -0.20960209354E+02  0.24856329462E+02  0.00000000000E+00 0. -1.
</event>
<event>
 7    1  0.7579108E-012  0.5930195E+02  0.7816164E-02  0.1266605E+00
        -11   -1    0    0    0    0  0.00000000000E+00  0.00000000000E+00  0.45593999997E+02  0.45594000000E+02  0.51100000000E-03 0. -1.
         11   -1    0    0    0    0 -0.00000000000E+00 -0.00000000000E+00 -0.45593999997E+02  0.45594000000E+02  0.51100000000E-03 0.  1.
    9900012    2    1    2    0    0 -0.25569363947E+02  0.10230062892E+02 -0.16070898964E+02  0.59301947360E+02  0.50000006077E+02 0.  0.
         12    1    1    2    0    0  0.25569363947E+02 -0.10230062892E+02  0.16070898964E+02  0.31886052640E+02  0.00000000000E+00 0. -1.
         11    1    3    3    0    0  0.13558079630E+02 -0.20316697527E+01 -0.73156413718E+00  0.13728961781E+02  0.51100000000E-03 0. -1.
        -11    1    3    3    0    0 -0.82168256542E+01 -0.22432415118E+01 -0.50928635089E+01  0.99239919031E+01  0.51100000000E-03 0.  1.
         12    1    3    3    0    0 -0.30910617923E+02  0.14504974157E+02 -0.10246471318E+02  0.35648993676E+02  0.00000000000E+00 0. -1.
</event>
<event>
 7    1  0.7579108E-012  0.5930196E+02  0.7816164E-02  0.1266605E+00
        -11   -1    0    0    0    0  0.00000000000E+00  0.00000000000E+00  0.45593999997E+02  0.45594000000E+02  0.51100000000E-03 0. -1.
         11   -1    0    0    0    0 -0.00000000000E+00 -0.00000000000E+00 -0.45593999997E+02  0.45594000000E+02  0.51100000000E-03 0.  1.
    9900012    2    1    2    0    0 -0.19553676033E+01 -0.20687038327E+02 -0.24185586846E+02  0.59301958723E+02  0.50000026802E+02 0.  0.
         12    1    1    2    0    0  0.19553676033E+01  0.20687038327E+02  0.24185586846E+02  0.31886041277E+02  0.00000000000E+00 0. -1.
         11    1    3    3    0    0 -0.24600702515E+01  0.84317452282E+01  0.10002243035E+02  0.13311316210E+02  0.51100000000E-03 0. -1.
        -11    1    3    3    0    0 -0.85628139982E+00 -0.26428612753E+02 -0.25264777520E+02  0.36572035400E+02  0.51100000000E-03 0.  1.
         12    1    3    3    0    0  0.13609840480E+01 -0.26901708017E+01 -0.89230523617E+01  0.94186071141E+01  0.00000000000E+00 0. -1.
</event>
<event>
 7    1  0.7579108E-012  0.5930197E+02  0.7816164E-02  0.1266605E+00
        -11   -1    0    0    0    0  0.00000000000E+00  0.00000000000E+00  0.45593999997E+02  0.45594000000E+02  0.51100000000E-03 0. -1.
         11   -1    0    0    0    0 -0.00000000000E+00 -0.00000000000E+00 -0.45593999997E+02  0.45594000000E+02  0.51100000000E-03 0.  1.
    9900012    2    1    2    0    0  0.24804426388E+02 -0.16334922870E+02  0.11603002222E+02  0.59301969608E+02  0.50000046651E+02 0.  0.
         12    1    1    2    0    0 -0.24804426388E+02  0.16334922870E+02 -0.11603002222E+02  0.31886030392E+02  0.00000000000E+00 0. -1.
         11    1    3    3    0    0  0.98448444061E+01 -0.24532930832E+02 -0.53595417220E+01  0.26972399676E+02  0.51100000000E-03 0.  1.
        -11    1    3    3    0    0  0.18932087571E+02  0.48783277747E+01  0.18513462675E+02  0.26925272927E+02  0.51100000000E-03 0. -1.
         12    1    3    3    0    0 -0.39725055892E+01  0.33196801872E+01 -0.15509187308E+01  0.54042970044E+01  0.00000000000E+00 0. -1.
</event>
<event>
 7    1  0.7579108E-012  0.5930195E+02  0.7816164E-02  0.1266605E+00
        -11   -1    0    0    0    0  0.00000000000E+00  0.00000000000E+00  0.45593999997E+02  0.45594000000E+02  0.51100000000E-03 0. -1.
         11   -1    0    0    0    0 -0.00000000000E+00 -0.00000000000E+00 -0.45593999997E+02  0.45594000000E+02  0.51100000000E-03 0.  1.
    9900012    2    1    2    0    0 -0.24274414261E+02 -0.57421865221E+01  0.19862032260E+02  0.59301949457E+02  0.50000009901E+02 0.  0.
         12    1    1    2    0    0  0.24274414261E+02  0.57421865221E+01 -0.19862032260E+02  0.31886050543E+02  0.00000000000E+00 0. -1.
         11    1    3    3    0    0 -0.40093223404E+01  0.91113429375E+01  0.52490898369E+01  0.11253629642E+02  0.51100000000E-03 0. -1.
        -11    1    3    3    0    0  0.24972622205E+01 -0.15156896740E+02  0.19441174342E+02  0.24777552289E+02  0.51100000000E-03 0.  1.
        -12    1    3    3    0    0 -0.22762354141E+02  0.30336728086E+00 -0.48282319187E+01  0.23270767525E+02  0.00000000000E+00 0.  1.
</event>
<event>
 7    1  0.7579108E-012  0.5930196E+02  0.7816164E-02  0.1266605E+00
        -11   -1    0    0    0    0  0.00000000000E+00  0.00000000000E+00  0.45593999997E+02  0.45594000000E+02  0.51100000000E-03 0.  1.
         11   -1    0    0    0    0 -0.00000000000E+00 -0.00000000000E+00 -0.45593999997E+02  0.45594000000E+02  0.51100000000E-03 0. -1.
    9900012    2    1    2    0    0  0.30889627422E+02 -0.55335684902E+01  0.56506563206E+01  0.59301962627E+02  0.50000033921E+02 0.  0.
         12    1    1    2    0    0 -0.30889627422E+02  0.55335684902E+01 -0.56506563206E+01  0.31886037373E+02  0.00000000000E+00 0. -1.
         11    1    3    3    0    0 -0.12100831654E+01  0.67742683698E+01 -0.77321872727E+01  0.10350929113E+02  0.51100000000E-03 0. -1.
        -11    1    3    3    0    0  0.38374451038E+02 -0.12651429175E+02  0.93174206701E+01  0.41466510353E+02  0.51100000000E-03 0.  1.
        -12    1    3    3    0    0 -0.62747404514E+01  0.34359231545E+00  0.40654229231E+01  0.74845231615E+01  0.00000000000E+00 0.  1.
</event>
<event>
 7    1  0.7579108E-012  0.5930196E+02  0.7816164E-02  0.1266605E+00
        -11   -1    0    0    0    0  0.00000000000E+00  0.00000000000E+00  0.45593999997E+02  0.45594000000E+02  0.51100000000E-03 0.  1.
         11   -1    0    0    0    0 -0.00000000000E+00 -0.00000000000E+00 -0.45593999997E+02  0.45594000000E+02  0.51100000000E-03 0. -1.
    9900012    2    1    2    0    0  0.21488088123E+01  0.13136656819E+02  0.28974654045E+02  0.59301957462E+02  0.50000024501E+02 0.  0.
         12    1    1    2    0    0 -0.21488088123E+01 -0.13136656819E+02 -0.28974654045E+02  0.31886042538E+02  0.00000000000E+00 0. -1.
         11    1    3    3    0    0 -0.10910724315E+01  0.20273985922E+02  0.27300029763E+02  0.34022295183E+02  0.51100000000E-03 0.  1.
        -11    1    3    3    0    0 -0.76104950115E+01 -0.40696375930E+01  0.84883684628E+01  0.12105122217E+02  0.51100000000E-03 0. -1.
         12    1    3    3    0    0  0.10850376255E+02 -0.30676915096E+01 -0.68137441811E+01  0.13174540062E+02  0.00000000000E+00 0. -1.
</event>
<event>
 7    1  0.7579108E-012  0.5930204E+02  0.7816164E-02  0.1266604E+00
        -11   -1    0    0    0    0  0.00000000000E+00  0.00000000000E+00  0.45593999997E+02  0.45594000000E+02  0.51100000000E-03 0. -1.
         11   -1    0    0    0    0 -0.00000000000E+00 -0.00000000000E+00 -0.45593999997E+02  0.45594000000E+02  0.51100000000E-03 0.  1.
    9900012    2    1    2    0    0 -0.38497639003E+01  0.23600498752E+02 -0.21092890938E+02  0.59302042722E+02  0.50000179995E+02 0.  0.
         12    1    1    2    0    0  0.38497639003E+01 -0.23600498752E+02  0.21092890938E+02  0.31885957278E+02  0.00000000000E+00 0. -1.
         11    1    3    3    0    0 -0.94259389528E+01 -0.82675178456E+01 -0.20099890460E+02  0.23689782043E+02  0.51100000000E-03 0. -1.
        -11    1    3    3    0    0  0.31338864529E+01  0.13058453144E+02 -0.77165628584E+01  0.15488375816E+02  0.51100000000E-03 0.  1.
         12    1    3    3    0    0  0.24422885997E+01  0.18809563453E+02  0.67235623805E+01  0.20123884863E+02  0.00000000000E+00 0. -1.
</event>
<event>
 7    1  0.7579108E-012  0.5930194E+02  0.7816164E-02  0.1266605E+00
        -11   -1    0    0    0    0  0.00000000000E+00  0.00000000000E+00  0.45593999997E+02  0.45594000000E+02  0.51100000000E-03 0.  1.
         11   -1    0    0    0    0 -0.00000000000E+00 -0.00000000000E+00 -0.45593999997E+02  0.45594000000E+02  0.51100000000E-03 0. -1.
    9900012    2    1    2    0    0  0.25531382150E+02 -0.11009895944E+02  0.15609336099E+02  0.59301942598E+02  0.49999997393E+02 0.  0.
         12    1    1    2    0    0 -0.25531382150E+02  0.11009895944E+02 -0.15609336099E+02  0.31886057402E+02  0.00000000000E+00 0. -1.
         11    1    3    3    0    0 -0.19542008433E+01 -0.12047983101E+02 -0.92855980608E+00  0.12240711634E+02  0.51100000000E-03 0. -1.
        -11    1    3    3    0    0  0.24896555822E+02  0.11868117218E+01  0.26728002697E+02  0.36546315030E+02  0.51100000000E-03 0.  1.
        -12    1    3    3    0    0  0.25890271711E+01 -0.14872456478E+00 -0.10190106791E+02  0.10514915934E+02  0.00000000000E+00 0.  1.
</event>
<event>
 7    1  0.7579108E-012  0.5930197E+02  0.7816164E-02  0.1266605E+00
        -11   -1    0    0    0    0  0.00000000000E+00  0.00000000000E+00  0.45593999997E+02  0.45594000000E+02  0.51100000000E-03 0.  1.
         11   -1    0    0    0    0 -0.00000000000E+00 -0.00000000000E+00 -0.45593999997E+02  0.45594000000E+02  0.51100000000E-03 0. -1.
    9900012    2    1    2    0    0 -0.51358784606E+01 -0.29647013079E+02  0.10554456881E+02  0.59301965563E+02  0.50000039275E+02 0.  0.
         12    1    1    2    0    0  0.51358784606E+01  0.29647013079E+02 -0.10554456881E+02  0.31886034437E+02  0.00000000000E+00 0. -1.
         11    1    3    3    0    0 -0.25423932421E+01  0.43365458181E+01 -0.61615810489E+01  0.79520107088E+01  0.51100000000E-03 0. -1.
        -11    1    3    3    0    0  0.74564741671E+01 -0.37235946193E+02  0.13596190899E+02  0.40335729858E+02  0.51100000000E-03 0.  1.
        -12    1    3    3    0    0 -0.10049959386E+02  0.32523872967E+01  0.31198470310E+01  0.11014224997E+02  0.00000000000E+00 0.  1.
</event>
<event>
 7    1  0.7579108E-012  0.5930193E+02  0.7816164E-02  0.1266605E+00
        -11   -1    0    0    0    0  0.00000000000E+00  0.00000000000E+00  0.45593999997E+02  0.45594000000E+02  0.51100000000E-03 0. -1.
         11   -1    0    0    0    0 -0.00000000000E+00 -0.00000000000E+00 -0.45593999997E+02  0.45594000000E+02  0.51100000000E-03 0.  1.
    9900012    2    1    2    0    0 -0.10460447826E+02  0.15039248693E+02 -0.26098302860E+02  0.59301931221E+02  0.49999976644E+02 0.  0.
         12    1    1    2    0    0  0.10460447826E+02 -0.15039248693E+02  0.26098302860E+02  0.31886068779E+02  0.00000000000E+00 0. -1.
         11    1    3    3    0    0  0.16317198862E+02 -0.58049212814E+01 -0.88131906225E+01  0.19432457873E+02  0.51100000000E-03 0. -1.
        -11    1    3    3    0    0 -0.22731524261E+01  0.22253847620E+01 -0.65391194750E+01  0.72718390425E+01  0.51100000000E-03 0.  1.
         12    1    3    3    0    0 -0.24504494262E+02  0.18618785213E+02 -0.10745992762E+02  0.32597634305E+02  0.00000000000E+00 0. -1.
</event>
<event>
 7    1  0.7579108E-012  0.5930196E+02  0.7816164E-02  0.1266605E+00
        -11   -1    0    0    0    0  0.00000000000E+00  0.00000000000E+00  0.45593999997E+02  0.45594000000E+02  0.51100000000E-03 0.  1.
         11   -1    0    0    0    0 -0.00000000000E+00 -0.00000000000E+00 -0.45593999997E+02  0.45594000000E+02  0.51100000000E-03 0. -1.
    9900012    2    1    2    0    0  0.99099030169E+00 -0.30924884975E+02  0.77064071192E+01  0.59301964135E+02  0.50000036671E+02 0.  0.
         12    1    1    2    0    0 -0.99099030169E+00  0.30924884975E+02 -0.77064071192E+01  0.31886035865E+02  0.00000000000E+00 0. -1.
         11    1    3    3    0    0 -0.12063559190E+02 -0.26428999659E+02  0.44995516823E+01  0.29398425960E+02  0.51100000000E-03 0. -1.
        -11    1    3    3    0    0  0.38410961729E+01  0.16581247599E+01  0.13893596193E+02  0.14509838488E+02  0.51100000000E-03 0.  1.
         12    1    3    3    0    0  0.92134533189E+01 -0.61540100759E+01 -0.10686740756E+02  0.15393699687E+02  0.00000000000E+00 0. -1.
</event>
<event>
 7    1  0.7579108E-012  0.5930196E+02  0.7816164E-02  0.1266605E+00
        -11   -1    0    0    0    0  0.00000000000E+00  0.00000000000E+00  0.45593999997E+02  0.45594000000E+02  0.51100000000E-03 0.  1.
         11   -1    0    0    0    0 -0.00000000000E+00 -0.00000000000E+00 -0.45593999997E+02  0.45594000000E+02  0.51100000000E-03 0. -1.
    9900012    2    1    2    0    0 -0.21300391950E+02 -0.19291842017E+02 -0.13814396451E+02  0.59301962068E+02  0.50000032902E+02 0.  0.
         12    1    1    2    0    0  0.21300391950E+02  0.19291842017E+02  0.13814396451E+02  0.31886037932E+02  0.00000000000E+00 0. -1.
         11    1    3    3    0    0  0.51330890507E+00 -0.77943274246E+01 -0.17728848925E+02  0.19373360847E+02  0.51100000000E-03 0. -1.
        -11    1    3    3    0    0 -0.91150846443E+01 -0.16933821332E+02  0.13163376312E+02  0.23304796699E+02  0.51100000000E-03 0.  1.
        -12    1    3    3    0    0 -0.12698616211E+02  0.54363067393E+01 -0.92489238384E+01  0.16623804523E+02  0.00000000000E+00 0.  1.
</event>
<event>
 7    1  0.7579108E-012  0.5930193E+02  0.7816164E-02  0.1266605E+00
        -11   -1    0    0    0    0  0.00000000000E+00  0.00000000000E+00  0.45593999997E+02  0.45594000000E+02  0.51100000000E-03 0.  1.
         11   -1    0    0    0    0 -0.00000000000E+00 -0.00000000000E+00 -0.45593999997E+02  0.45594000000E+02  0.51100000000E-03 0. -1.
    9900012    2    1    2    0    0  0.36495984815E+01 -0.13882991055E+02  0.28472165167E+02  0.59301934093E+02  0.49999981881E+02 0.  0.
         12    1    1    2    0    0 -0.36495984815E+01  0.13882991055E+02 -0.28472165167E+02  0.31886065907E+02  0.00000000000E+00 0. -1.
         11    1    3    3    0    0  0.11741242168E+02  0.11296540802E+02  0.13305727212E+01  0.16347447072E+02  0.51100000000E-03 0. -1.
        -11    1    3    3    0    0 -0.69771692767E+01 -0.28715332608E+02  0.23474556196E+02  0.37739978892E+02  0.51100000000E-03 0.  1.
         12    1    3    3    0    0 -0.11144744101E+01  0.35358007512E+01  0.36670362501E+01  0.52145081285E+01  0.00000000000E+00 0. -1.
</event>
<event>
 7    1  0.7579108E-012  0.5930197E+02  0.7816164E-02  0.1266605E+00
        -11   -1    0    0    0    0  0.00000000000E+00  0.00000000000E+00  0.45593999997E+02  0.45594000000E+02  0.51100000000E-03 0.  1.
         11   -1    0    0    0    0 -0.00000000000E+00 -0.00000000000E+00 -0.45593999997E+02  0.45594000000E+02  0.51100000000E-03 0. -1.
    9900012    2    1    2    0    0  0.44532074227E+01  0.31532851569E+02  0.16022543962E+01  0.59301968519E+02  0.50000044667E+02 0.  0.
         12    1    1    2    0    0 -0.44532074227E+01 -0.31532851569E+02 -0.16022543962E+01  0.31886031481E+02  0.00000000000E+00 0. -1.
         11    1    3    3    0    0  0.22126292923E+02  0.31399815134E+02  0.31707660236E+01  0.38543157452E+02  0.51100000000E-03 0. -1.
        -11    1    3    3    0    0 -0.13272044090E+02  0.35099982758E+01 -0.45478514453E+01  0.14462025973E+02  0.51100000000E-03 0.  1.
        -12    1    3    3    0    0 -0.44010414100E+01 -0.33769618407E+01  0.29793398179E+01  0.62967850937E+01  0.00000000000E+00 0.  1.
</event>
<event>
 7    1  0.7579108E-012  0.5930194E+02  0.7816164E-02  0.1266605E+00
        -11   -1    0    0    0    0  0.00000000000E+00  0.00000000000E+00  0.45593999997E+02  0.45594000000E+02  0.51100000000E-03 0.  1.
         11   -1    0    0    0    0 -0.00000000000E+00 -0.00000000000E+00 -0.45593999997E+02  0.45594000000E+02  0.51100000000E-03 0. -1.
    9900012    2    1    2    0    0 -0.30855731840E+02  0.78036726297E+01 -0.19358382101E+01  0.59301937787E+02  0.49999988618E+02 0.  0.
         12    1    1    2    0    0  0.30855731840E+02 -0.78036726297E+01  0.19358382101E+01  0.31886062213E+02  0.00000000000E+00 0. -1.
         11    1    3    3    0    0 -0.17013546955E+01  0.85262933558E+01  0.13712419484E+02  0.16236463117E+02  0.51100000000E-03 0. -1.
        -11    1    3    3    0    0 -0.24109595535E+02  0.79427381781E+01 -0.19819911208E+02  0.32205412079E+02  0.51100000000E-03 0.  1.
        -12    1    3    3    0    0 -0.50447816092E+01 -0.86653589042E+01  0.41716535142E+01  0.10860062590E+02  0.00000000000E+00 0.  1.
</event>
<event>
 7    1  0.7579108E-012  0.5930191E+02  0.7816164E-02  0.1266605E+00
        -11   -1    0    0    0    0  0.00000000000E+00  0.00000000000E+00  0.45593999997E+02  0.45594000000E+02  0.51100000000E-03 0.  1.
         11   -1    0    0    0    0 -0.00000000000E+00 -0.00000000000E+00 -0.45593999997E+02  0.45594000000E+02  0.51100000000E-03 0. -1.
    9900012    2    1    2    0    0  0.17145988808E+02  0.26880386453E+02  0.42738331486E+00  0.59301909544E+02  0.49999937110E+02 0.  0.
         12    1    1    2    0    0 -0.17145988808E+02 -0.26880386453E+02 -0.42738331486E+00  0.31886090456E+02  0.00000000000E+00 0. -1.
         11    1    3    3    0    0 -0.34104623302E+01 -0.37196165986E+01  0.93059541891E+00  0.51315503545E+01  0.51100000000E-03 0. -1.
        -11    1    3    3    0    0  0.26263652970E+02  0.18912681720E+02 -0.14146099895E+02  0.35321114644E+02  0.51100000000E-03 0.  1.
        -12    1    3    3    0    0 -0.57072018314E+01  0.11687321332E+02  0.13642887791E+02  0.18849244546E+02  0.00000000000E+00 0.  1.
</event>
<event>
 7    1  0.7579108E-012  0.5930193E+02  0.7816164E-02  0.1266605E+00
        -11   -1    0    0    0    0  0.00000000000E+00  0.00000000000E+00  0.45593999997E+02  0.45594000000E+02  0.51100000000E-03 0.  1.
         11   -1    0    0    0    0 -0.00000000000E+00 -0.00000000000E+00 -0.45593999997E+02  0.45594000000E+02  0.51100000000E-03 0. -1.
    9900012    2    1    2    0    0 -0.30080064085E+02  0.61029680428E+01 -0.86408789560E+01  0.59301933083E+02  0.49999980039E+02 0.  0.
         12    1    1    2    0    0  0.30080064085E+02 -0.61029680428E+01  0.86408789560E+01  0.31886066917E+02  0.00000000000E+00 0. -1.
         11    1    3    3    0    0 -0.40253507595E+02  0.15012944128E+02 -0.56314170865E+01  0.43329507541E+02  0.51100000000E-03 0. -1.
        -11    1    3    3    0    0  0.37622606998E+01 -0.84601376137E+01 -0.17180378973E+01  0.94170159017E+01  0.51100000000E-03 0.  1.
         12    1    3    3    0    0  0.64111828100E+01 -0.44983847162E+00 -0.12914239722E+01  0.65554096401E+01  0.00000000000E+00 0. -1.
</event>
<event>
 7    1  0.7579108E-012  0.5930194E+02  0.7816164E-02  0.1266605E+00
        -11   -1    0    0    0    0  0.00000000000E+00  0.00000000000E+00  0.45593999997E+02  0.45594000000E+02  0.51100000000E-03 0.  1.
         11   -1    0    0    0    0 -0.00000000000E+00 -0.00000000000E+00 -0.45593999997E+02  0.45594000000E+02  0.51100000000E-03 0. -1.
    9900012    2    1    2    0    0 -0.14730413684E+02  0.73821063261E+01  0.27299093453E+02  0.59301935889E+02  0.49999985157E+02 0.  0.
         12    1    1    2    0    0  0.14730413684E+02 -0.73821063261E+01 -0.27299093453E+02  0.31886064111E+02  0.00000000000E+00 0. -1.
         11    1    3    3    0    0  0.27521507973E+01 -0.10364830912E+01 -0.13537254964E+02  0.13853010626E+02  0.51100000000E-03 0. -1.
        -11    1    3    3    0    0 -0.16337033843E+02  0.67345624370E+01  0.38418851988E+02  0.42287837428E+02  0.51100000000E-03 0.  1.
         12    1    3    3    0    0 -0.11455306385E+01  0.16840269804E+01  0.24174964286E+01  0.31610878344E+01  0.00000000000E+00 0. -1.
</event>
<event>
 7    1  0.7579108E-012  0.5930193E+02  0.7816164E-02  0.1266605E+00
        -11   -1    0    0    0    0  0.00000000000E+00  0.00000000000E+00  0.45593999997E+02  0.45594000000E+02  0.51100000000E-03 0.  1.
         11   -1    0    0    0    0 -0.00000000000E+00 -0.00000000000E+00 -0.45593999997E+02  0.45594000000E+02  0.51100000000E-03 0. -1.
    9900012    2    1    2    0    0 -0.14542178467E+02  0.18988388960E+02  0.21087616623E+02  0.59301930241E+02  0.49999974856E+02 0.  0.
         12    1    1    2    0    0  0.14542178467E+02 -0.18988388960E+02 -0.21087616623E+02  0.31886069759E+02  0.00000000000E+00 0. -1.
         11    1    3    3    0    0 -0.13344987433E+02  0.10171875824E+02 -0.64021417518E+01  0.17959486814E+02  0.51100000000E-03 0. -1.
        -11    1    3    3    0    0  0.85126775671E+01  0.14860415040E+02  0.23806894514E+02  0.29326879158E+02  0.51100000000E-03 0.  1.
         12    1    3    3    0    0 -0.97098686004E+01 -0.60439019035E+01  0.36828638614E+01  0.12015564268E+02  0.00000000000E+00 0. -1.
</event>
<event>
 7    1  0.7579108E-012  0.5930193E+02  0.7816164E-02  0.1266605E+00
        -11   -1    0    0    0    0  0.00000000000E+00  0.00000000000E+00  0.45593999997E+02  0.45594000000E+02  0.51100000000E-03 0.  1.
         11   -1    0    0    0    0 -0.00000000000E+00 -0.00000000000E+00 -0.45593999997E+02  0.45594000000E+02  0.51100000000E-03 0. -1.
    9900012    2    1    2    0    0 -0.18422328373E+01 -0.12311760560E+02  0.29355546331E+02  0.59301931407E+02  0.49999976983E+02 0.  0.
         12    1    1    2    0    0  0.18422328373E+01  0.12311760560E+02 -0.29355546331E+02  0.31886068593E+02  0.00000000000E+00 0. -1.
         11    1    3    3    0    0 -0.13123653957E+02  0.14971087373E+02  0.10308742797E+02  0.22419498849E+02  0.51100000000E-03 0. -1.
        -11    1    3    3    0    0  0.38794175686E+01 -0.87258916689E+00  0.38072315609E+01  0.55051162517E+01  0.51100000000E-03 0.  1.
         12    1    3    3    0    0  0.74020035513E+01 -0.26410258766E+02  0.15239571973E+02  0.31377316307E+02  0.00000000000E+00 0. -1.
</event>
<event>
 7    1  0.7579108E-012  0.5930177E+02  0.7816164E-02  0.1266605E+00
        -11   -1    0    0    0    0  0.00000000000E+00  0.00000000000E+00  0.45593999997E+02  0.45594000000E+02  0.51100000000E-03 0.  1.
         11   -1    0    0    0    0 -0.00000000000E+00 -0.00000000000E+00 -0.45593999997E+02  0.45594000000E+02  0.51100000000E-03 0. -1.
    9900012    2    1    2    0    0  0.19437144333E+02  0.84500015834E-01  0.25276907777E+02  0.59301768067E+02  0.49999679090E+02 0.  0.
         12    1    1    2    0    0 -0.19437144333E+02 -0.84500015834E-01 -0.25276907777E+02  0.31886231933E+02  0.00000000000E+00 0. -1.
         11    1    3    3    0    0  0.17136534423E+01  0.14645428913E+02  0.14203465837E+02  0.20473486225E+02  0.51100000000E-03 0. -1.
        -11    1    3    3    0    0  0.12005560933E+02 -0.21965378590E+02  0.14424717937E+02  0.28890895412E+02  0.51100000000E-03 0.  1.
        -12    1    3    3    0    0  0.57179299577E+01  0.74044496927E+01 -0.33512759962E+01  0.99373864298E+01  0.00000000000E+00 0.  1.
</event>
<event>
 7    1  0.7579108E-012  0.5930197E+02  0.7816164E-02  0.1266605E+00
        -11   -1    0    0    0    0  0.00000000000E+00  0.00000000000E+00  0.45593999997E+02  0.45594000000E+02  0.51100000000E-03 0.  1.
         11   -1    0    0    0    0 -0.00000000000E+00 -0.00000000000E+00 -0.45593999997E+02  0.45594000000E+02  0.51100000000E-03 0. -1.
    9900012    2    1    2    0    0  0.11471607973E+02 -0.29740496301E+02  0.78988807890E+00  0.59301971196E+02  0.50000049549E+02 0.  0.
         12    1    1    2    0    0 -0.11471607973E+02  0.29740496301E+02 -0.78988807890E+00  0.31886028804E+02  0.00000000000E+00 0. -1.
         11    1    3    3    0    0 -0.28033095134E+01  0.82434430252E+01 -0.20292301893E+01  0.89403955483E+01  0.51100000000E-03 0. -1.
        -11    1    3    3    0    0 -0.23201876047E+01 -0.31634266251E+02  0.60793035829E+01  0.32296563348E+02  0.51100000000E-03 0.  1.
        -12    1    3    3    0    0  0.16595105091E+02 -0.63496730752E+01 -0.32601853147E+01  0.18065012300E+02  0.00000000000E+00 0.  1.
</event>
<event>
 7    1  0.7579108E-012  0.5930193E+02  0.7816164E-02  0.1266605E+00
        -11   -1    0    0    0    0  0.00000000000E+00  0.00000000000E+00  0.45593999997E+02  0.45594000000E+02  0.51100000000E-03 0.  1.
         11   -1    0    0    0    0 -0.00000000000E+00 -0.00000000000E+00 -0.45593999997E+02  0.45594000000E+02  0.51100000000E-03 0. -1.
    9900012    2    1    2    0    0  0.13617393358E+02 -0.19084335503E+02  0.21611951517E+02  0.59301926051E+02  0.49999967216E+02 0.  0.
         12    1    1    2    0    0 -0.13617393358E+02  0.19084335503E+02 -0.21611951517E+02  0.31886073949E+02  0.00000000000E+00 0. -1.
         11    1    3    3    0    0 -0.16825680102E+02 -0.14293429136E+02  0.14342502777E+02  0.26327039589E+02  0.51100000000E-03 0. -1.
        -11    1    3    3    0    0  0.17431678046E+02 -0.13210586881E+01 -0.38385885901E+00  0.17485878401E+02  0.51100000000E-03 0.  1.
         12    1    3    3    0    0  0.13011395414E+02 -0.34698476796E+01  0.76533075989E+01  0.15489008062E+02  0.00000000000E+00 0. -1.
</event>
<event>
 7    1  0.7579108E-012  0.5930194E+02  0.7816164E-02  0.1266605E+00
        -11   -1    0    0    0    0  0.00000000000E+00  0.00000000000E+00  0.45593999997E+02  0.45594000000E+02  0.51100000000E-03 0.  1.
         11   -1    0    0    0    0 -0.00000000000E+00 -0.00000000000E+00 -0.45593999997E+02  0.45594000000E+02  0.51100000000E-03 0. -1.
    9900012    2    1    2    0    0 -0.21975644584E+02 -0.49481853222E+00  0.23098640594E+02  0.59301937252E+02  0.49999987643E+02 0.  0.
         12    1    1    2    0    0  0.21975644584E+02  0.49481853222E+00 -0.23098640594E+02  0.31886062748E+02  0.00000000000E+00 0. -1.
         11    1    3    3    0    0  0.90612484940E+01  0.10166391540E+02  0.13354927618E+02  0.19073956935E+02  0.51100000000E-03 0. -1.
        -11    1    3    3    0    0 -0.18391472563E+02 -0.13752870361E+02  0.13550835443E+02  0.26664824163E+02  0.51100000000E-03 0.  1.
        -12    1    3    3    0    0 -0.12645420515E+02  0.30916602885E+01 -0.38071224675E+01  0.13563156153E+02  0.00000000000E+00 0.  1.
</event>
<event>
 7    1  0.7579108E-012  0.5930195E+02  0.7816164E-02  0.1266605E+00
        -11   -1    0    0    0    0  0.00000000000E+00  0.00000000000E+00  0.45593999997E+02  0.45594000000E+02  0.51100000000E-03 0.  1.
         11   -1    0    0    0    0 -0.00000000000E+00 -0.00000000000E+00 -0.45593999997E+02  0.45594000000E+02  0.51100000000E-03 0. -1.
    9900012    2    1    2    0    0 -0.82357440641E+01 -0.24076352697E+02  0.19215144652E+02  0.59301952526E+02  0.50000015500E+02 0.  0.
         12    1    1    2    0    0  0.82357440641E+01  0.24076352697E+02 -0.19215144652E+02  0.31886047474E+02  0.00000000000E+00 0. -1.
         11    1    3    3    0    0  0.11318414722E+02 -0.71775192727E+01 -0.10837743488E+02  0.17236008206E+02  0.51100000000E-03 0. -1.
        -11    1    3    3    0    0 -0.19027946031E+02 -0.18130443533E+02  0.23118615323E+02  0.35003515360E+02  0.51100000000E-03 0.  1.
         12    1    3    3    0    0 -0.52621275475E+00  0.12316101080E+01  0.69342728164E+01  0.70624289599E+01  0.00000000000E+00 0. -1.
</event>
<event>
 7    1  0.7579108E-012  0.5930187E+02  0.7816164E-02  0.1266605E+00
        -11   -1    0    0    0    0  0.00000000000E+00  0.00000000000E+00  0.45593999997E+02  0.45594000000E+02  0.51100000000E-03 0.  1.
         11   -1    0    0    0    0 -0.00000000000E+00 -0.00000000000E+00 -0.45593999997E+02  0.45594000000E+02  0.51100000000E-03 0. -1.
    9900012    2    1    2    0    0 -0.11119549531E+02 -0.29744867226E+02 -0.28850492038E+01  0.59301874224E+02  0.49999872695E+02 0.  0.
         12    1    1    2    0    0  0.11119549531E+02  0.29744867226E+02  0.28850492038E+01  0.31886125776E+02  0.00000000000E+00 0. -1.
         11    1    3    3    0    0 -0.18596237370E+00 -0.19085463943E+02  0.14126729769E+02  0.23745610334E+02  0.51100000000E-03 0.  1.
        -11    1    3    3    0    0  0.17276203897E+00 -0.17941109861E+02 -0.97646462821E+01  0.20426981839E+02  0.51100000000E-03 0. -1.
         12    1    3    3    0    0 -0.11106349196E+02  0.72817065779E+01 -0.72471326903E+01  0.15129282051E+02  0.00000000000E+00 0. -1.
</event>
<event>
 7    1  0.7579108E-012  0.5930195E+02  0.7816164E-02  0.1266605E+00
        -11   -1    0    0    0    0  0.00000000000E+00  0.00000000000E+00  0.45593999997E+02  0.45594000000E+02  0.51100000000E-03 0. -1.
         11   -1    0    0    0    0 -0.00000000000E+00 -0.00000000000E+00 -0.45593999997E+02  0.45594000000E+02  0.51100000000E-03 0.  1.
    9900012    2    1    2    0    0  0.25383267105E+02  0.18375225403E+02 -0.58958233449E+01  0.59301954613E+02  0.50000019305E+02 0.  0.
         12    1    1    2    0    0 -0.25383267105E+02 -0.18375225403E+02  0.58958233449E+01  0.31886045387E+02  0.00000000000E+00 0. -1.
         11    1    3    3    0    0  0.86917324003E+01  0.27383679162E+02  0.96907003231E+01  0.30320319417E+02  0.51100000000E-03 0. -1.
        -11    1    3    3    0    0  0.12536289704E+02 -0.21326150386E+01 -0.15525606534E+01  0.12810817745E+02  0.51100000000E-03 0.  1.
         12    1    3    3    0    0  0.41552450002E+01 -0.68758387206E+01 -0.14033963015E+02  0.16170817451E+02  0.00000000000E+00 0. -1.
</event>
<event>
 7    1  0.7579108E-012  0.5930191E+02  0.7816164E-02  0.1266605E+00
        -11   -1    0    0    0    0  0.00000000000E+00  0.00000000000E+00  0.45593999997E+02  0.45594000000E+02  0.51100000000E-03 0.  1.
         11   -1    0    0    0    0 -0.00000000000E+00 -0.00000000000E+00 -0.45593999997E+02  0.45594000000E+02  0.51100000000E-03 0. -1.
    9900012    2    1    2    0    0 -0.14704666728E+02 -0.52785275829E+01  0.27796274534E+02  0.59301906558E+02  0.49999931664E+02 0.  0.
         12    1    1    2    0    0  0.14704666728E+02  0.52785275829E+01 -0.27796274534E+02  0.31886093442E+02  0.00000000000E+00 0. -1.
         11    1    3    3    0    0 -0.27793042067E+02 -0.32275132367E+01  0.41425802000E+01  0.28284819250E+02  0.51100000000E-03 0. -1.
        -11    1    3    3    0    0  0.98193718586E+01 -0.81979383539E+01  0.12610667965E+02  0.17962605706E+02  0.51100000000E-03 0.  1.
        -12    1    3    3    0    0  0.32690034804E+01  0.61469240077E+01  0.11043026369E+02  0.13054481602E+02  0.00000000000E+00 0.  1.
</event>
<event>
 7    1  0.7579108E-012  0.5930192E+02  0.7816164E-02  0.1266605E+00
        -11   -1    0    0    0    0  0.00000000000E+00  0.00000000000E+00  0.45593999997E+02  0.45594000000E+02  0.51100000000E-03 0.  1.
         11   -1    0    0    0    0 -0.00000000000E+00 -0.00000000000E+00 -0.45593999997E+02  0.45594000000E+02  0.51100000000E-03 0. -1.
    9900012    2    1    2    0    0 -0.22646639772E+01 -0.11463557499E+01  0.31784894645E+02  0.59301915856E+02  0.49999948621E+02 0.  0.
         12    1    1    2    0    0  0.22646639772E+01  0.11463557499E+01 -0.31784894645E+02  0.31886084144E+02  0.00000000000E+00 0. -1.
         11    1    3    3    0    0  0.11078983619E+02 -0.66029093309E+01  0.45918721336E+01  0.13690419263E+02  0.51100000000E-03 0. -1.
        -11    1    3    3    0    0 -0.11637981361E+02 -0.40562441256E+01 -0.39985333891E+01  0.12957005676E+02  0.51100000000E-03 0.  1.
        -12    1    3    3    0    0 -0.17056662354E+01  0.95127977067E+01  0.31191555901E+02  0.32654490917E+02  0.00000000000E+00 0.  1.
</event>
<event>
 7    1  0.7579108E-012  0.5930193E+02  0.7816164E-02  0.1266605E+00
        -11   -1    0    0    0    0  0.00000000000E+00  0.00000000000E+00  0.45593999997E+02  0.45594000000E+02  0.51100000000E-03 0.  1.
         11   -1    0    0    0    0 -0.00000000000E+00 -0.00000000000E+00 -0.45593999997E+02  0.45594000000E+02  0.51100000000E-03 0. -1.
    9900012    2    1    2    0    0 -0.12899283262E+02  0.72313430625E+01  0.28249560476E+02  0.59301929401E+02  0.49999973324E+02 0.  0.
         12    1    1    2    0    0  0.12899283262E+02 -0.72313430625E+01 -0.28249560476E+02  0.31886070599E+02  0.00000000000E+00 0. -1.
         11    1    3    3    0    0  0.14701502330E+02  0.13810809972E+01  0.22894239812E+02  0.27243123395E+02  0.51100000000E-03 0. -1.
        -11    1    3    3    0    0 -0.97297096219E+00  0.48020849055E+01  0.15565751906E+01  0.51409744716E+01  0.51100000000E-03 0.  1.
         12    1    3    3    0    0 -0.26627814630E+02  0.10481771598E+01  0.37987454730E+01  0.26917831534E+02  0.00000000000E+00 0. -1.
</event>
<event>
 7    1  0.7579108E-012  0.5930191E+02  0.7816164E-02  0.1266605E+00
        -11   -1    0    0    0    0  0.00000000000E+00  0.00000000000E+00  0.45593999997E+02  0.45594000000E+02  0.51100000000E-03 0. -1.
         11   -1    0    0    0    0 -0.00000000000E+00 -0.00000000000E+00 -0.45593999997E+02  0.45594000000E+02  0.51100000000E-03 0.  1.
    9900012    2    1    2    0    0 -0.25424091745E+02  0.16949176011E+02 -0.91139138280E+01  0.59301914731E+02  0.49999946570E+02 0.  0.
         12    1    1    2    0    0  0.25424091745E+02 -0.16949176011E+02  0.91139138280E+01  0.31886085269E+02  0.00000000000E+00 0. -1.
         11    1    3    3    0    0  0.96303481495E+00  0.12336480187E+02  0.12190234625E+02  0.17370031662E+02  0.51100000000E-03 0. -1.
        -11    1    3    3    0    0 -0.20340462527E+02  0.11566239088E+02 -0.61461850072E+01  0.24192723965E+02  0.51100000000E-03 0.  1.
         12    1    3    3    0    0 -0.60466640332E+01 -0.69535432643E+01 -0.15157963446E+02  0.17739159103E+02  0.00000000000E+00 0. -1.
</event>
<event>
 7    1  0.7579108E-012  0.5930195E+02  0.7816164E-02  0.1266605E+00
        -11   -1    0    0    0    0  0.00000000000E+00  0.00000000000E+00  0.45593999997E+02  0.45594000000E+02  0.51100000000E-03 0.  1.
         11   -1    0    0    0    0 -0.00000000000E+00 -0.00000000000E+00 -0.45593999997E+02  0.45594000000E+02  0.51100000000E-03 0. -1.
    9900012    2    1    2    0    0 -0.30565983072E+02 -0.74322378703E+01  0.52156083220E+01  0.59301952094E+02  0.50000014711E+02 0.  0.
         12    1    1    2    0    0  0.30565983072E+02  0.74322378703E+01 -0.52156083220E+01  0.31886047906E+02  0.00000000000E+00 0. -1.
         11    1    3    3    0    0 -0.56716846702E+01 -0.38347047393E+01  0.25521872673E+02  0.26424211482E+02  0.51100000000E-03 0.  1.
        -11    1    3    3    0    0 -0.21351758821E+02 -0.51127489522E+01 -0.16525523752E+02  0.27479642322E+02  0.51100000000E-03 0. -1.
        -12    1    3    3    0    0 -0.35425395804E+01  0.15152158212E+01 -0.37807405996E+01  0.53980982896E+01  0.00000000000E+00 0.  1.
</event>
<event>
 7    1  0.7579108E-012  0.5930195E+02  0.7816164E-02  0.1266605E+00
        -11   -1    0    0    0    0  0.00000000000E+00  0.00000000000E+00  0.45593999997E+02  0.45594000000E+02  0.51100000000E-03 0.  1.
         11   -1    0    0    0    0 -0.00000000000E+00 -0.00000000000E+00 -0.45593999997E+02  0.45594000000E+02  0.51100000000E-03 0. -1.
    9900012    2    1    2    0    0 -0.84219310151E+01 -0.11312893321E+02  0.28597366929E+02  0.59301954893E+02  0.50000019815E+02 0.  0.
         12    1    1    2    0    0  0.84219310151E+01  0.11312893321E+02 -0.28597366929E+02  0.31886045107E+02  0.00000000000E+00 0. -1.
         11    1    3    3    0    0 -0.55106598605E+01  0.81257216689E+01  0.27863915525E+02  0.29543062017E+02  0.51100000000E-03 0. -1.
        -11    1    3    3    0    0 -0.95953177731E+01 -0.14447142286E+02  0.76181261210E+01  0.18942700157E+02  0.51100000000E-03 0.  1.
         12    1    3    3    0    0  0.66840466185E+01 -0.49914727048E+01 -0.68846747171E+01  0.10816192718E+02  0.00000000000E+00 0. -1.
</event>
<event>
 7    1  0.7579108E-012  0.5930195E+02  0.7816164E-02  0.1266605E+00
        -11   -1    0    0    0    0  0.00000000000E+00  0.00000000000E+00  0.45593999997E+02  0.45594000000E+02  0.51100000000E-03 0. -1.
         11   -1    0    0    0    0 -0.00000000000E+00 -0.00000000000E+00 -0.45593999997E+02  0.45594000000E+02  0.51100000000E-03 0.  1.
    9900012    2    1    2    0    0 -0.46881014260E+01 -0.28979093281E+02 -0.12448055084E+02  0.59301949480E+02  0.50000009944E+02 0.  0.
         12    1    1    2    0    0  0.46881014260E+01  0.28979093281E+02  0.12448055084E+02  0.31886050520E+02  0.00000000000E+00 0. -1.
         11    1    3    3    0    0  0.19590290545E+01 -0.22613044002E+02 -0.25185583321E+02  0.33904294144E+02  0.51100000000E-03 0.  1.
        -11    1    3    3    0    0 -0.12293499951E+02 -0.50091031049E+01  0.14169695538E+02  0.19416527157E+02  0.51100000000E-03 0. -1.
         12    1    3    3    0    0  0.56463694708E+01 -0.13569461735E+01 -0.14321673008E+01  0.59811281792E+01  0.00000000000E+00 0. -1.
</event>
<event>
 7    1  0.7579108E-012  0.5930234E+02  0.7816164E-02  0.1266603E+00
        -11   -1    0    0    0    0  0.00000000000E+00  0.00000000000E+00  0.45593999997E+02  0.45594000000E+02  0.51100000000E-03 0.  1.
         11   -1    0    0    0    0 -0.00000000000E+00 -0.00000000000E+00 -0.45593999997E+02  0.45594000000E+02  0.51100000000E-03 0. -1.
    9900012    2    1    2    0    0 -0.10188859865E+02 -0.29275384423E+02  0.74722259682E+01  0.59302342419E+02  0.50000726565E+02 0.  0.
         12    1    1    2    0    0  0.10188859865E+02  0.29275384423E+02 -0.74722259682E+01  0.31885657581E+02  0.00000000000E+00 0. -1.
         11    1    3    3    0    0  0.96549343506E+01 -0.12594801248E+02  0.94162832259E+01  0.18452998831E+02  0.51100000000E-03 0. -1.
        -11    1    3    3    0    0 -0.15111862107E+02 -0.22369030281E+02  0.82729121540E+01  0.28234428768E+02  0.51100000000E-03 0.  1.
         12    1    3    3    0    0 -0.47319321082E+01  0.56884471072E+01 -0.10216969412E+02  0.12614914821E+02  0.00000000000E+00 0. -1.
</event>
<event>
 7    1  0.7579108E-012  0.5930195E+02  0.7816164E-02  0.1266605E+00
        -11   -1    0    0    0    0  0.00000000000E+00  0.00000000000E+00  0.45593999997E+02  0.45594000000E+02  0.51100000000E-03 0. -1.
         11   -1    0    0    0    0 -0.00000000000E+00 -0.00000000000E+00 -0.45593999997E+02  0.45594000000E+02  0.51100000000E-03 0.  1.
    9900012    2    1    2    0    0  0.15929041670E+02  0.27621384483E+02 -0.21242368177E+00  0.59301947044E+02  0.50000005501E+02 0.  0.
         12    1    1    2    0    0 -0.15929041670E+02 -0.27621384483E+02  0.21242368177E+00  0.31886052956E+02  0.00000000000E+00 0. -1.
         11    1    3    3    0    0 -0.50639321026E+01 -0.62103229416E+01  0.95581140554E+00  0.80700120869E+01  0.51100000000E-03 0. -1.
        -11    1    3    3    0    0 -0.27108271163E+00  0.16899199345E+02 -0.13259462461E+02  0.21481847438E+02  0.51100000000E-03 0.  1.
         12    1    3    3    0    0  0.21264056484E+02  0.16932508080E+02  0.12091227373E+02  0.29750087520E+02  0.00000000000E+00 0. -1.
</event>
<event>
 7    1  0.7579108E-012  0.5930194E+02  0.7816164E-02  0.1266605E+00
        -11   -1    0    0    0    0  0.00000000000E+00  0.00000000000E+00  0.45593999997E+02  0.45594000000E+02  0.51100000000E-03 0. -1.
         11   -1    0    0    0    0 -0.00000000000E+00 -0.00000000000E+00 -0.45593999997E+02  0.45594000000E+02  0.51100000000E-03 0.  1.
    9900012    2    1    2    0    0 -0.26951536886E+02  0.15472741124E+02 -0.71365142524E+01  0.59301938875E+02  0.49999990602E+02 0.  0.
         12    1    1    2    0    0  0.26951536886E+02 -0.15472741124E+02  0.71365142524E+01  0.31886061125E+02  0.00000000000E+00 0. -1.
         11    1    3    3    0    0  0.72544700314E-01 -0.63555594057E+01  0.64451097072E+01  0.90519521370E+01  0.51100000000E-03 0. -1.
        -11    1    3    3    0    0 -0.26182582842E+02  0.29551537595E+02 -0.15213325428E+02  0.42311538489E+02  0.51100000000E-03 0.  1.
        -12    1    3    3    0    0 -0.84149874467E+00 -0.77232370657E+01  0.16317014680E+01  0.79384482483E+01  0.00000000000E+00 0.  1.
</event>
<event>
 7    1  0.7579108E-012  0.5930194E+02  0.7816164E-02  0.1266605E+00
        -11   -1    0    0    0    0  0.00000000000E+00  0.00000000000E+00  0.45593999997E+02  0.45594000000E+02  0.51100000000E-03 0. -1.
         11   -1    0    0    0    0 -0.00000000000E+00 -0.00000000000E+00 -0.45593999997E+02  0.45594000000E+02  0.51100000000E-03 0.  1.
    9900012    2    1    2    0    0  0.19190654296E+01 -0.11297614182E+02 -0.29755707889E+02  0.59301936425E+02  0.49999986134E+02 0.  0.
         12    1    1    2    0    0 -0.19190654296E+01  0.11297614182E+02  0.29755707889E+02  0.31886063575E+02  0.00000000000E+00 0. -1.
         11    1    3    3    0    0  0.23704224176E+02 -0.18244619201E+01 -0.14567407181E+02  0.27882400494E+02  0.51100000000E-03 0. -1.
        -11    1    3    3    0    0 -0.17579523038E+02 -0.19607909831E+01 -0.56469104060E+01  0.18568035139E+02  0.51100000000E-03 0.  1.
         12    1    3    3    0    0 -0.42056357084E+01 -0.75123612787E+01 -0.95413903024E+01  0.12851500792E+02  0.00000000000E+00 0. -1.
</event>
<event>
 7    1  0.7579108E-012  0.5930193E+02  0.7816164E-02  0.1266605E+00
        -11   -1    0    0    0    0  0.00000000000E+00  0.00000000000E+00  0.45593999997E+02  0.45594000000E+02  0.51100000000E-03 0.  1.
         11   -1    0    0    0    0 -0.00000000000E+00 -0.00000000000E+00 -0.45593999997E+02  0.45594000000E+02  0.51100000000E-03 0. -1.
    9900012    2    1    2    0    0  0.30469306923E+02  0.89814510750E+01  0.27706343211E+01  0.59301928710E+02  0.49999972064E+02 0.  0.
         12    1    1    2    0    0 -0.30469306923E+02 -0.89814510750E+01 -0.27706343211E+01  0.31886071290E+02  0.00000000000E+00 0. -1.
         11    1    3    3    0    0 -0.71445636267E+01 -0.49939711422E+01 -0.79027755078E+01  0.11765984794E+02  0.51100000000E-03 0. -1.
        -11    1    3    3    0    0  0.27846023744E+02  0.66587813541E+01 -0.34863069880E+01  0.28842585601E+02  0.51100000000E-03 0.  1.
        -12    1    3    3    0    0  0.97678468054E+01  0.73166408631E+01  0.14159716817E+02  0.18693358314E+02  0.00000000000E+00 0.  1.
</event>
<event>
 7    1  0.7579108E-012  0.5930192E+02  0.7816164E-02  0.1266605E+00
        -11   -1    0    0    0    0  0.00000000000E+00  0.00000000000E+00  0.45593999997E+02  0.45594000000E+02  0.51100000000E-03 0.  1.
         11   -1    0    0    0    0 -0.00000000000E+00 -0.00000000000E+00 -0.45593999997E+02  0.45594000000E+02  0.51100000000E-03 0. -1.
    9900012    2    1    2    0    0  0.20014367361E+02 -0.94524895808E+01  0.22952068570E+02  0.59301922916E+02  0.49999961498E+02 0.  0.
         12    1    1    2    0    0 -0.20014367361E+02  0.94524895808E+01 -0.22952068570E+02  0.31886077084E+02  0.00000000000E+00 0. -1.
         11    1    3    3    0    0  0.21080896285E+01  0.35442998036E-01 -0.39789858737E+01  0.45030686129E+01  0.51100000000E-03 0. -1.
        -11    1    3    3    0    0  0.19839668220E+02  0.35169480283E+01  0.34260392853E+02  0.39746142923E+02  0.51100000000E-03 0.  1.
        -12    1    3    3    0    0 -0.19333904878E+01 -0.13004880607E+02 -0.73293384094E+01  0.15052711381E+02  0.00000000000E+00 0.  1.
</event>
<event>
 7    1  0.7579108E-012  0.5930193E+02  0.7816164E-02  0.1266605E+00
        -11   -1    0    0    0    0  0.00000000000E+00  0.00000000000E+00  0.45593999997E+02  0.45594000000E+02  0.51100000000E-03 0.  1.
         11   -1    0    0    0    0 -0.00000000000E+00 -0.00000000000E+00 -0.45593999997E+02  0.45594000000E+02  0.51100000000E-03 0. -1.
    9900012    2    1    2    0    0 -0.82010299992E+01 -0.22827379713E+02  0.20697228762E+02  0.59301930377E+02  0.49999975104E+02 0.  0.
         12    1    1    2    0    0  0.82010299992E+01  0.22827379713E+02 -0.20697228762E+02  0.31886069623E+02  0.00000000000E+00 0. -1.
         11    1    3    3    0    0 -0.13750273910E+02 -0.35821265728E+02  0.99615119689E+01  0.39641705714E+02  0.51100000000E-03 0. -1.
        -11    1    3    3    0    0  0.19516393302E+01  0.10203096249E+02  0.10960980873E+02  0.15101495658E+02  0.51100000000E-03 0.  1.
         12    1    3    3    0    0  0.35976045801E+01  0.27907897664E+01 -0.22526407969E+00  0.45587290050E+01  0.00000000000E+00 0. -1.
</event>
<event>
 7    1  0.7579108E-012  0.5930197E+02  0.7816164E-02  0.1266605E+00
        -11   -1    0    0    0    0  0.00000000000E+00  0.00000000000E+00  0.45593999997E+02  0.45594000000E+02  0.51100000000E-03 0.  1.
         11   -1    0    0    0    0 -0.00000000000E+00 -0.00000000000E+00 -0.45593999997E+02  0.45594000000E+02  0.51100000000E-03 0. -1.
    9900012    2    1    2    0    0 -0.26594855497E+02  0.13269277742E+02  0.11548102976E+02  0.59301972448E+02  0.50000051832E+02 0.  0.
         12    1    1    2    0    0  0.26594855497E+02 -0.13269277742E+02 -0.11548102976E+02  0.31886027552E+02  0.00000000000E+00 0. -1.
         11    1    3    3    0    0 -0.95693665896E+01 -0.98394915322E+01  0.61206947798E+01  0.15028349057E+02  0.51100000000E-03 0. -1.
        -11    1    3    3    0    0 -0.24325992872E+02  0.13328902837E+02  0.12215136150E+02  0.30308796273E+02  0.51100000000E-03 0.  1.
        -12    1    3    3    0    0  0.73005039647E+01  0.97798664369E+01 -0.67877279538E+01  0.13964827118E+02  0.00000000000E+00 0.  1.
</event>
<event>
 7    1  0.7579108E-012  0.5930192E+02  0.7816164E-02  0.1266605E+00
        -11   -1    0    0    0    0  0.00000000000E+00  0.00000000000E+00  0.45593999997E+02  0.45594000000E+02  0.51100000000E-03 0. -1.
         11   -1    0    0    0    0 -0.00000000000E+00 -0.00000000000E+00 -0.45593999997E+02  0.45594000000E+02  0.51100000000E-03 0.  1.
    9900012    2    1    2    0    0  0.31860636409E+02 -0.10872185956E+01 -0.66305663750E+00  0.59301924030E+02  0.49999963528E+02 0.  0.
         12    1    1    2    0    0 -0.31860636409E+02  0.10872185956E+01  0.66305663750E+00  0.31886075970E+02  0.00000000000E+00 0. -1.
         11    1    3    3    0    0 -0.48983766373E+01 -0.10052573469E+02  0.87401947818E+01  0.14192932470E+02  0.51100000000E-03 0. -1.
        -11    1    3    3    0    0  0.20516767132E+02  0.16379920393E+02 -0.51235799349E+01  0.26748655990E+02  0.51100000000E-03 0.  1.
        -12    1    3    3    0    0  0.16242245915E+02 -0.74145655204E+01 -0.42796714844E+01  0.18360335570E+02  0.00000000000E+00 0.  1.
</event>
<event>
 7    1  0.7579108E-012  0.5930194E+02  0.7816164E-02  0.1266605E+00
        -11   -1    0    0    0    0  0.00000000000E+00  0.00000000000E+00  0.45593999997E+02  0.45594000000E+02  0.51100000000E-03 0.  1.
         11   -1    0    0    0    0 -0.00000000000E+00 -0.00000000000E+00 -0.45593999997E+02  0.45594000000E+02  0.51100000000E-03 0. -1.
    9900012    2    1    2    0    0 -0.28869653893E+02  0.12895200411E+02  0.41204061884E+01  0.59301939461E+02  0.49999991671E+02 0.  0.
         12    1    1    2    0    0  0.28869653893E+02 -0.12895200411E+02 -0.41204061884E+01  0.31886060539E+02  0.00000000000E+00 0. -1.
         11    1    3    3    0    0  0.68026889911E+01  0.76638537834E+01  0.59493099916E+01  0.11849283605E+02  0.51100000000E-03 0. -1.
        -11    1    3    3    0    0 -0.20550933666E+02 -0.58945956554E+01 -0.13558220903E+02  0.25316249461E+02  0.51100000000E-03 0.  1.
        -12    1    3    3    0    0 -0.15121409218E+02  0.11125942283E+02  0.11729317100E+02  0.22136406395E+02  0.00000000000E+00 0.  1.
</event>
<event>
 7    1  0.7579108E-012  0.5930194E+02  0.7816164E-02  0.1266605E+00
        -11   -1    0    0    0    0  0.00000000000E+00  0.00000000000E+00  0.45593999997E+02  0.45594000000E+02  0.51100000000E-03 0. -1.
         11   -1    0    0    0    0 -0.00000000000E+00 -0.00000000000E+00 -0.45593999997E+02  0.45594000000E+02  0.51100000000E-03 0.  1.
    9900012    2    1    2    0    0 -0.25643478016E+02  0.18722873982E+02  0.29302975147E+01  0.59301943198E+02  0.49999998486E+02 0.  0.
         12    1    1    2    0    0  0.25643478016E+02 -0.18722873982E+02 -0.29302975147E+01  0.31886056802E+02  0.00000000000E+00 0. -1.
         11    1    3    3    0    0 -0.10645822444E+02 -0.13454138283E+02 -0.10144570213E+02  0.19931374200E+02  0.51100000000E-03 0. -1.
        -11    1    3    3    0    0 -0.11689074559E+02  0.31470089461E+02  0.10691916380E+02  0.35232344101E+02  0.51100000000E-03 0.  1.
        -12    1    3    3    0    0 -0.33085810125E+01  0.70692280368E+00  0.23829513475E+01  0.41382248962E+01  0.00000000000E+00 0.  1.
</event>
<event>
 7    1  0.7579108E-012  0.5930193E+02  0.7816164E-02  0.1266605E+00
        -11   -1    0    0    0    0  0.00000000000E+00  0.00000000000E+00  0.45593999997E+02  0.45594000000E+02  0.51100000000E-03 0.  1.
         11   -1    0    0    0    0 -0.00000000000E+00 -0.00000000000E+00 -0.45593999997E+02  0.45594000000E+02  0.51100000000E-03 0. -1.
    9900012    2    1    2    0    0 -0.99269152750E+01 -0.34984476237E+00  0.30299434326E+02  0.59301925317E+02  0.49999965876E+02 0.  0.
         12    1    1    2    0    0  0.99269152750E+01  0.34984476237E+00 -0.30299434326E+02  0.31886074683E+02  0.00000000000E+00 0. -1.
         11    1    3    3    0    0 -0.22490831051E+02 -0.55437376259E+01  0.12146644973E+02  0.26155525087E+02  0.51100000000E-03 0. -1.
        -11    1    3    3    0    0  0.12432703164E+02 -0.72541618200E+01  0.55364077972E+01  0.15422282037E+02  0.51100000000E-03 0.  1.
         12    1    3    3    0    0  0.13121261172E+00  0.12448054684E+02  0.12616381556E+02  0.17724118193E+02  0.00000000000E+00 0. -1.
</event>
<event>
 7    1  0.7579108E-012  0.5930195E+02  0.7816164E-02  0.1266605E+00
        -11   -1    0    0    0    0  0.00000000000E+00  0.00000000000E+00  0.45593999997E+02  0.45594000000E+02  0.51100000000E-03 0.  1.
         11   -1    0    0    0    0 -0.00000000000E+00 -0.00000000000E+00 -0.45593999997E+02  0.45594000000E+02  0.51100000000E-03 0. -1.
    9900012    2    1    2    0    0  0.10303775677E+02 -0.41068339269E+00  0.30172569491E+02  0.59301946564E+02  0.50000004625E+02 0.  0.
         12    1    1    2    0    0 -0.10303775677E+02  0.41068339269E+00 -0.30172569491E+02  0.31886053436E+02  0.00000000000E+00 0. -1.
         11    1    3    3    0    0  0.11803808537E+02 -0.12415492925E+02  0.13943265283E+02  0.22088209696E+02  0.51100000000E-03 0. -1.
        -11    1    3    3    0    0 -0.13964495189E+01  0.22248155325E+02  0.68396822773E+01  0.23317627249E+02  0.51100000000E-03 0.  1.
         12    1    3    3    0    0 -0.10358334097E+00 -0.10243345792E+02  0.93896219306E+01  0.13896109619E+02  0.00000000000E+00 0. -1.
</event>
<event>
 7    1  0.7579108E-012  0.5930195E+02  0.7816164E-02  0.1266605E+00
        -11   -1    0    0    0    0  0.00000000000E+00  0.00000000000E+00  0.45593999997E+02  0.45594000000E+02  0.51100000000E-03 0.  1.
         11   -1    0    0    0    0 -0.00000000000E+00 -0.00000000000E+00 -0.45593999997E+02  0.45594000000E+02  0.51100000000E-03 0. -1.
    9900012    2    1    2    0    0  0.15856116068E+02 -0.12665256135E+02  0.24594609482E+02  0.59301953753E+02  0.50000017736E+02 0.  0.
         12    1    1    2    0    0 -0.15856116068E+02  0.12665256135E+02 -0.24594609482E+02  0.31886046247E+02  0.00000000000E+00 0. -1.
         11    1    3    3    0    0  0.55022727042E+01 -0.90929439058E+01  0.26005385447E+01  0.10941637664E+02  0.51100000000E-03 0. -1.
        -11    1    3    3    0    0 -0.15742230374E+02 -0.58942768611E+01  0.73495887629E+01  0.18346028783E+02  0.51100000000E-03 0.  1.
        -12    1    3    3    0    0  0.26096073738E+02  0.23219646320E+01  0.14644482174E+02  0.30014287305E+02  0.00000000000E+00 0.  1.
</event>
<event>
 7    1  0.7579108E-012  0.5930198E+02  0.7816164E-02  0.1266605E+00
        -11   -1    0    0    0    0  0.00000000000E+00  0.00000000000E+00  0.45593999997E+02  0.45594000000E+02  0.51100000000E-03 0. -1.
         11   -1    0    0    0    0 -0.00000000000E+00 -0.00000000000E+00 -0.45593999997E+02  0.45594000000E+02  0.51100000000E-03 0.  1.
    9900012    2    1    2    0    0 -0.30947247786E+02  0.76104419011E+01 -0.10330704398E+01  0.59301981026E+02  0.50000067477E+02 0.  0.
         12    1    1    2    0    0  0.30947247786E+02 -0.76104419011E+01  0.10330704398E+01  0.31886018974E+02  0.00000000000E+00 0. -1.
         11    1    3    3    0    0  0.42224894692E+01  0.78522736838E+00 -0.17321905157E+02  0.17846411345E+02  0.51100000000E-03 0. -1.
        -11    1    3    3    0    0 -0.86432726166E+01  0.43440236148E+01 -0.95385048161E+00  0.97204183908E+01  0.51100000000E-03 0.  1.
         12    1    3    3    0    0 -0.26526464639E+02  0.24811909179E+01  0.17242685199E+02  0.31735151291E+02  0.00000000000E+00 0. -1.
</event>
<event>
 7    1  0.7579108E-012  0.5930192E+02  0.7816164E-02  0.1266605E+00
        -11   -1    0    0    0    0  0.00000000000E+00  0.00000000000E+00  0.45593999997E+02  0.45594000000E+02  0.51100000000E-03 0.  1.
         11   -1    0    0    0    0 -0.00000000000E+00 -0.00000000000E+00 -0.45593999997E+02  0.45594000000E+02  0.51100000000E-03 0. -1.
    9900012    2    1    2    0    0  0.22959805254E+02  0.92539011645E+01  0.20098129689E+02  0.59301919008E+02  0.49999954369E+02 0.  0.
         12    1    1    2    0    0 -0.22959805254E+02 -0.92539011645E+01 -0.20098129689E+02  0.31886080992E+02  0.00000000000E+00 0. -1.
         11    1    3    3    0    0  0.26360729866E+02  0.83514074414E+01 -0.80403489877E+00  0.27663704700E+02  0.51100000000E-03 0. -1.
        -11    1    3    3    0    0 -0.12707353119E+02  0.29178779956E+01  0.70304644345E+01  0.14812773735E+02  0.51100000000E-03 0.  1.
         12    1    3    3    0    0  0.93064285073E+01 -0.20153842725E+01  0.13871700153E+02  0.16825440573E+02  0.00000000000E+00 0. -1.
</event>
<event>
 7    1  0.7579108E-012  0.5930193E+02  0.7816164E-02  0.1266605E+00
        -11   -1    0    0    0    0  0.00000000000E+00  0.00000000000E+00  0.45593999997E+02  0.45594000000E+02  0.51100000000E-03 0.  1.
         11   -1    0    0    0    0 -0.00000000000E+00 -0.00000000000E+00 -0.45593999997E+02  0.45594000000E+02  0.51100000000E-03 0. -1.
    9900012    2    1    2    0    0  0.25314034255E+02  0.10135221321E+01  0.19362171649E+02  0.59301933320E+02  0.49999980471E+02 0.  0.
         12    1    1    2    0    0 -0.25314034255E+02 -0.10135221321E+01 -0.19362171649E+02  0.31886066680E+02  0.00000000000E+00 0. -1.
         11    1    3    3    0    0  0.56959462540E+01 -0.50330837794E+01  0.26412159831E+02  0.27484139486E+02  0.51100000000E-03 0.  1.
        -11    1    3    3    0    0  0.93200170438E+01 -0.35759485757E+01 -0.13108461817E+02  0.16476707723E+02  0.51100000000E-03 0. -1.
         12    1    3    3    0    0  0.10298070957E+02  0.96225544872E+01  0.60584736344E+01  0.15341086111E+02  0.00000000000E+00 0. -1.
</event>
<event>
 7    1  0.7579108E-012  0.5930192E+02  0.7816164E-02  0.1266605E+00
        -11   -1    0    0    0    0  0.00000000000E+00  0.00000000000E+00  0.45593999997E+02  0.45594000000E+02  0.51100000000E-03 0. -1.
         11   -1    0    0    0    0 -0.00000000000E+00 -0.00000000000E+00 -0.45593999997E+02  0.45594000000E+02  0.51100000000E-03 0.  1.
    9900012    2    1    2    0    0  0.17243517576E+02  0.35741512064E+01 -0.26582109386E+02  0.59301921616E+02  0.49999959127E+02 0.  0.
         12    1    1    2    0    0 -0.17243517576E+02 -0.35741512064E+01  0.26582109386E+02  0.31886078384E+02  0.00000000000E+00 0. -1.
         11    1    3    3    0    0  0.10923529350E+02  0.20010442698E+01 -0.53289133464E+01  0.12317669802E+02  0.51100000000E-03 0. -1.
        -11    1    3    3    0    0 -0.16577989129E+02  0.12444281892E+00 -0.13895421367E+01  0.16636587306E+02  0.51100000000E-03 0.  1.
        -12    1    3    3    0    0  0.22897977356E+02  0.14486641177E+01 -0.19863653903E+02  0.30347664508E+02  0.00000000000E+00 0.  1.
</event>
<event>
 7    1  0.7579108E-012  0.5930194E+02  0.7816164E-02  0.1266605E+00
        -11   -1    0    0    0    0  0.00000000000E+00  0.00000000000E+00  0.45593999997E+02  0.45594000000E+02  0.51100000000E-03 0. -1.
         11   -1    0    0    0    0 -0.00000000000E+00 -0.00000000000E+00 -0.45593999997E+02  0.45594000000E+02  0.51100000000E-03 0.  1.
    9900012    2    1    2    0    0  0.13939342887E+01  0.66059513637E+01 -0.31163109077E+02  0.59301937002E+02  0.49999987186E+02 0.  0.
         12    1    1    2    0    0 -0.13939342887E+01 -0.66059513637E+01  0.31163109077E+02  0.31886062998E+02  0.00000000000E+00 0. -1.
         11    1    3    3    0    0 -0.87475232230E+01 -0.38009789063E+00 -0.37521716133E+02  0.38529765361E+02  0.51100000000E-03 0. -1.
        -11    1    3    3    0    0  0.39416151689E+01  0.10373512789E+02 -0.24747104659E+00  0.11099880176E+02  0.51100000000E-03 0.  1.
         12    1    3    3    0    0  0.61998423428E+01 -0.33874635352E+01  0.66060781030E+01  0.96722914648E+01  0.00000000000E+00 0. -1.
</event>
<event>
 7    1  0.7579108E-012  0.5930196E+02  0.7816164E-02  0.1266605E+00
        -11   -1    0    0    0    0  0.00000000000E+00  0.00000000000E+00  0.45593999997E+02  0.45594000000E+02  0.51100000000E-03 0.  1.
         11   -1    0    0    0    0 -0.00000000000E+00 -0.00000000000E+00 -0.45593999997E+02  0.45594000000E+02  0.51100000000E-03 0. -1.
    9900012    2    1    2    0    0 -0.15729009460E+02  0.27531872556E+02  0.33636187910E+01  0.59301957969E+02  0.50000025425E+02 0.  0.
         12    1    1    2    0    0  0.15729009460E+02 -0.27531872556E+02 -0.33636187910E+01  0.31886042031E+02  0.00000000000E+00 0. -1.
         11    1    3    3    0    0 -0.14349790893E+02  0.24942956391E+02 -0.10803696288E+02  0.30737394586E+02  0.51100000000E-03 0.  1.
        -11    1    3    3    0    0 -0.45423289401E+00 -0.64025285302E+01  0.17724497185E+02  0.18850901831E+02  0.51100000000E-03 0. -1.
         12    1    3    3    0    0 -0.92498567296E+00  0.89914446960E+01 -0.35571821065E+01  0.97136615524E+01  0.00000000000E+00 0. -1.
</event>
<event>
 7    1  0.7579108E-012  0.5930195E+02  0.7816164E-02  0.1266605E+00
        -11   -1    0    0    0    0  0.00000000000E+00  0.00000000000E+00  0.45593999997E+02  0.45594000000E+02  0.51100000000E-03 0. -1.
         11   -1    0    0    0    0 -0.00000000000E+00 -0.00000000000E+00 -0.45593999997E+02  0.45594000000E+02  0.51100000000E-03 0.  1.
    9900012    2    1    2    0    0 -0.97930897208E+01  0.26347628465E+02 -0.15053829231E+02  0.59301954360E+02  0.50000018844E+02 0.  0.
         12    1    1    2    0    0  0.97930897208E+01 -0.26347628465E+02  0.15053829231E+02  0.31886045640E+02  0.00000000000E+00 0. -1.
         11    1    3    3    0    0  0.28578346930E+01  0.83423544572E+01  0.12967567327E+02  0.15681833428E+02  0.51100000000E-03 0. -1.
        -11    1    3    3    0    0  0.53865285921E+01  0.12308874576E+02 -0.17207360948E+02  0.21831544944E+02  0.51100000000E-03 0.  1.
         12    1    3    3    0    0 -0.18037453006E+02  0.56963994320E+01 -0.10814035610E+02  0.21788575988E+02  0.00000000000E+00 0. -1.
</event>
<event>
 7    1  0.7579108E-012  0.5930195E+02  0.7816164E-02  0.1266605E+00
        -11   -1    0    0    0    0  0.00000000000E+00  0.00000000000E+00  0.45593999997E+02  0.45594000000E+02  0.51100000000E-03 0. -1.
         11   -1    0    0    0    0 -0.00000000000E+00 -0.00000000000E+00 -0.45593999997E+02  0.45594000000E+02  0.51100000000E-03 0.  1.
    9900012    2    1    2    0    0 -0.19308275811E+02  0.22803730188E+02 -0.11131049273E+02  0.59301954726E+02  0.50000019510E+02 0.  0.
         12    1    1    2    0    0  0.19308275811E+02 -0.22803730188E+02  0.11131049273E+02  0.31886045274E+02  0.00000000000E+00 0. -1.
         11    1    3    3    0    0 -0.19764621498E+02  0.86611612205E+01  0.83890743031E+01  0.23152376650E+02  0.51100000000E-03 0. -1.
        -11    1    3    3    0    0  0.12696460916E+02  0.90359699159E+01 -0.47338333953E+01  0.16286744641E+02  0.51100000000E-03 0.  1.
         12    1    3    3    0    0 -0.12240115230E+02  0.51065990521E+01 -0.14786290181E+02  0.19862833434E+02  0.00000000000E+00 0. -1.
</event>
<event>
 7    1  0.7579108E-012  0.5930193E+02  0.7816164E-02  0.1266605E+00
        -11   -1    0    0    0    0  0.00000000000E+00  0.00000000000E+00  0.45593999997E+02  0.45594000000E+02  0.51100000000E-03 0. -1.
         11   -1    0    0    0    0 -0.00000000000E+00 -0.00000000000E+00 -0.45593999997E+02  0.45594000000E+02  0.51100000000E-03 0.  1.
    9900012    2    1    2    0    0  0.10344919727E+02  0.12870917307E+02 -0.27277158637E+02  0.59301933140E+02  0.49999980144E+02 0.  0.
         12    1    1    2    0    0 -0.10344919727E+02 -0.12870917307E+02  0.27277158637E+02  0.31886066860E+02  0.00000000000E+00 0. -1.
         11    1    3    3    0    0  0.54310712868E+01  0.18021638365E+02 -0.32834374882E+02  0.37846692839E+02  0.51100000000E-03 0. -1.
        -11    1    3    3    0    0  0.11399298587E+02 -0.13005068883E+01  0.74491119270E+01  0.13679349225E+02  0.51100000000E-03 0.  1.
         12    1    3    3    0    0 -0.64854501471E+01 -0.38502141695E+01 -0.18918956818E+01  0.77758910764E+01  0.00000000000E+00 0. -1.
</event>
<event>
 7    1  0.7579108E-012  0.5930193E+02  0.7816164E-02  0.1266605E+00
        -11   -1    0    0    0    0  0.00000000000E+00  0.00000000000E+00  0.45593999997E+02  0.45594000000E+02  0.51100000000E-03 0.  1.
         11   -1    0    0    0    0 -0.00000000000E+00 -0.00000000000E+00 -0.45593999997E+02  0.45594000000E+02  0.51100000000E-03 0. -1.
    9900012    2    1    2    0    0  0.11708048237E+02 -0.21673337344E+02  0.20246216189E+02  0.59301933841E+02  0.49999981422E+02 0.  0.
         12    1    1    2    0    0 -0.11708048237E+02  0.21673337344E+02 -0.20246216189E+02  0.31886066159E+02  0.00000000000E+00 0. -1.
         11    1    3    3    0    0 -0.11765224515E+02  0.62737891285E+00  0.22291077634E+01  0.11990956337E+02  0.51100000000E-03 0. -1.
        -11    1    3    3    0    0  0.18401911833E+02 -0.25161640995E+02  0.23712033745E+02  0.39166300326E+02  0.51100000000E-03 0.  1.
        -12    1    3    3    0    0  0.50713609190E+01  0.28609247383E+01 -0.56949253196E+01  0.81446771775E+01  0.00000000000E+00 0.  1.
</event>
<event>
 7    1  0.7579108E-012  0.5930195E+02  0.7816164E-02  0.1266605E+00
        -11   -1    0    0    0    0  0.00000000000E+00  0.00000000000E+00  0.45593999997E+02  0.45594000000E+02  0.51100000000E-03 0. -1.
         11   -1    0    0    0    0 -0.00000000000E+00 -0.00000000000E+00 -0.45593999997E+02  0.45594000000E+02  0.51100000000E-03 0.  1.
    9900012    2    1    2    0    0 -0.12517693641E+02 -0.29321874658E+02 -0.50497678391E+00  0.59301953065E+02  0.50000016482E+02 0.  0.
         12    1    1    2    0    0  0.12517693641E+02  0.29321874658E+02  0.50497678391E+00  0.31886046935E+02  0.00000000000E+00 0. -1.
         11    1    3    3    0    0  0.44665898043E+01 -0.49123128670E+01  0.19954728614E+02  0.21030274285E+02  0.51100000000E-03 0. -1.
        -11    1    3    3    0    0 -0.35578517579E+01 -0.12013786964E+02 -0.27567729774E+01  0.12829231616E+02  0.51100000000E-03 0.  1.
         12    1    3    3    0    0 -0.13426431688E+02 -0.12395774828E+02 -0.17702932420E+02  0.25442447165E+02  0.00000000000E+00 0. -1.
</event>
<event>
 7    1  0.7579108E-012  0.5930198E+02  0.7816164E-02  0.1266605E+00
        -11   -1    0    0    0    0  0.00000000000E+00  0.00000000000E+00  0.45593999997E+02  0.45594000000E+02  0.51100000000E-03 0.  1.
         11   -1    0    0    0    0 -0.00000000000E+00 -0.00000000000E+00 -0.45593999997E+02  0.45594000000E+02  0.51100000000E-03 0. -1.
    9900012    2    1    2    0    0 -0.83220420400E+01  0.10207183870E+02  0.29039199535E+02  0.59301982752E+02  0.50000070624E+02 0.  0.
         12    1    1    2    0    0  0.83220420400E+01 -0.10207183870E+02 -0.29039199535E+02  0.31886017248E+02  0.00000000000E+00 0. -1.
         11    1    3    3    0    0 -0.72123848835E+01  0.17442069189E+02  0.14809926980E+01  0.18932448677E+02  0.51100000000E-03 0. -1.
        -11    1    3    3    0    0  0.80475717383E+01 -0.14305436725E+02  0.22228207376E+02  0.27631542378E+02  0.51100000000E-03 0.  1.
        -12    1    3    3    0    0 -0.91572288949E+01  0.70705514060E+01  0.53299994615E+01  0.12737991697E+02  0.00000000000E+00 0.  1.
</event>
<event>
 7    1  0.7579108E-012  0.5930194E+02  0.7816164E-02  0.1266605E+00
        -11   -1    0    0    0    0  0.00000000000E+00  0.00000000000E+00  0.45593999997E+02  0.45594000000E+02  0.51100000000E-03 0. -1.
         11   -1    0    0    0    0 -0.00000000000E+00 -0.00000000000E+00 -0.45593999997E+02  0.45594000000E+02  0.51100000000E-03 0.  1.
    9900012    2    1    2    0    0  0.24016337222E+02  0.12640813782E+02 -0.16737573740E+02  0.59301937193E+02  0.49999987535E+02 0.  0.
         12    1    1    2    0    0 -0.24016337222E+02 -0.12640813782E+02  0.16737573740E+02  0.31886062807E+02  0.00000000000E+00 0. -1.
         11    1    3    3    0    0  0.86814425038E+00  0.68530980489E+01  0.92186050794E+01  0.11519605340E+02  0.51100000000E-03 0. -1.
        -11    1    3    3    0    0  0.28000212374E+02 -0.63337512839E+00 -0.96939648494E+01  0.29637577698E+02  0.51100000000E-03 0.  1.
         12    1    3    3    0    0 -0.48520194026E+01  0.64210908615E+01 -0.16262213970E+02  0.18144754155E+02  0.00000000000E+00 0. -1.
</event>
<event>
 7    1  0.7579108E-012  0.5930194E+02  0.7816164E-02  0.1266605E+00
        -11   -1    0    0    0    0  0.00000000000E+00  0.00000000000E+00  0.45593999997E+02  0.45594000000E+02  0.51100000000E-03 0. -1.
         11   -1    0    0    0    0 -0.00000000000E+00 -0.00000000000E+00 -0.45593999997E+02  0.45594000000E+02  0.51100000000E-03 0.  1.
    9900012    2    1    2    0    0 -0.11010929471E+02 -0.27123193870E+02  0.12641709537E+02  0.59301936688E+02  0.49999986615E+02 0.  0.
         12    1    1    2    0    0  0.11010929471E+02  0.27123193870E+02 -0.12641709537E+02  0.31886063312E+02  0.00000000000E+00 0. -1.
         11    1    3    3    0    0 -0.18885610582E+02  0.65892735869E+01 -0.37578722033E+00  0.20005649946E+02  0.51100000000E-03 0. -1.
        -11    1    3    3    0    0  0.11347772138E+02 -0.20742893849E+02  0.79360912245E+01  0.24940351279E+02  0.51100000000E-03 0.  1.
         12    1    3    3    0    0 -0.34730910267E+01 -0.12969573607E+02  0.50814055324E+01  0.14355935463E+02  0.00000000000E+00 0. -1.
</event>
<event>
 7    1  0.7579108E-012  0.5930197E+02  0.7816164E-02  0.1266605E+00
        -11   -1    0    0    0    0  0.00000000000E+00  0.00000000000E+00  0.45593999997E+02  0.45594000000E+02  0.51100000000E-03 0.  1.
         11   -1    0    0    0    0 -0.00000000000E+00 -0.00000000000E+00 -0.45593999997E+02  0.45594000000E+02  0.51100000000E-03 0. -1.
    9900012    2    1    2    0    0 -0.27084152059E+01  0.11558570829E+02  0.29593632232E+02  0.59301966361E+02  0.50000040731E+02 0.  0.
         12    1    1    2    0    0  0.27084152059E+01 -0.11558570829E+02 -0.29593632232E+02  0.31886033639E+02  0.00000000000E+00 0. -1.
         11    1    3    3    0    0 -0.12840611525E+02 -0.99349233789E+01  0.79531561760E+00  0.16254738819E+02  0.51100000000E-03 0. -1.
        -11    1    3    3    0    0  0.14533687550E+02  0.64317562956E+01  0.11051252709E+02  0.19357834320E+02  0.51100000000E-03 0.  1.
        -12    1    3    3    0    0 -0.44014912306E+01  0.15061737912E+02  0.17747063905E+02  0.23689393222E+02  0.00000000000E+00 0.  1.
</event>
<event>
 7    1  0.7579108E-012  0.5930191E+02  0.7816164E-02  0.1266605E+00
        -11   -1    0    0    0    0  0.00000000000E+00  0.00000000000E+00  0.45593999997E+02  0.45594000000E+02  0.51100000000E-03 0. -1.
         11   -1    0    0    0    0 -0.00000000000E+00 -0.00000000000E+00 -0.45593999997E+02  0.45594000000E+02  0.51100000000E-03 0.  1.
    9900012    2    1    2    0    0 -0.17749459364E+02  0.20681656586E+01 -0.26408371406E+02  0.59301910600E+02  0.49999939035E+02 0.  0.
         12    1    1    2    0    0  0.17749459364E+02 -0.20681656586E+01  0.26408371406E+02  0.31886089400E+02  0.00000000000E+00 0. -1.
         11    1    3    3    0    0  0.24137019264E+01 -0.16689924621E+02 -0.77785100073E+01  0.18571073179E+02  0.51100000000E-03 0. -1.
        -11    1    3    3    0    0 -0.81706380653E+01  0.77920292585E+01  0.47575952561E+01  0.12251928797E+02  0.51100000000E-03 0.  1.
         12    1    3    3    0    0 -0.11992523225E+02  0.10966061021E+02 -0.23387456655E+02  0.28478908624E+02  0.00000000000E+00 0. -1.
</event>
<event>
 7    1  0.7579108E-012  0.5930194E+02  0.7816164E-02  0.1266605E+00
        -11   -1    0    0    0    0  0.00000000000E+00  0.00000000000E+00  0.45593999997E+02  0.45594000000E+02  0.51100000000E-03 0. -1.
         11   -1    0    0    0    0 -0.00000000000E+00 -0.00000000000E+00 -0.45593999997E+02  0.45594000000E+02  0.51100000000E-03 0.  1.
    9900012    2    1    2    0    0  0.21938839222E+02  0.21742986741E+02 -0.79152242903E+01  0.59301938556E+02  0.49999990021E+02 0.  0.
         12    1    1    2    0    0 -0.21938839222E+02 -0.21742986741E+02  0.79152242903E+01  0.31886061444E+02  0.00000000000E+00 0. -1.
         11    1    3    3    0    0 -0.62567216873E+01  0.17993296903E+02  0.10526987033E+02  0.21765173006E+02  0.51100000000E-03 0. -1.
        -11    1    3    3    0    0  0.21595040156E+02 -0.16792688937E+01 -0.60608492561E+01  0.22492211926E+02  0.51100000000E-03 0.  1.
         12    1    3    3    0    0  0.66005207538E+01  0.54289587315E+01 -0.12381362067E+02  0.15044553625E+02  0.00000000000E+00 0. -1.
</event>
<event>
 7    1  0.7579108E-012  0.5930195E+02  0.7816164E-02  0.1266605E+00
        -11   -1    0    0    0    0  0.00000000000E+00  0.00000000000E+00  0.45593999997E+02  0.45594000000E+02  0.51100000000E-03 0.  1.
         11   -1    0    0    0    0 -0.00000000000E+00 -0.00000000000E+00 -0.45593999997E+02  0.45594000000E+02  0.51100000000E-03 0. -1.
    9900012    2    1    2    0    0  0.10603003689E+02 -0.29269186803E+02 -0.69001021649E+01  0.59301946729E+02  0.50000004926E+02 0.  0.
         12    1    1    2    0    0 -0.10603003689E+02  0.29269186803E+02  0.69001021649E+01  0.31886053271E+02  0.00000000000E+00 0. -1.
         11    1    3    3    0    0  0.86647638800E+01 -0.32453595164E+02 -0.20898713866E+02  0.39560968311E+02  0.51100000000E-03 0. -1.
        -11    1    3    3    0    0 -0.26435875270E+01  0.67112020636E+01  0.41533086771E+01  0.83233864129E+01  0.51100000000E-03 0.  1.
         12    1    3    3    0    0  0.45818273360E+01 -0.35267937023E+01  0.98453030243E+01  0.11417592005E+02  0.00000000000E+00 0. -1.
</event>
<event>
 7    1  0.7579108E-012  0.5930198E+02  0.7816164E-02  0.1266605E+00
        -11   -1    0    0    0    0  0.00000000000E+00  0.00000000000E+00  0.45593999997E+02  0.45594000000E+02  0.51100000000E-03 0. -1.
         11   -1    0    0    0    0 -0.00000000000E+00 -0.00000000000E+00 -0.45593999997E+02  0.45594000000E+02  0.51100000000E-03 0.  1.
    9900012    2    1    2    0    0 -0.21830799709E+02 -0.17687394887E+02 -0.15076158583E+02  0.59301979373E+02  0.50000064461E+02 0.  0.
         12    1    1    2    0    0  0.21830799709E+02  0.17687394887E+02  0.15076158583E+02  0.31886020627E+02  0.00000000000E+00 0. -1.
         11    1    3    3    0    0  0.30815150270E+01 -0.35901651952E+01  0.62140322596E+00  0.47719139997E+01  0.51100000000E-03 0. -1.
        -11    1    3    3    0    0 -0.10159288713E+02  0.15636996923E+02 -0.88373650069E+01  0.20635547980E+02  0.51100000000E-03 0.  1.
        -12    1    3    3    0    0 -0.14753026023E+02 -0.29734226614E+02 -0.68601968025E+01  0.33894517393E+02  0.00000000000E+00 0.  1.
</event>
<event>
 7    1  0.7579108E-012  0.5930194E+02  0.7816164E-02  0.1266605E+00
        -11   -1    0    0    0    0  0.00000000000E+00  0.00000000000E+00  0.45593999997E+02  0.45594000000E+02  0.51100000000E-03 0.  1.
         11   -1    0    0    0    0 -0.00000000000E+00 -0.00000000000E+00 -0.45593999997E+02  0.45594000000E+02  0.51100000000E-03 0. -1.
    9900012    2    1    2    0    0  0.17529108735E+02  0.12463086074E+01  0.26606353086E+02  0.59301937798E+02  0.49999988639E+02 0.  0.
         12    1    1    2    0    0 -0.17529108735E+02 -0.12463086074E+01 -0.26606353086E+02  0.31886062202E+02  0.00000000000E+00 0. -1.
         11    1    3    3    0    0  0.16059198263E+02  0.20187176911E+02  0.26896428891E+02  0.37267114831E+02  0.51100000000E-03 0. -1.
        -11    1    3    3    0    0  0.59091756202E+01 -0.78406211362E+01 -0.18103006163E+01  0.99835306828E+01  0.51100000000E-03 0.  1.
         12    1    3    3    0    0 -0.44392651487E+01 -0.11100247168E+02  0.15202248112E+01  0.12051292284E+02  0.00000000000E+00 0. -1.
</event>
<event>
 7    1  0.7579108E-012  0.5930195E+02  0.7816164E-02  0.1266605E+00
        -11   -1    0    0    0    0  0.00000000000E+00  0.00000000000E+00  0.45593999997E+02  0.45594000000E+02  0.51100000000E-03 0.  1.
         11   -1    0    0    0    0 -0.00000000000E+00 -0.00000000000E+00 -0.45593999997E+02  0.45594000000E+02  0.51100000000E-03 0. -1.
    9900012    2    1    2    0    0 -0.28257716487E+02 -0.84909441598E+01 -0.12088237230E+02  0.59301950494E+02  0.50000011793E+02 0.  0.
         12    1    1    2    0    0  0.28257716487E+02  0.84909441598E+01  0.12088237230E+02  0.31886049506E+02  0.00000000000E+00 0. -1.
         11    1    3    3    0    0  0.13809799925E+02 -0.34397765718E+01  0.11187329887E+01  0.14275650619E+02  0.51100000000E-03 0. -1.
        -11    1    3    3    0    0 -0.13964484407E+02 -0.14125669618E+01 -0.70504914554E+00  0.14053443163E+02  0.51100000000E-03 0.  1.
         12    1    3    3    0    0 -0.28103032005E+02 -0.36386006263E+01 -0.12501921073E+02  0.30972856712E+02  0.00000000000E+00 0. -1.
</event>
<event>
 7    1  0.7579108E-012  0.5930194E+02  0.7816164E-02  0.1266605E+00
        -11   -1    0    0    0    0  0.00000000000E+00  0.00000000000E+00  0.45593999997E+02  0.45594000000E+02  0.51100000000E-03 0.  1.
         11   -1    0    0    0    0 -0.00000000000E+00 -0.00000000000E+00 -0.45593999997E+02  0.45594000000E+02  0.51100000000E-03 0. -1.
    9900012    2    1    2    0    0 -0.91748830364E+01 -0.13295804561E+02  0.27491157502E+02  0.59301942883E+02  0.49999997912E+02 0.  0.
         12    1    1    2    0    0  0.91748830364E+01  0.13295804561E+02 -0.27491157502E+02  0.31886057117E+02  0.00000000000E+00 0. -1.
         11    1    3    3    0    0  0.35845007835E+01 -0.24497276580E+02  0.18564482303E+02  0.30945196867E+02  0.51100000000E-03 0. -1.
        -11    1    3    3    0    0  0.17715554603E+01  0.11963313369E+02  0.20637053016E+01  0.12268584081E+02  0.51100000000E-03 0.  1.
         12    1    3    3    0    0 -0.14530939280E+02 -0.76184135009E+00  0.68629698975E+01  0.16088161934E+02  0.00000000000E+00 0. -1.
</event>
<event>
 7    1  0.7579108E-012  0.5930193E+02  0.7816164E-02  0.1266605E+00
        -11   -1    0    0    0    0  0.00000000000E+00  0.00000000000E+00  0.45593999997E+02  0.45594000000E+02  0.51100000000E-03 0.  1.
         11   -1    0    0    0    0 -0.00000000000E+00 -0.00000000000E+00 -0.45593999997E+02  0.45594000000E+02  0.51100000000E-03 0. -1.
    9900012    2    1    2    0    0  0.31666796839E+01  0.19993318001E+02  0.24636578640E+02  0.59301927303E+02  0.49999969499E+02 0.  0.
         12    1    1    2    0    0 -0.31666796839E+01 -0.19993318001E+02 -0.24636578640E+02  0.31886072697E+02  0.00000000000E+00 0. -1.
         11    1    3    3    0    0 -0.84873573102E+01  0.14347078209E+01  0.14214549538E+02  0.16617672505E+02  0.51100000000E-03 0.  1.
        -11    1    3    3    0    0  0.19519683277E+02  0.57075085656E+01 -0.51885229295E+01  0.20988436333E+02  0.51100000000E-03 0. -1.
         12    1    3    3    0    0 -0.78656462828E+01  0.12851101615E+02  0.15610552031E+02  0.21695818465E+02  0.00000000000E+00 0. -1.
</event>
<event>
 7    1  0.7579108E-012  0.5930194E+02  0.7816164E-02  0.1266605E+00
        -11   -1    0    0    0    0  0.00000000000E+00  0.00000000000E+00  0.45593999997E+02  0.45594000000E+02  0.51100000000E-03 0.  1.
         11   -1    0    0    0    0 -0.00000000000E+00 -0.00000000000E+00 -0.45593999997E+02  0.45594000000E+02  0.51100000000E-03 0. -1.
    9900012    2    1    2    0    0  0.14765468583E+02  0.26005921561E+02  0.11063185956E+02  0.59301935611E+02  0.49999984650E+02 0.  0.
         12    1    1    2    0    0 -0.14765468583E+02 -0.26005921561E+02 -0.11063185956E+02  0.31886064389E+02  0.00000000000E+00 0. -1.
         11    1    3    3    0    0  0.43642889024E+01  0.71769973474E+01 -0.12880334725E+02  0.15377234193E+02  0.51100000000E-03 0. -1.
        -11    1    3    3    0    0 -0.30150703127E+01  0.14467591889E+02  0.25762772318E+02  0.29700543796E+02  0.51100000000E-03 0.  1.
        -12    1    3    3    0    0  0.13416249993E+02  0.43613323247E+01 -0.18192516372E+01  0.14224157622E+02  0.00000000000E+00 0.  1.
</event>
<event>
 7    1  0.7579108E-012  0.5930196E+02  0.7816164E-02  0.1266605E+00
        -11   -1    0    0    0    0  0.00000000000E+00  0.00000000000E+00  0.45593999997E+02  0.45594000000E+02  0.51100000000E-03 0.  1.
         11   -1    0    0    0    0 -0.00000000000E+00 -0.00000000000E+00 -0.45593999997E+02  0.45594000000E+02  0.51100000000E-03 0. -1.
    9900012    2    1    2    0    0 -0.24679937876E+02 -0.85844404645E+01  0.18273687884E+02  0.59301958845E+02  0.50000027023E+02 0.  0.
         12    1    1    2    0    0  0.24679937876E+02  0.85844404645E+01 -0.18273687884E+02  0.31886041155E+02  0.00000000000E+00 0. -1.
         11    1    3    3    0    0 -0.14397296270E+02 -0.22467755763E+02 -0.23697195216E+01  0.26789881668E+02  0.51100000000E-03 0. -1.
        -11    1    3    3    0    0 -0.14597777332E+02  0.14468834429E+02  0.18523556508E+02  0.27668834792E+02  0.51100000000E-03 0.  1.
         12    1    3    3    0    0  0.43151357248E+01 -0.58551913030E+00  0.21198508971E+01  0.48432423851E+01  0.00000000000E+00 0. -1.
</event>
<event>
 7    1  0.7579108E-012  0.5930191E+02  0.7816164E-02  0.1266605E+00
        -11   -1    0    0    0    0  0.00000000000E+00  0.00000000000E+00  0.45593999997E+02  0.45594000000E+02  0.51100000000E-03 0.  1.
         11   -1    0    0    0    0 -0.00000000000E+00 -0.00000000000E+00 -0.45593999997E+02  0.45594000000E+02  0.51100000000E-03 0. -1.
    9900012    2    1    2    0    0  0.25352360037E+01 -0.16873451028E+02  0.26936630604E+02  0.59301908369E+02  0.49999934967E+02 0.  0.
         12    1    1    2    0    0 -0.25352360037E+01  0.16873451028E+02 -0.26936630604E+02  0.31886091631E+02  0.00000000000E+00 0. -1.
         11    1    3    3    0    0 -0.40924836638E+01 -0.31182030007E+02  0.96434625484E+01  0.32894737999E+02  0.51100000000E-03 0. -1.
        -11    1    3    3    0    0 -0.22609639287E+01  0.89468296348E+01  0.57037793448E+01  0.10848539878E+02  0.51100000000E-03 0.  1.
         12    1    3    3    0    0  0.88886835961E+01  0.53617493438E+01  0.11589388711E+02  0.15558630492E+02  0.00000000000E+00 0. -1.
</event>
<event>
 7    1  0.7579108E-012  0.5930185E+02  0.7816164E-02  0.1266605E+00
        -11   -1    0    0    0    0  0.00000000000E+00  0.00000000000E+00  0.45593999997E+02  0.45594000000E+02  0.51100000000E-03 0.  1.
         11   -1    0    0    0    0 -0.00000000000E+00 -0.00000000000E+00 -0.45593999997E+02  0.45594000000E+02  0.51100000000E-03 0. -1.
    9900012    2    1    2    0    0 -0.48806731083E+01 -0.24942525768E+02  0.19255547665E+02  0.59301848185E+02  0.49999825206E+02 0.  0.
         12    1    1    2    0    0  0.48806731083E+01  0.24942525768E+02 -0.19255547665E+02  0.31886151815E+02  0.00000000000E+00 0. -1.
         11    1    3    3    0    0  0.10520288449E+02 -0.10679978496E+02 -0.99367467368E+01  0.17985475965E+02  0.51100000000E-03 0. -1.
        -11    1    3    3    0    0 -0.10029552036E+02 -0.14297902484E+02  0.31056594837E+02  0.35630520802E+02  0.51100000000E-03 0.  1.
        -12    1    3    3    0    0 -0.53714095213E+01  0.35355211969E-01 -0.18643004353E+01  0.56858514182E+01  0.00000000000E+00 0.  1.
</event>
<event>
 7    1  0.7579108E-012  0.5930200E+02  0.7816164E-02  0.1266605E+00
        -11   -1    0    0    0    0  0.00000000000E+00  0.00000000000E+00  0.45593999997E+02  0.45594000000E+02  0.51100000000E-03 0.  1.
         11   -1    0    0    0    0 -0.00000000000E+00 -0.00000000000E+00 -0.45593999997E+02  0.45594000000E+02  0.51100000000E-03 0. -1.
    9900012    2    1    2    0    0 -0.15774916312E+02  0.14003162980E+02  0.23911932404E+02  0.59301998849E+02  0.50000099981E+02 0.  0.
         12    1    1    2    0    0  0.15774916312E+02 -0.14003162980E+02 -0.23911932404E+02  0.31886001151E+02  0.00000000000E+00 0. -1.
         11    1    3    3    0    0  0.38117803581E+01  0.28445669793E+01 -0.12080515961E+02  0.12983069627E+02  0.51100000000E-03 0. -1.
        -11    1    3    3    0    0 -0.20594392013E+02  0.12996068257E+02  0.24164280921E+02  0.34306548139E+02  0.51100000000E-03 0.  1.
         12    1    3    3    0    0  0.10076953434E+01 -0.18374722562E+01  0.11828167444E+02  0.12012381083E+02  0.00000000000E+00 0. -1.
</event>
<event>
 7    1  0.7579108E-012  0.5930182E+02  0.7816164E-02  0.1266605E+00
        -11   -1    0    0    0    0  0.00000000000E+00  0.00000000000E+00  0.45593999997E+02  0.45594000000E+02  0.51100000000E-03 0.  1.
         11   -1    0    0    0    0 -0.00000000000E+00 -0.00000000000E+00 -0.45593999997E+02  0.45594000000E+02  0.51100000000E-03 0. -1.
    9900012    2    1    2    0    0 -0.21720494943E+02  0.22742799567E+02 -0.52643834772E+01  0.59301818571E+02  0.49999771197E+02 0.  0.
         12    1    1    2    0    0  0.21720494943E+02 -0.22742799567E+02  0.52643834772E+01  0.31886181429E+02  0.00000000000E+00 0. -1.
         11    1    3    3    0    0  0.10970189885E+02 -0.52719019794E+01 -0.70721265361E+01  0.14076682514E+02  0.51100000000E-03 0. -1.
        -11    1    3    3    0    0 -0.15265540495E+02  0.80557287978E+01  0.62553529663E+01  0.18359219320E+02  0.51100000000E-03 0.  1.
        -12    1    3    3    0    0 -0.17425144334E+02  0.19958972749E+02 -0.44476099074E+01  0.26865916737E+02  0.00000000000E+00 0.  1.
</event>
<event>
 7    1  0.7579108E-012  0.5930192E+02  0.7816164E-02  0.1266605E+00
        -11   -1    0    0    0    0  0.00000000000E+00  0.00000000000E+00  0.45593999997E+02  0.45594000000E+02  0.51100000000E-03 0. -1.
         11   -1    0    0    0    0 -0.00000000000E+00 -0.00000000000E+00 -0.45593999997E+02  0.45594000000E+02  0.51100000000E-03 0.  1.
    9900012    2    1    2    0    0  0.27938318409E+02 -0.10161349490E+02 -0.11529070777E+02  0.59301919464E+02  0.49999955201E+02 0.  0.
         12    1    1    2    0    0 -0.27938318409E+02  0.10161349490E+02  0.11529070777E+02  0.31886080536E+02  0.00000000000E+00 0. -1.
         11    1    3    3    0    0  0.16922177850E+01 -0.12925744194E+00  0.18429543311E+01  0.25053521601E+01  0.51100000000E-03 0. -1.
        -11    1    3    3    0    0 -0.95647597523E+01 -0.59330966148E+01 -0.17193355353E+02  0.20549884017E+02  0.51100000000E-03 0.  1.
        -12    1    3    3    0    0  0.35810860377E+02 -0.40989954329E+01  0.38213302445E+01  0.36246683287E+02  0.00000000000E+00 0.  1.
</event>
<event>
 7    1  0.7579108E-012  0.5930194E+02  0.7816164E-02  0.1266605E+00
        -11   -1    0    0    0    0  0.00000000000E+00  0.00000000000E+00  0.45593999997E+02  0.45594000000E+02  0.51100000000E-03 0. -1.
         11   -1    0    0    0    0 -0.00000000000E+00 -0.00000000000E+00 -0.45593999997E+02  0.45594000000E+02  0.51100000000E-03 0.  1.
    9900012    2    1    2    0    0  0.11113005115E+02 -0.19108412000E+02 -0.22980220256E+02  0.59301940117E+02  0.49999992867E+02 0.  0.
         12    1    1    2    0    0 -0.11113005115E+02  0.19108412000E+02  0.22980220256E+02  0.31886059883E+02  0.00000000000E+00 0. -1.
         11    1    3    3    0    0  0.21293492297E+02 -0.50786842923E+00  0.60963371516E+01  0.22154820502E+02  0.51100000000E-03 0. -1.
        -11    1    3    3    0    0  0.14970686131E+01 -0.47936009031E+01 -0.68520949695E+01  0.84953534231E+01  0.51100000000E-03 0.  1.
         12    1    3    3    0    0 -0.11677555796E+02 -0.13806942668E+02 -0.22224462438E+02  0.28651766191E+02  0.00000000000E+00 0. -1.
</event>
<event>
 7    1  0.7579108E-012  0.5930197E+02  0.7816164E-02  0.1266605E+00
        -11   -1    0    0    0    0  0.00000000000E+00  0.00000000000E+00  0.45593999997E+02  0.45594000000E+02  0.51100000000E-03 0.  1.
         11   -1    0    0    0    0 -0.00000000000E+00 -0.00000000000E+00 -0.45593999997E+02  0.45594000000E+02  0.51100000000E-03 0. -1.
    9900012    2    1    2    0    0  0.21392004871E+02 -0.22234346253E+02  0.80457951794E+01  0.59301970994E+02  0.50000049180E+02 0.  0.
         12    1    1    2    0    0 -0.21392004871E+02  0.22234346253E+02 -0.80457951794E+01  0.31886029006E+02  0.00000000000E+00 0. -1.
         11    1    3    3    0    0  0.20596038205E+02  0.72871739804E+01 -0.84975101638E+01  0.23441573616E+02  0.51100000000E-03 0. -1.
        -11    1    3    3    0    0  0.25094460314E+01 -0.22936902044E+02  0.69471557475E+01  0.24096924451E+02  0.51100000000E-03 0.  1.
        -12    1    3    3    0    0 -0.17134793652E+01 -0.65846181891E+01  0.95961495956E+01  0.11763472927E+02  0.00000000000E+00 0.  1.
</event>
<event>
 7    1  0.7579108E-012  0.5930195E+02  0.7816164E-02  0.1266605E+00
        -11   -1    0    0    0    0  0.00000000000E+00  0.00000000000E+00  0.45593999997E+02  0.45594000000E+02  0.51100000000E-03 0.  1.
         11   -1    0    0    0    0 -0.00000000000E+00 -0.00000000000E+00 -0.45593999997E+02  0.45594000000E+02  0.51100000000E-03 0. -1.
    9900012    2    1    2    0    0 -0.51360350659E+01 -0.28509203129E+02 -0.13325403796E+02  0.59301954375E+02  0.50000018871E+02 0.  0.
         12    1    1    2    0    0  0.51360350659E+01  0.28509203129E+02  0.13325403796E+02  0.31886045625E+02  0.00000000000E+00 0. -1.
         11    1    3    3    0    0  0.13673372420E+02 -0.17987072144E+02 -0.23754502048E+02  0.32783719214E+02  0.51100000000E-03 0. -1.
        -11    1    3    3    0    0 -0.10809566715E+02 -0.45623015616E+01  0.11569180935E+02  0.16477477837E+02  0.51100000000E-03 0.  1.
         12    1    3    3    0    0 -0.79998407715E+01 -0.59598294234E+01 -0.11400826826E+01  0.10040757324E+02  0.00000000000E+00 0. -1.
</event>
<event>
 7    1  0.7579108E-012  0.5930195E+02  0.7816164E-02  0.1266605E+00
        -11   -1    0    0    0    0  0.00000000000E+00  0.00000000000E+00  0.45593999997E+02  0.45594000000E+02  0.51100000000E-03 0.  1.
         11   -1    0    0    0    0 -0.00000000000E+00 -0.00000000000E+00 -0.45593999997E+02  0.45594000000E+02  0.51100000000E-03 0. -1.
    9900012    2    1    2    0    0  0.69670241365E+01  0.11074557807E+01  0.31095889381E+02  0.59301949444E+02  0.50000009878E+02 0.  0.
         12    1    1    2    0    0 -0.69670241365E+01 -0.11074557807E+01 -0.31095889381E+02  0.31886050556E+02  0.00000000000E+00 0. -1.
         11    1    3    3    0    0 -0.10178793045E+02 -0.19210664816E+02  0.16734710628E+02  0.27435524609E+02  0.51100000000E-03 0. -1.
        -11    1    3    3    0    0  0.71220866071E+01  0.74690794968E+01  0.11266246360E+02  0.15278729445E+02  0.51100000000E-03 0.  1.
         12    1    3    3    0    0  0.10023730574E+02  0.12849041100E+02  0.30949323936E+01  0.16587695390E+02  0.00000000000E+00 0. -1.
</event>
<event>
 7    1  0.7579108E-012  0.5930192E+02  0.7816164E-02  0.1266605E+00
        -11   -1    0    0    0    0  0.00000000000E+00  0.00000000000E+00  0.45593999997E+02  0.45594000000E+02  0.51100000000E-03 0.  1.
         11   -1    0    0    0    0 -0.00000000000E+00 -0.00000000000E+00 -0.45593999997E+02  0.45594000000E+02  0.51100000000E-03 0. -1.
    9900012    2    1    2    0    0  0.18349966018E+02  0.25903475700E+02 -0.30017587665E+01  0.59301923699E+02  0.49999962924E+02 0.  0.
         12    1    1    2    0    0 -0.18349966018E+02 -0.25903475700E+02  0.30017587665E+01  0.31886076301E+02  0.00000000000E+00 0. -1.
         11    1    3    3    0    0 -0.43987701269E+01 -0.95392481064E+01 -0.27446404077E+01  0.10857231889E+02  0.51100000000E-03 0. -1.
        -11    1    3    3    0    0  0.12597564460E+01  0.23655344388E+02  0.23091630908E+01  0.23801145747E+02  0.51100000000E-03 0.  1.
         12    1    3    3    0    0  0.21488979699E+02  0.11787379418E+02 -0.25662814497E+01  0.24643546062E+02  0.00000000000E+00 0. -1.
</event>
<event>
 7    1  0.7579108E-012  0.5930182E+02  0.7816164E-02  0.1266605E+00
        -11   -1    0    0    0    0  0.00000000000E+00  0.00000000000E+00  0.45593999997E+02  0.45594000000E+02  0.51100000000E-03 0.  1.
         11   -1    0    0    0    0 -0.00000000000E+00 -0.00000000000E+00 -0.45593999997E+02  0.45594000000E+02  0.51100000000E-03 0. -1.
    9900012    2    1    2    0    0  0.55278679488E+01  0.19736510653E+02  0.24426245990E+02  0.59301816943E+02  0.49999768227E+02 0.  0.
         12    1    1    2    0    0 -0.55278679488E+01 -0.19736510653E+02 -0.24426245990E+02  0.31886183057E+02  0.00000000000E+00 0. -1.
         11    1    3    3    0    0 -0.25466252491E+01  0.17550049317E+02  0.12512210694E+02  0.21703569935E+02  0.51100000000E-03 0. -1.
        -11    1    3    3    0    0  0.69435434209E+01 -0.15913292950E+02  0.40311745269E+01  0.17824030298E+02  0.51100000000E-03 0.  1.
        -12    1    3    3    0    0  0.11309497769E+01  0.18099754285E+02  0.78828607686E+01  0.19774216710E+02  0.00000000000E+00 0.  1.
</event>
<event>
 7    1  0.7579108E-012  0.5930185E+02  0.7816164E-02  0.1266605E+00
        -11   -1    0    0    0    0  0.00000000000E+00  0.00000000000E+00  0.45593999997E+02  0.45594000000E+02  0.51100000000E-03 0. -1.
         11   -1    0    0    0    0 -0.00000000000E+00 -0.00000000000E+00 -0.45593999997E+02  0.45594000000E+02  0.51100000000E-03 0.  1.
    9900012    2    1    2    0    0  0.17695101683E+02  0.22674180018E+02 -0.13765594545E+02  0.59301848519E+02  0.49999825815E+02 0.  0.
         12    1    1    2    0    0 -0.17695101683E+02 -0.22674180018E+02  0.13765594545E+02  0.31886151481E+02  0.00000000000E+00 0. -1.
         11    1    3    3    0    0  0.87613311249E+01  0.15187353471E+02  0.13630564425E+02  0.22208307349E+02  0.51100000000E-03 0. -1.
        -11    1    3    3    0    0  0.68074266228E+01  0.14128547652E+02 -0.25379282103E+02  0.29833955090E+02  0.51100000000E-03 0.  1.
         12    1    3    3    0    0  0.21263439356E+01 -0.66417211041E+01 -0.20168768659E+01  0.72595860797E+01  0.00000000000E+00 0. -1.
</event>
<event>
 7    1  0.7579108E-012  0.5930192E+02  0.7816164E-02  0.1266605E+00
        -11   -1    0    0    0    0  0.00000000000E+00  0.00000000000E+00  0.45593999997E+02  0.45594000000E+02  0.51100000000E-03 0. -1.
         11   -1    0    0    0    0 -0.00000000000E+00 -0.00000000000E+00 -0.45593999997E+02  0.45594000000E+02  0.51100000000E-03 0.  1.
    9900012    2    1    2    0    0 -0.12706656704E+02  0.29236023526E+02  0.71968531357E+00  0.59301919288E+02  0.49999954881E+02 0.  0.
         12    1    1    2    0    0  0.12706656704E+02 -0.29236023526E+02 -0.71968531357E+00  0.31886080712E+02  0.00000000000E+00 0. -1.
         11    1    3    3    0    0  0.43890296201E+01  0.14918508529E+02 -0.20433865579E+02  0.25678168558E+02  0.51100000000E-03 0. -1.
        -11    1    3    3    0    0 -0.15439023501E+02  0.12059711977E+02  0.97529408930E+01  0.21884239899E+02  0.51100000000E-03 0.  1.
         12    1    3    3    0    0 -0.16566628229E+01  0.22578030198E+01  0.11400610000E+02  0.11739510831E+02  0.00000000000E+00 0. -1.
</event>
<event>
 7    1  0.7579108E-012  0.5930196E+02  0.7816164E-02  0.1266605E+00
        -11   -1    0    0    0    0  0.00000000000E+00  0.00000000000E+00  0.45593999997E+02  0.45594000000E+02  0.51100000000E-03 0.  1.
         11   -1    0    0    0    0 -0.00000000000E+00 -0.00000000000E+00 -0.45593999997E+02  0.45594000000E+02  0.51100000000E-03 0. -1.
    9900012    2    1    2    0    0 -0.21909904575E+02 -0.18223327208E+02  0.14303362286E+02  0.59301956882E+02  0.50000023444E+02 0.  0.
         12    1    1    2    0    0  0.21909904575E+02  0.18223327208E+02 -0.14303362286E+02  0.31886043118E+02  0.00000000000E+00 0. -1.
         11    1    3    3    0    0  0.73218371217E+01 -0.12149584991E+02 -0.44297759077E+01  0.14860842141E+02  0.51100000000E-03 0. -1.
        -11    1    3    3    0    0 -0.27609544517E+02 -0.14862475480E+02  0.14920617261E+02  0.34724702239E+02  0.51100000000E-03 0.  1.
        -12    1    3    3    0    0 -0.16221971798E+01  0.87887332633E+01  0.38125209319E+01  0.97164125025E+01  0.00000000000E+00 0.  1.
</event>
<event>
 7    1  0.7579108E-012  0.5930197E+02  0.7816164E-02  0.1266605E+00
        -11   -1    0    0    0    0  0.00000000000E+00  0.00000000000E+00  0.45593999997E+02  0.45594000000E+02  0.51100000000E-03 0. -1.
         11   -1    0    0    0    0 -0.00000000000E+00 -0.00000000000E+00 -0.45593999997E+02  0.45594000000E+02  0.51100000000E-03 0.  1.
    9900012    2    1    2    0    0 -0.12623865198E+01 -0.28931779928E+02 -0.13344573123E+02  0.59301966359E+02  0.50000040727E+02 0.  0.
         12    1    1    2    0    0  0.12623865198E+01  0.28931779928E+02  0.13344573123E+02  0.31886033641E+02  0.00000000000E+00 0. -1.
         11    1    3    3    0    0  0.13296475370E+02 -0.79568601622E+01  0.11576450640E+02  0.19342235926E+02  0.51100000000E-03 0. -1.
        -11    1    3    3    0    0 -0.15943170407E+02 -0.23068022571E+02 -0.20023188793E+02  0.34456442615E+02  0.51100000000E-03 0.  1.
         12    1    3    3    0    0  0.13843085164E+01  0.20931028052E+01 -0.48978349701E+01  0.55032878187E+01  0.00000000000E+00 0. -1.
</event>
<event>
 7    1  0.7579108E-012  0.5930193E+02  0.7816164E-02  0.1266605E+00
        -11   -1    0    0    0    0  0.00000000000E+00  0.00000000000E+00  0.45593999997E+02  0.45594000000E+02  0.51100000000E-03 0.  1.
         11   -1    0    0    0    0 -0.00000000000E+00 -0.00000000000E+00 -0.45593999997E+02  0.45594000000E+02  0.51100000000E-03 0. -1.
    9900012    2    1    2    0    0 -0.23561872964E+02 -0.10727429157E+02  0.18614031348E+02  0.59301925345E+02  0.49999965927E+02 0.  0.
         12    1    1    2    0    0  0.23561872964E+02  0.10727429157E+02 -0.18614031348E+02  0.31886074655E+02  0.00000000000E+00 0. -1.
         11    1    3    3    0    0 -0.11545039043E+02  0.78743564328E-01  0.25180796364E+02  0.27701383230E+02  0.51100000000E-03 0.  1.
        -11    1    3    3    0    0 -0.99407578008E+01 -0.13974227028E+02 -0.14726472157E+02  0.22604571863E+02  0.51100000000E-03 0. -1.
         12    1    3    3    0    0 -0.20760761198E+01  0.31680543062E+01  0.81597071410E+01  0.89959702517E+01  0.00000000000E+00 0. -1.
</event>
<event>
 7    1  0.7579108E-012  0.5930200E+02  0.7816164E-02  0.1266605E+00
        -11   -1    0    0    0    0  0.00000000000E+00  0.00000000000E+00  0.45593999997E+02  0.45594000000E+02  0.51100000000E-03 0. -1.
         11   -1    0    0    0    0 -0.00000000000E+00 -0.00000000000E+00 -0.45593999997E+02  0.45594000000E+02  0.51100000000E-03 0.  1.
    9900012    2    1    2    0    0  0.81412882558E+01 -0.16034243053E+02 -0.26331336916E+02  0.59302002626E+02  0.50000106869E+02 0.  0.
         12    1    1    2    0    0 -0.81412882558E+01  0.16034243053E+02  0.26331336916E+02  0.31885997374E+02  0.00000000000E+00 0. -1.
         11    1    3    3    0    0  0.57989473634E+01  0.87352491708E+01 -0.31830781250E+01  0.10957388156E+02  0.51100000000E-03 0. -1.
        -11    1    3    3    0    0 -0.75768877797E+01 -0.20620078076E+02 -0.28780559267E+02  0.36206593878E+02  0.51100000000E-03 0.  1.
        -12    1    3    3    0    0  0.99192286721E+01 -0.41494141481E+01  0.56323004759E+01  0.12138020591E+02  0.00000000000E+00 0.  1.
</event>
<event>
 7    1  0.7579108E-012  0.5930194E+02  0.7816164E-02  0.1266605E+00
        -11   -1    0    0    0    0  0.00000000000E+00  0.00000000000E+00  0.45593999997E+02  0.45594000000E+02  0.51100000000E-03 0.  1.
         11   -1    0    0    0    0 -0.00000000000E+00 -0.00000000000E+00 -0.45593999997E+02  0.45594000000E+02  0.51100000000E-03 0. -1.
    9900012    2    1    2    0    0  0.75875942518E+01 -0.25603796440E+02  0.17423979416E+02  0.59301936628E+02  0.49999986505E+02 0.  0.
         12    1    1    2    0    0 -0.75875942518E+01  0.25603796440E+02 -0.17423979416E+02  0.31886063372E+02  0.00000000000E+00 0. -1.
         11    1    3    3    0    0 -0.10298773816E+02 -0.72805574008E+01  0.11950273482E+02  0.17374702723E+02  0.51100000000E-03 0. -1.
        -11    1    3    3    0    0  0.18395658325E+02  0.43229758901E+01  0.18474898262E+01  0.18986879277E+02  0.51100000000E-03 0.  1.
        -12    1    3    3    0    0 -0.50929025791E+00 -0.22646214929E+02  0.36262161076E+01  0.22940354628E+02  0.00000000000E+00 0.  1.
</event>
<event>
 7    1  0.7579108E-012  0.5930194E+02  0.7816164E-02  0.1266605E+00
        -11   -1    0    0    0    0  0.00000000000E+00  0.00000000000E+00  0.45593999997E+02  0.45594000000E+02  0.51100000000E-03 0.  1.
         11   -1    0    0    0    0 -0.00000000000E+00 -0.00000000000E+00 -0.45593999997E+02  0.45594000000E+02  0.51100000000E-03 0. -1.
    9900012    2    1    2    0    0  0.14481365081E+02  0.22394804624E+01  0.28319526304E+02  0.59301940704E+02  0.49999993939E+02 0.  0.
         12    1    1    2    0    0 -0.14481365081E+02 -0.22394804624E+01 -0.28319526304E+02  0.31886059296E+02  0.00000000000E+00 0. -1.
         11    1    3    3    0    0  0.12125465637E+02 -0.38049683323E+01 -0.73117848767E+01  0.14661749530E+02  0.51100000000E-03 0. -1.
        -11    1    3    3    0    0  0.40504142345E+01  0.12752436020E+02  0.35257914958E+02  0.37711417997E+02  0.51100000000E-03 0.  1.
        -12    1    3    3    0    0 -0.16945147912E+01 -0.67079872258E+01  0.37339622253E+00  0.69287731770E+01  0.00000000000E+00 0.  1.
</event>
<event>
 7    1  0.7579108E-012  0.5930181E+02  0.7816164E-02  0.1266605E+00
        -11   -1    0    0    0    0  0.00000000000E+00  0.00000000000E+00  0.45593999997E+02  0.45594000000E+02  0.51100000000E-03 0.  1.
         11   -1    0    0    0    0 -0.00000000000E+00 -0.00000000000E+00 -0.45593999997E+02  0.45594000000E+02  0.51100000000E-03 0. -1.
    9900012    2    1    2    0    0 -0.34996898691E+01  0.14731411800E+02  0.28061834934E+02  0.59301813294E+02  0.49999761573E+02 0.  0.
         12    1    1    2    0    0  0.34996898691E+01 -0.14731411800E+02 -0.28061834934E+02  0.31886186706E+02  0.00000000000E+00 0. -1.
         11    1    3    3    0    0 -0.20240389414E+02  0.17117671408E+02  0.22803512375E+01  0.26606165452E+02  0.51100000000E-03 0. -1.
        -11    1    3    3    0    0  0.91645786739E+01  0.33392989415E+01  0.17771466584E+02  0.20272282666E+02  0.51100000000E-03 0.  1.
         12    1    3    3    0    0  0.75761208706E+01 -0.57255585492E+01  0.80100171117E+01  0.12423365175E+02  0.00000000000E+00 0. -1.
</event>
<event>
 7    1  0.7579108E-012  0.5930196E+02  0.7816164E-02  0.1266605E+00
        -11   -1    0    0    0    0  0.00000000000E+00  0.00000000000E+00  0.45593999997E+02  0.45594000000E+02  0.51100000000E-03 0.  1.
         11   -1    0    0    0    0 -0.00000000000E+00 -0.00000000000E+00 -0.45593999997E+02  0.45594000000E+02  0.51100000000E-03 0. -1.
    9900012    2    1    2    0    0 -0.35900755188E+01  0.30746129396E+02  0.76489322431E+01  0.59301964193E+02  0.50000036776E+02 0.  0.
         12    1    1    2    0    0  0.35900755188E+01 -0.30746129396E+02 -0.76489322431E+01  0.31886035807E+02  0.00000000000E+00 0. -1.
         11    1    3    3    0    0 -0.13042004563E+02  0.16357871158E+01  0.80114857947E+01  0.15393296834E+02  0.51100000000E-03 0. -1.
        -11    1    3    3    0    0  0.14738424047E+02  0.18842403184E+01 -0.52264884127E+01  0.15750799546E+02  0.51100000000E-03 0.  1.
        -12    1    3    3    0    0 -0.52864950025E+01  0.27226101961E+02  0.48639348611E+01  0.28157867813E+02  0.00000000000E+00 0.  1.
</event>
<event>
 7    1  0.7579108E-012  0.5930194E+02  0.7816164E-02  0.1266605E+00
        -11   -1    0    0    0    0  0.00000000000E+00  0.00000000000E+00  0.45593999997E+02  0.45594000000E+02  0.51100000000E-03 0.  1.
         11   -1    0    0    0    0 -0.00000000000E+00 -0.00000000000E+00 -0.45593999997E+02  0.45594000000E+02  0.51100000000E-03 0. -1.
    9900012    2    1    2    0    0 -0.28599112833E+02 -0.13573840507E+02 -0.38161077198E+01  0.59301935973E+02  0.49999985311E+02 0.  0.
         12    1    1    2    0    0  0.28599112833E+02  0.13573840507E+02  0.38161077198E+01  0.31886064027E+02  0.00000000000E+00 0. -1.
         11    1    3    3    0    0  0.40748328115E+01  0.59045068487E+01  0.11473447377E+02  0.13531720457E+02  0.51100000000E-03 0. -1.
        -11    1    3    3    0    0 -0.20732534576E+02 -0.14358997545E+02  0.62314784596E+00  0.25227110694E+02  0.51100000000E-03 0.  1.
         12    1    3    3    0    0 -0.11941411069E+02 -0.51193498107E+01 -0.15912702943E+02  0.20543104822E+02  0.00000000000E+00 0. -1.
</event>
<event>
 7    1  0.7579108E-012  0.5930195E+02  0.7816164E-02  0.1266605E+00
        -11   -1    0    0    0    0  0.00000000000E+00  0.00000000000E+00  0.45593999997E+02  0.45594000000E+02  0.51100000000E-03 0.  1.
         11   -1    0    0    0    0 -0.00000000000E+00 -0.00000000000E+00 -0.45593999997E+02  0.45594000000E+02  0.51100000000E-03 0. -1.
    9900012    2    1    2    0    0  0.25725369025E+02  0.69026713508E+01  0.17529369638E+02  0.59301948455E+02  0.50000008074E+02 0.  0.
         12    1    1    2    0    0 -0.25725369025E+02 -0.69026713508E+01 -0.17529369638E+02  0.31886051545E+02  0.00000000000E+00 0. -1.
         11    1    3    3    0    0  0.18117427769E+02 -0.11002496137E+02  0.10146220246E+01  0.21220875767E+02  0.51100000000E-03 0. -1.
        -11    1    3    3    0    0  0.10974705070E+02  0.62677138211E+01  0.21533175456E+02  0.24968100316E+02  0.51100000000E-03 0.  1.
         12    1    3    3    0    0 -0.33667638143E+01  0.11637453666E+02 -0.50184278427E+01  0.13112972372E+02  0.00000000000E+00 0. -1.
</event>
<event>
 7    1  0.7579108E-012  0.5930196E+02  0.7816164E-02  0.1266605E+00
        -11   -1    0    0    0    0  0.00000000000E+00  0.00000000000E+00  0.45593999997E+02  0.45594000000E+02  0.51100000000E-03 0.  1.
         11   -1    0    0    0    0 -0.00000000000E+00 -0.00000000000E+00 -0.45593999997E+02  0.45594000000E+02  0.51100000000E-03 0. -1.
    9900012    2    1    2    0    0  0.21876784668E+02  0.64764931339E+01  0.22275120845E+02  0.59301957922E+02  0.50000025340E+02 0.  0.
         12    1    1    2    0    0 -0.21876784668E+02 -0.64764931339E+01 -0.22275120845E+02  0.31886042078E+02  0.00000000000E+00 0. -1.
         11    1    3    3    0    0  0.22392172278E+02 -0.12872797158E+02 -0.33696642058E+01  0.26047512801E+02  0.51100000000E-03 0. -1.
        -11    1    3    3    0    0  0.21936731383E+01  0.12246770751E+02  0.20809722613E+02  0.24245415054E+02  0.51100000000E-03 0.  1.
         12    1    3    3    0    0 -0.27090607484E+01  0.71025195408E+01  0.48350624382E+01  0.90090300669E+01  0.00000000000E+00 0. -1.
</event>
<event>
 7    1  0.7579108E-012  0.5930179E+02  0.7816164E-02  0.1266605E+00
        -11   -1    0    0    0    0  0.00000000000E+00  0.00000000000E+00  0.45593999997E+02  0.45594000000E+02  0.51100000000E-03 0. -1.
         11   -1    0    0    0    0 -0.00000000000E+00 -0.00000000000E+00 -0.45593999997E+02  0.45594000000E+02  0.51100000000E-03 0.  1.
    9900012    2    1    2    0    0 -0.69873799961E+01 -0.10553233807E+02 -0.29266639128E+02  0.59301789989E+02  0.49999719070E+02 0.  0.
         12    1    1    2    0    0  0.69873799961E+01  0.10553233807E+02  0.29266639128E+02  0.31886210011E+02  0.00000000000E+00 0. -1.
         11    1    3    3    0    0 -0.22687692830E+02 -0.30618757209E+01 -0.31640247287E+02  0.39053959306E+02  0.51100000000E-03 0. -1.
        -11    1    3    3    0    0  0.63598249520E+01 -0.86047643261E+01  0.11341158229E+01  0.10759905273E+02  0.51100000000E-03 0.  1.
         12    1    3    3    0    0  0.93404878819E+01  0.11134062402E+01  0.12394923353E+01  0.94879254096E+01  0.00000000000E+00 0. -1.
</event>
<event>
 7    1  0.7579108E-012  0.5930199E+02  0.7816164E-02  0.1266605E+00
        -11   -1    0    0    0    0  0.00000000000E+00  0.00000000000E+00  0.45593999997E+02  0.45594000000E+02  0.51100000000E-03 0.  1.
         11   -1    0    0    0    0 -0.00000000000E+00 -0.00000000000E+00 -0.45593999997E+02  0.45594000000E+02  0.51100000000E-03 0. -1.
    9900012    2    1    2    0    0  0.19132718164E+02 -0.16607606361E+02  0.19360891171E+02  0.59301990524E+02  0.50000084798E+02 0.  0.
         12    1    1    2    0    0 -0.19132718164E+02  0.16607606361E+02 -0.19360891171E+02  0.31886009476E+02  0.00000000000E+00 0. -1.
         11    1    3    3    0    0  0.78884187703E+01  0.10326665417E+02 -0.39271292730E+01  0.13575327396E+02  0.51100000000E-03 0. -1.
        -11    1    3    3    0    0 -0.58506352040E+01 -0.18341146517E+02  0.66400744009E+01  0.20364630518E+02  0.51100000000E-03 0.  1.
         12    1    3    3    0    0  0.17094934597E+02 -0.85931252612E+01  0.16647946043E+02  0.25362032610E+02  0.00000000000E+00 0. -1.
</event>
<event>
 7    1  0.7579108E-012  0.5930202E+02  0.7816164E-02  0.1266605E+00
        -11   -1    0    0    0    0  0.00000000000E+00  0.00000000000E+00  0.45593999997E+02  0.45594000000E+02  0.51100000000E-03 0. -1.
         11   -1    0    0    0    0 -0.00000000000E+00 -0.00000000000E+00 -0.45593999997E+02  0.45594000000E+02  0.51100000000E-03 0.  1.
    9900012    2    1    2    0    0 -0.23229259363E+02 -0.20621562077E+02 -0.72019913359E+01  0.59302015739E+02  0.50000130785E+02 0.  0.
         12    1    1    2    0    0  0.23229259363E+02  0.20621562077E+02  0.72019913359E+01  0.31885984261E+02  0.00000000000E+00 0. -1.
         11    1    3    3    0    0  0.29269377127E+01  0.13961736175E+01  0.13101827070E+02  0.13497190003E+02  0.51100000000E-03 0. -1.
        -11    1    3    3    0    0 -0.21163124003E+02 -0.55347633735E+01 -0.18196217161E+02  0.28453712278E+02  0.51100000000E-03 0.  1.
         12    1    3    3    0    0 -0.49930730727E+01 -0.16482972321E+02 -0.21076012448E+01  0.17351113459E+02  0.00000000000E+00 0. -1.
</event>
<event>
 7    1  0.7579108E-012  0.5930193E+02  0.7816164E-02  0.1266605E+00
        -11   -1    0    0    0    0  0.00000000000E+00  0.00000000000E+00  0.45593999997E+02  0.45594000000E+02  0.51100000000E-03 0. -1.
         11   -1    0    0    0    0 -0.00000000000E+00 -0.00000000000E+00 -0.45593999997E+02  0.45594000000E+02  0.51100000000E-03 0.  1.
    9900012    2    1    2    0    0  0.24523798682E+02 -0.81938444599E+01 -0.18659189684E+02  0.59301934886E+02  0.49999983327E+02 0.  0.
         12    1    1    2    0    0 -0.24523798682E+02  0.81938444599E+01  0.18659189684E+02  0.31886065114E+02  0.00000000000E+00 0. -1.
         11    1    3    3    0    0  0.12520436037E+02 -0.10426613540E+02 -0.23853707011E+01  0.16467106063E+02  0.51100000000E-03 0. -1.
        -11    1    3    3    0    0  0.35843530505E+01  0.14540486409E+02 -0.22208090329E+02  0.26785679162E+02  0.51100000000E-03 0.  1.
        -12    1    3    3    0    0  0.84190095944E+01 -0.12307717329E+02  0.59342713468E+01  0.16049149661E+02  0.00000000000E+00 0.  1.
</event>
<event>
 7    1  0.7579108E-012  0.5930197E+02  0.7816164E-02  0.1266605E+00
        -11   -1    0    0    0    0  0.00000000000E+00  0.00000000000E+00  0.45593999997E+02  0.45594000000E+02  0.51100000000E-03 0. -1.
         11   -1    0    0    0    0 -0.00000000000E+00 -0.00000000000E+00 -0.45593999997E+02  0.45594000000E+02  0.51100000000E-03 0.  1.
    9900012    2    1    2    0    0 -0.19591034491E+02  0.14566481354E+02 -0.20511650497E+02  0.59301971436E+02  0.50000049987E+02 0.  0.
         12    1    1    2    0    0  0.19591034491E+02 -0.14566481354E+02  0.20511650497E+02  0.31886028564E+02  0.00000000000E+00 0. -1.
         11    1    3    3    0    0 -0.24701857572E+02  0.70292078730E+01 -0.52679366240E+01  0.26217221198E+02  0.51100000000E-03 0. -1.
        -11    1    3    3    0    0  0.63951783014E+01 -0.23701907116E+01  0.63331640080E+01  0.93072593243E+01  0.51100000000E-03 0.  1.
        -12    1    3    3    0    0 -0.12843552201E+01  0.99074641930E+01 -0.21576877881E+02  0.23777490914E+02  0.00000000000E+00 0.  1.
</event>
<event>
 7    1  0.7579108E-012  0.5930193E+02  0.7816164E-02  0.1266605E+00
        -11   -1    0    0    0    0  0.00000000000E+00  0.00000000000E+00  0.45593999997E+02  0.45594000000E+02  0.51100000000E-03 0.  1.
         11   -1    0    0    0    0 -0.00000000000E+00 -0.00000000000E+00 -0.45593999997E+02  0.45594000000E+02  0.51100000000E-03 0. -1.
    9900012    2    1    2    0    0 -0.87279452885E+01 -0.10120959743E+02  0.28950138818E+02  0.59301931056E+02  0.49999976343E+02 0.  0.
         12    1    1    2    0    0  0.87279452885E+01  0.10120959743E+02 -0.28950138818E+02  0.31886068944E+02  0.00000000000E+00 0. -1.
         11    1    3    3    0    0 -0.27240738130E+01  0.17960459783E+02  0.54553205063E+00  0.18174055662E+02  0.51100000000E-03 0. -1.
        -11    1    3    3    0    0 -0.38255871059E+01 -0.21278464557E+02  0.16311732669E+02  0.27082850543E+02  0.51100000000E-03 0.  1.
         12    1    3    3    0    0 -0.21782843697E+01 -0.68029549682E+01  0.12092874099E+02  0.14045024851E+02  0.00000000000E+00 0. -1.
</event>
<event>
 7    1  0.7579108E-012  0.5930193E+02  0.7816164E-02  0.1266605E+00
        -11   -1    0    0    0    0  0.00000000000E+00  0.00000000000E+00  0.45593999997E+02  0.45594000000E+02  0.51100000000E-03 0. -1.
         11   -1    0    0    0    0 -0.00000000000E+00 -0.00000000000E+00 -0.45593999997E+02  0.45594000000E+02  0.51100000000E-03 0.  1.
    9900012    2    1    2    0    0 -0.21172857353E+02 -0.16259392087E+02 -0.17437429096E+02  0.59301926974E+02  0.49999968898E+02 0.  0.
         12    1    1    2    0    0  0.21172857353E+02  0.16259392087E+02  0.17437429096E+02  0.31886073026E+02  0.00000000000E+00 0. -1.
         11    1    3    3    0    0 -0.66282032800E+01  0.36338009756E+01  0.98152664281E+01  0.12388585213E+02  0.51100000000E-03 0. -1.
        -11    1    3    3    0    0 -0.18442305236E+02 -0.31954989959E+01 -0.22200891497E+02  0.29038068458E+02  0.51100000000E-03 0.  1.
         12    1    3    3    0    0  0.38976511627E+01 -0.16697694067E+02 -0.50518040270E+01  0.17875273303E+02  0.00000000000E+00 0. -1.
</event>
<event>
 7    1  0.7579108E-012  0.5930195E+02  0.7816164E-02  0.1266605E+00
        -11   -1    0    0    0    0  0.00000000000E+00  0.00000000000E+00  0.45593999997E+02  0.45594000000E+02  0.51100000000E-03 0.  1.
         11   -1    0    0    0    0 -0.00000000000E+00 -0.00000000000E+00 -0.45593999997E+02  0.45594000000E+02  0.51100000000E-03 0. -1.
    9900012    2    1    2    0    0  0.68494717089E+01  0.11668104820E+02  0.28873171111E+02  0.59301953792E+02  0.50000017807E+02 0.  0.
         12    1    1    2    0    0 -0.68494717089E+01 -0.11668104820E+02 -0.28873171111E+02  0.31886046208E+02  0.00000000000E+00 0. -1.
         11    1    3    3    0    0  0.16900205565E+01 -0.12298574197E+02 -0.68638236918E+01  0.14185315389E+02  0.51100000000E-03 0. -1.
        -11    1    3    3    0    0  0.61828364840E+01  0.15399999031E+02  0.13934910571E+02  0.21669544759E+02  0.51100000000E-03 0.  1.
         12    1    3    3    0    0 -0.10233853316E+01  0.85666799853E+01  0.21802084232E+02  0.23447093644E+02  0.00000000000E+00 0. -1.
</event>
<event>
 7    1  0.7579108E-012  0.5930194E+02  0.7816164E-02  0.1266605E+00
        -11   -1    0    0    0    0  0.00000000000E+00  0.00000000000E+00  0.45593999997E+02  0.45594000000E+02  0.51100000000E-03 0. -1.
         11   -1    0    0    0    0 -0.00000000000E+00 -0.00000000000E+00 -0.45593999997E+02  0.45594000000E+02  0.51100000000E-03 0.  1.
    9900012    2    1    2    0    0 -0.68209432237E+01 -0.19502939383E+02 -0.24286436501E+02  0.59301938641E+02  0.49999990176E+02 0.  0.
         12    1    1    2    0    0  0.68209432237E+01  0.19502939383E+02  0.24286436501E+02  0.31886061359E+02  0.00000000000E+00 0. -1.
         11    1    3    3    0    0 -0.86539490753E+01  0.32172137531E+01 -0.14359828266E+02  0.17071788630E+02  0.51100000000E-03 0.  1.
        -11    1    3    3    0    0  0.12109869728E+02  0.10906135604E+01  0.39917895123E+01  0.12797373423E+02  0.51100000000E-03 0. -1.
         12    1    3    3    0    0 -0.10276863876E+02 -0.23810766697E+02 -0.13918397747E+02  0.29432776588E+02  0.00000000000E+00 0. -1.
</event>
<event>
 7    1  0.7579108E-012  0.5930192E+02  0.7816164E-02  0.1266605E+00
        -11   -1    0    0    0    0  0.00000000000E+00  0.00000000000E+00  0.45593999997E+02  0.45594000000E+02  0.51100000000E-03 0.  1.
         11   -1    0    0    0    0 -0.00000000000E+00 -0.00000000000E+00 -0.45593999997E+02  0.45594000000E+02  0.51100000000E-03 0. -1.
    9900012    2    1    2    0    0 -0.31422207915E+02 -0.27782446262E+01  0.46527836746E+01  0.59301918563E+02  0.49999953559E+02 0.  0.
         12    1    1    2    0    0  0.31422207915E+02  0.27782446262E+01 -0.46527836746E+01  0.31886081437E+02  0.00000000000E+00 0. -1.
         11    1    3    3    0    0  0.12645449153E+02 -0.30121573156E+01  0.64464625749E+00  0.13015223588E+02  0.51100000000E-03 0. -1.
        -11    1    3    3    0    0 -0.24595065856E+02  0.16951227314E+01  0.88053863018E+01  0.26178722920E+02  0.51100000000E-03 0.  1.
         12    1    3    3    0    0 -0.19472591213E+02 -0.14612100419E+01 -0.47972488847E+01  0.20107972056E+02  0.00000000000E+00 0. -1.
</event>
<event>
 7    1  0.7579108E-012  0.5930195E+02  0.7816164E-02  0.1266605E+00
        -11   -1    0    0    0    0  0.00000000000E+00  0.00000000000E+00  0.45593999997E+02  0.45594000000E+02  0.51100000000E-03 0.  1.
         11   -1    0    0    0    0 -0.00000000000E+00 -0.00000000000E+00 -0.45593999997E+02  0.45594000000E+02  0.51100000000E-03 0. -1.
    9900012    2    1    2    0    0  0.81450863912E+01  0.84485430146E+01  0.29647928824E+02  0.59301952974E+02  0.50000016316E+02 0.  0.
         12    1    1    2    0    0 -0.81450863912E+01 -0.84485430146E+01 -0.29647928824E+02  0.31886047026E+02  0.00000000000E+00 0. -1.
         11    1    3    3    0    0  0.71677256349E+01  0.19193871942E+02 -0.40001438851E+00  0.20492462582E+02  0.51100000000E-03 0. -1.
        -11    1    3    3    0    0 -0.56439181902E+01 -0.14174185174E+02  0.12431604615E+02  0.19680094803E+02  0.51100000000E-03 0.  1.
         12    1    3    3    0    0  0.66212789465E+01  0.34288562471E+01  0.17616338597E+02  0.19129395590E+02  0.00000000000E+00 0. -1.
</event>
<event>
 7    1  0.7579108E-012  0.5930204E+02  0.7816164E-02  0.1266604E+00
        -11   -1    0    0    0    0  0.00000000000E+00  0.00000000000E+00  0.45593999997E+02  0.45594000000E+02  0.51100000000E-03 0.  1.
         11   -1    0    0    0    0 -0.00000000000E+00 -0.00000000000E+00 -0.45593999997E+02  0.45594000000E+02  0.51100000000E-03 0. -1.
    9900012    2    1    2    0    0 -0.11662582984E+02 -0.28637191162E+02  0.77852417901E+01  0.59302038368E+02  0.50000172053E+02 0.  0.
         12    1    1    2    0    0  0.11662582984E+02  0.28637191162E+02 -0.77852417901E+01  0.31885961632E+02  0.00000000000E+00 0. -1.
         11    1    3    3    0    0 -0.13749416221E+02 -0.85533972772E+00  0.10228811992E+01  0.13813918295E+02  0.51100000000E-03 0. -1.
        -11    1    3    3    0    0  0.17991640136E+02 -0.10471184004E+02 -0.68658881801E+00  0.20828255177E+02  0.51100000000E-03 0.  1.
        -12    1    3    3    0    0 -0.15904806900E+02 -0.17310667430E+02  0.74489494090E+01  0.24659864896E+02  0.00000000000E+00 0.  1.
</event>
<event>
 7    1  0.7579108E-012  0.5930194E+02  0.7816164E-02  0.1266605E+00
        -11   -1    0    0    0    0  0.00000000000E+00  0.00000000000E+00  0.45593999997E+02  0.45594000000E+02  0.51100000000E-03 0.  1.
         11   -1    0    0    0    0 -0.00000000000E+00 -0.00000000000E+00 -0.45593999997E+02  0.45594000000E+02  0.51100000000E-03 0. -1.
    9900012    2    1    2    0    0  0.25706383661E+02 -0.27508908788E+01  0.18663737546E+02  0.59301942534E+02  0.49999997275E+02 0.  0.
         12    1    1    2    0    0 -0.25706383661E+02  0.27508908788E+01 -0.18663737546E+02  0.31886057466E+02  0.00000000000E+00 0. -1.
         11    1    3    3    0    0  0.12296633525E+02 -0.11584425296E+01 -0.71314872652E+01  0.14262092975E+02  0.51100000000E-03 0. -1.
        -11    1    3    3    0    0 -0.32685148259E+01 -0.27981070676E+00  0.27976709352E+02  0.28168382091E+02  0.51100000000E-03 0.  1.
        -12    1    3    3    0    0  0.16678264962E+02 -0.13126376425E+01 -0.21814845405E+01  0.16871467468E+02  0.00000000000E+00 0.  1.
</event>
<event>
 7    1  0.7579108E-012  0.5930193E+02  0.7816164E-02  0.1266605E+00
        -11   -1    0    0    0    0  0.00000000000E+00  0.00000000000E+00  0.45593999997E+02  0.45594000000E+02  0.51100000000E-03 0. -1.
         11   -1    0    0    0    0 -0.00000000000E+00 -0.00000000000E+00 -0.45593999997E+02  0.45594000000E+02  0.51100000000E-03 0.  1.
    9900012    2    1    2    0    0 -0.23249126090E+02  0.12432963077E+02 -0.17933788357E+02  0.59301934083E+02  0.49999981863E+02 0.  0.
         12    1    1    2    0    0  0.23249126090E+02 -0.12432963077E+02  0.17933788357E+02  0.31886065917E+02  0.00000000000E+00 0. -1.
         11    1    3    3    0    0  0.29596845897E+01  0.11350989371E+02 -0.25477084204E+02  0.28047932408E+02  0.51100000000E-03 0.  1.
        -11    1    3    3    0    0 -0.27569504643E+02 -0.64183953068E-01  0.89500383903E+01  0.28985943029E+02  0.51100000000E-03 0. -1.
         12    1    3    3    0    0  0.13606939627E+01  0.11461576583E+01 -0.14067425432E+01  0.22680586458E+01  0.00000000000E+00 0. -1.
</event>
<event>
 7    1  0.7579108E-012  0.5930202E+02  0.7816164E-02  0.1266605E+00
        -11   -1    0    0    0    0  0.00000000000E+00  0.00000000000E+00  0.45593999997E+02  0.45594000000E+02  0.51100000000E-03 0. -1.
         11   -1    0    0    0    0 -0.00000000000E+00 -0.00000000000E+00 -0.45593999997E+02  0.45594000000E+02  0.51100000000E-03 0.  1.
    9900012    2    1    2    0    0 -0.10773703585E+02 -0.16564157624E+02 -0.25025426615E+02  0.59302015869E+02  0.50000131021E+02 0.  0.
         12    1    1    2    0    0  0.10773703585E+02  0.16564157624E+02  0.25025426615E+02  0.31885984131E+02  0.00000000000E+00 0. -1.
         11    1    3    3    0    0  0.78120618788E+01  0.19870644682E+01  0.62944247845E+00  0.80853530593E+01  0.51100000000E-03 0. -1.
        -11    1    3    3    0    0 -0.17374393843E+02 -0.28628098592E+02 -0.15647313675E+02  0.36963171075E+02  0.51100000000E-03 0.  1.
        -12    1    3    3    0    0 -0.12113716209E+01  0.10076876500E+02 -0.10007555418E+02  0.14253491735E+02  0.00000000000E+00 0.  1.
</event>
<event>
 7    1  0.7579108E-012  0.5930192E+02  0.7816164E-02  0.1266605E+00
        -11   -1    0    0    0    0  0.00000000000E+00  0.00000000000E+00  0.45593999997E+02  0.45594000000E+02  0.51100000000E-03 0. -1.
         11   -1    0    0    0    0 -0.00000000000E+00 -0.00000000000E+00 -0.45593999997E+02  0.45594000000E+02  0.51100000000E-03 0.  1.
    9900012    2    1    2    0    0 -0.23198242279E+02  0.15661703597E+02 -0.15273325804E+02  0.59301923328E+02  0.49999962249E+02 0.  0.
         12    1    1    2    0    0  0.23198242279E+02 -0.15661703597E+02  0.15273325804E+02  0.31886076672E+02  0.00000000000E+00 0. -1.
         11    1    3    3    0    0 -0.83798908741E+00  0.90108135815E+00  0.30111962830E+01  0.32529181730E+01  0.51100000000E-03 0. -1.
        -11    1    3    3    0    0 -0.14866183641E+02 -0.37779291880E+01 -0.29407622543E+02  0.33167520693E+02  0.51100000000E-03 0.  1.
        -12    1    3    3    0    0 -0.74940695502E+01  0.18538551427E+02  0.11123100457E+02  0.22881484462E+02  0.00000000000E+00 0.  1.
</event>
<event>
 7    1  0.7579108E-012  0.5930195E+02  0.7816164E-02  0.1266605E+00
        -11   -1    0    0    0    0  0.00000000000E+00  0.00000000000E+00  0.45593999997E+02  0.45594000000E+02  0.51100000000E-03 0.  1.
         11   -1    0    0    0    0 -0.00000000000E+00 -0.00000000000E+00 -0.45593999997E+02  0.45594000000E+02  0.51100000000E-03 0. -1.
    9900012    2    1    2    0    0 -0.20836287190E+02 -0.85097320228E+01  0.22586589751E+02  0.59301946002E+02  0.50000003601E+02 0.  0.
         12    1    1    2    0    0  0.20836287190E+02  0.85097320228E+01 -0.22586589751E+02  0.31886053998E+02  0.00000000000E+00 0. -1.
         11    1    3    3    0    0 -0.20514092036E+02  0.83330231567E+01  0.95366342798E+01  0.24108393573E+02  0.51100000000E-03 0.  1.
        -11    1    3    3    0    0 -0.86836287940E+01 -0.17979494838E+02  0.16670752003E+02  0.26011182523E+02  0.51100000000E-03 0. -1.
         12    1    3    3    0    0  0.83614336404E+01  0.11367396585E+01 -0.36207965313E+01  0.91823699062E+01  0.00000000000E+00 0. -1.
</event>
<event>
 7    1  0.7579108E-012  0.5930196E+02  0.7816164E-02  0.1266605E+00
        -11   -1    0    0    0    0  0.00000000000E+00  0.00000000000E+00  0.45593999997E+02  0.45594000000E+02  0.51100000000E-03 0.  1.
         11   -1    0    0    0    0 -0.00000000000E+00 -0.00000000000E+00 -0.45593999997E+02  0.45594000000E+02  0.51100000000E-03 0. -1.
    9900012    2    1    2    0    0  0.28384875312E+02  0.75740973553E+01  0.12395630633E+02  0.59301956720E+02  0.50000023148E+02 0.  0.
         12    1    1    2    0    0 -0.28384875312E+02 -0.75740973553E+01 -0.12395630633E+02  0.31886043280E+02  0.00000000000E+00 0. -1.
         11    1    3    3    0    0  0.12579535620E+02  0.22020802422E+01 -0.67039965221E+01  0.14423503161E+02  0.51100000000E-03 0. -1.
        -11    1    3    3    0    0 -0.94632414036E+01  0.84500399714E+01 -0.58433345672E+00  0.12700297604E+02  0.51100000000E-03 0.  1.
        -12    1    3    3    0    0  0.25268581096E+02 -0.30780228583E+01  0.19683960612E+02  0.32178155955E+02  0.00000000000E+00 0.  1.
</event>
<event>
 7    1  0.7579108E-012  0.5930194E+02  0.7816164E-02  0.1266605E+00
        -11   -1    0    0    0    0  0.00000000000E+00  0.00000000000E+00  0.45593999997E+02  0.45594000000E+02  0.51100000000E-03 0. -1.
         11   -1    0    0    0    0 -0.00000000000E+00 -0.00000000000E+00 -0.45593999997E+02  0.45594000000E+02  0.51100000000E-03 0.  1.
    9900012    2    1    2    0    0  0.11326537555E+02  0.63143720420E+01 -0.29130032970E+02  0.59301943986E+02  0.49999999924E+02 0.  0.
         12    1    1    2    0    0 -0.11326537555E+02 -0.63143720420E+01  0.29130032970E+02  0.31886056014E+02  0.00000000000E+00 0. -1.
         11    1    3    3    0    0 -0.52822594333E+01  0.27946765958E+01 -0.61890083099E+01  0.86032729886E+01  0.51100000000E-03 0. -1.
        -11    1    3    3    0    0  0.19652248620E+02 -0.11829144778E+02 -0.10256658063E-01  0.22937734140E+02  0.51100000000E-03 0.  1.
        -12    1    3    3    0    0 -0.30434516326E+01  0.15348840224E+02 -0.22930768002E+02  0.27760936858E+02  0.00000000000E+00 0.  1.
</event>
<event>
 7    1  0.7579108E-012  0.5930182E+02  0.7816164E-02  0.1266605E+00
        -11   -1    0    0    0    0  0.00000000000E+00  0.00000000000E+00  0.45593999997E+02  0.45594000000E+02  0.51100000000E-03 0.  1.
         11   -1    0    0    0    0 -0.00000000000E+00 -0.00000000000E+00 -0.45593999997E+02  0.45594000000E+02  0.51100000000E-03 0. -1.
    9900012    2    1    2    0    0 -0.27942232912E+02 -0.99301656178E+01 -0.11719710957E+02  0.59301824402E+02  0.49999781831E+02 0.  0.
         12    1    1    2    0    0  0.27942232912E+02  0.99301656178E+01  0.11719710957E+02  0.31886175598E+02  0.00000000000E+00 0. -1.
         11    1    3    3    0    0  0.11585263548E+01  0.68618397049E+01  0.90921788133E+01  0.11449661274E+02  0.51100000000E-03 0. -1.
        -11    1    3    3    0    0 -0.23126794130E+02 -0.22185478614E+02 -0.85217826178E+01  0.33161194902E+02  0.51100000000E-03 0.  1.
        -12    1    3    3    0    0 -0.59739651374E+01  0.53934732913E+01 -0.12290107153E+02  0.14690968227E+02  0.00000000000E+00 0.  1.
</event>
<event>
 7    1  0.7579108E-012  0.5930195E+02  0.7816164E-02  0.1266605E+00
        -11   -1    0    0    0    0  0.00000000000E+00  0.00000000000E+00  0.45593999997E+02  0.45594000000E+02  0.51100000000E-03 0.  1.
         11   -1    0    0    0    0 -0.00000000000E+00 -0.00000000000E+00 -0.45593999997E+02  0.45594000000E+02  0.51100000000E-03 0. -1.
    9900012    2    1    2    0    0  0.10346515645E+02 -0.12523742166E+02  0.27437665848E+02  0.59301952722E+02  0.50000015856E+02 0.  0.
         12    1    1    2    0    0 -0.10346515645E+02  0.12523742166E+02 -0.27437665848E+02  0.31886047278E+02  0.00000000000E+00 0. -1.
         11    1    3    3    0    0  0.45219011565E+01  0.11784346549E+00 -0.12563864496E+01  0.46946761681E+01  0.51100000000E-03 0. -1.
        -11    1    3    3    0    0 -0.16486187878E+02 -0.64020685790E+01  0.25772332972E+02  0.31256903556E+02  0.51100000000E-03 0.  1.
        -12    1    3    3    0    0  0.22310802367E+02 -0.62395170530E+01  0.29217193261E+01  0.23350372998E+02  0.00000000000E+00 0.  1.
</event>
<event>
 7    1  0.7579108E-012  0.5930198E+02  0.7816164E-02  0.1266605E+00
        -11   -1    0    0    0    0  0.00000000000E+00  0.00000000000E+00  0.45593999997E+02  0.45594000000E+02  0.51100000000E-03 0.  1.
         11   -1    0    0    0    0 -0.00000000000E+00 -0.00000000000E+00 -0.45593999997E+02  0.45594000000E+02  0.51100000000E-03 0. -1.
    9900012    2    1    2    0    0  0.26451327222E+02 -0.16629365329E+02 -0.63647449151E+01  0.59301976716E+02  0.50000059615E+02 0.  0.
         12    1    1    2    0    0 -0.26451327222E+02  0.16629365329E+02  0.63647449151E+01  0.31886023284E+02  0.00000000000E+00 0. -1.
         11    1    3    3    0    0  0.62599956654E+01 -0.26078154733E+02 -0.13946883953E+02  0.30228682940E+02  0.51100000000E-03 0. -1.
        -11    1    3    3    0    0  0.14911487899E+02  0.20990306806E+01 -0.27829972058E+01  0.15313506289E+02  0.51100000000E-03 0.  1.
         12    1    3    3    0    0  0.52798436571E+01  0.73497587237E+01  0.10365136243E+02  0.13759787487E+02  0.00000000000E+00 0. -1.
</event>
<event>
 7    1  0.7579108E-012  0.5930194E+02  0.7816164E-02  0.1266605E+00
        -11   -1    0    0    0    0  0.00000000000E+00  0.00000000000E+00  0.45593999997E+02  0.45594000000E+02  0.51100000000E-03 0.  1.
         11   -1    0    0    0    0 -0.00000000000E+00 -0.00000000000E+00 -0.45593999997E+02  0.45594000000E+02  0.51100000000E-03 0. -1.
    9900012    2    1    2    0    0 -0.76613575489E+01 -0.23409108688E+02  0.20249397039E+02  0.59301939573E+02  0.49999991876E+02 0.  0.
         12    1    1    2    0    0  0.76613575489E+01  0.23409108688E+02 -0.20249397039E+02  0.31886060427E+02  0.00000000000E+00 0. -1.
         11    1    3    3    0    0 -0.53480367525E+01 -0.20064400926E+02 -0.73107646834E+01  0.22014289953E+02  0.51100000000E-03 0.  1.
        -11    1    3    3    0    0 -0.54805270277E+00 -0.14425944099E+01  0.32057875862E+02  0.32094997203E+02  0.51100000000E-03 0. -1.
         12    1    3    3    0    0 -0.17652680937E+01 -0.19021133529E+01 -0.44977141394E+01  0.51926524176E+01  0.00000000000E+00 0. -1.
</event>
<event>
 7    1  0.7579108E-012  0.5930193E+02  0.7816164E-02  0.1266605E+00
        -11   -1    0    0    0    0  0.00000000000E+00  0.00000000000E+00  0.45593999997E+02  0.45594000000E+02  0.51100000000E-03 0.  1.
         11   -1    0    0    0    0 -0.00000000000E+00 -0.00000000000E+00 -0.45593999997E+02  0.45594000000E+02  0.51100000000E-03 0. -1.
    9900012    2    1    2    0    0  0.19873924279E+02 -0.21060302386E+02  0.13349607654E+02  0.59301933649E+02  0.49999981071E+02 0.  0.
         12    1    1    2    0    0 -0.19873924279E+02  0.21060302386E+02 -0.13349607654E+02  0.31886066351E+02  0.00000000000E+00 0. -1.
         11    1    3    3    0    0  0.22520116253E+02 -0.49467834766E+01  0.21728673043E+02  0.31682195872E+02  0.51100000000E-03 0.  1.
        -11    1    3    3    0    0 -0.11368797572E+02 -0.11676036282E+02 -0.34324948291E+01  0.16654170724E+02  0.51100000000E-03 0. -1.
         12    1    3    3    0    0  0.87226055980E+01 -0.44374826278E+01 -0.49465705597E+01  0.10965567053E+02  0.00000000000E+00 0. -1.
</event>
<event>
 7    1  0.7579108E-012  0.5930193E+02  0.7816164E-02  0.1266605E+00
        -11   -1    0    0    0    0  0.00000000000E+00  0.00000000000E+00  0.45593999997E+02  0.45594000000E+02  0.51100000000E-03 0.  1.
         11   -1    0    0    0    0 -0.00000000000E+00 -0.00000000000E+00 -0.45593999997E+02  0.45594000000E+02  0.51100000000E-03 0. -1.
    9900012    2    1    2    0    0 -0.16989238275E+02 -0.26697626692E+02  0.39145797157E+01  0.59301930589E+02  0.49999975491E+02 0.  0.
         12    1    1    2    0    0  0.16989238275E+02  0.26697626692E+02 -0.39145797157E+01  0.31886069411E+02  0.00000000000E+00 0. -1.
         11    1    3    3    0    0 -0.78963681963E+01 -0.47409142414E+01 -0.14121312858E+02  0.16859429873E+02  0.51100000000E-03 0. -1.
        -11    1    3    3    0    0 -0.17797972381E+02 -0.20895495728E+02  0.19339119950E+02  0.33576645504E+02  0.51100000000E-03 0.  1.
        -12    1    3    3    0    0  0.87051023030E+01 -0.10612167226E+01 -0.13032273764E+01  0.88658552116E+01  0.00000000000E+00 0.  1.
</event>
<event>
 7    1  0.7579108E-012  0.5930183E+02  0.7816164E-02  0.1266605E+00
        -11   -1    0    0    0    0  0.00000000000E+00  0.00000000000E+00  0.45593999997E+02  0.45594000000E+02  0.51100000000E-03 0.  1.
         11   -1    0    0    0    0 -0.00000000000E+00 -0.00000000000E+00 -0.45593999997E+02  0.45594000000E+02  0.51100000000E-03 0. -1.
    9900012    2    1    2    0    0  0.15822162253E+02 -0.23314513413E+02  0.14927165918E+02  0.59301833150E+02  0.49999797786E+02 0.  0.
         12    1    1    2    0    0 -0.15822162253E+02  0.23314513413E+02 -0.14927165918E+02  0.31886166850E+02  0.00000000000E+00 0. -1.
         11    1    3    3    0    0 -0.90622394282E+01 -0.22049028799E+02 -0.64666400875E+01  0.24700228515E+02  0.51100000000E-03 0. -1.
        -11    1    3    3    0    0  0.25647453768E+02 -0.22025261834E+01  0.21259446076E+02  0.33385731294E+02  0.51100000000E-03 0.  1.
         12    1    3    3    0    0 -0.76305208698E+00  0.93704156940E+00  0.13435992996E+00  0.12158733409E+01  0.00000000000E+00 0. -1.
</event>
<event>
 7    1  0.7579108E-012  0.5930195E+02  0.7816164E-02  0.1266605E+00
        -11   -1    0    0    0    0  0.00000000000E+00  0.00000000000E+00  0.45593999997E+02  0.45594000000E+02  0.51100000000E-03 0. -1.
         11   -1    0    0    0    0 -0.00000000000E+00 -0.00000000000E+00 -0.45593999997E+02  0.45594000000E+02  0.51100000000E-03 0.  1.
    9900012    2    1    2    0    0 -0.25025506274E+02  0.14737674214E+02 -0.13162260794E+02  0.59301951096E+02  0.50000012891E+02 0.  0.
         12    1    1    2    0    0  0.25025506274E+02 -0.14737674214E+02  0.13162260794E+02  0.31886048904E+02  0.00000000000E+00 0. -1.
         11    1    3    3    0    0  0.49435774246E+01  0.37065447917E+01  0.12405344470E+02  0.13858932272E+02  0.51100000000E-03 0. -1.
        -11    1    3    3    0    0 -0.23441246500E+02 -0.10801190578E+01 -0.13095172016E+02  0.26872704089E+02  0.51100000000E-03 0.  1.
         12    1    3    3    0    0 -0.65278371978E+01  0.12111248480E+02 -0.12472433248E+02  0.18570314735E+02  0.00000000000E+00 0. -1.
</event>
<event>
 7    1  0.7579108E-012  0.5930194E+02  0.7816164E-02  0.1266605E+00
        -11   -1    0    0    0    0  0.00000000000E+00  0.00000000000E+00  0.45593999997E+02  0.45594000000E+02  0.51100000000E-03 0.  1.
         11   -1    0    0    0    0 -0.00000000000E+00 -0.00000000000E+00 -0.45593999997E+02  0.45594000000E+02  0.51100000000E-03 0. -1.
    9900012    2    1    2    0    0  0.30357941856E+02  0.65183289301E+01  0.72545048713E+01  0.59301935855E+02  0.49999985094E+02 0.  0.
         12    1    1    2    0    0 -0.30357941856E+02 -0.65183289301E+01 -0.72545048713E+01  0.31886064145E+02  0.00000000000E+00 0. -1.
         11    1    3    3    0    0  0.13808910748E+02 -0.97238354395E+01 -0.25121219123E+01  0.17074827919E+02  0.51100000000E-03 0. -1.
        -11    1    3    3    0    0  0.18843138645E+02  0.22270866306E+02 -0.15361103901E+01  0.29213267456E+02  0.51100000000E-03 0.  1.
        -12    1    3    3    0    0 -0.22941075376E+01 -0.60287019366E+01  0.11302737174E+02  0.13013840480E+02  0.00000000000E+00 0.  1.
</event>
<event>
 7    1  0.7579108E-012  0.5930197E+02  0.7816164E-02  0.1266605E+00
        -11   -1    0    0    0    0  0.00000000000E+00  0.00000000000E+00  0.45593999997E+02  0.45594000000E+02  0.51100000000E-03 0.  1.
         11   -1    0    0    0    0 -0.00000000000E+00 -0.00000000000E+00 -0.45593999997E+02  0.45594000000E+02  0.51100000000E-03 0. -1.
    9900012    2    1    2    0    0 -0.56006068820E+01  0.57334588482E+01  0.30862264893E+02  0.59301972619E+02  0.50000052143E+02 0.  0.
         12    1    1    2    0    0  0.56006068820E+01 -0.57334588482E+01 -0.30862264893E+02  0.31886027381E+02  0.00000000000E+00 0. -1.
         11    1    3    3    0    0  0.18858725261E+02  0.10915418333E+02  0.33290838405E+01  0.22042701180E+02  0.51100000000E-03 0. -1.
        -11    1    3    3    0    0 -0.64668036228E+01 -0.20021360011E+01  0.86409582264E+01  0.10976987610E+02  0.51100000000E-03 0.  1.
         12    1    3    3    0    0 -0.17992528520E+02 -0.31798234839E+01  0.18892222826E+02  0.26282283829E+02  0.00000000000E+00 0. -1.
</event>
<event>
 7    1  0.7579108E-012  0.5930194E+02  0.7816164E-02  0.1266605E+00
        -11   -1    0    0    0    0  0.00000000000E+00  0.00000000000E+00  0.45593999997E+02  0.45594000000E+02  0.51100000000E-03 0.  1.
         11   -1    0    0    0    0 -0.00000000000E+00 -0.00000000000E+00 -0.45593999997E+02  0.45594000000E+02  0.51100000000E-03 0. -1.
    9900012    2    1    2    0    0 -0.20578916326E+02 -0.24249223385E+02  0.22812393399E+01  0.59301942156E+02  0.49999996586E+02 0.  0.
         12    1    1    2    0    0  0.20578916326E+02  0.24249223385E+02 -0.22812393399E+01  0.31886057844E+02  0.00000000000E+00 0. -1.
         11    1    3    3    0    0 -0.14307004352E+00  0.53668296900E+01 -0.10893685262E+02  0.12144781135E+02  0.51100000000E-03 0. -1.
        -11    1    3    3    0    0 -0.11611044280E+02 -0.31854571638E+02  0.38463611623E+01  0.34122200661E+02  0.51100000000E-03 0.  1.
        -12    1    3    3    0    0 -0.88248020025E+01  0.22385185630E+01  0.93285634395E+01  0.13034960360E+02  0.00000000000E+00 0.  1.
</event>
<event>
 7    1  0.7579108E-012  0.5930194E+02  0.7816164E-02  0.1266605E+00
        -11   -1    0    0    0    0  0.00000000000E+00  0.00000000000E+00  0.45593999997E+02  0.45594000000E+02  0.51100000000E-03 0. -1.
         11   -1    0    0    0    0 -0.00000000000E+00 -0.00000000000E+00 -0.45593999997E+02  0.45594000000E+02  0.51100000000E-03 0.  1.
    9900012    2    1    2    0    0 -0.17761151033E+02  0.30727458119E+01 -0.26302480580E+02  0.59301941330E+02  0.49999995080E+02 0.  0.
         12    1    1    2    0    0  0.17761151033E+02 -0.30727458119E+01  0.26302480580E+02  0.31886058670E+02  0.00000000000E+00 0. -1.
         11    1    3    3    0    0 -0.58162683838E+01 -0.77757739902E+01  0.62390610281E+01  0.11541989509E+02  0.51100000000E-03 0. -1.
        -11    1    3    3    0    0 -0.64009233228E+01 -0.91784651258E+01 -0.21477856434E+02  0.24218058525E+02  0.51100000000E-03 0.  1.
        -12    1    3    3    0    0 -0.55439593263E+01  0.20026984928E+02 -0.11063685174E+02  0.23541893296E+02  0.00000000000E+00 0.  1.
</event>
<event>
 7    1  0.7579108E-012  0.5930195E+02  0.7816164E-02  0.1266605E+00
        -11   -1    0    0    0    0  0.00000000000E+00  0.00000000000E+00  0.45593999997E+02  0.45594000000E+02  0.51100000000E-03 0. -1.
         11   -1    0    0    0    0 -0.00000000000E+00 -0.00000000000E+00 -0.45593999997E+02  0.45594000000E+02  0.51100000000E-03 0.  1.
    9900012    2    1    2    0    0 -0.17323897981E+02  0.86466109757E+00 -0.26755473922E+02  0.59301945605E+02  0.50000002876E+02 0.  0.
         12    1    1    2    0    0  0.17323897981E+02 -0.86466109757E+00  0.26755473922E+02  0.31886054395E+02  0.00000000000E+00 0. -1.
         11    1    3    3    0    0  0.22031837646E+01  0.17356247385E+02 -0.30053591018E+01  0.17751775280E+02  0.51100000000E-03 0. -1.
        -11    1    3    3    0    0 -0.22086145740E+01 -0.16546719458E+02 -0.10225000952E+02  0.19576070798E+02  0.51100000000E-03 0.  1.
        -12    1    3    3    0    0 -0.17318467172E+02  0.55133170500E-01 -0.13525113868E+02  0.21974099527E+02  0.00000000000E+00 0.  1.
</event>
<event>
 7    1  0.7579108E-012  0.5930205E+02  0.7816164E-02  0.1266604E+00
        -11   -1    0    0    0    0  0.00000000000E+00  0.00000000000E+00  0.45593999997E+02  0.45594000000E+02  0.51100000000E-03 0. -1.
         11   -1    0    0    0    0 -0.00000000000E+00 -0.00000000000E+00 -0.45593999997E+02  0.45594000000E+02  0.51100000000E-03 0.  1.
    9900012    2    1    2    0    0  0.26746436269E+01 -0.16890184978E+01 -0.31728654662E+02  0.59302046530E+02  0.50000186940E+02 0.  0.
         12    1    1    2    0    0 -0.26746436269E+01  0.16890184978E+01  0.31728654662E+02  0.31885953470E+02  0.00000000000E+00 0. -1.
         11    1    3    3    0    0  0.37391253027E+01 -0.50031008989E+01  0.81735443945E+01  0.10286831624E+02  0.51100000000E-03 0. -1.
        -11    1    3    3    0    0  0.33148311972E+01  0.10973273793E+02 -0.38388621659E+02  0.40063538495E+02  0.51100000000E-03 0.  1.
        -12    1    3    3    0    0 -0.43793128730E+01 -0.76591913924E+01 -0.15135773974E+01  0.89516764107E+01  0.00000000000E+00 0.  1.
</event>
<event>
 7    1  0.7579108E-012  0.5930185E+02  0.7816164E-02  0.1266605E+00
        -11   -1    0    0    0    0  0.00000000000E+00  0.00000000000E+00  0.45593999997E+02  0.45594000000E+02  0.51100000000E-03 0. -1.
         11   -1    0    0    0    0 -0.00000000000E+00 -0.00000000000E+00 -0.45593999997E+02  0.45594000000E+02  0.51100000000E-03 0.  1.
    9900012    2    1    2    0    0 -0.81232957680E+01 -0.28841035174E+02 -0.10905665381E+02  0.59301846556E+02  0.49999822234E+02 0.  0.
         12    1    1    2    0    0  0.81232957680E+01  0.28841035174E+02  0.10905665381E+02  0.31886153444E+02  0.00000000000E+00 0. -1.
         11    1    3    3    0    0 -0.73895849194E+01 -0.14923688114E+02  0.11462274549E+02  0.20216482639E+02  0.51100000000E-03 0. -1.
        -11    1    3    3    0    0 -0.75149697433E+01 -0.10623850643E+02 -0.27184962141E+02  0.30139063350E+02  0.51100000000E-03 0.  1.
        -12    1    3    3    0    0  0.67812588947E+01 -0.32934964169E+01  0.48170222111E+01  0.89463005665E+01  0.00000000000E+00 0.  1.
</event>
<event>
 7    1  0.7579108E-012  0.5930192E+02  0.7816164E-02  0.1266605E+00
        -11   -1    0    0    0    0  0.00000000000E+00  0.00000000000E+00  0.45593999997E+02  0.45594000000E+02  0.51100000000E-03 0.  1.
         11   -1    0    0    0    0 -0.00000000000E+00 -0.00000000000E+00 -0.45593999997E+02  0.45594000000E+02  0.51100000000E-03 0. -1.
    9900012    2    1    2    0    0 -0.23299791809E+01  0.15949260956E+02  0.27512072902E+02  0.59301923361E+02  0.49999962309E+02 0.  0.
         12    1    1    2    0    0  0.23299791809E+01 -0.15949260956E+02 -0.27512072902E+02  0.31886076639E+02  0.00000000000E+00 0. -1.
         11    1    3    3    0    0  0.34781307857E+01  0.21270459407E+02  0.96048439410E+01  0.23596246832E+02  0.51100000000E-03 0. -1.
        -11    1    3    3    0    0 -0.94757485486E+01 -0.10411336248E+02 -0.25509698201E+01  0.14307102443E+02  0.51100000000E-03 0.  1.
        -12    1    3    3    0    0  0.36676385820E+01  0.50901377965E+01  0.20458198781E+02  0.21398574086E+02  0.00000000000E+00 0.  1.
</event>
<event>
 7    1  0.7579108E-012  0.5930194E+02  0.7816164E-02  0.1266605E+00
        -11   -1    0    0    0    0  0.00000000000E+00  0.00000000000E+00  0.45593999997E+02  0.45594000000E+02  0.51100000000E-03 0. -1.
         11   -1    0    0    0    0 -0.00000000000E+00 -0.00000000000E+00 -0.45593999997E+02  0.45594000000E+02  0.51100000000E-03 0.  1.
    9900012    2    1    2    0    0 -0.16425203564E+02  0.26407010863E+02 -0.70429459657E+01  0.59301943130E+02  0.49999998362E+02 0.  0.
         12    1    1    2    0    0  0.16425203564E+02 -0.26407010863E+02  0.70429459657E+01  0.31886056870E+02  0.00000000000E+00 0. -1.
         11    1    3    3    0    0 -0.19619198760E+01  0.89483169688E+01  0.14159575147E+02  0.16864610128E+02  0.51100000000E-03 0. -1.
        -11    1    3    3    0    0 -0.30147492375E+01  0.17286827059E+02 -0.24849493958E+02  0.30420724070E+02  0.51100000000E-03 0.  1.
         12    1    3    3    0    0 -0.11448534450E+02  0.17186683582E+00  0.36469728452E+01  0.12016608931E+02  0.00000000000E+00 0. -1.
</event>
<event>
 7    1  0.7579108E-012  0.5930197E+02  0.7816164E-02  0.1266605E+00
        -11   -1    0    0    0    0  0.00000000000E+00  0.00000000000E+00  0.45593999997E+02  0.45594000000E+02  0.51100000000E-03 0.  1.
         11   -1    0    0    0    0 -0.00000000000E+00 -0.00000000000E+00 -0.45593999997E+02  0.45594000000E+02  0.51100000000E-03 0. -1.
    9900012    2    1    2    0    0 -0.30157761400E+02 -0.79023583266E+01 -0.66918830509E+01  0.59301966403E+02  0.50000040807E+02 0.  0.
         12    1    1    2    0    0  0.30157761400E+02  0.79023583266E+01  0.66918830509E+01  0.31886033597E+02  0.00000000000E+00 0. -1.
         11    1    3    3    0    0 -0.89823577923E+01 -0.18599257446E+02 -0.96196664231E+00  0.20677052718E+02  0.51100000000E-03 0. -1.
        -11    1    3    3    0    0 -0.18154385318E+02  0.10649899735E+02 -0.16938068047E+02  0.27016665599E+02  0.51100000000E-03 0.  1.
        -12    1    3    3    0    0 -0.30210182899E+01  0.46999383562E-01  0.11208151639E+02  0.11608248085E+02  0.00000000000E+00 0.  1.
</event>
<event>
 7    1  0.7579108E-012  0.5930194E+02  0.7816164E-02  0.1266605E+00
        -11   -1    0    0    0    0  0.00000000000E+00  0.00000000000E+00  0.45593999997E+02  0.45594000000E+02  0.51100000000E-03 0.  1.
         11   -1    0    0    0    0 -0.00000000000E+00 -0.00000000000E+00 -0.45593999997E+02  0.45594000000E+02  0.51100000000E-03 0. -1.
    9900012    2    1    2    0    0 -0.29025602679E+02 -0.73552838665E+01  0.10960614353E+02  0.59301939117E+02  0.49999991045E+02 0.  0.
         12    1    1    2    0    0  0.29025602679E+02  0.73552838665E+01 -0.10960614353E+02  0.31886060883E+02  0.00000000000E+00 0. -1.
         11    1    3    3    0    0  0.78624811817E+01 -0.36075266779E+01 -0.11302146228E+01  0.87241185468E+01  0.51100000000E-03 0. -1.
        -11    1    3    3    0    0 -0.18251312585E+02 -0.43333536455E+00 -0.10534911395E+02  0.21078011030E+02  0.51100000000E-03 0.  1.
        -12    1    3    3    0    0 -0.18636771276E+02 -0.33144218241E+01  0.22625740371E+02  0.29499809541E+02  0.00000000000E+00 0.  1.
</event>
<event>
 7    1  0.7579108E-012  0.5930193E+02  0.7816164E-02  0.1266605E+00
        -11   -1    0    0    0    0  0.00000000000E+00  0.00000000000E+00  0.45593999997E+02  0.45594000000E+02  0.51100000000E-03 0.  1.
         11   -1    0    0    0    0 -0.00000000000E+00 -0.00000000000E+00 -0.45593999997E+02  0.45594000000E+02  0.51100000000E-03 0. -1.
    9900012    2    1    2    0    0 -0.22644097018E+02  0.12689062513E+02  0.18519026107E+02  0.59301925215E+02  0.49999965690E+02 0.  0.
         12    1    1    2    0    0  0.22644097018E+02 -0.12689062513E+02 -0.18519026107E+02  0.31886074785E+02  0.00000000000E+00 0. -1.
         11    1    3    3    0    0 -0.18648497010E+02  0.20633705111E+02  0.20171338933E+02  0.34356937319E+02  0.51100000000E-03 0. -1.
        -11    1    3    3    0    0 -0.10998313152E+02 -0.84687584695E+01 -0.75260633515E+01  0.15790009248E+02  0.51100000000E-03 0.  1.
         12    1    3    3    0    0  0.70027131434E+01  0.52411587163E+00  0.58737505258E+01  0.91549786486E+01  0.00000000000E+00 0. -1.
</event>
<event>
 7    1  0.7579108E-012  0.5930196E+02  0.7816164E-02  0.1266605E+00
        -11   -1    0    0    0    0  0.00000000000E+00  0.00000000000E+00  0.45593999997E+02  0.45594000000E+02  0.51100000000E-03 0.  1.
         11   -1    0    0    0    0 -0.00000000000E+00 -0.00000000000E+00 -0.45593999997E+02  0.45594000000E+02  0.51100000000E-03 0. -1.
    9900012    2    1    2    0    0  0.26753791643E+02 -0.67780264413E+01 -0.15969107009E+02  0.59301962485E+02  0.50000033662E+02 0.  0.
         12    1    1    2    0    0 -0.26753791643E+02  0.67780264413E+01  0.15969107009E+02  0.31886037515E+02  0.00000000000E+00 0. -1.
         11    1    3    3    0    0 -0.10924620144E+01  0.17026712101E+02 -0.79839677822E+01  0.18837360219E+02  0.51100000000E-03 0. -1.
        -11    1    3    3    0    0  0.28980616320E+02 -0.19870135234E+02 -0.89445744713E+01  0.36258844565E+02  0.51100000000E-03 0.  1.
        -12    1    3    3    0    0 -0.11343626619E+01 -0.39346033085E+01  0.95943524463E+00  0.42057577002E+01  0.00000000000E+00 0.  1.
</event>
<event>
 7    1  0.7579108E-012  0.5930200E+02  0.7816164E-02  0.1266605E+00
        -11   -1    0    0    0    0  0.00000000000E+00  0.00000000000E+00  0.45593999997E+02  0.45594000000E+02  0.51100000000E-03 0. -1.
         11   -1    0    0    0    0 -0.00000000000E+00 -0.00000000000E+00 -0.45593999997E+02  0.45594000000E+02  0.51100000000E-03 0.  1.
    9900012    2    1    2    0    0 -0.35670912400E+00  0.24722696240E+01 -0.31788014080E+02  0.59301996838E+02  0.50000096314E+02 0.  0.
         12    1    1    2    0    0  0.35670912400E+00 -0.24722696240E+01  0.31788014080E+02  0.31886003162E+02  0.00000000000E+00 0. -1.
         11    1    3    3    0    0 -0.52810268705E+01  0.18190122273E+01 -0.63150328462E+01  0.84307585898E+01  0.51100000000E-03 0. -1.
        -11    1    3    3    0    0  0.19937656403E+02 -0.40452592836E+01 -0.28334734989E+02  0.34881678180E+02  0.51100000000E-03 0.  1.
        -12    1    3    3    0    0 -0.15013338657E+02  0.46985166803E+01  0.28617537557E+01  0.15989560068E+02  0.00000000000E+00 0.  1.
</event>
<event>
 7    1  0.7579108E-012  0.5930190E+02  0.7816164E-02  0.1266605E+00
        -11   -1    0    0    0    0  0.00000000000E+00  0.00000000000E+00  0.45593999997E+02  0.45594000000E+02  0.51100000000E-03 0.  1.
         11   -1    0    0    0    0 -0.00000000000E+00 -0.00000000000E+00 -0.45593999997E+02  0.45594000000E+02  0.51100000000E-03 0. -1.
    9900012    2    1    2    0    0  0.51605034061E+01  0.30434950873E+02  0.79878801203E+01  0.59301901793E+02  0.49999922974E+02 0.  0.
         12    1    1    2    0    0 -0.51605034061E+01 -0.30434950873E+02 -0.79878801203E+01  0.31886098207E+02  0.00000000000E+00 0. -1.
         11    1    3    3    0    0 -0.31038837203E+01  0.42631623948E+02  0.79624715979E+01  0.43479770110E+02  0.51100000000E-03 0. -1.
        -11    1    3    3    0    0  0.62409751844E+01 -0.72713078976E+01  0.25693596151E+01  0.99208517219E+01  0.51100000000E-03 0.  1.
         12    1    3    3    0    0  0.20234119420E+01 -0.49253651776E+01 -0.25439510927E+01  0.59012799613E+01  0.00000000000E+00 0. -1.
</event>
<event>
 7    1  0.7579108E-012  0.5930193E+02  0.7816164E-02  0.1266605E+00
        -11   -1    0    0    0    0  0.00000000000E+00  0.00000000000E+00  0.45593999997E+02  0.45594000000E+02  0.51100000000E-03 0.  1.
         11   -1    0    0    0    0 -0.00000000000E+00 -0.00000000000E+00 -0.45593999997E+02  0.45594000000E+02  0.51100000000E-03 0. -1.
    9900012    2    1    2    0    0  0.20399610053E+02 -0.21240720949E+01  0.24414452589E+02  0.59301933014E+02  0.49999979914E+02 0.  0.
         12    1    1    2    0    0 -0.20399610053E+02  0.21240720949E+01 -0.24414452589E+02  0.31886066986E+02  0.00000000000E+00 0. -1.
         11    1    3    3    0    0  0.14744633593E+02 -0.18550737390E+02 -0.32883100461E+01  0.23923776054E+02  0.51100000000E-03 0. -1.
        -11    1    3    3    0    0 -0.22179628378E+01  0.33141481073E+01  0.14924661811E+02  0.15448251269E+02  0.51100000000E-03 0.  1.
         12    1    3    3    0    0  0.78729392981E+01  0.13112517188E+02  0.12778100825E+02  0.19929905691E+02  0.00000000000E+00 0. -1.
</event>
<event>
 7    1  0.7579108E-012  0.5930185E+02  0.7816164E-02  0.1266605E+00
        -11   -1    0    0    0    0  0.00000000000E+00  0.00000000000E+00  0.45593999997E+02  0.45594000000E+02  0.51100000000E-03 0. -1.
         11   -1    0    0    0    0 -0.00000000000E+00 -0.00000000000E+00 -0.45593999997E+02  0.45594000000E+02  0.51100000000E-03 0.  1.
    9900012    2    1    2    0    0 -0.64778362789E+01 -0.21133410520E+02 -0.22981366177E+02  0.59301849489E+02  0.49999827584E+02 0.  0.
         12    1    1    2    0    0  0.64778362789E+01  0.21133410520E+02  0.22981366177E+02  0.31886150511E+02  0.00000000000E+00 0. -1.
         11    1    3    3    0    0  0.10461113834E+02 -0.16216845536E+02  0.70974702311E+00  0.19311258967E+02  0.51100000000E-03 0. -1.
        -11    1    3    3    0    0 -0.22905248812E+02 -0.48835311229E+01 -0.10809382980E+02  0.25794225323E+02  0.51100000000E-03 0.  1.
         12    1    3    3    0    0  0.59662986990E+01 -0.33033860816E-01 -0.12881730220E+02  0.14196365199E+02  0.00000000000E+00 0. -1.
</event>
<event>
 7    1  0.7579108E-012  0.5930195E+02  0.7816164E-02  0.1266605E+00
        -11   -1    0    0    0    0  0.00000000000E+00  0.00000000000E+00  0.45593999997E+02  0.45594000000E+02  0.51100000000E-03 0.  1.
         11   -1    0    0    0    0 -0.00000000000E+00 -0.00000000000E+00 -0.45593999997E+02  0.45594000000E+02  0.51100000000E-03 0. -1.
    9900012    2    1    2    0    0 -0.20382859691E+01 -0.30423906558E+02  0.93247925056E+01  0.59301945757E+02  0.50000003153E+02 0.  0.
         12    1    1    2    0    0  0.20382859691E+01  0.30423906558E+02 -0.93247925056E+01  0.31886054243E+02  0.00000000000E+00 0. -1.
         11    1    3    3    0    0  0.93940437359E+01 -0.14771405175E+02  0.10829790626E+02  0.20584626152E+02  0.51100000000E-03 0. -1.
        -11    1    3    3    0    0 -0.16625615887E+02 -0.20491416414E+02 -0.94818456909E+01  0.28039519401E+02  0.51100000000E-03 0.  1.
        -12    1    3    3    0    0  0.51932861817E+01  0.48389150303E+01  0.79768475707E+01  0.10677800204E+02  0.00000000000E+00 0.  1.
</event>
<event>
 7    1  0.7579108E-012  0.5930197E+02  0.7816164E-02  0.1266605E+00
        -11   -1    0    0    0    0  0.00000000000E+00  0.00000000000E+00  0.45593999997E+02  0.45594000000E+02  0.51100000000E-03 0.  1.
         11   -1    0    0    0    0 -0.00000000000E+00 -0.00000000000E+00 -0.45593999997E+02  0.45594000000E+02  0.51100000000E-03 0. -1.
    9900012    2    1    2    0    0  0.19156892964E+02  0.73866991121E+01  0.24396089057E+02  0.59301968057E+02  0.50000043824E+02 0.  0.
         12    1    1    2    0    0 -0.19156892964E+02 -0.73866991121E+01 -0.24396089057E+02  0.31886031943E+02  0.00000000000E+00 0. -1.
         11    1    3    3    0    0 -0.39497264590E+01  0.12122579535E+02  0.41765770262E+01  0.13416447726E+02  0.51100000000E-03 0. -1.
        -11    1    3    3    0    0  0.16665916558E+02  0.17612372907E+01  0.28814017153E+02  0.33333201411E+02  0.51100000000E-03 0.  1.
         12    1    3    3    0    0  0.64407028647E+01 -0.64971177133E+01 -0.85945051224E+01  0.12552318920E+02  0.00000000000E+00 0. -1.
</event>
<event>
 7    1  0.7579108E-012  0.5930194E+02  0.7816164E-02  0.1266605E+00
        -11   -1    0    0    0    0  0.00000000000E+00  0.00000000000E+00  0.45593999997E+02  0.45594000000E+02  0.51100000000E-03 0.  1.
         11   -1    0    0    0    0 -0.00000000000E+00 -0.00000000000E+00 -0.45593999997E+02  0.45594000000E+02  0.51100000000E-03 0. -1.
    9900012    2    1    2    0    0 -0.14558702876E+01  0.26153302995E+02  0.18182574052E+02  0.59301940115E+02  0.49999992865E+02 0.  0.
         12    1    1    2    0    0  0.14558702876E+01 -0.26153302995E+02 -0.18182574052E+02  0.31886059885E+02  0.00000000000E+00 0. -1.
         11    1    3    3    0    0  0.13003253151E+02  0.35500434831E+01 -0.44012485849E+01  0.14179506008E+02  0.51100000000E-03 0. -1.
        -11    1    3    3    0    0 -0.14750277611E+01  0.24077925904E+02  0.20955217522E+02  0.31953769173E+02  0.51100000000E-03 0.  1.
        -12    1    3    3    0    0 -0.12984095678E+02 -0.14746663926E+01  0.16286051152E+01  0.13168664935E+02  0.00000000000E+00 0.  1.
</event>
<event>
 7    1  0.7579108E-012  0.5930198E+02  0.7816164E-02  0.1266605E+00
        -11   -1    0    0    0    0  0.00000000000E+00  0.00000000000E+00  0.45593999997E+02  0.45594000000E+02  0.51100000000E-03 0.  1.
         11   -1    0    0    0    0 -0.00000000000E+00 -0.00000000000E+00 -0.45593999997E+02  0.45594000000E+02  0.51100000000E-03 0. -1.
    9900012    2    1    2    0    0  0.25043219060E+02 -0.65329740454E+01  0.18624605177E+02  0.59301976592E+02  0.50000059390E+02 0.  0.
         12    1    1    2    0    0 -0.25043219060E+02  0.65329740454E+01 -0.18624605177E+02  0.31886023408E+02  0.00000000000E+00 0. -1.
         11    1    3    3    0    0  0.27528794800E+02  0.36183618618E+01  0.10663023704E+02  0.29742682469E+02  0.51100000000E-03 0. -1.
        -11    1    3    3    0    0  0.19832602942E+01 -0.17912635894E+02  0.71066883343E+00  0.18036099814E+02  0.51100000000E-03 0.  1.
        -12    1    3    3    0    0 -0.44688360339E+01  0.77612999864E+01  0.72509126400E+01  0.11523194309E+02  0.00000000000E+00 0.  1.
</event>
<event>
 7    1  0.7579108E-012  0.5930193E+02  0.7816164E-02  0.1266605E+00
        -11   -1    0    0    0    0  0.00000000000E+00  0.00000000000E+00  0.45593999997E+02  0.45594000000E+02  0.51100000000E-03 0. -1.
         11   -1    0    0    0    0 -0.00000000000E+00 -0.00000000000E+00 -0.45593999997E+02  0.45594000000E+02  0.51100000000E-03 0.  1.
    9900012    2    1    2    0    0 -0.30439858820E+02  0.14414462942E-01 -0.94940162005E+01  0.59301928489E+02  0.49999971661E+02 0.  0.
         12    1    1    2    0    0  0.30439858820E+02 -0.14414462942E-01  0.94940162005E+01  0.31886071511E+02  0.00000000000E+00 0. -1.
         11    1    3    3    0    0 -0.14671527135E+02 -0.42689195269E+01 -0.46395483468E+00  0.15287008757E+02  0.51100000000E-03 0. -1.
        -11    1    3    3    0    0  0.10366078468E+02 -0.10862596213E+01  0.73079972547E+01  0.12729586282E+02  0.51100000000E-03 0.  1.
        -12    1    3    3    0    0 -0.26134410153E+02  0.53695936111E+01 -0.16338058620E+02  0.31285333450E+02  0.00000000000E+00 0.  1.
</event>
<event>
 7    1  0.7579108E-012  0.5930187E+02  0.7816164E-02  0.1266605E+00
        -11   -1    0    0    0    0  0.00000000000E+00  0.00000000000E+00  0.45593999997E+02  0.45594000000E+02  0.51100000000E-03 0.  1.
         11   -1    0    0    0    0 -0.00000000000E+00 -0.00000000000E+00 -0.45593999997E+02  0.45594000000E+02  0.51100000000E-03 0. -1.
    9900012    2    1    2    0    0  0.10802481041E-01 -0.26562948862E+02  0.17639009722E+02  0.59301873975E+02  0.49999872240E+02 0.  0.
         12    1    1    2    0    0 -0.10802481041E-01  0.26562948862E+02 -0.17639009722E+02  0.31886126025E+02  0.00000000000E+00 0. -1.
         11    1    3    3    0    0  0.85945677175E+01 -0.14694490605E+02  0.56175370940E+01  0.17926276012E+02  0.51100000000E-03 0. -1.
        -11    1    3    3    0    0 -0.63985669201E+01 -0.62659760265E+01  0.25278706495E+02  0.26818223590E+02  0.51100000000E-03 0.  1.
        -12    1    3    3    0    0 -0.21851983164E+01 -0.56024822298E+01 -0.13257233867E+02  0.14557374373E+02  0.00000000000E+00 0.  1.
</event>
<event>
 7    1  0.7579108E-012  0.5930193E+02  0.7816164E-02  0.1266605E+00
        -11   -1    0    0    0    0  0.00000000000E+00  0.00000000000E+00  0.45593999997E+02  0.45594000000E+02  0.51100000000E-03 0.  1.
         11   -1    0    0    0    0 -0.00000000000E+00 -0.00000000000E+00 -0.45593999997E+02  0.45594000000E+02  0.51100000000E-03 0. -1.
    9900012    2    1    2    0    0  0.15749207385E+02  0.20966198936E+02  0.18141188157E+02  0.59301925629E+02  0.49999966445E+02 0.  0.
         12    1    1    2    0    0 -0.15749207385E+02 -0.20966198936E+02 -0.18141188157E+02  0.31886074371E+02  0.00000000000E+00 0. -1.
         11    1    3    3    0    0  0.15226122019E+02 -0.12300691476E+02 -0.16239066270E+01  0.19641254428E+02  0.51100000000E-03 0.  1.
        -11    1    3    3    0    0  0.30804235179E+01  0.28277794389E+02  0.14323961506E+02  0.31848053913E+02  0.51100000000E-03 0. -1.
         12    1    3    3    0    0 -0.25573381517E+01  0.49890960229E+01  0.54411332778E+01  0.78126172883E+01  0.00000000000E+00 0. -1.
</event>
<event>
 7    1  0.7579108E-012  0.5930194E+02  0.7816164E-02  0.1266605E+00
        -11   -1    0    0    0    0  0.00000000000E+00  0.00000000000E+00  0.45593999997E+02  0.45594000000E+02  0.51100000000E-03 0. -1.
         11   -1    0    0    0    0 -0.00000000000E+00 -0.00000000000E+00 -0.45593999997E+02  0.45594000000E+02  0.51100000000E-03 0.  1.
    9900012    2    1    2    0    0  0.80460488417E+01  0.13014281608E+02 -0.27975179929E+02  0.59301935335E+02  0.49999984147E+02 0.  0.
         12    1    1    2    0    0 -0.80460488417E+01 -0.13014281608E+02  0.27975179929E+02  0.31886064665E+02  0.00000000000E+00 0. -1.
         11    1    3    3    0    0 -0.87775532446E+00  0.12104775924E+02  0.47689551134E+01  0.13039899836E+02  0.51100000000E-03 0. -1.
        -11    1    3    3    0    0 -0.55559410950E+01  0.36335244616E+01 -0.30673299718E+02  0.31383471722E+02  0.51100000000E-03 0.  1.
         12    1    3    3    0    0  0.14479745261E+02 -0.27240187781E+01 -0.20708353243E+01  0.14878563777E+02  0.00000000000E+00 0. -1.
</event>
<event>
 7    1  0.7579108E-012  0.5930199E+02  0.7816164E-02  0.1266605E+00
        -11   -1    0    0    0    0  0.00000000000E+00  0.00000000000E+00  0.45593999997E+02  0.45594000000E+02  0.51100000000E-03 0.  1.
         11   -1    0    0    0    0 -0.00000000000E+00 -0.00000000000E+00 -0.45593999997E+02  0.45594000000E+02  0.51100000000E-03 0. -1.
    9900012    2    1    2    0    0  0.13693487726E+02 -0.22171017254E+02  0.18375302987E+02  0.59301994103E+02  0.50000091326E+02 0.  0.
         12    1    1    2    0    0 -0.13693487726E+02  0.22171017254E+02 -0.18375302987E+02  0.31886005897E+02  0.00000000000E+00 0. -1.
         11    1    3    3    0    0  0.39561696954E+01 -0.14835433555E+02 -0.11774013482E+02  0.19348611350E+02  0.51100000000E-03 0. -1.
        -11    1    3    3    0    0  0.57682284209E+00 -0.13894622340E+02  0.22082848779E+02  0.26096847798E+02  0.51100000000E-03 0.  1.
         12    1    3    3    0    0  0.91604951882E+01  0.65590386402E+01  0.80664676903E+01  0.13856534956E+02  0.00000000000E+00 0. -1.
</event>
<event>
 7    1  0.7579108E-012  0.5930196E+02  0.7816164E-02  0.1266605E+00
        -11   -1    0    0    0    0  0.00000000000E+00  0.00000000000E+00  0.45593999997E+02  0.45594000000E+02  0.51100000000E-03 0.  1.
         11   -1    0    0    0    0 -0.00000000000E+00 -0.00000000000E+00 -0.45593999997E+02  0.45594000000E+02  0.51100000000E-03 0. -1.
    9900012    2    1    2    0    0  0.20246230051E+02  0.15736645096E+02  0.18951718596E+02  0.59301961239E+02  0.50000031389E+02 0.  0.
         12    1    1    2    0    0 -0.20246230051E+02 -0.15736645096E+02 -0.18951718596E+02  0.31886038761E+02  0.00000000000E+00 0. -1.
         11    1    3    3    0    0 -0.56406566188E+01 -0.85032247714E+01 -0.50400789192E+00  0.10216450598E+02  0.51100000000E-03 0. -1.
        -11    1    3    3    0    0  0.16586322639E+02  0.22414186972E+02  0.49535334432E+00  0.27888120257E+02  0.51100000000E-03 0.  1.
         12    1    3    3    0    0  0.93005640305E+01  0.18256828953E+01  0.18960373144E+02  0.21197390383E+02  0.00000000000E+00 0. -1.
</event>
<event>
 7    1  0.7579108E-012  0.5930201E+02  0.7816164E-02  0.1266605E+00
        -11   -1    0    0    0    0  0.00000000000E+00  0.00000000000E+00  0.45593999997E+02  0.45594000000E+02  0.51100000000E-03 0. -1.
         11   -1    0    0    0    0 -0.00000000000E+00 -0.00000000000E+00 -0.45593999997E+02  0.45594000000E+02  0.51100000000E-03 0.  1.
    9900012    2    1    2    0    0 -0.10280607943E+02  0.40037857337E+01 -0.29916470392E+02  0.59302009336E+02  0.50000119107E+02 0.  0.
         12    1    1    2    0    0  0.10280607943E+02 -0.40037857337E+01  0.29916470392E+02  0.31885990664E+02  0.00000000000E+00 0. -1.
         11    1    3    3    0    0  0.22351001098E+01  0.22914714171E+02 -0.34036901893E+01  0.23273695564E+02  0.51100000000E-03 0. -1.
        -11    1    3    3    0    0 -0.99085918865E+01 -0.78758957958E+01 -0.17199941934E+02  0.21355278752E+02  0.51100000000E-03 0.  1.
         12    1    3    3    0    0 -0.26071161663E+01 -0.11035032641E+02 -0.93128382684E+01  0.14673035021E+02  0.00000000000E+00 0. -1.
</event>
<event>
 7    1  0.7579108E-012  0.5930196E+02  0.7816164E-02  0.1266605E+00
        -11   -1    0    0    0    0  0.00000000000E+00  0.00000000000E+00  0.45593999997E+02  0.45594000000E+02  0.51100000000E-03 0. -1.
         11   -1    0    0    0    0 -0.00000000000E+00 -0.00000000000E+00 -0.45593999997E+02  0.45594000000E+02  0.51100000000E-03 0.  1.
    9900012    2    1    2    0    0 -0.17878385042E+02  0.15377105838E+02 -0.21462232888E+02  0.59301961108E+02  0.50000031151E+02 0.  0.
         12    1    1    2    0    0  0.17878385042E+02 -0.15377105838E+02  0.21462232888E+02  0.31886038892E+02  0.00000000000E+00 0. -1.
         11    1    3    3    0    0  0.19653736183E+01  0.42400103243E+01 -0.27208930407E+02  0.27607359076E+02  0.51100000000E-03 0.  1.
        -11    1    3    3    0    0 -0.20553663108E+02  0.12704881115E+02  0.10718063897E+02  0.26433765627E+02  0.51100000000E-03 0. -1.
         12    1    3    3    0    0  0.70990444765E+00 -0.15677856009E+01 -0.49713663775E+01  0.52608364045E+01  0.00000000000E+00 0. -1.
</event>
<event>
 7    1  0.7579108E-012  0.5930192E+02  0.7816164E-02  0.1266605E+00
        -11   -1    0    0    0    0  0.00000000000E+00  0.00000000000E+00  0.45593999997E+02  0.45594000000E+02  0.51100000000E-03 0.  1.
         11   -1    0    0    0    0 -0.00000000000E+00 -0.00000000000E+00 -0.45593999997E+02  0.45594000000E+02  0.51100000000E-03 0. -1.
    9900012    2    1    2    0    0  0.30630227584E+02 -0.72787898268E+01  0.50527571435E+01  0.59301921879E+02  0.49999959607E+02 0.  0.
         12    1    1    2    0    0 -0.30630227584E+02  0.72787898268E+01 -0.50527571435E+01  0.31886078121E+02  0.00000000000E+00 0. -1.
         11    1    3    3    0    0  0.17952368606E+02  0.67545573909E+01 -0.73076528119E+01  0.20525919565E+02  0.51100000000E-03 0. -1.
        -11    1    3    3    0    0  0.22054379381E+01 -0.22665085628E+02  0.10505493303E+02  0.25078585543E+02  0.51100000000E-03 0.  1.
        -12    1    3    3    0    0  0.10472421040E+02  0.86317384108E+01  0.18549166527E+01  0.13697416771E+02  0.00000000000E+00 0.  1.
</event>
<event>
 7    1  0.7579108E-012  0.5930196E+02  0.7816164E-02  0.1266605E+00
        -11   -1    0    0    0    0  0.00000000000E+00  0.00000000000E+00  0.45593999997E+02  0.45594000000E+02  0.51100000000E-03 0.  1.
         11   -1    0    0    0    0 -0.00000000000E+00 -0.00000000000E+00 -0.45593999997E+02  0.45594000000E+02  0.51100000000E-03 0. -1.
    9900012    2    1    2    0    0  0.21247938517E+02  0.23699197428E+02  0.18954839864E+01  0.59301957450E+02  0.50000024478E+02 0.  0.
         12    1    1    2    0    0 -0.21247938517E+02 -0.23699197428E+02 -0.18954839864E+01  0.31886042550E+02  0.00000000000E+00 0. -1.
         11    1    3    3    0    0 -0.11142990727E+02 -0.14805195114E+01  0.12290080216E+02  0.16655457134E+02  0.51100000000E-03 0.  1.
        -11    1    3    3    0    0  0.24818084482E+02  0.21024369809E+02 -0.64921674722E+01  0.33167901380E+02  0.51100000000E-03 0. -1.
        -12    1    3    3    0    0  0.75728447628E+01  0.41553471308E+01 -0.39024287572E+01  0.94785989357E+01  0.00000000000E+00 0.  1.
</event>
<event>
 7    1  0.7579108E-012  0.5930197E+02  0.7816164E-02  0.1266605E+00
        -11   -1    0    0    0    0  0.00000000000E+00  0.00000000000E+00  0.45593999997E+02  0.45594000000E+02  0.51100000000E-03 0. -1.
         11   -1    0    0    0    0 -0.00000000000E+00 -0.00000000000E+00 -0.45593999997E+02  0.45594000000E+02  0.51100000000E-03 0.  1.
    9900012    2    1    2    0    0 -0.26165930688E+01 -0.31742621929E+02 -0.15093440313E+01  0.59301972878E+02  0.50000052616E+02 0.  0.
         12    1    1    2    0    0  0.26165930688E+01  0.31742621929E+02  0.15093440313E+01  0.31886027122E+02  0.00000000000E+00 0. -1.
         11    1    3    3    0    0 -0.13084870486E+02 -0.32856722885E+02  0.43289053749E+01  0.35630289030E+02  0.51100000000E-03 0. -1.
        -11    1    3    3    0    0  0.81952796545E+01 -0.51285446363E+01  0.50571663751E+01  0.10910522935E+02  0.51100000000E-03 0.  1.
         12    1    3    3    0    0  0.22729977625E+01  0.62426455918E+01 -0.10895415781E+02  0.12761160913E+02  0.00000000000E+00 0. -1.
</event>
<event>
 7    1  0.7579108E-012  0.5930195E+02  0.7816164E-02  0.1266605E+00
        -11   -1    0    0    0    0  0.00000000000E+00  0.00000000000E+00  0.45593999997E+02  0.45594000000E+02  0.51100000000E-03 0.  1.
         11   -1    0    0    0    0 -0.00000000000E+00 -0.00000000000E+00 -0.45593999997E+02  0.45594000000E+02  0.51100000000E-03 0. -1.
    9900012    2    1    2    0    0  0.22944102318E+02  0.86741975111E+01  0.20372699154E+02  0.59301946552E+02  0.50000004604E+02 0.  0.
         12    1    1    2    0    0 -0.22944102318E+02 -0.86741975111E+01 -0.20372699154E+02  0.31886053448E+02  0.00000000000E+00 0. -1.
         11    1    3    3    0    0  0.22144015238E+02  0.19257182335E+02 -0.48135468615E+01  0.29738303852E+02  0.51100000000E-03 0. -1.
        -11    1    3    3    0    0 -0.44612974938E+01 -0.53377108283E+01  0.17693906351E+02  0.19012329011E+02  0.51100000000E-03 0.  1.
         12    1    3    3    0    0  0.52613845745E+01 -0.52452739953E+01  0.74923396649E+01  0.10551313690E+02  0.00000000000E+00 0. -1.
</event>
<event>
 7    1  0.7579108E-012  0.5930195E+02  0.7816164E-02  0.1266605E+00
        -11   -1    0    0    0    0  0.00000000000E+00  0.00000000000E+00  0.45593999997E+02  0.45594000000E+02  0.51100000000E-03 0.  1.
         11   -1    0    0    0    0 -0.00000000000E+00 -0.00000000000E+00 -0.45593999997E+02  0.45594000000E+02  0.51100000000E-03 0. -1.
    9900012    2    1    2    0    0 -0.26894095668E+02  0.10697489814E+02  0.13378760310E+02  0.59301954501E+02  0.50000019101E+02 0.  0.
         12    1    1    2    0    0  0.26894095668E+02 -0.10697489814E+02 -0.13378760310E+02  0.31886045499E+02  0.00000000000E+00 0. -1.
         11    1    3    3    0    0  0.10129285812E+02 -0.32394276232E+01  0.68952340939E+01  0.12674406332E+02  0.51100000000E-03 0. -1.
        -11    1    3    3    0    0 -0.33282905381E+02  0.17539913728E+01  0.33023082679E+01  0.33492290404E+02  0.51100000000E-03 0.  1.
        -12    1    3    3    0    0 -0.37404760990E+01  0.12182926064E+02  0.31812179485E+01  0.13135257765E+02  0.00000000000E+00 0.  1.
</event>
<event>
 7    1  0.7579108E-012  0.5930196E+02  0.7816164E-02  0.1266605E+00
        -11   -1    0    0    0    0  0.00000000000E+00  0.00000000000E+00  0.45593999997E+02  0.45594000000E+02  0.51100000000E-03 0.  1.
         11   -1    0    0    0    0 -0.00000000000E+00 -0.00000000000E+00 -0.45593999997E+02  0.45594000000E+02  0.51100000000E-03 0. -1.
    9900012    2    1    2    0    0  0.30411483165E+02 -0.41039987165E+01  0.86613339148E+01  0.59301955734E+02  0.50000021349E+02 0.  0.
         12    1    1    2    0    0 -0.30411483165E+02  0.41039987165E+01 -0.86613339148E+01  0.31886044266E+02  0.00000000000E+00 0. -1.
         11    1    3    3    0    0  0.11819451244E+02  0.15599586594E+01  0.25212088106E+02  0.27888748370E+02  0.51100000000E-03 0. -1.
        -11    1    3    3    0    0 -0.27754778185E+01 -0.38662615584E+01 -0.55560007362E+01  0.73157638016E+01  0.51100000000E-03 0.  1.
         12    1    3    3    0    0  0.21367509740E+02 -0.17976958175E+01 -0.10994753454E+02  0.24097443563E+02  0.00000000000E+00 0. -1.
</event>
<event>
 7    1  0.7579108E-012  0.5930195E+02  0.7816164E-02  0.1266605E+00
        -11   -1    0    0    0    0  0.00000000000E+00  0.00000000000E+00  0.45593999997E+02  0.45594000000E+02  0.51100000000E-03 0. -1.
         11   -1    0    0    0    0 -0.00000000000E+00 -0.00000000000E+00 -0.45593999997E+02  0.45594000000E+02  0.51100000000E-03 0.  1.
    9900012    2    1    2    0    0 -0.15612765404E+02 -0.56104720621E+01 -0.27230211277E+02  0.59301949030E+02  0.50000009123E+02 0.  0.
         12    1    1    2    0    0  0.15612765404E+02  0.56104720621E+01  0.27230211277E+02  0.31886050970E+02  0.00000000000E+00 0. -1.
         11    1    3    3    0    0 -0.19364212190E+02 -0.16209294601E+02 -0.10055692121E+02  0.27181443845E+02  0.51100000000E-03 0. -1.
        -11    1    3    3    0    0  0.16256172079E+01  0.38827806274E+01 -0.22750291650E+02  0.23136429870E+02  0.51100000000E-03 0.  1.
         12    1    3    3    0    0  0.21258295781E+01  0.67160419112E+01  0.55757724950E+01  0.89840753149E+01  0.00000000000E+00 0. -1.
</event>
<event>
 7    1  0.7579108E-012  0.5930195E+02  0.7816164E-02  0.1266605E+00
        -11   -1    0    0    0    0  0.00000000000E+00  0.00000000000E+00  0.45593999997E+02  0.45594000000E+02  0.51100000000E-03 0. -1.
         11   -1    0    0    0    0 -0.00000000000E+00 -0.00000000000E+00 -0.45593999997E+02  0.45594000000E+02  0.51100000000E-03 0.  1.
    9900012    2    1    2    0    0  0.29077552035E+02 -0.41932185280E+01 -0.12394883632E+02  0.59301948908E+02  0.50000008900E+02 0.  0.
         12    1    1    2    0    0 -0.29077552035E+02  0.41932185280E+01  0.12394883632E+02  0.31886051092E+02  0.00000000000E+00 0. -1.
         11    1    3    3    0    0 -0.26557821246E+01 -0.21618839889E+01  0.25046808991E+01  0.42426816687E+01  0.51100000000E-03 0. -1.
        -11    1    3    3    0    0  0.10892513101E+02  0.10581291857E+02 -0.24541812733E+02  0.28860200130E+02  0.51100000000E-03 0.  1.
        -12    1    3    3    0    0  0.20840821059E+02 -0.12612626396E+02  0.96422482019E+01  0.26199067110E+02  0.00000000000E+00 0.  1.
</event>
<event>
 7    1  0.7579108E-012  0.5930194E+02  0.7816164E-02  0.1266605E+00
        -11   -1    0    0    0    0  0.00000000000E+00  0.00000000000E+00  0.45593999997E+02  0.45594000000E+02  0.51100000000E-03 0.  1.
         11   -1    0    0    0    0 -0.00000000000E+00 -0.00000000000E+00 -0.45593999997E+02  0.45594000000E+02  0.51100000000E-03 0. -1.
    9900012    2    1    2    0    0 -0.97141996254E+00  0.23145324610E+02  0.21910526673E+02  0.59301938983E+02  0.49999990800E+02 0.  0.
         12    1    1    2    0    0  0.97141996254E+00 -0.23145324610E+02 -0.21910526673E+02  0.31886061017E+02  0.00000000000E+00 0. -1.
         11    1    3    3    0    0  0.10038915884E+02  0.32915260420E+02  0.11863045987E+02  0.36399533801E+02  0.51100000000E-03 0. -1.
        -11    1    3    3    0    0 -0.30753514969E+01 -0.11160437538E+02  0.92290974200E+01  0.14805046177E+02  0.51100000000E-03 0.  1.
         12    1    3    3    0    0 -0.79349843492E+01  0.13905017283E+01  0.81838326665E+00  0.80973590046E+01  0.00000000000E+00 0. -1.
</event>
<event>
 7    1  0.7579108E-012  0.5930204E+02  0.7816164E-02  0.1266604E+00
        -11   -1    0    0    0    0  0.00000000000E+00  0.00000000000E+00  0.45593999997E+02  0.45594000000E+02  0.51100000000E-03 0.  1.
         11   -1    0    0    0    0 -0.00000000000E+00 -0.00000000000E+00 -0.45593999997E+02  0.45594000000E+02  0.51100000000E-03 0. -1.
    9900012    2    1    2    0    0  0.16391986313E+02 -0.21696347949E+02  0.16651905682E+02  0.59302036122E+02  0.50000167957E+02 0.  0.
         12    1    1    2    0    0 -0.16391986313E+02  0.21696347949E+02 -0.16651905682E+02  0.31885963878E+02  0.00000000000E+00 0. -1.
         11    1    3    3    0    0  0.13251965817E+01 -0.31297366604E+02  0.41786115831E+01  0.31602881155E+02  0.51100000000E-03 0.  1.
        -11    1    3    3    0    0  0.74710497827E+01  0.42419352088E+01  0.15668556374E+02  0.17869366477E+02  0.51100000000E-03 0. -1.
         12    1    3    3    0    0  0.75957399483E+01  0.53590834458E+01 -0.31952622754E+01  0.98297884896E+01  0.00000000000E+00 0. -1.
</event>
<event>
 7    1  0.7579108E-012  0.5930195E+02  0.7816164E-02  0.1266605E+00
        -11   -1    0    0    0    0  0.00000000000E+00  0.00000000000E+00  0.45593999997E+02  0.45594000000E+02  0.51100000000E-03 0.  1.
         11   -1    0    0    0    0 -0.00000000000E+00 -0.00000000000E+00 -0.45593999997E+02  0.45594000000E+02  0.51100000000E-03 0. -1.
    9900012    2    1    2    0    0  0.63952688941E+01 -0.30756209936E+02 -0.54658912817E+01  0.59301954755E+02  0.50000019564E+02 0.  0.
         12    1    1    2    0    0 -0.63952688941E+01  0.30756209936E+02  0.54658912817E+01  0.31886045245E+02  0.00000000000E+00 0. -1.
         11    1    3    3    0    0 -0.32272868369E+01  0.19713142892E+01 -0.14410899474E+01  0.40469989933E+01  0.51100000000E-03 0. -1.
        -11    1    3    3    0    0  0.11464461668E+02 -0.38339777122E+02  0.89438818239E+01  0.41004456019E+02  0.51100000000E-03 0.  1.
        -12    1    3    3    0    0 -0.18419059372E+01  0.56122528965E+01 -0.12968683158E+02  0.14250499743E+02  0.00000000000E+00 0.  1.
</event>
<event>
 7    1  0.7579108E-012  0.5930195E+02  0.7816164E-02  0.1266605E+00
        -11   -1    0    0    0    0  0.00000000000E+00  0.00000000000E+00  0.45593999997E+02  0.45594000000E+02  0.51100000000E-03 0.  1.
         11   -1    0    0    0    0 -0.00000000000E+00 -0.00000000000E+00 -0.45593999997E+02  0.45594000000E+02  0.51100000000E-03 0. -1.
    9900012    2    1    2    0    0 -0.11534584185E+02 -0.27262853466E+02 -0.11849496471E+02  0.59301946967E+02  0.50000005360E+02 0.  0.
         12    1    1    2    0    0  0.11534584185E+02  0.27262853466E+02  0.11849496471E+02  0.31886053033E+02  0.00000000000E+00 0. -1.
         11    1    3    3    0    0 -0.87928808306E+01  0.21411313517E+01  0.36586216228E+01  0.97613886926E+01  0.51100000000E-03 0. -1.
        -11    1    3    3    0    0 -0.22278149377E+00 -0.37755161852E+02 -0.15510899795E+02  0.40817764402E+02  0.51100000000E-03 0.  1.
        -12    1    3    3    0    0 -0.25189218607E+01  0.83511770345E+01  0.27817011031E-02  0.87227938723E+01  0.00000000000E+00 0.  1.
</event>
<event>
 7    1  0.7579108E-012  0.5930189E+02  0.7816164E-02  0.1266605E+00
        -11   -1    0    0    0    0  0.00000000000E+00  0.00000000000E+00  0.45593999997E+02  0.45594000000E+02  0.51100000000E-03 0. -1.
         11   -1    0    0    0    0 -0.00000000000E+00 -0.00000000000E+00 -0.45593999997E+02  0.45594000000E+02  0.51100000000E-03 0.  1.
    9900012    2    1    2    0    0 -0.88296771982E+01 -0.19803190329E+02 -0.23379361476E+02  0.59301888766E+02  0.49999899215E+02 0.  0.
         12    1    1    2    0    0  0.88296771982E+01  0.19803190329E+02  0.23379361476E+02  0.31886111234E+02  0.00000000000E+00 0. -1.
         11    1    3    3    0    0 -0.37485977826E+01  0.10500417365E+02 -0.17595676053E+02  0.20830712091E+02  0.51100000000E-03 0. -1.
        -11    1    3    3    0    0 -0.15305434593E+01 -0.22497427512E+02 -0.14043186786E+02  0.26564786905E+02  0.51100000000E-03 0.  1.
         12    1    3    3    0    0 -0.35505359563E+01 -0.78061801820E+01  0.82595013625E+01  0.11906389771E+02  0.00000000000E+00 0. -1.
</event>
<event>
 7    1  0.7579108E-012  0.5930194E+02  0.7816164E-02  0.1266605E+00
        -11   -1    0    0    0    0  0.00000000000E+00  0.00000000000E+00  0.45593999997E+02  0.45594000000E+02  0.51100000000E-03 0. -1.
         11   -1    0    0    0    0 -0.00000000000E+00 -0.00000000000E+00 -0.45593999997E+02  0.45594000000E+02  0.51100000000E-03 0.  1.
    9900012    2    1    2    0    0 -0.29965308974E+02  0.10605692591E+02  0.25140488866E+01  0.59301938797E+02  0.49999990460E+02 0.  0.
         12    1    1    2    0    0  0.29965308974E+02 -0.10605692591E+02 -0.25140488866E+01  0.31886061203E+02  0.00000000000E+00 0. -1.
         11    1    3    3    0    0 -0.48918733958E+01  0.56646275307E+01  0.70924379339E+01  0.10311212659E+02  0.51100000000E-03 0. -1.
        -11    1    3    3    0    0 -0.21178640379E+02 -0.14831906142E+02 -0.10619799869E+02  0.27951751245E+02  0.51100000000E-03 0.  1.
        -12    1    3    3    0    0 -0.38947951996E+01  0.19772971203E+02  0.60414108221E+01  0.21038974893E+02  0.00000000000E+00 0.  1.
</event>
<event>
 7    1  0.7579108E-012  0.5930191E+02  0.7816164E-02  0.1266605E+00
        -11   -1    0    0    0    0  0.00000000000E+00  0.00000000000E+00  0.45593999997E+02  0.45594000000E+02  0.51100000000E-03 0.  1.
         11   -1    0    0    0    0 -0.00000000000E+00 -0.00000000000E+00 -0.45593999997E+02  0.45594000000E+02  0.51100000000E-03 0. -1.
    9900012    2    1    2    0    0 -0.81087423084E+01  0.16101662060E+02  0.26300334474E+02  0.59301908732E+02  0.49999935629E+02 0.  0.
         12    1    1    2    0    0  0.81087423084E+01 -0.16101662060E+02 -0.26300334474E+02  0.31886091268E+02  0.00000000000E+00 0. -1.
         11    1    3    3    0    0  0.62023766989E+01  0.13332456420E+02 -0.16942505203E+01  0.14801836238E+02  0.51100000000E-03 0. -1.
        -11    1    3    3    0    0 -0.23348346362E+02  0.13931171177E+01  0.12527251088E+02  0.26533338901E+02  0.51100000000E-03 0.  1.
        -12    1    3    3    0    0  0.90372273546E+01  0.13760885217E+01  0.15467333906E+02  0.17966733594E+02  0.00000000000E+00 0.  1.
</event>
<event>
 7    1  0.7579108E-012  0.5930202E+02  0.7816164E-02  0.1266604E+00
        -11   -1    0    0    0    0  0.00000000000E+00  0.00000000000E+00  0.45593999997E+02  0.45594000000E+02  0.51100000000E-03 0.  1.
         11   -1    0    0    0    0 -0.00000000000E+00 -0.00000000000E+00 -0.45593999997E+02  0.45594000000E+02  0.51100000000E-03 0. -1.
    9900012    2    1    2    0    0 -0.99378008736E+01  0.19024967313E+02  0.23579787297E+02  0.59302021320E+02  0.50000140962E+02 0.  0.
         12    1    1    2    0    0  0.99378008736E+01 -0.19024967313E+02 -0.23579787297E+02  0.31885978680E+02  0.00000000000E+00 0. -1.
         11    1    3    3    0    0 -0.15412185105E+02  0.57008807226E+01 -0.10279373353E+02  0.19383008216E+02  0.51100000000E-03 0. -1.
        -11    1    3    3    0    0 -0.40370999575E+01  0.97760847672E+01  0.21201488898E+02  0.23693314273E+02  0.51100000000E-03 0.  1.
        -12    1    3    3    0    0  0.95114841885E+01  0.35480018227E+01  0.12657671751E+02  0.16225698831E+02  0.00000000000E+00 0.  1.
</event>
<event>
 7    1  0.7579108E-012  0.5930193E+02  0.7816164E-02  0.1266605E+00
        -11   -1    0    0    0    0  0.00000000000E+00  0.00000000000E+00  0.45593999997E+02  0.45594000000E+02  0.51100000000E-03 0. -1.
         11   -1    0    0    0    0 -0.00000000000E+00 -0.00000000000E+00 -0.45593999997E+02  0.45594000000E+02  0.51100000000E-03 0.  1.
    9900012    2    1    2    0    0  0.49457703036E+01 -0.16629889000E+02 -0.26752713601E+02  0.59301928793E+02  0.49999972215E+02 0.  0.
         12    1    1    2    0    0 -0.49457703036E+01  0.16629889000E+02  0.26752713601E+02  0.31886071207E+02  0.00000000000E+00 0. -1.
         11    1    3    3    0    0 -0.12209057885E+02 -0.86649801868E+01  0.48016304933E+01  0.15722551693E+02  0.51100000000E-03 0. -1.
        -11    1    3    3    0    0  0.63014188911E+01  0.67174578009E+01 -0.19874038207E+02  0.21904554647E+02  0.51100000000E-03 0.  1.
         12    1    3    3    0    0  0.10853409298E+02 -0.14682366614E+02 -0.11680305887E+02  0.21674822453E+02  0.00000000000E+00 0. -1.
</event>
<event>
 7    1  0.7579108E-012  0.5930223E+02  0.7816164E-02  0.1266604E+00
        -11   -1    0    0    0    0  0.00000000000E+00  0.00000000000E+00  0.45593999997E+02  0.45594000000E+02  0.51100000000E-03 0.  1.
         11   -1    0    0    0    0 -0.00000000000E+00 -0.00000000000E+00 -0.45593999997E+02  0.45594000000E+02  0.51100000000E-03 0. -1.
    9900012    2    1    2    0    0 -0.22371216470E+02 -0.12340330243E+02  0.19077409506E+02  0.59302225267E+02  0.50000512911E+02 0.  0.
         12    1    1    2    0    0  0.22371216470E+02  0.12340330243E+02 -0.19077409506E+02  0.31885774733E+02  0.00000000000E+00 0. -1.
         11    1    3    3    0    0 -0.12052704090E+02 -0.12213912636E+02  0.13697931748E+02  0.21956335582E+02  0.51100000000E-03 0. -1.
        -11    1    3    3    0    0 -0.11569414297E+02  0.14965372551E+02  0.10152089285E+02  0.21468084215E+02  0.51100000000E-03 0.  1.
         12    1    3    3    0    0  0.12509019171E+01 -0.15091790157E+02 -0.47726115267E+01  0.15877805470E+02  0.00000000000E+00 0. -1.
</event>
<event>
 7    1  0.7579108E-012  0.5930188E+02  0.7816164E-02  0.1266605E+00
        -11   -1    0    0    0    0  0.00000000000E+00  0.00000000000E+00  0.45593999997E+02  0.45594000000E+02  0.51100000000E-03 0.  1.
         11   -1    0    0    0    0 -0.00000000000E+00 -0.00000000000E+00 -0.45593999997E+02  0.45594000000E+02  0.51100000000E-03 0. -1.
    9900012    2    1    2    0    0 -0.25053115573E+02  0.10579161359E+02  0.16647749957E+02  0.59301877100E+02  0.49999877939E+02 0.  0.
         12    1    1    2    0    0  0.25053115573E+02 -0.10579161359E+02 -0.16647749957E+02  0.31886122900E+02  0.00000000000E+00 0. -1.
         11    1    3    3    0    0 -0.87187677182E+01  0.60825196528E+01  0.36726249502E+01  0.11247316575E+02  0.51100000000E-03 0. -1.
        -11    1    3    3    0    0  0.93486921797E+00 -0.13140912544E+02  0.18546639027E+02  0.22749404001E+02  0.51100000000E-03 0.  1.
        -12    1    3    3    0    0 -0.17269217073E+02  0.17637554250E+02 -0.55715140198E+01  0.25305156524E+02  0.00000000000E+00 0.  1.
</event>
<event>
 7    1  0.7579108E-012  0.5930195E+02  0.7816164E-02  0.1266605E+00
        -11   -1    0    0    0    0  0.00000000000E+00  0.00000000000E+00  0.45593999997E+02  0.45594000000E+02  0.51100000000E-03 0.  1.
         11   -1    0    0    0    0 -0.00000000000E+00 -0.00000000000E+00 -0.45593999997E+02  0.45594000000E+02  0.51100000000E-03 0. -1.
    9900012    2    1    2    0    0 -0.17900613598E+02 -0.17402122855E+02  0.19835687242E+02  0.59301947636E+02  0.50000006580E+02 0.  0.
         12    1    1    2    0    0  0.17900613598E+02  0.17402122855E+02 -0.19835687242E+02  0.31886052364E+02  0.00000000000E+00 0. -1.
         11    1    3    3    0    0  0.40059836350E+01  0.41516217795E+01  0.28346977584E+01  0.64280152400E+01  0.51100000000E-03 0. -1.
        -11    1    3    3    0    0 -0.21417887765E+02 -0.32327516396E+02  0.10108128259E+02  0.40074536676E+02  0.51100000000E-03 0.  1.
        -12    1    3    3    0    0 -0.48870946834E+00  0.10773771762E+02  0.68928612242E+01  0.12799395719E+02  0.00000000000E+00 0.  1.
</event>
<event>
 7    1  0.7715176E-012  0.5930196E+02  0.7816164E-02  0.1266605E+00
        -11   -1    0    0    0    0  0.00000000000E+00  0.00000000000E+00  0.45593999997E+02  0.45594000000E+02  0.51100000000E-03 0. -1.
         11   -1    0    0    0    0 -0.00000000000E+00 -0.00000000000E+00 -0.45593999997E+02  0.45594000000E+02  0.51100000000E-03 0.  1.
    9900012    2    1    2    0    0 -0.10913813696E+02 -0.32114419795E+01 -0.29787495650E+02  0.59301959385E+02  0.50000028008E+02 0.  0.
         12    1    1    2    0    0  0.10913813696E+02  0.32114419795E+01  0.29787495650E+02  0.31886040615E+02  0.00000000000E+00 0. -1.
         11    1    3    3    0    0  0.93682942183E+01  0.64585719177E+01 -0.55642789665E+01  0.12666463139E+02  0.51100000000E-03 0. -1.
        -11    1    3    3    0    0 -0.14047989037E+02 -0.75318987882E+01  0.49786306861E+01  0.16699169413E+02  0.51100000000E-03 0.  1.
        -12    1    3    3    0    0 -0.62341188776E+01 -0.21381151089E+01 -0.29201847370E+02  0.29936326832E+02  0.00000000000E+00 0.  1.
</event>
<event>
 7    1  0.7579108E-012  0.5930192E+02  0.7816164E-02  0.1266605E+00
        -11   -1    0    0    0    0  0.00000000000E+00  0.00000000000E+00  0.45593999997E+02  0.45594000000E+02  0.51100000000E-03 0.  1.
         11   -1    0    0    0    0 -0.00000000000E+00 -0.00000000000E+00 -0.45593999997E+02  0.45594000000E+02  0.51100000000E-03 0. -1.
    9900012    2    1    2    0    0 -0.16175287229E+02  0.99439335979E+01  0.25616412600E+02  0.59301916408E+02  0.49999949629E+02 0.  0.
         12    1    1    2    0    0  0.16175287229E+02 -0.99439335979E+01 -0.25616412600E+02  0.31886083592E+02  0.00000000000E+00 0. -1.
         11    1    3    3    0    0 -0.29343115761E+02  0.17467117268E+02  0.20574808807E+02  0.39867798860E+02  0.51100000000E-03 0. -1.
        -11    1    3    3    0    0  0.53159114960E+01  0.26215550925E+01  0.12559411424E+01  0.60587832566E+01  0.51100000000E-03 0.  1.
         12    1    3    3    0    0  0.78519170365E+01 -0.10144738763E+02  0.37856626510E+01  0.13375334292E+02  0.00000000000E+00 0. -1.
</event>
<event>
 7    1  0.7579108E-012  0.5930196E+02  0.7816164E-02  0.1266605E+00
        -11   -1    0    0    0    0  0.00000000000E+00  0.00000000000E+00  0.45593999997E+02  0.45594000000E+02  0.51100000000E-03 0. -1.
         11   -1    0    0    0    0 -0.00000000000E+00 -0.00000000000E+00 -0.45593999997E+02  0.45594000000E+02  0.51100000000E-03 0.  1.
    9900012    2    1    2    0    0 -0.37322597076E+01 -0.18961506138E+01 -0.31610038065E+02  0.59301958286E+02  0.50000026004E+02 0.  0.
         12    1    1    2    0    0  0.37322597076E+01  0.18961506138E+01  0.31610038065E+02  0.31886041714E+02  0.00000000000E+00 0. -1.
         11    1    3    3    0    0 -0.40429997528E+01  0.48556271722E+01  0.10304990215E+01  0.64019442930E+01  0.51100000000E-03 0. -1.
        -11    1    3    3    0    0  0.19254227601E+02 -0.11046592724E+02 -0.16919149008E+02  0.27910752314E+02  0.51100000000E-03 0.  1.
        -12    1    3    3    0    0 -0.18943487556E+02  0.42948149385E+01 -0.15721388079E+02  0.24989261679E+02  0.00000000000E+00 0.  1.
</event>
<event>
 7    1  0.7579108E-012  0.5930195E+02  0.7816164E-02  0.1266605E+00
        -11   -1    0    0    0    0  0.00000000000E+00  0.00000000000E+00  0.45593999997E+02  0.45594000000E+02  0.51100000000E-03 0. -1.
         11   -1    0    0    0    0 -0.00000000000E+00 -0.00000000000E+00 -0.45593999997E+02  0.45594000000E+02  0.51100000000E-03 0.  1.
    9900012    2    1    2    0    0  0.27532889905E+02  0.13416456685E+02 -0.88689782294E+01  0.59301951149E+02  0.50000012987E+02 0.  0.
         12    1    1    2    0    0 -0.27532889905E+02 -0.13416456685E+02  0.88689782294E+01  0.31886048851E+02  0.00000000000E+00 0. -1.
         11    1    3    3    0    0  0.18228179724E+02  0.22744910813E+02 -0.23156956533E+02  0.37226900758E+02  0.51100000000E-03 0. -1.
        -11    1    3    3    0    0  0.79560023334E+00 -0.39745575132E+01 -0.61334930995E+00  0.40995469011E+01  0.51100000000E-03 0.  1.
         12    1    3    3    0    0  0.85091099480E+01 -0.53538966148E+01  0.14901327613E+02  0.17975503490E+02  0.00000000000E+00 0. -1.
</event>
<event>
 7    1  0.7579108E-012  0.5930198E+02  0.7816164E-02  0.1266605E+00
        -11   -1    0    0    0    0  0.00000000000E+00  0.00000000000E+00  0.45593999997E+02  0.45594000000E+02  0.51100000000E-03 0.  1.
         11   -1    0    0    0    0 -0.00000000000E+00 -0.00000000000E+00 -0.45593999997E+02  0.45594000000E+02  0.51100000000E-03 0. -1.
    9900012    2    1    2    0    0 -0.17038097276E+02 -0.42978104919E+01  0.26607338746E+02  0.59301977844E+02  0.50000061672E+02 0.  0.
         12    1    1    2    0    0  0.17038097276E+02  0.42978104919E+01 -0.26607338746E+02  0.31886022156E+02  0.00000000000E+00 0. -1.
         11    1    3    3    0    0  0.13790893702E+01  0.13097045920E+02 -0.13901937390E+01  0.13242625805E+02  0.51100000000E-03 0. -1.
        -11    1    3    3    0    0 -0.41688116975E+01 -0.12629150857E+02  0.28041025393E+02  0.31035037421E+02  0.51100000000E-03 0.  1.
         12    1    3    3    0    0 -0.14248374949E+02 -0.47657055547E+01 -0.43492908299E-01  0.15024314618E+02  0.00000000000E+00 0. -1.
</event>
<event>
 7    1  0.7579108E-012  0.5930195E+02  0.7816164E-02  0.1266605E+00
        -11   -1    0    0    0    0  0.00000000000E+00  0.00000000000E+00  0.45593999997E+02  0.45594000000E+02  0.51100000000E-03 0. -1.
         11   -1    0    0    0    0 -0.00000000000E+00 -0.00000000000E+00 -0.45593999997E+02  0.45594000000E+02  0.51100000000E-03 0.  1.
    9900012    2    1    2    0    0  0.82988267272E+01 -0.26330926264E+02 -0.15954067354E+02  0.59301945555E+02  0.50000002785E+02 0.  0.
         12    1    1    2    0    0 -0.82988267272E+01  0.26330926264E+02  0.15954067354E+02  0.31886054445E+02  0.00000000000E+00 0. -1.
         11    1    3    3    0    0 -0.10812728420E+02 -0.20740333712E+01 -0.22177788005E+01  0.11230995209E+02  0.51100000000E-03 0. -1.
        -11    1    3    3    0    0  0.19189211031E+02 -0.31283093240E+02 -0.16852932691E+02  0.40384143958E+02  0.51100000000E-03 0.  1.
        -12    1    3    3    0    0 -0.77655883513E-01  0.70262003475E+01  0.31166441372E+01  0.76868063874E+01  0.00000000000E+00 0.  1.
</event>
<event>
 7    1  0.7579108E-012  0.5930196E+02  0.7816164E-02  0.1266605E+00
        -11   -1    0    0    0    0  0.00000000000E+00  0.00000000000E+00  0.45593999997E+02  0.45594000000E+02  0.51100000000E-03 0.  1.
         11   -1    0    0    0    0 -0.00000000000E+00 -0.00000000000E+00 -0.45593999997E+02  0.45594000000E+02  0.51100000000E-03 0. -1.
    9900012    2    1    2    0    0 -0.15425461318E+02  0.26360922589E+02  0.91584190054E+01  0.59301957046E+02  0.50000023741E+02 0.  0.
         12    1    1    2    0    0  0.15425461318E+02 -0.26360922589E+02 -0.91584190054E+01  0.31886042954E+02  0.00000000000E+00 0. -1.
         11    1    3    3    0    0 -0.16510060017E+02  0.96139909020E+01 -0.11126639648E+02  0.22109116060E+02  0.51100000000E-03 0. -1.
        -11    1    3    3    0    0 -0.34351134381E+01  0.18781161350E+02  0.24236900831E+02  0.30853839115E+02  0.51100000000E-03 0.  1.
        -12    1    3    3    0    0  0.45197121366E+01 -0.20342296631E+01 -0.39518421778E+01  0.63390018708E+01  0.00000000000E+00 0.  1.
</event>
<event>
 7    1  0.7579108E-012  0.5930195E+02  0.7816164E-02  0.1266605E+00
        -11   -1    0    0    0    0  0.00000000000E+00  0.00000000000E+00  0.45593999997E+02  0.45594000000E+02  0.51100000000E-03 0.  1.
         11   -1    0    0    0    0 -0.00000000000E+00 -0.00000000000E+00 -0.45593999997E+02  0.45594000000E+02  0.51100000000E-03 0. -1.
    9900012    2    1    2    0    0 -0.23819847088E+02 -0.15218824611E+02  0.14755413806E+02  0.59301953295E+02  0.50000016902E+02 0.  0.
         12    1    1    2    0    0  0.23819847088E+02  0.15218824611E+02 -0.14755413806E+02  0.31886046705E+02  0.00000000000E+00 0. -1.
         11    1    3    3    0    0 -0.12552286135E+02 -0.13974957660E+02 -0.79911093645E+01  0.20413651265E+02  0.51100000000E-03 0. -1.
        -11    1    3    3    0    0 -0.11512651854E+02  0.10508598381E+02  0.22193173616E+02  0.27120264528E+02  0.51100000000E-03 0.  1.
        -12    1    3    3    0    0  0.24509090090E+00 -0.11752465332E+02  0.55334955436E+00  0.11768037503E+02  0.00000000000E+00 0.  1.
</event>
<event>
 7    1  0.7579108E-012  0.5930194E+02  0.7816164E-02  0.1266605E+00
        -11   -1    0    0    0    0  0.00000000000E+00  0.00000000000E+00  0.45593999997E+02  0.45594000000E+02  0.51100000000E-03 0.  1.
         11   -1    0    0    0    0 -0.00000000000E+00 -0.00000000000E+00 -0.45593999997E+02  0.45594000000E+02  0.51100000000E-03 0. -1.
    9900012    2    1    2    0    0 -0.22835860979E+02  0.15042683582E+02 -0.16400060150E+02  0.59301939583E+02  0.49999991894E+02 0.  0.
         12    1    1    2    0    0  0.22835860979E+02 -0.15042683582E+02  0.16400060150E+02  0.31886060417E+02  0.00000000000E+00 0. -1.
         11    1    3    3    0    0 -0.23271447789E+02 -0.32071025452E+01 -0.19591995385E+02  0.30589084203E+02  0.51100000000E-03 0. -1.
        -11    1    3    3    0    0  0.12045203290E+00 -0.29194541718E+01  0.66473003346E+01  0.72611516548E+01  0.51100000000E-03 0.  1.
         12    1    3    3    0    0  0.31513477695E+00  0.21169240299E+02 -0.34553650996E+01  0.21451703725E+02  0.00000000000E+00 0. -1.
</event>
<event>
 7    1  0.7579108E-012  0.5930195E+02  0.7816164E-02  0.1266605E+00
        -11   -1    0    0    0    0  0.00000000000E+00  0.00000000000E+00  0.45593999997E+02  0.45594000000E+02  0.51100000000E-03 0.  1.
         11   -1    0    0    0    0 -0.00000000000E+00 -0.00000000000E+00 -0.45593999997E+02  0.45594000000E+02  0.51100000000E-03 0. -1.
    9900012    2    1    2    0    0 -0.77355403408E+01  0.50526702860E+01  0.30518065837E+02  0.59301946562E+02  0.50000004622E+02 0.  0.
         12    1    1    2    0    0  0.77355403408E+01 -0.50526702860E+01 -0.30518065837E+02  0.31886053438E+02  0.00000000000E+00 0. -1.
         11    1    3    3    0    0 -0.20528950789E+02  0.48177165475E+01  0.44133408595E+01  0.21543578882E+02  0.51100000000E-03 0. -1.
        -11    1    3    3    0    0  0.46394849254E+01 -0.11780737043E+02  0.13762507866E+02  0.18700727490E+02  0.51100000000E-03 0.  1.
         12    1    3    3    0    0  0.81539255228E+01  0.12015690781E+02  0.12342217112E+02  0.19057640190E+02  0.00000000000E+00 0. -1.
</event>
<event>
 7    1  0.7579108E-012  0.5930194E+02  0.7816164E-02  0.1266605E+00
        -11   -1    0    0    0    0  0.00000000000E+00  0.00000000000E+00  0.45593999997E+02  0.45594000000E+02  0.51100000000E-03 0.  1.
         11   -1    0    0    0    0 -0.00000000000E+00 -0.00000000000E+00 -0.45593999997E+02  0.45594000000E+02  0.51100000000E-03 0. -1.
    9900012    2    1    2    0    0  0.29624734549E+02 -0.28261748563E+01 -0.11450265127E+02  0.59301941402E+02  0.49999995211E+02 0.  0.
         12    1    1    2    0    0 -0.29624734549E+02  0.28261748563E+01  0.11450265127E+02  0.31886058598E+02  0.00000000000E+00 0. -1.
         11    1    3    3    0    0  0.11592015129E+02 -0.11354682577E+02 -0.21827664244E+02  0.27198355792E+02  0.51100000000E-03 0. -1.
        -11    1    3    3    0    0  0.20088286821E+02 -0.51685419912E+00  0.10809013122E+02  0.22817562766E+02  0.51100000000E-03 0.  1.
        -12    1    3    3    0    0 -0.20555674006E+01  0.90453619202E+01 -0.43161400511E+00  0.92860228438E+01  0.00000000000E+00 0.  1.
</event>
<event>
 7    1  0.7579108E-012  0.5930193E+02  0.7816164E-02  0.1266605E+00
        -11   -1    0    0    0    0  0.00000000000E+00  0.00000000000E+00  0.45593999997E+02  0.45594000000E+02  0.51100000000E-03 0.  1.
         11   -1    0    0    0    0 -0.00000000000E+00 -0.00000000000E+00 -0.45593999997E+02  0.45594000000E+02  0.51100000000E-03 0. -1.
    9900012    2    1    2    0    0  0.64204012132E+01 -0.39347599226E+01  0.30984147588E+02  0.59301932680E+02  0.49999979304E+02 0.  0.
         12    1    1    2    0    0 -0.64204012132E+01  0.39347599226E+01 -0.30984147588E+02  0.31886067320E+02  0.00000000000E+00 0. -1.
         11    1    3    3    0    0  0.10516094131E+02  0.91097700825E+01 -0.84958412646E+01  0.16302008029E+02  0.51100000000E-03 0. -1.
        -11    1    3    3    0    0 -0.74213607663E+01 -0.10105438023E+02  0.30711625403E+02  0.33172283738E+02  0.51100000000E-03 0.  1.
         12    1    3    3    0    0  0.33256678484E+01 -0.29390919826E+01  0.87683634494E+01  0.98276409123E+01  0.00000000000E+00 0. -1.
</event>
<event>
 7    1  0.7579108E-012  0.5930198E+02  0.7816164E-02  0.1266605E+00
        -11   -1    0    0    0    0  0.00000000000E+00  0.00000000000E+00  0.45593999997E+02  0.45594000000E+02  0.51100000000E-03 0.  1.
         11   -1    0    0    0    0 -0.00000000000E+00 -0.00000000000E+00 -0.45593999997E+02  0.45594000000E+02  0.51100000000E-03 0. -1.
    9900012    2    1    2    0    0  0.11927715589E+01 -0.16692418045E+02  0.27141455055E+02  0.59301982583E+02  0.50000070316E+02 0.  0.
         12    1    1    2    0    0 -0.11927715589E+01  0.16692418045E+02 -0.27141455055E+02  0.31886017417E+02  0.00000000000E+00 0. -1.
         11    1    3    3    0    0 -0.45745904848E+01 -0.24674165176E+02  0.38965524642E+00  0.25097671938E+02  0.51100000000E-03 0. -1.
        -11    1    3    3    0    0  0.11073110927E+02 -0.74513971429E+00  0.14187405585E+02  0.18012537197E+02  0.51100000000E-03 0.  1.
         12    1    3    3    0    0 -0.53057488828E+01  0.87268868444E+01  0.12564394224E+02  0.16191773449E+02  0.00000000000E+00 0. -1.
</event>
<event>
 7    1  0.7579108E-012  0.5930192E+02  0.7816164E-02  0.1266605E+00
        -11   -1    0    0    0    0  0.00000000000E+00  0.00000000000E+00  0.45593999997E+02  0.45594000000E+02  0.51100000000E-03 0.  1.
         11   -1    0    0    0    0 -0.00000000000E+00 -0.00000000000E+00 -0.45593999997E+02  0.45594000000E+02  0.51100000000E-03 0. -1.
    9900012    2    1    2    0    0 -0.27434168226E+02  0.85203299007E+01  0.13838079925E+02  0.59301920531E+02  0.49999957148E+02 0.  0.
         12    1    1    2    0    0  0.27434168226E+02 -0.85203299007E+01 -0.13838079925E+02  0.31886079469E+02  0.00000000000E+00 0. -1.
         11    1    3    3    0    0 -0.30856278944E+01  0.15964356245E+02 -0.16314971631E+01  0.16341467287E+02  0.51100000000E-03 0. -1.
        -11    1    3    3    0    0 -0.16430444373E+02 -0.14812766328E+02 -0.22127078011E+01  0.22232265396E+02  0.51100000000E-03 0.  1.
        -12    1    3    3    0    0 -0.79180959589E+01  0.73687399835E+01  0.17682284889E+02  0.20728187848E+02  0.00000000000E+00 0.  1.
</event>
<event>
 7    1  0.7579108E-012  0.5930192E+02  0.7816164E-02  0.1266605E+00
        -11   -1    0    0    0    0  0.00000000000E+00  0.00000000000E+00  0.45593999997E+02  0.45594000000E+02  0.51100000000E-03 0.  1.
         11   -1    0    0    0    0 -0.00000000000E+00 -0.00000000000E+00 -0.45593999997E+02  0.45594000000E+02  0.51100000000E-03 0. -1.
    9900012    2    1    2    0    0 -0.99152483319E+01  0.28927633108E+02 -0.90333692298E+01  0.59301923629E+02  0.49999962797E+02 0.  0.
         12    1    1    2    0    0  0.99152483319E+01 -0.28927633108E+02  0.90333692298E+01  0.31886076371E+02  0.00000000000E+00 0. -1.
         11    1    3    3    0    0 -0.48356216336E+01  0.21243759900E+02 -0.19596199102E+02  0.29303439913E+02  0.51100000000E-03 0. -1.
        -11    1    3    3    0    0 -0.59500797511E+01  0.82282759591E+01  0.18976480125E+02  0.21522424875E+02  0.51100000000E-03 0.  1.
         12    1    3    3    0    0  0.87045305278E+00 -0.54440275069E+00 -0.84136502533E+01  0.84760588399E+01  0.00000000000E+00 0. -1.
</event>
<event>
 7    1  0.7579108E-012  0.5930195E+02  0.7816164E-02  0.1266605E+00
        -11   -1    0    0    0    0  0.00000000000E+00  0.00000000000E+00  0.45593999997E+02  0.45594000000E+02  0.51100000000E-03 0. -1.
         11   -1    0    0    0    0 -0.00000000000E+00 -0.00000000000E+00 -0.45593999997E+02  0.45594000000E+02  0.51100000000E-03 0.  1.
    9900012    2    1    2    0    0  0.24468508374E+02  0.85302944302E+01 -0.18580802097E+02  0.59301952398E+02  0.50000015265E+02 0.  0.
         12    1    1    2    0    0 -0.24468508374E+02 -0.85302944302E+01  0.18580802097E+02  0.31886047602E+02  0.00000000000E+00 0. -1.
         11    1    3    3    0    0  0.74178368567E+01  0.17904427325E+02  0.29041554779E+01  0.19596605338E+02  0.51100000000E-03 0. -1.
        -11    1    3    3    0    0  0.16618730214E+02 -0.18141769880E+02 -0.16239231960E+02  0.29479122497E+02  0.51100000000E-03 0.  1.
        -12    1    3    3    0    0  0.43194130346E+00  0.87676369849E+01 -0.52457256147E+01  0.10226224563E+02  0.00000000000E+00 0.  1.
</event>
<event>
 7    1  0.7579108E-012  0.5930199E+02  0.7816164E-02  0.1266605E+00
        -11   -1    0    0    0    0  0.00000000000E+00  0.00000000000E+00  0.45593999997E+02  0.45594000000E+02  0.51100000000E-03 0.  1.
         11   -1    0    0    0    0 -0.00000000000E+00 -0.00000000000E+00 -0.45593999997E+02  0.45594000000E+02  0.51100000000E-03 0. -1.
    9900012    2    1    2    0    0  0.15021462259E+01 -0.37715312774E+01  0.31626523001E+02  0.59301986630E+02  0.50000077697E+02 0.  0.
         12    1    1    2    0    0 -0.15021462259E+01  0.37715312774E+01 -0.31626523001E+02  0.31886013370E+02  0.00000000000E+00 0. -1.
         11    1    3    3    0    0 -0.43212621999E+01  0.16531329574E+02  0.15182063116E+02  0.22857235292E+02  0.51100000000E-03 0. -1.
        -11    1    3    3    0    0  0.13700927393E+02 -0.97921171160E+01  0.20608860490E+01  0.16966090316E+02  0.51100000000E-03 0.  1.
        -12    1    3    3    0    0 -0.78775189668E+01 -0.10510743735E+02  0.14383573837E+02  0.19478661023E+02  0.00000000000E+00 0.  1.
</event>
<event>
 7    1  0.7579108E-012  0.5930194E+02  0.7816164E-02  0.1266605E+00
        -11   -1    0    0    0    0  0.00000000000E+00  0.00000000000E+00  0.45593999997E+02  0.45594000000E+02  0.51100000000E-03 0. -1.
         11   -1    0    0    0    0 -0.00000000000E+00 -0.00000000000E+00 -0.45593999997E+02  0.45594000000E+02  0.51100000000E-03 0.  1.
    9900012    2    1    2    0    0  0.27254390554E+02  0.42767568735E+01 -0.15988375896E+02  0.59301943209E+02  0.49999998507E+02 0.  0.
         12    1    1    2    0    0 -0.27254390554E+02 -0.42767568735E+01  0.15988375896E+02  0.31886056791E+02  0.00000000000E+00 0. -1.
         11    1    3    3    0    0 -0.56224153337E+01  0.17345777936E+02 -0.72557180817E+01  0.19624806026E+02  0.51100000000E-03 0. -1.
        -11    1    3    3    0    0  0.20936071575E+02 -0.11126560577E+02 -0.12762582781E+02  0.26925879053E+02  0.51100000000E-03 0.  1.
        -12    1    3    3    0    0  0.11940734314E+02 -0.19424604858E+01  0.40299249667E+01  0.12751258131E+02  0.00000000000E+00 0.  1.
</event>
<event>
 7    1  0.7579108E-012  0.5930180E+02  0.7816164E-02  0.1266605E+00
        -11   -1    0    0    0    0  0.00000000000E+00  0.00000000000E+00  0.45593999997E+02  0.45594000000E+02  0.51100000000E-03 0.  1.
         11   -1    0    0    0    0 -0.00000000000E+00 -0.00000000000E+00 -0.45593999997E+02  0.45594000000E+02  0.51100000000E-03 0. -1.
    9900012    2    1    2    0    0  0.16806690860E+02 -0.13848166811E+02  0.23291477520E+02  0.59301803821E+02  0.49999744295E+02 0.  0.
         12    1    1    2    0    0 -0.16806690860E+02  0.13848166811E+02 -0.23291477520E+02  0.31886196179E+02  0.00000000000E+00 0. -1.
         11    1    3    3    0    0 -0.57455514931E+01 -0.19971942792E+02  0.54687548393E+01  0.21489465806E+02  0.51100000000E-03 0. -1.
        -11    1    3    3    0    0  0.21141335361E+02  0.58144967649E+01  0.23390316632E+02  0.32060432715E+02  0.51100000000E-03 0.  1.
        -12    1    3    3    0    0  0.14109069929E+01  0.30927921608E+00 -0.55675939512E+01  0.57519053001E+01  0.00000000000E+00 0.  1.
</event>
<event>
 7    1  0.7579108E-012  0.5930192E+02  0.7816164E-02  0.1266605E+00
        -11   -1    0    0    0    0  0.00000000000E+00  0.00000000000E+00  0.45593999997E+02  0.45594000000E+02  0.51100000000E-03 0. -1.
         11   -1    0    0    0    0 -0.00000000000E+00 -0.00000000000E+00 -0.45593999997E+02  0.45594000000E+02  0.51100000000E-03 0.  1.
    9900012    2    1    2    0    0  0.41045961101E+01  0.80661991977E+01 -0.30574672900E+02  0.59301923075E+02  0.49999961787E+02 0.  0.
         12    1    1    2    0    0 -0.41045961101E+01 -0.80661991977E+01  0.30574672900E+02  0.31886076925E+02  0.00000000000E+00 0. -1.
         11    1    3    3    0    0 -0.56459875619E+01  0.79091823218E+01 -0.17829739903E+02  0.20305958875E+02  0.51100000000E-03 0.  1.
        -11    1    3    3    0    0  0.15514160839E+02  0.14517513315E+02 -0.90031589666E+01  0.23076053628E+02  0.51100000000E-03 0. -1.
        -12    1    3    3    0    0 -0.57635771673E+01 -0.14360496439E+02 -0.37417740308E+01  0.15919910572E+02  0.00000000000E+00 0.  1.
</event>
<event>
 7    1  0.7579108E-012  0.5930191E+02  0.7816164E-02  0.1266605E+00
        -11   -1    0    0    0    0  0.00000000000E+00  0.00000000000E+00  0.45593999997E+02  0.45594000000E+02  0.51100000000E-03 0.  1.
         11   -1    0    0    0    0 -0.00000000000E+00 -0.00000000000E+00 -0.45593999997E+02  0.45594000000E+02  0.51100000000E-03 0. -1.
    9900012    2    1    2    0    0  0.27014973660E+02  0.20658091436E+01  0.16812092083E+02  0.59301908840E+02  0.49999935825E+02 0.  0.
         12    1    1    2    0    0 -0.27014973660E+02 -0.20658091436E+01 -0.16812092083E+02  0.31886091160E+02  0.00000000000E+00 0. -1.
         11    1    3    3    0    0  0.31551416930E+00 -0.20665421796E+02  0.75044156001E+01  0.21988075426E+02  0.51100000000E-03 0.  1.
        -11    1    3    3    0    0  0.27004067967E+02  0.20866527869E+02  0.81110361933E+01  0.35077351389E+02  0.51100000000E-03 0. -1.
        -12    1    3    3    0    0 -0.30460847599E+00  0.18647030706E+01  0.11966402893E+01  0.22364820248E+01  0.00000000000E+00 0.  1.
</event>
<event>
 7    1  0.7579108E-012  0.5930194E+02  0.7816164E-02  0.1266605E+00
        -11   -1    0    0    0    0  0.00000000000E+00  0.00000000000E+00  0.45593999997E+02  0.45594000000E+02  0.51100000000E-03 0. -1.
         11   -1    0    0    0    0 -0.00000000000E+00 -0.00000000000E+00 -0.45593999997E+02  0.45594000000E+02  0.51100000000E-03 0.  1.
    9900012    2    1    2    0    0 -0.24889709982E+02  0.18686614737E+02  0.69306463107E+01  0.59301935777E+02  0.49999984953E+02 0.  0.
         12    1    1    2    0    0  0.24889709982E+02 -0.18686614737E+02 -0.69306463107E+01  0.31886064223E+02  0.00000000000E+00 0. -1.
         11    1    3    3    0    0  0.33004025723E+01  0.52859887017E+00  0.40604281494E+01  0.52591967944E+01  0.51100000000E-03 0. -1.
        -11    1    3    3    0    0 -0.30891051464E+02 -0.44152381599E+01  0.25075863943E+01  0.31305580626E+02  0.51100000000E-03 0.  1.
        -12    1    3    3    0    0  0.27009389090E+01  0.22573254027E+02  0.36263176697E+00  0.22737158357E+02  0.00000000000E+00 0.  1.
</event>
<event>
 7    1  0.7579108E-012  0.5930195E+02  0.7816164E-02  0.1266605E+00
        -11   -1    0    0    0    0  0.00000000000E+00  0.00000000000E+00  0.45593999997E+02  0.45594000000E+02  0.51100000000E-03 0. -1.
         11   -1    0    0    0    0 -0.00000000000E+00 -0.00000000000E+00 -0.45593999997E+02  0.45594000000E+02  0.51100000000E-03 0.  1.
    9900012    2    1    2    0    0  0.15244703295E+02  0.20638063141E+02 -0.18931187547E+02  0.59301945200E+02  0.50000002138E+02 0.  0.
         12    1    1    2    0    0 -0.15244703295E+02 -0.20638063141E+02  0.18931187547E+02  0.31886054800E+02  0.00000000000E+00 0. -1.
         11    1    3    3    0    0  0.14032118213E+02 -0.38463359034E+01  0.70616156324E+01  0.16172849378E+02  0.51100000000E-03 0. -1.
        -11    1    3    3    0    0 -0.10472794703E+02  0.49078306724E+01 -0.98790849736E+01  0.15210606529E+02  0.51100000000E-03 0.  1.
         12    1    3    3    0    0  0.11685379786E+02  0.19576568372E+02 -0.16113718205E+02  0.27918489293E+02  0.00000000000E+00 0. -1.
</event>
<event>
 7    1  0.7579108E-012  0.5930199E+02  0.7816164E-02  0.1266605E+00
        -11   -1    0    0    0    0  0.00000000000E+00  0.00000000000E+00  0.45593999997E+02  0.45594000000E+02  0.51100000000E-03 0.  1.
         11   -1    0    0    0    0 -0.00000000000E+00 -0.00000000000E+00 -0.45593999997E+02  0.45594000000E+02  0.51100000000E-03 0. -1.
    9900012    2    1    2    0    0  0.99025232552E+01 -0.46885525684E+01  0.29944539182E+02  0.59301985529E+02  0.50000075688E+02 0.  0.
         12    1    1    2    0    0 -0.99025232552E+01  0.46885525684E+01 -0.29944539182E+02  0.31886014471E+02  0.00000000000E+00 0. -1.
         11    1    3    3    0    0 -0.42265056027E+01 -0.17475242121E+02  0.10821113758E+02  0.20984373710E+02  0.51100000000E-03 0. -1.
        -11    1    3    3    0    0  0.22138323606E+02  0.77463771686E+01  0.15834189128E+02  0.28298997808E+02  0.51100000000E-03 0.  1.
         12    1    3    3    0    0 -0.80092947484E+01  0.50403123836E+01  0.32892362968E+01  0.10018614011E+02  0.00000000000E+00 0. -1.
</event>
<event>
 7    1  0.7579108E-012  0.5930191E+02  0.7816164E-02  0.1266605E+00
        -11   -1    0    0    0    0  0.00000000000E+00  0.00000000000E+00  0.45593999997E+02  0.45594000000E+02  0.51100000000E-03 0.  1.
         11   -1    0    0    0    0 -0.00000000000E+00 -0.00000000000E+00 -0.45593999997E+02  0.45594000000E+02  0.51100000000E-03 0. -1.
    9900012    2    1    2    0    0 -0.27671655234E+02 -0.34671725786E+01  0.15459010645E+02  0.59301909001E+02  0.49999936119E+02 0.  0.
         12    1    1    2    0    0  0.27671655234E+02  0.34671725786E+01 -0.15459010645E+02  0.31886090999E+02  0.00000000000E+00 0. -1.
         11    1    3    3    0    0 -0.70876439001E+01 -0.23288409084E+02  0.25364771778E+01  0.24474852614E+02  0.51100000000E-03 0. -1.
        -11    1    3    3    0    0 -0.43710671858E+01  0.25583744267E+01  0.96781061585E+01  0.10923243434E+02  0.51100000000E-03 0.  1.
         12    1    3    3    0    0 -0.16212944148E+02  0.17262862079E+02  0.32444273085E+01  0.23903812953E+02  0.00000000000E+00 0. -1.
</event>
<event>
 7    1  0.7579108E-012  0.5930194E+02  0.7816164E-02  0.1266605E+00
        -11   -1    0    0    0    0  0.00000000000E+00  0.00000000000E+00  0.45593999997E+02  0.45594000000E+02  0.51100000000E-03 0. -1.
         11   -1    0    0    0    0 -0.00000000000E+00 -0.00000000000E+00 -0.45593999997E+02  0.45594000000E+02  0.51100000000E-03 0.  1.
    9900012    2    1    2    0    0 -0.54469962930E+01  0.25110649222E+01 -0.31316855613E+02  0.59301942528E+02  0.49999997265E+02 0.  0.
         12    1    1    2    0    0  0.54469962930E+01 -0.25110649222E+01  0.31316855613E+02  0.31886057472E+02  0.00000000000E+00 0. -1.
         11    1    3    3    0    0 -0.95651927814E+01  0.10070515941E+02  0.68605706742E+01  0.15491146972E+02  0.51100000000E-03 0. -1.
        -11    1    3    3    0    0 -0.50766848903E+01 -0.49058001833E+01 -0.31143836377E+02  0.31933965452E+02  0.51100000000E-03 0.  1.
         12    1    3    3    0    0  0.91948813786E+01 -0.26536508352E+01 -0.70335899095E+01  0.11876830105E+02  0.00000000000E+00 0. -1.
</event>
<event>
 7    1  0.7579108E-012  0.5930195E+02  0.7816164E-02  0.1266605E+00
        -11   -1    0    0    0    0  0.00000000000E+00  0.00000000000E+00  0.45593999997E+02  0.45594000000E+02  0.51100000000E-03 0. -1.
         11   -1    0    0    0    0 -0.00000000000E+00 -0.00000000000E+00 -0.45593999997E+02  0.45594000000E+02  0.51100000000E-03 0.  1.
    9900012    2    1    2    0    0 -0.71543761237E+01 -0.12864253352E+02 -0.28285089807E+02  0.59301946349E+02  0.50000004234E+02 0.  0.
         12    1    1    2    0    0  0.71543761237E+01  0.12864253352E+02  0.28285089807E+02  0.31886053651E+02  0.00000000000E+00 0. -1.
         11    1    3    3    0    0 -0.14746563167E+02 -0.42025934189E+01 -0.18378034848E+02  0.23934808999E+02  0.51100000000E-03 0. -1.
        -11    1    3    3    0    0  0.18003226434E+02 -0.15776997299E+01 -0.13166216794E+02  0.22359663759E+02  0.51100000000E-03 0.  1.
        -12    1    3    3    0    0 -0.10411039391E+02 -0.70839602034E+01  0.32591618353E+01  0.13007473591E+02  0.00000000000E+00 0.  1.
</event>
<event>
 7    1  0.7579108E-012  0.5930192E+02  0.7816164E-02  0.1266605E+00
        -11   -1    0    0    0    0  0.00000000000E+00  0.00000000000E+00  0.45593999997E+02  0.45594000000E+02  0.51100000000E-03 0. -1.
         11   -1    0    0    0    0 -0.00000000000E+00 -0.00000000000E+00 -0.45593999997E+02  0.45594000000E+02  0.51100000000E-03 0.  1.
    9900012    2    1    2    0    0  0.21061914884E+02  0.12301396838E+02 -0.20537605526E+02  0.59301923674E+02  0.49999962879E+02 0.  0.
         12    1    1    2    0    0 -0.21061914884E+02 -0.12301396838E+02  0.20537605526E+02  0.31886076326E+02  0.00000000000E+00 0. -1.
         11    1    3    3    0    0  0.23324900467E+02  0.85399637395E+01  0.43786075100E+01  0.25222096789E+02  0.51100000000E-03 0. -1.
        -11    1    3    3    0    0  0.74518934018E+01 -0.38130551721E+01 -0.18238154946E+02  0.20067396471E+02  0.51100000000E-03 0.  1.
         12    1    3    3    0    0 -0.97148789844E+01  0.75744882703E+01 -0.66780580901E+01  0.14012430414E+02  0.00000000000E+00 0. -1.
</event>
<event>
 7    1  0.7579108E-012  0.5930194E+02  0.7816164E-02  0.1266605E+00
        -11   -1    0    0    0    0  0.00000000000E+00  0.00000000000E+00  0.45593999997E+02  0.45594000000E+02  0.51100000000E-03 0.  1.
         11   -1    0    0    0    0 -0.00000000000E+00 -0.00000000000E+00 -0.45593999997E+02  0.45594000000E+02  0.51100000000E-03 0. -1.
    9900012    2    1    2    0    0  0.15687271940E+01 -0.31760881982E+02 -0.23464854684E+01  0.59301944688E+02  0.50000001205E+02 0.  0.
         12    1    1    2    0    0 -0.15687271940E+01  0.31760881982E+02  0.23464854684E+01  0.31886055312E+02  0.00000000000E+00 0. -1.
         11    1    3    3    0    0 -0.65370556572E+01 -0.12946730260E+02 -0.23724349475E+02  0.27806396375E+02  0.51100000000E-03 0. -1.
        -11    1    3    3    0    0  0.45247884183E+01 -0.31203249396E+01  0.11129879244E+02  0.12413071748E+02  0.51100000000E-03 0.  1.
         12    1    3    3    0    0  0.35809944329E+01 -0.15693826782E+02  0.10247984762E+02  0.19082476566E+02  0.00000000000E+00 0. -1.
</event>
<event>
 7    1  0.7579108E-012  0.5930195E+02  0.7816164E-02  0.1266605E+00
        -11   -1    0    0    0    0  0.00000000000E+00  0.00000000000E+00  0.45593999997E+02  0.45594000000E+02  0.51100000000E-03 0.  1.
         11   -1    0    0    0    0 -0.00000000000E+00 -0.00000000000E+00 -0.45593999997E+02  0.45594000000E+02  0.51100000000E-03 0. -1.
    9900012    2    1    2    0    0 -0.18968521942E+02 -0.12681651423E+02  0.22273102941E+02  0.59301949412E+02  0.50000009820E+02 0.  0.
         12    1    1    2    0    0  0.18968521942E+02  0.12681651423E+02 -0.22273102941E+02  0.31886050588E+02  0.00000000000E+00 0. -1.
         11    1    3    3    0    0 -0.44281693149E+01  0.68909838963E+01  0.22101680246E+02  0.23570715146E+02  0.51100000000E-03 0.  1.
        -11    1    3    3    0    0  0.61517097255E+01 -0.12347159489E+02  0.62941408416E+00  0.13809128949E+02  0.51100000000E-03 0. -1.
        -12    1    3    3    0    0 -0.20692062353E+02 -0.72254758306E+01 -0.45799138980E+00  0.21922105316E+02  0.00000000000E+00 0.  1.
</event>
<event>
 7    1  0.7579108E-012  0.5930193E+02  0.7816164E-02  0.1266605E+00
        -11   -1    0    0    0    0  0.00000000000E+00  0.00000000000E+00  0.45593999997E+02  0.45594000000E+02  0.51100000000E-03 0. -1.
         11   -1    0    0    0    0 -0.00000000000E+00 -0.00000000000E+00 -0.45593999997E+02  0.45594000000E+02  0.51100000000E-03 0.  1.
    9900012    2    1    2    0    0 -0.17855065487E+02  0.63256462460E+01 -0.25649646496E+02  0.59301928913E+02  0.49999972435E+02 0.  0.
         12    1    1    2    0    0  0.17855065487E+02 -0.63256462460E+01  0.25649646496E+02  0.31886071087E+02  0.00000000000E+00 0. -1.
         11    1    3    3    0    0 -0.15892915123E+02  0.17552134606E+02 -0.11660689795E+02  0.26393822517E+02  0.51100000000E-03 0. -1.
        -11    1    3    3    0    0  0.10520418376E+02 -0.22115195150E+01  0.17478298522E+01  0.10891507280E+02  0.51100000000E-03 0.  1.
        -12    1    3    3    0    0 -0.12482568740E+02 -0.90149688446E+01 -0.15736786553E+02  0.22016599116E+02  0.00000000000E+00 0.  1.
</event>
<event>
 7    1  0.7579108E-012  0.5930193E+02  0.7816164E-02  0.1266605E+00
        -11   -1    0    0    0    0  0.00000000000E+00  0.00000000000E+00  0.45593999997E+02  0.45594000000E+02  0.51100000000E-03 0.  1.
         11   -1    0    0    0    0 -0.00000000000E+00 -0.00000000000E+00 -0.45593999997E+02  0.45594000000E+02  0.51100000000E-03 0. -1.
    9900012    2    1    2    0    0  0.95394250651E+01  0.73985757302E+00  0.30416660702E+02  0.59301933010E+02  0.49999979907E+02 0.  0.
         12    1    1    2    0    0 -0.95394250651E+01 -0.73985757302E+00 -0.30416660702E+02  0.31886066990E+02  0.00000000000E+00 0. -1.
         11    1    3    3    0    0 -0.45118165355E+01 -0.54800786047E+01 -0.31108835093E+01  0.77501836387E+01  0.51100000000E-03 0. -1.
        -11    1    3    3    0    0 -0.34914980619E+01  0.12510560701E+01  0.33106931448E+02  0.33314030230E+02  0.51100000000E-03 0.  1.
        -12    1    3    3    0    0  0.17542739663E+02  0.49688801076E+01  0.42061276350E+00  0.18237719142E+02  0.00000000000E+00 0.  1.
</event>
<event>
 7    1  0.7579108E-012  0.5930195E+02  0.7816164E-02  0.1266605E+00
        -11   -1    0    0    0    0  0.00000000000E+00  0.00000000000E+00  0.45593999997E+02  0.45594000000E+02  0.51100000000E-03 0.  1.
         11   -1    0    0    0    0 -0.00000000000E+00 -0.00000000000E+00 -0.45593999997E+02  0.45594000000E+02  0.51100000000E-03 0. -1.
    9900012    2    1    2    0    0  0.22419545551E+02  0.22673350588E+02 -0.57867578640E-01  0.59301949786E+02  0.50000010501E+02 0.  0.
         12    1    1    2    0    0 -0.22419545551E+02 -0.22673350588E+02  0.57867578640E-01  0.31886050214E+02  0.00000000000E+00 0. -1.
         11    1    3    3    0    0  0.13522918814E+02 -0.11246502251E+02 -0.63065602431E+01  0.18684909646E+02  0.51100000000E-03 0. -1.
        -11    1    3    3    0    0  0.13155394118E+02  0.30866169592E+02  0.89436586559E+01  0.34724254493E+02  0.51100000000E-03 0.  1.
         12    1    3    3    0    0 -0.42587673810E+01  0.30536832473E+01 -0.26949659914E+01  0.58927856465E+01  0.00000000000E+00 0. -1.
</event>
<event>
 7    1  0.7579108E-012  0.5930191E+02  0.7816164E-02  0.1266605E+00
        -11   -1    0    0    0    0  0.00000000000E+00  0.00000000000E+00  0.45593999997E+02  0.45594000000E+02  0.51100000000E-03 0.  1.
         11   -1    0    0    0    0 -0.00000000000E+00 -0.00000000000E+00 -0.45593999997E+02  0.45594000000E+02  0.51100000000E-03 0. -1.
    9900012    2    1    2    0    0 -0.16737400076E+02  0.22862812571E+01  0.27043578901E+02  0.59301908940E+02  0.49999936009E+02 0.  0.
         12    1    1    2    0    0  0.16737400076E+02 -0.22862812571E+01 -0.27043578901E+02  0.31886091060E+02  0.00000000000E+00 0. -1.
         11    1    3    3    0    0 -0.14118118459E+02  0.19426670597E+02  0.11563674445E+02  0.26653993439E+02  0.51100000000E-03 0. -1.
        -11    1    3    3    0    0  0.69103202410E+01 -0.17071053818E+02  0.64333964347E+01  0.19507998212E+02  0.51100000000E-03 0.  1.
        -12    1    3    3    0    0 -0.95296018580E+01 -0.69335521971E-01  0.90465080212E+01  0.13139917289E+02  0.00000000000E+00 0.  1.
</event>
<event>
 7    1  0.7579108E-012  0.5930195E+02  0.7816164E-02  0.1266605E+00
        -11   -1    0    0    0    0  0.00000000000E+00  0.00000000000E+00  0.45593999997E+02  0.45594000000E+02  0.51100000000E-03 0. -1.
         11   -1    0    0    0    0 -0.00000000000E+00 -0.00000000000E+00 -0.45593999997E+02  0.45594000000E+02  0.51100000000E-03 0.  1.
    9900012    2    1    2    0    0  0.64632566575E+01 -0.18848332224E+02 -0.24893506758E+02  0.59301953005E+02  0.50000016373E+02 0.  0.
         12    1    1    2    0    0 -0.64632566575E+01  0.18848332224E+02  0.24893506758E+02  0.31886046995E+02  0.00000000000E+00 0. -1.
         11    1    3    3    0    0 -0.16861728602E+02 -0.95630828397E+01 -0.23089638137E+02  0.30147998846E+02  0.51100000000E-03 0. -1.
        -11    1    3    3    0    0  0.59202803010E+01 -0.22328544317E+01 -0.72288177091E+01  0.96068290028E+01  0.51100000000E-03 0.  1.
         12    1    3    3    0    0  0.17404704959E+02 -0.70523949522E+01  0.54249490884E+01  0.19547125156E+02  0.00000000000E+00 0. -1.
</event>
<event>
 7    1  0.7579108E-012  0.5930194E+02  0.7816164E-02  0.1266605E+00
        -11   -1    0    0    0    0  0.00000000000E+00  0.00000000000E+00  0.45593999997E+02  0.45594000000E+02  0.51100000000E-03 0. -1.
         11   -1    0    0    0    0 -0.00000000000E+00 -0.00000000000E+00 -0.45593999997E+02  0.45594000000E+02  0.51100000000E-03 0.  1.
    9900012    2    1    2    0    0 -0.67161314100E+00  0.31876474804E+02 -0.40014085419E+00  0.59301939992E+02  0.49999992639E+02 0.  0.
         12    1    1    2    0    0  0.67161314100E+00 -0.31876474804E+02  0.40014085419E+00  0.31886060008E+02  0.00000000000E+00 0. -1.
         11    1    3    3    0    0 -0.16626599625E+02  0.20249415629E+02  0.23377804582E+01  0.26304901941E+02  0.51100000000E-03 0. -1.
        -11    1    3    3    0    0  0.19910235431E+02  0.94319558189E+01  0.62793705437E+01  0.22908726725E+02  0.51100000000E-03 0.  1.
         12    1    3    3    0    0 -0.39552489474E+01  0.21951033567E+01 -0.90172918561E+01  0.10088311326E+02  0.00000000000E+00 0. -1.
</event>
<event>
 7    1  0.7579108E-012  0.5930194E+02  0.7816164E-02  0.1266605E+00
        -11   -1    0    0    0    0  0.00000000000E+00  0.00000000000E+00  0.45593999997E+02  0.45594000000E+02  0.51100000000E-03 0.  1.
         11   -1    0    0    0    0 -0.00000000000E+00 -0.00000000000E+00 -0.45593999997E+02  0.45594000000E+02  0.51100000000E-03 0. -1.
    9900012    2    1    2    0    0  0.52368753044E+01  0.10931018281E+02  0.29492515981E+02  0.59301944702E+02  0.50000001229E+02 0.  0.
         12    1    1    2    0    0 -0.52368753044E+01 -0.10931018281E+02 -0.29492515981E+02  0.31886055298E+02  0.00000000000E+00 0. -1.
         11    1    3    3    0    0 -0.29075226145E+01  0.15520976588E+02 -0.67104348306E+01  0.17157632059E+02  0.51100000000E-03 0. -1.
        -11    1    3    3    0    0 -0.36608311088E+01  0.45923848021E+01  0.15728424426E+02  0.16789133919E+02  0.51100000000E-03 0.  1.
         12    1    3    3    0    0  0.11805229028E+02 -0.91823431089E+01  0.20474526385E+02  0.25355178723E+02  0.00000000000E+00 0. -1.
</event>
<event>
 7    1  0.7579108E-012  0.5930193E+02  0.7816164E-02  0.1266605E+00
        -11   -1    0    0    0    0  0.00000000000E+00  0.00000000000E+00  0.45593999997E+02  0.45594000000E+02  0.51100000000E-03 0.  1.
         11   -1    0    0    0    0 -0.00000000000E+00 -0.00000000000E+00 -0.45593999997E+02  0.45594000000E+02  0.51100000000E-03 0. -1.
    9900012    2    1    2    0    0  0.23300339155E+02 -0.19544887432E+02  0.95819098354E+01  0.59301930540E+02  0.49999975402E+02 0.  0.
         12    1    1    2    0    0 -0.23300339155E+02  0.19544887432E+02 -0.95819098354E+01  0.31886069460E+02  0.00000000000E+00 0. -1.
         11    1    3    3    0    0 -0.78060267552E+01 -0.27225237425E+01 -0.71970471969E+01  0.10961007155E+02  0.51100000000E-03 0. -1.
        -11    1    3    3    0    0  0.94976801375E+01  0.52557715256E+01  0.13427921190E+02  0.17266676868E+02  0.51100000000E-03 0.  1.
        -12    1    3    3    0    0  0.21608685773E+02 -0.22078135215E+02  0.33510358428E+01  0.31074246518E+02  0.00000000000E+00 0.  1.
</event>
<event>
 7    1  0.7579108E-012  0.5930196E+02  0.7816164E-02  0.1266605E+00
        -11   -1    0    0    0    0  0.00000000000E+00  0.00000000000E+00  0.45593999997E+02  0.45594000000E+02  0.51100000000E-03 0. -1.
         11   -1    0    0    0    0 -0.00000000000E+00 -0.00000000000E+00 -0.45593999997E+02  0.45594000000E+02  0.51100000000E-03 0.  1.
    9900012    2    1    2    0    0 -0.28309714100E+01 -0.11745650865E+02 -0.29508384350E+02  0.59301961357E+02  0.50000031604E+02 0.  0.
         12    1    1    2    0    0  0.28309714100E+01  0.11745650865E+02  0.29508384350E+02  0.31886038643E+02  0.00000000000E+00 0. -1.
         11    1    3    3    0    0  0.68520528690E+01 -0.13824092706E+02  0.64523965822E+01  0.16723922673E+02  0.51100000000E-03 0. -1.
        -11    1    3    3    0    0 -0.33904028486E+01 -0.54117711321E+01 -0.30920874365E+02  0.31573447231E+02  0.51100000000E-03 0.  1.
         12    1    3    3    0    0 -0.62926214304E+01  0.74902129726E+01 -0.50399065673E+01  0.11004591453E+02  0.00000000000E+00 0. -1.
</event>
<event>
 7    1  0.7579108E-012  0.5930194E+02  0.7816164E-02  0.1266605E+00
        -11   -1    0    0    0    0  0.00000000000E+00  0.00000000000E+00  0.45593999997E+02  0.45594000000E+02  0.51100000000E-03 0. -1.
         11   -1    0    0    0    0 -0.00000000000E+00 -0.00000000000E+00 -0.45593999997E+02  0.45594000000E+02  0.51100000000E-03 0.  1.
    9900012    2    1    2    0    0 -0.24790767452E+02  0.95577096407E+00  0.20030604860E+02  0.59301940662E+02  0.49999993862E+02 0.  0.
         12    1    1    2    0    0  0.24790767452E+02 -0.95577096407E+00 -0.20030604860E+02  0.31886059338E+02  0.00000000000E+00 0. -1.
         11    1    3    3    0    0 -0.69018034567E+01 -0.11685516971E+01  0.72802725315E+01  0.10099642193E+02  0.51100000000E-03 0. -1.
        -11    1    3    3    0    0  0.98725733955E+01  0.63975671809E+01  0.17123664915E+02  0.20775381385E+02  0.51100000000E-03 0.  1.
        -12    1    3    3    0    0 -0.27761537391E+02 -0.42732445198E+01 -0.43733325864E+01  0.28426917085E+02  0.00000000000E+00 0.  1.
</event>
<event>
 7    1  0.7579108E-012  0.5930225E+02  0.7816164E-02  0.1266604E+00
        -11   -1    0    0    0    0  0.00000000000E+00  0.00000000000E+00  0.45593999997E+02  0.45594000000E+02  0.51100000000E-03 0.  1.
         11   -1    0    0    0    0 -0.00000000000E+00 -0.00000000000E+00 -0.45593999997E+02  0.45594000000E+02  0.51100000000E-03 0. -1.
    9900012    2    1    2    0    0  0.27239089281E+02  0.16269872649E+02  0.31661510424E+01  0.59302246860E+02  0.50000552291E+02 0.  0.
         12    1    1    2    0    0 -0.27239089281E+02 -0.16269872649E+02 -0.31661510424E+01  0.31885753140E+02  0.00000000000E+00 0. -1.
         11    1    3    3    0    0 -0.11753176437E+02  0.10911996022E+02  0.14253181576E+01  0.16100942384E+02  0.51100000000E-03 0. -1.
        -11    1    3    3    0    0  0.29675445230E+02 -0.17372695316E+01 -0.42809538145E+01  0.30032927278E+02  0.51100000000E-03 0.  1.
         12    1    3    3    0    0  0.93168204871E+01  0.70951461589E+01  0.60217866994E+01  0.13168377199E+02  0.00000000000E+00 0. -1.
</event>
<event>
 7    1  0.7579108E-012  0.5930198E+02  0.7816164E-02  0.1266605E+00
        -11   -1    0    0    0    0  0.00000000000E+00  0.00000000000E+00  0.45593999997E+02  0.45594000000E+02  0.51100000000E-03 0. -1.
         11   -1    0    0    0    0 -0.00000000000E+00 -0.00000000000E+00 -0.45593999997E+02  0.45594000000E+02  0.51100000000E-03 0.  1.
    9900012    2    1    2    0    0 -0.22615578962E+02  0.16203663264E+02  0.15578674964E+02  0.59301980672E+02  0.50000066830E+02 0.  0.
         12    1    1    2    0    0  0.22615578962E+02 -0.16203663264E+02 -0.15578674964E+02  0.31886019328E+02  0.00000000000E+00 0. -1.
         11    1    3    3    0    0 -0.22386512654E+02 -0.67788848706E+00  0.15408941738E+02  0.27185491854E+02  0.51100000000E-03 0. -1.
        -11    1    3    3    0    0 -0.30673710632E+01  0.18298601264E+02  0.10493878395E+02  0.21315934356E+02  0.51100000000E-03 0.  1.
         12    1    3    3    0    0  0.28383047548E+01 -0.14170495130E+01 -0.10324145169E+02  0.10800554462E+02  0.00000000000E+00 0. -1.
</event>
<event>
 7    1  0.7579108E-012  0.5930195E+02  0.7816164E-02  0.1266605E+00
        -11   -1    0    0    0    0  0.00000000000E+00  0.00000000000E+00  0.45593999997E+02  0.45594000000E+02  0.51100000000E-03 0.  1.
         11   -1    0    0    0    0 -0.00000000000E+00 -0.00000000000E+00 -0.45593999997E+02  0.45594000000E+02  0.51100000000E-03 0. -1.
    9900012    2    1    2    0    0 -0.39960326317E+01 -0.31561846963E+02  0.21451739274E+01  0.59301949262E+02  0.50000009546E+02 0.  0.
         12    1    1    2    0    0  0.39960326317E+01  0.31561846963E+02 -0.21451739274E+01  0.31886050738E+02  0.00000000000E+00 0. -1.
         11    1    3    3    0    0 -0.11479284482E+02 -0.13541837263E+02 -0.83621187943E+01  0.19623464517E+02  0.51100000000E-03 0. -1.
        -11    1    3    3    0    0  0.57596683394E+01  0.81951473873E+01  0.88303695436E+01  0.13353263519E+02  0.51100000000E-03 0.  1.
         12    1    3    3    0    0  0.17235835110E+01 -0.26215157087E+02  0.16769231780E+01  0.26325221225E+02  0.00000000000E+00 0. -1.
</event>
<event>
 7    1  0.7579108E-012  0.5930193E+02  0.7816164E-02  0.1266605E+00
        -11   -1    0    0    0    0  0.00000000000E+00  0.00000000000E+00  0.45593999997E+02  0.45594000000E+02  0.51100000000E-03 0.  1.
         11   -1    0    0    0    0 -0.00000000000E+00 -0.00000000000E+00 -0.45593999997E+02  0.45594000000E+02  0.51100000000E-03 0. -1.
    9900012    2    1    2    0    0 -0.96411494664E+01  0.96272452389E+01  0.28828554583E+02  0.59301934497E+02  0.49999982619E+02 0.  0.
         12    1    1    2    0    0  0.96411494664E+01 -0.96272452389E+01 -0.28828554583E+02  0.31886065503E+02  0.00000000000E+00 0. -1.
         11    1    3    3    0    0  0.93597411261E+01 -0.93770725923E+01  0.40365521743E+01  0.13850198485E+02  0.51100000000E-03 0. -1.
        -11    1    3    3    0    0 -0.70771574146E+01  0.53937195309E+01  0.25837387990E+02  0.27326708288E+02  0.51100000000E-03 0.  1.
        -12    1    3    3    0    0 -0.11923733178E+02  0.13610598300E+02 -0.10453855819E+01  0.18125027724E+02  0.00000000000E+00 0.  1.
</event>
<event>
 7    1  0.7579108E-012  0.5930195E+02  0.7816164E-02  0.1266605E+00
        -11   -1    0    0    0    0  0.00000000000E+00  0.00000000000E+00  0.45593999997E+02  0.45594000000E+02  0.51100000000E-03 0. -1.
         11   -1    0    0    0    0 -0.00000000000E+00 -0.00000000000E+00 -0.45593999997E+02  0.45594000000E+02  0.51100000000E-03 0.  1.
    9900012    2    1    2    0    0 -0.13667674423E+02 -0.29141030863E+01 -0.28660479794E+02  0.59301946262E+02  0.50000004075E+02 0.  0.
         12    1    1    2    0    0  0.13667674423E+02  0.29141030863E+01  0.28660479794E+02  0.31886053738E+02  0.00000000000E+00 0. -1.
         11    1    3    3    0    0  0.23402878975E+01  0.57720508975E+01  0.54144820080E+00  0.62519345344E+01  0.51100000000E-03 0. -1.
        -11    1    3    3    0    0 -0.15608723993E+02 -0.11260845861E+02  0.40731669660E+01  0.19673067976E+02  0.51100000000E-03 0.  1.
        -12    1    3    3    0    0 -0.39923832730E+00  0.25746918772E+01 -0.33275094961E+02  0.33376943751E+02  0.00000000000E+00 0.  1.
</event>
<event>
 7    1  0.7579108E-012  0.5930192E+02  0.7816164E-02  0.1266605E+00
        -11   -1    0    0    0    0  0.00000000000E+00  0.00000000000E+00  0.45593999997E+02  0.45594000000E+02  0.51100000000E-03 0.  1.
         11   -1    0    0    0    0 -0.00000000000E+00 -0.00000000000E+00 -0.45593999997E+02  0.45594000000E+02  0.51100000000E-03 0. -1.
    9900012    2    1    2    0    0 -0.19352031352E+02 -0.22382089381E+02  0.11885407943E+02  0.59301922090E+02  0.49999959992E+02 0.  0.
         12    1    1    2    0    0  0.19352031352E+02  0.22382089381E+02 -0.11885407943E+02  0.31886077910E+02  0.00000000000E+00 0. -1.
         11    1    3    3    0    0 -0.17612511418E+01 -0.31484465819E+01 -0.10992619211E+02  0.11569459747E+02  0.51100000000E-03 0. -1.
        -11    1    3    3    0    0 -0.17357607344E+02 -0.89780263902E+01  0.29599263486E+02  0.35468406924E+02  0.51100000000E-03 0.  1.
        -12    1    3    3    0    0 -0.23317286628E+00 -0.10255616409E+02 -0.67212363313E+01  0.12264055419E+02  0.00000000000E+00 0.  1.
</event>
<event>
 7    1  0.7579108E-012  0.5930194E+02  0.7816164E-02  0.1266605E+00
        -11   -1    0    0    0    0  0.00000000000E+00  0.00000000000E+00  0.45593999997E+02  0.45594000000E+02  0.51100000000E-03 0.  1.
         11   -1    0    0    0    0 -0.00000000000E+00 -0.00000000000E+00 -0.45593999997E+02  0.45594000000E+02  0.51100000000E-03 0. -1.
    9900012    2    1    2    0    0  0.29434247039E+02 -0.93636759014E+01  0.79162765378E+01  0.59301940987E+02  0.49999994455E+02 0.  0.
         12    1    1    2    0    0 -0.29434247039E+02  0.93636759014E+01 -0.79162765378E+01  0.31886059013E+02  0.00000000000E+00 0. -1.
         11    1    3    3    0    0  0.12683733525E+02  0.49249516389E+01  0.10373939496E+02  0.17109963931E+02  0.51100000000E-03 0. -1.
        -11    1    3    3    0    0  0.21835503633E+02 -0.41208757993E+01 -0.13780242260E+02  0.26147005818E+02  0.51100000000E-03 0.  1.
        -12    1    3    3    0    0 -0.50849901190E+01 -0.10167751741E+02  0.11322579302E+02  0.16044971238E+02  0.00000000000E+00 0.  1.
</event>
<event>
 7    1  0.7579108E-012  0.5930192E+02  0.7816164E-02  0.1266605E+00
        -11   -1    0    0    0    0  0.00000000000E+00  0.00000000000E+00  0.45593999997E+02  0.45594000000E+02  0.51100000000E-03 0.  1.
         11   -1    0    0    0    0 -0.00000000000E+00 -0.00000000000E+00 -0.45593999997E+02  0.45594000000E+02  0.51100000000E-03 0. -1.
    9900012    2    1    2    0    0 -0.31205975916E+02 -0.56822869224E+01 -0.32589705802E+01  0.59301918291E+02  0.49999953061E+02 0.  0.
         12    1    1    2    0    0  0.31205975916E+02  0.56822869224E+01  0.32589705802E+01  0.31886081709E+02  0.00000000000E+00 0. -1.
         11    1    3    3    0    0 -0.21987512375E+02 -0.78448830199E+01 -0.20622345064E+02  0.31149221599E+02  0.51100000000E-03 0. -1.
        -11    1    3    3    0    0  0.58955121087E+01  0.27310331883E+01  0.82248440472E+01  0.10481586958E+02  0.51100000000E-03 0.  1.
        -12    1    3    3    0    0 -0.15113975650E+02 -0.56843709076E+00  0.91385304364E+01  0.17671109733E+02  0.00000000000E+00 0.  1.
</event>
<event>
 7    1  0.7579108E-012  0.5930195E+02  0.7816164E-02  0.1266605E+00
        -11   -1    0    0    0    0  0.00000000000E+00  0.00000000000E+00  0.45593999997E+02  0.45594000000E+02  0.51100000000E-03 0.  1.
         11   -1    0    0    0    0 -0.00000000000E+00 -0.00000000000E+00 -0.45593999997E+02  0.45594000000E+02  0.51100000000E-03 0. -1.
    9900012    2    1    2    0    0 -0.55771265211E+01 -0.19751778070E+02  0.24402519051E+02  0.59301952688E+02  0.50000015795E+02 0.  0.
         12    1    1    2    0    0  0.55771265211E+01  0.19751778070E+02 -0.24402519051E+02  0.31886047312E+02  0.00000000000E+00 0. -1.
         11    1    3    3    0    0 -0.62894184269E+01 -0.48014297621E+01 -0.72369936862E+01  0.10723086766E+02  0.51100000000E-03 0. -1.
        -11    1    3    3    0    0 -0.13492799122E+02 -0.15873788219E+02  0.25877987825E+02  0.33222026349E+02  0.51100000000E-03 0.  1.
        -12    1    3    3    0    0  0.14205091028E+02  0.92343991202E+00  0.57615249125E+01  0.15356839574E+02  0.00000000000E+00 0.  1.
</event>
<event>
 7    1  0.7579108E-012  0.5930195E+02  0.7816164E-02  0.1266605E+00
        -11   -1    0    0    0    0  0.00000000000E+00  0.00000000000E+00  0.45593999997E+02  0.45594000000E+02  0.51100000000E-03 0.  1.
         11   -1    0    0    0    0 -0.00000000000E+00 -0.00000000000E+00 -0.45593999997E+02  0.45594000000E+02  0.51100000000E-03 0. -1.
    9900012    2    1    2    0    0 -0.94781910643E+01  0.91621766038E+01  0.29033402484E+02  0.59301952177E+02  0.50000014863E+02 0.  0.
         12    1    1    2    0    0  0.94781910643E+01 -0.91621766038E+01 -0.29033402484E+02  0.31886047823E+02  0.00000000000E+00 0. -1.
         11    1    3    3    0    0  0.25867981336E+01 -0.18793273962E+01 -0.73664944616E+01  0.80304817390E+01  0.51100000000E-03 0. -1.
        -11    1    3    3    0    0  0.60846173878E+01  0.13436580511E+02  0.26822448147E+02  0.30610586231E+02  0.51100000000E-03 0.  1.
         12    1    3    3    0    0 -0.18149606586E+02 -0.23950765112E+01  0.95774487989E+01  0.20660884207E+02  0.00000000000E+00 0. -1.
</event>
<event>
 7    1  0.7579108E-012  0.5930195E+02  0.7816164E-02  0.1266605E+00
        -11   -1    0    0    0    0  0.00000000000E+00  0.00000000000E+00  0.45593999997E+02  0.45594000000E+02  0.51100000000E-03 0. -1.
         11   -1    0    0    0    0 -0.00000000000E+00 -0.00000000000E+00 -0.45593999997E+02  0.45594000000E+02  0.51100000000E-03 0.  1.
    9900012    2    1    2    0    0  0.27638379652E+02  0.89768119880E+01 -0.13124676561E+02  0.59301947907E+02  0.50000007075E+02 0.  0.
         12    1    1    2    0    0 -0.27638379652E+02 -0.89768119880E+01  0.13124676561E+02  0.31886052093E+02  0.00000000000E+00 0. -1.
         11    1    3    3    0    0  0.13364165007E+02  0.22597487542E+01  0.16257783410E+02  0.21166551265E+02  0.51100000000E-03 0. -1.
        -11    1    3    3    0    0  0.17474822674E+02  0.73031799210E+00 -0.22019964171E+02  0.28120839501E+02  0.51100000000E-03 0.  1.
         12    1    3    3    0    0 -0.32006080287E+01  0.59867452416E+01 -0.73624957996E+01  0.10014557142E+02  0.00000000000E+00 0. -1.
</event>
<event>
 7    1  0.7579108E-012  0.5930195E+02  0.7816164E-02  0.1266605E+00
        -11   -1    0    0    0    0  0.00000000000E+00  0.00000000000E+00  0.45593999997E+02  0.45594000000E+02  0.51100000000E-03 0.  1.
         11   -1    0    0    0    0 -0.00000000000E+00 -0.00000000000E+00 -0.45593999997E+02  0.45594000000E+02  0.51100000000E-03 0. -1.
    9900012    2    1    2    0    0  0.16955231509E+02  0.24669317544E+02  0.10984756223E+02  0.59301953320E+02  0.50000016946E+02 0.  0.
         12    1    1    2    0    0 -0.16955231509E+02 -0.24669317544E+02 -0.10984756223E+02  0.31886046680E+02  0.00000000000E+00 0. -1.
         11    1    3    3    0    0  0.30904129122E+02  0.11328715592E+02  0.57739541260E+01  0.33417712972E+02  0.51100000000E-03 0.  1.
        -11    1    3    3    0    0 -0.86141830210E+01  0.13043109238E+02 -0.31661491810E+01  0.15948396428E+02  0.51100000000E-03 0. -1.
        -12    1    3    3    0    0 -0.53347145916E+01  0.29749271352E+00  0.83769512779E+01  0.99358439200E+01  0.00000000000E+00 0.  1.
</event>
<event>
 7    1  0.7579108E-012  0.5930194E+02  0.7816164E-02  0.1266605E+00
        -11   -1    0    0    0    0  0.00000000000E+00  0.00000000000E+00  0.45593999997E+02  0.45594000000E+02  0.51100000000E-03 0. -1.
         11   -1    0    0    0    0 -0.00000000000E+00 -0.00000000000E+00 -0.45593999997E+02  0.45594000000E+02  0.51100000000E-03 0.  1.
    9900012    2    1    2    0    0  0.27215312585E+02 -0.67528938533E+01 -0.15180444959E+02  0.59301941547E+02  0.49999995476E+02 0.  0.
         12    1    1    2    0    0 -0.27215312585E+02  0.67528938533E+01  0.15180444959E+02  0.31886058453E+02  0.00000000000E+00 0. -1.
         11    1    3    3    0    0  0.20883293570E+02  0.35527618682E+01 -0.23715139156E+01  0.21315678402E+02  0.51100000000E-03 0. -1.
        -11    1    3    3    0    0 -0.68501025060E+01 -0.17996148767E+02 -0.21594459393E+01  0.19376493021E+02  0.51100000000E-03 0.  1.
        -12    1    3    3    0    0  0.13182121521E+02  0.76904930453E+01 -0.10649485104E+02  0.18609770124E+02  0.00000000000E+00 0.  1.
</event>
<event>
 7    1  0.7579108E-012  0.5930193E+02  0.7816164E-02  0.1266605E+00
        -11   -1    0    0    0    0  0.00000000000E+00  0.00000000000E+00  0.45593999997E+02  0.45594000000E+02  0.51100000000E-03 0.  1.
         11   -1    0    0    0    0 -0.00000000000E+00 -0.00000000000E+00 -0.45593999997E+02  0.45594000000E+02  0.51100000000E-03 0. -1.
    9900012    2    1    2    0    0  0.29086719753E+02  0.12142312502E+02  0.48216528112E+01  0.59301931652E+02  0.49999977430E+02 0.  0.
         12    1    1    2    0    0 -0.29086719753E+02 -0.12142312502E+02 -0.48216528112E+01  0.31886068348E+02  0.00000000000E+00 0. -1.
         11    1    3    3    0    0  0.29801499207E+02  0.15365293969E+02 -0.59656431408E+01  0.34055990839E+02  0.51100000000E-03 0. -1.
        -11    1    3    3    0    0  0.10489783707E+02 -0.18268124579E+01  0.87296065029E+01  0.13768763050E+02  0.51100000000E-03 0.  1.
         12    1    3    3    0    0 -0.11204563161E+02 -0.13961690090E+01  0.20576894491E+01  0.11477177763E+02  0.00000000000E+00 0. -1.
</event>
<event>
 7    1  0.7579108E-012  0.5930233E+02  0.7816164E-02  0.1266603E+00
        -11   -1    0    0    0    0  0.00000000000E+00  0.00000000000E+00  0.45593999997E+02  0.45594000000E+02  0.51100000000E-03 0. -1.
         11   -1    0    0    0    0 -0.00000000000E+00 -0.00000000000E+00 -0.45593999997E+02  0.45594000000E+02  0.51100000000E-03 0.  1.
    9900012    2    1    2    0    0 -0.29230297222E+01  0.26039971001E+00 -0.31750338654E+02  0.59302330564E+02  0.50000704944E+02 0.  0.
         12    1    1    2    0    0  0.29230297222E+01 -0.26039971001E+00  0.31750338654E+02  0.31885669436E+02  0.00000000000E+00 0. -1.
         11    1    3    3    0    0  0.19029377854E+02  0.13878107102E+02 -0.18935500716E+02  0.30220394867E+02  0.51100000000E-03 0. -1.
        -11    1    3    3    0    0 -0.10288060755E+02 -0.43652061565E+01 -0.46813319311E+01  0.12116686338E+02  0.51100000000E-03 0.  1.
         12    1    3    3    0    0 -0.11664346821E+02 -0.92525012358E+01 -0.81335060063E+01  0.16965249360E+02  0.00000000000E+00 0. -1.
</event>
<event>
 7    1  0.7579108E-012  0.5930190E+02  0.7816164E-02  0.1266605E+00
        -11   -1    0    0    0    0  0.00000000000E+00  0.00000000000E+00  0.45593999997E+02  0.45594000000E+02  0.51100000000E-03 0.  1.
         11   -1    0    0    0    0 -0.00000000000E+00 -0.00000000000E+00 -0.45593999997E+02  0.45594000000E+02  0.51100000000E-03 0. -1.
    9900012    2    1    2    0    0 -0.12300063603E+01 -0.11584583923E+02  0.29681778548E+02  0.59301898355E+02  0.49999916705E+02 0.  0.
         12    1    1    2    0    0  0.12300063603E+01  0.11584583923E+02 -0.29681778548E+02  0.31886101645E+02  0.00000000000E+00 0. -1.
         11    1    3    3    0    0 -0.88419145081E+01 -0.24377476971E+02  0.23386057349E+02  0.34919171156E+02  0.51100000000E-03 0. -1.
        -11    1    3    3    0    0  0.85938598256E+01  0.24211035838E+01 -0.39567922721E+01  0.97658780768E+01  0.51100000000E-03 0.  1.
        -12    1    3    3    0    0 -0.98195167784E+00  0.10371789464E+02  0.10252513471E+02  0.14616849122E+02  0.00000000000E+00 0.  1.
</event>
<event>
 7    1  0.7579108E-012  0.5930194E+02  0.7816164E-02  0.1266605E+00
        -11   -1    0    0    0    0  0.00000000000E+00  0.00000000000E+00  0.45593999997E+02  0.45594000000E+02  0.51100000000E-03 0. -1.
         11   -1    0    0    0    0 -0.00000000000E+00 -0.00000000000E+00 -0.45593999997E+02  0.45594000000E+02  0.51100000000E-03 0.  1.
    9900012    2    1    2    0    0  0.16698375848E+02  0.15907066132E+02 -0.22019322619E+02  0.59301935999E+02  0.49999985358E+02 0.  0.
         12    1    1    2    0    0 -0.16698375848E+02 -0.15907066132E+02  0.22019322619E+02  0.31886064001E+02  0.00000000000E+00 0. -1.
         11    1    3    3    0    0  0.17849061047E+02  0.30136409438E+02 -0.70170212919E+01  0.35721572503E+02  0.51100000000E-03 0.  1.
        -11    1    3    3    0    0 -0.50336024130E+01 -0.59952474937E+01 -0.27099011201E+01  0.82839429081E+01  0.51100000000E-03 0. -1.
         12    1    3    3    0    0  0.38829172140E+01 -0.82340958124E+01 -0.12292400207E+02  0.15296420588E+02  0.00000000000E+00 0. -1.
</event>
<event>
 7    1  0.7579108E-012  0.5930194E+02  0.7816164E-02  0.1266605E+00
        -11   -1    0    0    0    0  0.00000000000E+00  0.00000000000E+00  0.45593999997E+02  0.45594000000E+02  0.51100000000E-03 0. -1.
         11   -1    0    0    0    0 -0.00000000000E+00 -0.00000000000E+00 -0.45593999997E+02  0.45594000000E+02  0.51100000000E-03 0.  1.
    9900012    2    1    2    0    0 -0.16860528160E+02  0.18078600600E+02 -0.20139698303E+02  0.59301942589E+02  0.49999997376E+02 0.  0.
         12    1    1    2    0    0  0.16860528160E+02 -0.18078600600E+02  0.20139698303E+02  0.31886057411E+02  0.00000000000E+00 0. -1.
         11    1    3    3    0    0 -0.10481263872E+02  0.33285385144E+01  0.97209888496E+01  0.14677659400E+02  0.51100000000E-03 0. -1.
        -11    1    3    3    0    0 -0.46558957815E+00  0.18447789344E+02 -0.32329664751E+02  0.37225595073E+02  0.51100000000E-03 0.  1.
         12    1    3    3    0    0 -0.59136747099E+01 -0.36977272585E+01  0.24689775986E+01  0.73986881159E+01  0.00000000000E+00 0. -1.
</event>
<event>
 7    1  0.7579108E-012  0.5930194E+02  0.7816164E-02  0.1266605E+00
        -11   -1    0    0    0    0  0.00000000000E+00  0.00000000000E+00  0.45593999997E+02  0.45594000000E+02  0.51100000000E-03 0.  1.
         11   -1    0    0    0    0 -0.00000000000E+00 -0.00000000000E+00 -0.45593999997E+02  0.45594000000E+02  0.51100000000E-03 0. -1.
    9900012    2    1    2    0    0 -0.64385792604E+01 -0.30940455229E+02  0.42372049035E+01  0.59301937557E+02  0.49999988200E+02 0.  0.
         12    1    1    2    0    0  0.64385792604E+01  0.30940455229E+02 -0.42372049035E+01  0.31886062443E+02  0.00000000000E+00 0. -1.
         11    1    3    3    0    0  0.67279467073E+01  0.86773855609E+01  0.53176381038E+01  0.12199982063E+02  0.51100000000E-03 0. -1.
        -11    1    3    3    0    0 -0.17406459627E+02 -0.30385703713E+02 -0.64557638946E+01  0.35608323670E+02  0.51100000000E-03 0.  1.
        -12    1    3    3    0    0  0.42399336587E+01 -0.92321370777E+01  0.53753306944E+01  0.11493631825E+02  0.00000000000E+00 0.  1.
</event>
<event>
 7    1  0.7579108E-012  0.5930207E+02  0.7816164E-02  0.1266604E+00
        -11   -1    0    0    0    0  0.00000000000E+00  0.00000000000E+00  0.45593999997E+02  0.45594000000E+02  0.51100000000E-03 0. -1.
         11   -1    0    0    0    0 -0.00000000000E+00 -0.00000000000E+00 -0.45593999997E+02  0.45594000000E+02  0.51100000000E-03 0.  1.
    9900012    2    1    2    0    0 -0.19853363488E+01 -0.31804354570E+02  0.11199293341E+01  0.59302066240E+02  0.50000222886E+02 0.  0.
         12    1    1    2    0    0  0.19853363488E+01  0.31804354570E+02 -0.11199293341E+01  0.31885933760E+02  0.00000000000E+00 0. -1.
         11    1    3    3    0    0 -0.69401342480E+00  0.29373467315E+01  0.49464460057E+01  0.57945654542E+01  0.51100000000E-03 0. -1.
        -11    1    3    3    0    0 -0.21543789179E+01 -0.43898493629E+02 -0.50031208528E+01  0.44235170508E+02  0.51100000000E-03 0.  1.
        -12    1    3    3    0    0  0.86305599390E+00  0.91567923274E+01  0.11766041811E+01  0.92723302775E+01  0.00000000000E+00 0.  1.
</event>
<event>
 7    1  0.7579108E-012  0.5930192E+02  0.7816164E-02  0.1266605E+00
        -11   -1    0    0    0    0  0.00000000000E+00  0.00000000000E+00  0.45593999997E+02  0.45594000000E+02  0.51100000000E-03 0. -1.
         11   -1    0    0    0    0 -0.00000000000E+00 -0.00000000000E+00 -0.45593999997E+02  0.45594000000E+02  0.51100000000E-03 0.  1.
    9900012    2    1    2    0    0 -0.25948520594E+02 -0.65841226978E+01 -0.17321833899E+02  0.59301916479E+02  0.49999949757E+02 0.  0.
         12    1    1    2    0    0  0.25948520594E+02  0.65841226978E+01  0.17321833899E+02  0.31886083521E+02  0.00000000000E+00 0. -1.
         11    1    3    3    0    0  0.19857650809E+01  0.51851726133E+01  0.50059513901E+01  0.74758830627E+01  0.51100000000E-03 0. -1.
        -11    1    3    3    0    0 -0.18530850140E+02  0.88606993632E+01 -0.20596253453E+02  0.29087970996E+02  0.51100000000E-03 0.  1.
        -12    1    3    3    0    0 -0.94034355347E+01 -0.20629994674E+02 -0.17315318366E+01  0.22738062420E+02  0.00000000000E+00 0.  1.
</event>
<event>
 7    1  0.7579108E-012  0.5930194E+02  0.7816164E-02  0.1266605E+00
        -11   -1    0    0    0    0  0.00000000000E+00  0.00000000000E+00  0.45593999997E+02  0.45594000000E+02  0.51100000000E-03 0. -1.
         11   -1    0    0    0    0 -0.00000000000E+00 -0.00000000000E+00 -0.45593999997E+02  0.45594000000E+02  0.51100000000E-03 0.  1.
    9900012    2    1    2    0    0 -0.93848506368E+01 -0.20349728391E+02 -0.22683337717E+02  0.59301942278E+02  0.49999996810E+02 0.  0.
         12    1    1    2    0    0  0.93848506368E+01  0.20349728391E+02  0.22683337717E+02  0.31886057722E+02  0.00000000000E+00 0. -1.
         11    1    3    3    0    0  0.17928576248E+02 -0.12302342758E+02 -0.98199992428E+01  0.23858203390E+02  0.51100000000E-03 0. -1.
        -11    1    3    3    0    0 -0.22550309318E+02 -0.12792026713E+02 -0.12304280679E+02  0.28697521165E+02  0.51100000000E-03 0.  1.
         12    1    3    3    0    0 -0.47631175674E+01  0.47446410805E+01 -0.55905779512E+00  0.67462177227E+01  0.00000000000E+00 0. -1.
</event>
<event>
 7    1  0.7579108E-012  0.5930196E+02  0.7816164E-02  0.1266605E+00
        -11   -1    0    0    0    0  0.00000000000E+00  0.00000000000E+00  0.45593999997E+02  0.45594000000E+02  0.51100000000E-03 0.  1.
         11   -1    0    0    0    0 -0.00000000000E+00 -0.00000000000E+00 -0.45593999997E+02  0.45594000000E+02  0.51100000000E-03 0. -1.
    9900012    2    1    2    0    0  0.14599219859E+02  0.23874686671E+02  0.15283381810E+02  0.59301958482E+02  0.50000026361E+02 0.  0.
         12    1    1    2    0    0 -0.14599219859E+02 -0.23874686671E+02 -0.15283381810E+02  0.31886041518E+02  0.00000000000E+00 0. -1.
         11    1    3    3    0    0 -0.64518322036E+01  0.22418686370E+02 -0.13881093795E+01  0.23369862756E+02  0.51100000000E-03 0. -1.
        -11    1    3    3    0    0  0.19910024592E+02  0.10615753121E+02  0.12605153902E+02  0.25845564392E+02  0.51100000000E-03 0.  1.
         12    1    3    3    0    0  0.11410274706E+01 -0.91597528199E+01  0.40663372875E+01  0.10086531334E+02  0.00000000000E+00 0. -1.
</event>
<event>
 7    1  0.7579108E-012  0.5930172E+02  0.7816164E-02  0.1266606E+00
        -11   -1    0    0    0    0  0.00000000000E+00  0.00000000000E+00  0.45593999997E+02  0.45594000000E+02  0.51100000000E-03 0.  1.
         11   -1    0    0    0    0 -0.00000000000E+00 -0.00000000000E+00 -0.45593999997E+02  0.45594000000E+02  0.51100000000E-03 0. -1.
    9900012    2    1    2    0    0  0.99147146543E+01 -0.55544335813E+01  0.29792308532E+02  0.59301718518E+02  0.49999588723E+02 0.  0.
         12    1    1    2    0    0 -0.99147146543E+01  0.55544335813E+01 -0.29792308532E+02  0.31886281482E+02  0.00000000000E+00 0. -1.
         11    1    3    3    0    0  0.92252497051E+01  0.63737034773E+00 -0.87853337266E+01  0.12755138652E+02  0.51100000000E-03 0. -1.
        -11    1    3    3    0    0 -0.84960462509E+01  0.39781776734E+01  0.27077185522E+02  0.28656285096E+02  0.51100000000E-03 0.  1.
         12    1    3    3    0    0  0.91855112001E+01 -0.10169981602E+02  0.11500456737E+02  0.17890294770E+02  0.00000000000E+00 0. -1.
</event>
<event>
 7    1  0.7579108E-012  0.5930189E+02  0.7816164E-02  0.1266605E+00
        -11   -1    0    0    0    0  0.00000000000E+00  0.00000000000E+00  0.45593999997E+02  0.45594000000E+02  0.51100000000E-03 0.  1.
         11   -1    0    0    0    0 -0.00000000000E+00 -0.00000000000E+00 -0.45593999997E+02  0.45594000000E+02  0.51100000000E-03 0. -1.
    9900012    2    1    2    0    0 -0.58783428191E+01  0.30606290398E+02 -0.67397374615E+01  0.59301890371E+02  0.49999902142E+02 0.  0.
         12    1    1    2    0    0  0.58783428191E+01 -0.30606290398E+02  0.67397374615E+01  0.31886109629E+02  0.00000000000E+00 0. -1.
         11    1    3    3    0    0 -0.78066612010E+01  0.22732927645E+02 -0.10003731281E+02  0.26034680682E+02  0.51100000000E-03 0. -1.
        -11    1    3    3    0    0 -0.28852039564E+00 -0.78508429562E+01  0.12598429036E+02  0.14847201541E+02  0.51100000000E-03 0.  1.
        -12    1    3    3    0    0  0.22168387776E+01  0.15724205710E+02 -0.93344352167E+01  0.18420008148E+02  0.00000000000E+00 0.  1.
</event>
<event>
 7    1  0.1104633E-011  0.5930196E+02  0.7816164E-02  0.1266605E+00
        -11   -1    0    0    0    0  0.00000000000E+00  0.00000000000E+00  0.45593999997E+02  0.45594000000E+02  0.51100000000E-03 0. -1.
         11   -1    0    0    0    0 -0.00000000000E+00 -0.00000000000E+00 -0.45593999997E+02  0.45594000000E+02  0.51100000000E-03 0.  1.
    9900012    2    1    2    0    0 -0.23853867670E+02 -0.12794447505E+02 -0.16852741591E+02  0.59301956205E+02  0.50000022208E+02 0.  0.
         12    1    1    2    0    0  0.23853867670E+02  0.12794447505E+02  0.16852741591E+02  0.31886043795E+02  0.00000000000E+00 0. -1.
         11    1    3    3    0    0  0.49932076616E+01 -0.35493763106E+01  0.68304190184E+01  0.91752285625E+01  0.51100000000E-03 0. -1.
        -11    1    3    3    0    0 -0.21657241595E+02 -0.11071750420E+02 -0.31203303320E+02  0.39563441574E+02  0.51100000000E-03 0.  1.
        -12    1    3    3    0    0 -0.71898337369E+01  0.18266792258E+01  0.75201427111E+01  0.10563286068E+02  0.00000000000E+00 0.  1.
</event>
<event>
 7    1  0.7579108E-012  0.5930191E+02  0.7816164E-02  0.1266605E+00
        -11   -1    0    0    0    0  0.00000000000E+00  0.00000000000E+00  0.45593999997E+02  0.45594000000E+02  0.51100000000E-03 0.  1.
         11   -1    0    0    0    0 -0.00000000000E+00 -0.00000000000E+00 -0.45593999997E+02  0.45594000000E+02  0.51100000000E-03 0. -1.
    9900012    2    1    2    0    0 -0.95246173470E+01  0.72405558423E+01  0.29556367999E+02  0.59301907831E+02  0.49999933986E+02 0.  0.
         12    1    1    2    0    0  0.95246173470E+01 -0.72405558423E+01 -0.29556367999E+02  0.31886092169E+02  0.00000000000E+00 0. -1.
         11    1    3    3    0    0 -0.25194278761E+01  0.76964854995E+00 -0.10540794503E+01  0.28374212697E+01  0.51100000000E-03 0. -1.
        -11    1    3    3    0    0  0.11405337609E+02  0.18149424402E+02  0.26822726620E+02  0.34335724773E+02  0.51100000000E-03 0.  1.
        -12    1    3    3    0    0 -0.18410527080E+02 -0.11678517109E+02  0.37877208297E+01  0.22128761789E+02  0.00000000000E+00 0.  1.
</event>
<event>
 7    1  0.7579108E-012  0.5930191E+02  0.7816164E-02  0.1266605E+00
        -11   -1    0    0    0    0  0.00000000000E+00  0.00000000000E+00  0.45593999997E+02  0.45594000000E+02  0.51100000000E-03 0. -1.
         11   -1    0    0    0    0 -0.00000000000E+00 -0.00000000000E+00 -0.45593999997E+02  0.45594000000E+02  0.51100000000E-03 0.  1.
    9900012    2    1    2    0    0 -0.22046487296E+02 -0.22861436148E+02 -0.28336634161E+01  0.59301913486E+02  0.49999944299E+02 0.  0.
         12    1    1    2    0    0  0.22046487296E+02  0.22861436148E+02  0.28336634161E+01  0.31886086514E+02  0.00000000000E+00 0. -1.
         11    1    3    3    0    0 -0.72668650061E+01 -0.21123572710E+01  0.87560201165E+01  0.11573127010E+02  0.51100000000E-03 0. -1.
        -11    1    3    3    0    0 -0.10452625131E+02 -0.21113389845E+02 -0.24570880972E+02  0.34040575713E+02  0.51100000000E-03 0.  1.
        -12    1    3    3    0    0 -0.43269971591E+01  0.36431096847E+00  0.12981197440E+02  0.13688210762E+02  0.00000000000E+00 0.  1.
</event>
<event>
 7    1  0.7579108E-012  0.5930195E+02  0.7816164E-02  0.1266605E+00
        -11   -1    0    0    0    0  0.00000000000E+00  0.00000000000E+00  0.45593999997E+02  0.45594000000E+02  0.51100000000E-03 0.  1.
         11   -1    0    0    0    0 -0.00000000000E+00 -0.00000000000E+00 -0.45593999997E+02  0.45594000000E+02  0.51100000000E-03 0. -1.
    9900012    2    1    2    0    0  0.20305451135E+02 -0.93821544092E+01  0.22724091470E+02  0.59301945049E+02  0.50000001863E+02 0.  0.
         12    1    1    2    0    0 -0.20305451135E+02  0.93821544092E+01 -0.22724091470E+02  0.31886054951E+02  0.00000000000E+00 0. -1.
         11    1    3    3    0    0  0.13315830739E+02  0.97464128173E+00  0.16593995128E+02  0.21298402486E+02  0.51100000000E-03 0.  1.
        -11    1    3    3    0    0  0.12680653839E+02 -0.19502219667E+02 -0.35375595579E+01  0.23529765864E+02  0.51100000000E-03 0. -1.
        -12    1    3    3    0    0 -0.56910334426E+01  0.91454239760E+01  0.96676559000E+01  0.14473776699E+02  0.00000000000E+00 0.  1.
</event>
<event>
 7    1  0.7579108E-012  0.5930193E+02  0.7816164E-02  0.1266605E+00
        -11   -1    0    0    0    0  0.00000000000E+00  0.00000000000E+00  0.45593999997E+02  0.45594000000E+02  0.51100000000E-03 0.  1.
         11   -1    0    0    0    0 -0.00000000000E+00 -0.00000000000E+00 -0.45593999997E+02  0.45594000000E+02  0.51100000000E-03 0. -1.
    9900012    2    1    2    0    0  0.78104812007E+01 -0.14264461420E+02  0.27427045591E+02  0.59301932415E+02  0.49999978821E+02 0.  0.
         12    1    1    2    0    0 -0.78104812007E+01  0.14264461420E+02 -0.27427045591E+02  0.31886067585E+02  0.00000000000E+00 0. -1.
         11    1    3    3    0    0 -0.13345407616E+02 -0.41275880520E+00  0.65681799328E+01  0.14879894562E+02  0.51100000000E-03 0.  1.
        -11    1    3    3    0    0  0.22385435722E+02 -0.21614424313E+02  0.14586643964E+02  0.34366571741E+02  0.51100000000E-03 0. -1.
         12    1    3    3    0    0 -0.12295469055E+01  0.77627216977E+01  0.62722216939E+01  0.10055466112E+02  0.00000000000E+00 0. -1.
</event>
<event>
 7    1  0.7579108E-012  0.5930179E+02  0.7816164E-02  0.1266605E+00
        -11   -1    0    0    0    0  0.00000000000E+00  0.00000000000E+00  0.45593999997E+02  0.45594000000E+02  0.51100000000E-03 0.  1.
         11   -1    0    0    0    0 -0.00000000000E+00 -0.00000000000E+00 -0.45593999997E+02  0.45594000000E+02  0.51100000000E-03 0. -1.
    9900012    2    1    2    0    0 -0.25065479563E+02 -0.17106731663E+02 -0.97883422294E+01  0.59301793303E+02  0.49999725114E+02 0.  0.
         12    1    1    2    0    0  0.25065479563E+02  0.17106731663E+02  0.97883422294E+01  0.31886206697E+02  0.00000000000E+00 0. -1.
         11    1    3    3    0    0  0.59406591021E+01 -0.96368282390E+01  0.13177988039E+02  0.17372946155E+02  0.51100000000E-03 0. -1.
        -11    1    3    3    0    0 -0.14290492052E+02  0.26534330008E+01 -0.49652812856E+01  0.15359455989E+02  0.51100000000E-03 0.  1.
         12    1    3    3    0    0 -0.16715646613E+02 -0.10123336425E+02 -0.18001048983E+02  0.26569391159E+02  0.00000000000E+00 0. -1.
</event>
<event>
 7    1  0.7579108E-012  0.5930194E+02  0.7816164E-02  0.1266605E+00
        -11   -1    0    0    0    0  0.00000000000E+00  0.00000000000E+00  0.45593999997E+02  0.45594000000E+02  0.51100000000E-03 0. -1.
         11   -1    0    0    0    0 -0.00000000000E+00 -0.00000000000E+00 -0.45593999997E+02  0.45594000000E+02  0.51100000000E-03 0.  1.
    9900012    2    1    2    0    0 -0.31067504888E+01  0.20683508914E+02 -0.24067849280E+02  0.59301940216E+02  0.49999993048E+02 0.  0.
         12    1    1    2    0    0  0.31067504888E+01 -0.20683508914E+02  0.24067849280E+02  0.31886059784E+02  0.00000000000E+00 0. -1.
         11    1    3    3    0    0 -0.44159039504E+01 -0.17542986343E+01 -0.34567229218E+01  0.58759429045E+01  0.51100000000E-03 0. -1.
        -11    1    3    3    0    0  0.12317229686E+02  0.12664218235E+02 -0.30811304107E+02  0.35516658510E+02  0.51100000000E-03 0.  1.
        -12    1    3    3    0    0 -0.11008076225E+02  0.97735893125E+01  0.10200177749E+02  0.17909338802E+02  0.00000000000E+00 0.  1.
</event>
<event>
 7    1  0.7579108E-012  0.5930196E+02  0.7816164E-02  0.1266605E+00
        -11   -1    0    0    0    0  0.00000000000E+00  0.00000000000E+00  0.45593999997E+02  0.45594000000E+02  0.51100000000E-03 0.  1.
         11   -1    0    0    0    0 -0.00000000000E+00 -0.00000000000E+00 -0.45593999997E+02  0.45594000000E+02  0.51100000000E-03 0. -1.
    9900012    2    1    2    0    0 -0.79521885615E+01 -0.15113008255E+02  0.26927292966E+02  0.59301961865E+02  0.50000032532E+02 0.  0.
         12    1    1    2    0    0  0.79521885615E+01  0.15113008255E+02 -0.26927292966E+02  0.31886038135E+02  0.00000000000E+00 0. -1.
         11    1    3    3    0    0  0.57609431483E-01 -0.20784252663E+02  0.47129572900E+01  0.21311978892E+02  0.51100000000E-03 0. -1.
        -11    1    3    3    0    0 -0.19743158823E+01 -0.24802803025E+01  0.26708661561E+02  0.26896139430E+02  0.51100000000E-03 0.  1.
         12    1    3    3    0    0 -0.60354821107E+01  0.81515247107E+01 -0.44943258846E+01  0.11093843544E+02  0.00000000000E+00 0. -1.
</event>
<event>
 7    1  0.7579108E-012  0.5930200E+02  0.7816164E-02  0.1266605E+00
        -11   -1    0    0    0    0  0.00000000000E+00  0.00000000000E+00  0.45593999997E+02  0.45594000000E+02  0.51100000000E-03 0.  1.
         11   -1    0    0    0    0 -0.00000000000E+00 -0.00000000000E+00 -0.45593999997E+02  0.45594000000E+02  0.51100000000E-03 0. -1.
    9900012    2    1    2    0    0 -0.29875707043E+01  0.21790052116E+02  0.23086463785E+02  0.59302003700E+02  0.50000108828E+02 0.  0.
         12    1    1    2    0    0  0.29875707043E+01 -0.21790052116E+02 -0.23086463785E+02  0.31885996300E+02  0.00000000000E+00 0. -1.
         11    1    3    3    0    0 -0.66396487453E+01 -0.52845669983E+01 -0.26616768508E+01  0.88935992567E+01  0.51100000000E-03 0. -1.
        -11    1    3    3    0    0 -0.72710028591E+01  0.30786158809E+02  0.20778612899E+02  0.37847137422E+02  0.51100000000E-03 0.  1.
        -12    1    3    3    0    0  0.10923080900E+02 -0.37115396943E+01  0.49695277370E+01  0.12561267021E+02  0.00000000000E+00 0.  1.
</event>
<event>
 7    1  0.7579108E-012  0.5930196E+02  0.7816164E-02  0.1266605E+00
        -11   -1    0    0    0    0  0.00000000000E+00  0.00000000000E+00  0.45593999997E+02  0.45594000000E+02  0.51100000000E-03 0. -1.
         11   -1    0    0    0    0 -0.00000000000E+00 -0.00000000000E+00 -0.45593999997E+02  0.45594000000E+02  0.51100000000E-03 0.  1.
    9900012    2    1    2    0    0  0.22964212515E+02 -0.20640197729E+02 -0.79590679577E+01  0.59301959458E+02  0.50000028140E+02 0.  0.
         12    1    1    2    0    0 -0.22964212515E+02  0.20640197729E+02  0.79590679577E+01  0.31886040542E+02  0.00000000000E+00 0. -1.
         11    1    3    3    0    0  0.22541747974E+02 -0.35632952111E+01 -0.22477697985E+02  0.32032395812E+02  0.51100000000E-03 0. -1.
        -11    1    3    3    0    0 -0.67064141608E+01 -0.11763246911E+02  0.11830273439E+02  0.17980693499E+02  0.51100000000E-03 0.  1.
         12    1    3    3    0    0  0.71288787021E+01 -0.53136556065E+01  0.26883565884E+01  0.92888701466E+01  0.00000000000E+00 0. -1.
</event>
<event>
 7    1  0.7579108E-012  0.5930196E+02  0.7816164E-02  0.1266605E+00
        -11   -1    0    0    0    0  0.00000000000E+00  0.00000000000E+00  0.45593999997E+02  0.45594000000E+02  0.51100000000E-03 0. -1.
         11   -1    0    0    0    0 -0.00000000000E+00 -0.00000000000E+00 -0.45593999997E+02  0.45594000000E+02  0.51100000000E-03 0.  1.
    9900012    2    1    2    0    0  0.66999290227E+01  0.31015936940E+02  0.31372362330E+01  0.59301958472E+02  0.50000026343E+02 0.  0.
         12    1    1    2    0    0 -0.66999290227E+01 -0.31015936940E+02 -0.31372362330E+01  0.31886041528E+02  0.00000000000E+00 0. -1.
         11    1    3    3    0    0  0.67482184503E+01 -0.11340977538E+01  0.25854694969E+01  0.73150039473E+01  0.51100000000E-03 0. -1.
        -11    1    3    3    0    0 -0.44381546440E+01  0.23306430419E+02 -0.18794156242E+02  0.30267263250E+02  0.51100000000E-03 0.  1.
        -12    1    3    3    0    0  0.43898652164E+01  0.88436042748E+01  0.19345922978E+02  0.21719691275E+02  0.00000000000E+00 0.  1.
</event>
<event>
 7    1  0.7579108E-012  0.5930198E+02  0.7816164E-02  0.1266605E+00
        -11   -1    0    0    0    0  0.00000000000E+00  0.00000000000E+00  0.45593999997E+02  0.45594000000E+02  0.51100000000E-03 0. -1.
         11   -1    0    0    0    0 -0.00000000000E+00 -0.00000000000E+00 -0.45593999997E+02  0.45594000000E+02  0.51100000000E-03 0.  1.
    9900012    2    1    2    0    0 -0.20922114781E+01  0.12125495040E+02 -0.29416205777E+02  0.59301982043E+02  0.50000069331E+02 0.  0.
         12    1    1    2    0    0  0.20922114781E+01 -0.12125495040E+02  0.29416205777E+02  0.31886017957E+02  0.00000000000E+00 0. -1.
         11    1    3    3    0    0  0.13998477095E+02  0.68393442440E+01 -0.20064658235E+02  0.25403238003E+02  0.51100000000E-03 0.  1.
        -11    1    3    3    0    0 -0.16520983386E+02 -0.61263609106E+01 -0.13014004075E+02  0.21905238926E+02  0.51100000000E-03 0. -1.
         12    1    3    3    0    0  0.43029481355E+00  0.11412511706E+02  0.36624565341E+01  0.11993505115E+02  0.00000000000E+00 0. -1.
</event>
<event>
 7    1  0.7579108E-012  0.5930195E+02  0.7816164E-02  0.1266605E+00
        -11   -1    0    0    0    0  0.00000000000E+00  0.00000000000E+00  0.45593999997E+02  0.45594000000E+02  0.51100000000E-03 0. -1.
         11   -1    0    0    0    0 -0.00000000000E+00 -0.00000000000E+00 -0.45593999997E+02  0.45594000000E+02  0.51100000000E-03 0.  1.
    9900012    2    1    2    0    0 -0.19804618821E+02  0.24866965621E+02 -0.24761520452E+01  0.59301949213E+02  0.50000009458E+02 0.  0.
         12    1    1    2    0    0  0.19804618821E+02 -0.24866965621E+02  0.24761520452E+01  0.31886050787E+02  0.00000000000E+00 0. -1.
         11    1    3    3    0    0  0.12404253873E+02  0.91112591949E+01  0.70870070667E+01  0.16944209267E+02  0.51100000000E-03 0. -1.
        -11    1    3    3    0    0 -0.26616321248E+02  0.19047598630E+02 -0.12753086019E+02  0.35126639088E+02  0.51100000000E-03 0.  1.
        -12    1    3    3    0    0 -0.55925514456E+01 -0.32918922043E+01  0.31899269070E+01  0.72311008587E+01  0.00000000000E+00 0.  1.
</event>
<event>
 7    1  0.7579108E-012  0.5930214E+02  0.7816164E-02  0.1266604E+00
        -11   -1    0    0    0    0  0.00000000000E+00  0.00000000000E+00  0.45593999997E+02  0.45594000000E+02  0.51100000000E-03 0.  1.
         11   -1    0    0    0    0 -0.00000000000E+00 -0.00000000000E+00 -0.45593999997E+02  0.45594000000E+02  0.51100000000E-03 0. -1.
    9900012    2    1    2    0    0  0.21906739762E+02 -0.81964184817E+01  0.21670755874E+02  0.59302138195E+02  0.50000354113E+02 0.  0.
         12    1    1    2    0    0 -0.21906739762E+02  0.81964184817E+01 -0.21670755874E+02  0.31885861805E+02  0.00000000000E+00 0. -1.
         11    1    3    3    0    0 -0.10659654709E+02 -0.11245466388E+01 -0.63290141212E+01  0.12447861811E+02  0.51100000000E-03 0. -1.
        -11    1    3    3    0    0  0.20279053425E+02 -0.12719623362E+02  0.16175796299E+02  0.28890919204E+02  0.51100000000E-03 0.  1.
         12    1    3    3    0    0  0.12287341046E+02  0.56477515194E+01  0.11823973696E+02  0.17963357180E+02  0.00000000000E+00 0. -1.
</event>
<event>
 7    1  0.7579108E-012  0.5930194E+02  0.7816164E-02  0.1266605E+00
        -11   -1    0    0    0    0  0.00000000000E+00  0.00000000000E+00  0.45593999997E+02  0.45594000000E+02  0.51100000000E-03 0.  1.
         11   -1    0    0    0    0 -0.00000000000E+00 -0.00000000000E+00 -0.45593999997E+02  0.45594000000E+02  0.51100000000E-03 0. -1.
    9900012    2    1    2    0    0 -0.18761199557E+02  0.25209801830E+02  0.54040651660E+01  0.59301942899E+02  0.49999997942E+02 0.  0.
         12    1    1    2    0    0  0.18761199557E+02 -0.25209801830E+02 -0.54040651660E+01  0.31886057101E+02  0.00000000000E+00 0. -1.
         11    1    3    3    0    0 -0.25203984452E+02  0.28644051765E+02  0.49161360085E+01  0.38469350492E+02  0.51100000000E-03 0. -1.
        -11    1    3    3    0    0  0.19804613054E+01 -0.15589197127E+01  0.99177680480E+01  0.10233014266E+02  0.51100000000E-03 0.  1.
         12    1    3    3    0    0  0.44623235895E+01 -0.18753302227E+01 -0.94298388905E+01  0.10599578141E+02  0.00000000000E+00 0. -1.
</event>
<event>
 7    1  0.7579108E-012  0.5930188E+02  0.7816164E-02  0.1266605E+00
        -11   -1    0    0    0    0  0.00000000000E+00  0.00000000000E+00  0.45593999997E+02  0.45594000000E+02  0.51100000000E-03 0.  1.
         11   -1    0    0    0    0 -0.00000000000E+00 -0.00000000000E+00 -0.45593999997E+02  0.45594000000E+02  0.51100000000E-03 0. -1.
    9900012    2    1    2    0    0 -0.12412097883E+02  0.59465388665E+01  0.28762877371E+02  0.59301880559E+02  0.49999884248E+02 0.  0.
         12    1    1    2    0    0  0.12412097883E+02 -0.59465388665E+01 -0.28762877371E+02  0.31886119441E+02  0.00000000000E+00 0. -1.
         11    1    3    3    0    0 -0.22382880814E+02 -0.49062825102E+01  0.96586858795E-01  0.22914499577E+02  0.51100000000E-03 0. -1.
        -11    1    3    3    0    0 -0.39720509841E+01  0.26867918781E+01  0.13103117321E+02  0.13953054268E+02  0.51100000000E-03 0.  1.
         12    1    3    3    0    0  0.13942833914E+02  0.81660294987E+01  0.15563173191E+02  0.22434326714E+02  0.00000000000E+00 0. -1.
</event>
<event>
 7    1  0.7579108E-012  0.5930203E+02  0.7816164E-02  0.1266604E+00
        -11   -1    0    0    0    0  0.00000000000E+00  0.00000000000E+00  0.45593999997E+02  0.45594000000E+02  0.51100000000E-03 0. -1.
         11   -1    0    0    0    0 -0.00000000000E+00 -0.00000000000E+00 -0.45593999997E+02  0.45594000000E+02  0.51100000000E-03 0.  1.
    9900012    2    1    2    0    0 -0.41806456404E+01  0.67367302064E+01 -0.30884522178E+02  0.59302030640E+02  0.50000157960E+02 0.  0.
         12    1    1    2    0    0  0.41806456404E+01 -0.67367302064E+01  0.30884522178E+02  0.31885969360E+02  0.00000000000E+00 0. -1.
         11    1    3    3    0    0 -0.25351221479E+01 -0.13340262506E+02  0.47723656748E+01  0.14393224879E+02  0.51100000000E-03 0. -1.
        -11    1    3    3    0    0  0.72204061685E+01  0.26474119451E+01 -0.11396077343E+02  0.13748222951E+02  0.51100000000E-03 0.  1.
         12    1    3    3    0    0 -0.88659296610E+01  0.17429580767E+02 -0.24260810510E+02  0.31160582810E+02  0.00000000000E+00 0. -1.
</event>
<event>
 7    1  0.7579108E-012  0.5930194E+02  0.7816164E-02  0.1266605E+00
        -11   -1    0    0    0    0  0.00000000000E+00  0.00000000000E+00  0.45593999997E+02  0.45594000000E+02  0.51100000000E-03 0.  1.
         11   -1    0    0    0    0 -0.00000000000E+00 -0.00000000000E+00 -0.45593999997E+02  0.45594000000E+02  0.51100000000E-03 0. -1.
    9900012    2    1    2    0    0  0.11059418766E+02  0.12711804855E+01  0.29879663355E+02  0.59301938382E+02  0.49999989704E+02 0.  0.
         12    1    1    2    0    0 -0.11059418766E+02 -0.12711804855E+01 -0.29879663355E+02  0.31886061618E+02  0.00000000000E+00 0. -1.
         11    1    3    3    0    0  0.40924340724E+01 -0.13487846847E+02  0.15833161707E+02  0.21198090459E+02  0.51100000000E-03 0. -1.
        -11    1    3    3    0    0 -0.20898146976E+01  0.21803819679E+02  0.15065436560E+02  0.26584605641E+02  0.51100000000E-03 0.  1.
        -12    1    3    3    0    0  0.90567993915E+01 -0.70447923463E+01 -0.10189349115E+01  0.11519242283E+02  0.00000000000E+00 0.  1.
</event>
<event>
 7    1  0.7579108E-012  0.5930201E+02  0.7816164E-02  0.1266605E+00
        -11   -1    0    0    0    0  0.00000000000E+00  0.00000000000E+00  0.45593999997E+02  0.45594000000E+02  0.51100000000E-03 0.  1.
         11   -1    0    0    0    0 -0.00000000000E+00 -0.00000000000E+00 -0.45593999997E+02  0.45594000000E+02  0.51100000000E-03 0. -1.
    9900012    2    1    2    0    0 -0.16088563400E+02 -0.53585915619E+01  0.27002967919E+02  0.59302005391E+02  0.50000111911E+02 0.  0.
         12    1    1    2    0    0  0.16088563400E+02  0.53585915619E+01 -0.27002967919E+02  0.31885994609E+02  0.00000000000E+00 0. -1.
         11    1    3    3    0    0  0.71785361261E+01  0.10681845402E+02  0.71377282555E+01  0.14716669699E+02  0.51100000000E-03 0. -1.
        -11    1    3    3    0    0 -0.24512830281E+02 -0.11366546316E+02  0.25504453004E+02  0.37155811750E+02  0.51100000000E-03 0.  1.
         12    1    3    3    0    0  0.12457307547E+01 -0.46738906483E+01 -0.56392133404E+01  0.74295239420E+01  0.00000000000E+00 0. -1.
</event>
<event>
 7    1  0.7579108E-012  0.5930194E+02  0.7816164E-02  0.1266605E+00
        -11   -1    0    0    0    0  0.00000000000E+00  0.00000000000E+00  0.45593999997E+02  0.45594000000E+02  0.51100000000E-03 0.  1.
         11   -1    0    0    0    0 -0.00000000000E+00 -0.00000000000E+00 -0.45593999997E+02  0.45594000000E+02  0.51100000000E-03 0. -1.
    9900012    2    1    2    0    0 -0.18517714443E+02  0.36606180905E+01  0.25698539611E+02  0.59301940176E+02  0.49999992975E+02 0.  0.
         12    1    1    2    0    0  0.18517714443E+02 -0.36606180905E+01 -0.25698539611E+02  0.31886059824E+02  0.00000000000E+00 0. -1.
         11    1    3    3    0    0 -0.98961051832E+01  0.68118995239E+01 -0.12421726837E+02  0.17281035004E+02  0.51100000000E-03 0. -1.
        -11    1    3    3    0    0 -0.51135393319E+01  0.50324868247E+01  0.26061963824E+02  0.27031466234E+02  0.51100000000E-03 0.  1.
        -12    1    3    3    0    0 -0.35080699274E+01 -0.81837682581E+01  0.12058302624E+02  0.14989438939E+02  0.00000000000E+00 0.  1.
</event>
<event>
 7    1  0.7579108E-012  0.5930192E+02  0.7816164E-02  0.1266605E+00
        -11   -1    0    0    0    0  0.00000000000E+00  0.00000000000E+00  0.45593999997E+02  0.45594000000E+02  0.51100000000E-03 0.  1.
         11   -1    0    0    0    0 -0.00000000000E+00 -0.00000000000E+00 -0.45593999997E+02  0.45594000000E+02  0.51100000000E-03 0. -1.
    9900012    2    1    2    0    0  0.67126689732E+01  0.31143013322E+02  0.13321668651E+01  0.59301923539E+02  0.49999962634E+02 0.  0.
         12    1    1    2    0    0 -0.67126689732E+01 -0.31143013322E+02 -0.13321668651E+01  0.31886076461E+02  0.00000000000E+00 0. -1.
         11    1    3    3    0    0  0.16452638599E+01  0.96083857501E+01 -0.19650999211E+02  0.21936037476E+02  0.51100000000E-03 0. -1.
        -11    1    3    3    0    0  0.13169596063E+02  0.91563998442E+01  0.12287392870E+02  0.20205393893E+02  0.51100000000E-03 0.  1.
         12    1    3    3    0    0 -0.81021909500E+01  0.12378227728E+02  0.86957732060E+01  0.17160492170E+02  0.00000000000E+00 0. -1.
</event>
<event>
 7    1  0.7579108E-012  0.5930213E+02  0.7816164E-02  0.1266604E+00
        -11   -1    0    0    0    0  0.00000000000E+00  0.00000000000E+00  0.45593999997E+02  0.45594000000E+02  0.51100000000E-03 0.  1.
         11   -1    0    0    0    0 -0.00000000000E+00 -0.00000000000E+00 -0.45593999997E+02  0.45594000000E+02  0.51100000000E-03 0. -1.
    9900012    2    1    2    0    0  0.61883558807E+01 -0.31007714467E+02 -0.41151854273E+01  0.59302127641E+02  0.50000334865E+02 0.  0.
         12    1    1    2    0    0 -0.61883558807E+01  0.31007714467E+02  0.41151854273E+01  0.31885872359E+02  0.00000000000E+00 0. -1.
         11    1    3    3    0    0  0.16194558930E+02 -0.20578765502E+02  0.58418043700E+01  0.26830505159E+02  0.51100000000E-03 0. -1.
        -11    1    3    3    0    0 -0.18269766352E+02 -0.12587849208E+01 -0.39096658744E+01  0.18725768063E+02  0.51100000000E-03 0.  1.
         12    1    3    3    0    0  0.82635633035E+01 -0.91701640442E+01 -0.60473239229E+01  0.13745854419E+02  0.00000000000E+00 0. -1.
</event>
<event>
 7    1  0.7579108E-012  0.5930195E+02  0.7816164E-02  0.1266605E+00
        -11   -1    0    0    0    0  0.00000000000E+00  0.00000000000E+00  0.45593999997E+02  0.45594000000E+02  0.51100000000E-03 0.  1.
         11   -1    0    0    0    0 -0.00000000000E+00 -0.00000000000E+00 -0.45593999997E+02  0.45594000000E+02  0.51100000000E-03 0. -1.
    9900012    2    1    2    0    0  0.11361852058E+01  0.87534613401E+01  0.30639941254E+02  0.59301952859E+02  0.50000016106E+02 0.  0.
         12    1    1    2    0    0 -0.11361852058E+01 -0.87534613401E+01 -0.30639941254E+02  0.31886047141E+02  0.00000000000E+00 0. -1.
         11    1    3    3    0    0 -0.10215444914E+02 -0.39096734857E+01  0.70474853775E+01  0.13011837378E+02  0.51100000000E-03 0. -1.
        -11    1    3    3    0    0  0.12689200541E+02 -0.56412985398E+01  0.24228367264E+02  0.27925863283E+02  0.51100000000E-03 0.  1.
        -12    1    3    3    0    0 -0.13375704209E+01  0.18304433366E+02 -0.63591138747E+00  0.18364252197E+02  0.00000000000E+00 0.  1.
</event>
<event>
 7    1  0.7579108E-012  0.5930196E+02  0.7816164E-02  0.1266605E+00
        -11   -1    0    0    0    0  0.00000000000E+00  0.00000000000E+00  0.45593999997E+02  0.45594000000E+02  0.51100000000E-03 0.  1.
         11   -1    0    0    0    0 -0.00000000000E+00 -0.00000000000E+00 -0.45593999997E+02  0.45594000000E+02  0.51100000000E-03 0. -1.
    9900012    2    1    2    0    0 -0.15493241956E+02  0.23867235322E+02  0.14388670729E+02  0.59301963658E+02  0.50000035802E+02 0.  0.
         12    1    1    2    0    0  0.15493241956E+02 -0.23867235322E+02 -0.14388670729E+02  0.31886036342E+02  0.00000000000E+00 0. -1.
         11    1    3    3    0    0  0.17909198962E+00  0.40218138643E+01 -0.65698299091E+01  0.77051752735E+01  0.51100000000E-03 0. -1.
        -11    1    3    3    0    0 -0.18728186113E+02  0.10028082791E+02  0.30765707915E+02  0.37387647470E+02  0.51100000000E-03 0.  1.
        -12    1    3    3    0    0  0.30558521665E+01  0.98173386663E+01 -0.98072072777E+01  0.14209140915E+02  0.00000000000E+00 0.  1.
</event>
<event>
 7    1  0.7579108E-012  0.5930193E+02  0.7816164E-02  0.1266605E+00
        -11   -1    0    0    0    0  0.00000000000E+00  0.00000000000E+00  0.45593999997E+02  0.45594000000E+02  0.51100000000E-03 0.  1.
         11   -1    0    0    0    0 -0.00000000000E+00 -0.00000000000E+00 -0.45593999997E+02  0.45594000000E+02  0.51100000000E-03 0. -1.
    9900012    2    1    2    0    0 -0.10910296236E+02 -0.91402453376E+01  0.28533192643E+02  0.59301925748E+02  0.49999966663E+02 0.  0.
         12    1    1    2    0    0  0.10910296236E+02  0.91402453376E+01 -0.28533192643E+02  0.31886074252E+02  0.00000000000E+00 0. -1.
         11    1    3    3    0    0 -0.58827508200E+01  0.16303429328E+02  0.25221115617E-01  0.17332316678E+02  0.51100000000E-03 0. -1.
        -11    1    3    3    0    0  0.21229181565E+00 -0.13332515023E+02  0.36477440653E+01  0.13824147774E+02  0.51100000000E-03 0.  1.
         12    1    3    3    0    0 -0.52398372313E+01 -0.12111159643E+02  0.24860227462E+02  0.28145461296E+02  0.00000000000E+00 0. -1.
</event>
<event>
 7    1  0.7579108E-012  0.5930185E+02  0.7816164E-02  0.1266605E+00
        -11   -1    0    0    0    0  0.00000000000E+00  0.00000000000E+00  0.45593999997E+02  0.45594000000E+02  0.51100000000E-03 0. -1.
         11   -1    0    0    0    0 -0.00000000000E+00 -0.00000000000E+00 -0.45593999997E+02  0.45594000000E+02  0.51100000000E-03 0.  1.
    9900012    2    1    2    0    0 -0.29566587427E+02  0.68908986280E+01 -0.97498194614E+01  0.59301850099E+02  0.49999828696E+02 0.  0.
         12    1    1    2    0    0  0.29566587427E+02 -0.68908986280E+01  0.97498194614E+01  0.31886149901E+02  0.00000000000E+00 0. -1.
         11    1    3    3    0    0 -0.15666823271E+02 -0.18198475802E+02 -0.63547147690E+01  0.24839812257E+02  0.51100000000E-03 0. -1.
        -11    1    3    3    0    0 -0.16281512626E+02  0.13476148367E+02 -0.66707321120E+01  0.22162872002E+02  0.51100000000E-03 0.  1.
         12    1    3    3    0    0  0.23817484695E+01  0.11613226063E+02  0.32756274196E+01  0.12299165839E+02  0.00000000000E+00 0. -1.
</event>
<event>
 7    1  0.7579108E-012  0.5930195E+02  0.7816164E-02  0.1266605E+00
        -11   -1    0    0    0    0  0.00000000000E+00  0.00000000000E+00  0.45593999997E+02  0.45594000000E+02  0.51100000000E-03 0.  1.
         11   -1    0    0    0    0 -0.00000000000E+00 -0.00000000000E+00 -0.45593999997E+02  0.45594000000E+02  0.51100000000E-03 0. -1.
    9900012    2    1    2    0    0  0.93177274002E+01 -0.15017497296E+02  0.26540060667E+02  0.59301951497E+02  0.50000013622E+02 0.  0.
         12    1    1    2    0    0 -0.93177274002E+01  0.15017497296E+02 -0.26540060667E+02  0.31886048503E+02  0.00000000000E+00 0. -1.
         11    1    3    3    0    0 -0.10007914450E+02  0.10458405603E+02 -0.59783053734E+00  0.14487718972E+02  0.51100000000E-03 0. -1.
        -11    1    3    3    0    0  0.11926697774E+02 -0.24823491337E+02  0.17435846339E+02  0.32595407342E+02  0.51100000000E-03 0.  1.
        -12    1    3    3    0    0  0.73989440763E+01 -0.65241156249E+00  0.97020448647E+01  0.12218825183E+02  0.00000000000E+00 0.  1.
</event>
<event>
 7    1  0.7579108E-012  0.5930195E+02  0.7816164E-02  0.1266605E+00
        -11   -1    0    0    0    0  0.00000000000E+00  0.00000000000E+00  0.45593999997E+02  0.45594000000E+02  0.51100000000E-03 0. -1.
         11   -1    0    0    0    0 -0.00000000000E+00 -0.00000000000E+00 -0.45593999997E+02  0.45594000000E+02  0.51100000000E-03 0.  1.
    9900012    2    1    2    0    0 -0.23484213620E+02 -0.10176090987E+02 -0.19017330762E+02  0.59301953108E+02  0.50000016560E+02 0.  0.
         12    1    1    2    0    0  0.23484213620E+02  0.10176090987E+02  0.19017330762E+02  0.31886046892E+02  0.00000000000E+00 0. -1.
         11    1    3    3    0    0  0.13170804891E+01  0.12853955945E+02 -0.28036804225E+01  0.13221932863E+02  0.51100000000E-03 0. -1.
        -11    1    3    3    0    0 -0.25208847842E+02 -0.21679443033E+02 -0.22167699515E+02  0.39961120627E+02  0.51100000000E-03 0.  1.
        -12    1    3    3    0    0  0.40755373306E+00 -0.13506038988E+01  0.59540491764E+01  0.61188996177E+01  0.00000000000E+00 0.  1.
</event>
<event>
 7    1  0.7579108E-012  0.5930210E+02  0.7816164E-02  0.1266604E+00
        -11   -1    0    0    0    0  0.00000000000E+00  0.00000000000E+00  0.45593999997E+02  0.45594000000E+02  0.51100000000E-03 0. -1.
         11   -1    0    0    0    0 -0.00000000000E+00 -0.00000000000E+00 -0.45593999997E+02  0.45594000000E+02  0.51100000000E-03 0.  1.
    9900012    2    1    2    0    0 -0.31049221384E+02 -0.44162767764E+01  0.57578816589E+01  0.59302096369E+02  0.50000277834E+02 0.  0.
         12    1    1    2    0    0  0.31049221384E+02  0.44162767764E+01 -0.57578816589E+01  0.31885903631E+02  0.00000000000E+00 0. -1.
         11    1    3    3    0    0  0.51522002545E+01  0.74115955711E+01  0.12803736853E+02  0.15665650131E+02  0.51100000000E-03 0. -1.
        -11    1    3    3    0    0 -0.11643820480E+02 -0.24157277448E+01 -0.11977845521E+02  0.16878479774E+02  0.51100000000E-03 0.  1.
         12    1    3    3    0    0 -0.24557601159E+02 -0.94121446026E+01  0.49319903265E+01  0.26757966464E+02  0.00000000000E+00 0. -1.
</event>
<event>
 7    1  0.8035651E-012  0.5930195E+02  0.7816164E-02  0.1266605E+00
        -11   -1    0    0    0    0  0.00000000000E+00  0.00000000000E+00  0.45593999997E+02  0.45594000000E+02  0.51100000000E-03 0.  1.
         11   -1    0    0    0    0 -0.00000000000E+00 -0.00000000000E+00 -0.45593999997E+02  0.45594000000E+02  0.51100000000E-03 0. -1.
    9900012    2    1    2    0    0  0.16766043303E+02  0.26891761713E+02  0.35289398279E+01  0.59301945487E+02  0.50000002662E+02 0.  0.
         12    1    1    2    0    0 -0.16766043303E+02 -0.26891761713E+02 -0.35289398279E+01  0.31886054513E+02  0.00000000000E+00 0. -1.
         11    1    3    3    0    0 -0.33679321869E+01 -0.68954733442E+01  0.13117187677E+02  0.15197076451E+02  0.51100000000E-03 0. -1.
        -11    1    3    3    0    0  0.13982976343E+02  0.12712705375E+02 -0.11410258005E+02  0.22075563262E+02  0.51100000000E-03 0.  1.
        -12    1    3    3    0    0  0.61509991469E+01  0.21074529683E+02  0.18220101560E+01  0.22029305774E+02  0.00000000000E+00 0.  1.
</event>
<event>
 7    1  0.7579108E-012  0.5930192E+02  0.7816164E-02  0.1266605E+00
        -11   -1    0    0    0    0  0.00000000000E+00  0.00000000000E+00  0.45593999997E+02  0.45594000000E+02  0.51100000000E-03 0. -1.
         11   -1    0    0    0    0 -0.00000000000E+00 -0.00000000000E+00 -0.45593999997E+02  0.45594000000E+02  0.51100000000E-03 0.  1.
    9900012    2    1    2    0    0  0.40784484566E+01 -0.21552290066E+02 -0.23142751585E+02  0.59301923104E+02  0.49999961841E+02 0.  0.
         12    1    1    2    0    0 -0.40784484566E+01  0.21552290066E+02  0.23142751585E+02  0.31886076896E+02  0.00000000000E+00 0. -1.
         11    1    3    3    0    0 -0.10731737643E+02 -0.14090626092E+02  0.85692010966E+01  0.19676055097E+02  0.51100000000E-03 0. -1.
        -11    1    3    3    0    0  0.10836647677E+02  0.39236187186E+01 -0.13091602405E+02  0.17441839654E+02  0.51100000000E-03 0.  1.
         12    1    3    3    0    0  0.39735384227E+01 -0.11385282693E+02 -0.18620350276E+02  0.22184028354E+02  0.00000000000E+00 0. -1.
</event>
<event>
 7    1  0.7579108E-012  0.5930194E+02  0.7816164E-02  0.1266605E+00
        -11   -1    0    0    0    0  0.00000000000E+00  0.00000000000E+00  0.45593999997E+02  0.45594000000E+02  0.51100000000E-03 0. -1.
         11   -1    0    0    0    0 -0.00000000000E+00 -0.00000000000E+00 -0.45593999997E+02  0.45594000000E+02  0.51100000000E-03 0.  1.
    9900012    2    1    2    0    0 -0.73577329018E+01 -0.29083867061E+02  0.10803379688E+02  0.59301943967E+02  0.49999999889E+02 0.  0.
         12    1    1    2    0    0  0.73577329018E+01  0.29083867061E+02 -0.10803379688E+02  0.31886056033E+02  0.00000000000E+00 0. -1.
         11    1    3    3    0    0  0.29434566749E+01 -0.88106524567E+01  0.80300673314E+01  0.12278986746E+02  0.51100000000E-03 0.  1.
        -11    1    3    3    0    0 -0.22598059956E+02 -0.25051949647E+02  0.24305233676E+01  0.33825728950E+02  0.51100000000E-03 0. -1.
        -12    1    3    3    0    0  0.12296870379E+02  0.47787350422E+01  0.34278898911E+00  0.13197228271E+02  0.00000000000E+00 0.  1.
</event>
<event>
 7    1  0.7579108E-012  0.5930196E+02  0.7816164E-02  0.1266605E+00
        -11   -1    0    0    0    0  0.00000000000E+00  0.00000000000E+00  0.45593999997E+02  0.45594000000E+02  0.51100000000E-03 0. -1.
         11   -1    0    0    0    0 -0.00000000000E+00 -0.00000000000E+00 -0.45593999997E+02  0.45594000000E+02  0.51100000000E-03 0.  1.
    9900012    2    1    2    0    0 -0.21664283817E+02 -0.19091444804E+02  0.13523881067E+02  0.59301955763E+02  0.50000021402E+02 0.  0.
         12    1    1    2    0    0  0.21664283817E+02  0.19091444804E+02 -0.13523881067E+02  0.31886044237E+02  0.00000000000E+00 0. -1.
         11    1    3    3    0    0 -0.71151010948E+01  0.14763044657E+02  0.69191717803E+01  0.17788959765E+02  0.51100000000E-03 0.  1.
        -11    1    3    3    0    0 -0.11901893869E+02 -0.25503769785E+02  0.12663146059E+02  0.30861831107E+02  0.51100000000E-03 0. -1.
        -12    1    3    3    0    0 -0.26472888524E+01 -0.83507196766E+01 -0.60584367725E+01  0.10651164890E+02  0.00000000000E+00 0.  1.
</event>
<event>
 7    1  0.7579108E-012  0.5930193E+02  0.7816164E-02  0.1266605E+00
        -11   -1    0    0    0    0  0.00000000000E+00  0.00000000000E+00  0.45593999997E+02  0.45594000000E+02  0.51100000000E-03 0.  1.
         11   -1    0    0    0    0 -0.00000000000E+00 -0.00000000000E+00 -0.45593999997E+02  0.45594000000E+02  0.51100000000E-03 0. -1.
    9900012    2    1    2    0    0 -0.11058096916E+02 -0.17451487005E+02  0.24287558908E+02  0.59301930568E+02  0.49999975453E+02 0.  0.
         12    1    1    2    0    0  0.11058096916E+02  0.17451487005E+02 -0.24287558908E+02  0.31886069432E+02  0.00000000000E+00 0. -1.
         11    1    3    3    0    0  0.77609309587E+00 -0.23166054056E+02  0.27395735377E+02  0.35885856519E+02  0.51100000000E-03 0. -1.
        -11    1    3    3    0    0 -0.76530893164E+01  0.63897014719E+01  0.71826895579E+01  0.12287761819E+02  0.51100000000E-03 0.  1.
         12    1    3    3    0    0 -0.41811006950E+01 -0.67513442062E+00 -0.10290866026E+02  0.11128312229E+02  0.00000000000E+00 0. -1.
</event>
<event>
 7    1  0.7579108E-012  0.5930197E+02  0.7816164E-02  0.1266605E+00
        -11   -1    0    0    0    0  0.00000000000E+00  0.00000000000E+00  0.45593999997E+02  0.45594000000E+02  0.51100000000E-03 0.  1.
         11   -1    0    0    0    0 -0.00000000000E+00 -0.00000000000E+00 -0.45593999997E+02  0.45594000000E+02  0.51100000000E-03 0. -1.
    9900012    2    1    2    0    0  0.16619542736E+02  0.13715947808E+02  0.23502823351E+02  0.59301966529E+02  0.50000041037E+02 0.  0.
         12    1    1    2    0    0 -0.16619542736E+02 -0.13715947808E+02 -0.23502823351E+02  0.31886033471E+02  0.00000000000E+00 0. -1.
         11    1    3    3    0    0  0.51499984006E+01  0.14552157938E+02 -0.78437008097E+01  0.17315063582E+02  0.51100000000E-03 0. -1.
        -11    1    3    3    0    0  0.17002507360E+02  0.41303023813E+01  0.29544024490E+02  0.34336482604E+02  0.51100000000E-03 0.  1.
         12    1    3    3    0    0 -0.55329630252E+01 -0.49665125114E+01  0.18024996713E+01  0.76504203433E+01  0.00000000000E+00 0. -1.
</event>
<event>
 7    1  0.7579108E-012  0.5930198E+02  0.7816164E-02  0.1266605E+00
        -11   -1    0    0    0    0  0.00000000000E+00  0.00000000000E+00  0.45593999997E+02  0.45594000000E+02  0.51100000000E-03 0. -1.
         11   -1    0    0    0    0 -0.00000000000E+00 -0.00000000000E+00 -0.45593999997E+02  0.45594000000E+02  0.51100000000E-03 0.  1.
    9900012    2    1    2    0    0  0.27768114204E+02 -0.57796588205E+01 -0.14568653644E+02  0.59301979685E+02  0.50000065030E+02 0.  0.
         12    1    1    2    0    0 -0.27768114204E+02  0.57796588205E+01  0.14568653644E+02  0.31886020315E+02  0.00000000000E+00 0. -1.
         11    1    3    3    0    0  0.27901591349E+02  0.35694947400E+01  0.51124404091E+01  0.28589808319E+02  0.51100000000E-03 0. -1.
        -11    1    3    3    0    0  0.18280935072E+01 -0.96198337802E+00 -0.21754723709E+02  0.21852582039E+02  0.51100000000E-03 0.  1.
        -12    1    3    3    0    0 -0.19615706517E+01 -0.83871701824E+01  0.20736296558E+01  0.88595893268E+01  0.00000000000E+00 0.  1.
</event>
<event>
 7    1  0.7579108E-012  0.5930192E+02  0.7816164E-02  0.1266605E+00
        -11   -1    0    0    0    0  0.00000000000E+00  0.00000000000E+00  0.45593999997E+02  0.45594000000E+02  0.51100000000E-03 0.  1.
         11   -1    0    0    0    0 -0.00000000000E+00 -0.00000000000E+00 -0.45593999997E+02  0.45594000000E+02  0.51100000000E-03 0. -1.
    9900012    2    1    2    0    0  0.19990087207E+02 -0.60169233754E+01  0.24102182788E+02  0.59301918890E+02  0.49999954154E+02 0.  0.
         12    1    1    2    0    0 -0.19990087207E+02  0.60169233754E+01 -0.24102182788E+02  0.31886081110E+02  0.00000000000E+00 0. -1.
         11    1    3    3    0    0 -0.50008368827E+01  0.36209132465E+01 -0.97144900705E+01  0.11510460454E+02  0.51100000000E-03 0. -1.
        -11    1    3    3    0    0  0.20591242298E+02  0.15481050860E+01  0.15236479877E+02  0.25662155171E+02  0.51100000000E-03 0.  1.
         12    1    3    3    0    0  0.43996817919E+01 -0.11185941708E+02  0.18580192981E+02  0.22129303265E+02  0.00000000000E+00 0. -1.
</event>
<event>
 7    1  0.7579108E-012  0.5930192E+02  0.7816164E-02  0.1266605E+00
        -11   -1    0    0    0    0  0.00000000000E+00  0.00000000000E+00  0.45593999997E+02  0.45594000000E+02  0.51100000000E-03 0.  1.
         11   -1    0    0    0    0 -0.00000000000E+00 -0.00000000000E+00 -0.45593999997E+02  0.45594000000E+02  0.51100000000E-03 0. -1.
    9900012    2    1    2    0    0  0.26734716489E+02 -0.63452243229E+01  0.16177603871E+02  0.59301924599E+02  0.49999964567E+02 0.  0.
         12    1    1    2    0    0 -0.26734716489E+02  0.63452243229E+01 -0.16177603871E+02  0.31886075401E+02  0.00000000000E+00 0. -1.
         11    1    3    3    0    0  0.99733049997E+01 -0.12641939685E+02 -0.13920838400E+02  0.21285563033E+02  0.51100000000E-03 0. -1.
        -11    1    3    3    0    0 -0.71084050908E-01  0.63019433745E+01  0.97298693556E+01  0.11592665836E+02  0.51100000000E-03 0.  1.
        -12    1    3    3    0    0  0.16832495540E+02 -0.52280119813E-02  0.20368572915E+02  0.26423695730E+02  0.00000000000E+00 0.  1.
</event>
<event>
 7    1  0.7579108E-012  0.5930191E+02  0.7816164E-02  0.1266605E+00
        -11   -1    0    0    0    0  0.00000000000E+00  0.00000000000E+00  0.45593999997E+02  0.45594000000E+02  0.51100000000E-03 0. -1.
         11   -1    0    0    0    0 -0.00000000000E+00 -0.00000000000E+00 -0.45593999997E+02  0.45594000000E+02  0.51100000000E-03 0.  1.
    9900012    2    1    2    0    0 -0.11199379761E+02 -0.18585533898E+02 -0.23363963711E+02  0.59301906203E+02  0.49999931018E+02 0.  0.
         12    1    1    2    0    0  0.11199379761E+02  0.18585533898E+02  0.23363963711E+02  0.31886093797E+02  0.00000000000E+00 0. -1.
         11    1    3    3    0    0  0.25716458293E+01  0.11484202773E+01  0.54966355524E+01  0.61761828067E+01  0.51100000000E-03 0. -1.
        -11    1    3    3    0    0 -0.14606413507E+02 -0.64741269780E+00 -0.30628553429E+02  0.33939280254E+02  0.51100000000E-03 0.  1.
        -12    1    3    3    0    0  0.83538791713E+00 -0.19086541477E+02  0.17679541652E+01  0.19186443143E+02  0.00000000000E+00 0.  1.
</event>
<event>
 7    1  0.7579108E-012  0.5930195E+02  0.7816164E-02  0.1266605E+00
        -11   -1    0    0    0    0  0.00000000000E+00  0.00000000000E+00  0.45593999997E+02  0.45594000000E+02  0.51100000000E-03 0.  1.
         11   -1    0    0    0    0 -0.00000000000E+00 -0.00000000000E+00 -0.45593999997E+02  0.45594000000E+02  0.51100000000E-03 0. -1.
    9900012    2    1    2    0    0 -0.21993508680E+02 -0.17755276109E+02  0.14756557384E+02  0.59301949137E+02  0.50000009319E+02 0.  0.
         12    1    1    2    0    0  0.21993508680E+02  0.17755276109E+02 -0.14756557384E+02  0.31886050863E+02  0.00000000000E+00 0. -1.
         11    1    3    3    0    0 -0.11533659974E+02 -0.69257088379E+00  0.24747201676E+02  0.27311700018E+02  0.51100000000E-03 0. -1.
        -11    1    3    3    0    0 -0.15823085958E+02 -0.14053281991E+02 -0.13311326404E+02  0.25001123872E+02  0.51100000000E-03 0.  1.
        -12    1    3    3    0    0  0.53632372521E+01 -0.30094232346E+01  0.33206821126E+01  0.69891252471E+01  0.00000000000E+00 0.  1.
</event>
<event>
 7    1  0.7579108E-012  0.5930194E+02  0.7816164E-02  0.1266605E+00
        -11   -1    0    0    0    0  0.00000000000E+00  0.00000000000E+00  0.45593999997E+02  0.45594000000E+02  0.51100000000E-03 0.  1.
         11   -1    0    0    0    0 -0.00000000000E+00 -0.00000000000E+00 -0.45593999997E+02  0.45594000000E+02  0.51100000000E-03 0. -1.
    9900012    2    1    2    0    0 -0.11680773109E+02  0.27355026196E+02  0.11488381362E+02  0.59301939959E+02  0.49999992580E+02 0.  0.
         12    1    1    2    0    0  0.11680773109E+02 -0.27355026196E+02 -0.11488381362E+02  0.31886060041E+02  0.00000000000E+00 0. -1.
         11    1    3    3    0    0 -0.13473432442E+02  0.57555545481E+01  0.21561646608E+02  0.26068455931E+02  0.51100000000E-03 0.  1.
        -11    1    3    3    0    0  0.87408565006E+01  0.69893807804E+01  0.39046190843E+01  0.11853272397E+02  0.51100000000E-03 0. -1.
         12    1    3    3    0    0 -0.69481971673E+01  0.14610090868E+02 -0.13977884331E+02  0.21380211631E+02  0.00000000000E+00 0. -1.
</event>
<event>
 7    1  0.7579108E-012  0.5930193E+02  0.7816164E-02  0.1266605E+00
        -11   -1    0    0    0    0  0.00000000000E+00  0.00000000000E+00  0.45593999997E+02  0.45594000000E+02  0.51100000000E-03 0.  1.
         11   -1    0    0    0    0 -0.00000000000E+00 -0.00000000000E+00 -0.45593999997E+02  0.45594000000E+02  0.51100000000E-03 0. -1.
    9900012    2    1    2    0    0 -0.10325942532E+02 -0.23164275535E+02  0.19326479284E+02  0.59301928562E+02  0.49999971795E+02 0.  0.
         12    1    1    2    0    0  0.10325942532E+02  0.23164275535E+02 -0.19326479284E+02  0.31886071438E+02  0.00000000000E+00 0. -1.
         11    1    3    3    0    0 -0.19104428081E+02 -0.20190598228E+02  0.22948362386E+01  0.27890960950E+02  0.51100000000E-03 0. -1.
        -11    1    3    3    0    0  0.53544068945E+01  0.10845345779E+02  0.67657448045E+01  0.13858805911E+02  0.51100000000E-03 0.  1.
        -12    1    3    3    0    0  0.34240786544E+01 -0.13819023086E+02  0.10265898241E+02  0.17552161701E+02  0.00000000000E+00 0.  1.
</event>
<event>
 7    1  0.7579108E-012  0.5930189E+02  0.7816164E-02  0.1266605E+00
        -11   -1    0    0    0    0  0.00000000000E+00  0.00000000000E+00  0.45593999997E+02  0.45594000000E+02  0.51100000000E-03 0. -1.
         11   -1    0    0    0    0 -0.00000000000E+00 -0.00000000000E+00 -0.45593999997E+02  0.45594000000E+02  0.51100000000E-03 0.  1.
    9900012    2    1    2    0    0 -0.23532532032E+02 -0.21442005908E+02  0.17845318022E+01  0.59301886487E+02  0.49999895060E+02 0.  0.
         12    1    1    2    0    0  0.23532532032E+02  0.21442005908E+02 -0.17845318022E+01  0.31886113513E+02  0.00000000000E+00 0. -1.
         11    1    3    3    0    0 -0.15070774634E+02  0.42108813519E+01  0.58682081995E+01  0.16712140425E+02  0.51100000000E-03 0. -1.
        -11    1    3    3    0    0 -0.91591577930E+01 -0.31408748252E+02  0.36544948223E+01  0.32920433942E+02  0.51100000000E-03 0.  1.
        -12    1    3    3    0    0  0.69740039559E+00  0.57558609916E+01 -0.77381712196E+01  0.96693121209E+01  0.00000000000E+00 0.  1.
</event>
<event>
 7    1  0.7579108E-012  0.5930183E+02  0.7816164E-02  0.1266605E+00
        -11   -1    0    0    0    0  0.00000000000E+00  0.00000000000E+00  0.45593999997E+02  0.45594000000E+02  0.51100000000E-03 0.  1.
         11   -1    0    0    0    0 -0.00000000000E+00 -0.00000000000E+00 -0.45593999997E+02  0.45594000000E+02  0.51100000000E-03 0. -1.
    9900012    2    1    2    0    0 -0.26382770282E+02  0.23220733589E+01  0.17756277530E+02  0.59301827697E+02  0.49999787840E+02 0.  0.
         12    1    1    2    0    0  0.26382770282E+02 -0.23220733589E+01 -0.17756277530E+02  0.31886172303E+02  0.00000000000E+00 0. -1.
         11    1    3    3    0    0 -0.33778433041E+02  0.13661995241E+02  0.32861790466E+00  0.36438175622E+02  0.51100000000E-03 0. -1.
        -11    1    3    3    0    0  0.71638479150E+01 -0.58071005701E+01  0.10065000359E+02  0.13650910830E+02  0.51100000000E-03 0.  1.
         12    1    3    3    0    0  0.23181484410E+00 -0.55328213116E+01  0.73626592656E+01  0.92127412451E+01  0.00000000000E+00 0. -1.
</event>
<event>
 7    1  0.7579108E-012  0.5930193E+02  0.7816164E-02  0.1266605E+00
        -11   -1    0    0    0    0  0.00000000000E+00  0.00000000000E+00  0.45593999997E+02  0.45594000000E+02  0.51100000000E-03 0. -1.
         11   -1    0    0    0    0 -0.00000000000E+00 -0.00000000000E+00 -0.45593999997E+02  0.45594000000E+02  0.51100000000E-03 0.  1.
    9900012    2    1    2    0    0  0.17731728655E+02  0.26498692047E+02 -0.35592288602E+00  0.59301928395E+02  0.49999971490E+02 0.  0.
         12    1    1    2    0    0 -0.17731728655E+02 -0.26498692047E+02  0.35592288602E+00  0.31886071605E+02  0.00000000000E+00 0. -1.
         11    1    3    3    0    0  0.67759423945E+01 -0.74385973068E+01  0.81127242477E+01  0.12925262868E+02  0.51100000000E-03 0. -1.
        -11    1    3    3    0    0 -0.95278535745E+01  0.13364965126E+02 -0.48868452860E+01  0.17125523165E+02  0.51100000000E-03 0.  1.
        -12    1    3    3    0    0  0.20483639835E+02  0.20572324228E+02 -0.35818018477E+01  0.29251142362E+02  0.00000000000E+00 0.  1.
</event>
<event>
 7    1  0.7579108E-012  0.5930190E+02  0.7816164E-02  0.1266605E+00
        -11   -1    0    0    0    0  0.00000000000E+00  0.00000000000E+00  0.45593999997E+02  0.45594000000E+02  0.51100000000E-03 0.  1.
         11   -1    0    0    0    0 -0.00000000000E+00 -0.00000000000E+00 -0.45593999997E+02  0.45594000000E+02  0.51100000000E-03 0. -1.
    9900012    2    1    2    0    0  0.44020817998E+01 -0.22680158810E+02  0.21976251495E+02  0.59301897109E+02  0.49999914432E+02 0.  0.
         12    1    1    2    0    0 -0.44020817998E+01  0.22680158810E+02 -0.21976251495E+02  0.31886102891E+02  0.00000000000E+00 0. -1.
         11    1    3    3    0    0 -0.11947318329E+02 -0.25435696854E+02 -0.14287626800E+01  0.28138131650E+02  0.51100000000E-03 0. -1.
        -11    1    3    3    0    0  0.11024042532E+02 -0.12134363564E+01  0.21600418673E+02  0.24281269090E+02  0.51100000000E-03 0.  1.
         12    1    3    3    0    0  0.53253575976E+01  0.39689744009E+01  0.18045955018E+01  0.68824963685E+01  0.00000000000E+00 0. -1.
</event>
<event>
 7    1  0.7579108E-012  0.5930192E+02  0.7816164E-02  0.1266605E+00
        -11   -1    0    0    0    0  0.00000000000E+00  0.00000000000E+00  0.45593999997E+02  0.45594000000E+02  0.51100000000E-03 0. -1.
         11   -1    0    0    0    0 -0.00000000000E+00 -0.00000000000E+00 -0.45593999997E+02  0.45594000000E+02  0.51100000000E-03 0.  1.
    9900012    2    1    2    0    0  0.15636394096E+02  0.16280392267E+02 -0.22520525062E+02  0.59301920878E+02  0.49999957781E+02 0.  0.
         12    1    1    2    0    0 -0.15636394096E+02 -0.16280392267E+02  0.22520525062E+02  0.31886079122E+02  0.00000000000E+00 0. -1.
         11    1    3    3    0    0  0.12784120522E+02  0.12054047606E+02  0.62900378773E+01  0.18662753762E+02  0.51100000000E-03 0. -1.
        -11    1    3    3    0    0  0.14580509494E+02  0.23894467144E+01 -0.23208659703E+02  0.27512589813E+02  0.51100000000E-03 0.  1.
         12    1    3    3    0    0 -0.11728235920E+02  0.18368979463E+01 -0.56019032357E+01  0.13126577304E+02  0.00000000000E+00 0. -1.
</event>
<event>
 7    1  0.7877066E-012  0.5930190E+02  0.7816164E-02  0.1266605E+00
        -11   -1    0    0    0    0  0.00000000000E+00  0.00000000000E+00  0.45593999997E+02  0.45594000000E+02  0.51100000000E-03 0.  1.
         11   -1    0    0    0    0 -0.00000000000E+00 -0.00000000000E+00 -0.45593999997E+02  0.45594000000E+02  0.51100000000E-03 0. -1.
    9900012    2    1    2    0    0 -0.29987657665E+02 -0.80082345001E+01 -0.73028768572E+01  0.59301898914E+02  0.49999917724E+02 0.  0.
         12    1    1    2    0    0  0.29987657665E+02  0.80082345001E+01  0.73028768572E+01  0.31886101086E+02  0.00000000000E+00 0. -1.
         11    1    3    3    0    0 -0.29629954424E+00  0.10580076168E+02 -0.94128361986E+01  0.14164296337E+02  0.51100000000E-03 0. -1.
        -11    1    3    3    0    0 -0.99245881024E+01 -0.29238432460E+01  0.13874674086E+02  0.17307596297E+02  0.51100000000E-03 0.  1.
        -12    1    3    3    0    0 -0.19766770018E+02 -0.15664467422E+02 -0.11764714744E+02  0.27830006281E+02  0.00000000000E+00 0.  1.
</event>
<event>
 7    1  0.7579108E-012  0.5930198E+02  0.7816164E-02  0.1266605E+00
        -11   -1    0    0    0    0  0.00000000000E+00  0.00000000000E+00  0.45593999997E+02  0.45594000000E+02  0.51100000000E-03 0. -1.
         11   -1    0    0    0    0 -0.00000000000E+00 -0.00000000000E+00 -0.45593999997E+02  0.45594000000E+02  0.51100000000E-03 0.  1.
    9900012    2    1    2    0    0 -0.28076797083E+02  0.14978554960E+02 -0.20135324850E+01  0.59301984943E+02  0.50000074620E+02 0.  0.
         12    1    1    2    0    0  0.28076797083E+02 -0.14978554960E+02  0.20135324850E+01  0.31886015057E+02  0.00000000000E+00 0. -1.
         11    1    3    3    0    0 -0.22969111706E+01 -0.12148961031E+02  0.13921255610E+02  0.18619194748E+02  0.51100000000E-03 0. -1.
        -11    1    3    3    0    0 -0.22781572827E+02  0.24323829953E+02 -0.14274822588E+02  0.36254921379E+02  0.51100000000E-03 0.  1.
         12    1    3    3    0    0 -0.29983130857E+01  0.28036860386E+01 -0.16599655063E+01  0.44278688152E+01  0.00000000000E+00 0. -1.
</event>
<event>
 7    1  0.7579108E-012  0.5930193E+02  0.7816164E-02  0.1266605E+00
        -11   -1    0    0    0    0  0.00000000000E+00  0.00000000000E+00  0.45593999997E+02  0.45594000000E+02  0.51100000000E-03 0. -1.
         11   -1    0    0    0    0 -0.00000000000E+00 -0.00000000000E+00 -0.45593999997E+02  0.45594000000E+02  0.51100000000E-03 0.  1.
    9900012    2    1    2    0    0  0.15145907895E+02 -0.49305997766E+01 -0.27622679207E+02  0.59301925505E+02  0.49999966220E+02 0.  0.
         12    1    1    2    0    0 -0.15145907895E+02  0.49305997766E+01  0.27622679207E+02  0.31886074495E+02  0.00000000000E+00 0. -1.
         11    1    3    3    0    0  0.31028004047E+02 -0.47875893299E+01 -0.20223706847E+02  0.37345098281E+02  0.51100000000E-03 0. -1.
        -11    1    3    3    0    0 -0.29723470162E+01  0.42698136513E+00 -0.84735539192E+01  0.89898985619E+01  0.51100000000E-03 0.  1.
         12    1    3    3    0    0 -0.12909749136E+02 -0.56999181190E+00  0.10745815591E+01  0.12966928663E+02  0.00000000000E+00 0. -1.
</event>
<event>
 7    1  0.7579108E-012  0.5930200E+02  0.7816164E-02  0.1266605E+00
        -11   -1    0    0    0    0  0.00000000000E+00  0.00000000000E+00  0.45593999997E+02  0.45594000000E+02  0.51100000000E-03 0.  1.
         11   -1    0    0    0    0 -0.00000000000E+00 -0.00000000000E+00 -0.45593999997E+02  0.45594000000E+02  0.51100000000E-03 0. -1.
    9900012    2    1    2    0    0  0.31200234908E+02 -0.51892424582E+01  0.40415807110E+01  0.59301995700E+02  0.50000094237E+02 0.  0.
         12    1    1    2    0    0 -0.31200234908E+02  0.51892424582E+01 -0.40415807110E+01  0.31886004300E+02  0.00000000000E+00 0. -1.
         11    1    3    3    0    0  0.24050834536E+02 -0.13102575081E+02 -0.11464885450E+02  0.29691138649E+02  0.51100000000E-03 0. -1.
        -11    1    3    3    0    0  0.33809836781E+01  0.32751950518E+00  0.19817577892E+02  0.20106583833E+02  0.51100000000E-03 0.  1.
         12    1    3    3    0    0  0.37684166939E+01  0.75858131180E+01 -0.43111117310E+01  0.95042732177E+01  0.00000000000E+00 0. -1.
</event>
<event>
 7    1  0.7579108E-012  0.5930194E+02  0.7816164E-02  0.1266605E+00
        -11   -1    0    0    0    0  0.00000000000E+00  0.00000000000E+00  0.45593999997E+02  0.45594000000E+02  0.51100000000E-03 0. -1.
         11   -1    0    0    0    0 -0.00000000000E+00 -0.00000000000E+00 -0.45593999997E+02  0.45594000000E+02  0.51100000000E-03 0.  1.
    9900012    2    1    2    0    0  0.45958719979E+01  0.24759518354E+02 -0.19559275651E+02  0.59301936390E+02  0.49999986072E+02 0.  0.
         12    1    1    2    0    0 -0.45958719979E+01 -0.24759518354E+02  0.19559275651E+02  0.31886063610E+02  0.00000000000E+00 0. -1.
         11    1    3    3    0    0 -0.71562706063E+01  0.20533753480E+02 -0.17039014783E+02  0.27625626980E+02  0.51100000000E-03 0. -1.
        -11    1    3    3    0    0  0.18231476605E+02  0.82017254445E+00 -0.10331498292E+02  0.20971391928E+02  0.51100000000E-03 0.  1.
        -12    1    3    3    0    0 -0.64793340007E+01  0.34055923287E+01  0.78112374243E+01  0.10704917482E+02  0.00000000000E+00 0.  1.
</event>
<event>
 7    1  0.7579108E-012  0.5930194E+02  0.7816164E-02  0.1266605E+00
        -11   -1    0    0    0    0  0.00000000000E+00  0.00000000000E+00  0.45593999997E+02  0.45594000000E+02  0.51100000000E-03 0.  1.
         11   -1    0    0    0    0 -0.00000000000E+00 -0.00000000000E+00 -0.45593999997E+02  0.45594000000E+02  0.51100000000E-03 0. -1.
    9900012    2    1    2    0    0  0.14931368015E+02 -0.22800033344E+02  0.16550935729E+02  0.59301941216E+02  0.49999994871E+02 0.  0.
         12    1    1    2    0    0 -0.14931368015E+02  0.22800033344E+02 -0.16550935729E+02  0.31886058784E+02  0.00000000000E+00 0. -1.
         11    1    3    3    0    0 -0.23779474592E+01 -0.71705220715E+01 -0.55320045905E+01  0.93634446625E+01  0.51100000000E-03 0. -1.
        -11    1    3    3    0    0  0.74305167737E+01  0.24180779868E+01  0.27560986934E+02  0.28647297983E+02  0.51100000000E-03 0.  1.
        -12    1    3    3    0    0  0.98787987007E+01 -0.18047589260E+02 -0.54780466147E+01  0.21291198571E+02  0.00000000000E+00 0.  1.
</event>
<event>
 7    1  0.7636611E-012  0.5930195E+02  0.7816164E-02  0.1266605E+00
        -11   -1    0    0    0    0  0.00000000000E+00  0.00000000000E+00  0.45593999997E+02  0.45594000000E+02  0.51100000000E-03 0. -1.
         11   -1    0    0    0    0 -0.00000000000E+00 -0.00000000000E+00 -0.45593999997E+02  0.45594000000E+02  0.51100000000E-03 0.  1.
    9900012    2    1    2    0    0  0.12690278634E+02  0.13024192583E+02 -0.26192504558E+02  0.59301951965E+02  0.50000014476E+02 0.  0.
         12    1    1    2    0    0 -0.12690278634E+02 -0.13024192583E+02  0.26192504558E+02  0.31886048035E+02  0.00000000000E+00 0. -1.
         11    1    3    3    0    0  0.16093618799E+02 -0.63361967285E+01 -0.78741676634E+00  0.17313924467E+02  0.51100000000E-03 0. -1.
        -11    1    3    3    0    0 -0.14320128185E+02  0.50611788376E+01 -0.14209051431E+02  0.20798527479E+02  0.51100000000E-03 0.  1.
        -12    1    3    3    0    0  0.10916788020E+02  0.14299210474E+02 -0.11196036361E+02  0.21189500019E+02  0.00000000000E+00 0.  1.
</event>
<event>
 7    1  0.7579108E-012  0.5930203E+02  0.7816164E-02  0.1266604E+00
        -11   -1    0    0    0    0  0.00000000000E+00  0.00000000000E+00  0.45593999997E+02  0.45594000000E+02  0.51100000000E-03 0. -1.
         11   -1    0    0    0    0 -0.00000000000E+00 -0.00000000000E+00 -0.45593999997E+02  0.45594000000E+02  0.51100000000E-03 0.  1.
    9900012    2    1    2    0    0 -0.21735355354E+02 -0.12770950954E+02 -0.19524150236E+02  0.59302026547E+02  0.50000150494E+02 0.  0.
         12    1    1    2    0    0  0.21735355354E+02  0.12770950954E+02  0.19524150236E+02  0.31885973453E+02  0.00000000000E+00 0. -1.
         11    1    3    3    0    0 -0.20432746071E+02 -0.16887213367E+02  0.23105507491E+01  0.26608527436E+02  0.51100000000E-03 0.  1.
        -11    1    3    3    0    0 -0.27567355867E+01  0.13918805228E+02 -0.15046744890E+02  0.20681809933E+02  0.51100000000E-03 0. -1.
         12    1    3    3    0    0  0.14541263037E+01 -0.98025428148E+01 -0.67879560951E+01  0.12011689177E+02  0.00000000000E+00 0. -1.
</event>
<event>
 7    1  0.7579108E-012  0.5930178E+02  0.7816164E-02  0.1266605E+00
        -11   -1    0    0    0    0  0.00000000000E+00  0.00000000000E+00  0.45593999997E+02  0.45594000000E+02  0.51100000000E-03 0.  1.
         11   -1    0    0    0    0 -0.00000000000E+00 -0.00000000000E+00 -0.45593999997E+02  0.45594000000E+02  0.51100000000E-03 0. -1.
    9900012    2    1    2    0    0 -0.15831055728E+01 -0.15345494238E+02  0.27905918927E+02  0.59301784674E+02  0.49999709376E+02 0.  0.
         12    1    1    2    0    0  0.15831055728E+01  0.15345494238E+02 -0.27905918927E+02  0.31886215326E+02  0.00000000000E+00 0. -1.
         11    1    3    3    0    0 -0.79810052520E+01 -0.10594641786E+02 -0.33169691586E+01  0.13672789184E+02  0.51100000000E-03 0. -1.
        -11    1    3    3    0    0  0.25674605630E+01 -0.16585513197E+02  0.28218474263E+02  0.32832200532E+02  0.51100000000E-03 0.  1.
         12    1    3    3    0    0  0.38304391162E+01  0.11834660746E+02  0.30044138226E+01  0.12796794958E+02  0.00000000000E+00 0. -1.
</event>
<event>
 7    1  0.7579108E-012  0.5930196E+02  0.7816164E-02  0.1266605E+00
        -11   -1    0    0    0    0  0.00000000000E+00  0.00000000000E+00  0.45593999997E+02  0.45594000000E+02  0.51100000000E-03 0.  1.
         11   -1    0    0    0    0 -0.00000000000E+00 -0.00000000000E+00 -0.45593999997E+02  0.45594000000E+02  0.51100000000E-03 0. -1.
    9900012    2    1    2    0    0  0.20886497759E+02 -0.51049666978E+01  0.23545978224E+02  0.59301959730E+02  0.50000028637E+02 0.  0.
         12    1    1    2    0    0 -0.20886497759E+02  0.51049666978E+01 -0.23545978224E+02  0.31886040270E+02  0.00000000000E+00 0. -1.
         11    1    3    3    0    0 -0.91876199060E+01  0.12130293646E+02 -0.29245739866E+01  0.15495467620E+02  0.51100000000E-03 0. -1.
        -11    1    3    3    0    0  0.27796949039E+02 -0.16609308703E+02  0.25639763819E+02  0.41302990212E+02  0.51100000000E-03 0.  1.
         12    1    3    3    0    0  0.22771686254E+01 -0.62595164127E+00  0.83078839133E+00  0.25035018987E+01  0.00000000000E+00 0. -1.
</event>
<event>
 7    1  0.7579108E-012  0.5930194E+02  0.7816164E-02  0.1266605E+00
        -11   -1    0    0    0    0  0.00000000000E+00  0.00000000000E+00  0.45593999997E+02  0.45594000000E+02  0.51100000000E-03 0. -1.
         11   -1    0    0    0    0 -0.00000000000E+00 -0.00000000000E+00 -0.45593999997E+02  0.45594000000E+02  0.51100000000E-03 0.  1.
    9900012    2    1    2    0    0  0.29581073255E+00 -0.30107794098E+02 -0.10495441579E+02  0.59301936220E+02  0.49999985761E+02 0.  0.
         12    1    1    2    0    0 -0.29581073255E+00  0.30107794098E+02  0.10495441579E+02  0.31886063780E+02  0.00000000000E+00 0. -1.
         11    1    3    3    0    0 -0.33421352616E+01  0.48188168359E+01  0.12673973763E+02  0.13964973148E+02  0.51100000000E-03 0. -1.
        -11    1    3    3    0    0 -0.45976720999E+01 -0.25596711432E+02 -0.19017219746E+02  0.32217772611E+02  0.51100000000E-03 0.  1.
        -12    1    3    3    0    0  0.82356180940E+01 -0.93298995021E+01 -0.41521955964E+01  0.13119190462E+02  0.00000000000E+00 0.  1.
</event>
<event>
 7    1  0.7579108E-012  0.5930194E+02  0.7816164E-02  0.1266605E+00
        -11   -1    0    0    0    0  0.00000000000E+00  0.00000000000E+00  0.45593999997E+02  0.45594000000E+02  0.51100000000E-03 0.  1.
         11   -1    0    0    0    0 -0.00000000000E+00 -0.00000000000E+00 -0.45593999997E+02  0.45594000000E+02  0.51100000000E-03 0. -1.
    9900012    2    1    2    0    0  0.56065821552E+01  0.26942625037E+02 -0.16105347360E+02  0.59301936885E+02  0.49999986974E+02 0.  0.
         12    1    1    2    0    0 -0.56065821552E+01 -0.26942625037E+02  0.16105347360E+02  0.31886063115E+02  0.00000000000E+00 0. -1.
         11    1    3    3    0    0  0.57386568722E+01 -0.12570055707E+02 -0.35003090351E+01  0.14254495669E+02  0.51100000000E-03 0. -1.
        -11    1    3    3    0    0 -0.56032737289E+01  0.20717517009E+02 -0.13665854767E+02  0.25443423006E+02  0.51100000000E-03 0.  1.
         12    1    3    3    0    0  0.54711990119E+01  0.18795163735E+02  0.10608164417E+01  0.19604018210E+02  0.00000000000E+00 0. -1.
</event>
<event>
 7    1  0.7579108E-012  0.5930214E+02  0.7816164E-02  0.1266604E+00
        -11   -1    0    0    0    0  0.00000000000E+00  0.00000000000E+00  0.45593999997E+02  0.45594000000E+02  0.51100000000E-03 0.  1.
         11   -1    0    0    0    0 -0.00000000000E+00 -0.00000000000E+00 -0.45593999997E+02  0.45594000000E+02  0.51100000000E-03 0. -1.
    9900012    2    1    2    0    0 -0.22786441105E+02 -0.11927899082E+02 -0.18847055405E+02  0.59302138365E+02  0.50000354424E+02 0.  0.
         12    1    1    2    0    0  0.22786441105E+02  0.11927899082E+02  0.18847055405E+02  0.31885861635E+02  0.00000000000E+00 0. -1.
         11    1    3    3    0    0 -0.30075069820E+02 -0.49577186735E+01 -0.59631637197E+01  0.31058784923E+02  0.51100000000E-03 0. -1.
        -11    1    3    3    0    0  0.45183426477E+01 -0.54843252646E+01  0.58767605721E+01  0.92211473784E+01  0.51100000000E-03 0.  1.
         12    1    3    3    0    0  0.27702860668E+01 -0.14858551435E+01 -0.18760652258E+02  0.19022206064E+02  0.00000000000E+00 0. -1.
</event>
<event>
 7    1  0.7579108E-012  0.5930194E+02  0.7816164E-02  0.1266605E+00
        -11   -1    0    0    0    0  0.00000000000E+00  0.00000000000E+00  0.45593999997E+02  0.45594000000E+02  0.51100000000E-03 0. -1.
         11   -1    0    0    0    0 -0.00000000000E+00 -0.00000000000E+00 -0.45593999997E+02  0.45594000000E+02  0.51100000000E-03 0.  1.
    9900012    2    1    2    0    0 -0.30495579606E+02 -0.16555807985E+01 -0.91651129944E+01  0.59301943180E+02  0.49999998455E+02 0.  0.
         12    1    1    2    0    0  0.30495579606E+02  0.16555807985E+01  0.91651129944E+01  0.31886056820E+02  0.00000000000E+00 0. -1.
         11    1    3    3    0    0 -0.33210097929E+02 -0.45484919283E+01  0.48689649491E+01  0.33871908763E+02  0.51100000000E-03 0. -1.
        -11    1    3    3    0    0  0.52791744219E+00  0.97637990766E+01 -0.15252235255E+02  0.18117426687E+02  0.51100000000E-03 0.  1.
        -12    1    3    3    0    0  0.21866008807E+01 -0.68708879468E+01  0.12181573113E+01  0.73126077308E+01  0.00000000000E+00 0.  1.
</event>
<event>
 7    1  0.7579108E-012  0.5930195E+02  0.7816164E-02  0.1266605E+00
        -11   -1    0    0    0    0  0.00000000000E+00  0.00000000000E+00  0.45593999997E+02  0.45594000000E+02  0.51100000000E-03 0. -1.
         11   -1    0    0    0    0 -0.00000000000E+00 -0.00000000000E+00 -0.45593999997E+02  0.45594000000E+02  0.51100000000E-03 0.  1.
    9900012    2    1    2    0    0  0.25936447098E+02 -0.18406665777E+02  0.22837378997E+01  0.59301951454E+02  0.50000013544E+02 0.  0.
         12    1    1    2    0    0 -0.25936447098E+02  0.18406665777E+02 -0.22837378997E+01  0.31886048546E+02  0.00000000000E+00 0. -1.
         11    1    3    3    0    0 -0.24804162139E+01  0.80671428559E+01 -0.12365388537E+01  0.85299640709E+01  0.51100000000E-03 0. -1.
        -11    1    3    3    0    0  0.70829881564E+01 -0.13361030780E+02  0.16653902340E+02  0.22495295689E+02  0.51100000000E-03 0.  1.
        -12    1    3    3    0    0  0.21333875155E+02 -0.13112777853E+02 -0.13133625586E+02  0.28276691695E+02  0.00000000000E+00 0.  1.
</event>
<event>
 7    1  0.7579108E-012  0.5930192E+02  0.7816164E-02  0.1266605E+00
        -11   -1    0    0    0    0  0.00000000000E+00  0.00000000000E+00  0.45593999997E+02  0.45594000000E+02  0.51100000000E-03 0.  1.
         11   -1    0    0    0    0 -0.00000000000E+00 -0.00000000000E+00 -0.45593999997E+02  0.45594000000E+02  0.51100000000E-03 0. -1.
    9900012    2    1    2    0    0  0.30031880253E+02  0.10642907612E+02  0.12395955193E+01  0.59301922928E+02  0.49999961520E+02 0.  0.
         12    1    1    2    0    0 -0.30031880253E+02 -0.10642907612E+02 -0.12395955193E+01  0.31886077072E+02  0.00000000000E+00 0. -1.
         11    1    3    3    0    0 -0.11609367987E+02 -0.40142349037E+01  0.10153157986E+01  0.12325679428E+02  0.51100000000E-03 0. -1.
        -11    1    3    3    0    0  0.33470532630E+02  0.57909731133E+01  0.43227562466E+01  0.34241760264E+02  0.51100000000E-03 0.  1.
         12    1    3    3    0    0  0.81707156107E+01  0.88661694028E+01 -0.40984765259E+01  0.12734483237E+02  0.00000000000E+00 0. -1.
</event>
<event>
 7    1  0.7579108E-012  0.5930200E+02  0.7816164E-02  0.1266605E+00
        -11   -1    0    0    0    0  0.00000000000E+00  0.00000000000E+00  0.45593999997E+02  0.45594000000E+02  0.51100000000E-03 0.  1.
         11   -1    0    0    0    0 -0.00000000000E+00 -0.00000000000E+00 -0.45593999997E+02  0.45594000000E+02  0.51100000000E-03 0. -1.
    9900012    2    1    2    0    0 -0.70405772854E+01  0.57877118685E+00  0.31093601296E+02  0.59302003918E+02  0.50000109225E+02 0.  0.
         12    1    1    2    0    0  0.70405772854E+01 -0.57877118685E+00 -0.31093601296E+02  0.31885996082E+02  0.00000000000E+00 0. -1.
         11    1    3    3    0    0  0.19794518126E+01  0.39761735498E+01 -0.10108849729E+02  0.11041604443E+02  0.51100000000E-03 0. -1.
        -11    1    3    3    0    0  0.63817228984E+01 -0.59580240675E+01  0.20887795540E+02  0.22639002645E+02  0.51100000000E-03 0.  1.
         12    1    3    3    0    0 -0.15401751996E+02  0.25606217046E+01  0.20314655484E+02  0.25621396830E+02  0.00000000000E+00 0. -1.
</event>
<event>
 7    1  0.7579108E-012  0.5930195E+02  0.7816164E-02  0.1266605E+00
        -11   -1    0    0    0    0  0.00000000000E+00  0.00000000000E+00  0.45593999997E+02  0.45594000000E+02  0.51100000000E-03 0. -1.
         11   -1    0    0    0    0 -0.00000000000E+00 -0.00000000000E+00 -0.45593999997E+02  0.45594000000E+02  0.51100000000E-03 0.  1.
    9900012    2    1    2    0    0 -0.26563852761E+02  0.62929694305E+01  0.16476662844E+02  0.59301950445E+02  0.50000011703E+02 0.  0.
         12    1    1    2    0    0  0.26563852761E+02 -0.62929694305E+01 -0.16476662844E+02  0.31886049555E+02  0.00000000000E+00 0. -1.
         11    1    3    3    0    0 -0.69346072156E+00 -0.51494396574E+01  0.13695499313E+01  0.53733866260E+01  0.51100000000E-03 0. -1.
        -11    1    3    3    0    0  0.15545315893E+01  0.21622410841E+02  0.16868552508E+01  0.21743750825E+02  0.51100000000E-03 0.  1.
        -12    1    3    3    0    0 -0.27424923629E+02 -0.10180001753E+02  0.13420257662E+02  0.32184812994E+02  0.00000000000E+00 0.  1.
</event>
<event>
 7    1  0.7579108E-012  0.5930196E+02  0.7816164E-02  0.1266605E+00
        -11   -1    0    0    0    0  0.00000000000E+00  0.00000000000E+00  0.45593999997E+02  0.45594000000E+02  0.51100000000E-03 0.  1.
         11   -1    0    0    0    0 -0.00000000000E+00 -0.00000000000E+00 -0.45593999997E+02  0.45594000000E+02  0.51100000000E-03 0. -1.
    9900012    2    1    2    0    0 -0.26454214935E+01 -0.96876826346E+01  0.30263347114E+02  0.59301958724E+02  0.50000026802E+02 0.  0.
         12    1    1    2    0    0  0.26454214935E+01  0.96876826346E+01 -0.30263347114E+02  0.31886041276E+02  0.00000000000E+00 0. -1.
         11    1    3    3    0    0 -0.58489393483E+01  0.97432561920E+01 -0.13447348194E+01  0.11443314411E+02  0.51100000000E-03 0. -1.
        -11    1    3    3    0    0  0.11565190812E+02 -0.96038244647E-01  0.21677318871E+02  0.24569676749E+02  0.51100000000E-03 0.  1.
        -12    1    3    3    0    0 -0.83616729567E+01 -0.19334900582E+02  0.99307630627E+01  0.23288967563E+02  0.00000000000E+00 0.  1.
</event>
<event>
 7    1  0.7579108E-012  0.5930202E+02  0.7816164E-02  0.1266604E+00
        -11   -1    0    0    0    0  0.00000000000E+00  0.00000000000E+00  0.45593999997E+02  0.45594000000E+02  0.51100000000E-03 0.  1.
         11   -1    0    0    0    0 -0.00000000000E+00 -0.00000000000E+00 -0.45593999997E+02  0.45594000000E+02  0.51100000000E-03 0. -1.
    9900012    2    1    2    0    0  0.25281022635E+02 -0.11038790702E+02 -0.15991581751E+02  0.59302020439E+02  0.50000139356E+02 0.  0.
         12    1    1    2    0    0 -0.25281022635E+02  0.11038790702E+02  0.15991581751E+02  0.31885979561E+02  0.00000000000E+00 0. -1.
         11    1    3    3    0    0  0.57232749352E+01 -0.14482070354E+02 -0.16639839652E+02  0.22789701658E+02  0.51100000000E-03 0. -1.
        -11    1    3    3    0    0  0.31670323678E+01  0.15714921787E+02  0.33241704175E+00  0.16034318263E+02  0.51100000000E-03 0.  1.
        -12    1    3    3    0    0  0.16390715332E+02 -0.12271642136E+02  0.31584086002E+00  0.20478000519E+02  0.00000000000E+00 0.  1.
</event>
<event>
 7    1  0.7579108E-012  0.5930188E+02  0.7816164E-02  0.1266605E+00
        -11   -1    0    0    0    0  0.00000000000E+00  0.00000000000E+00  0.45593999997E+02  0.45594000000E+02  0.51100000000E-03 0. -1.
         11   -1    0    0    0    0 -0.00000000000E+00 -0.00000000000E+00 -0.45593999997E+02  0.45594000000E+02  0.51100000000E-03 0.  1.
    9900012    2    1    2    0    0 -0.67410350892E+01 -0.27785054863E+01 -0.31041310691E+02  0.59301880508E+02  0.49999884156E+02 0.  0.
         12    1    1    2    0    0  0.67410350892E+01  0.27785054863E+01  0.31041310691E+02  0.31886119492E+02  0.00000000000E+00 0. -1.
         11    1    3    3    0    0  0.15701667190E+02 -0.38119320515E+00 -0.20023080228E+02  0.25448210210E+02  0.51100000000E-03 0. -1.
        -11    1    3    3    0    0 -0.89412383030E+01 -0.10022615443E+02  0.20354956045E+01  0.13584616495E+02  0.51100000000E-03 0.  1.
        -12    1    3    3    0    0 -0.13501463977E+02  0.76253031617E+01 -0.13053726068E+02  0.20269053803E+02  0.00000000000E+00 0.  1.
</event>
<event>
 7    1  0.7579108E-012  0.5930194E+02  0.7816164E-02  0.1266605E+00
        -11   -1    0    0    0    0  0.00000000000E+00  0.00000000000E+00  0.45593999997E+02  0.45594000000E+02  0.51100000000E-03 0. -1.
         11   -1    0    0    0    0 -0.00000000000E+00 -0.00000000000E+00 -0.45593999997E+02  0.45594000000E+02  0.51100000000E-03 0.  1.
    9900012    2    1    2    0    0  0.77824112517E+01 -0.64547503039E+01 -0.30240554042E+02  0.59301939799E+02  0.49999992287E+02 0.  0.
         12    1    1    2    0    0 -0.77824112517E+01  0.64547503039E+01  0.30240554042E+02  0.31886060201E+02  0.00000000000E+00 0. -1.
         11    1    3    3    0    0  0.11809262935E+02 -0.21082703447E+02 -0.74226472415E+01  0.25279137011E+02  0.51100000000E-03 0. -1.
        -11    1    3    3    0    0 -0.83736184260E+00  0.18591284566E+02 -0.12209916162E+02  0.22258011808E+02  0.51100000000E-03 0.  1.
        -12    1    3    3    0    0 -0.31894898411E+01 -0.39633314236E+01 -0.10607990638E+02  0.11764790980E+02  0.00000000000E+00 0.  1.
</event>
<event>
 7    1  0.7579108E-012  0.5930193E+02  0.7816164E-02  0.1266605E+00
        -11   -1    0    0    0    0  0.00000000000E+00  0.00000000000E+00  0.45593999997E+02  0.45594000000E+02  0.51100000000E-03 0.  1.
         11   -1    0    0    0    0 -0.00000000000E+00 -0.00000000000E+00 -0.45593999997E+02  0.45594000000E+02  0.51100000000E-03 0. -1.
    9900012    2    1    2    0    0  0.13766081255E+02  0.25494549325E+02  0.13313312091E+02  0.59301932239E+02  0.49999978501E+02 0.  0.
         12    1    1    2    0    0 -0.13766081255E+02 -0.25494549325E+02 -0.13313312091E+02  0.31886067761E+02  0.00000000000E+00 0. -1.
         11    1    3    3    0    0  0.20185484642E+02  0.87313577317E+01 -0.87624241030E+01  0.23674257634E+02  0.51100000000E-03 0. -1.
        -11    1    3    3    0    0  0.66473084091E+01  0.61289160422E+01  0.14652456778E+02  0.17217572733E+02  0.51100000000E-03 0.  1.
         12    1    3    3    0    0 -0.13066711796E+02  0.10634275551E+02  0.74232794160E+01  0.18410101872E+02  0.00000000000E+00 0. -1.
</event>
<event>
 7    1  0.7579108E-012  0.5930187E+02  0.7816164E-02  0.1266605E+00
        -11   -1    0    0    0    0  0.00000000000E+00  0.00000000000E+00  0.45593999997E+02  0.45594000000E+02  0.51100000000E-03 0.  1.
         11   -1    0    0    0    0 -0.00000000000E+00 -0.00000000000E+00 -0.45593999997E+02  0.45594000000E+02  0.51100000000E-03 0. -1.
    9900012    2    1    2    0    0 -0.79347084786E+01  0.22559087635E+02  0.21091538003E+02  0.59301874351E+02  0.49999872926E+02 0.  0.
         12    1    1    2    0    0  0.79347084786E+01 -0.22559087635E+02 -0.21091538003E+02  0.31886125649E+02  0.00000000000E+00 0. -1.
         11    1    3    3    0    0 -0.12036934018E+02 -0.87856253034E+01 -0.53167355214E+00  0.14911662199E+02  0.51100000000E-03 0. -1.
        -11    1    3    3    0    0  0.11098679678E+02  0.11561256189E+02  0.16043683183E+02  0.22676928928E+02  0.51100000000E-03 0.  1.
         12    1    3    3    0    0 -0.69964541389E+01  0.19783456750E+02  0.55795283722E+01  0.21713283224E+02  0.00000000000E+00 0. -1.
</event>
<event>
 7    1  0.7579108E-012  0.5930199E+02  0.7816164E-02  0.1266605E+00
        -11   -1    0    0    0    0  0.00000000000E+00  0.00000000000E+00  0.45593999997E+02  0.45594000000E+02  0.51100000000E-03 0. -1.
         11   -1    0    0    0    0 -0.00000000000E+00 -0.00000000000E+00 -0.45593999997E+02  0.45594000000E+02  0.51100000000E-03 0.  1.
    9900012    2    1    2    0    0 -0.15465416921E+01  0.13371273518E+02 -0.28905621005E+02  0.59301989394E+02  0.50000082737E+02 0.  0.
         12    1    1    2    0    0  0.15465416921E+01 -0.13371273518E+02  0.28905621005E+02  0.31886010606E+02  0.00000000000E+00 0. -1.
         11    1    3    3    0    0 -0.15340369967E+02  0.17286667659E+02 -0.15901374015E+02  0.28053690048E+02  0.51100000000E-03 0. -1.
        -11    1    3    3    0    0  0.15442418338E+02 -0.11221028066E+02 -0.14028557639E+02  0.23689241961E+02  0.51100000000E-03 0.  1.
        -12    1    3    3    0    0 -0.16485900626E+01  0.73056339251E+01  0.10243106491E+01  0.75590573849E+01  0.00000000000E+00 0.  1.
</event>
<event>
 7    1  0.8370504E-012  0.5930195E+02  0.7816164E-02  0.1266605E+00
        -11   -1    0    0    0    0  0.00000000000E+00  0.00000000000E+00  0.45593999997E+02  0.45594000000E+02  0.51100000000E-03 0.  1.
         11   -1    0    0    0    0 -0.00000000000E+00 -0.00000000000E+00 -0.45593999997E+02  0.45594000000E+02  0.51100000000E-03 0. -1.
    9900012    2    1    2    0    0  0.53047637063E+01 -0.23610364742E+02 -0.20763676473E+02  0.59301951296E+02  0.50000013256E+02 0.  0.
         12    1    1    2    0    0 -0.53047637063E+01  0.23610364742E+02  0.20763676473E+02  0.31886048704E+02  0.00000000000E+00 0. -1.
         11    1    3    3    0    0  0.12958748346E+02 -0.55235806238E+01  0.93846513714E+01  0.16926629411E+02  0.51100000000E-03 0. -1.
        -11    1    3    3    0    0 -0.12427187211E+02 -0.29485092963E+01 -0.19321973460E+02  0.23161764780E+02  0.51100000000E-03 0.  1.
        -12    1    3    3    0    0  0.47732025718E+01 -0.15138274822E+02 -0.10826354384E+02  0.19213557106E+02  0.00000000000E+00 0.  1.
</event>
<event>
 7    1  0.7579108E-012  0.5930195E+02  0.7816164E-02  0.1266605E+00
        -11   -1    0    0    0    0  0.00000000000E+00  0.00000000000E+00  0.45593999997E+02  0.45594000000E+02  0.51100000000E-03 0.  1.
         11   -1    0    0    0    0 -0.00000000000E+00 -0.00000000000E+00 -0.45593999997E+02  0.45594000000E+02  0.51100000000E-03 0. -1.
    9900012    2    1    2    0    0  0.97630661727E+01  0.29921236676E+02 -0.51109840274E+01  0.59301952534E+02  0.50000015513E+02 0.  0.
         12    1    1    2    0    0 -0.97630661727E+01 -0.29921236676E+02  0.51109840274E+01  0.31886047466E+02  0.00000000000E+00 0. -1.
         11    1    3    3    0    0  0.10646906728E+02  0.12719078329E+02  0.21809809760E+01  0.16729861167E+02  0.51100000000E-03 0. -1.
        -11    1    3    3    0    0 -0.17220724693E+02  0.77703424522E+01 -0.12918146317E+02  0.22886897678E+02  0.51100000000E-03 0.  1.
        -12    1    3    3    0    0  0.16336884137E+02  0.94318158946E+01  0.56261813140E+01  0.19685193689E+02  0.00000000000E+00 0.  1.
</event>
<event>
 7    1  0.7579108E-012  0.5930193E+02  0.7816164E-02  0.1266605E+00
        -11   -1    0    0    0    0  0.00000000000E+00  0.00000000000E+00  0.45593999997E+02  0.45594000000E+02  0.51100000000E-03 0.  1.
         11   -1    0    0    0    0 -0.00000000000E+00 -0.00000000000E+00 -0.45593999997E+02  0.45594000000E+02  0.51100000000E-03 0. -1.
    9900012    2    1    2    0    0  0.31008744632E+02  0.70957898231E+01  0.21974444274E+01  0.59301933468E+02  0.49999980741E+02 0.  0.
         12    1    1    2    0    0 -0.31008744632E+02 -0.70957898231E+01 -0.21974444274E+01  0.31886066532E+02  0.00000000000E+00 0. -1.
         11    1    3    3    0    0  0.28784567788E+02  0.67240400327E+01 -0.62383783742E+01  0.30210617704E+02  0.51100000000E-03 0. -1.
        -11    1    3    3    0    0 -0.10500163594E+01  0.57369473636E+01  0.17281985012E+02  0.18239575259E+02  0.51100000000E-03 0.  1.
        -12    1    3    3    0    0  0.32741932038E+01 -0.53651975732E+01 -0.88461622101E+01  0.10851740505E+02  0.00000000000E+00 0.  1.
</event>
<event>
 7    1  0.7579108E-012  0.5930191E+02  0.7816164E-02  0.1266605E+00
        -11   -1    0    0    0    0  0.00000000000E+00  0.00000000000E+00  0.45593999997E+02  0.45594000000E+02  0.51100000000E-03 0.  1.
         11   -1    0    0    0    0 -0.00000000000E+00 -0.00000000000E+00 -0.45593999997E+02  0.45594000000E+02  0.51100000000E-03 0. -1.
    9900012    2    1    2    0    0  0.30292463742E+02 -0.40128663863E+01  0.91096855507E+01  0.59301908564E+02  0.49999935323E+02 0.  0.
         12    1    1    2    0    0 -0.30292463742E+02  0.40128663863E+01 -0.91096855507E+01  0.31886091436E+02  0.00000000000E+00 0. -1.
         11    1    3    3    0    0  0.32223486720E+02  0.28601513958E+01  0.16981581361E+02  0.36536388275E+02  0.51100000000E-03 0.  1.
        -11    1    3    3    0    0  0.14228791957E+01 -0.11578660044E+02 -0.11136986397E+02  0.16128311130E+02  0.51100000000E-03 0. -1.
        -12    1    3    3    0    0 -0.33539021733E+01  0.47056422623E+01  0.32650905873E+01  0.66372091599E+01  0.00000000000E+00 0.  1.
</event>
<event>
 7    1  0.7579108E-012  0.5930170E+02  0.7816164E-02  0.1266606E+00
        -11   -1    0    0    0    0  0.00000000000E+00  0.00000000000E+00  0.45593999997E+02  0.45594000000E+02  0.51100000000E-03 0.  1.
         11   -1    0    0    0    0 -0.00000000000E+00 -0.00000000000E+00 -0.45593999997E+02  0.45594000000E+02  0.51100000000E-03 0. -1.
    9900012    2    1    2    0    0  0.21746837549E+02  0.19293969631E+02 -0.13097857362E+02  0.59301700827E+02  0.49999556457E+02 0.  0.
         12    1    1    2    0    0 -0.21746837549E+02 -0.19293969631E+02  0.13097857362E+02  0.31886299173E+02  0.00000000000E+00 0. -1.
         11    1    3    3    0    0  0.24357356273E+02  0.10304479973E+02  0.45185275526E+01  0.26830583364E+02  0.51100000000E-03 0.  1.
        -11    1    3    3    0    0  0.50321428730E+01 -0.13424520131E+00 -0.19748383978E+02  0.20379871287E+02  0.51100000000E-03 0. -1.
        -12    1    3    3    0    0 -0.76426615973E+01  0.91237348594E+01  0.21319990635E+01  0.12091246176E+02  0.00000000000E+00 0.  1.
</event>
<event>
 7    1  0.7579108E-012  0.5930194E+02  0.7816164E-02  0.1266605E+00
        -11   -1    0    0    0    0  0.00000000000E+00  0.00000000000E+00  0.45593999997E+02  0.45594000000E+02  0.51100000000E-03 0.  1.
         11   -1    0    0    0    0 -0.00000000000E+00 -0.00000000000E+00 -0.45593999997E+02  0.45594000000E+02  0.51100000000E-03 0. -1.
    9900012    2    1    2    0    0  0.25419411033E+02  0.43307338595E+01  0.18756837762E+02  0.59301942297E+02  0.49999996843E+02 0.  0.
         12    1    1    2    0    0 -0.25419411033E+02 -0.43307338595E+01 -0.18756837762E+02  0.31886057703E+02  0.00000000000E+00 0. -1.
         11    1    3    3    0    0  0.73346381813E+00  0.88784583577E+00 -0.10573966626E+02  0.10636494247E+02  0.51100000000E-03 0. -1.
        -11    1    3    3    0    0  0.26375774104E+02  0.65503262693E+01  0.33539255094E+02  0.43167926361E+02  0.51100000000E-03 0.  1.
        -12    1    3    3    0    0 -0.16898268890E+01 -0.31074382456E+01 -0.42084507062E+01  0.54975216881E+01  0.00000000000E+00 0.  1.
</event>
<event>
 7    1  0.7579108E-012  0.5930196E+02  0.7816164E-02  0.1266605E+00
        -11   -1    0    0    0    0  0.00000000000E+00  0.00000000000E+00  0.45593999997E+02  0.45594000000E+02  0.51100000000E-03 0.  1.
         11   -1    0    0    0    0 -0.00000000000E+00 -0.00000000000E+00 -0.45593999997E+02  0.45594000000E+02  0.51100000000E-03 0. -1.
    9900012    2    1    2    0    0 -0.23772017127E+02  0.21038710133E+02 -0.29972209180E+01  0.59301961432E+02  0.50000031741E+02 0.  0.
         12    1    1    2    0    0  0.23772017127E+02 -0.21038710133E+02  0.29972209180E+01  0.31886038568E+02  0.00000000000E+00 0. -1.
         11    1    3    3    0    0 -0.64854969843E+00 -0.39816928263E+01  0.95807861665E+01  0.10395477781E+02  0.51100000000E-03 0. -1.
        -11    1    3    3    0    0 -0.15958834070E+02  0.31630327836E+02 -0.15585786150E+02  0.38705022337E+02  0.51100000000E-03 0.  1.
         12    1    3    3    0    0 -0.71646333581E+01 -0.66099248768E+01  0.30077790657E+01  0.10201461314E+02  0.00000000000E+00 0. -1.
</event>
<event>
 7    1  0.7579108E-012  0.5930195E+02  0.7816164E-02  0.1266605E+00
        -11   -1    0    0    0    0  0.00000000000E+00  0.00000000000E+00  0.45593999997E+02  0.45594000000E+02  0.51100000000E-03 0. -1.
         11   -1    0    0    0    0 -0.00000000000E+00 -0.00000000000E+00 -0.45593999997E+02  0.45594000000E+02  0.51100000000E-03 0.  1.
    9900012    2    1    2    0    0  0.12500176659E+01  0.22706558024E+02  0.22351057042E+02  0.59301951760E+02  0.50000014102E+02 0.  0.
         12    1    1    2    0    0 -0.12500176659E+01 -0.22706558024E+02 -0.22351057042E+02  0.31886048240E+02  0.00000000000E+00 0. -1.
         11    1    3    3    0    0  0.14805041151E+02 -0.28483787464E+01  0.37668415635E+01  0.15540000019E+02  0.51100000000E-03 0. -1.
        -11    1    3    3    0    0 -0.17948253510E+02  0.15921155011E+02  0.22085662268E+02  0.32609806178E+02  0.51100000000E-03 0.  1.
         12    1    3    3    0    0  0.43932300250E+01  0.96337817594E+01 -0.35014467891E+01  0.11152145563E+02  0.00000000000E+00 0. -1.
</event>
<event>
 7    1  0.7579108E-012  0.5930196E+02  0.7816164E-02  0.1266605E+00
        -11   -1    0    0    0    0  0.00000000000E+00  0.00000000000E+00  0.45593999997E+02  0.45594000000E+02  0.51100000000E-03 0. -1.
         11   -1    0    0    0    0 -0.00000000000E+00 -0.00000000000E+00 -0.45593999997E+02  0.45594000000E+02  0.51100000000E-03 0.  1.
    9900012    2    1    2    0    0  0.11433788808E+02 -0.22234896857E+02 -0.19788819136E+02  0.59301960303E+02  0.50000029682E+02 0.  0.
         12    1    1    2    0    0 -0.11433788808E+02  0.22234896857E+02  0.19788819136E+02  0.31886039697E+02  0.00000000000E+00 0. -1.
         11    1    3    3    0    0  0.10489505452E+02 -0.24323850883E+02 -0.32396742949E+02  0.41847680944E+02  0.51100000000E-03 0.  1.
        -11    1    3    3    0    0 -0.26093782905E+01 -0.29979952378E+00  0.12897855634E+02  0.13162576307E+02  0.51100000000E-03 0. -1.
         12    1    3    3    0    0  0.35536616471E+01  0.23887535497E+01 -0.28993182161E+00  0.42917030517E+01  0.00000000000E+00 0. -1.
</event>
<event>
 7    1  0.7579108E-012  0.5930194E+02  0.7816164E-02  0.1266605E+00
        -11   -1    0    0    0    0  0.00000000000E+00  0.00000000000E+00  0.45593999997E+02  0.45594000000E+02  0.51100000000E-03 0.  1.
         11   -1    0    0    0    0 -0.00000000000E+00 -0.00000000000E+00 -0.45593999997E+02  0.45594000000E+02  0.51100000000E-03 0. -1.
    9900012    2    1    2    0    0 -0.49052819591E+01  0.62867506879E+01  0.30872894813E+02  0.59301942554E+02  0.49999997312E+02 0.  0.
         12    1    1    2    0    0  0.49052819591E+01 -0.62867506879E+01 -0.30872894813E+02  0.31886057446E+02  0.00000000000E+00 0. -1.
         11    1    3    3    0    0 -0.11175871759E+02 -0.43832956982E+01 -0.62225188632E+01  0.13521580233E+02  0.51100000000E-03 0. -1.
        -11    1    3    3    0    0  0.14361189044E+02  0.18766418711E+01  0.16372239771E+02  0.21858997480E+02  0.51100000000E-03 0.  1.
         12    1    3    3    0    0 -0.80905992443E+01  0.87934045149E+01  0.20723173906E+02  0.23921364840E+02  0.00000000000E+00 0. -1.
</event>
<event>
 7    1  0.7579108E-012  0.5930197E+02  0.7816164E-02  0.1266605E+00
        -11   -1    0    0    0    0  0.00000000000E+00  0.00000000000E+00  0.45593999997E+02  0.45594000000E+02  0.51100000000E-03 0.  1.
         11   -1    0    0    0    0 -0.00000000000E+00 -0.00000000000E+00 -0.45593999997E+02  0.45594000000E+02  0.51100000000E-03 0. -1.
    9900012    2    1    2    0    0 -0.11599748967E+02 -0.72591781284E+01  0.28800509523E+02  0.59301965565E+02  0.50000039279E+02 0.  0.
         12    1    1    2    0    0  0.11599748967E+02  0.72591781284E+01 -0.28800509523E+02  0.31886034435E+02  0.00000000000E+00 0. -1.
         11    1    3    3    0    0  0.92610047644E+01 -0.32811662339E+01 -0.58263105156E+01  0.11422703515E+02  0.51100000000E-03 0. -1.
        -11    1    3    3    0    0 -0.15977699601E+02 -0.14075192053E+02  0.26670445149E+02  0.34127856079E+02  0.51100000000E-03 0.  1.
        -12    1    3    3    0    0 -0.48830541306E+01  0.10097180158E+02  0.79563748895E+01  0.13751405971E+02  0.00000000000E+00 0.  1.
</event>
<event>
 7    1  0.7579108E-012  0.5930195E+02  0.7816164E-02  0.1266605E+00
        -11   -1    0    0    0    0  0.00000000000E+00  0.00000000000E+00  0.45593999997E+02  0.45594000000E+02  0.51100000000E-03 0. -1.
         11   -1    0    0    0    0 -0.00000000000E+00 -0.00000000000E+00 -0.45593999997E+02  0.45594000000E+02  0.51100000000E-03 0.  1.
    9900012    2    1    2    0    0  0.26181684105E+02  0.17684080869E+02 -0.43026668932E+01  0.59301949113E+02  0.50000009275E+02 0.  0.
         12    1    1    2    0    0 -0.26181684105E+02 -0.17684080869E+02  0.43026668932E+01  0.31886050887E+02  0.00000000000E+00 0. -1.
         11    1    3    3    0    0  0.27172857488E+02  0.56153118869E+01  0.17400352728E+02  0.32751613502E+02  0.51100000000E-03 0. -1.
        -11    1    3    3    0    0 -0.48987617550E+01  0.92086187091E+01 -0.15454087399E+02  0.18644713537E+02  0.51100000000E-03 0.  1.
         12    1    3    3    0    0  0.39075883717E+01  0.28601502734E+01 -0.62489322219E+01  0.79056220744E+01  0.00000000000E+00 0. -1.
</event>
<event>
 7    1  0.7579108E-012  0.5930181E+02  0.7816164E-02  0.1266605E+00
        -11   -1    0    0    0    0  0.00000000000E+00  0.00000000000E+00  0.45593999997E+02  0.45594000000E+02  0.51100000000E-03 0. -1.
         11   -1    0    0    0    0 -0.00000000000E+00 -0.00000000000E+00 -0.45593999997E+02  0.45594000000E+02  0.51100000000E-03 0.  1.
    9900012    2    1    2    0    0 -0.23385139043E+02 -0.38595187370E+01  0.21329990785E+02  0.59301809889E+02  0.49999755362E+02 0.  0.
         12    1    1    2    0    0  0.23385139043E+02  0.38595187370E+01 -0.21329990785E+02  0.31886190111E+02  0.00000000000E+00 0. -1.
         11    1    3    3    0    0 -0.20901254370E+02  0.32855746481E+01 -0.27683834833E+01  0.21338260997E+02  0.51100000000E-03 0.  1.
        -11    1    3    3    0    0  0.91606537253E+01  0.49776361431E+01  0.27322078003E+01  0.10777726939E+02  0.51100000000E-03 0. -1.
         12    1    3    3    0    0 -0.11644538398E+02 -0.12122729528E+02  0.21366166468E+02  0.27185821953E+02  0.00000000000E+00 0. -1.
</event>
<event>
 7    1  0.7579108E-012  0.5930195E+02  0.7816164E-02  0.1266605E+00
        -11   -1    0    0    0    0  0.00000000000E+00  0.00000000000E+00  0.45593999997E+02  0.45594000000E+02  0.51100000000E-03 0.  1.
         11   -1    0    0    0    0 -0.00000000000E+00 -0.00000000000E+00 -0.45593999997E+02  0.45594000000E+02  0.51100000000E-03 0. -1.
    9900012    2    1    2    0    0  0.22527734070E+02 -0.22527000357E+02  0.13249882122E+01  0.59301950681E+02  0.50000012134E+02 0.  0.
         12    1    1    2    0    0 -0.22527734070E+02  0.22527000357E+02 -0.13249882122E+01  0.31886049319E+02  0.00000000000E+00 0. -1.
         11    1    3    3    0    0  0.82408451135E+01 -0.15306009617E+01 -0.63326406073E+01  0.10505075193E+02  0.51100000000E-03 0. -1.
        -11    1    3    3    0    0 -0.13935913647E+02 -0.11433602337E+02  0.58164052913E+01  0.18941159477E+02  0.51100000000E-03 0.  1.
        -12    1    3    3    0    0  0.28222802604E+02 -0.95627970583E+01  0.18412235282E+01  0.29855716010E+02  0.00000000000E+00 0.  1.
</event>
<event>
 7    1  0.7579108E-012  0.5930198E+02  0.7816164E-02  0.1266605E+00
        -11   -1    0    0    0    0  0.00000000000E+00  0.00000000000E+00  0.45593999997E+02  0.45594000000E+02  0.51100000000E-03 0. -1.
         11   -1    0    0    0    0 -0.00000000000E+00 -0.00000000000E+00 -0.45593999997E+02  0.45594000000E+02  0.51100000000E-03 0.  1.
    9900012    2    1    2    0    0 -0.22995565148E+01 -0.30656823002E+02 -0.84610554020E+01  0.59301980881E+02  0.50000067212E+02 0.  0.
         12    1    1    2    0    0  0.22995565148E+01  0.30656823002E+02  0.84610554020E+01  0.31886019119E+02  0.00000000000E+00 0. -1.
         11    1    3    3    0    0 -0.85955549069E+01 -0.29561212404E+01  0.93683817928E+01  0.13053305889E+02  0.51100000000E-03 0. -1.
        -11    1    3    3    0    0  0.10731042205E+02 -0.31571437678E+02 -0.72237062907E+01  0.34118805324E+02  0.51100000000E-03 0.  1.
        -12    1    3    3    0    0 -0.44350438133E+01  0.38707359168E+01 -0.10605730904E+02  0.12129869668E+02  0.00000000000E+00 0.  1.
</event>
<event>
 7    1  0.7579108E-012  0.5930161E+02  0.7816164E-02  0.1266606E+00
        -11   -1    0    0    0    0  0.00000000000E+00  0.00000000000E+00  0.45593999997E+02  0.45594000000E+02  0.51100000000E-03 0. -1.
         11   -1    0    0    0    0 -0.00000000000E+00 -0.00000000000E+00 -0.45593999997E+02  0.45594000000E+02  0.51100000000E-03 0.  1.
    9900012    2    1    2    0    0  0.31161036158E+02 -0.21527698185E+01 -0.64107320543E+01  0.59301606698E+02  0.49999384788E+02 0.  0.
         12    1    1    2    0    0 -0.31161036158E+02  0.21527698185E+01  0.64107320543E+01  0.31886393302E+02  0.00000000000E+00 0. -1.
         11    1    3    3    0    0 -0.91599303487E+01  0.70242395787E+00 -0.73586489898E+01  0.11770617597E+02  0.51100000000E-03 0. -1.
        -11    1    3    3    0    0  0.28311867667E+02 -0.11317262563E+02  0.75711895321E+01  0.31416002195E+02  0.51100000000E-03 0.  1.
        -12    1    3    3    0    0  0.12009098840E+02  0.84620687867E+01 -0.66232725966E+01  0.16114986906E+02  0.00000000000E+00 0.  1.
</event>
<event>
 7    1  0.7579108E-012  0.5930195E+02  0.7816164E-02  0.1266605E+00
        -11   -1    0    0    0    0  0.00000000000E+00  0.00000000000E+00  0.45593999997E+02  0.45594000000E+02  0.51100000000E-03 0.  1.
         11   -1    0    0    0    0 -0.00000000000E+00 -0.00000000000E+00 -0.45593999997E+02  0.45594000000E+02  0.51100000000E-03 0. -1.
    9900012    2    1    2    0    0  0.23065604795E+02 -0.21785342139E+02  0.31776136106E+01  0.59301945290E+02  0.50000002303E+02 0.  0.
         12    1    1    2    0    0 -0.23065604795E+02  0.21785342139E+02 -0.31776136106E+01  0.31886054710E+02  0.00000000000E+00 0. -1.
         11    1    3    3    0    0  0.96731766575E+01 -0.29197478665E+01 -0.20602675794E+02  0.22947015588E+02  0.51100000000E-03 0. -1.
        -11    1    3    3    0    0  0.10847538023E+01 -0.28556191683E+01  0.13216183374E+02  0.13564614071E+02  0.51100000000E-03 0.  1.
         12    1    3    3    0    0  0.12307674335E+02 -0.16009975104E+02  0.10564106030E+02  0.22790315632E+02  0.00000000000E+00 0. -1.
</event>
<event>
 7    1  0.7579108E-012  0.5930188E+02  0.7816164E-02  0.1266605E+00
        -11   -1    0    0    0    0  0.00000000000E+00  0.00000000000E+00  0.45593999997E+02  0.45594000000E+02  0.51100000000E-03 0. -1.
         11   -1    0    0    0    0 -0.00000000000E+00 -0.00000000000E+00 -0.45593999997E+02  0.45594000000E+02  0.51100000000E-03 0.  1.
    9900012    2    1    2    0    0 -0.22275107951E+02 -0.19654370819E+02 -0.11586615403E+02  0.59301884165E+02  0.49999890825E+02 0.  0.
         12    1    1    2    0    0  0.22275107951E+02  0.19654370819E+02  0.11586615403E+02  0.31886115835E+02  0.00000000000E+00 0. -1.
         11    1    3    3    0    0  0.28897031446E+01 -0.21074168881E+02 -0.16182501743E+02  0.26727220978E+02  0.51100000000E-03 0. -1.
        -11    1    3    3    0    0 -0.28337737523E+02  0.32905389617E+01  0.45656628391E+01  0.28891180177E+02  0.51100000000E-03 0.  1.
         12    1    3    3    0    0  0.31729264274E+01 -0.18707409002E+01  0.30223500202E-01  0.36834830106E+01  0.00000000000E+00 0. -1.
</event>
<event>
 7    1  0.7579108E-012  0.5930196E+02  0.7816164E-02  0.1266605E+00
        -11   -1    0    0    0    0  0.00000000000E+00  0.00000000000E+00  0.45593999997E+02  0.45594000000E+02  0.51100000000E-03 0. -1.
         11   -1    0    0    0    0 -0.00000000000E+00 -0.00000000000E+00 -0.45593999997E+02  0.45594000000E+02  0.51100000000E-03 0.  1.
    9900012    2    1    2    0    0 -0.19719794520E+02 -0.18222406715E+02 -0.17198632828E+02  0.59301962718E+02  0.50000034087E+02 0.  0.
         12    1    1    2    0    0  0.19719794520E+02  0.18222406715E+02  0.17198632828E+02  0.31886037282E+02  0.00000000000E+00 0. -1.
         11    1    3    3    0    0  0.54492870148E+01  0.15479246402E+01 -0.75921463268E+01  0.94726704667E+01  0.51100000000E-03 0. -1.
        -11    1    3    3    0    0 -0.23806182739E+02 -0.15753037868E+02  0.96328614420E+01  0.30127803745E+02  0.51100000000E-03 0.  1.
        -12    1    3    3    0    0 -0.13628987955E+01 -0.40172934871E+01 -0.19239347943E+02  0.19701488507E+02  0.00000000000E+00 0.  1.
</event>
<event>
 7    1  0.7579108E-012  0.5930196E+02  0.7816164E-02  0.1266605E+00
        -11   -1    0    0    0    0  0.00000000000E+00  0.00000000000E+00  0.45593999997E+02  0.45594000000E+02  0.51100000000E-03 0. -1.
         11   -1    0    0    0    0 -0.00000000000E+00 -0.00000000000E+00 -0.45593999997E+02  0.45594000000E+02  0.51100000000E-03 0.  1.
    9900012    2    1    2    0    0  0.56625667170E+01  0.27808426949E+01 -0.31255750801E+02  0.59301957504E+02  0.50000024578E+02 0.  0.
         12    1    1    2    0    0 -0.56625667170E+01 -0.27808426949E+01  0.31255750801E+02  0.31886042496E+02  0.00000000000E+00 0. -1.
         11    1    3    3    0    0  0.11110105175E+02  0.46493380819E+01 -0.80909826216E+01  0.14509127529E+02  0.51100000000E-03 0. -1.
        -11    1    3    3    0    0 -0.88730455150E+00 -0.15628086190E+02  0.19709609132E+01  0.15776852491E+02  0.51100000000E-03 0.  1.
        -12    1    3    3    0    0 -0.45602339063E+01  0.13759590803E+02 -0.25135729093E+02  0.29015977484E+02  0.00000000000E+00 0.  1.
</event>
<event>
 7    1  0.7579108E-012  0.5930194E+02  0.7816164E-02  0.1266605E+00
        -11   -1    0    0    0    0  0.00000000000E+00  0.00000000000E+00  0.45593999997E+02  0.45594000000E+02  0.51100000000E-03 0.  1.
         11   -1    0    0    0    0 -0.00000000000E+00 -0.00000000000E+00 -0.45593999997E+02  0.45594000000E+02  0.51100000000E-03 0. -1.
    9900012    2    1    2    0    0  0.28581523758E+00 -0.30046254771E+02  0.10670605768E+02  0.59301938098E+02  0.49999989186E+02 0.  0.
         12    1    1    2    0    0 -0.28581523758E+00  0.30046254771E+02 -0.10670605768E+02  0.31886061902E+02  0.00000000000E+00 0. -1.
         11    1    3    3    0    0 -0.63958833159E+01 -0.21331089696E+01 -0.63761971579E+01  0.92797288605E+01  0.51100000000E-03 0. -1.
        -11    1    3    3    0    0 -0.29767022792E+01 -0.67874332572E+01  0.24524087524E+02  0.25619540898E+02  0.51100000000E-03 0.  1.
        -12    1    3    3    0    0  0.96584008327E+01 -0.21125712544E+02 -0.74772845977E+01  0.24402668340E+02  0.00000000000E+00 0.  1.
</event>
<event>
 7    1  0.7579108E-012  0.5930195E+02  0.7816164E-02  0.1266605E+00
        -11   -1    0    0    0    0  0.00000000000E+00  0.00000000000E+00  0.45593999997E+02  0.45594000000E+02  0.51100000000E-03 0.  1.
         11   -1    0    0    0    0 -0.00000000000E+00 -0.00000000000E+00 -0.45593999997E+02  0.45594000000E+02  0.51100000000E-03 0. -1.
    9900012    2    1    2    0    0  0.25544468875E+02 -0.47307883196E+01  0.18488368491E+02  0.59301952617E+02  0.50000015665E+02 0.  0.
         12    1    1    2    0    0 -0.25544468875E+02  0.47307883196E+01 -0.18488368491E+02  0.31886047383E+02  0.00000000000E+00 0. -1.
         11    1    3    3    0    0  0.11289565987E+02 -0.49860024205E+01 -0.13114131365E+02  0.18008191525E+02  0.51100000000E-03 0. -1.
        -11    1    3    3    0    0  0.61349275826E+01 -0.48399388652E+01  0.30684347192E+02  0.31663725421E+02  0.51100000000E-03 0.  1.
        -12    1    3    3    0    0  0.81199753058E+01  0.50951529662E+01  0.91815266405E+00  0.96300356712E+01  0.00000000000E+00 0.  1.
</event>
<event>
 7    1  0.7579108E-012  0.5930182E+02  0.7816164E-02  0.1266605E+00
        -11   -1    0    0    0    0  0.00000000000E+00  0.00000000000E+00  0.45593999997E+02  0.45594000000E+02  0.51100000000E-03 0.  1.
         11   -1    0    0    0    0 -0.00000000000E+00 -0.00000000000E+00 -0.45593999997E+02  0.45594000000E+02  0.51100000000E-03 0. -1.
    9900012    2    1    2    0    0  0.59442473753E+01  0.24786640752E+02  0.19157678604E+02  0.59301822962E+02  0.49999779205E+02 0.  0.
         12    1    1    2    0    0 -0.59442473753E+01 -0.24786640752E+02 -0.19157678604E+02  0.31886177038E+02  0.00000000000E+00 0. -1.
         11    1    3    3    0    0 -0.15096827757E+02  0.20637031024E+02 -0.47802197679E+01  0.26012530809E+02  0.51100000000E-03 0.  1.
        -11    1    3    3    0    0  0.19594271090E+02  0.50507354990E+01  0.17901391139E+02  0.27016757644E+02  0.51100000000E-03 0. -1.
        -12    1    3    3    0    0  0.14468040421E+01 -0.90112577059E+00  0.60365072326E+01  0.62725345085E+01  0.00000000000E+00 0.  1.
</event>
<event>
 7    1  0.7579108E-012  0.5930191E+02  0.7816164E-02  0.1266605E+00
        -11   -1    0    0    0    0  0.00000000000E+00  0.00000000000E+00  0.45593999997E+02  0.45594000000E+02  0.51100000000E-03 0. -1.
         11   -1    0    0    0    0 -0.00000000000E+00 -0.00000000000E+00 -0.45593999997E+02  0.45594000000E+02  0.51100000000E-03 0.  1.
    9900012    2    1    2    0    0 -0.13348312891E+02 -0.21522288100E+02 -0.19373592533E+02  0.59301914794E+02  0.49999946685E+02 0.  0.
         12    1    1    2    0    0  0.13348312891E+02  0.21522288100E+02  0.19373592533E+02  0.31886085206E+02  0.00000000000E+00 0. -1.
         11    1    3    3    0    0 -0.12917319174E+02  0.44427600991E+01  0.99988607035E+01  0.16928451423E+02  0.51100000000E-03 0. -1.
        -11    1    3    3    0    0  0.23932949552E+01 -0.25836835216E+02 -0.29800781327E+02  0.39514003628E+02  0.51100000000E-03 0.  1.
        -12    1    3    3    0    0 -0.28242886720E+01 -0.12821298293E+00  0.42832809051E+00  0.28594597435E+01  0.00000000000E+00 0.  1.
</event>
<event>
 7    1  0.7579108E-012  0.5930194E+02  0.7816164E-02  0.1266605E+00
        -11   -1    0    0    0    0  0.00000000000E+00  0.00000000000E+00  0.45593999997E+02  0.45594000000E+02  0.51100000000E-03 0. -1.
         11   -1    0    0    0    0 -0.00000000000E+00 -0.00000000000E+00 -0.45593999997E+02  0.45594000000E+02  0.51100000000E-03 0.  1.
    9900012    2    1    2    0    0  0.11984281607E+02  0.12721012500E+02 -0.26669717796E+02  0.59301937026E+02  0.49999987231E+02 0.  0.
         12    1    1    2    0    0 -0.11984281607E+02 -0.12721012500E+02  0.26669717796E+02  0.31886062974E+02  0.00000000000E+00 0. -1.
         11    1    3    3    0    0 -0.15526194328E+02 -0.46542824705E+01 -0.49653150914E+00  0.16216399089E+02  0.51100000000E-03 0. -1.
        -11    1    3    3    0    0  0.87852323556E+01  0.11589584806E+02 -0.96754454583E+01  0.17467484896E+02  0.51100000000E-03 0.  1.
         12    1    3    3    0    0  0.18725243579E+02  0.57857101653E+01 -0.16497740828E+02  0.25618053041E+02  0.00000000000E+00 0. -1.
</event>
<event>
 7    1  0.7579108E-012  0.5930193E+02  0.7816164E-02  0.1266605E+00
        -11   -1    0    0    0    0  0.00000000000E+00  0.00000000000E+00  0.45593999997E+02  0.45594000000E+02  0.51100000000E-03 0.  1.
         11   -1    0    0    0    0 -0.00000000000E+00 -0.00000000000E+00 -0.45593999997E+02  0.45594000000E+02  0.51100000000E-03 0. -1.
    9900012    2    1    2    0    0  0.20148282626E+02  0.27010411400E+01  0.24565676846E+02  0.59301931022E+02  0.49999976280E+02 0.  0.
         12    1    1    2    0    0 -0.20148282626E+02 -0.27010411400E+01 -0.24565676846E+02  0.31886068978E+02  0.00000000000E+00 0. -1.
         11    1    3    3    0    0  0.69634055700E+01 -0.56270311254E+01 -0.11900669254E+02  0.14892227012E+02  0.51100000000E-03 0. -1.
        -11    1    3    3    0    0  0.14626376445E+02  0.13533843814E+02  0.29346034155E+02  0.35472320719E+02  0.51100000000E-03 0.  1.
         12    1    3    3    0    0 -0.14414993890E+01 -0.52057715482E+01  0.71203119448E+01  0.89373832911E+01  0.00000000000E+00 0. -1.
</event>
<event>
 7    1  0.7579108E-012  0.5930194E+02  0.7816164E-02  0.1266605E+00
        -11   -1    0    0    0    0  0.00000000000E+00  0.00000000000E+00  0.45593999997E+02  0.45594000000E+02  0.51100000000E-03 0.  1.
         11   -1    0    0    0    0 -0.00000000000E+00 -0.00000000000E+00 -0.45593999997E+02  0.45594000000E+02  0.51100000000E-03 0. -1.
    9900012    2    1    2    0    0 -0.96588862430E+01 -0.48673638259E+01  0.29995587600E+02  0.59301943650E+02  0.49999999311E+02 0.  0.
         12    1    1    2    0    0  0.96588862430E+01  0.48673638259E+01 -0.29995587600E+02  0.31886056350E+02  0.00000000000E+00 0. -1.
         11    1    3    3    0    0  0.47296948161E+01 -0.13931558710E+02 -0.43672615174E+00  0.14719003741E+02  0.51100000000E-03 0. -1.
        -11    1    3    3    0    0 -0.16723338818E+02 -0.24516156420E+01  0.27810498177E+02  0.32543882522E+02  0.51100000000E-03 0.  1.
         12    1    3    3    0    0  0.23347577592E+01  0.11515810526E+02  0.26218155756E+01  0.12039057387E+02  0.00000000000E+00 0. -1.
</event>
<event>
 7    1  0.7579108E-012  0.5930198E+02  0.7816164E-02  0.1266605E+00
        -11   -1    0    0    0    0  0.00000000000E+00  0.00000000000E+00  0.45593999997E+02  0.45594000000E+02  0.51100000000E-03 0.  1.
         11   -1    0    0    0    0 -0.00000000000E+00 -0.00000000000E+00 -0.45593999997E+02  0.45594000000E+02  0.51100000000E-03 0. -1.
    9900012    2    1    2    0    0  0.27658563563E+02 -0.11660441255E+02  0.10758999275E+02  0.59301982782E+02  0.50000070679E+02 0.  0.
         12    1    1    2    0    0 -0.27658563563E+02  0.11660441255E+02 -0.10758999275E+02  0.31886017218E+02  0.00000000000E+00 0. -1.
         11    1    3    3    0    0 -0.97075907503E+01 -0.10775786989E+02  0.11918388388E+02  0.18772396902E+02  0.51100000000E-03 0.  1.
        -11    1    3    3    0    0  0.22200099658E+02  0.36812094570E+01  0.57860785735E+01  0.23235198157E+02  0.51100000000E-03 0. -1.
        -12    1    3    3    0    0  0.15166054655E+02 -0.45658637228E+01 -0.69454676865E+01  0.17294387723E+02  0.00000000000E+00 0.  1.
</event>
<event>
 7    1  0.7579108E-012  0.5930198E+02  0.7816164E-02  0.1266605E+00
        -11   -1    0    0    0    0  0.00000000000E+00  0.00000000000E+00  0.45593999997E+02  0.45594000000E+02  0.51100000000E-03 0.  1.
         11   -1    0    0    0    0 -0.00000000000E+00 -0.00000000000E+00 -0.45593999997E+02  0.45594000000E+02  0.51100000000E-03 0. -1.
    9900012    2    1    2    0    0  0.30763043621E+02  0.83389419373E+01 -0.90307405140E+00  0.59301978796E+02  0.50000063409E+02 0.  0.
         12    1    1    2    0    0 -0.30763043621E+02 -0.83389419373E+01  0.90307405140E+00  0.31886021204E+02  0.00000000000E+00 0. -1.
         11    1    3    3    0    0 -0.75394393675E+01  0.47537628440E+01  0.10258828577E+02  0.13589884885E+02  0.51100000000E-03 0. -1.
        -11    1    3    3    0    0  0.37234979306E+02 -0.26610064533E+00 -0.39213848100E+01  0.37441844941E+02  0.51100000000E-03 0.  1.
        -12    1    3    3    0    0  0.10675036823E+01  0.38512797386E+01 -0.72405178187E+01  0.82702489697E+01  0.00000000000E+00 0.  1.
</event>
<event>
 7    1  0.7579108E-012  0.5930199E+02  0.7816164E-02  0.1266605E+00
        -11   -1    0    0    0    0  0.00000000000E+00  0.00000000000E+00  0.45593999997E+02  0.45594000000E+02  0.51100000000E-03 0. -1.
         11   -1    0    0    0    0 -0.00000000000E+00 -0.00000000000E+00 -0.45593999997E+02  0.45594000000E+02  0.51100000000E-03 0.  1.
    9900012    2    1    2    0    0 -0.48088169420E+01 -0.87106660114E+01 -0.30293848734E+02  0.59301989057E+02  0.50000082123E+02 0.  0.
         12    1    1    2    0    0  0.48088169420E+01  0.87106660114E+01  0.30293848734E+02  0.31886010943E+02  0.00000000000E+00 0. -1.
         11    1    3    3    0    0  0.13510827635E+02 -0.10212320269E+01 -0.90106530319E+00  0.13579296637E+02  0.51100000000E-03 0. -1.
        -11    1    3    3    0    0 -0.16747113006E+02 -0.16262863622E+02 -0.11953859936E+02  0.26226728634E+02  0.51100000000E-03 0.  1.
        -12    1    3    3    0    0 -0.15725315706E+01  0.85734296375E+01 -0.17438923494E+02  0.19495963786E+02  0.00000000000E+00 0.  1.
</event>
<event>
 7    1  0.7579108E-012  0.5930195E+02  0.7816164E-02  0.1266605E+00
        -11   -1    0    0    0    0  0.00000000000E+00  0.00000000000E+00  0.45593999997E+02  0.45594000000E+02  0.51100000000E-03 0.  1.
         11   -1    0    0    0    0 -0.00000000000E+00 -0.00000000000E+00 -0.45593999997E+02  0.45594000000E+02  0.51100000000E-03 0. -1.
    9900012    2    1    2    0    0 -0.19566998340E+02 -0.15090329632E+02  0.20152783323E+02  0.59301950572E+02  0.50000011936E+02 0.  0.
         12    1    1    2    0    0  0.19566998340E+02  0.15090329632E+02 -0.20152783323E+02  0.31886049428E+02  0.00000000000E+00 0. -1.
         11    1    3    3    0    0 -0.62557652585E-01  0.15040299458E+02  0.34562453028E+00  0.15044400215E+02  0.51100000000E-03 0. -1.
        -11    1    3    3    0    0  0.28830463877E+00 -0.23757066581E+01  0.77300633365E+01  0.80920319535E+01  0.51100000000E-03 0.  1.
         12    1    3    3    0    0 -0.19792745326E+02 -0.27754922432E+02  0.12077095456E+02  0.36165518404E+02  0.00000000000E+00 0. -1.
</event>
<event>
 7    1  0.7579108E-012  0.5930194E+02  0.7816164E-02  0.1266605E+00
        -11   -1    0    0    0    0  0.00000000000E+00  0.00000000000E+00  0.45593999997E+02  0.45594000000E+02  0.51100000000E-03 0. -1.
         11   -1    0    0    0    0 -0.00000000000E+00 -0.00000000000E+00 -0.45593999997E+02  0.45594000000E+02  0.51100000000E-03 0.  1.
    9900012    2    1    2    0    0  0.14374009288E+02 -0.27367065308E+02  0.78200178151E+01  0.59301935878E+02  0.49999985136E+02 0.  0.
         12    1    1    2    0    0 -0.14374009288E+02  0.27367065308E+02 -0.78200178151E+01  0.31886064122E+02  0.00000000000E+00 0. -1.
         11    1    3    3    0    0 -0.68002462304E+01  0.99919238961E+01 -0.31476938211E+00  0.12090532328E+02  0.51100000000E-03 0. -1.
        -11    1    3    3    0    0  0.14234215122E+01 -0.18559741621E+02 -0.46509926614E+00  0.18620055194E+02  0.51100000000E-03 0.  1.
         12    1    3    3    0    0  0.19750834007E+02 -0.18799247583E+02  0.85998864633E+01  0.28591348356E+02  0.00000000000E+00 0. -1.
</event>
<event>
 7    1  0.7579108E-012  0.5930195E+02  0.7816164E-02  0.1266605E+00
        -11   -1    0    0    0    0  0.00000000000E+00  0.00000000000E+00  0.45593999997E+02  0.45594000000E+02  0.51100000000E-03 0. -1.
         11   -1    0    0    0    0 -0.00000000000E+00 -0.00000000000E+00 -0.45593999997E+02  0.45594000000E+02  0.51100000000E-03 0.  1.
    9900012    2    1    2    0    0  0.16640538186E+02  0.55637308517E+01 -0.26624378901E+02  0.59301950324E+02  0.50000011483E+02 0.  0.
         12    1    1    2    0    0 -0.16640538186E+02 -0.55637308517E+01  0.26624378901E+02  0.31886049676E+02  0.00000000000E+00 0. -1.
         11    1    3    3    0    0  0.14679406691E+02  0.12486506951E+01 -0.62207007401E+01  0.15991911309E+02  0.51100000000E-03 0. -1.
        -11    1    3    3    0    0 -0.72074987511E+01  0.16571317853E+02 -0.21354353860E+02  0.27974364027E+02  0.51100000000E-03 0.  1.
        -12    1    3    3    0    0  0.91686302463E+01 -0.12256237697E+02  0.95067569968E+00  0.15335674989E+02  0.00000000000E+00 0.  1.
</event>
<event>
 7    1  0.7579108E-012  0.5930194E+02  0.7816164E-02  0.1266605E+00
        -11   -1    0    0    0    0  0.00000000000E+00  0.00000000000E+00  0.45593999997E+02  0.45594000000E+02  0.51100000000E-03 0.  1.
         11   -1    0    0    0    0 -0.00000000000E+00 -0.00000000000E+00 -0.45593999997E+02  0.45594000000E+02  0.51100000000E-03 0. -1.
    9900012    2    1    2    0    0  0.23209635433E+01  0.30646739094E+02  0.84918574960E+01  0.59301935135E+02  0.49999983781E+02 0.  0.
         12    1    1    2    0    0 -0.23209635433E+01 -0.30646739094E+02 -0.84918574960E+01  0.31886064865E+02  0.00000000000E+00 0. -1.
         11    1    3    3    0    0  0.70990269155E+01  0.53326565066E+01 -0.15182864862E+02  0.17588427850E+02  0.51100000000E-03 0. -1.
        -11    1    3    3    0    0 -0.11975180677E+02  0.67755164192E+01  0.56504440506E+01  0.14874141764E+02  0.51100000000E-03 0.  1.
         12    1    3    3    0    0  0.71971173045E+01  0.18538566168E+02  0.18024278307E+02  0.26839365521E+02  0.00000000000E+00 0. -1.
</event>
<event>
 7    1  0.7579108E-012  0.5930191E+02  0.7816164E-02  0.1266605E+00
        -11   -1    0    0    0    0  0.00000000000E+00  0.00000000000E+00  0.45593999997E+02  0.45594000000E+02  0.51100000000E-03 0.  1.
         11   -1    0    0    0    0 -0.00000000000E+00 -0.00000000000E+00 -0.45593999997E+02  0.45594000000E+02  0.51100000000E-03 0. -1.
    9900012    2    1    2    0    0 -0.13938890184E+02 -0.14617453226E+02  0.24673059546E+02  0.59301914230E+02  0.49999945655E+02 0.  0.
         12    1    1    2    0    0  0.13938890184E+02  0.14617453226E+02 -0.24673059546E+02  0.31886085770E+02  0.00000000000E+00 0. -1.
         11    1    3    3    0    0 -0.76219963551E+01 -0.16660700845E+02 -0.82611963779E+01  0.20097789604E+02  0.51100000000E-03 0. -1.
        -11    1    3    3    0    0  0.39175481823E-01  0.10021488389E+02  0.22404542581E+02  0.24543742436E+02  0.51100000000E-03 0.  1.
         12    1    3    3    0    0 -0.63560693109E+01 -0.79782407694E+01  0.10529713344E+02  0.14660382190E+02  0.00000000000E+00 0. -1.
</event>
<event>
 7    1  0.7579108E-012  0.5930189E+02  0.7816164E-02  0.1266605E+00
        -11   -1    0    0    0    0  0.00000000000E+00  0.00000000000E+00  0.45593999997E+02  0.45594000000E+02  0.51100000000E-03 0. -1.
         11   -1    0    0    0    0 -0.00000000000E+00 -0.00000000000E+00 -0.45593999997E+02  0.45594000000E+02  0.51100000000E-03 0.  1.
    9900012    2    1    2    0    0  0.21236515057E+01  0.31157791381E+02 -0.64347400900E+01  0.59301894256E+02  0.49999909229E+02 0.  0.
         12    1    1    2    0    0 -0.21236515057E+01 -0.31157791381E+02  0.64347400900E+01  0.31886105744E+02  0.00000000000E+00 0. -1.
         11    1    3    3    0    0  0.11337454079E+01 -0.39806274341E+00 -0.36188411285E+01  0.38131147336E+01  0.51100000000E-03 0. -1.
        -11    1    3    3    0    0  0.36635749463E+00  0.22568863441E+02  0.20500908556E+02  0.30492213214E+02  0.51100000000E-03 0.  1.
        -12    1    3    3    0    0  0.62354860314E+00  0.89869906835E+01 -0.23316807517E+02  0.24996566308E+02  0.00000000000E+00 0.  1.
</event>
<event>
 7    1  0.7579108E-012  0.5930195E+02  0.7816164E-02  0.1266605E+00
        -11   -1    0    0    0    0  0.00000000000E+00  0.00000000000E+00  0.45593999997E+02  0.45594000000E+02  0.51100000000E-03 0. -1.
         11   -1    0    0    0    0 -0.00000000000E+00 -0.00000000000E+00 -0.45593999997E+02  0.45594000000E+02  0.51100000000E-03 0.  1.
    9900012    2    1    2    0    0 -0.18044388854E+02  0.25826497832E+02  0.49104315495E+01  0.59301948231E+02  0.50000007666E+02 0.  0.
         12    1    1    2    0    0  0.18044388854E+02 -0.25826497832E+02 -0.49104315495E+01  0.31886051769E+02  0.00000000000E+00 0. -1.
         11    1    3    3    0    0 -0.58774575195E+01  0.16727195008E+02 -0.15093449956E+02  0.23284239124E+02  0.51100000000E-03 0. -1.
        -11    1    3    3    0    0 -0.92394388968E+01 -0.56165876876E+01  0.17836182748E+02  0.20857677331E+02  0.51100000000E-03 0.  1.
         12    1    3    3    0    0 -0.29274924380E+01  0.14715890512E+02  0.21676987580E+01  0.15160031776E+02  0.00000000000E+00 0. -1.
</event>
<event>
 7    1  0.7579108E-012  0.5930195E+02  0.7816164E-02  0.1266605E+00
        -11   -1    0    0    0    0  0.00000000000E+00  0.00000000000E+00  0.45593999997E+02  0.45594000000E+02  0.51100000000E-03 0.  1.
         11   -1    0    0    0    0 -0.00000000000E+00 -0.00000000000E+00 -0.45593999997E+02  0.45594000000E+02  0.51100000000E-03 0. -1.
    9900012    2    1    2    0    0  0.63243797858E+01 -0.99886119401E+01  0.29613337301E+02  0.59301954553E+02  0.50000019195E+02 0.  0.
         12    1    1    2    0    0 -0.63243797858E+01  0.99886119401E+01 -0.29613337301E+02  0.31886045447E+02  0.00000000000E+00 0. -1.
         11    1    3    3    0    0  0.99037700825E+00 -0.18850326883E+02 -0.57650751358E+01  0.19737065684E+02  0.51100000000E-03 0. -1.
        -11    1    3    3    0    0  0.71087010825E+01  0.77373961300E+00  0.26399207927E+02  0.27350511576E+02  0.51100000000E-03 0.  1.
         12    1    3    3    0    0 -0.17746983050E+01  0.80879753302E+01  0.89792045102E+01  0.12214377293E+02  0.00000000000E+00 0. -1.
</event>
<event>
 7    1  0.7579108E-012  0.5930193E+02  0.7816164E-02  0.1266605E+00
        -11   -1    0    0    0    0  0.00000000000E+00  0.00000000000E+00  0.45593999997E+02  0.45594000000E+02  0.51100000000E-03 0.  1.
         11   -1    0    0    0    0 -0.00000000000E+00 -0.00000000000E+00 -0.45593999997E+02  0.45594000000E+02  0.51100000000E-03 0. -1.
    9900012    2    1    2    0    0  0.19486556904E+02 -0.13955857880E+01  0.25200155778E+02  0.59301930771E+02  0.49999975822E+02 0.  0.
         12    1    1    2    0    0 -0.19486556904E+02  0.13955857880E+01 -0.25200155778E+02  0.31886069229E+02  0.00000000000E+00 0. -1.
         11    1    3    3    0    0  0.45741221602E+01 -0.10743226396E+02 -0.26388452960E+01  0.11970923594E+02  0.51100000000E-03 0. -1.
        -11    1    3    3    0    0  0.71650862526E+01  0.21894727004E+02  0.20597552775E+02  0.30902697490E+02  0.51100000000E-03 0.  1.
         12    1    3    3    0    0  0.77473484911E+01 -0.12547086397E+02  0.72414482993E+01  0.16428309687E+02  0.00000000000E+00 0. -1.
</event>
<event>
 7    1  0.7579108E-012  0.5930197E+02  0.7816164E-02  0.1266605E+00
        -11   -1    0    0    0    0  0.00000000000E+00  0.00000000000E+00  0.45593999997E+02  0.45594000000E+02  0.51100000000E-03 0.  1.
         11   -1    0    0    0    0 -0.00000000000E+00 -0.00000000000E+00 -0.45593999997E+02  0.45594000000E+02  0.51100000000E-03 0. -1.
    9900012    2    1    2    0    0 -0.28710248489E+02 -0.78464301436E+01  0.11440030856E+02  0.59301966375E+02  0.50000040757E+02 0.  0.
         12    1    1    2    0    0  0.28710248489E+02  0.78464301436E+01 -0.11440030856E+02  0.31886033625E+02  0.00000000000E+00 0. -1.
         11    1    3    3    0    0 -0.28702335310E+02  0.12051979964E+02  0.10583260297E+02  0.32879776035E+02  0.51100000000E-03 0. -1.
        -11    1    3    3    0    0 -0.46812884265E+01 -0.90921397655E+00 -0.40541518406E+01  0.62591755683E+01  0.51100000000E-03 0.  1.
         12    1    3    3    0    0  0.46733752472E+01 -0.18989196131E+02  0.49109223992E+01  0.20163014773E+02  0.00000000000E+00 0. -1.
</event>
<event>
 7    1  0.7579108E-012  0.5930197E+02  0.7816164E-02  0.1266605E+00
        -11   -1    0    0    0    0  0.00000000000E+00  0.00000000000E+00  0.45593999997E+02  0.45594000000E+02  0.51100000000E-03 0.  1.
         11   -1    0    0    0    0 -0.00000000000E+00 -0.00000000000E+00 -0.45593999997E+02  0.45594000000E+02  0.51100000000E-03 0. -1.
    9900012    2    1    2    0    0  0.28822705076E+01 -0.17613494534E+02  0.26423027564E+02  0.59301967656E+02  0.50000043093E+02 0.  0.
         12    1    1    2    0    0 -0.28822705076E+01  0.17613494534E+02 -0.26423027564E+02  0.31886032344E+02  0.00000000000E+00 0. -1.
         11    1    3    3    0    0 -0.75633019176E+01  0.11822930080E+02  0.13666617000E+02  0.19589834916E+02  0.51100000000E-03 0.  1.
        -11    1    3    3    0    0  0.14309057846E+02 -0.23760687066E+02  0.16104976724E+02  0.32073192261E+02  0.51100000000E-03 0. -1.
         12    1    3    3    0    0 -0.38634854208E+01 -0.56757375479E+01 -0.33485661601E+01  0.76389404788E+01  0.00000000000E+00 0. -1.
</event>
<event>
 7    1  0.7579108E-012  0.5930196E+02  0.7816164E-02  0.1266605E+00
        -11   -1    0    0    0    0  0.00000000000E+00  0.00000000000E+00  0.45593999997E+02  0.45594000000E+02  0.51100000000E-03 0. -1.
         11   -1    0    0    0    0 -0.00000000000E+00 -0.00000000000E+00 -0.45593999997E+02  0.45594000000E+02  0.51100000000E-03 0.  1.
    9900012    2    1    2    0    0  0.12228864113E+02  0.16282808649E+02 -0.24536601760E+02  0.59301956016E+02  0.50000021864E+02 0.  0.
         12    1    1    2    0    0 -0.12228864113E+02 -0.16282808649E+02  0.24536601760E+02  0.31886043984E+02  0.00000000000E+00 0. -1.
         11    1    3    3    0    0  0.10630693569E+01  0.21301161620E+00  0.50903067232E+01  0.52044897160E+01  0.51100000000E-03 0. -1.
        -11    1    3    3    0    0  0.16208391755E+02 -0.37532745802E+01 -0.29237097143E+02  0.33639365080E+02  0.51100000000E-03 0.  1.
        -12    1    3    3    0    0 -0.50425969990E+01  0.19823071613E+02 -0.38981134030E+00  0.20458101221E+02  0.00000000000E+00 0.  1.
</event>
<event>
 7    1  0.7579108E-012  0.5930196E+02  0.7816164E-02  0.1266605E+00
        -11   -1    0    0    0    0  0.00000000000E+00  0.00000000000E+00  0.45593999997E+02  0.45594000000E+02  0.51100000000E-03 0. -1.
         11   -1    0    0    0    0 -0.00000000000E+00 -0.00000000000E+00 -0.45593999997E+02  0.45594000000E+02  0.51100000000E-03 0.  1.
    9900012    2    1    2    0    0 -0.15695286303E+02  0.26520574757E+02  0.81876042196E+01  0.59301956652E+02  0.50000023023E+02 0.  0.
         12    1    1    2    0    0  0.15695286303E+02 -0.26520574757E+02 -0.81876042196E+01  0.31886043348E+02  0.00000000000E+00 0. -1.
         11    1    3    3    0    0 -0.10525615095E+02  0.14373520340E+02  0.21843196997E+02  0.28187087743E+02  0.51100000000E-03 0. -1.
        -11    1    3    3    0    0 -0.34960079245E+01  0.18804222930E+02 -0.14763665058E+02  0.24161677873E+02  0.51100000000E-03 0.  1.
        -12    1    3    3    0    0 -0.16736632828E+01 -0.66571685139E+01  0.11080722799E+01  0.69531910360E+01  0.00000000000E+00 0.  1.
</event>
<event>
 7    1  0.7579108E-012  0.5930193E+02  0.7816164E-02  0.1266605E+00
        -11   -1    0    0    0    0  0.00000000000E+00  0.00000000000E+00  0.45593999997E+02  0.45594000000E+02  0.51100000000E-03 0. -1.
         11   -1    0    0    0    0 -0.00000000000E+00 -0.00000000000E+00 -0.45593999997E+02  0.45594000000E+02  0.51100000000E-03 0.  1.
    9900012    2    1    2    0    0 -0.14507742930E+01  0.94335710939E+01 -0.30424078822E+02  0.59301928091E+02  0.49999970934E+02 0.  0.
         12    1    1    2    0    0  0.14507742930E+01 -0.94335710939E+01  0.30424078822E+02  0.31886071909E+02  0.00000000000E+00 0. -1.
         11    1    3    3    0    0  0.82626492405E+01  0.15086763681E+02 -0.51205780766E+01  0.17947203987E+02  0.51100000000E-03 0. -1.
        -11    1    3    3    0    0 -0.16471776046E+02 -0.13511337681E+02 -0.11871314369E+02  0.24388598917E+02  0.51100000000E-03 0.  1.
        -12    1    3    3    0    0  0.67583525121E+01  0.78581450942E+01 -0.13432186376E+02  0.16966125187E+02  0.00000000000E+00 0.  1.
</event>
<event>
 7    1  0.7579108E-012  0.5930192E+02  0.7816164E-02  0.1266605E+00
        -11   -1    0    0    0    0  0.00000000000E+00  0.00000000000E+00  0.45593999997E+02  0.45594000000E+02  0.51100000000E-03 0.  1.
         11   -1    0    0    0    0 -0.00000000000E+00 -0.00000000000E+00 -0.45593999997E+02  0.45594000000E+02  0.51100000000E-03 0. -1.
    9900012    2    1    2    0    0  0.21773638922E+02  0.18215573512E+02  0.14519766253E+02  0.59301920243E+02  0.49999956621E+02 0.  0.
         12    1    1    2    0    0 -0.21773638922E+02 -0.18215573512E+02 -0.14519766253E+02  0.31886079757E+02  0.00000000000E+00 0. -1.
         11    1    3    3    0    0 -0.51796829331E+01 -0.62530763031E+01 -0.79713562850E+00  0.81587685352E+01  0.51100000000E-03 0. -1.
        -11    1    3    3    0    0  0.11681010248E+02  0.29926705554E+02  0.68501535020E+01  0.32847805239E+02  0.51100000000E-03 0.  1.
        -12    1    3    3    0    0  0.15272311607E+02 -0.54580557398E+01  0.84667483796E+01  0.18295346468E+02  0.00000000000E+00 0.  1.
</event>
<event>
 7    1  0.7579108E-012  0.5930188E+02  0.7816164E-02  0.1266605E+00
        -11   -1    0    0    0    0  0.00000000000E+00  0.00000000000E+00  0.45593999997E+02  0.45594000000E+02  0.51100000000E-03 0.  1.
         11   -1    0    0    0    0 -0.00000000000E+00 -0.00000000000E+00 -0.45593999997E+02  0.45594000000E+02  0.51100000000E-03 0. -1.
    9900012    2    1    2    0    0  0.13983042217E+02 -0.24649187831E+02  0.14615629422E+02  0.59301881487E+02  0.49999885941E+02 0.  0.
         12    1    1    2    0    0 -0.13983042217E+02  0.24649187831E+02 -0.14615629422E+02  0.31886118513E+02  0.00000000000E+00 0. -1.
         11    1    3    3    0    0 -0.11757487617E+02 -0.17509724260E+01  0.25841915184E+01  0.12164804379E+02  0.51100000000E-03 0.  1.
        -11    1    3    3    0    0  0.22850978820E+02 -0.48671693667E+01 -0.29075875168E+01  0.23543802499E+02  0.51100000000E-03 0. -1.
         12    1    3    3    0    0  0.28895510150E+01 -0.18031046039E+02  0.14939025421E+02  0.23593274610E+02  0.00000000000E+00 0. -1.
</event>
<event>
 7    1  0.7579108E-012  0.5930192E+02  0.7816164E-02  0.1266605E+00
        -11   -1    0    0    0    0  0.00000000000E+00  0.00000000000E+00  0.45593999997E+02  0.45594000000E+02  0.51100000000E-03 0.  1.
         11   -1    0    0    0    0 -0.00000000000E+00 -0.00000000000E+00 -0.45593999997E+02  0.45594000000E+02  0.51100000000E-03 0. -1.
    9900012    2    1    2    0    0  0.26427444073E+02 -0.75263022843E+01  0.16176122843E+02  0.59301921901E+02  0.49999959646E+02 0.  0.
         12    1    1    2    0    0 -0.26427444073E+02  0.75263022843E+01 -0.16176122843E+02  0.31886078099E+02  0.00000000000E+00 0. -1.
         11    1    3    3    0    0 -0.13521343583E+02 -0.72238567486E+01  0.19015058962E+01  0.15447542314E+02  0.51100000000E-03 0. -1.
        -11    1    3    3    0    0  0.14426772881E+02  0.50930436945E+01  0.66043761708E+01  0.16663992760E+02  0.51100000000E-03 0.  1.
         12    1    3    3    0    0  0.25522014775E+02 -0.53954892302E+01  0.76702407763E+01  0.27190386826E+02  0.00000000000E+00 0. -1.
</event>
<event>
 7    1  0.7579108E-012  0.5930185E+02  0.7816164E-02  0.1266605E+00
        -11   -1    0    0    0    0  0.00000000000E+00  0.00000000000E+00  0.45593999997E+02  0.45594000000E+02  0.51100000000E-03 0.  1.
         11   -1    0    0    0    0 -0.00000000000E+00 -0.00000000000E+00 -0.45593999997E+02  0.45594000000E+02  0.51100000000E-03 0. -1.
    9900012    2    1    2    0    0 -0.12911812171E+02  0.82021292016E+01  0.27977428867E+02  0.59301853431E+02  0.49999834774E+02 0.  0.
         12    1    1    2    0    0  0.12911812171E+02 -0.82021292016E+01 -0.27977428867E+02  0.31886146569E+02  0.00000000000E+00 0. -1.
         11    1    3    3    0    0  0.32840149855E+00  0.19459261602E+02 -0.30888594899E+01  0.19705627695E+02  0.51100000000E-03 0. -1.
        -11    1    3    3    0    0 -0.52627775359E+01 -0.38573428326E+01  0.27319930174E+02  0.28088333986E+02  0.51100000000E-03 0.  1.
        -12    1    3    3    0    0 -0.79774361334E+01 -0.73997895679E+01  0.37463581835E+01  0.11507891751E+02  0.00000000000E+00 0.  1.
</event>
<event>
 7    1  0.7579108E-012  0.5930195E+02  0.7816164E-02  0.1266605E+00
        -11   -1    0    0    0    0  0.00000000000E+00  0.00000000000E+00  0.45593999997E+02  0.45594000000E+02  0.51100000000E-03 0. -1.
         11   -1    0    0    0    0 -0.00000000000E+00 -0.00000000000E+00 -0.45593999997E+02  0.45594000000E+02  0.51100000000E-03 0.  1.
    9900012    2    1    2    0    0 -0.39511783099E+01 -0.31608272482E+02 -0.14233020843E+01  0.59301945240E+02  0.50000002212E+02 0.  0.
         12    1    1    2    0    0  0.39511783099E+01  0.31608272482E+02  0.14233020843E+01  0.31886054760E+02  0.00000000000E+00 0. -1.
         11    1    3    3    0    0  0.48792941028E+01 -0.26730678956E+02  0.19856947742E+02  0.33654644290E+02  0.51100000000E-03 0.  1.
        -11    1    3    3    0    0 -0.10613830084E+02 -0.20644729343E+01 -0.14444472635E+02  0.18043232180E+02  0.51100000000E-03 0. -1.
        -12    1    3    3    0    0  0.17833576718E+01 -0.28131205917E+01 -0.68357771916E+01  0.76040687702E+01  0.00000000000E+00 0.  1.
</event>
<event>
 7    1  0.7579108E-012  0.5930194E+02  0.7816164E-02  0.1266605E+00
        -11   -1    0    0    0    0  0.00000000000E+00  0.00000000000E+00  0.45593999997E+02  0.45594000000E+02  0.51100000000E-03 0. -1.
         11   -1    0    0    0    0 -0.00000000000E+00 -0.00000000000E+00 -0.45593999997E+02  0.45594000000E+02  0.51100000000E-03 0.  1.
    9900012    2    1    2    0    0 -0.30588683193E+02 -0.56064895880E+01  0.70441789397E+01  0.59301941574E+02  0.49999995526E+02 0.  0.
         12    1    1    2    0    0  0.30588683193E+02  0.56064895880E+01 -0.70441789397E+01  0.31886058426E+02  0.00000000000E+00 0. -1.
         11    1    3    3    0    0 -0.88481186860E+01  0.19889397643E+02  0.62243002078E+01  0.22641096622E+02  0.51100000000E-03 0. -1.
        -11    1    3    3    0    0 -0.10643558102E+01 -0.40318134744E+00 -0.36663653070E+01  0.38389638335E+01  0.51100000000E-03 0.  1.
         12    1    3    3    0    0 -0.20676208697E+02 -0.25092705884E+02  0.44862440388E+01  0.32821881119E+02  0.00000000000E+00 0. -1.
</event>
<event>
 7    1  0.7579108E-012  0.5930196E+02  0.7816164E-02  0.1266605E+00
        -11   -1    0    0    0    0  0.00000000000E+00  0.00000000000E+00  0.45593999997E+02  0.45594000000E+02  0.51100000000E-03 0. -1.
         11   -1    0    0    0    0 -0.00000000000E+00 -0.00000000000E+00 -0.45593999997E+02  0.45594000000E+02  0.51100000000E-03 0.  1.
    9900012    2    1    2    0    0 -0.91992234706E+01 -0.89950381641E+01 -0.29175038596E+02  0.59301963854E+02  0.50000036158E+02 0.  0.
         12    1    1    2    0    0  0.91992234706E+01  0.89950381641E+01  0.29175038596E+02  0.31886036146E+02  0.00000000000E+00 0. -1.
         11    1    3    3    0    0  0.39536346799E+01  0.57474798107E+01  0.20004740347E+01  0.72571790650E+01  0.51100000000E-03 0. -1.
        -11    1    3    3    0    0 -0.23781599106E+02 -0.22638900549E+01 -0.24862501117E+02  0.34479466589E+02  0.51100000000E-03 0.  1.
        -12    1    3    3    0    0  0.10628740956E+02 -0.12478627920E+02 -0.63130115143E+01  0.17565318200E+02  0.00000000000E+00 0.  1.
</event>
<event>
 7    1  0.7579108E-012  0.5930190E+02  0.7816164E-02  0.1266605E+00
        -11   -1    0    0    0    0  0.00000000000E+00  0.00000000000E+00  0.45593999997E+02  0.45594000000E+02  0.51100000000E-03 0.  1.
         11   -1    0    0    0    0 -0.00000000000E+00 -0.00000000000E+00 -0.45593999997E+02  0.45594000000E+02  0.51100000000E-03 0. -1.
    9900012    2    1    2    0    0  0.11350254043E+02  0.28294999469E+02  0.93428217690E+01  0.59301896751E+02  0.49999913779E+02 0.  0.
         12    1    1    2    0    0 -0.11350254043E+02 -0.28294999469E+02 -0.93428217690E+01  0.31886103249E+02  0.00000000000E+00 0. -1.
         11    1    3    3    0    0  0.22950516100E+01  0.13495030997E+02 -0.15666757707E+02  0.20804576920E+02  0.51100000000E-03 0. -1.
        -11    1    3    3    0    0 -0.70328830948E+01  0.22698431555E+01  0.18079094755E+01  0.76080332221E+01  0.51100000000E-03 0.  1.
         12    1    3    3    0    0  0.16088085528E+02  0.12530125317E+02  0.23201670001E+02  0.30889286609E+02  0.00000000000E+00 0. -1.
</event>
<event>
 7    1  0.7579108E-012  0.5930195E+02  0.7816164E-02  0.1266605E+00
        -11   -1    0    0    0    0  0.00000000000E+00  0.00000000000E+00  0.45593999997E+02  0.45594000000E+02  0.51100000000E-03 0.  1.
         11   -1    0    0    0    0 -0.00000000000E+00 -0.00000000000E+00 -0.45593999997E+02  0.45594000000E+02  0.51100000000E-03 0. -1.
    9900012    2    1    2    0    0 -0.65542680020E+01  0.15331697615E+02  0.27179050693E+02  0.59301950114E+02  0.50000011099E+02 0.  0.
         12    1    1    2    0    0  0.65542680020E+01 -0.15331697615E+02 -0.27179050693E+02  0.31886049886E+02  0.00000000000E+00 0. -1.
         11    1    3    3    0    0 -0.67189504243E+00  0.22054882444E+01 -0.96112598896E+01  0.98839232226E+01  0.51100000000E-03 0. -1.
        -11    1    3    3    0    0 -0.99561459387E+01 -0.28105059919E+00  0.33602395281E+02  0.35047464962E+02  0.51100000000E-03 0.  1.
        -12    1    3    3    0    0  0.40737729792E+01  0.13407259970E+02  0.31879153016E+01  0.14370561929E+02  0.00000000000E+00 0.  1.
</event>
<event>
 7    1  0.7579108E-012  0.5930195E+02  0.7816164E-02  0.1266605E+00
        -11   -1    0    0    0    0  0.00000000000E+00  0.00000000000E+00  0.45593999997E+02  0.45594000000E+02  0.51100000000E-03 0. -1.
         11   -1    0    0    0    0 -0.00000000000E+00 -0.00000000000E+00 -0.45593999997E+02  0.45594000000E+02  0.51100000000E-03 0.  1.
    9900012    2    1    2    0    0  0.16040187996E+02  0.17887139198E+02 -0.20963845801E+02  0.59301949595E+02  0.50000010154E+02 0.  0.
         12    1    1    2    0    0 -0.16040187996E+02 -0.17887139198E+02  0.20963845801E+02  0.31886050405E+02  0.00000000000E+00 0. -1.
         11    1    3    3    0    0  0.61526090756E+01  0.22488770493E+02 -0.15761004128E+01  0.23368429333E+02  0.51100000000E-03 0.  1.
        -11    1    3    3    0    0  0.18634433329E+02 -0.65995909813E+01 -0.18222578979E+02  0.26886038970E+02  0.51100000000E-03 0. -1.
        -12    1    3    3    0    0 -0.87468544089E+01  0.19979596856E+01 -0.11651664099E+01  0.90474812914E+01  0.00000000000E+00 0.  1.
</event>
<event>
 7    1  0.7579108E-012  0.5930196E+02  0.7816164E-02  0.1266605E+00
        -11   -1    0    0    0    0  0.00000000000E+00  0.00000000000E+00  0.45593999997E+02  0.45594000000E+02  0.51100000000E-03 0.  1.
         11   -1    0    0    0    0 -0.00000000000E+00 -0.00000000000E+00 -0.45593999997E+02  0.45594000000E+02  0.51100000000E-03 0. -1.
    9900012    2    1    2    0    0  0.16294948073E+00  0.26799388260E+02  0.17276750083E+02  0.59301955136E+02  0.50000020258E+02 0.  0.
         12    1    1    2    0    0 -0.16294948073E+00 -0.26799388260E+02 -0.17276750083E+02  0.31886044864E+02  0.00000000000E+00 0. -1.
         11    1    3    3    0    0 -0.22516237878E+02  0.12476587504E+02  0.15434674434E+02  0.30014586105E+02  0.51100000000E-03 0. -1.
        -11    1    3    3    0    0  0.86501449975E+01  0.12189194257E+02  0.21078624848E+01  0.15094520517E+02  0.51100000000E-03 0.  1.
         12    1    3    3    0    0  0.14029042362E+02  0.21336064989E+01 -0.26578683522E+00  0.14192848513E+02  0.00000000000E+00 0. -1.
</event>
<event>
 7    1  0.7579108E-012  0.5930195E+02  0.7816164E-02  0.1266605E+00
        -11   -1    0    0    0    0  0.00000000000E+00  0.00000000000E+00  0.45593999997E+02  0.45594000000E+02  0.51100000000E-03 0. -1.
         11   -1    0    0    0    0 -0.00000000000E+00 -0.00000000000E+00 -0.45593999997E+02  0.45594000000E+02  0.51100000000E-03 0.  1.
    9900012    2    1    2    0    0 -0.70124109521E+01  0.29843064500E+02 -0.87714328464E+01  0.59301945991E+02  0.50000003581E+02 0.  0.
         12    1    1    2    0    0  0.70124109521E+01 -0.29843064500E+02  0.87714328464E+01  0.31886054009E+02  0.00000000000E+00 0. -1.
         11    1    3    3    0    0  0.65503715409E+01 -0.54288009056E-01  0.24271946744E+01  0.69858133929E+01  0.51100000000E-03 0. -1.
        -11    1    3    3    0    0 -0.19593615333E+02  0.26104284705E+02  0.64615328275E+01  0.33273034856E+02  0.51100000000E-03 0.  1.
        -12    1    3    3    0    0  0.60308328395E+01  0.37930678036E+01 -0.17660160348E+02  0.19043097742E+02  0.00000000000E+00 0.  1.
</event>
<event>
 7    1  0.7579108E-012  0.5930193E+02  0.7816164E-02  0.1266605E+00
        -11   -1    0    0    0    0  0.00000000000E+00  0.00000000000E+00  0.45593999997E+02  0.45594000000E+02  0.51100000000E-03 0. -1.
         11   -1    0    0    0    0 -0.00000000000E+00 -0.00000000000E+00 -0.45593999997E+02  0.45594000000E+02  0.51100000000E-03 0.  1.
    9900012    2    1    2    0    0  0.30034215764E+02 -0.42465132873E+01 -0.98302732657E+01  0.59301933072E+02  0.49999980020E+02 0.  0.
         12    1    1    2    0    0 -0.30034215764E+02  0.42465132873E+01  0.98302732657E+01  0.31886066928E+02  0.00000000000E+00 0. -1.
         11    1    3    3    0    0 -0.47719635503E+00 -0.17702877366E+02 -0.55693173472E+01  0.18564398169E+02  0.51100000000E-03 0. -1.
        -11    1    3    3    0    0  0.11014003170E+02  0.11771374141E+02 -0.11574562111E+02  0.19845503353E+02  0.51100000000E-03 0.  1.
         12    1    3    3    0    0  0.19497408948E+02  0.16849899377E+01  0.73136061920E+01  0.20892031551E+02  0.00000000000E+00 0. -1.
</event>
<event>
 7    1  0.7579108E-012  0.5930195E+02  0.7816164E-02  0.1266605E+00
        -11   -1    0    0    0    0  0.00000000000E+00  0.00000000000E+00  0.45593999997E+02  0.45594000000E+02  0.51100000000E-03 0. -1.
         11   -1    0    0    0    0 -0.00000000000E+00 -0.00000000000E+00 -0.45593999997E+02  0.45594000000E+02  0.51100000000E-03 0.  1.
    9900012    2    1    2    0    0 -0.19720004284E+02 -0.92842689777E+01 -0.23273248318E+02  0.59301948085E+02  0.50000007400E+02 0.  0.
         12    1    1    2    0    0  0.19720004284E+02  0.92842689777E+01  0.23273248318E+02  0.31886051915E+02  0.00000000000E+00 0. -1.
         11    1    3    3    0    0 -0.36508257841E+01 -0.77048204554E+01  0.71525081804E+01  0.11128843637E+02  0.51100000000E-03 0. -1.
        -11    1    3    3    0    0 -0.11624318220E+01 -0.12554670415E+01 -0.32998223220E+02  0.33042551070E+02  0.51100000000E-03 0.  1.
        -12    1    3    3    0    0 -0.14906746678E+02 -0.32398148079E+00  0.25724667219E+01  0.15130553379E+02  0.00000000000E+00 0.  1.
</event>
<event>
 7    1  0.7579108E-012  0.5930194E+02  0.7816164E-02  0.1266605E+00
        -11   -1    0    0    0    0  0.00000000000E+00  0.00000000000E+00  0.45593999997E+02  0.45594000000E+02  0.51100000000E-03 0. -1.
         11   -1    0    0    0    0 -0.00000000000E+00 -0.00000000000E+00 -0.45593999997E+02  0.45594000000E+02  0.51100000000E-03 0.  1.
    9900012    2    1    2    0    0  0.10746253265E+02  0.22899387495E+02 -0.19412803582E+02  0.59301939569E+02  0.49999991868E+02 0.  0.
         12    1    1    2    0    0 -0.10746253265E+02 -0.22899387495E+02  0.19412803582E+02  0.31886060431E+02  0.00000000000E+00 0. -1.
         11    1    3    3    0    0 -0.69063307800E+01  0.11500502084E+02  0.29301538538E+01  0.13731159998E+02  0.51100000000E-03 0. -1.
        -11    1    3    3    0    0  0.22846452331E+02  0.91681278950E+01 -0.28198349282E+02  0.37432096598E+02  0.51100000000E-03 0.  1.
        -12    1    3    3    0    0 -0.51938682860E+01  0.22307575160E+01  0.58553918460E+01  0.81386829732E+01  0.00000000000E+00 0.  1.
</event>
<event>
 7    1  0.7579108E-012  0.5930193E+02  0.7816164E-02  0.1266605E+00
        -11   -1    0    0    0    0  0.00000000000E+00  0.00000000000E+00  0.45593999997E+02  0.45594000000E+02  0.51100000000E-03 0.  1.
         11   -1    0    0    0    0 -0.00000000000E+00 -0.00000000000E+00 -0.45593999997E+02  0.45594000000E+02  0.51100000000E-03 0. -1.
    9900012    2    1    2    0    0 -0.14980304083E+02 -0.39921086670E+01  0.27863501817E+02  0.59301934462E+02  0.49999982554E+02 0.  0.
         12    1    1    2    0    0  0.14980304083E+02  0.39921086670E+01 -0.27863501817E+02  0.31886065538E+02  0.00000000000E+00 0. -1.
         11    1    3    3    0    0  0.15001308299E+01 -0.17945968978E+02  0.10452157736E+02  0.20822002705E+02  0.51100000000E-03 0. -1.
        -11    1    3    3    0    0 -0.12080445696E+02  0.11157380689E+02  0.24605796826E+02  0.29595093339E+02  0.51100000000E-03 0.  1.
         12    1    3    3    0    0 -0.43999892169E+01  0.27964796213E+01 -0.71944527457E+01  0.88848384167E+01  0.00000000000E+00 0. -1.
</event>
<event>
 7    1  0.7579108E-012  0.5930194E+02  0.7816164E-02  0.1266605E+00
        -11   -1    0    0    0    0  0.00000000000E+00  0.00000000000E+00  0.45593999997E+02  0.45594000000E+02  0.51100000000E-03 0.  1.
         11   -1    0    0    0    0 -0.00000000000E+00 -0.00000000000E+00 -0.45593999997E+02  0.45594000000E+02  0.51100000000E-03 0. -1.
    9900012    2    1    2    0    0 -0.31029990681E+01 -0.30835171019E+02 -0.75022975995E+01  0.59301939656E+02  0.49999992026E+02 0.  0.
         12    1    1    2    0    0  0.31029990681E+01  0.30835171019E+02  0.75022975995E+01  0.31886060344E+02  0.00000000000E+00 0. -1.
         11    1    3    3    0    0 -0.16788761722E+02 -0.25999401577E+02 -0.14566080829E+02  0.34205293647E+02  0.51100000000E-03 0. -1.
        -11    1    3    3    0    0  0.13054880172E+02 -0.11475176938E+02  0.45269120904E+01  0.17961139034E+02  0.51100000000E-03 0.  1.
        -12    1    3    3    0    0  0.63088248248E+00  0.66394074958E+01  0.25368711393E+01  0.71355069742E+01  0.00000000000E+00 0.  1.
</event>
<event>
 7    1  0.7579108E-012  0.5930188E+02  0.7816164E-02  0.1266605E+00
        -11   -1    0    0    0    0  0.00000000000E+00  0.00000000000E+00  0.45593999997E+02  0.45594000000E+02  0.51100000000E-03 0. -1.
         11   -1    0    0    0    0 -0.00000000000E+00 -0.00000000000E+00 -0.45593999997E+02  0.45594000000E+02  0.51100000000E-03 0.  1.
    9900012    2    1    2    0    0 -0.10705097853E+02 -0.29834507203E+02 -0.34680709142E+01  0.59301883022E+02  0.49999888739E+02 0.  0.
         12    1    1    2    0    0  0.10705097853E+02  0.29834507203E+02  0.34680709142E+01  0.31886116978E+02  0.00000000000E+00 0. -1.
         11    1    3    3    0    0  0.28862723849E+01  0.55604767281E+01 -0.16359086713E+02  0.17517682155E+02  0.51100000000E-03 0. -1.
        -11    1    3    3    0    0 -0.13290628544E+02 -0.22307289121E+02  0.48346169493E+01  0.26412676433E+02  0.51100000000E-03 0.  1.
         12    1    3    3    0    0 -0.30074169349E+00 -0.13087694810E+02  0.80563988496E+01  0.15371524434E+02  0.00000000000E+00 0. -1.
</event>
<event>
 7    1  0.7579108E-012  0.5930193E+02  0.7816164E-02  0.1266605E+00
        -11   -1    0    0    0    0  0.00000000000E+00  0.00000000000E+00  0.45593999997E+02  0.45594000000E+02  0.51100000000E-03 0.  1.
         11   -1    0    0    0    0 -0.00000000000E+00 -0.00000000000E+00 -0.45593999997E+02  0.45594000000E+02  0.51100000000E-03 0. -1.
    9900012    2    1    2    0    0  0.21216776537E+02  0.89830672826E+00  0.23785776697E+02  0.59301925694E+02  0.49999966563E+02 0.  0.
         12    1    1    2    0    0 -0.21216776537E+02 -0.89830672826E+00 -0.23785776697E+02  0.31886074306E+02  0.00000000000E+00 0. -1.
         11    1    3    3    0    0  0.62252403542E+01  0.11204898140E+02  0.17229093067E+01  0.12933359059E+02  0.51100000000E-03 0. -1.
        -11    1    3    3    0    0  0.14570012327E+01 -0.13874537421E+02  0.27907626362E+02  0.31200340553E+02  0.51100000000E-03 0.  1.
        -12    1    3    3    0    0  0.13534534950E+02  0.35679460088E+01 -0.58447589714E+01  0.15168226082E+02  0.00000000000E+00 0.  1.
</event>
<event>
 7    1  0.7579108E-012  0.5930194E+02  0.7816164E-02  0.1266605E+00
        -11   -1    0    0    0    0  0.00000000000E+00  0.00000000000E+00  0.45593999997E+02  0.45594000000E+02  0.51100000000E-03 0. -1.
         11   -1    0    0    0    0 -0.00000000000E+00 -0.00000000000E+00 -0.45593999997E+02  0.45594000000E+02  0.51100000000E-03 0.  1.
    9900012    2    1    2    0    0  0.27400946108E+02 -0.15207625450E+02 -0.58853443647E+01  0.59301937249E+02  0.49999987638E+02 0.  0.
         12    1    1    2    0    0 -0.27400946108E+02  0.15207625450E+02  0.58853443647E+01  0.31886062751E+02  0.00000000000E+00 0. -1.
         11    1    3    3    0    0 -0.95729963453E+01 -0.32361143192E+01 -0.11042590746E+02  0.14968416935E+02  0.51100000000E-03 0. -1.
        -11    1    3    3    0    0  0.29311967433E+02 -0.96167276143E+01 -0.51502260675E+01  0.31276152475E+02  0.51100000000E-03 0.  1.
         12    1    3    3    0    0  0.76619750198E+01 -0.23547835166E+01  0.10307472448E+02  0.13057367839E+02  0.00000000000E+00 0. -1.
</event>
<event>
 7    1  0.7579108E-012  0.5930194E+02  0.7816164E-02  0.1266605E+00
        -11   -1    0    0    0    0  0.00000000000E+00  0.00000000000E+00  0.45593999997E+02  0.45594000000E+02  0.51100000000E-03 0. -1.
         11   -1    0    0    0    0 -0.00000000000E+00 -0.00000000000E+00 -0.45593999997E+02  0.45594000000E+02  0.51100000000E-03 0.  1.
    9900012    2    1    2    0    0  0.22738244684E+02 -0.19428012901E+02 -0.11056468556E+02  0.59301937943E+02  0.49999988903E+02 0.  0.
         12    1    1    2    0    0 -0.22738244684E+02  0.19428012901E+02  0.11056468556E+02  0.31886062057E+02  0.00000000000E+00 0. -1.
         11    1    3    3    0    0 -0.12347772843E+02 -0.92057900756E+01 -0.10663925412E+02  0.18733215702E+02  0.51100000000E-03 0. -1.
        -11    1    3    3    0    0  0.10731913344E+02 -0.34047331984E+01 -0.83930175722E+01  0.14043109214E+02  0.51100000000E-03 0.  1.
         12    1    3    3    0    0  0.24354104182E+02 -0.68174896274E+01  0.80004744288E+01  0.26525613026E+02  0.00000000000E+00 0. -1.
</event>
<event>
 7    1  0.7579108E-012  0.5930193E+02  0.7816164E-02  0.1266605E+00
        -11   -1    0    0    0    0  0.00000000000E+00  0.00000000000E+00  0.45593999997E+02  0.45594000000E+02  0.51100000000E-03 0. -1.
         11   -1    0    0    0    0 -0.00000000000E+00 -0.00000000000E+00 -0.45593999997E+02  0.45594000000E+02  0.51100000000E-03 0.  1.
    9900012    2    1    2    0    0  0.19758184222E+02 -0.23271223947E+02 -0.92079122536E+01  0.59301931635E+02  0.49999977399E+02 0.  0.
         12    1    1    2    0    0 -0.19758184222E+02  0.23271223947E+02  0.92079122536E+01  0.31886068365E+02  0.00000000000E+00 0. -1.
         11    1    3    3    0    0  0.12159322303E+02  0.10815240582E+02 -0.10374490344E+02  0.19298927376E+02  0.51100000000E-03 0. -1.
        -11    1    3    3    0    0  0.90266844584E+01 -0.78196351912E+01 -0.50601881480E+01  0.12970475365E+02  0.51100000000E-03 0.  1.
         12    1    3    3    0    0 -0.14278225395E+01 -0.26266829337E+02  0.62267662382E+01  0.27032528894E+02  0.00000000000E+00 0. -1.
</event>
<event>
 7    1  0.7579108E-012  0.5930195E+02  0.7816164E-02  0.1266605E+00
        -11   -1    0    0    0    0  0.00000000000E+00  0.00000000000E+00  0.45593999997E+02  0.45594000000E+02  0.51100000000E-03 0. -1.
         11   -1    0    0    0    0 -0.00000000000E+00 -0.00000000000E+00 -0.45593999997E+02  0.45594000000E+02  0.51100000000E-03 0.  1.
    9900012    2    1    2    0    0 -0.97259537321E+01  0.70343643385E+01 -0.29540546248E+02  0.59301947716E+02  0.50000006726E+02 0.  0.
         12    1    1    2    0    0  0.97259537321E+01 -0.70343643385E+01  0.29540546248E+02  0.31886052284E+02  0.00000000000E+00 0. -1.
         11    1    3    3    0    0  0.11036609614E+02  0.91352800385E+01 -0.13031501530E+02  0.19366985453E+02  0.51100000000E-03 0. -1.
        -11    1    3    3    0    0 -0.15279392610E+02 -0.15548325108E+02 -0.89741354372E+01  0.23574252041E+02  0.51100000000E-03 0.  1.
        -12    1    3    3    0    0 -0.54831707369E+01  0.13447409408E+02 -0.75349092805E+01  0.16360710222E+02  0.00000000000E+00 0.  1.
</event>
<event>
 7    1  0.7579108E-012  0.5930195E+02  0.7816164E-02  0.1266605E+00
        -11   -1    0    0    0    0  0.00000000000E+00  0.00000000000E+00  0.45593999997E+02  0.45594000000E+02  0.51100000000E-03 0. -1.
         11   -1    0    0    0    0 -0.00000000000E+00 -0.00000000000E+00 -0.45593999997E+02  0.45594000000E+02  0.51100000000E-03 0.  1.
    9900012    2    1    2    0    0  0.25380617669E+02 -0.48730981830E+00 -0.19295254002E+02  0.59301952093E+02  0.50000014709E+02 0.  0.
         12    1    1    2    0    0 -0.25380617669E+02  0.48730981830E+00  0.19295254002E+02  0.31886047907E+02  0.00000000000E+00 0. -1.
         11    1    3    3    0    0  0.18429057848E+02 -0.25823305882E+00 -0.15750449182E+01  0.18498043795E+02  0.51100000000E-03 0.  1.
        -11    1    3    3    0    0 -0.28245225887E+01 -0.16692195018E+02 -0.44394755023E+01  0.17501892623E+02  0.51100000000E-03 0. -1.
         12    1    3    3    0    0  0.97760824100E+01  0.16463118259E+02 -0.13280733581E+02  0.23302015676E+02  0.00000000000E+00 0. -1.
</event>
<event>
 7    1  0.7579108E-012  0.5930196E+02  0.7816164E-02  0.1266605E+00
        -11   -1    0    0    0    0  0.00000000000E+00  0.00000000000E+00  0.45593999997E+02  0.45594000000E+02  0.51100000000E-03 0.  1.
         11   -1    0    0    0    0 -0.00000000000E+00 -0.00000000000E+00 -0.45593999997E+02  0.45594000000E+02  0.51100000000E-03 0. -1.
    9900012    2    1    2    0    0  0.22246647719E+02 -0.13485551380E+02  0.18437624532E+02  0.59301961846E+02  0.50000032497E+02 0.  0.
         12    1    1    2    0    0 -0.22246647719E+02  0.13485551380E+02 -0.18437624532E+02  0.31886038154E+02  0.00000000000E+00 0. -1.
         11    1    3    3    0    0  0.38243802073E+01  0.68162391182E+01 -0.41093283862E+01  0.88302649866E+01  0.51100000000E-03 0.  1.
        -11    1    3    3    0    0  0.15089913659E+02 -0.24833901427E+02  0.19544871792E+01  0.29124700423E+02  0.51100000000E-03 0. -1.
        -12    1    3    3    0    0  0.33323538528E+01  0.45321109289E+01  0.20592465739E+02  0.21346996437E+02  0.00000000000E+00 0.  1.
</event>
<event>
 7    1  0.7579108E-012  0.5930185E+02  0.7816164E-02  0.1266605E+00
        -11   -1    0    0    0    0  0.00000000000E+00  0.00000000000E+00  0.45593999997E+02  0.45594000000E+02  0.51100000000E-03 0.  1.
         11   -1    0    0    0    0 -0.00000000000E+00 -0.00000000000E+00 -0.45593999997E+02  0.45594000000E+02  0.51100000000E-03 0. -1.
    9900012    2    1    2    0    0 -0.13616672880E+02 -0.14332880394E+02  0.25017618772E+02  0.59301851131E+02  0.49999830579E+02 0.  0.
         12    1    1    2    0    0  0.13616672880E+02  0.14332880394E+02 -0.25017618772E+02  0.31886148869E+02  0.00000000000E+00 0. -1.
         11    1    3    3    0    0  0.11588952172E+02 -0.95915825097E+01  0.35309113422E+01  0.15452171454E+02  0.51100000000E-03 0. -1.
        -11    1    3    3    0    0 -0.23170544698E+02 -0.64732107005E+01  0.19561731112E+01  0.24137174894E+02  0.51100000000E-03 0.  1.
        -12    1    3    3    0    0 -0.20350803536E+01  0.17319128164E+01  0.19530534318E+02  0.19712504783E+02  0.00000000000E+00 0.  1.
</event>
<event>
 7    1  0.7579108E-012  0.5930198E+02  0.7816164E-02  0.1266605E+00
        -11   -1    0    0    0    0  0.00000000000E+00  0.00000000000E+00  0.45593999997E+02  0.45594000000E+02  0.51100000000E-03 0. -1.
         11   -1    0    0    0    0 -0.00000000000E+00 -0.00000000000E+00 -0.45593999997E+02  0.45594000000E+02  0.51100000000E-03 0.  1.
    9900012    2    1    2    0    0 -0.66022603896E+01 -0.26033684216E+02  0.17186506614E+02  0.59301975386E+02  0.50000057190E+02 0.  0.
         12    1    1    2    0    0  0.66022603896E+01  0.26033684216E+02 -0.17186506614E+02  0.31886024614E+02  0.00000000000E+00 0. -1.
         11    1    3    3    0    0 -0.13293187828E+02 -0.21952296070E+01  0.22702545437E+02  0.26399497064E+02  0.51100000000E-03 0. -1.
        -11    1    3    3    0    0  0.62356377129E+01 -0.23474012416E+02 -0.11512003503E+02  0.26878219091E+02  0.51100000000E-03 0.  1.
         12    1    3    3    0    0  0.45528972532E+00 -0.36444219304E+00  0.59959646793E+01  0.60242592310E+01  0.00000000000E+00 0. -1.
</event>
<event>
 7    1  0.7579108E-012  0.5930185E+02  0.7816164E-02  0.1266605E+00
        -11   -1    0    0    0    0  0.00000000000E+00  0.00000000000E+00  0.45593999997E+02  0.45594000000E+02  0.51100000000E-03 0.  1.
         11   -1    0    0    0    0 -0.00000000000E+00 -0.00000000000E+00 -0.45593999997E+02  0.45594000000E+02  0.51100000000E-03 0. -1.
    9900012    2    1    2    0    0  0.79707520860E+01  0.25975615459E+02  0.16687155490E+02  0.59301848685E+02  0.49999826118E+02 0.  0.
         12    1    1    2    0    0 -0.79707520860E+01 -0.25975615459E+02 -0.16687155490E+02  0.31886151315E+02  0.00000000000E+00 0. -1.
         11    1    3    3    0    0  0.98154077709E+01 -0.61958063289E+01  0.12345286181E+02  0.16945097726E+02  0.51100000000E-03 0.  1.
        -11    1    3    3    0    0  0.73873015330E+01  0.29862314451E+02  0.85840322118E+01  0.31937683974E+02  0.51100000000E-03 0. -1.
        -12    1    3    3    0    0 -0.92319572179E+01  0.23091073369E+01 -0.42421629030E+01  0.10419066986E+02  0.00000000000E+00 0.  1.
</event>
<event>
 7    1  0.7579108E-012  0.5930194E+02  0.7816164E-02  0.1266605E+00
        -11   -1    0    0    0    0  0.00000000000E+00  0.00000000000E+00  0.45593999997E+02  0.45594000000E+02  0.51100000000E-03 0. -1.
         11   -1    0    0    0    0 -0.00000000000E+00 -0.00000000000E+00 -0.45593999997E+02  0.45594000000E+02  0.51100000000E-03 0.  1.
    9900012    2    1    2    0    0  0.22763868524E+02 -0.10291448965E+02 -0.19814466610E+02  0.59301941620E+02  0.49999995609E+02 0.  0.
         12    1    1    2    0    0 -0.22763868524E+02  0.10291448965E+02  0.19814466610E+02  0.31886058380E+02  0.00000000000E+00 0. -1.
         11    1    3    3    0    0  0.11842598920E+02  0.15394622603E+02 -0.20633558280E+02  0.28336994933E+02  0.51100000000E-03 0. -1.
        -11    1    3    3    0    0  0.52494533880E+01 -0.21308243716E+02  0.52184398721E+01  0.22557263267E+02  0.51100000000E-03 0.  1.
        -12    1    3    3    0    0  0.56718162156E+01 -0.43778278517E+01 -0.43993482021E+01  0.84076834197E+01  0.00000000000E+00 0.  1.
</event>
<event>
 7    1  0.7579108E-012  0.5930195E+02  0.7816164E-02  0.1266605E+00
        -11   -1    0    0    0    0  0.00000000000E+00  0.00000000000E+00  0.45593999997E+02  0.45594000000E+02  0.51100000000E-03 0.  1.
         11   -1    0    0    0    0 -0.00000000000E+00 -0.00000000000E+00 -0.45593999997E+02  0.45594000000E+02  0.51100000000E-03 0. -1.
    9900012    2    1    2    0    0 -0.22510789187E+02  0.85767144763E+01  0.20890776716E+02  0.59301949557E+02  0.50000010084E+02 0.  0.
         12    1    1    2    0    0  0.22510789187E+02 -0.85767144763E+01 -0.20890776716E+02  0.31886050443E+02  0.00000000000E+00 0. -1.
         11    1    3    3    0    0 -0.14552615006E+02  0.88005313044E+01 -0.52490293635E+01  0.17798321951E+02  0.51100000000E-03 0. -1.
        -11    1    3    3    0    0 -0.81352861724E+01 -0.15192923648E+02  0.14930368442E+02  0.22801835719E+02  0.51100000000E-03 0.  1.
         12    1    3    3    0    0  0.17711199146E+00  0.14969106820E+02  0.11209437638E+02  0.18701791887E+02  0.00000000000E+00 0. -1.
</event>
<event>
 7    1  0.7579108E-012  0.5930193E+02  0.7816164E-02  0.1266605E+00
        -11   -1    0    0    0    0  0.00000000000E+00  0.00000000000E+00  0.45593999997E+02  0.45594000000E+02  0.51100000000E-03 0. -1.
         11   -1    0    0    0    0 -0.00000000000E+00 -0.00000000000E+00 -0.45593999997E+02  0.45594000000E+02  0.51100000000E-03 0.  1.
    9900012    2    1    2    0    0 -0.15034963475E+02 -0.23021434369E+02 -0.16145746298E+02  0.59301926384E+02  0.49999967823E+02 0.  0.
         12    1    1    2    0    0  0.15034963475E+02  0.23021434369E+02  0.16145746298E+02  0.31886073616E+02  0.00000000000E+00 0. -1.
         11    1    3    3    0    0 -0.22540829115E+01 -0.28791342760E+02 -0.23168041368E+00  0.28880373678E+02  0.51100000000E-03 0. -1.
        -11    1    3    3    0    0 -0.18791006447E+02  0.52347327143E+01 -0.97940847854E+01  0.21827240937E+02  0.51100000000E-03 0.  1.
        -12    1    3    3    0    0  0.60101258829E+01  0.53517567761E+00 -0.61199810991E+01  0.85943117693E+01  0.00000000000E+00 0.  1.
</event>
<event>
 7    1  0.7579108E-012  0.5930195E+02  0.7816164E-02  0.1266605E+00
        -11   -1    0    0    0    0  0.00000000000E+00  0.00000000000E+00  0.45593999997E+02  0.45594000000E+02  0.51100000000E-03 0. -1.
         11   -1    0    0    0    0 -0.00000000000E+00 -0.00000000000E+00 -0.45593999997E+02  0.45594000000E+02  0.51100000000E-03 0.  1.
    9900012    2    1    2    0    0  0.34709794650E+01  0.27124743025E+02 -0.16398808313E+02  0.59301948242E+02  0.50000007687E+02 0.  0.
         12    1    1    2    0    0 -0.34709794650E+01 -0.27124743025E+02  0.16398808313E+02  0.31886051758E+02  0.00000000000E+00 0. -1.
         11    1    3    3    0    0  0.12966643196E+02  0.14842898185E+02  0.10229066819E+02  0.22205388322E+02  0.51100000000E-03 0. -1.
        -11    1    3    3    0    0 -0.44749571362E+01  0.13845697526E+02 -0.28092938934E+02  0.31637664255E+02  0.51100000000E-03 0.  1.
         12    1    3    3    0    0 -0.50207065945E+01 -0.15638526859E+01  0.14650638027E+01  0.54588956647E+01  0.00000000000E+00 0. -1.
</event>
<event>
 7    1  0.7579108E-012  0.5930194E+02  0.7816164E-02  0.1266605E+00
        -11   -1    0    0    0    0  0.00000000000E+00  0.00000000000E+00  0.45593999997E+02  0.45594000000E+02  0.51100000000E-03 0.  1.
         11   -1    0    0    0    0 -0.00000000000E+00 -0.00000000000E+00 -0.45593999997E+02  0.45594000000E+02  0.51100000000E-03 0. -1.
    9900012    2    1    2    0    0  0.30840841590E+02  0.33184785963E+01 -0.73858512914E+01  0.59301943338E+02  0.49999998742E+02 0.  0.
         12    1    1    2    0    0 -0.30840841590E+02 -0.33184785963E+01  0.73858512914E+01  0.31886056662E+02  0.00000000000E+00 0. -1.
         11    1    3    3    0    0  0.58936871980E+01 -0.30978763107E+01 -0.14232183037E+02  0.15712651612E+02  0.51100000000E-03 0. -1.
        -11    1    3    3    0    0  0.18215307505E+02  0.10379344063E+02  0.19556620492E+02  0.28670361282E+02  0.51100000000E-03 0.  1.
        -12    1    3    3    0    0  0.67318468864E+01 -0.39629891563E+01 -0.12710288747E+02  0.14918930444E+02  0.00000000000E+00 0.  1.
</event>
<event>
 7    1  0.7579108E-012  0.5930188E+02  0.7816164E-02  0.1266605E+00
        -11   -1    0    0    0    0  0.00000000000E+00  0.00000000000E+00  0.45593999997E+02  0.45594000000E+02  0.51100000000E-03 0.  1.
         11   -1    0    0    0    0 -0.00000000000E+00 -0.00000000000E+00 -0.45593999997E+02  0.45594000000E+02  0.51100000000E-03 0. -1.
    9900012    2    1    2    0    0 -0.21291114261E+02  0.99711929975E+01  0.21540395756E+02  0.59301876285E+02  0.49999876453E+02 0.  0.
         12    1    1    2    0    0  0.21291114261E+02 -0.99711929975E+01 -0.21540395756E+02  0.31886123715E+02  0.00000000000E+00 0. -1.
         11    1    3    3    0    0 -0.61974769805E+01  0.27077247448E+02  0.18344826525E+02  0.33288417066E+02  0.51100000000E-03 0. -1.
        -11    1    3    3    0    0 -0.12707296720E+02 -0.17096840624E+02  0.61911960833E+01  0.22183513212E+02  0.51100000000E-03 0.  1.
         12    1    3    3    0    0 -0.23863405609E+01 -0.92138262776E-02 -0.29956268531E+01  0.38299460062E+01  0.00000000000E+00 0. -1.
</event>
<event>
 7    1  0.7579108E-012  0.5930216E+02  0.7816164E-02  0.1266604E+00
        -11   -1    0    0    0    0  0.00000000000E+00  0.00000000000E+00  0.45593999997E+02  0.45594000000E+02  0.51100000000E-03 0.  1.
         11   -1    0    0    0    0 -0.00000000000E+00 -0.00000000000E+00 -0.45593999997E+02  0.45594000000E+02  0.51100000000E-03 0. -1.
    9900012    2    1    2    0    0 -0.21693017714E+02 -0.13265195608E+02  0.19239394033E+02  0.59302161218E+02  0.50000396102E+02 0.  0.
         12    1    1    2    0    0  0.21693017714E+02  0.13265195608E+02 -0.19239394033E+02  0.31885838782E+02  0.00000000000E+00 0. -1.
         11    1    3    3    0    0  0.16484969888E+00  0.94932688667E+01  0.23518459239E+01  0.97816414118E+01  0.51100000000E-03 0.  1.
        -11    1    3    3    0    0 -0.23418476582E+02 -0.18689955283E+02 -0.21034130648E+01  0.30036042027E+02  0.51100000000E-03 0. -1.
        -12    1    3    3    0    0  0.15606091688E+01 -0.40685091913E+01  0.18990961174E+02  0.19484477779E+02  0.00000000000E+00 0.  1.
</event>
<event>
 7    1  0.1058595E-011  0.5930191E+02  0.7816164E-02  0.1266605E+00
        -11   -1    0    0    0    0  0.00000000000E+00  0.00000000000E+00  0.45593999997E+02  0.45594000000E+02  0.51100000000E-03 0. -1.
         11   -1    0    0    0    0 -0.00000000000E+00 -0.00000000000E+00 -0.45593999997E+02  0.45594000000E+02  0.51100000000E-03 0.  1.
    9900012    2    1    2    0    0 -0.15677098473E+02 -0.87250530591E+01 -0.26359532465E+02  0.59301907119E+02  0.49999932688E+02 0.  0.
         12    1    1    2    0    0  0.15677098473E+02  0.87250530591E+01  0.26359532465E+02  0.31886092881E+02  0.00000000000E+00 0. -1.
         11    1    3    3    0    0 -0.69348806355E+01  0.11290477128E+02  0.21879060557E+01  0.13429608199E+02  0.51100000000E-03 0. -1.
        -11    1    3    3    0    0 -0.11097971273E+02 -0.20120711094E+02 -0.67523201367E+01  0.23949985569E+02  0.51100000000E-03 0.  1.
        -12    1    3    3    0    0  0.23557534358E+01  0.10518090647E+00 -0.21795118384E+02  0.21922313351E+02  0.00000000000E+00 0.  1.
</event>
<event>
 7    1  0.7579108E-012  0.5930195E+02  0.7816164E-02  0.1266605E+00
        -11   -1    0    0    0    0  0.00000000000E+00  0.00000000000E+00  0.45593999997E+02  0.45594000000E+02  0.51100000000E-03 0.  1.
         11   -1    0    0    0    0 -0.00000000000E+00 -0.00000000000E+00 -0.45593999997E+02  0.45594000000E+02  0.51100000000E-03 0. -1.
    9900012    2    1    2    0    0 -0.81955990753E+01  0.24875373139E+02  0.18187041198E+02  0.59301945046E+02  0.50000001857E+02 0.  0.
         12    1    1    2    0    0  0.81955990753E+01 -0.24875373139E+02 -0.18187041198E+02  0.31886054954E+02  0.00000000000E+00 0. -1.
         11    1    3    3    0    0 -0.59623902708E+01 -0.12205381508E+02  0.18895733064E+01  0.13714660879E+02  0.51100000000E-03 0. -1.
        -11    1    3    3    0    0 -0.75432088198E+01  0.67203470153E+01  0.98278737433E+01  0.14094330984E+02  0.51100000000E-03 0.  1.
         12    1    3    3    0    0  0.53100000152E+01  0.30360407631E+02  0.64695941487E+01  0.31492953183E+02  0.00000000000E+00 0. -1.
</event>
<event>
 7    1  0.7579108E-012  0.5930195E+02  0.7816164E-02  0.1266605E+00
        -11   -1    0    0    0    0  0.00000000000E+00  0.00000000000E+00  0.45593999997E+02  0.45594000000E+02  0.51100000000E-03 0. -1.
         11   -1    0    0    0    0 -0.00000000000E+00 -0.00000000000E+00 -0.45593999997E+02  0.45594000000E+02  0.51100000000E-03 0.  1.
    9900012    2    1    2    0    0  0.43859676387E+01 -0.23652830780E+02 -0.20929096616E+02  0.59301949740E+02  0.50000010417E+02 0.  0.
         12    1    1    2    0    0 -0.43859676387E+01  0.23652830780E+02  0.20929096616E+02  0.31886050260E+02  0.00000000000E+00 0. -1.
         11    1    3    3    0    0  0.91591132689E+01 -0.24656430401E+01 -0.32557519727E+01  0.10028393323E+02  0.51100000000E-03 0. -1.
        -11    1    3    3    0    0 -0.11633031181E+02 -0.14241908189E+02  0.92863892452E+01  0.20600883204E+02  0.51100000000E-03 0.  1.
        -12    1    3    3    0    0  0.68598855508E+01 -0.69452795508E+01 -0.26959733888E+02  0.28672673212E+02  0.00000000000E+00 0.  1.
</event>
<event>
 7    1  0.7579108E-012  0.5930196E+02  0.7816164E-02  0.1266605E+00
        -11   -1    0    0    0    0  0.00000000000E+00  0.00000000000E+00  0.45593999997E+02  0.45594000000E+02  0.51100000000E-03 0.  1.
         11   -1    0    0    0    0 -0.00000000000E+00 -0.00000000000E+00 -0.45593999997E+02  0.45594000000E+02  0.51100000000E-03 0. -1.
    9900012    2    1    2    0    0 -0.15804693643E+02  0.22287997846E+02  0.16437048957E+02  0.59301956540E+02  0.50000022819E+02 0.  0.
         12    1    1    2    0    0  0.15804693643E+02 -0.22287997846E+02 -0.16437048957E+02  0.31886043460E+02  0.00000000000E+00 0. -1.
         11    1    3    3    0    0  0.95574451106E+00 -0.10934370606E+02  0.75439684101E+00  0.11001955416E+02  0.51100000000E-03 0. -1.
        -11    1    3    3    0    0 -0.10448158974E+02  0.33694602371E+02  0.46527696474E+01  0.35582840254E+02  0.51100000000E-03 0.  1.
        -12    1    3    3    0    0 -0.63122791802E+01 -0.47223391880E+00  0.11029882468E+02  0.12717160870E+02  0.00000000000E+00 0.  1.
</event>
<event>
 7    1  0.7579108E-012  0.5930190E+02  0.7816164E-02  0.1266605E+00
        -11   -1    0    0    0    0  0.00000000000E+00  0.00000000000E+00  0.45593999997E+02  0.45594000000E+02  0.51100000000E-03 0.  1.
         11   -1    0    0    0    0 -0.00000000000E+00 -0.00000000000E+00 -0.45593999997E+02  0.45594000000E+02  0.51100000000E-03 0. -1.
    9900012    2    1    2    0    0  0.20557927676E+02  0.49243146452E+00  0.24369085548E+02  0.59301902567E+02  0.49999924385E+02 0.  0.
         12    1    1    2    0    0 -0.20557927676E+02 -0.49243146452E+00 -0.24369085548E+02  0.31886097433E+02  0.00000000000E+00 0. -1.
         11    1    3    3    0    0 -0.66573744567E+01 -0.83729192545E+01  0.63705310482E+01  0.12450304317E+02  0.51100000000E-03 0. -1.
        -11    1    3    3    0    0 -0.27204706542E+00  0.13640946145E+02  0.12314732740E+02  0.18379392374E+02  0.51100000000E-03 0.  1.
         12    1    3    3    0    0  0.27487349198E+02 -0.47755954254E+01  0.56838217596E+01  0.28472205875E+02  0.00000000000E+00 0. -1.
</event>
<event>
 7    1  0.7579108E-012  0.5930193E+02  0.7816164E-02  0.1266605E+00
        -11   -1    0    0    0    0  0.00000000000E+00  0.00000000000E+00  0.45593999997E+02  0.45594000000E+02  0.51100000000E-03 0.  1.
         11   -1    0    0    0    0 -0.00000000000E+00 -0.00000000000E+00 -0.45593999997E+02  0.45594000000E+02  0.51100000000E-03 0. -1.
    9900012    2    1    2    0    0 -0.24300910675E+02 -0.12358891805E+02  0.16536176826E+02  0.59301927644E+02  0.49999970120E+02 0.  0.
         12    1    1    2    0    0  0.24300910675E+02  0.12358891805E+02 -0.16536176826E+02  0.31886072356E+02  0.00000000000E+00 0. -1.
         11    1    3    3    0    0 -0.23372751231E+02  0.10520081849E+01  0.14091649404E+02  0.27312392874E+02  0.51100000000E-03 0.  1.
        -11    1    3    3    0    0  0.12397444362E+02 -0.13776307696E+02  0.71382583184E+00  0.18547043647E+02  0.51100000000E-03 0. -1.
         12    1    3    3    0    0 -0.13325603806E+02  0.36540770655E+00  0.17307015903E+01  0.13442491123E+02  0.00000000000E+00 0. -1.
</event>
<event>
 7    1  0.7579108E-012  0.5930193E+02  0.7816164E-02  0.1266605E+00
        -11   -1    0    0    0    0  0.00000000000E+00  0.00000000000E+00  0.45593999997E+02  0.45594000000E+02  0.51100000000E-03 0. -1.
         11   -1    0    0    0    0 -0.00000000000E+00 -0.00000000000E+00 -0.45593999997E+02  0.45594000000E+02  0.51100000000E-03 0.  1.
    9900012    2    1    2    0    0 -0.28638508152E+02  0.76308051205E+00 -0.13999108179E+02  0.59301929831E+02  0.49999974108E+02 0.  0.
         12    1    1    2    0    0  0.28638508152E+02 -0.76308051205E+00  0.13999108179E+02  0.31886070169E+02  0.00000000000E+00 0. -1.
         11    1    3    3    0    0 -0.14455985839E+02  0.17025313232E+02 -0.22248724849E+02  0.31525268832E+02  0.51100000000E-03 0. -1.
        -11    1    3    3    0    0 -0.17112878227E+02 -0.11970731475E+02  0.44864828149E+01  0.21360654053E+02  0.51100000000E-03 0.  1.
         12    1    3    3    0    0  0.29303559142E+01 -0.42915012453E+01  0.37631338555E+01  0.64160069464E+01  0.00000000000E+00 0. -1.
</event>
<event>
 7    1  0.7579108E-012  0.5930190E+02  0.7816164E-02  0.1266605E+00
        -11   -1    0    0    0    0  0.00000000000E+00  0.00000000000E+00  0.45593999997E+02  0.45594000000E+02  0.51100000000E-03 0.  1.
         11   -1    0    0    0    0 -0.00000000000E+00 -0.00000000000E+00 -0.45593999997E+02  0.45594000000E+02  0.51100000000E-03 0. -1.
    9900012    2    1    2    0    0 -0.11226197745E+02 -0.73992054508E+01  0.28912763000E+02  0.59301896108E+02  0.49999912606E+02 0.  0.
         12    1    1    2    0    0  0.11226197745E+02  0.73992054508E+01 -0.28912763000E+02  0.31886103892E+02  0.00000000000E+00 0. -1.
         11    1    3    3    0    0  0.44004939798E+01  0.29210991362E+01  0.93759346956E+00  0.53643498399E+01  0.51100000000E-03 0. -1.
        -11    1    3    3    0    0 -0.16123333358E+02 -0.15465873086E+02 -0.29925605025E+01  0.22541307138E+02  0.51100000000E-03 0.  1.
        -12    1    3    3    0    0  0.49664163340E+00  0.51455684985E+01  0.30967730033E+02  0.31396239130E+02  0.00000000000E+00 0.  1.
</event>
<event>
 7    1  0.7579108E-012  0.5930191E+02  0.7816164E-02  0.1266605E+00
        -11   -1    0    0    0    0  0.00000000000E+00  0.00000000000E+00  0.45593999997E+02  0.45594000000E+02  0.51100000000E-03 0.  1.
         11   -1    0    0    0    0 -0.00000000000E+00 -0.00000000000E+00 -0.45593999997E+02  0.45594000000E+02  0.51100000000E-03 0. -1.
    9900012    2    1    2    0    0 -0.27525503062E+02  0.79302650600E+01  0.14006440867E+02  0.59301908855E+02  0.49999935853E+02 0.  0.
         12    1    1    2    0    0  0.27525503062E+02 -0.79302650600E+01 -0.14006440867E+02  0.31886091145E+02  0.00000000000E+00 0. -1.
         11    1    3    3    0    0  0.33191274136E+01 -0.95619032956E+01 -0.51370015850E+01  0.11350567694E+02  0.51100000000E-03 0. -1.
        -11    1    3    3    0    0 -0.79028378291E+01  0.18284268848E+02  0.36345914462E+01  0.20247952694E+02  0.51100000000E-03 0.  1.
        -12    1    3    3    0    0 -0.22941792647E+02 -0.79210049275E+00  0.15508851005E+02  0.27703388467E+02  0.00000000000E+00 0.  1.
</event>
<event>
 7    1  0.7579108E-012  0.5930195E+02  0.7816164E-02  0.1266605E+00
        -11   -1    0    0    0    0  0.00000000000E+00  0.00000000000E+00  0.45593999997E+02  0.45594000000E+02  0.51100000000E-03 0. -1.
         11   -1    0    0    0    0 -0.00000000000E+00 -0.00000000000E+00 -0.45593999997E+02  0.45594000000E+02  0.51100000000E-03 0.  1.
    9900012    2    1    2    0    0 -0.24470490671E+02 -0.63167090038E+01 -0.19442601171E+02  0.59301945577E+02  0.50000002826E+02 0.  0.
         12    1    1    2    0    0  0.24470490671E+02  0.63167090038E+01  0.19442601171E+02  0.31886054423E+02  0.00000000000E+00 0. -1.
         11    1    3    3    0    0 -0.11333133593E+02  0.12343237294E+02  0.11835276012E+02  0.20515096453E+02  0.51100000000E-03 0. -1.
        -11    1    3    3    0    0 -0.69041996457E+01 -0.80925477197E+01 -0.15531805117E+02  0.18825362461E+02  0.51100000000E-03 0.  1.
         12    1    3    3    0    0 -0.62331574324E+01 -0.10567398578E+02 -0.15746072066E+02  0.19961486663E+02  0.00000000000E+00 0. -1.
</event>
<event>
 7    1  0.7579108E-012  0.5930195E+02  0.7816164E-02  0.1266605E+00
        -11   -1    0    0    0    0  0.00000000000E+00  0.00000000000E+00  0.45593999997E+02  0.45594000000E+02  0.51100000000E-03 0. -1.
         11   -1    0    0    0    0 -0.00000000000E+00 -0.00000000000E+00 -0.45593999997E+02  0.45594000000E+02  0.51100000000E-03 0.  1.
    9900012    2    1    2    0    0  0.15275158440E+00 -0.19806810295E+02 -0.24987743478E+02  0.59301946760E+02  0.50000004983E+02 0.  0.
         12    1    1    2    0    0 -0.15275158440E+00  0.19806810295E+02  0.24987743478E+02  0.31886053240E+02  0.00000000000E+00 0. -1.
         11    1    3    3    0    0 -0.86963128927E+00 -0.12317722134E+02  0.91624518859E+01  0.15376380002E+02  0.51100000000E-03 0. -1.
        -11    1    3    3    0    0  0.53950567488E+01 -0.10461142506E+02 -0.36343195485E+02  0.38201701509E+02  0.51100000000E-03 0.  1.
         12    1    3    3    0    0 -0.43726738751E+01  0.29720543451E+01  0.21930001214E+01  0.57238652483E+01  0.00000000000E+00 0. -1.
</event>
<event>
 7    1  0.7579108E-012  0.5930194E+02  0.7816164E-02  0.1266605E+00
        -11   -1    0    0    0    0  0.00000000000E+00  0.00000000000E+00  0.45593999997E+02  0.45594000000E+02  0.51100000000E-03 0.  1.
         11   -1    0    0    0    0 -0.00000000000E+00 -0.00000000000E+00 -0.45593999997E+02  0.45594000000E+02  0.51100000000E-03 0. -1.
    9900012    2    1    2    0    0 -0.18789745508E+02 -0.13452619061E+02  0.21970279315E+02  0.59301942403E+02  0.49999997038E+02 0.  0.
         12    1    1    2    0    0  0.18789745508E+02  0.13452619061E+02 -0.21970279315E+02  0.31886057597E+02  0.00000000000E+00 0. -1.
         11    1    3    3    0    0  0.58214651088E+01  0.91297453954E+01 -0.75333532422E+01  0.13190645107E+02  0.51100000000E-03 0. -1.
        -11    1    3    3    0    0 -0.19443007310E+02 -0.13916581808E+02  0.26255856670E+02  0.35511572652E+02  0.51100000000E-03 0.  1.
         12    1    3    3    0    0 -0.51682033067E+01 -0.86657826487E+01  0.32477758877E+01  0.10599724645E+02  0.00000000000E+00 0. -1.
</event>
<event>
 7    1  0.7579108E-012  0.5930184E+02  0.7816164E-02  0.1266605E+00
        -11   -1    0    0    0    0  0.00000000000E+00  0.00000000000E+00  0.45593999997E+02  0.45594000000E+02  0.51100000000E-03 0. -1.
         11   -1    0    0    0    0 -0.00000000000E+00 -0.00000000000E+00 -0.45593999997E+02  0.45594000000E+02  0.51100000000E-03 0.  1.
    9900012    2    1    2    0    0  0.90508331248E+01 -0.28310852038E+02 -0.11545786603E+02  0.59301841378E+02  0.49999812792E+02 0.  0.
         12    1    1    2    0    0 -0.90508331248E+01  0.28310852038E+02  0.11545786603E+02  0.31886158622E+02  0.00000000000E+00 0. -1.
         11    1    3    3    0    0  0.42232280329E+01 -0.13510658549E+02  0.11180000666E+02  0.18037903553E+02  0.51100000000E-03 0. -1.
        -11    1    3    3    0    0 -0.56687027419E+01  0.40171816275E+01 -0.17875056533E+02  0.19177840997E+02  0.51100000000E-03 0.  1.
         12    1    3    3    0    0  0.10496307834E+02 -0.18817375117E+02 -0.48507307360E+01  0.22086096828E+02  0.00000000000E+00 0. -1.
</event>
<event>
 7    1  0.7579108E-012  0.5930197E+02  0.7816164E-02  0.1266605E+00
        -11   -1    0    0    0    0  0.00000000000E+00  0.00000000000E+00  0.45593999997E+02  0.45594000000E+02  0.51100000000E-03 0.  1.
         11   -1    0    0    0    0 -0.00000000000E+00 -0.00000000000E+00 -0.45593999997E+02  0.45594000000E+02  0.51100000000E-03 0. -1.
    9900012    2    1    2    0    0  0.36292432465E+01  0.19133111104E+02  0.25248198729E+02  0.59301970361E+02  0.50000048026E+02 0.  0.
         12    1    1    2    0    0 -0.36292432465E+01 -0.19133111104E+02 -0.25248198729E+02  0.31886029639E+02  0.00000000000E+00 0. -1.
         11    1    3    3    0    0 -0.85862794726E+01  0.10885517604E+01 -0.14151968636E+01  0.87699442723E+01  0.51100000000E-03 0. -1.
        -11    1    3    3    0    0  0.66523090953E+00  0.14415279021E+02  0.33607655403E+02  0.36574817885E+02  0.51100000000E-03 0.  1.
        -12    1    3    3    0    0  0.11550291809E+02  0.36292803221E+01 -0.69442598095E+01  0.13957208204E+02  0.00000000000E+00 0.  1.
</event>
<event>
 7    1  0.7579108E-012  0.5930203E+02  0.7816164E-02  0.1266604E+00
        -11   -1    0    0    0    0  0.00000000000E+00  0.00000000000E+00  0.45593999997E+02  0.45594000000E+02  0.51100000000E-03 0.  1.
         11   -1    0    0    0    0 -0.00000000000E+00 -0.00000000000E+00 -0.45593999997E+02  0.45594000000E+02  0.51100000000E-03 0. -1.
    9900012    2    1    2    0    0  0.30814564563E+02 -0.81820087797E+01  0.48193175608E+00  0.59302032630E+02  0.50000161589E+02 0.  0.
         12    1    1    2    0    0 -0.30814564563E+02  0.81820087797E+01 -0.48193175608E+00  0.31885967370E+02  0.00000000000E+00 0. -1.
         11    1    3    3    0    0  0.21732234817E+02 -0.67919202149E+01 -0.99791032960E+01  0.24859660360E+02  0.51100000000E-03 0. -1.
        -11    1    3    3    0    0  0.42740969543E+00  0.30725372021E+01  0.20337496770E+02  0.20572723180E+02  0.51100000000E-03 0.  1.
        -12    1    3    3    0    0  0.86549200510E+01 -0.44626257669E+01 -0.98764617181E+01  0.13869649091E+02  0.00000000000E+00 0.  1.
</event>
<event>
 7    1  0.7579108E-012  0.5930195E+02  0.7816164E-02  0.1266605E+00
        -11   -1    0    0    0    0  0.00000000000E+00  0.00000000000E+00  0.45593999997E+02  0.45594000000E+02  0.51100000000E-03 0.  1.
         11   -1    0    0    0    0 -0.00000000000E+00 -0.00000000000E+00 -0.45593999997E+02  0.45594000000E+02  0.51100000000E-03 0. -1.
    9900012    2    1    2    0    0  0.26599529456E+02  0.16606206360E+02  0.57809223240E+01  0.59301951015E+02  0.50000012744E+02 0.  0.
         12    1    1    2    0    0 -0.26599529456E+02 -0.16606206360E+02 -0.57809223240E+01  0.31886048985E+02  0.00000000000E+00 0. -1.
         11    1    3    3    0    0 -0.42504244395E+01 -0.46072096000E+01  0.25638228864E+01  0.67724202667E+01  0.51100000000E-03 0. -1.
        -11    1    3    3    0    0  0.83347134900E+01  0.24518591643E+02 -0.80737804842E+01  0.27125904901E+02  0.51100000000E-03 0.  1.
        -12    1    3    3    0    0  0.22515240405E+02 -0.33051756831E+01  0.11290879922E+02  0.25403625848E+02  0.00000000000E+00 0.  1.
</event>
<event>
 7    1  0.7579108E-012  0.5930187E+02  0.7816164E-02  0.1266605E+00
        -11   -1    0    0    0    0  0.00000000000E+00  0.00000000000E+00  0.45593999997E+02  0.45594000000E+02  0.51100000000E-03 0.  1.
         11   -1    0    0    0    0 -0.00000000000E+00 -0.00000000000E+00 -0.45593999997E+02  0.45594000000E+02  0.51100000000E-03 0. -1.
    9900012    2    1    2    0    0 -0.26568801761E+02 -0.29351907274E+01 -0.17384143279E+02  0.59301874347E+02  0.49999872919E+02 0.  0.
         12    1    1    2    0    0  0.26568801761E+02  0.29351907274E+01  0.17384143279E+02  0.31886125653E+02  0.00000000000E+00 0. -1.
         11    1    3    3    0    0  0.10208125493E+02 -0.42786794319E+01  0.20565173872E+01  0.11257983291E+02  0.51100000000E-03 0. -1.
        -11    1    3    3    0    0 -0.32208639682E+02  0.46263704357E+01 -0.54865689187E+01  0.32998518335E+02  0.51100000000E-03 0.  1.
         12    1    3    3    0    0 -0.45682875723E+01 -0.32828817312E+01 -0.13954091748E+02  0.15045372721E+02  0.00000000000E+00 0. -1.
</event>
<event>
 7    1  0.7579108E-012  0.5930186E+02  0.7816164E-02  0.1266605E+00
        -11   -1    0    0    0    0  0.00000000000E+00  0.00000000000E+00  0.45593999997E+02  0.45594000000E+02  0.51100000000E-03 0.  1.
         11   -1    0    0    0    0 -0.00000000000E+00 -0.00000000000E+00 -0.45593999997E+02  0.45594000000E+02  0.51100000000E-03 0. -1.
    9900012    2    1    2    0    0 -0.15624708673E+01  0.28471606764E+01  0.31720317701E+02  0.59301855765E+02  0.49999839030E+02 0.  0.
         12    1    1    2    0    0  0.15624708673E+01 -0.28471606764E+01 -0.31720317701E+02  0.31886144235E+02  0.00000000000E+00 0. -1.
         11    1    3    3    0    0 -0.21806689182E+01  0.30949314310E-01 -0.79180446644E+01  0.82128987793E+01  0.51100000000E-03 0. -1.
        -11    1    3    3    0    0 -0.88409889626E+01 -0.49305306291E+01  0.37289166910E+02  0.38638778284E+02  0.51100000000E-03 0.  1.
         12    1    3    3    0    0  0.94591870135E+01  0.77467419912E+01  0.23491954548E+01  0.12450178702E+02  0.00000000000E+00 0. -1.
</event>
<event>
 7    1  0.7579108E-012  0.5930197E+02  0.7816164E-02  0.1266605E+00
        -11   -1    0    0    0    0  0.00000000000E+00  0.00000000000E+00  0.45593999997E+02  0.45594000000E+02  0.51100000000E-03 0. -1.
         11   -1    0    0    0    0 -0.00000000000E+00 -0.00000000000E+00 -0.45593999997E+02  0.45594000000E+02  0.51100000000E-03 0.  1.
    9900012    2    1    2    0    0 -0.18476538402E+02  0.18756504243E+02 -0.17986941672E+02  0.59301968678E+02  0.50000044957E+02 0.  0.
         12    1    1    2    0    0  0.18476538402E+02 -0.18756504243E+02  0.17986941672E+02  0.31886031322E+02  0.00000000000E+00 0. -1.
         11    1    3    3    0    0 -0.46939047596E+01  0.47881561713E-02  0.41287887454E+01  0.62513727760E+01  0.51100000000E-03 0. -1.
        -11    1    3    3    0    0 -0.53015945538E+01  0.11177715960E+02 -0.34253281507E+02  0.36418889784E+02  0.51100000000E-03 0.  1.
        -12    1    3    3    0    0 -0.84810390889E+01  0.75740001265E+01  0.12137551089E+02  0.16631706118E+02  0.00000000000E+00 0.  1.
</event>
<event>
 7    1  0.7579108E-012  0.5930199E+02  0.7816164E-02  0.1266605E+00
        -11   -1    0    0    0    0  0.00000000000E+00  0.00000000000E+00  0.45593999997E+02  0.45594000000E+02  0.51100000000E-03 0. -1.
         11   -1    0    0    0    0 -0.00000000000E+00 -0.00000000000E+00 -0.45593999997E+02  0.45594000000E+02  0.51100000000E-03 0.  1.
    9900012    2    1    2    0    0  0.27495676916E+02 -0.10365436087E+02 -0.12379956166E+02  0.59301986938E+02  0.50000078257E+02 0.  0.
         12    1    1    2    0    0 -0.27495676916E+02  0.10365436087E+02  0.12379956166E+02  0.31886013062E+02  0.00000000000E+00 0. -1.
         11    1    3    3    0    0 -0.75926366201E+01 -0.14135589404E+02  0.33878259314E+01  0.16399401923E+02  0.51100000000E-03 0. -1.
        -11    1    3    3    0    0  0.24665547287E+02 -0.62080300860E+01 -0.10933641121E+02  0.27685255443E+02  0.51100000000E-03 0.  1.
         12    1    3    3    0    0  0.10422766249E+02  0.99781834029E+01 -0.48341409769E+01  0.15217329572E+02  0.00000000000E+00 0. -1.
</event>
<event>
 7    1  0.7579108E-012  0.5930193E+02  0.7816164E-02  0.1266605E+00
        -11   -1    0    0    0    0  0.00000000000E+00  0.00000000000E+00  0.45593999997E+02  0.45594000000E+02  0.51100000000E-03 0.  1.
         11   -1    0    0    0    0 -0.00000000000E+00 -0.00000000000E+00 -0.45593999997E+02  0.45594000000E+02  0.51100000000E-03 0. -1.
    9900012    2    1    2    0    0  0.88159901965E+01 -0.10772388886E+02  0.28687197799E+02  0.59301931522E+02  0.49999977192E+02 0.  0.
         12    1    1    2    0    0 -0.88159901965E+01  0.10772388886E+02 -0.28687197799E+02  0.31886068478E+02  0.00000000000E+00 0. -1.
         11    1    3    3    0    0 -0.61046638521E+01 -0.14908053246E+02  0.57953318776E+01  0.17120246615E+02  0.51100000000E-03 0. -1.
        -11    1    3    3    0    0  0.14751441170E+02  0.95582300262E+01 -0.10732839083E+01  0.17610131074E+02  0.51100000000E-03 0.  1.
        -12    1    3    3    0    0  0.16921287845E+00 -0.54225656658E+01  0.23965149829E+02  0.24571553832E+02  0.00000000000E+00 0.  1.
</event>
<event>
 7    1  0.7579108E-012  0.5930200E+02  0.7816164E-02  0.1266605E+00
        -11   -1    0    0    0    0  0.00000000000E+00  0.00000000000E+00  0.45593999997E+02  0.45594000000E+02  0.51100000000E-03 0. -1.
         11   -1    0    0    0    0 -0.00000000000E+00 -0.00000000000E+00 -0.45593999997E+02  0.45594000000E+02  0.51100000000E-03 0.  1.
    9900012    2    1    2    0    0 -0.28942820636E+02 -0.13197773135E+02  0.22020383754E+01  0.59301999074E+02  0.50000100390E+02 0.  0.
         12    1    1    2    0    0  0.28942820636E+02  0.13197773135E+02 -0.22020383754E+01  0.31886000926E+02  0.00000000000E+00 0. -1.
         11    1    3    3    0    0 -0.31502831006E+01 -0.13226827333E+02  0.17696569310E+02  0.22316850372E+02  0.51100000000E-03 0. -1.
        -11    1    3    3    0    0 -0.72249435820E+01  0.92520221413E+01 -0.10288598853E+02  0.15609451947E+02  0.51100000000E-03 0.  1.
         12    1    3    3    0    0 -0.18567593953E+02 -0.92229679431E+01 -0.52059320819E+01  0.21375696754E+02  0.00000000000E+00 0. -1.
</event>
<event>
 7    1  0.7579108E-012  0.5930193E+02  0.7816164E-02  0.1266605E+00
        -11   -1    0    0    0    0  0.00000000000E+00  0.00000000000E+00  0.45593999997E+02  0.45594000000E+02  0.51100000000E-03 0.  1.
         11   -1    0    0    0    0 -0.00000000000E+00 -0.00000000000E+00 -0.45593999997E+02  0.45594000000E+02  0.51100000000E-03 0. -1.
    9900012    2    1    2    0    0 -0.74836731048E+01 -0.24166533999E+02  0.19408628636E+02  0.59301927897E+02  0.49999970581E+02 0.  0.
         12    1    1    2    0    0  0.74836731048E+01  0.24166533999E+02 -0.19408628636E+02  0.31886072103E+02  0.00000000000E+00 0. -1.
         11    1    3    3    0    0  0.48228016246E+01 -0.80079902098E+01  0.28464275567E+02  0.29960011791E+02  0.51100000000E-03 0. -1.
        -11    1    3    3    0    0  0.35633492038E+01 -0.10226869494E+02 -0.49604793751E+01  0.11911871099E+02  0.51100000000E-03 0.  1.
         12    1    3    3    0    0 -0.15869823933E+02 -0.59316742948E+01 -0.40951675565E+01  0.17430045006E+02  0.00000000000E+00 0. -1.
</event>
<event>
 7    1  0.7579108E-012  0.5930193E+02  0.7816164E-02  0.1266605E+00
        -11   -1    0    0    0    0  0.00000000000E+00  0.00000000000E+00  0.45593999997E+02  0.45594000000E+02  0.51100000000E-03 0. -1.
         11   -1    0    0    0    0 -0.00000000000E+00 -0.00000000000E+00 -0.45593999997E+02  0.45594000000E+02  0.51100000000E-03 0.  1.
    9900012    2    1    2    0    0  0.16417576194E+02 -0.10078079732E+02 -0.25408995721E+02  0.59301928390E+02  0.49999971481E+02 0.  0.
         12    1    1    2    0    0 -0.16417576194E+02  0.10078079732E+02  0.25408995721E+02  0.31886071610E+02  0.00000000000E+00 0. -1.
         11    1    3    3    0    0  0.15386332368E+02 -0.19578699537E+02 -0.63926203413E+01  0.25708564611E+02  0.51100000000E-03 0. -1.
        -11    1    3    3    0    0 -0.11483565978E+02 -0.22961022348E+00 -0.10673882285E+02  0.15679820526E+02  0.51100000000E-03 0.  1.
         12    1    3    3    0    0  0.12514809804E+02  0.97302300282E+01 -0.83424930944E+01  0.17913543253E+02  0.00000000000E+00 0. -1.
</event>
<event>
 7    1  0.7579108E-012  0.5930190E+02  0.7816164E-02  0.1266605E+00
        -11   -1    0    0    0    0  0.00000000000E+00  0.00000000000E+00  0.45593999997E+02  0.45594000000E+02  0.51100000000E-03 0. -1.
         11   -1    0    0    0    0 -0.00000000000E+00 -0.00000000000E+00 -0.45593999997E+02  0.45594000000E+02  0.51100000000E-03 0.  1.
    9900012    2    1    2    0    0  0.28889724899E+02  0.16974625606E+01 -0.13387519485E+02  0.59301901747E+02  0.49999922890E+02 0.  0.
         12    1    1    2    0    0 -0.28889724899E+02 -0.16974625606E+01  0.13387519485E+02  0.31886098253E+02  0.00000000000E+00 0. -1.
         11    1    3    3    0    0 -0.51386519133E+01  0.12364867043E+01 -0.16601726181E+02  0.17422742474E+02  0.51100000000E-03 0. -1.
        -11    1    3    3    0    0  0.17455641565E+02  0.10046151983E+02  0.87368598777E+01  0.21953526206E+02  0.51100000000E-03 0.  1.
         12    1    3    3    0    0  0.16572735247E+02 -0.95851761266E+01 -0.55226531815E+01  0.19925633066E+02  0.00000000000E+00 0. -1.
</event>
<event>
 7    1  0.7579108E-012  0.5930199E+02  0.7816164E-02  0.1266605E+00
        -11   -1    0    0    0    0  0.00000000000E+00  0.00000000000E+00  0.45593999997E+02  0.45594000000E+02  0.51100000000E-03 0.  1.
         11   -1    0    0    0    0 -0.00000000000E+00 -0.00000000000E+00 -0.45593999997E+02  0.45594000000E+02  0.51100000000E-03 0. -1.
    9900012    2    1    2    0    0  0.83566379450E+01  0.30738723561E+02 -0.14195161903E+01  0.59301991311E+02  0.50000086234E+02 0.  0.
         12    1    1    2    0    0 -0.83566379450E+01 -0.30738723561E+02  0.14195161903E+01  0.31886008689E+02  0.00000000000E+00 0. -1.
         11    1    3    3    0    0 -0.18524284934E+02  0.49440782551E+01 -0.85754584355E+01  0.21003131427E+02  0.51100000000E-03 0. -1.
        -11    1    3    3    0    0  0.13857109340E+02  0.10653554349E+02  0.15089310899E+01  0.17544075148E+02  0.51100000000E-03 0.  1.
         12    1    3    3    0    0  0.13023813539E+02  0.15141090956E+02  0.56470111553E+01  0.20754784736E+02  0.00000000000E+00 0. -1.
</event>
<event>
 7    1  0.7579108E-012  0.5930211E+02  0.7816164E-02  0.1266604E+00
        -11   -1    0    0    0    0  0.00000000000E+00  0.00000000000E+00  0.45593999997E+02  0.45594000000E+02  0.51100000000E-03 0.  1.
         11   -1    0    0    0    0 -0.00000000000E+00 -0.00000000000E+00 -0.45593999997E+02  0.45594000000E+02  0.51100000000E-03 0. -1.
    9900012    2    1    2    0    0 -0.11378289053E+02  0.16231200347E+02  0.24975842193E+02  0.59302109394E+02  0.50000301588E+02 0.  0.
         12    1    1    2    0    0  0.11378289053E+02 -0.16231200347E+02 -0.24975842193E+02  0.31885890606E+02  0.00000000000E+00 0. -1.
         11    1    3    3    0    0  0.15943747474E+02  0.17002127521E+01  0.46234154168E+01  0.16687413739E+02  0.51100000000E-03 0. -1.
        -11    1    3    3    0    0 -0.23305223618E+02  0.16852622840E+02  0.23388799841E+02  0.37069937992E+02  0.51100000000E-03 0.  1.
        -12    1    3    3    0    0 -0.40168129086E+01 -0.23216352453E+01 -0.30363730646E+01  0.55447576631E+01  0.00000000000E+00 0.  1.
</event>
<event>
 7    1  0.7579108E-012  0.5930197E+02  0.7816164E-02  0.1266605E+00
        -11   -1    0    0    0    0  0.00000000000E+00  0.00000000000E+00  0.45593999997E+02  0.45594000000E+02  0.51100000000E-03 0. -1.
         11   -1    0    0    0    0 -0.00000000000E+00 -0.00000000000E+00 -0.45593999997E+02  0.45594000000E+02  0.51100000000E-03 0.  1.
    9900012    2    1    2    0    0 -0.76050722477E+01 -0.18779427100E+02 -0.24621435410E+02  0.59301967199E+02  0.50000042260E+02 0.  0.
         12    1    1    2    0    0  0.76050722477E+01  0.18779427100E+02  0.24621435410E+02  0.31886032801E+02  0.00000000000E+00 0. -1.
         11    1    3    3    0    0 -0.21517258368E+02 -0.71082945794E+01 -0.24470458860E+01  0.22792724570E+02  0.51100000000E-03 0. -1.
        -11    1    3    3    0    0  0.12307836795E+02 -0.44130048323E+00 -0.83740091165E+00  0.12344182161E+02  0.51100000000E-03 0.  1.
         12    1    3    3    0    0  0.16043493256E+01 -0.11229832037E+02 -0.21336988613E+02  0.24165060468E+02  0.00000000000E+00 0. -1.
</event>
<event>
 7    1  0.7579108E-012  0.5930211E+02  0.7816164E-02  0.1266604E+00
        -11   -1    0    0    0    0  0.00000000000E+00  0.00000000000E+00  0.45593999997E+02  0.45594000000E+02  0.51100000000E-03 0. -1.
         11   -1    0    0    0    0 -0.00000000000E+00 -0.00000000000E+00 -0.45593999997E+02  0.45594000000E+02  0.51100000000E-03 0.  1.
    9900012    2    1    2    0    0  0.17752160907E+02 -0.45763928442E+01 -0.26088842324E+02  0.59302105279E+02  0.50000294083E+02 0.  0.
         12    1    1    2    0    0 -0.17752160907E+02  0.45763928442E+01  0.26088842324E+02  0.31885894721E+02  0.00000000000E+00 0. -1.
         11    1    3    3    0    0  0.13514712617E+02 -0.12410667311E+02  0.94942011752E+00  0.18373173897E+02  0.51100000000E-03 0. -1.
        -11    1    3    3    0    0 -0.60113299903E+01  0.31773138096E+01 -0.28749323715E+02  0.29542427552E+02  0.51100000000E-03 0.  1.
        -12    1    3    3    0    0  0.10248778280E+02  0.46569606576E+01  0.17110612734E+01  0.11386503831E+02  0.00000000000E+00 0.  1.
</event>
<event>
 7    1  0.7579108E-012  0.5930196E+02  0.7816164E-02  0.1266605E+00
        -11   -1    0    0    0    0  0.00000000000E+00  0.00000000000E+00  0.45593999997E+02  0.45594000000E+02  0.51100000000E-03 0.  1.
         11   -1    0    0    0    0 -0.00000000000E+00 -0.00000000000E+00 -0.45593999997E+02  0.45594000000E+02  0.51100000000E-03 0. -1.
    9900012    2    1    2    0    0  0.25775016544E+02 -0.54834688019E+01  0.17952703985E+02  0.59301960918E+02  0.50000030805E+02 0.  0.
         12    1    1    2    0    0 -0.25775016544E+02  0.54834688019E+01 -0.17952703985E+02  0.31886039082E+02  0.00000000000E+00 0. -1.
         11    1    3    3    0    0  0.25319926445E+01 -0.21530871066E+01 -0.10142766878E+02  0.10673447945E+02  0.51100000000E-03 0. -1.
        -11    1    3    3    0    0 -0.11124754131E+01 -0.12382430549E+02  0.15152683044E+02  0.19600152845E+02  0.51100000000E-03 0.  1.
         12    1    3    3    0    0  0.24355499312E+02  0.90520488538E+01  0.12942787819E+02  0.29028360128E+02  0.00000000000E+00 0. -1.
</event>
<event>
 7    1  0.7579108E-012  0.5930202E+02  0.7816164E-02  0.1266604E+00
        -11   -1    0    0    0    0  0.00000000000E+00  0.00000000000E+00  0.45593999997E+02  0.45594000000E+02  0.51100000000E-03 0. -1.
         11   -1    0    0    0    0 -0.00000000000E+00 -0.00000000000E+00 -0.45593999997E+02  0.45594000000E+02  0.51100000000E-03 0.  1.
    9900012    2    1    2    0    0 -0.30822667356E+01 -0.24308312845E+02 -0.20403946751E+02  0.59302023700E+02  0.50000145303E+02 0.  0.
         12    1    1    2    0    0  0.30822667356E+01  0.24308312845E+02  0.20403946751E+02  0.31885976300E+02  0.00000000000E+00 0. -1.
         11    1    3    3    0    0 -0.89452511787E+01 -0.87250406204E+01  0.13476401756E+02  0.18378173386E+02  0.51100000000E-03 0. -1.
        -11    1    3    3    0    0  0.33057309525E+01 -0.59147731876E+01 -0.29027149880E+02  0.29807512969E+02  0.51100000000E-03 0.  1.
         12    1    3    3    0    0  0.25572534905E+01 -0.96684990368E+01 -0.48531986264E+01  0.11116337344E+02  0.00000000000E+00 0. -1.
</event>
<event>
 7    1  0.7579108E-012  0.5930193E+02  0.7816164E-02  0.1266605E+00
        -11   -1    0    0    0    0  0.00000000000E+00  0.00000000000E+00  0.45593999997E+02  0.45594000000E+02  0.51100000000E-03 0.  1.
         11   -1    0    0    0    0 -0.00000000000E+00 -0.00000000000E+00 -0.45593999997E+02  0.45594000000E+02  0.51100000000E-03 0. -1.
    9900012    2    1    2    0    0 -0.21497187824E+01  0.42932879109E+01  0.31522492509E+02  0.59301934926E+02  0.49999983401E+02 0.  0.
         12    1    1    2    0    0  0.21497187824E+01 -0.42932879109E+01 -0.31522492509E+02  0.31886065074E+02  0.00000000000E+00 0. -1.
         11    1    3    3    0    0 -0.69912336328E+01  0.73973395731E+01  0.32404560562E+02  0.33965475500E+02  0.51100000000E-03 0. -1.
        -11    1    3    3    0    0 -0.57849528767E+00 -0.13438571823E+02  0.11153559012E+01  0.13497180761E+02  0.51100000000E-03 0.  1.
         12    1    3    3    0    0  0.54200101381E+01  0.10334520161E+02 -0.19974239545E+01  0.11839278665E+02  0.00000000000E+00 0. -1.
</event>
<event>
 7    1  0.7579108E-012  0.5930194E+02  0.7816164E-02  0.1266605E+00
        -11   -1    0    0    0    0  0.00000000000E+00  0.00000000000E+00  0.45593999997E+02  0.45594000000E+02  0.51100000000E-03 0. -1.
         11   -1    0    0    0    0 -0.00000000000E+00 -0.00000000000E+00 -0.45593999997E+02  0.45594000000E+02  0.51100000000E-03 0.  1.
    9900012    2    1    2    0    0 -0.19370101891E+02  0.24504878071E+02  0.64055537628E+01  0.59301936970E+02  0.49999987128E+02 0.  0.
         12    1    1    2    0    0  0.19370101891E+02 -0.24504878071E+02 -0.64055537628E+01  0.31886063030E+02  0.00000000000E+00 0. -1.
         11    1    3    3    0    0 -0.12990220810E+02  0.30838390471E+02  0.11608268689E+02  0.35418978892E+02  0.51100000000E-03 0.  1.
        -11    1    3    3    0    0 -0.13958319294E+01 -0.95249285087E+01  0.59075129850E+01  0.11294747443E+02  0.51100000000E-03 0. -1.
        -12    1    3    3    0    0 -0.49840491524E+01  0.31914161092E+01 -0.11110227912E+02  0.12588210635E+02  0.00000000000E+00 0.  1.
</event>
<event>
 7    1  0.7579108E-012  0.5930193E+02  0.7816164E-02  0.1266605E+00
        -11   -1    0    0    0    0  0.00000000000E+00  0.00000000000E+00  0.45593999997E+02  0.45594000000E+02  0.51100000000E-03 0.  1.
         11   -1    0    0    0    0 -0.00000000000E+00 -0.00000000000E+00 -0.45593999997E+02  0.45594000000E+02  0.51100000000E-03 0. -1.
    9900012    2    1    2    0    0  0.27816200148E+02 -0.96530666522E+01  0.12239225317E+02  0.59301932151E+02  0.49999978340E+02 0.  0.
         12    1    1    2    0    0 -0.27816200148E+02  0.96530666522E+01 -0.12239225317E+02  0.31886067849E+02  0.00000000000E+00 0. -1.
         11    1    3    3    0    0 -0.10785198309E+02  0.25217096521E+01  0.98789019232E+01  0.14841570861E+02  0.51100000000E-03 0. -1.
        -11    1    3    3    0    0  0.36524637709E+02 -0.99124683125E+01  0.73963925664E+01  0.38561805080E+02  0.51100000000E-03 0.  1.
         12    1    3    3    0    0  0.20767607487E+01 -0.22623079919E+01 -0.50360691724E+01  0.58985562104E+01  0.00000000000E+00 0. -1.
</event>
<event>
 7    1  0.7579108E-012  0.5930199E+02  0.7816164E-02  0.1266605E+00
        -11   -1    0    0    0    0  0.00000000000E+00  0.00000000000E+00  0.45593999997E+02  0.45594000000E+02  0.51100000000E-03 0. -1.
         11   -1    0    0    0    0 -0.00000000000E+00 -0.00000000000E+00 -0.45593999997E+02  0.45594000000E+02  0.51100000000E-03 0.  1.
    9900012    2    1    2    0    0  0.13889122978E+02  0.28611355640E+02  0.22804120499E+01  0.59301989153E+02  0.50000082297E+02 0.  0.
         12    1    1    2    0    0 -0.13889122978E+02 -0.28611355640E+02 -0.22804120499E+01  0.31886010847E+02  0.00000000000E+00 0. -1.
         11    1    3    3    0    0  0.51182164544E+01  0.20469911779E+02  0.20214672985E+02  0.29220650781E+02  0.51100000000E-03 0. -1.
        -11    1    3    3    0    0  0.86223456215E+01  0.14459982957E+02 -0.88646964408E+01  0.19026791489E+02  0.51100000000E-03 0.  1.
         12    1    3    3    0    0  0.14856090215E+00 -0.63185390966E+01 -0.90695644943E+01  0.11054546882E+02  0.00000000000E+00 0. -1.
</event>
<event>
 7    1  0.7579108E-012  0.5930199E+02  0.7816164E-02  0.1266605E+00
        -11   -1    0    0    0    0  0.00000000000E+00  0.00000000000E+00  0.45593999997E+02  0.45594000000E+02  0.51100000000E-03 0.  1.
         11   -1    0    0    0    0 -0.00000000000E+00 -0.00000000000E+00 -0.45593999997E+02  0.45594000000E+02  0.51100000000E-03 0. -1.
    9900012    2    1    2    0    0  0.82827167024E+01 -0.22424065639E+02 -0.21101547342E+02  0.59301993414E+02  0.50000090069E+02 0.  0.
         12    1    1    2    0    0 -0.82827167024E+01  0.22424065639E+02  0.21101547342E+02  0.31886006586E+02  0.00000000000E+00 0. -1.
         11    1    3    3    0    0  0.13172514904E+02 -0.30035727958E+02 -0.97458031786E+01  0.34214628198E+02  0.51100000000E-03 0. -1.
        -11    1    3    3    0    0 -0.32654099695E+01 -0.45443908262E+01  0.28831250227E+01  0.62949821611E+01  0.51100000000E-03 0.  1.
         12    1    3    3    0    0 -0.16243882325E+01  0.12156053145E+02 -0.14238869186E+02  0.18792383056E+02  0.00000000000E+00 0. -1.
</event>
<event>
 7    1  0.7579108E-012  0.5930202E+02  0.7816164E-02  0.1266605E+00
        -11   -1    0    0    0    0  0.00000000000E+00  0.00000000000E+00  0.45593999997E+02  0.45594000000E+02  0.51100000000E-03 0. -1.
         11   -1    0    0    0    0 -0.00000000000E+00 -0.00000000000E+00 -0.45593999997E+02  0.45594000000E+02  0.51100000000E-03 0.  1.
    9900012    2    1    2    0    0 -0.17705894533E+01 -0.19738136443E+02 -0.24979731003E+02  0.59302015960E+02  0.50000131186E+02 0.  0.
         12    1    1    2    0    0  0.17705894533E+01  0.19738136443E+02  0.24979731003E+02  0.31885984040E+02  0.00000000000E+00 0. -1.
         11    1    3    3    0    0  0.11855003317E+02 -0.28754815521E+02 -0.50997950374E+01  0.31518065121E+02  0.51100000000E-03 0. -1.
        -11    1    3    3    0    0 -0.13666453962E+02  0.46870259641E+01 -0.17953412728E+02  0.23044852031E+02  0.51100000000E-03 0.  1.
         12    1    3    3    0    0  0.40861192037E-01  0.43296531140E+01 -0.19265232378E+01  0.47390988078E+01  0.00000000000E+00 0. -1.
</event>
<event>
 7    1  0.7579108E-012  0.5930196E+02  0.7816164E-02  0.1266605E+00
        -11   -1    0    0    0    0  0.00000000000E+00  0.00000000000E+00  0.45593999997E+02  0.45594000000E+02  0.51100000000E-03 0.  1.
         11   -1    0    0    0    0 -0.00000000000E+00 -0.00000000000E+00 -0.45593999997E+02  0.45594000000E+02  0.51100000000E-03 0. -1.
    9900012    2    1    2    0    0  0.88074805067E+01  0.29942103159E+02  0.65282606271E+01  0.59301961656E+02  0.50000032149E+02 0.  0.
         12    1    1    2    0    0 -0.88074805067E+01 -0.29942103159E+02 -0.65282606271E+01  0.31886038344E+02  0.00000000000E+00 0. -1.
         11    1    3    3    0    0  0.18346449323E+02  0.22454589270E+01  0.38751482401E+01  0.18885207510E+02  0.51100000000E-03 0. -1.
        -11    1    3    3    0    0 -0.71264974571E+01  0.27938650953E+02  0.11650759918E+02  0.31098157341E+02  0.51100000000E-03 0.  1.
         12    1    3    3    0    0 -0.24124713591E+01 -0.24200672090E+00 -0.89976475313E+01  0.93185968047E+01  0.00000000000E+00 0. -1.
</event>
<event>
 7    1  0.7579108E-012  0.5930195E+02  0.7816164E-02  0.1266605E+00
        -11   -1    0    0    0    0  0.00000000000E+00  0.00000000000E+00  0.45593999997E+02  0.45594000000E+02  0.51100000000E-03 0. -1.
         11   -1    0    0    0    0 -0.00000000000E+00 -0.00000000000E+00 -0.45593999997E+02  0.45594000000E+02  0.51100000000E-03 0.  1.
    9900012    2    1    2    0    0  0.20698719642E+02  0.90864577772E+00 -0.24237519315E+02  0.59301953295E+02  0.50000016901E+02 0.  0.
         12    1    1    2    0    0 -0.20698719642E+02 -0.90864577772E+00  0.24237519315E+02  0.31886046705E+02  0.00000000000E+00 0. -1.
         11    1    3    3    0    0  0.20919133130E+02  0.15769726039E+02 -0.23241444798E+02  0.35020838751E+02  0.51100000000E-03 0. -1.
        -11    1    3    3    0    0  0.35472055751E+01 -0.15935352137E+02 -0.64606084145E+01  0.17557265632E+02  0.51100000000E-03 0.  1.
        -12    1    3    3    0    0 -0.37676190639E+01  0.10742718767E+01  0.54645338971E+01  0.67238489118E+01  0.00000000000E+00 0.  1.
</event>
<event>
 7    1  0.7579108E-012  0.5930193E+02  0.7816164E-02  0.1266605E+00
        -11   -1    0    0    0    0  0.00000000000E+00  0.00000000000E+00  0.45593999997E+02  0.45594000000E+02  0.51100000000E-03 0.  1.
         11   -1    0    0    0    0 -0.00000000000E+00 -0.00000000000E+00 -0.45593999997E+02  0.45594000000E+02  0.51100000000E-03 0. -1.
    9900012    2    1    2    0    0 -0.74067645594E+01  0.30226679489E+02  0.69432655654E+01  0.59301933279E+02  0.49999980398E+02 0.  0.
         12    1    1    2    0    0  0.74067645594E+01 -0.30226679489E+02 -0.69432655654E+01  0.31886066721E+02  0.00000000000E+00 0. -1.
         11    1    3    3    0    0 -0.33638517781E+01 -0.67264222788E+01 -0.14513032064E+02  0.16345897205E+02  0.51100000000E-03 0. -1.
        -11    1    3    3    0    0 -0.28495206407E+01  0.31296850756E+02  0.17829898613E+02  0.36131951510E+02  0.51100000000E-03 0.  1.
         12    1    3    3    0    0 -0.11933921406E+01  0.56562510124E+01  0.36263990164E+01  0.68240845645E+01  0.00000000000E+00 0. -1.
</event>
<event>
 7    1  0.7579108E-012  0.5930198E+02  0.7816164E-02  0.1266605E+00
        -11   -1    0    0    0    0  0.00000000000E+00  0.00000000000E+00  0.45593999997E+02  0.45594000000E+02  0.51100000000E-03 0.  1.
         11   -1    0    0    0    0 -0.00000000000E+00 -0.00000000000E+00 -0.45593999997E+02  0.45594000000E+02  0.51100000000E-03 0. -1.
    9900012    2    1    2    0    0 -0.26073526928E+02  0.18344992795E+02  0.59202901762E+00  0.59301983230E+02  0.50000071495E+02 0.  0.
         12    1    1    2    0    0  0.26073526928E+02 -0.18344992795E+02 -0.59202901762E+00  0.31886016770E+02  0.00000000000E+00 0. -1.
         11    1    3    3    0    0 -0.20527483883E+02  0.20483404048E+02  0.13732166292E+02  0.32086131386E+02  0.51100000000E-03 0.  1.
        -11    1    3    3    0    0  0.57126061537E+01  0.32119751960E+01  0.26751574886E+01  0.70786383985E+01  0.51100000000E-03 0. -1.
         12    1    3    3    0    0 -0.11258649198E+02 -0.53503864489E+01 -0.15815294763E+02  0.20137213446E+02  0.00000000000E+00 0. -1.
</event>
<event>
 7    1  0.7579108E-012  0.5930194E+02  0.7816164E-02  0.1266605E+00
        -11   -1    0    0    0    0  0.00000000000E+00  0.00000000000E+00  0.45593999997E+02  0.45594000000E+02  0.51100000000E-03 0.  1.
         11   -1    0    0    0    0 -0.00000000000E+00 -0.00000000000E+00 -0.45593999997E+02  0.45594000000E+02  0.51100000000E-03 0. -1.
    9900012    2    1    2    0    0  0.14477918015E+02 -0.17533333067E+02  0.22353816230E+02  0.59301937550E+02  0.49999988186E+02 0.  0.
         12    1    1    2    0    0 -0.14477918015E+02  0.17533333067E+02 -0.22353816230E+02  0.31886062450E+02  0.00000000000E+00 0. -1.
         11    1    3    3    0    0  0.12533990274E+02 -0.11000869614E+02 -0.35103687277E+00  0.16680625636E+02  0.51100000000E-03 0. -1.
        -11    1    3    3    0    0 -0.10807226396E+02  0.21587346424E+01  0.24713755847E+02  0.27059674905E+02  0.51100000000E-03 0.  1.
        -12    1    3    3    0    0  0.12751154138E+02 -0.86911980954E+01 -0.20089027436E+01  0.15561637009E+02  0.00000000000E+00 0.  1.
</event>
<event>
 7    1  0.7579108E-012  0.5930192E+02  0.7816164E-02  0.1266605E+00
        -11   -1    0    0    0    0  0.00000000000E+00  0.00000000000E+00  0.45593999997E+02  0.45594000000E+02  0.51100000000E-03 0. -1.
         11   -1    0    0    0    0 -0.00000000000E+00 -0.00000000000E+00 -0.45593999997E+02  0.45594000000E+02  0.51100000000E-03 0.  1.
    9900012    2    1    2    0    0 -0.26365821065E+02  0.21764208072E+00 -0.17930923552E+02  0.59301922977E+02  0.49999961608E+02 0.  0.
         12    1    1    2    0    0  0.26365821065E+02 -0.21764208072E+00  0.17930923552E+02  0.31886077023E+02  0.00000000000E+00 0. -1.
         11    1    3    3    0    0 -0.76412146525E+01  0.18325715586E+02  0.90023473163E+01  0.21800510787E+02  0.51100000000E-03 0. -1.
        -11    1    3    3    0    0 -0.14921420910E+01 -0.20828920101E+01 -0.25632174938E+01  0.36242256176E+01  0.51100000000E-03 0.  1.
         12    1    3    3    0    0 -0.17232464321E+02 -0.16025181495E+02 -0.24370053375E+02  0.33877186572E+02  0.00000000000E+00 0. -1.
</event>
<event>
 7    1  0.7579108E-012  0.5930196E+02  0.7816164E-02  0.1266605E+00
        -11   -1    0    0    0    0  0.00000000000E+00  0.00000000000E+00  0.45593999997E+02  0.45594000000E+02  0.51100000000E-03 0.  1.
         11   -1    0    0    0    0 -0.00000000000E+00 -0.00000000000E+00 -0.45593999997E+02  0.45594000000E+02  0.51100000000E-03 0. -1.
    9900012    2    1    2    0    0  0.16664051958E+02  0.25786000056E+02 -0.86087942745E+01  0.59301956573E+02  0.50000022880E+02 0.  0.
         12    1    1    2    0    0 -0.16664051958E+02 -0.25786000056E+02  0.86087942745E+01  0.31886043427E+02  0.00000000000E+00 0. -1.
         11    1    3    3    0    0  0.24542421854E+02  0.13912100443E+02 -0.17125360420E+01  0.28263223262E+02  0.51100000000E-03 0. -1.
        -11    1    3    3    0    0 -0.14300513199E+02  0.10610498482E+02  0.40714458325E+01  0.18266472764E+02  0.51100000000E-03 0.  1.
         12    1    3    3    0    0  0.64221433040E+01  0.12634011307E+01 -0.10967704065E+02  0.12772260547E+02  0.00000000000E+00 0. -1.
</event>
<event>
 7    1  0.8129086E-012  0.5930192E+02  0.7816164E-02  0.1266605E+00
        -11   -1    0    0    0    0  0.00000000000E+00  0.00000000000E+00  0.45593999997E+02  0.45594000000E+02  0.51100000000E-03 0. -1.
         11   -1    0    0    0    0 -0.00000000000E+00 -0.00000000000E+00 -0.45593999997E+02  0.45594000000E+02  0.51100000000E-03 0.  1.
    9900012    2    1    2    0    0 -0.72959707076E+01  0.28390547302E+02 -0.12548625447E+02  0.59301915806E+02  0.49999948530E+02 0.  0.
         12    1    1    2    0    0  0.72959707076E+01 -0.28390547302E+02  0.12548625447E+02  0.31886084194E+02  0.00000000000E+00 0. -1.
         11    1    3    3    0    0  0.23344589309E+01 -0.35401416266E+01  0.74518148999E+01  0.85739049913E+01  0.51100000000E-03 0. -1.
        -11    1    3    3    0    0  0.82476755896E+01  0.22993046154E+02 -0.18578458646E+02  0.30689793906E+02  0.51100000000E-03 0.  1.
        -12    1    3    3    0    0 -0.17878105228E+02  0.89376427738E+01 -0.14219817003E+01  0.20038216908E+02  0.00000000000E+00 0.  1.
</event>
<event>
 7    1  0.7579108E-012  0.5930198E+02  0.7816164E-02  0.1266605E+00
        -11   -1    0    0    0    0  0.00000000000E+00  0.00000000000E+00  0.45593999997E+02  0.45594000000E+02  0.51100000000E-03 0. -1.
         11   -1    0    0    0    0 -0.00000000000E+00 -0.00000000000E+00 -0.45593999997E+02  0.45594000000E+02  0.51100000000E-03 0.  1.
    9900012    2    1    2    0    0 -0.15252379073E+02  0.22970809412E+02 -0.16013282930E+02  0.59301978256E+02  0.50000062425E+02 0.  0.
         12    1    1    2    0    0  0.15252379073E+02 -0.22970809412E+02  0.16013282930E+02  0.31886021744E+02  0.00000000000E+00 0. -1.
         11    1    3    3    0    0 -0.11167154984E+02  0.11983113636E+02 -0.48040829862E+01  0.17069844066E+02  0.51100000000E-03 0. -1.
        -11    1    3    3    0    0  0.86492548945E+00 -0.14581037672E+02 -0.28688348927E+01  0.14885730401E+02  0.51100000000E-03 0.  1.
        -12    1    3    3    0    0 -0.49501495789E+01  0.25568733448E+02 -0.83403650507E+01  0.27346403789E+02  0.00000000000E+00 0.  1.
</event>
<event>
 7    1  0.7579108E-012  0.5930179E+02  0.7816164E-02  0.1266605E+00
        -11   -1    0    0    0    0  0.00000000000E+00  0.00000000000E+00  0.45593999997E+02  0.45594000000E+02  0.51100000000E-03 0.  1.
         11   -1    0    0    0    0 -0.00000000000E+00 -0.00000000000E+00 -0.45593999997E+02  0.45594000000E+02  0.51100000000E-03 0. -1.
    9900012    2    1    2    0    0  0.29389505566E+02  0.11335779173E+01  0.12316744563E+02  0.59301792434E+02  0.49999723528E+02 0.  0.
         12    1    1    2    0    0 -0.29389505566E+02 -0.11335779173E+01 -0.12316744563E+02  0.31886207566E+02  0.00000000000E+00 0. -1.
         11    1    3    3    0    0  0.64502000695E-01 -0.40708212541E+01 -0.81101611405E+01  0.90747154322E+01  0.51100000000E-03 0. -1.
        -11    1    3    3    0    0  0.29955655990E+02  0.12134716263E+02  0.25864823163E+02  0.41395431415E+02  0.51100000000E-03 0.  1.
        -12    1    3    3    0    0 -0.63065242427E+00 -0.69303170912E+01 -0.54379174594E+01  0.88316455862E+01  0.00000000000E+00 0.  1.
</event>
<event>
 7    1  0.7579108E-012  0.5930195E+02  0.7816164E-02  0.1266605E+00
        -11   -1    0    0    0    0  0.00000000000E+00  0.00000000000E+00  0.45593999997E+02  0.45594000000E+02  0.51100000000E-03 0.  1.
         11   -1    0    0    0    0 -0.00000000000E+00 -0.00000000000E+00 -0.45593999997E+02  0.45594000000E+02  0.51100000000E-03 0. -1.
    9900012    2    1    2    0    0  0.83808471306E+01  0.24216043886E+02  0.18975372458E+02  0.59301950699E+02  0.50000012166E+02 0.  0.
         12    1    1    2    0    0 -0.83808471306E+01 -0.24216043886E+02 -0.18975372458E+02  0.31886049301E+02  0.00000000000E+00 0. -1.
         11    1    3    3    0    0 -0.15327143081E+02  0.13990679780E+01 -0.19444229659E+01  0.15513203640E+02  0.51100000000E-03 0.  1.
        -11    1    3    3    0    0  0.13446206240E+02  0.48924436791E+01 -0.11488824804E+00  0.14309076384E+02  0.51100000000E-03 0. -1.
         12    1    3    3    0    0  0.10261783972E+02  0.17924532229E+02  0.21034683672E+02  0.29479670675E+02  0.00000000000E+00 0. -1.
</event>
<event>
 7    1  0.7579108E-012  0.5930159E+02  0.7816164E-02  0.1266606E+00
        -11   -1    0    0    0    0  0.00000000000E+00  0.00000000000E+00  0.45593999997E+02  0.45594000000E+02  0.51100000000E-03 0.  1.
         11   -1    0    0    0    0 -0.00000000000E+00 -0.00000000000E+00 -0.45593999997E+02  0.45594000000E+02  0.51100000000E-03 0. -1.
    9900012    2    1    2    0    0  0.22843869861E+02 -0.22181527716E+02 -0.16971913817E+01  0.59301591914E+02  0.49999357825E+02 0.  0.
         12    1    1    2    0    0 -0.22843869861E+02  0.22181527716E+02  0.16971913817E+01  0.31886408086E+02  0.00000000000E+00 0. -1.
         11    1    3    3    0    0  0.35690662805E+01 -0.30687607378E+02 -0.69762177194E+01  0.31672308009E+02  0.51100000000E-03 0. -1.
        -11    1    3    3    0    0 -0.90878832761E+00 -0.19120019254E+01  0.44182505682E+01  0.48992434040E+01  0.51100000000E-03 0.  1.
         12    1    3    3    0    0  0.20183591908E+02  0.10418081587E+02  0.86077576959E+00  0.22730040501E+02  0.00000000000E+00 0. -1.
</event>
<event>
 7    1  0.7579108E-012  0.5930186E+02  0.7816164E-02  0.1266605E+00
        -11   -1    0    0    0    0  0.00000000000E+00  0.00000000000E+00  0.45593999997E+02  0.45594000000E+02  0.51100000000E-03 0.  1.
         11   -1    0    0    0    0 -0.00000000000E+00 -0.00000000000E+00 -0.45593999997E+02  0.45594000000E+02  0.51100000000E-03 0. -1.
    9900012    2    1    2    0    0  0.17405876680E+02  0.18137895243E+02  0.19615768989E+02  0.59301855990E+02  0.49999839439E+02 0.  0.
         12    1    1    2    0    0 -0.17405876680E+02 -0.18137895243E+02 -0.19615768989E+02  0.31886144010E+02  0.00000000000E+00 0. -1.
         11    1    3    3    0    0  0.38236207192E+01 -0.10559440708E+02  0.21221943973E+01  0.11429154509E+02  0.51100000000E-03 0. -1.
        -11    1    3    3    0    0  0.69459643996E+01  0.17594923503E+02  0.26174950218E+02  0.32294825804E+02  0.51100000000E-03 0.  1.
        -12    1    3    3    0    0  0.66362915608E+01  0.11102412448E+02 -0.86813756261E+01  0.15577875677E+02  0.00000000000E+00 0.  1.
</event>
<event>
 7    1  0.7579108E-012  0.5930191E+02  0.7816164E-02  0.1266605E+00
        -11   -1    0    0    0    0  0.00000000000E+00  0.00000000000E+00  0.45593999997E+02  0.45594000000E+02  0.51100000000E-03 0.  1.
         11   -1    0    0    0    0 -0.00000000000E+00 -0.00000000000E+00 -0.45593999997E+02  0.45594000000E+02  0.51100000000E-03 0. -1.
    9900012    2    1    2    0    0  0.20771039336E+02 -0.22059881949E+02  0.99321760116E+01  0.59301912328E+02  0.49999942186E+02 0.  0.
         12    1    1    2    0    0 -0.20771039336E+02  0.22059881949E+02 -0.99321760116E+01  0.31886087672E+02  0.00000000000E+00 0. -1.
         11    1    3    3    0    0 -0.97327765397E+01 -0.18323785208E+02  0.45961496519E+01  0.21251179624E+02  0.51100000000E-03 0. -1.
        -11    1    3    3    0    0  0.23487447537E+02 -0.69498642215E+01 -0.51512972131E+01  0.25029915456E+02  0.51100000000E-03 0.  1.
        -12    1    3    3    0    0  0.70163683386E+01  0.32137674797E+01  0.10487323573E+02  0.13020817248E+02  0.00000000000E+00 0.  1.
</event>
<event>
 7    1  0.7579108E-012  0.5930193E+02  0.7816164E-02  0.1266605E+00
        -11   -1    0    0    0    0  0.00000000000E+00  0.00000000000E+00  0.45593999997E+02  0.45594000000E+02  0.51100000000E-03 0.  1.
         11   -1    0    0    0    0 -0.00000000000E+00 -0.00000000000E+00 -0.45593999997E+02  0.45594000000E+02  0.51100000000E-03 0. -1.
    9900012    2    1    2    0    0  0.70197683129E+01 -0.27024117082E+02  0.15399394830E+02  0.59301930748E+02  0.49999975780E+02 0.  0.
         12    1    1    2    0    0 -0.70197683129E+01  0.27024117082E+02 -0.15399394830E+02  0.31886069252E+02  0.00000000000E+00 0. -1.
         11    1    3    3    0    0 -0.69177578716E+01  0.75742609517E+01  0.57791443039E+01  0.11773840159E+02  0.51100000000E-03 0. -1.
        -11    1    3    3    0    0  0.19883871912E+02 -0.24539370170E+02 -0.11941939866E+01  0.31606568148E+02  0.51100000000E-03 0.  1.
        -12    1    3    3    0    0 -0.59463457277E+01 -0.10059007864E+02  0.10814444513E+02  0.15921522441E+02  0.00000000000E+00 0.  1.
</event>
<event>
 7    1  0.7579108E-012  0.5930203E+02  0.7816164E-02  0.1266604E+00
        -11   -1    0    0    0    0  0.00000000000E+00  0.00000000000E+00  0.45593999997E+02  0.45594000000E+02  0.51100000000E-03 0. -1.
         11   -1    0    0    0    0 -0.00000000000E+00 -0.00000000000E+00 -0.45593999997E+02  0.45594000000E+02  0.51100000000E-03 0.  1.
    9900012    2    1    2    0    0 -0.28057675257E+02 -0.33806231845E+01  0.14766628542E+02  0.59302030163E+02  0.50000157090E+02 0.  0.
         12    1    1    2    0    0  0.28057675257E+02  0.33806231845E+01 -0.14766628542E+02  0.31885969837E+02  0.00000000000E+00 0. -1.
         11    1    3    3    0    0 -0.31548344593E+02 -0.17460562435E+02  0.14612772249E+02  0.38906328536E+02  0.51100000000E-03 0. -1.
        -11    1    3    3    0    0  0.16530448797E+01  0.11846172965E+02 -0.61576787592E+01  0.13452931995E+02  0.51100000000E-03 0.  1.
        -12    1    3    3    0    0  0.18376244562E+01  0.22337662854E+01  0.63115350516E+01  0.69427696323E+01  0.00000000000E+00 0.  1.
</event>
<event>
 7    1  0.7579108E-012  0.5930194E+02  0.7816164E-02  0.1266605E+00
        -11   -1    0    0    0    0  0.00000000000E+00  0.00000000000E+00  0.45593999997E+02  0.45594000000E+02  0.51100000000E-03 0. -1.
         11   -1    0    0    0    0 -0.00000000000E+00 -0.00000000000E+00 -0.45593999997E+02  0.45594000000E+02  0.51100000000E-03 0.  1.
    9900012    2    1    2    0    0  0.30135580693E+02  0.70525664897E+01  0.76699820272E+01  0.59301944394E+02  0.50000000668E+02 0.  0.
         12    1    1    2    0    0 -0.30135580693E+02 -0.70525664897E+01 -0.76699820272E+01  0.31886055606E+02  0.00000000000E+00 0. -1.
         11    1    3    3    0    0 -0.25271095956E+01  0.16892316156E+02  0.12295872589E+02  0.21045786063E+02  0.51100000000E-03 0. -1.
        -11    1    3    3    0    0  0.72744037331E+01 -0.46331862611E-01 -0.80268137612E+01  0.10832766763E+02  0.51100000000E-03 0.  1.
         12    1    3    3    0    0  0.25388286556E+02 -0.97934178039E+01  0.34009231993E+01  0.27423391568E+02  0.00000000000E+00 0. -1.
</event>
<event>
 7    1  0.7579108E-012  0.5930189E+02  0.7816164E-02  0.1266605E+00
        -11   -1    0    0    0    0  0.00000000000E+00  0.00000000000E+00  0.45593999997E+02  0.45594000000E+02  0.51100000000E-03 0. -1.
         11   -1    0    0    0    0 -0.00000000000E+00 -0.00000000000E+00 -0.45593999997E+02  0.45594000000E+02  0.51100000000E-03 0.  1.
    9900012    2    1    2    0    0 -0.15278685173E+02 -0.21765210115E+02 -0.17594362124E+02  0.59301887498E+02  0.49999896903E+02 0.  0.
         12    1    1    2    0    0  0.15278685173E+02  0.21765210115E+02  0.17594362124E+02  0.31886112502E+02  0.00000000000E+00 0. -1.
         11    1    3    3    0    0 -0.52829845153E+01 -0.14452571314E+02 -0.53302901722E+01  0.16284923597E+02  0.51100000000E-03 0. -1.
        -11    1    3    3    0    0  0.13309995991E+02  0.56484349544E+01 -0.28526983556E+01  0.14737662599E+02  0.51100000000E-03 0.  1.
        -12    1    3    3    0    0 -0.23305696648E+02 -0.12961073755E+02 -0.94113735962E+01  0.28279301302E+02  0.00000000000E+00 0.  1.
</event>
<event>
 7    1  0.7579108E-012  0.5930196E+02  0.7816164E-02  0.1266605E+00
        -11   -1    0    0    0    0  0.00000000000E+00  0.00000000000E+00  0.45593999997E+02  0.45594000000E+02  0.51100000000E-03 0. -1.
         11   -1    0    0    0    0 -0.00000000000E+00 -0.00000000000E+00 -0.45593999997E+02  0.45594000000E+02  0.51100000000E-03 0.  1.
    9900012    2    1    2    0    0 -0.12323296878E+02  0.27220454221E+02 -0.11131162203E+02  0.59301960015E+02  0.50000029157E+02 0.  0.
         12    1    1    2    0    0  0.12323296878E+02 -0.27220454221E+02  0.11131162203E+02  0.31886039985E+02  0.00000000000E+00 0. -1.
         11    1    3    3    0    0 -0.20125437449E+02  0.11955885741E+02  0.12349246202E+02  0.26466588718E+02  0.51100000000E-03 0. -1.
        -11    1    3    3    0    0 -0.19345180734E+01  0.29515203189E+01 -0.14129904284E+02  0.14563928993E+02  0.51100000000E-03 0.  1.
         12    1    3    3    0    0  0.97366586436E+01  0.12313048160E+02 -0.93505041212E+01  0.18271442304E+02  0.00000000000E+00 0. -1.
</event>
<event>
 7    1  0.7579108E-012  0.5930196E+02  0.7816164E-02  0.1266605E+00
        -11   -1    0    0    0    0  0.00000000000E+00  0.00000000000E+00  0.45593999997E+02  0.45594000000E+02  0.51100000000E-03 0. -1.
         11   -1    0    0    0    0 -0.00000000000E+00 -0.00000000000E+00 -0.45593999997E+02  0.45594000000E+02  0.51100000000E-03 0.  1.
    9900012    2    1    2    0    0 -0.25426711573E+02 -0.49781667819E+01 -0.18585477609E+02  0.59301956284E+02  0.50000022352E+02 0.  0.
         12    1    1    2    0    0  0.25426711573E+02  0.49781667819E+01  0.18585477609E+02  0.31886043716E+02  0.00000000000E+00 0. -1.
         11    1    3    3    0    0  0.12837361531E+02 -0.33603268211E+01 -0.97656037532E+01  0.16475941986E+02  0.51100000000E-03 0. -1.
        -11    1    3    3    0    0 -0.23698353723E+02  0.59158407883E+01 -0.99812729935E+01  0.26386264462E+02  0.51100000000E-03 0.  1.
         12    1    3    3    0    0 -0.14565719380E+02 -0.75336807491E+01  0.11613991380E+01  0.16439749835E+02  0.00000000000E+00 0. -1.
</event>
<event>
 7    1  0.7579108E-012  0.5930191E+02  0.7816164E-02  0.1266605E+00
        -11   -1    0    0    0    0  0.00000000000E+00  0.00000000000E+00  0.45593999997E+02  0.45594000000E+02  0.51100000000E-03 0.  1.
         11   -1    0    0    0    0 -0.00000000000E+00 -0.00000000000E+00 -0.45593999997E+02  0.45594000000E+02  0.51100000000E-03 0. -1.
    9900012    2    1    2    0    0 -0.10397173123E+02  0.11768718907E+02  0.27751019813E+02  0.59301905000E+02  0.49999928823E+02 0.  0.
         12    1    1    2    0    0  0.10397173123E+02 -0.11768718907E+02 -0.27751019813E+02  0.31886095000E+02  0.00000000000E+00 0. -1.
         11    1    3    3    0    0 -0.34569820913E+01  0.27105827494E+02  0.15840077146E+02  0.31584563533E+02  0.51100000000E-03 0. -1.
        -11    1    3    3    0    0 -0.64118480411E+01 -0.18437551394E+01  0.12534273808E+02  0.14199269294E+02  0.51100000000E-03 0.  1.
         12    1    3    3    0    0 -0.52834299033E+00 -0.13493353447E+02 -0.62333114115E+00  0.13518072173E+02  0.00000000000E+00 0. -1.
</event>
<event>
 7    1  0.7579108E-012  0.5930194E+02  0.7816164E-02  0.1266605E+00
        -11   -1    0    0    0    0  0.00000000000E+00  0.00000000000E+00  0.45593999997E+02  0.45594000000E+02  0.51100000000E-03 0.  1.
         11   -1    0    0    0    0 -0.00000000000E+00 -0.00000000000E+00 -0.45593999997E+02  0.45594000000E+02  0.51100000000E-03 0. -1.
    9900012    2    1    2    0    0 -0.21349533893E+02  0.98007981611E+01  0.21560666072E+02  0.59301944058E+02  0.50000000055E+02 0.  0.
         12    1    1    2    0    0  0.21349533893E+02 -0.98007981611E+01 -0.21560666072E+02  0.31886055942E+02  0.00000000000E+00 0. -1.
         11    1    3    3    0    0 -0.75656496670E+00 -0.12086219515E+02 -0.31136700251E+01  0.12503760794E+02  0.51100000000E-03 0. -1.
        -11    1    3    3    0    0 -0.19275034447E+02  0.19993140914E+02  0.65576518508E+01  0.28535161373E+02  0.51100000000E-03 0.  1.
        -12    1    3    3    0    0 -0.13179344792E+01  0.18938767621E+01  0.18116684247E+02  0.18263021891E+02  0.00000000000E+00 0.  1.
</event>
<event>
 7    1  0.7579108E-012  0.5930194E+02  0.7816164E-02  0.1266605E+00
        -11   -1    0    0    0    0  0.00000000000E+00  0.00000000000E+00  0.45593999997E+02  0.45594000000E+02  0.51100000000E-03 0. -1.
         11   -1    0    0    0    0 -0.00000000000E+00 -0.00000000000E+00 -0.45593999997E+02  0.45594000000E+02  0.51100000000E-03 0.  1.
    9900012    2    1    2    0    0  0.27980504684E+02 -0.71239860584E-01 -0.15290749272E+02  0.59301941436E+02  0.49999995272E+02 0.  0.
         12    1    1    2    0    0 -0.27980504684E+02  0.71239860584E-01  0.15290749272E+02  0.31886058564E+02  0.00000000000E+00 0. -1.
         11    1    3    3    0    0  0.13581509572E+02  0.19121005263E+02  0.94320567843E+00  0.23472534626E+02  0.51100000000E-03 0. -1.
        -11    1    3    3    0    0  0.54953824070E+01 -0.15201147317E+02  0.81644022229E+00  0.16184581627E+02  0.51100000000E-03 0.  1.
        -12    1    3    3    0    0  0.89036127042E+01 -0.39910978072E+01 -0.17050395173E+02  0.19644825182E+02  0.00000000000E+00 0.  1.
</event>
<event>
 7    1  0.7579108E-012  0.5930193E+02  0.7816164E-02  0.1266605E+00
        -11   -1    0    0    0    0  0.00000000000E+00  0.00000000000E+00  0.45593999997E+02  0.45594000000E+02  0.51100000000E-03 0. -1.
         11   -1    0    0    0    0 -0.00000000000E+00 -0.00000000000E+00 -0.45593999997E+02  0.45594000000E+02  0.51100000000E-03 0.  1.
    9900012    2    1    2    0    0 -0.12351477705E+02  0.94957290194E+01 -0.27820739329E+02  0.59301930817E+02  0.49999975907E+02 0.  0.
         12    1    1    2    0    0  0.12351477705E+02 -0.94957290194E+01  0.27820739329E+02  0.31886069183E+02  0.00000000000E+00 0. -1.
         11    1    3    3    0    0  0.12882802474E+01  0.17318592068E+02 -0.26243559618E+02  0.31469313925E+02  0.51100000000E-03 0. -1.
        -11    1    3    3    0    0 -0.73812736058E+01 -0.15852356352E+02  0.25595449595E+00  0.17488450901E+02  0.51100000000E-03 0.  1.
        -12    1    3    3    0    0 -0.62584843467E+01  0.80294933038E+01 -0.18331342069E+01  0.10344165991E+02  0.00000000000E+00 0.  1.
</event>
<event>
 7    1  0.7579108E-012  0.5930193E+02  0.7816164E-02  0.1266605E+00
        -11   -1    0    0    0    0  0.00000000000E+00  0.00000000000E+00  0.45593999997E+02  0.45594000000E+02  0.51100000000E-03 0. -1.
         11   -1    0    0    0    0 -0.00000000000E+00 -0.00000000000E+00 -0.45593999997E+02  0.45594000000E+02  0.51100000000E-03 0.  1.
    9900012    2    1    2    0    0 -0.20374022846E+02 -0.56360236158E+01 -0.23871658183E+02  0.59301927280E+02  0.49999969456E+02 0.  0.
         12    1    1    2    0    0  0.20374022846E+02  0.56360236158E+01  0.23871658183E+02  0.31886072720E+02  0.00000000000E+00 0. -1.
         11    1    3    3    0    0  0.21224305845E+01  0.89619942057E+01  0.65166424340E+01  0.11282228530E+02  0.51100000000E-03 0. -1.
        -11    1    3    3    0    0 -0.24841586990E+02 -0.79937718127E+01 -0.12758437035E+02  0.29047935345E+02  0.51100000000E-03 0.  1.
        -12    1    3    3    0    0  0.23451335602E+01 -0.66042460089E+01 -0.17629863582E+02  0.18971763405E+02  0.00000000000E+00 0.  1.
</event>
<event>
 7    1  0.7579108E-012  0.5930196E+02  0.7816164E-02  0.1266605E+00
        -11   -1    0    0    0    0  0.00000000000E+00  0.00000000000E+00  0.45593999997E+02  0.45594000000E+02  0.51100000000E-03 0.  1.
         11   -1    0    0    0    0 -0.00000000000E+00 -0.00000000000E+00 -0.45593999997E+02  0.45594000000E+02  0.51100000000E-03 0. -1.
    9900012    2    1    2    0    0 -0.18651851005E+02  0.24841378614E+02  0.71926346621E+01  0.59301958685E+02  0.50000026731E+02 0.  0.
         12    1    1    2    0    0  0.18651851005E+02 -0.24841378614E+02 -0.71926346621E+01  0.31886041315E+02  0.00000000000E+00 0. -1.
         11    1    3    3    0    0  0.19159946026E+01  0.28842545428E+02 -0.53131241768E+00  0.28910997133E+02  0.51100000000E-03 0.  1.
        -11    1    3    3    0    0 -0.22954823907E+02 -0.38011098454E+01  0.11472793996E+02  0.25942193026E+02  0.51100000000E-03 0. -1.
         12    1    3    3    0    0  0.23869782998E+01 -0.20005696807E+00 -0.37488469163E+01  0.44487685258E+01  0.00000000000E+00 0. -1.
</event>
<event>
 7    1  0.7579108E-012  0.5930194E+02  0.7816164E-02  0.1266605E+00
        -11   -1    0    0    0    0  0.00000000000E+00  0.00000000000E+00  0.45593999997E+02  0.45594000000E+02  0.51100000000E-03 0.  1.
         11   -1    0    0    0    0 -0.00000000000E+00 -0.00000000000E+00 -0.45593999997E+02  0.45594000000E+02  0.51100000000E-03 0. -1.
    9900012    2    1    2    0    0 -0.44406560605E+01 -0.28558382861E+02  0.13469228994E+02  0.59301940545E+02  0.49999993648E+02 0.  0.
         12    1    1    2    0    0  0.44406560605E+01  0.28558382861E+02 -0.13469228994E+02  0.31886059455E+02  0.00000000000E+00 0. -1.
         11    1    3    3    0    0 -0.14061318147E+02 -0.68433129049E+01 -0.79664621925E+01  0.17550388021E+02  0.51100000000E-03 0. -1.
        -11    1    3    3    0    0  0.16802897551E+02 -0.20332491453E+02  0.22094206237E+02  0.34407870092E+02  0.51100000000E-03 0.  1.
        -12    1    3    3    0    0 -0.71822354649E+01 -0.13825785032E+01 -0.65851505017E+00  0.73436824319E+01  0.00000000000E+00 0.  1.
</event>
<event>
 7    1  0.7579108E-012  0.5930193E+02  0.7816164E-02  0.1266605E+00
        -11   -1    0    0    0    0  0.00000000000E+00  0.00000000000E+00  0.45593999997E+02  0.45594000000E+02  0.51100000000E-03 0. -1.
         11   -1    0    0    0    0 -0.00000000000E+00 -0.00000000000E+00 -0.45593999997E+02  0.45594000000E+02  0.51100000000E-03 0.  1.
    9900012    2    1    2    0    0  0.12085424330E+02 -0.15454637646E+02 -0.25135996175E+02  0.59301927653E+02  0.49999970137E+02 0.  0.
         12    1    1    2    0    0 -0.12085424330E+02  0.15454637646E+02  0.25135996175E+02  0.31886072347E+02  0.00000000000E+00 0. -1.
         11    1    3    3    0    0  0.11808966085E+02  0.13656718573E+02 -0.19657797599E+02  0.26690572284E+02  0.51100000000E-03 0. -1.
        -11    1    3    3    0    0  0.11084516849E+01 -0.18420716714E+02 -0.99822396287E+01  0.20980862177E+02  0.51100000000E-03 0.  1.
         12    1    3    3    0    0 -0.83199343980E+00 -0.10690639504E+02  0.45040410523E+01  0.11630493192E+02  0.00000000000E+00 0. -1.
</event>
<event>
 7    1  0.7579108E-012  0.5930196E+02  0.7816164E-02  0.1266605E+00
        -11   -1    0    0    0    0  0.00000000000E+00  0.00000000000E+00  0.45593999997E+02  0.45594000000E+02  0.51100000000E-03 0.  1.
         11   -1    0    0    0    0 -0.00000000000E+00 -0.00000000000E+00 -0.45593999997E+02  0.45594000000E+02  0.51100000000E-03 0. -1.
    9900012    2    1    2    0    0 -0.92382504700E+01  0.27241968600E+02 -0.13756794822E+02  0.59301960284E+02  0.50000029648E+02 0.  0.
         12    1    1    2    0    0  0.92382504700E+01 -0.27241968600E+02  0.13756794822E+02  0.31886039716E+02  0.00000000000E+00 0. -1.
         11    1    3    3    0    0  0.12989786141E+02 -0.14329466012E+00 -0.58431697848E+01  0.14244216748E+02  0.51100000000E-03 0. -1.
        -11    1    3    3    0    0 -0.20483256689E+02  0.25380573985E+02  0.39926508519E+01  0.32858463164E+02  0.51100000000E-03 0.  1.
        -12    1    3    3    0    0 -0.17447799223E+01  0.20046892754E+01 -0.11906275890E+02  0.12199280373E+02  0.00000000000E+00 0.  1.
</event>
<event>
 7    1  0.7579108E-012  0.5930196E+02  0.7816164E-02  0.1266605E+00
        -11   -1    0    0    0    0  0.00000000000E+00  0.00000000000E+00  0.45593999997E+02  0.45594000000E+02  0.51100000000E-03 0. -1.
         11   -1    0    0    0    0 -0.00000000000E+00 -0.00000000000E+00 -0.45593999997E+02  0.45594000000E+02  0.51100000000E-03 0.  1.
    9900012    2    1    2    0    0  0.30993530733E+02 -0.68547441862E+01  0.30220628221E+01  0.59301963419E+02  0.50000035366E+02 0.  0.
         12    1    1    2    0    0 -0.30993530733E+02  0.68547441862E+01 -0.30220628221E+01  0.31886036581E+02  0.00000000000E+00 0. -1.
         11    1    3    3    0    0 -0.10796454679E+02 -0.10819719429E+02 -0.30771922255E+01  0.15591628343E+02  0.51100000000E-03 0. -1.
        -11    1    3    3    0    0  0.74153556858E+01  0.19911455982E+01  0.51890378380E+01  0.92670531823E+01  0.51100000000E-03 0.  1.
         12    1    3    3    0    0  0.34374629726E+02  0.19738296443E+01  0.91021720963E+00  0.34443281894E+02  0.00000000000E+00 0. -1.
</event>
<event>
 7    1  0.7579108E-012  0.5930201E+02  0.7816164E-02  0.1266605E+00
        -11   -1    0    0    0    0  0.00000000000E+00  0.00000000000E+00  0.45593999997E+02  0.45594000000E+02  0.51100000000E-03 0.  1.
         11   -1    0    0    0    0 -0.00000000000E+00 -0.00000000000E+00 -0.45593999997E+02  0.45594000000E+02  0.51100000000E-03 0. -1.
    9900012    2    1    2    0    0  0.14611420629E+02 -0.14061114495E+02  0.24607070684E+02  0.59302008071E+02  0.50000116800E+02 0.  0.
         12    1    1    2    0    0 -0.14611420629E+02  0.14061114495E+02 -0.24607070684E+02  0.31885991929E+02  0.00000000000E+00 0. -1.
         11    1    3    3    0    0 -0.12997047989E+02  0.38044673346E+00  0.18425491995E+02  0.22551424603E+02  0.51100000000E-03 0. -1.
        -11    1    3    3    0    0  0.20536358227E+02 -0.14222586789E+02  0.11883998410E+02  0.27663213889E+02  0.51100000000E-03 0.  1.
        -12    1    3    3    0    0  0.70721103909E+01 -0.21897443916E+00 -0.57024197207E+01  0.90873695786E+01  0.00000000000E+00 0.  1.
</event>
<event>
 7    1  0.7579108E-012  0.5930194E+02  0.7816164E-02  0.1266605E+00
        -11   -1    0    0    0    0  0.00000000000E+00  0.00000000000E+00  0.45593999997E+02  0.45594000000E+02  0.51100000000E-03 0.  1.
         11   -1    0    0    0    0 -0.00000000000E+00 -0.00000000000E+00 -0.45593999997E+02  0.45594000000E+02  0.51100000000E-03 0. -1.
    9900012    2    1    2    0    0  0.15784405433E+02  0.21168306228E+02  0.17873889155E+02  0.59301944161E+02  0.50000000243E+02 0.  0.
         12    1    1    2    0    0 -0.15784405433E+02 -0.21168306228E+02 -0.17873889155E+02  0.31886055839E+02  0.00000000000E+00 0. -1.
         11    1    3    3    0    0  0.82822696165E+01  0.15541864112E+02 -0.12397242171E+02  0.21536878692E+02  0.51100000000E-03 0. -1.
        -11    1    3    3    0    0 -0.14789453027E+01  0.11642356006E+02  0.16796003056E+02  0.20489935371E+02  0.51100000000E-03 0.  1.
         12    1    3    3    0    0  0.89810811193E+01 -0.60159138903E+01  0.13475128270E+02  0.17275130098E+02  0.00000000000E+00 0. -1.
</event>
<event>
 7    1  0.7579108E-012  0.5930196E+02  0.7816164E-02  0.1266605E+00
        -11   -1    0    0    0    0  0.00000000000E+00  0.00000000000E+00  0.45593999997E+02  0.45594000000E+02  0.51100000000E-03 0.  1.
         11   -1    0    0    0    0 -0.00000000000E+00 -0.00000000000E+00 -0.45593999997E+02  0.45594000000E+02  0.51100000000E-03 0. -1.
    9900012    2    1    2    0    0 -0.27268230755E+02 -0.11986297156E+02  0.11379439622E+02  0.59301962709E+02  0.50000034070E+02 0.  0.
         12    1    1    2    0    0  0.27268230755E+02  0.11986297156E+02 -0.11379439622E+02  0.31886037291E+02  0.00000000000E+00 0. -1.
         11    1    3    3    0    0 -0.72609522251E+01  0.15045320157E+02 -0.41514930927E+01  0.17213889189E+02  0.51100000000E-03 0. -1.
        -11    1    3    3    0    0 -0.15467330020E+02 -0.23962343727E+02  0.33319351572E+01  0.28714700190E+02  0.51100000000E-03 0.  1.
        -12    1    3    3    0    0 -0.45399485103E+01 -0.30692735857E+01  0.12198997557E+02  0.13373373330E+02  0.00000000000E+00 0.  1.
</event>
<event>
 7    1  0.7579108E-012  0.5930195E+02  0.7816164E-02  0.1266605E+00
        -11   -1    0    0    0    0  0.00000000000E+00  0.00000000000E+00  0.45593999997E+02  0.45594000000E+02  0.51100000000E-03 0. -1.
         11   -1    0    0    0    0 -0.00000000000E+00 -0.00000000000E+00 -0.45593999997E+02  0.45594000000E+02  0.51100000000E-03 0.  1.
    9900012    2    1    2    0    0  0.19775891423E+01 -0.30642782914E+02 -0.85923935708E+01  0.59301949275E+02  0.50000009570E+02 0.  0.
         12    1    1    2    0    0 -0.19775891423E+01  0.30642782914E+02  0.85923935708E+01  0.31886050725E+02  0.00000000000E+00 0. -1.
         11    1    3    3    0    0  0.71682165675E+01  0.49980775391E+01 -0.56410328006E+01  0.10401219119E+02  0.51100000000E-03 0. -1.
        -11    1    3    3    0    0 -0.14867527809E+02 -0.36182744919E+02 -0.22221298826E+01  0.39181274539E+02  0.51100000000E-03 0.  1.
        -12    1    3    3    0    0  0.96769003834E+01  0.54188446604E+00 -0.72923088759E+00  0.97194556171E+01  0.00000000000E+00 0.  1.
</event>
<event>
 7    1  0.7579108E-012  0.5930192E+02  0.7816164E-02  0.1266605E+00
        -11   -1    0    0    0    0  0.00000000000E+00  0.00000000000E+00  0.45593999997E+02  0.45594000000E+02  0.51100000000E-03 0.  1.
         11   -1    0    0    0    0 -0.00000000000E+00 -0.00000000000E+00 -0.45593999997E+02  0.45594000000E+02  0.51100000000E-03 0. -1.
    9900012    2    1    2    0    0  0.22856541052E+01  0.18276756660E+02  0.26028021239E+02  0.59301922500E+02  0.49999960739E+02 0.  0.
         12    1    1    2    0    0 -0.22856541052E+01 -0.18276756660E+02 -0.26028021239E+02  0.31886077500E+02  0.00000000000E+00 0. -1.
         11    1    3    3    0    0 -0.86198747877E+01 -0.98996132012E+00 -0.31606333263E+01  0.92342768020E+01  0.51100000000E-03 0. -1.
        -11    1    3    3    0    0 -0.51640620073E+01  0.23002431226E+02  0.21334959167E+02  0.31795595004E+02  0.51100000000E-03 0.  1.
        -12    1    3    3    0    0  0.16069590900E+02 -0.37357132457E+01  0.78536953985E+01  0.18272050694E+02  0.00000000000E+00 0.  1.
</event>
<event>
 7    1  0.7579108E-012  0.5930196E+02  0.7816164E-02  0.1266605E+00
        -11   -1    0    0    0    0  0.00000000000E+00  0.00000000000E+00  0.45593999997E+02  0.45594000000E+02  0.51100000000E-03 0.  1.
         11   -1    0    0    0    0 -0.00000000000E+00 -0.00000000000E+00 -0.45593999997E+02  0.45594000000E+02  0.51100000000E-03 0. -1.
    9900012    2    1    2    0    0  0.82305719717E+01 -0.11756635990E+02  0.28473830617E+02  0.59301955486E+02  0.50000020897E+02 0.  0.
         12    1    1    2    0    0 -0.82305719717E+01  0.11756635990E+02 -0.28473830617E+02  0.31886044514E+02  0.00000000000E+00 0. -1.
         11    1    3    3    0    0  0.16483842003E+02 -0.10243146215E+02 -0.26154099364E+01  0.19582631614E+02  0.51100000000E-03 0. -1.
        -11    1    3    3    0    0 -0.12805171631E+02 -0.90666049047E+01  0.22318224562E+02  0.27281475269E+02  0.51100000000E-03 0.  1.
        -12    1    3    3    0    0  0.45519016002E+01  0.75531151299E+01  0.87710159909E+01  0.12437848602E+02  0.00000000000E+00 0.  1.
</event>
<event>
 7    1  0.7579108E-012  0.5930193E+02  0.7816164E-02  0.1266605E+00
        -11   -1    0    0    0    0  0.00000000000E+00  0.00000000000E+00  0.45593999997E+02  0.45594000000E+02  0.51100000000E-03 0.  1.
         11   -1    0    0    0    0 -0.00000000000E+00 -0.00000000000E+00 -0.45593999997E+02  0.45594000000E+02  0.51100000000E-03 0. -1.
    9900012    2    1    2    0    0 -0.16501656096E+02  0.27142929475E+02  0.27708973349E+01  0.59301934917E+02  0.49999983385E+02 0.  0.
         12    1    1    2    0    0  0.16501656096E+02 -0.27142929475E+02 -0.27708973349E+01  0.31886065083E+02  0.00000000000E+00 0. -1.
         11    1    3    3    0    0  0.24210576146E+01 -0.89265392790E+01  0.91205218780E+01  0.12989555153E+02  0.51100000000E-03 0. -1.
        -11    1    3    3    0    0 -0.13369368722E+02  0.18369899216E+02 -0.13504137761E+02  0.26430190202E+02  0.51100000000E-03 0.  1.
         12    1    3    3    0    0 -0.55533449890E+01  0.17699569538E+02  0.71545132177E+01  0.19882189562E+02  0.00000000000E+00 0. -1.
</event>
<event>
 7    1  0.7579108E-012  0.5930179E+02  0.7816164E-02  0.1266605E+00
        -11   -1    0    0    0    0  0.00000000000E+00  0.00000000000E+00  0.45593999997E+02  0.45594000000E+02  0.51100000000E-03 0. -1.
         11   -1    0    0    0    0 -0.00000000000E+00 -0.00000000000E+00 -0.45593999997E+02  0.45594000000E+02  0.51100000000E-03 0.  1.
    9900012    2    1    2    0    0 -0.18766837779E+02 -0.33415896933E+01 -0.25561099919E+02  0.59301792151E+02  0.49999723012E+02 0.  0.
         12    1    1    2    0    0  0.18766837779E+02  0.33415896933E+01  0.25561099919E+02  0.31886207849E+02  0.00000000000E+00 0. -1.
         11    1    3    3    0    0 -0.17240890237E+02 -0.11555507749E+02 -0.25206440175E+01  0.20907694804E+02  0.51100000000E-03 0. -1.
        -11    1    3    3    0    0  0.64665125490E+01  0.30144905174E+01 -0.27105581188E+02  0.28028832823E+02  0.51100000000E-03 0.  1.
         12    1    3    3    0    0 -0.79924600917E+01  0.51994275386E+01  0.40651252863E+01  0.10365264523E+02  0.00000000000E+00 0. -1.
</event>
<event>
 7    1  0.7579108E-012  0.5930193E+02  0.7816164E-02  0.1266605E+00
        -11   -1    0    0    0    0  0.00000000000E+00  0.00000000000E+00  0.45593999997E+02  0.45594000000E+02  0.51100000000E-03 0.  1.
         11   -1    0    0    0    0 -0.00000000000E+00 -0.00000000000E+00 -0.45593999997E+02  0.45594000000E+02  0.51100000000E-03 0. -1.
    9900012    2    1    2    0    0  0.16529541214E+02  0.11609330235E+01  0.27242390753E+02  0.59301931692E+02  0.49999977502E+02 0.  0.
         12    1    1    2    0    0 -0.16529541214E+02 -0.11609330235E+01 -0.27242390753E+02  0.31886068308E+02  0.00000000000E+00 0. -1.
         11    1    3    3    0    0  0.87034361011E+01  0.20810608003E+02  0.58802391897E+01  0.23311122208E+02  0.51100000000E-03 0. -1.
        -11    1    3    3    0    0  0.71947670392E+01 -0.18341870290E+02  0.60507415575E+01  0.20610685387E+02  0.51100000000E-03 0.  1.
         12    1    3    3    0    0  0.63133807320E+00 -0.13078046890E+01  0.15311410006E+02  0.15380124097E+02  0.00000000000E+00 0. -1.
</event>
<event>
 7    1  0.7579108E-012  0.5930197E+02  0.7816164E-02  0.1266605E+00
        -11   -1    0    0    0    0  0.00000000000E+00  0.00000000000E+00  0.45593999997E+02  0.45594000000E+02  0.51100000000E-03 0.  1.
         11   -1    0    0    0    0 -0.00000000000E+00 -0.00000000000E+00 -0.45593999997E+02  0.45594000000E+02  0.51100000000E-03 0. -1.
    9900012    2    1    2    0    0  0.90735276682E+01 -0.13657792145E+02  0.27346934430E+02  0.59301968366E+02  0.50000044388E+02 0.  0.
         12    1    1    2    0    0 -0.90735276682E+01  0.13657792145E+02 -0.27346934430E+02  0.31886031634E+02  0.00000000000E+00 0. -1.
         11    1    3    3    0    0 -0.26398236093E+01 -0.36051574147E+01  0.18877477009E+01  0.48507133823E+01  0.51100000000E-03 0. -1.
        -11    1    3    3    0    0  0.22076821706E+02 -0.49303478396E+01  0.33462455760E+02  0.40390968448E+02  0.51100000000E-03 0.  1.
        -12    1    3    3    0    0 -0.10363470428E+02 -0.51222868907E+01 -0.80032690304E+01  0.14060286536E+02  0.00000000000E+00 0.  1.
</event>
<event>
 7    1  0.7579108E-012  0.5930195E+02  0.7816164E-02  0.1266605E+00
        -11   -1    0    0    0    0  0.00000000000E+00  0.00000000000E+00  0.45593999997E+02  0.45594000000E+02  0.51100000000E-03 0.  1.
         11   -1    0    0    0    0 -0.00000000000E+00 -0.00000000000E+00 -0.45593999997E+02  0.45594000000E+02  0.51100000000E-03 0. -1.
    9900012    2    1    2    0    0  0.30659767475E+02  0.87572044330E+01 -0.10183143037E+00  0.59301947551E+02  0.50000006426E+02 0.  0.
         12    1    1    2    0    0 -0.30659767475E+02 -0.87572044330E+01  0.10183143037E+00  0.31886052449E+02  0.00000000000E+00 0. -1.
         11    1    3    3    0    0 -0.97087715728E+01 -0.46159416664E+01 -0.89527094103E+00  0.10787431262E+02  0.51100000000E-03 0. -1.
        -11    1    3    3    0    0  0.21907449913E+02  0.11717966634E+02  0.11206122809E+02  0.27254803107E+02  0.51100000000E-03 0.  1.
        -12    1    3    3    0    0  0.18461089135E+02  0.16551794658E+01 -0.10412683298E+02  0.21259713182E+02  0.00000000000E+00 0.  1.
</event>
<event>
 7    1  0.7579108E-012  0.5930208E+02  0.7816164E-02  0.1266604E+00
        -11   -1    0    0    0    0  0.00000000000E+00  0.00000000000E+00  0.45593999997E+02  0.45594000000E+02  0.51100000000E-03 0.  1.
         11   -1    0    0    0    0 -0.00000000000E+00 -0.00000000000E+00 -0.45593999997E+02  0.45594000000E+02  0.51100000000E-03 0. -1.
    9900012    2    1    2    0    0  0.29445463897E+02 -0.58347328143E+00  0.12220323457E+02  0.59302076922E+02  0.50000242366E+02 0.  0.
         12    1    1    2    0    0 -0.29445463897E+02  0.58347328143E+00 -0.12220323457E+02  0.31885923078E+02  0.00000000000E+00 0. -1.
         11    1    3    3    0    0  0.11009879512E+02 -0.13153034151E+02 -0.48914197135E+01  0.17836640416E+02  0.51100000000E-03 0. -1.
        -11    1    3    3    0    0 -0.17472048223E+01  0.11985565820E+01  0.18153212909E+02  0.18276443904E+02  0.51100000000E-03 0.  1.
        -12    1    3    3    0    0  0.20182789207E+02  0.11371004288E+02 -0.10414697393E+01  0.23188992602E+02  0.00000000000E+00 0.  1.
</event>
<event>
 7    1  0.7579108E-012  0.5930194E+02  0.7816164E-02  0.1266605E+00
        -11   -1    0    0    0    0  0.00000000000E+00  0.00000000000E+00  0.45593999997E+02  0.45594000000E+02  0.51100000000E-03 0.  1.
         11   -1    0    0    0    0 -0.00000000000E+00 -0.00000000000E+00 -0.45593999997E+02  0.45594000000E+02  0.51100000000E-03 0. -1.
    9900012    2    1    2    0    0  0.26073180696E+01 -0.15491328426E+02  0.27747821897E+02  0.59301937465E+02  0.49999988032E+02 0.  0.
         12    1    1    2    0    0 -0.26073180696E+01  0.15491328426E+02 -0.27747821897E+02  0.31886062535E+02  0.00000000000E+00 0. -1.
         11    1    3    3    0    0 -0.71418736388E+01 -0.16507658346E+02 -0.44884308113E+01  0.18537938250E+02  0.51100000000E-03 0. -1.
        -11    1    3    3    0    0  0.89488938714E+01  0.92803098672E+01  0.80659473043E+01  0.15207444194E+02  0.51100000000E-03 0.  1.
         12    1    3    3    0    0  0.80029783701E+00 -0.82639799473E+01  0.24170305404E+02  0.25556555021E+02  0.00000000000E+00 0. -1.
</event>
<event>
 7    1  0.7579108E-012  0.5930190E+02  0.7816164E-02  0.1266605E+00
        -11   -1    0    0    0    0  0.00000000000E+00  0.00000000000E+00  0.45593999997E+02  0.45594000000E+02  0.51100000000E-03 0.  1.
         11   -1    0    0    0    0 -0.00000000000E+00 -0.00000000000E+00 -0.45593999997E+02  0.45594000000E+02  0.51100000000E-03 0. -1.
    9900012    2    1    2    0    0  0.15061802315E+02  0.63117969459E+01  0.27386619527E+02  0.59301896463E+02  0.49999913254E+02 0.  0.
         12    1    1    2    0    0 -0.15061802315E+02 -0.63117969459E+01 -0.27386619527E+02  0.31886103537E+02  0.00000000000E+00 0. -1.
         11    1    3    3    0    0  0.19452901546E+02 -0.17347449689E+02  0.10424655874E+02  0.28071744506E+02  0.51100000000E-03 0. -1.
        -11    1    3    3    0    0  0.31694230213E+01  0.89506350121E+01  0.44159859788E+01  0.10471869071E+02  0.51100000000E-03 0.  1.
         12    1    3    3    0    0 -0.75605222527E+01  0.14708611622E+02  0.12545977674E+02  0.20758282886E+02  0.00000000000E+00 0. -1.
</event>
<event>
 7    1  0.7579108E-012  0.5930195E+02  0.7816164E-02  0.1266605E+00
        -11   -1    0    0    0    0  0.00000000000E+00  0.00000000000E+00  0.45593999997E+02  0.45594000000E+02  0.51100000000E-03 0. -1.
         11   -1    0    0    0    0 -0.00000000000E+00 -0.00000000000E+00 -0.45593999997E+02  0.45594000000E+02  0.51100000000E-03 0.  1.
    9900012    2    1    2    0    0 -0.99108057797E+01  0.19519845765E+02 -0.23183435000E+02  0.59301951197E+02  0.50000013075E+02 0.  0.
         12    1    1    2    0    0  0.99108057797E+01 -0.19519845765E+02  0.23183435000E+02  0.31886048803E+02  0.00000000000E+00 0. -1.
         11    1    3    3    0    0  0.18194057034E+01  0.10173479490E+02  0.13486895989E+02  0.16991359149E+02  0.51100000000E-03 0. -1.
        -11    1    3    3    0    0 -0.11161765932E+02  0.21536740967E+01 -0.31346106244E+02  0.33343690674E+02  0.51100000000E-03 0.  1.
        -12    1    3    3    0    0 -0.56844555102E+00  0.71926921790E+01 -0.53242247447E+01  0.89669013744E+01  0.00000000000E+00 0.  1.
</event>
<event>
 7    1  0.7579108E-012  0.5930191E+02  0.7816164E-02  0.1266605E+00
        -11   -1    0    0    0    0  0.00000000000E+00  0.00000000000E+00  0.45593999997E+02  0.45594000000E+02  0.51100000000E-03 0.  1.
         11   -1    0    0    0    0 -0.00000000000E+00 -0.00000000000E+00 -0.45593999997E+02  0.45594000000E+02  0.51100000000E-03 0. -1.
    9900012    2    1    2    0    0 -0.92019537922E+01 -0.29993910582E+02  0.56931884363E+01  0.59301905536E+02  0.49999929800E+02 0.  0.
         12    1    1    2    0    0  0.92019537922E+01  0.29993910582E+02 -0.56931884363E+01  0.31886094464E+02  0.00000000000E+00 0. -1.
         11    1    3    3    0    0 -0.84280401154E+01 -0.33936485731E+02 -0.62441953727E+01  0.35520513793E+02  0.51100000000E-03 0. -1.
        -11    1    3    3    0    0  0.28268959538E+01 -0.30086781818E+01  0.14861751106E+02  0.15424497766E+02  0.51100000000E-03 0.  1.
         12    1    3    3    0    0 -0.36008096306E+01  0.69512533307E+01 -0.29243672968E+01  0.83568939775E+01  0.00000000000E+00 0. -1.
</event>
<event>
 7    1  0.7579108E-012  0.5930197E+02  0.7816164E-02  0.1266605E+00
        -11   -1    0    0    0    0  0.00000000000E+00  0.00000000000E+00  0.45593999997E+02  0.45594000000E+02  0.51100000000E-03 0.  1.
         11   -1    0    0    0    0 -0.00000000000E+00 -0.00000000000E+00 -0.45593999997E+02  0.45594000000E+02  0.51100000000E-03 0. -1.
    9900012    2    1    2    0    0 -0.10887423981E+02 -0.19026706268E+02  0.23155284301E+02  0.59301972599E+02  0.50000052107E+02 0.  0.
         12    1    1    2    0    0  0.10887423981E+02  0.19026706268E+02 -0.23155284301E+02  0.31886027401E+02  0.00000000000E+00 0. -1.
         11    1    3    3    0    0  0.52547399603E+01 -0.16615349940E+01  0.47752798688E+01  0.72922073938E+01  0.51100000000E-03 0. -1.
        -11    1    3    3    0    0 -0.28377297346E+02 -0.15533694513E+02  0.21996573495E+02  0.39120530615E+02  0.51100000000E-03 0.  1.
        -12    1    3    3    0    0  0.12235133404E+02 -0.18314767604E+01 -0.36165690624E+01  0.12889234590E+02  0.00000000000E+00 0.  1.
</event>
<event>
 7    1  0.7579108E-012  0.5930195E+02  0.7816164E-02  0.1266605E+00
        -11   -1    0    0    0    0  0.00000000000E+00  0.00000000000E+00  0.45593999997E+02  0.45594000000E+02  0.51100000000E-03 0. -1.
         11   -1    0    0    0    0 -0.00000000000E+00 -0.00000000000E+00 -0.45593999997E+02  0.45594000000E+02  0.51100000000E-03 0.  1.
    9900012    2    1    2    0    0 -0.70085342982E+01 -0.22850773098E+02 -0.21105513194E+02  0.59301951775E+02  0.50000014130E+02 0.  0.
         12    1    1    2    0    0  0.70085342982E+01  0.22850773098E+02  0.21105513194E+02  0.31886048225E+02  0.00000000000E+00 0. -1.
         11    1    3    3    0    0 -0.19898510106E+02 -0.27819142254E+02 -0.16732675524E+02  0.38076735819E+02  0.51100000000E-03 0. -1.
        -11    1    3    3    0    0  0.63920429294E+01 -0.18931020049E+01  0.46748611849E+01  0.81422586161E+01  0.51100000000E-03 0.  1.
         12    1    3    3    0    0  0.64979328788E+01  0.68614711609E+01 -0.90476988549E+01  0.13082957340E+02  0.00000000000E+00 0. -1.
</event>
<event>
 7    1  0.7579108E-012  0.5930196E+02  0.7816164E-02  0.1266605E+00
        -11   -1    0    0    0    0  0.00000000000E+00  0.00000000000E+00  0.45593999997E+02  0.45594000000E+02  0.51100000000E-03 0. -1.
         11   -1    0    0    0    0 -0.00000000000E+00 -0.00000000000E+00 -0.45593999997E+02  0.45594000000E+02  0.51100000000E-03 0.  1.
    9900012    2    1    2    0    0  0.10425228129E+02 -0.23170000715E+02 -0.19266166940E+02  0.59301960684E+02  0.50000030377E+02 0.  0.
         12    1    1    2    0    0 -0.10425228129E+02  0.23170000715E+02  0.19266166940E+02  0.31886039316E+02  0.00000000000E+00 0. -1.
         11    1    3    3    0    0  0.10663653837E+02  0.10766983918E+02 -0.11456710471E+01  0.15197171390E+02  0.51100000000E-03 0. -1.
        -11    1    3    3    0    0  0.95144314915E+01 -0.25567322093E+02 -0.11020486417E+02  0.29422159791E+02  0.51100000000E-03 0.  1.
         12    1    3    3    0    0 -0.97528571990E+01 -0.83696625404E+01 -0.71000094761E+01  0.14682629504E+02  0.00000000000E+00 0. -1.
</event>
<event>
 7    1  0.7579108E-012  0.5930192E+02  0.7816164E-02  0.1266605E+00
        -11   -1    0    0    0    0  0.00000000000E+00  0.00000000000E+00  0.45593999997E+02  0.45594000000E+02  0.51100000000E-03 0.  1.
         11   -1    0    0    0    0 -0.00000000000E+00 -0.00000000000E+00 -0.45593999997E+02  0.45594000000E+02  0.51100000000E-03 0. -1.
    9900012    2    1    2    0    0 -0.19999149806E+01 -0.10667200307E+02  0.29982219417E+02  0.59301916774E+02  0.49999950295E+02 0.  0.
         12    1    1    2    0    0  0.19999149806E+01  0.10667200307E+02 -0.29982219417E+02  0.31886083226E+02  0.00000000000E+00 0. -1.
         11    1    3    3    0    0  0.59982322354E+01  0.94277007352E+01 -0.83630365373E+00  0.11205344045E+02  0.51100000000E-03 0. -1.
        -11    1    3    3    0    0  0.56616808010E+01 -0.13105051066E+02  0.29405111306E+02  0.32687269145E+02  0.51100000000E-03 0.  1.
        -12    1    3    3    0    0 -0.13659828017E+02 -0.69898499759E+01  0.14134117647E+01  0.15409303584E+02  0.00000000000E+00 0.  1.
</event>
<event>
 7    1  0.7579108E-012  0.5930195E+02  0.7816164E-02  0.1266605E+00
        -11   -1    0    0    0    0  0.00000000000E+00  0.00000000000E+00  0.45593999997E+02  0.45594000000E+02  0.51100000000E-03 0. -1.
         11   -1    0    0    0    0 -0.00000000000E+00 -0.00000000000E+00 -0.45593999997E+02  0.45594000000E+02  0.51100000000E-03 0.  1.
    9900012    2    1    2    0    0 -0.18338205434E+02 -0.21759007439E+02 -0.14386659209E+02  0.59301950598E+02  0.50000011982E+02 0.  0.
         12    1    1    2    0    0  0.18338205434E+02  0.21759007439E+02  0.14386659209E+02  0.31886049402E+02  0.00000000000E+00 0. -1.
         11    1    3    3    0    0 -0.29099870322E+01  0.53635496968E+01  0.66944855111E+01  0.90582463202E+01  0.51100000000E-03 0. -1.
        -11    1    3    3    0    0 -0.75827731424E+01 -0.33728475524E+02 -0.19979458473E+02  0.39928527030E+02  0.51100000000E-03 0.  1.
        -12    1    3    3    0    0 -0.78454452591E+01  0.66059183873E+01 -0.11016862471E+01  0.10315177247E+02  0.00000000000E+00 0.  1.
</event>
<event>
 7    1  0.7579108E-012  0.5930199E+02  0.7816164E-02  0.1266605E+00
        -11   -1    0    0    0    0  0.00000000000E+00  0.00000000000E+00  0.45593999997E+02  0.45594000000E+02  0.51100000000E-03 0.  1.
         11   -1    0    0    0    0 -0.00000000000E+00 -0.00000000000E+00 -0.45593999997E+02  0.45594000000E+02  0.51100000000E-03 0. -1.
    9900012    2    1    2    0    0  0.21417966497E+02 -0.21720059793E+02  0.92858576671E+01  0.59301993055E+02  0.50000089413E+02 0.  0.
         12    1    1    2    0    0 -0.21417966497E+02  0.21720059793E+02 -0.92858576671E+01  0.31886006945E+02  0.00000000000E+00 0. -1.
         11    1    3    3    0    0  0.22637867290E+02 -0.13176337307E+02  0.74304207425E+01  0.27226825979E+02  0.51100000000E-03 0. -1.
        -11    1    3    3    0    0 -0.27642859553E+01  0.99995626733E+01 -0.58786273722E+01  0.11924377994E+02  0.51100000000E-03 0.  1.
        -12    1    3    3    0    0  0.15443851628E+01 -0.18543285160E+02  0.77340642967E+01  0.20150789081E+02  0.00000000000E+00 0.  1.
</event>
<event>
 7    1  0.7579108E-012  0.5930181E+02  0.7816164E-02  0.1266605E+00
        -11   -1    0    0    0    0  0.00000000000E+00  0.00000000000E+00  0.45593999997E+02  0.45594000000E+02  0.51100000000E-03 0.  1.
         11   -1    0    0    0    0 -0.00000000000E+00 -0.00000000000E+00 -0.45593999997E+02  0.45594000000E+02  0.51100000000E-03 0. -1.
    9900012    2    1    2    0    0  0.59161376860E+01  0.31123032852E+02 -0.36173833478E+01  0.59301806729E+02  0.49999749600E+02 0.  0.
         12    1    1    2    0    0 -0.59161376860E+01 -0.31123032852E+02  0.36173833478E+01  0.31886193271E+02  0.00000000000E+00 0. -1.
         11    1    3    3    0    0 -0.51091350159E+01  0.22000253442E+02 -0.18426091445E+02  0.29148503535E+02  0.51100000000E-03 0. -1.
        -11    1    3    3    0    0 -0.37476721352E+01  0.10762018719E+02  0.67697963179E+01  0.13255045673E+02  0.51100000000E-03 0.  1.
         12    1    3    3    0    0  0.14772944837E+02 -0.16392393089E+01  0.80389117796E+01  0.16898257522E+02  0.00000000000E+00 0. -1.
</event>
<event>
 7    1  0.7579108E-012  0.5930194E+02  0.7816164E-02  0.1266605E+00
        -11   -1    0    0    0    0  0.00000000000E+00  0.00000000000E+00  0.45593999997E+02  0.45594000000E+02  0.51100000000E-03 0. -1.
         11   -1    0    0    0    0 -0.00000000000E+00 -0.00000000000E+00 -0.45593999997E+02  0.45594000000E+02  0.51100000000E-03 0.  1.
    9900012    2    1    2    0    0 -0.31042591075E+02 -0.72438223737E+01 -0.77802878804E+00  0.59301941102E+02  0.49999994665E+02 0.  0.
         12    1    1    2    0    0  0.31042591075E+02  0.72438223737E+01  0.77802878804E+00  0.31886058898E+02  0.00000000000E+00 0. -1.
         11    1    3    3    0    0 -0.28458942483E+02  0.51789374518E+01  0.30698767228E+01  0.29088776938E+02  0.51100000000E-03 0. -1.
        -11    1    3    3    0    0  0.63973670624E+01 -0.86973594420E+00  0.87706359024E+01  0.10890674926E+02  0.51100000000E-03 0.  1.
         12    1    3    3    0    0 -0.89810156547E+01 -0.11553023881E+02 -0.12618541413E+02  0.19322489239E+02  0.00000000000E+00 0. -1.
</event>
<event>
 7    1  0.7579108E-012  0.5930209E+02  0.7816164E-02  0.1266604E+00
        -11   -1    0    0    0    0  0.00000000000E+00  0.00000000000E+00  0.45593999997E+02  0.45594000000E+02  0.51100000000E-03 0.  1.
         11   -1    0    0    0    0 -0.00000000000E+00 -0.00000000000E+00 -0.45593999997E+02  0.45594000000E+02  0.51100000000E-03 0. -1.
    9900012    2    1    2    0    0 -0.22490739523E+02  0.21643710124E+02  0.65136536842E+01  0.59302090314E+02  0.50000266789E+02 0.  0.
         12    1    1    2    0    0  0.22490739523E+02 -0.21643710124E+02 -0.65136536842E+01  0.31885909686E+02  0.00000000000E+00 0. -1.
         11    1    3    3    0    0 -0.18521413971E+02  0.29640880295E+02  0.24739093864E+01  0.35039189318E+02  0.51100000000E-03 0. -1.
        -11    1    3    3    0    0 -0.55812482586E+01 -0.13985845263E+02 -0.24838075251E+01  0.15261831473E+02  0.51100000000E-03 0.  1.
        -12    1    3    3    0    0  0.16119227062E+01  0.59886750917E+01  0.65235518229E+01  0.90010695226E+01  0.00000000000E+00 0.  1.
</event>
<event>
 7    1  0.7579108E-012  0.5930169E+02  0.7816164E-02  0.1266606E+00
        -11   -1    0    0    0    0  0.00000000000E+00  0.00000000000E+00  0.45593999997E+02  0.45594000000E+02  0.51100000000E-03 0.  1.
         11   -1    0    0    0    0 -0.00000000000E+00 -0.00000000000E+00 -0.45593999997E+02  0.45594000000E+02  0.51100000000E-03 0. -1.
    9900012    2    1    2    0    0  0.16191010656E+02 -0.48948216496E+01  0.27030138161E+02  0.59301694569E+02  0.49999545044E+02 0.  0.
         12    1    1    2    0    0 -0.16191010656E+02  0.48948216496E+01 -0.27030138161E+02  0.31886305431E+02  0.00000000000E+00 0. -1.
         11    1    3    3    0    0 -0.24660134204E+01  0.62935821875E+01 -0.33056232396E+01  0.75244630508E+01  0.51100000000E-03 0. -1.
        -11    1    3    3    0    0  0.29094430829E+02 -0.60659129036E+01  0.17634524690E+02  0.34558033305E+02  0.51100000000E-03 0.  1.
        -12    1    3    3    0    0 -0.10437406753E+02 -0.51224909335E+01  0.12701236711E+02  0.17219198212E+02  0.00000000000E+00 0.  1.
</event>
<event>
 7    1  0.7579108E-012  0.5930218E+02  0.7816164E-02  0.1266604E+00
        -11   -1    0    0    0    0  0.00000000000E+00  0.00000000000E+00  0.45593999997E+02  0.45594000000E+02  0.51100000000E-03 0. -1.
         11   -1    0    0    0    0 -0.00000000000E+00 -0.00000000000E+00 -0.45593999997E+02  0.45594000000E+02  0.51100000000E-03 0.  1.
    9900012    2    1    2    0    0  0.17536363431E+02 -0.24186324670E+02  0.11144647744E+02  0.59302180005E+02  0.50000430363E+02 0.  0.
         12    1    1    2    0    0 -0.17536363431E+02  0.24186324670E+02 -0.11144647744E+02  0.31885819995E+02  0.00000000000E+00 0. -1.
         11    1    3    3    0    0  0.14371871334E+02  0.76005245450E+01 -0.75004689593E+01  0.17904627722E+02  0.51100000000E-03 0. -1.
        -11    1    3    3    0    0  0.50222464101E+01 -0.10918068359E+02 -0.17666631448E+01  0.12146945073E+02  0.51100000000E-03 0.  1.
         12    1    3    3    0    0 -0.18577543132E+01 -0.20868780857E+02  0.20411779848E+02  0.29250607209E+02  0.00000000000E+00 0. -1.
</event>
<event>
 7    1  0.7579108E-012  0.5930194E+02  0.7816164E-02  0.1266605E+00
        -11   -1    0    0    0    0  0.00000000000E+00  0.00000000000E+00  0.45593999997E+02  0.45594000000E+02  0.51100000000E-03 0.  1.
         11   -1    0    0    0    0 -0.00000000000E+00 -0.00000000000E+00 -0.45593999997E+02  0.45594000000E+02  0.51100000000E-03 0. -1.
    9900012    2    1    2    0    0  0.60990261692E+01  0.18295913466E+02  0.25392563898E+02  0.59301939235E+02  0.49999991259E+02 0.  0.
         12    1    1    2    0    0 -0.60990261692E+01 -0.18295913466E+02 -0.25392563898E+02  0.31886060765E+02  0.00000000000E+00 0. -1.
         11    1    3    3    0    0  0.22351206190E+02 -0.13744983975E+01  0.15589139012E+02  0.27285287600E+02  0.51100000000E-03 0. -1.
        -11    1    3    3    0    0 -0.90193301120E+01  0.19816885301E+02  0.28078322838E+01  0.21953158796E+02  0.51100000000E-03 0.  1.
         12    1    3    3    0    0 -0.72328499090E+01 -0.14647343781E+00  0.69955926025E+01  0.10063492840E+02  0.00000000000E+00 0. -1.
</event>
<event>
 7    1  0.7579108E-012  0.5930194E+02  0.7816164E-02  0.1266605E+00
        -11   -1    0    0    0    0  0.00000000000E+00  0.00000000000E+00  0.45593999997E+02  0.45594000000E+02  0.51100000000E-03 0.  1.
         11   -1    0    0    0    0 -0.00000000000E+00 -0.00000000000E+00 -0.45593999997E+02  0.45594000000E+02  0.51100000000E-03 0. -1.
    9900012    2    1    2    0    0 -0.40256506013E+00 -0.31695167458E+02  0.34604873466E+01  0.59301942365E+02  0.49999996968E+02 0.  0.
         12    1    1    2    0    0  0.40256506013E+00  0.31695167458E+02 -0.34604873466E+01  0.31886057635E+02  0.00000000000E+00 0. -1.
         11    1    3    3    0    0  0.18284339898E+02 -0.13758067171E+02  0.11641442061E+02  0.25673423443E+02  0.51100000000E-03 0.  1.
        -11    1    3    3    0    0 -0.12246093712E+02 -0.21175530917E+02 -0.27767530980E+01  0.24618697749E+02  0.51100000000E-03 0. -1.
         12    1    3    3    0    0 -0.64408112461E+01  0.32384306302E+01 -0.54042016167E+01  0.90098211729E+01  0.00000000000E+00 0. -1.
</event>
<event>
 7    1  0.7579108E-012  0.5930199E+02  0.7816164E-02  0.1266605E+00
        -11   -1    0    0    0    0  0.00000000000E+00  0.00000000000E+00  0.45593999997E+02  0.45594000000E+02  0.51100000000E-03 0.  1.
         11   -1    0    0    0    0 -0.00000000000E+00 -0.00000000000E+00 -0.45593999997E+02  0.45594000000E+02  0.51100000000E-03 0. -1.
    9900012    2    1    2    0    0  0.69847464039E+01  0.23098567807E+02  0.20841956267E+02  0.59301989618E+02  0.50000083146E+02 0.  0.
         12    1    1    2    0    0 -0.69847464039E+01 -0.23098567807E+02 -0.20841956267E+02  0.31886010382E+02  0.00000000000E+00 0. -1.
         11    1    3    3    0    0  0.20406249863E+02  0.21267415748E+02  0.14327527064E+01  0.29508825572E+02  0.51100000000E-03 0. -1.
        -11    1    3    3    0    0 -0.25329004313E+01  0.79724005742E+01  0.13695815818E+02  0.16048368350E+02  0.51100000000E-03 0.  1.
         12    1    3    3    0    0 -0.10888603028E+02 -0.61412485151E+01  0.57133877419E+01  0.13744795696E+02  0.00000000000E+00 0. -1.
</event>
<event>
 7    1  0.7579108E-012  0.5930194E+02  0.7816164E-02  0.1266605E+00
        -11   -1    0    0    0    0  0.00000000000E+00  0.00000000000E+00  0.45593999997E+02  0.45594000000E+02  0.51100000000E-03 0. -1.
         11   -1    0    0    0    0 -0.00000000000E+00 -0.00000000000E+00 -0.45593999997E+02  0.45594000000E+02  0.51100000000E-03 0.  1.
    9900012    2    1    2    0    0  0.19734949074E+02 -0.20282440758E+02 -0.14692695487E+02  0.59301938488E+02  0.49999989897E+02 0.  0.
         12    1    1    2    0    0 -0.19734949074E+02  0.20282440758E+02  0.14692695487E+02  0.31886061512E+02  0.00000000000E+00 0. -1.
         11    1    3    3    0    0  0.86979458303E+01  0.78960069201E+01  0.52318416686E+01  0.12859757169E+02  0.51100000000E-03 0. -1.
        -11    1    3    3    0    0  0.10459817153E+01 -0.13647724363E+02 -0.24641655727E+02  0.28188040998E+02  0.51100000000E-03 0.  1.
        -12    1    3    3    0    0  0.99910215283E+01 -0.14530723315E+02  0.47171185717E+01  0.18254140321E+02  0.00000000000E+00 0.  1.
</event>
<event>
 7    1  0.7579108E-012  0.5930195E+02  0.7816164E-02  0.1266605E+00
        -11   -1    0    0    0    0  0.00000000000E+00  0.00000000000E+00  0.45593999997E+02  0.45594000000E+02  0.51100000000E-03 0. -1.
         11   -1    0    0    0    0 -0.00000000000E+00 -0.00000000000E+00 -0.45593999997E+02  0.45594000000E+02  0.51100000000E-03 0.  1.
    9900012    2    1    2    0    0 -0.30636291176E+02  0.35134335402E+01 -0.81113118384E+01  0.59301953961E+02  0.50000018115E+02 0.  0.
         12    1    1    2    0    0  0.30636291176E+02 -0.35134335402E+01  0.81113118384E+01  0.31886046039E+02  0.00000000000E+00 0. -1.
         11    1    3    3    0    0 -0.72267136088E+01  0.15045322656E+02 -0.19765881317E+02  0.25870392110E+02  0.51100000000E-03 0. -1.
        -11    1    3    3    0    0 -0.21353416141E+02 -0.40049381010E+01  0.32570509220E+01  0.21968529560E+02  0.51100000000E-03 0.  1.
         12    1    3    3    0    0 -0.20561614271E+01 -0.75269510147E+01  0.83975185567E+01  0.11463032291E+02  0.00000000000E+00 0. -1.
</event>
<event>
 7    1  0.7579108E-012  0.5930197E+02  0.7816164E-02  0.1266605E+00
        -11   -1    0    0    0    0  0.00000000000E+00  0.00000000000E+00  0.45593999997E+02  0.45594000000E+02  0.51100000000E-03 0.  1.
         11   -1    0    0    0    0 -0.00000000000E+00 -0.00000000000E+00 -0.45593999997E+02  0.45594000000E+02  0.51100000000E-03 0. -1.
    9900012    2    1    2    0    0 -0.26596708300E+02 -0.12852625682E+02  0.12006003654E+02  0.59301968528E+02  0.50000044682E+02 0.  0.
         12    1    1    2    0    0  0.26596708300E+02  0.12852625682E+02 -0.12006003654E+02  0.31886031472E+02  0.00000000000E+00 0. -1.
         11    1    3    3    0    0 -0.33834170775E+00 -0.12908134617E+02 -0.68510034866E+01  0.14617478012E+02  0.51100000000E-03 0. -1.
        -11    1    3    3    0    0 -0.28122943730E+02  0.70509587997E+01  0.22386579860E+02  0.36630246275E+02  0.51100000000E-03 0.  1.
        -12    1    3    3    0    0  0.18645771375E+01 -0.69954498643E+01 -0.35295727195E+01  0.80542442407E+01  0.00000000000E+00 0.  1.
</event>
<event>
 7    1  0.7579108E-012  0.5930201E+02  0.7816164E-02  0.1266605E+00
        -11   -1    0    0    0    0  0.00000000000E+00  0.00000000000E+00  0.45593999997E+02  0.45594000000E+02  0.51100000000E-03 0. -1.
         11   -1    0    0    0    0 -0.00000000000E+00 -0.00000000000E+00 -0.45593999997E+02  0.45594000000E+02  0.51100000000E-03 0.  1.
    9900012    2    1    2    0    0  0.87024495103E+01 -0.74226424726E+01 -0.29763874036E+02  0.59302008619E+02  0.50000117798E+02 0.  0.
         12    1    1    2    0    0 -0.87024495103E+01  0.74226424726E+01  0.29763874036E+02  0.31885991381E+02  0.00000000000E+00 0. -1.
         11    1    3    3    0    0  0.42586363238E+01  0.36796441401E+01  0.79100171271E+01  0.97079418801E+01  0.51100000000E-03 0. -1.
        -11    1    3    3    0    0  0.66424858920E+01  0.81149113045E+01 -0.23121525674E+02  0.25388567389E+02  0.51100000000E-03 0.  1.
        -12    1    3    3    0    0 -0.21986727056E+01 -0.19217197917E+02 -0.14552365489E+02  0.24205499350E+02  0.00000000000E+00 0.  1.
</event>
<event>
 7    1  0.7579108E-012  0.5930207E+02  0.7816164E-02  0.1266604E+00
        -11   -1    0    0    0    0  0.00000000000E+00  0.00000000000E+00  0.45593999997E+02  0.45594000000E+02  0.51100000000E-03 0.  1.
         11   -1    0    0    0    0 -0.00000000000E+00 -0.00000000000E+00 -0.45593999997E+02  0.45594000000E+02  0.51100000000E-03 0. -1.
    9900012    2    1    2    0    0  0.26690041766E+02 -0.17445693764E+02 -0.44192215718E-01  0.59302070292E+02  0.50000230276E+02 0.  0.
         12    1    1    2    0    0 -0.26690041766E+02  0.17445693764E+02  0.44192215718E-01  0.31885929708E+02  0.00000000000E+00 0. -1.
         11    1    3    3    0    0 -0.67236210900E+01 -0.19909167073E+02 -0.28126052520E+01  0.21201244366E+02  0.51100000000E-03 0. -1.
        -11    1    3    3    0    0  0.18747459101E+02  0.49859164637E+01 -0.66290027668E+01  0.20500494230E+02  0.51100000000E-03 0.  1.
        -12    1    3    3    0    0  0.14666203755E+02 -0.25224431552E+01  0.93974158031E+01  0.17600331696E+02  0.00000000000E+00 0.  1.
</event>
<event>
 7    1  0.7579108E-012  0.5930192E+02  0.7816164E-02  0.1266605E+00
        -11   -1    0    0    0    0  0.00000000000E+00  0.00000000000E+00  0.45593999997E+02  0.45594000000E+02  0.51100000000E-03 0.  1.
         11   -1    0    0    0    0 -0.00000000000E+00 -0.00000000000E+00 -0.45593999997E+02  0.45594000000E+02  0.51100000000E-03 0. -1.
    9900012    2    1    2    0    0 -0.12832339273E+02 -0.25037212710E+02  0.15006368059E+02  0.59301921002E+02  0.49999958007E+02 0.  0.
         12    1    1    2    0    0  0.12832339273E+02  0.25037212710E+02 -0.15006368059E+02  0.31886078998E+02  0.00000000000E+00 0. -1.
         11    1    3    3    0    0 -0.64088179797E+01  0.58642177375E+01 -0.29289423617E+01  0.91673715529E+01  0.51100000000E-03 0. -1.
        -11    1    3    3    0    0  0.12259503172E+01 -0.14895396031E+02  0.26508556778E+02  0.30431552044E+02  0.51100000000E-03 0.  1.
         12    1    3    3    0    0 -0.76494716106E+01 -0.16006034417E+02 -0.85732463568E+01  0.19702997405E+02  0.00000000000E+00 0. -1.
</event>
<event>
 7    1  0.7579108E-012  0.5930193E+02  0.7816164E-02  0.1266605E+00
        -11   -1    0    0    0    0  0.00000000000E+00  0.00000000000E+00  0.45593999997E+02  0.45594000000E+02  0.51100000000E-03 0.  1.
         11   -1    0    0    0    0 -0.00000000000E+00 -0.00000000000E+00 -0.45593999997E+02  0.45594000000E+02  0.51100000000E-03 0. -1.
    9900012    2    1    2    0    0 -0.30113599098E+02 -0.91107469758E+01 -0.51852418300E+01  0.59301932605E+02  0.49999979168E+02 0.  0.
         12    1    1    2    0    0  0.30113599098E+02  0.91107469758E+01  0.51852418300E+01  0.31886067395E+02  0.00000000000E+00 0. -1.
         11    1    3    3    0    0 -0.18619651126E+01  0.28269046475E+01  0.11982966516E+01  0.35908521402E+01  0.51100000000E-03 0. -1.
        -11    1    3    3    0    0 -0.10888668554E+02 -0.28928217739E+02 -0.55486180955E+01  0.31403694806E+02  0.51100000000E-03 0.  1.
        -12    1    3    3    0    0 -0.17362965432E+02  0.16990566116E+02 -0.83492038619E+00  0.24307385659E+02  0.00000000000E+00 0.  1.
</event>
<event>
 7    1  0.7579108E-012  0.5930196E+02  0.7816164E-02  0.1266605E+00
        -11   -1    0    0    0    0  0.00000000000E+00  0.00000000000E+00  0.45593999997E+02  0.45594000000E+02  0.51100000000E-03 0.  1.
         11   -1    0    0    0    0 -0.00000000000E+00 -0.00000000000E+00 -0.45593999997E+02  0.45594000000E+02  0.51100000000E-03 0. -1.
    9900012    2    1    2    0    0  0.15328402910E+02 -0.11757796834E+02  0.25367578005E+02  0.59301957034E+02  0.50000023721E+02 0.  0.
         12    1    1    2    0    0 -0.15328402910E+02  0.11757796834E+02 -0.25367578005E+02  0.31886042966E+02  0.00000000000E+00 0. -1.
         11    1    3    3    0    0  0.35760460022E+01 -0.19368511081E+02  0.97595849316E+01  0.21981283511E+02  0.51100000000E-03 0. -1.
        -11    1    3    3    0    0  0.33102057488E+01  0.15675241376E+02 -0.20504862968E+01  0.16151629906E+02  0.51100000000E-03 0.  1.
        -12    1    3    3    0    0  0.84421511592E+01 -0.80645271295E+01  0.17658479370E+02  0.21169043618E+02  0.00000000000E+00 0.  1.
</event>
<event>
 7    1  0.7579108E-012  0.5930193E+02  0.7816164E-02  0.1266605E+00
        -11   -1    0    0    0    0  0.00000000000E+00  0.00000000000E+00  0.45593999997E+02  0.45594000000E+02  0.51100000000E-03 0. -1.
         11   -1    0    0    0    0 -0.00000000000E+00 -0.00000000000E+00 -0.45593999997E+02  0.45594000000E+02  0.51100000000E-03 0.  1.
    9900012    2    1    2    0    0  0.21131869678E+02  0.18877466127E+02 -0.14622131904E+02  0.59301931179E+02  0.49999976566E+02 0.  0.
         12    1    1    2    0    0 -0.21131869678E+02 -0.18877466127E+02  0.14622131904E+02  0.31886068821E+02  0.00000000000E+00 0. -1.
         11    1    3    3    0    0  0.14977776628E+02  0.21174792137E+02  0.44965452194E+01  0.26323459764E+02  0.51100000000E-03 0. -1.
        -11    1    3    3    0    0  0.65975591545E+01 -0.84168340692E+01 -0.23243175289E+02  0.25585466194E+02  0.51100000000E-03 0.  1.
        -12    1    3    3    0    0 -0.44346610491E+00  0.61195080595E+01  0.41244981661E+01  0.73930052210E+01  0.00000000000E+00 0.  1.
</event>
<event>
 7    1  0.7579108E-012  0.5930191E+02  0.7816164E-02  0.1266605E+00
        -11   -1    0    0    0    0  0.00000000000E+00  0.00000000000E+00  0.45593999997E+02  0.45594000000E+02  0.51100000000E-03 0.  1.
         11   -1    0    0    0    0 -0.00000000000E+00 -0.00000000000E+00 -0.45593999997E+02  0.45594000000E+02  0.51100000000E-03 0. -1.
    9900012    2    1    2    0    0  0.28570439279E+02 -0.86895826757E+01  0.11177837055E+02  0.59301907594E+02  0.49999933554E+02 0.  0.
         12    1    1    2    0    0 -0.28570439279E+02  0.86895826757E+01 -0.11177837055E+02  0.31886092406E+02  0.00000000000E+00 0. -1.
         11    1    3    3    0    0  0.20564722793E+02  0.11367650016E+02 -0.89473807874E+01  0.25143327418E+02  0.51100000000E-03 0. -1.
        -11    1    3    3    0    0  0.42165328230E+01 -0.22219884185E+02  0.13865270411E+02  0.26528251470E+02  0.51100000000E-03 0.  1.
        -12    1    3    3    0    0  0.37891836633E+01  0.21626514929E+01  0.62599474319E+01  0.76303287061E+01  0.00000000000E+00 0.  1.
</event>
<event>
 7    1  0.7579108E-012  0.5930196E+02  0.7816164E-02  0.1266605E+00
        -11   -1    0    0    0    0  0.00000000000E+00  0.00000000000E+00  0.45593999997E+02  0.45594000000E+02  0.51100000000E-03 0.  1.
         11   -1    0    0    0    0 -0.00000000000E+00 -0.00000000000E+00 -0.45593999997E+02  0.45594000000E+02  0.51100000000E-03 0. -1.
    9900012    2    1    2    0    0  0.20696827107E+02 -0.24234341823E+02 -0.10283635908E+01  0.59301960616E+02  0.50000030254E+02 0.  0.
         12    1    1    2    0    0 -0.20696827107E+02  0.24234341823E+02  0.10283635908E+01  0.31886039384E+02  0.00000000000E+00 0. -1.
         11    1    3    3    0    0 -0.66209943893E+01 -0.13560730427E+02  0.27474954891E+00  0.15093258892E+02  0.51100000000E-03 0. -1.
        -11    1    3    3    0    0  0.24303013918E+02  0.62715202941E+01  0.55120059484E+01  0.25697289003E+02  0.51100000000E-03 0.  1.
        -12    1    3    3    0    0  0.30148075785E+01 -0.16945131691E+02 -0.68151190881E+01  0.18511412721E+02  0.00000000000E+00 0.  1.
</event>
<event>
 7    1  0.7579108E-012  0.5930196E+02  0.7816164E-02  0.1266605E+00
        -11   -1    0    0    0    0  0.00000000000E+00  0.00000000000E+00  0.45593999997E+02  0.45594000000E+02  0.51100000000E-03 0. -1.
         11   -1    0    0    0    0 -0.00000000000E+00 -0.00000000000E+00 -0.45593999997E+02  0.45594000000E+02  0.51100000000E-03 0.  1.
    9900012    2    1    2    0    0 -0.29565904468E+02  0.69598020605E+01 -0.97024578993E+01  0.59301964796E+02  0.50000037876E+02 0.  0.
         12    1    1    2    0    0  0.29565904468E+02 -0.69598020605E+01  0.97024578993E+01  0.31886035204E+02  0.00000000000E+00 0. -1.
         11    1    3    3    0    0 -0.47885753804E+01  0.22879714494E+02 -0.60287346181E+01  0.24140369319E+02  0.51100000000E-03 0. -1.
        -11    1    3    3    0    0 -0.13646106992E+02 -0.17669113200E+02 -0.70277275682E+01  0.23405186441E+02  0.51100000000E-03 0.  1.
         12    1    3    3    0    0 -0.11131222096E+02  0.17492007661E+01  0.33540042870E+01  0.11756409036E+02  0.00000000000E+00 0. -1.
</event>
<event>
 7    1  0.7579108E-012  0.5930197E+02  0.7816164E-02  0.1266605E+00
        -11   -1    0    0    0    0  0.00000000000E+00  0.00000000000E+00  0.45593999997E+02  0.45594000000E+02  0.51100000000E-03 0.  1.
         11   -1    0    0    0    0 -0.00000000000E+00 -0.00000000000E+00 -0.45593999997E+02  0.45594000000E+02  0.51100000000E-03 0. -1.
    9900012    2    1    2    0    0 -0.27898752907E+02  0.14039175156E+01 -0.15375544192E+02  0.59301972381E+02  0.50000051709E+02 0.  0.
         12    1    1    2    0    0  0.27898752907E+02 -0.14039175156E+01  0.15375544192E+02  0.31886027619E+02  0.00000000000E+00 0. -1.
         11    1    3    3    0    0 -0.96555919595E+01  0.15572069055E+02 -0.18927381276E+02  0.26343225940E+02  0.51100000000E-03 0. -1.
        -11    1    3    3    0    0 -0.41258203913E+01  0.33305098707E+01  0.84237199631E+01  0.99535796665E+01  0.51100000000E-03 0.  1.
         12    1    3    3    0    0 -0.14117340556E+02 -0.17498661410E+02 -0.48718828793E+01  0.23005166774E+02  0.00000000000E+00 0. -1.
</event>
<event>
 7    1  0.7579108E-012  0.5930193E+02  0.7816164E-02  0.1266605E+00
        -11   -1    0    0    0    0  0.00000000000E+00  0.00000000000E+00  0.45593999997E+02  0.45594000000E+02  0.51100000000E-03 0. -1.
         11   -1    0    0    0    0 -0.00000000000E+00 -0.00000000000E+00 -0.45593999997E+02  0.45594000000E+02  0.51100000000E-03 0.  1.
    9900012    2    1    2    0    0 -0.73133842552E+01 -0.28273265811E+02 -0.12800716278E+02  0.59301929591E+02  0.49999973671E+02 0.  0.
         12    1    1    2    0    0  0.73133842552E+01  0.28273265811E+02  0.12800716278E+02  0.31886070409E+02  0.00000000000E+00 0. -1.
         11    1    3    3    0    0  0.21975126260E+01 -0.14332199396E+02  0.14025278987E+02  0.20172988182E+02  0.51100000000E-03 0. -1.
        -11    1    3    3    0    0 -0.16217449013E+02 -0.54355119873E+01 -0.12576949766E+02  0.21230405289E+02  0.51100000000E-03 0.  1.
        -12    1    3    3    0    0  0.67065521322E+01 -0.85055544280E+01 -0.14249045498E+02  0.17898536120E+02  0.00000000000E+00 0.  1.
</event>
<event>
 7    1  0.7579108E-012  0.5930196E+02  0.7816164E-02  0.1266605E+00
        -11   -1    0    0    0    0  0.00000000000E+00  0.00000000000E+00  0.45593999997E+02  0.45594000000E+02  0.51100000000E-03 0. -1.
         11   -1    0    0    0    0 -0.00000000000E+00 -0.00000000000E+00 -0.45593999997E+02  0.45594000000E+02  0.51100000000E-03 0.  1.
    9900012    2    1    2    0    0  0.17523644684E+02 -0.19720106213E+02 -0.17909749625E+02  0.59301955346E+02  0.50000020641E+02 0.  0.
         12    1    1    2    0    0 -0.17523644684E+02  0.19720106213E+02  0.17909749625E+02  0.31886044654E+02  0.00000000000E+00 0. -1.
         11    1    3    3    0    0 -0.14854896046E+02 -0.11336733695E+02  0.34195932319E+01  0.18996923054E+02  0.51100000000E-03 0. -1.
        -11    1    3    3    0    0  0.22561248281E+02 -0.83978299707E+01 -0.12617626789E+02  0.27179734698E+02  0.51100000000E-03 0.  1.
         12    1    3    3    0    0  0.98172924496E+01  0.14457452452E-01 -0.87117160683E+01  0.13125297593E+02  0.00000000000E+00 0. -1.
</event>
<event>
 7    1  0.7579108E-012  0.5930224E+02  0.7816164E-02  0.1266604E+00
        -11   -1    0    0    0    0  0.00000000000E+00  0.00000000000E+00  0.45593999997E+02  0.45594000000E+02  0.51100000000E-03 0.  1.
         11   -1    0    0    0    0 -0.00000000000E+00 -0.00000000000E+00 -0.45593999997E+02  0.45594000000E+02  0.51100000000E-03 0. -1.
    9900012    2    1    2    0    0 -0.44756300422E+01 -0.20249516398E+02  0.24220398989E+02  0.59302236628E+02  0.50000533631E+02 0.  0.
         12    1    1    2    0    0  0.44756300422E+01  0.20249516398E+02 -0.24220398989E+02  0.31885763372E+02  0.00000000000E+00 0. -1.
         11    1    3    3    0    0 -0.22502035876E+02 -0.16833575333E+02  0.11169138445E+02  0.30240048460E+02  0.51100000000E-03 0. -1.
        -11    1    3    3    0    0  0.22206000898E+01  0.28042813282E+00  0.12627557743E+02  0.12824387685E+02  0.51100000000E-03 0.  1.
         12    1    3    3    0    0  0.15805805744E+02 -0.36963691981E+01  0.42370280118E+00  0.16237800483E+02  0.00000000000E+00 0. -1.
</event>
<event>
 7    1  0.7579108E-012  0.5930196E+02  0.7816164E-02  0.1266605E+00
        -11   -1    0    0    0    0  0.00000000000E+00  0.00000000000E+00  0.45593999997E+02  0.45594000000E+02  0.51100000000E-03 0.  1.
         11   -1    0    0    0    0 -0.00000000000E+00 -0.00000000000E+00 -0.45593999997E+02  0.45594000000E+02  0.51100000000E-03 0. -1.
    9900012    2    1    2    0    0 -0.62386100215E+01 -0.30826687464E+02  0.52454671623E+01  0.59301955392E+02  0.50000020726E+02 0.  0.
         12    1    1    2    0    0  0.62386100215E+01  0.30826687464E+02 -0.52454671623E+01  0.31886044608E+02  0.00000000000E+00 0. -1.
         11    1    3    3    0    0 -0.59955804263E+01  0.10858085404E+02  0.54438319584E+01  0.13545490391E+02  0.51100000000E-03 0. -1.
        -11    1    3    3    0    0 -0.94669612133E+01 -0.24232864480E+02 -0.82183957875E-01  0.26016568375E+02  0.51100000000E-03 0.  1.
         12    1    3    3    0    0  0.92239316182E+01 -0.17451908387E+02 -0.11618083820E+00  0.19739896626E+02  0.00000000000E+00 0. -1.
</event>
<event>
 7    1  0.7830644E-012  0.5930196E+02  0.7816164E-02  0.1266605E+00
        -11   -1    0    0    0    0  0.00000000000E+00  0.00000000000E+00  0.45593999997E+02  0.45594000000E+02  0.51100000000E-03 0.  1.
         11   -1    0    0    0    0 -0.00000000000E+00 -0.00000000000E+00 -0.45593999997E+02  0.45594000000E+02  0.51100000000E-03 0. -1.
    9900012    2    1    2    0    0  0.10023398524E+02  0.28491748798E+02  0.10221122828E+02  0.59301958863E+02  0.50000027056E+02 0.  0.
         12    1    1    2    0    0 -0.10023398524E+02 -0.28491748798E+02 -0.10221122828E+02  0.31886041137E+02  0.00000000000E+00 0. -1.
         11    1    3    3    0    0  0.10959402302E+02  0.13975787024E+01 -0.14527073309E+02  0.18250961186E+02  0.51100000000E-03 0. -1.
        -11    1    3    3    0    0  0.74255835266E+01  0.13440609841E+02  0.18044426300E+02  0.23693682794E+02  0.51100000000E-03 0.  1.
        -12    1    3    3    0    0 -0.83615873049E+01  0.13653560255E+02  0.67037698372E+01  0.17357314883E+02  0.00000000000E+00 0.  1.
</event>
<event>
 7    1  0.7579108E-012  0.5930195E+02  0.7816164E-02  0.1266605E+00
        -11   -1    0    0    0    0  0.00000000000E+00  0.00000000000E+00  0.45593999997E+02  0.45594000000E+02  0.51100000000E-03 0.  1.
         11   -1    0    0    0    0 -0.00000000000E+00 -0.00000000000E+00 -0.45593999997E+02  0.45594000000E+02  0.51100000000E-03 0. -1.
    9900012    2    1    2    0    0  0.10471140495E+02  0.30054037658E+02  0.19570975488E+01  0.59301949858E+02  0.50000010634E+02 0.  0.
         12    1    1    2    0    0 -0.10471140495E+02 -0.30054037658E+02 -0.19570975488E+01  0.31886050142E+02  0.00000000000E+00 0. -1.
         11    1    3    3    0    0 -0.11495065561E+02 -0.27969558712E+01 -0.33460819615E+01  0.12294541844E+02  0.51100000000E-03 0. -1.
        -11    1    3    3    0    0  0.68100158465E+01  0.99016754472E+01 -0.99111269266E+01  0.15577224711E+02  0.51100000000E-03 0.  1.
        -12    1    3    3    0    0  0.15156190210E+02  0.22949318082E+02  0.15214306437E+02  0.31430183303E+02  0.00000000000E+00 0.  1.
</event>
<event>
 7    1  0.7579108E-012  0.5930195E+02  0.7816164E-02  0.1266605E+00
        -11   -1    0    0    0    0  0.00000000000E+00  0.00000000000E+00  0.45593999997E+02  0.45594000000E+02  0.51100000000E-03 0.  1.
         11   -1    0    0    0    0 -0.00000000000E+00 -0.00000000000E+00 -0.45593999997E+02  0.45594000000E+02  0.51100000000E-03 0. -1.
    9900012    2    1    2    0    0 -0.20352569685E+01 -0.11588102656E+02  0.29636024125E+02  0.59301947876E+02  0.50000007019E+02 0.  0.
         12    1    1    2    0    0  0.20352569685E+01  0.11588102656E+02 -0.29636024125E+02  0.31886052124E+02  0.00000000000E+00 0. -1.
         11    1    3    3    0    0  0.73988899100E+01  0.15248077823E+02  0.80757323503E+01  0.18774048643E+02  0.51100000000E-03 0.  1.
        -11    1    3    3    0    0 -0.11763221144E+01 -0.20655219300E+02  0.54433378916E+01  0.21392796584E+02  0.51100000000E-03 0. -1.
        -12    1    3    3    0    0 -0.82578247642E+01 -0.61809611794E+01  0.16116953883E+02  0.19135102649E+02  0.00000000000E+00 0.  1.
</event>
<event>
 7    1  0.7579108E-012  0.5930200E+02  0.7816164E-02  0.1266605E+00
        -11   -1    0    0    0    0  0.00000000000E+00  0.00000000000E+00  0.45593999997E+02  0.45594000000E+02  0.51100000000E-03 0.  1.
         11   -1    0    0    0    0 -0.00000000000E+00 -0.00000000000E+00 -0.45593999997E+02  0.45594000000E+02  0.51100000000E-03 0. -1.
    9900012    2    1    2    0    0  0.19276827536E+02 -0.23576846155E+02  0.94473932449E+01  0.59302000038E+02  0.50000102149E+02 0.  0.
         12    1    1    2    0    0 -0.19276827536E+02  0.23576846155E+02 -0.94473932449E+01  0.31885999962E+02  0.00000000000E+00 0. -1.
         11    1    3    3    0    0  0.15352283007E+02 -0.16555063158E+02 -0.15814713132E+02  0.27565700815E+02  0.51100000000E-03 0. -1.
        -11    1    3    3    0    0 -0.24811302591E+00 -0.12133912681E+02  0.12825763718E+02  0.17657678563E+02  0.51100000000E-03 0.  1.
         12    1    3    3    0    0  0.41726575546E+01  0.51121296832E+01  0.12436342659E+02  0.14078620661E+02  0.00000000000E+00 0. -1.
</event>
<event>
 7    1  0.7579108E-012  0.5930194E+02  0.7816164E-02  0.1266605E+00
        -11   -1    0    0    0    0  0.00000000000E+00  0.00000000000E+00  0.45593999997E+02  0.45594000000E+02  0.51100000000E-03 0. -1.
         11   -1    0    0    0    0 -0.00000000000E+00 -0.00000000000E+00 -0.45593999997E+02  0.45594000000E+02  0.51100000000E-03 0.  1.
    9900012    2    1    2    0    0 -0.16044997742E+02 -0.20863681863E+02 -0.17999592560E+02  0.59301944964E+02  0.50000001708E+02 0.  0.
         12    1    1    2    0    0  0.16044997742E+02  0.20863681863E+02  0.17999592560E+02  0.31886055036E+02  0.00000000000E+00 0. -1.
         11    1    3    3    0    0 -0.73790848355E+01 -0.21006384063E+02  0.12242666455E+02  0.25408698247E+02  0.51100000000E-03 0. -1.
        -11    1    3    3    0    0 -0.10280395983E+02  0.26671161337E+01 -0.15122737754E+02  0.18479644139E+02  0.51100000000E-03 0.  1.
        -12    1    3    3    0    0  0.16144830760E+01 -0.25244139335E+01 -0.15119521260E+02  0.15413602579E+02  0.00000000000E+00 0.  1.
</event>
<event>
 7    1  0.7579108E-012  0.5930192E+02  0.7816164E-02  0.1266605E+00
        -11   -1    0    0    0    0  0.00000000000E+00  0.00000000000E+00  0.45593999997E+02  0.45594000000E+02  0.51100000000E-03 0.  1.
         11   -1    0    0    0    0 -0.00000000000E+00 -0.00000000000E+00 -0.45593999997E+02  0.45594000000E+02  0.51100000000E-03 0. -1.
    9900012    2    1    2    0    0  0.81698999024E+01 -0.22296975437E+02  0.21279560196E+02  0.59301920590E+02  0.49999957255E+02 0.  0.
         12    1    1    2    0    0 -0.81698999024E+01  0.22296975437E+02 -0.21279560196E+02  0.31886079410E+02  0.00000000000E+00 0. -1.
         11    1    3    3    0    0 -0.12960173234E+02 -0.64644070326E+01  0.17154709813E+02  0.22450806613E+02  0.51100000000E-03 0. -1.
        -11    1    3    3    0    0  0.19238814245E+02 -0.68267873520E+01  0.12889514868E+02  0.24142837300E+02  0.51100000000E-03 0.  1.
         12    1    3    3    0    0  0.18912588915E+01 -0.90057810519E+01 -0.87646644858E+01  0.12708276677E+02  0.00000000000E+00 0. -1.
</event>
<event>
 7    1  0.7579108E-012  0.5930193E+02  0.7816164E-02  0.1266605E+00
        -11   -1    0    0    0    0  0.00000000000E+00  0.00000000000E+00  0.45593999997E+02  0.45594000000E+02  0.51100000000E-03 0.  1.
         11   -1    0    0    0    0 -0.00000000000E+00 -0.00000000000E+00 -0.45593999997E+02  0.45594000000E+02  0.51100000000E-03 0. -1.
    9900012    2    1    2    0    0 -0.16530729321E+02 -0.16854258763E+02 -0.21433398904E+02  0.59301927195E+02  0.49999969301E+02 0.  0.
         12    1    1    2    0    0  0.16530729321E+02  0.16854258763E+02  0.21433398904E+02  0.31886072805E+02  0.00000000000E+00 0. -1.
         11    1    3    3    0    0 -0.98166370015E+01  0.12765940815E+02 -0.17697484332E+02  0.23927736184E+02  0.51100000000E-03 0. -1.
        -11    1    3    3    0    0 -0.69070864858E+01 -0.17399547224E+01  0.64164163896E+00  0.71517124112E+01  0.51100000000E-03 0.  1.
         12    1    3    3    0    0  0.19299416585E+00 -0.27880244856E+02 -0.43775562108E+01  0.28222478600E+02  0.00000000000E+00 0. -1.
</event>
<event>
 7    1  0.7579108E-012  0.5930193E+02  0.7816164E-02  0.1266605E+00
        -11   -1    0    0    0    0  0.00000000000E+00  0.00000000000E+00  0.45593999997E+02  0.45594000000E+02  0.51100000000E-03 0. -1.
         11   -1    0    0    0    0 -0.00000000000E+00 -0.00000000000E+00 -0.45593999997E+02  0.45594000000E+02  0.51100000000E-03 0.  1.
    9900012    2    1    2    0    0 -0.10361061934E+02 -0.27795803471E+02 -0.11694565466E+02  0.59301934761E+02  0.49999983099E+02 0.  0.
         12    1    1    2    0    0  0.10361061934E+02  0.27795803471E+02  0.11694565466E+02  0.31886065239E+02  0.00000000000E+00 0. -1.
         11    1    3    3    0    0  0.18739735575E+02 -0.96005917724E+01 -0.98540537456E+01  0.23247611216E+02  0.51100000000E-03 0. -1.
        -11    1    3    3    0    0 -0.11859577061E+02 -0.13008809663E+02  0.17677751451E+01  0.17691911320E+02  0.51100000000E-03 0.  1.
         12    1    3    3    0    0 -0.17241220447E+02 -0.51864020349E+01 -0.36082868659E+01  0.18362412224E+02  0.00000000000E+00 0. -1.
</event>
<event>
 7    1  0.7579108E-012  0.5930195E+02  0.7816164E-02  0.1266605E+00
        -11   -1    0    0    0    0  0.00000000000E+00  0.00000000000E+00  0.45593999997E+02  0.45594000000E+02  0.51100000000E-03 0.  1.
         11   -1    0    0    0    0 -0.00000000000E+00 -0.00000000000E+00 -0.45593999997E+02  0.45594000000E+02  0.51100000000E-03 0. -1.
    9900012    2    1    2    0    0  0.31331247146E+02  0.35322728099E+01 -0.47535780170E+01  0.59301945009E+02  0.50000001790E+02 0.  0.
         12    1    1    2    0    0 -0.31331247146E+02 -0.35322728099E+01  0.47535780170E+01  0.31886054991E+02  0.00000000000E+00 0. -1.
         11    1    3    3    0    0 -0.62749807868E+01  0.61183651825E+01 -0.78810174010E+01  0.11786441868E+02  0.51100000000E-03 0. -1.
        -11    1    3    3    0    0  0.24082376091E+02 -0.73411693722E+01  0.14645256780E+02  0.29126227911E+02  0.51100000000E-03 0.  1.
        -12    1    3    3    0    0  0.13523851842E+02  0.47550769995E+01 -0.11517817396E+02  0.18389275230E+02  0.00000000000E+00 0.  1.
</event>
<event>
 7    1  0.7579108E-012  0.5930200E+02  0.7816164E-02  0.1266605E+00
        -11   -1    0    0    0    0  0.00000000000E+00  0.00000000000E+00  0.45593999997E+02  0.45594000000E+02  0.51100000000E-03 0.  1.
         11   -1    0    0    0    0 -0.00000000000E+00 -0.00000000000E+00 -0.45593999997E+02  0.45594000000E+02  0.51100000000E-03 0. -1.
    9900012    2    1    2    0    0 -0.79455420924E+01  0.25843123827E+02  0.16903208915E+02  0.59301997430E+02  0.50000097392E+02 0.  0.
         12    1    1    2    0    0  0.79455420924E+01 -0.25843123827E+02 -0.16903208915E+02  0.31886002570E+02  0.00000000000E+00 0. -1.
         11    1    3    3    0    0 -0.25439158873E+02  0.11336990929E+02  0.10041358684E+01  0.27869095008E+02  0.51100000000E-03 0. -1.
        -11    1    3    3    0    0  0.25573342759E-01  0.38106470492E+01  0.90767600257E+01  0.98442499844E+01  0.51100000000E-03 0.  1.
         12    1    3    3    0    0  0.17468043438E+02  0.10695485849E+02  0.68223130206E+01  0.21588652437E+02  0.00000000000E+00 0. -1.
</event>
<event>
 7    1  0.7579108E-012  0.5930189E+02  0.7816164E-02  0.1266605E+00
        -11   -1    0    0    0    0  0.00000000000E+00  0.00000000000E+00  0.45593999997E+02  0.45594000000E+02  0.51100000000E-03 0. -1.
         11   -1    0    0    0    0 -0.00000000000E+00 -0.00000000000E+00 -0.45593999997E+02  0.45594000000E+02  0.51100000000E-03 0.  1.
    9900012    2    1    2    0    0 -0.27706783764E+02 -0.15677883665E+02  0.18061990725E+01  0.59301886128E+02  0.49999894405E+02 0.  0.
         12    1    1    2    0    0  0.27706783764E+02  0.15677883665E+02 -0.18061990725E+01  0.31886113872E+02  0.00000000000E+00 0. -1.
         11    1    3    3    0    0  0.11555097523E+02  0.28720694176E+01  0.42799813499E+01  0.12652561089E+02  0.51100000000E-03 0. -1.
        -11    1    3    3    0    0 -0.15054728471E+02 -0.98307524506E+01  0.69095427675E+01  0.19262147456E+02  0.51100000000E-03 0.  1.
         12    1    3    3    0    0 -0.24207152815E+02 -0.87192006324E+01 -0.93833250449E+01  0.27387177583E+02  0.00000000000E+00 0. -1.
</event>
<event>
 7    1  0.7579108E-012  0.5930195E+02  0.7816164E-02  0.1266605E+00
        -11   -1    0    0    0    0  0.00000000000E+00  0.00000000000E+00  0.45593999997E+02  0.45594000000E+02  0.51100000000E-03 0.  1.
         11   -1    0    0    0    0 -0.00000000000E+00 -0.00000000000E+00 -0.45593999997E+02  0.45594000000E+02  0.51100000000E-03 0. -1.
    9900012    2    1    2    0    0  0.22774825147E+02  0.22255445693E+02 -0.16500406648E+01  0.59301950422E+02  0.50000011661E+02 0.  0.
         12    1    1    2    0    0 -0.22774825147E+02 -0.22255445693E+02  0.16500406648E+01  0.31886049578E+02  0.00000000000E+00 0. -1.
         11    1    3    3    0    0 -0.61048411192E+01  0.34353714226E+01 -0.11210159921E+02  0.13218870891E+02  0.51100000000E-03 0. -1.
        -11    1    3    3    0    0  0.18972887139E+02  0.24802115951E+02  0.24615142418E+00  0.31227808005E+02  0.51100000000E-03 0.  1.
        -12    1    3    3    0    0  0.99067791280E+01 -0.59820416798E+01  0.93139678322E+01  0.14855271527E+02  0.00000000000E+00 0.  1.
</event>
<event>
 7    1  0.7579108E-012  0.5930193E+02  0.7816164E-02  0.1266605E+00
        -11   -1    0    0    0    0  0.00000000000E+00  0.00000000000E+00  0.45593999997E+02  0.45594000000E+02  0.51100000000E-03 0.  1.
         11   -1    0    0    0    0 -0.00000000000E+00 -0.00000000000E+00 -0.45593999997E+02  0.45594000000E+02  0.51100000000E-03 0. -1.
    9900012    2    1    2    0    0 -0.41087702720E+01 -0.10346755805E+02  0.29879497213E+02  0.59301926197E+02  0.49999967482E+02 0.  0.
         12    1    1    2    0    0  0.41087702720E+01  0.10346755805E+02 -0.29879497213E+02  0.31886073803E+02  0.00000000000E+00 0. -1.
         11    1    3    3    0    0 -0.33786651248E+01 -0.17664791798E+02 -0.23535281846E+01  0.18138339022E+02  0.51100000000E-03 0. -1.
        -11    1    3    3    0    0 -0.14070166430E+01  0.14298762804E+02  0.91390117095E+01  0.17028089994E+02  0.51100000000E-03 0.  1.
        -12    1    3    3    0    0  0.67691149587E+00 -0.69807268108E+01  0.23094013688E+02  0.24135497182E+02  0.00000000000E+00 0.  1.
</event>
<event>
 7    1  0.1025522E-011  0.5930192E+02  0.7816164E-02  0.1266605E+00
        -11   -1    0    0    0    0  0.00000000000E+00  0.00000000000E+00  0.45593999997E+02  0.45594000000E+02  0.51100000000E-03 0. -1.
         11   -1    0    0    0    0 -0.00000000000E+00 -0.00000000000E+00 -0.45593999997E+02  0.45594000000E+02  0.51100000000E-03 0.  1.
    9900012    2    1    2    0    0 -0.17296315257E+02  0.19294857204E+02 -0.18581382925E+02  0.59301924239E+02  0.49999963911E+02 0.  0.
         12    1    1    2    0    0  0.17296315257E+02 -0.19294857204E+02  0.18581382925E+02  0.31886075761E+02  0.00000000000E+00 0. -1.
         11    1    3    3    0    0 -0.80089742614E+01  0.91608429486E+00  0.70716497798E+01  0.10723390790E+02  0.51100000000E-03 0. -1.
        -11    1    3    3    0    0  0.13450826438E+02  0.76866272350E+01 -0.14001697507E+02  0.20881965986E+02  0.51100000000E-03 0.  1.
        -12    1    3    3    0    0 -0.22738167434E+02  0.10692145674E+02 -0.11651335198E+02  0.27696567464E+02  0.00000000000E+00 0.  1.
</event>
<event>
 7    1  0.7579108E-012  0.5930193E+02  0.7816164E-02  0.1266605E+00
        -11   -1    0    0    0    0  0.00000000000E+00  0.00000000000E+00  0.45593999997E+02  0.45594000000E+02  0.51100000000E-03 0. -1.
         11   -1    0    0    0    0 -0.00000000000E+00 -0.00000000000E+00 -0.45593999997E+02  0.45594000000E+02  0.51100000000E-03 0.  1.
    9900012    2    1    2    0    0 -0.28965615168E+02 -0.82082553821E+01 -0.10504259145E+02  0.59301925004E+02  0.49999965304E+02 0.  0.
         12    1    1    2    0    0  0.28965615168E+02  0.82082553821E+01  0.10504259145E+02  0.31886074996E+02  0.00000000000E+00 0. -1.
         11    1    3    3    0    0  0.74848337388E+01  0.62243207106E+01  0.10731869944E+01  0.97937038444E+01  0.51100000000E-03 0. -1.
        -11    1    3    3    0    0 -0.27345187058E+02 -0.22122754695E+02 -0.13013669021E+02  0.37503747975E+02  0.51100000000E-03 0.  1.
        -12    1    3    3    0    0 -0.91052618493E+01  0.76901786018E+01  0.14362228815E+01  0.12004473184E+02  0.00000000000E+00 0.  1.
</event>
<event>
 7    1  0.7579108E-012  0.5930196E+02  0.7816164E-02  0.1266605E+00
        -11   -1    0    0    0    0  0.00000000000E+00  0.00000000000E+00  0.45593999997E+02  0.45594000000E+02  0.51100000000E-03 0.  1.
         11   -1    0    0    0    0 -0.00000000000E+00 -0.00000000000E+00 -0.45593999997E+02  0.45594000000E+02  0.51100000000E-03 0. -1.
    9900012    2    1    2    0    0  0.13630259780E+02 -0.25908089568E+02 -0.12637492325E+02  0.59301963887E+02  0.50000036218E+02 0.  0.
         12    1    1    2    0    0 -0.13630259780E+02  0.25908089568E+02  0.12637492325E+02  0.31886036113E+02  0.00000000000E+00 0. -1.
         11    1    3    3    0    0  0.21913558620E+02 -0.89606733143E+01 -0.25150655844E+02  0.34540602301E+02  0.51100000000E-03 0. -1.
        -11    1    3    3    0    0 -0.18609975665E+01  0.10395574178E+01  0.21679296435E+01  0.30403800368E+01  0.51100000000E-03 0.  1.
         12    1    3    3    0    0 -0.64223012738E+01 -0.17986973672E+02  0.10345233876E+02  0.21720981549E+02  0.00000000000E+00 0. -1.
</event>
<event>
 7    1  0.7579108E-012  0.5930196E+02  0.7816164E-02  0.1266605E+00
        -11   -1    0    0    0    0  0.00000000000E+00  0.00000000000E+00  0.45593999997E+02  0.45594000000E+02  0.51100000000E-03 0.  1.
         11   -1    0    0    0    0 -0.00000000000E+00 -0.00000000000E+00 -0.45593999997E+02  0.45594000000E+02  0.51100000000E-03 0. -1.
    9900012    2    1    2    0    0  0.39205588749E+01 -0.16938307656E+01  0.31598724997E+02  0.59301964405E+02  0.50000037163E+02 0.  0.
         12    1    1    2    0    0 -0.39205588749E+01  0.16938307656E+01 -0.31598724997E+02  0.31886035595E+02  0.00000000000E+00 0. -1.
         11    1    3    3    0    0  0.24464701192E+02  0.20723487954E+01  0.74034611985E+01  0.25644248320E+02  0.51100000000E-03 0. -1.
        -11    1    3    3    0    0 -0.10022341499E+02  0.31438275639E-01  0.18650256657E+02  0.21172633070E+02  0.51100000000E-03 0.  1.
         12    1    3    3    0    0 -0.10521800818E+02 -0.37976178366E+01  0.55450071409E+01  0.12485083014E+02  0.00000000000E+00 0. -1.
</event>
<event>
 7    1  0.7579108E-012  0.5930196E+02  0.7816164E-02  0.1266605E+00
        -11   -1    0    0    0    0  0.00000000000E+00  0.00000000000E+00  0.45593999997E+02  0.45594000000E+02  0.51100000000E-03 0. -1.
         11   -1    0    0    0    0 -0.00000000000E+00 -0.00000000000E+00 -0.45593999997E+02  0.45594000000E+02  0.51100000000E-03 0.  1.
    9900012    2    1    2    0    0 -0.17919901522E+02  0.67045359829E+01 -0.25507755948E+02  0.59301964078E+02  0.50000036567E+02 0.  0.
         12    1    1    2    0    0  0.17919901522E+02 -0.67045359829E+01  0.25507755948E+02  0.31886035922E+02  0.00000000000E+00 0. -1.
         11    1    3    3    0    0  0.24176041873E+01  0.63166274323E+01 -0.25610873772E+01  0.72321339133E+01  0.51100000000E-03 0. -1.
        -11    1    3    3    0    0 -0.31478070678E+02 -0.38784900298E+01 -0.24449351705E+02  0.40046003766E+02  0.51100000000E-03 0.  1.
        -12    1    3    3    0    0  0.11140564969E+02  0.42663985804E+01  0.15026831341E+01  0.12023826399E+02  0.00000000000E+00 0.  1.
</event>
<event>
 7    1  0.7579108E-012  0.5930194E+02  0.7816164E-02  0.1266605E+00
        -11   -1    0    0    0    0  0.00000000000E+00  0.00000000000E+00  0.45593999997E+02  0.45594000000E+02  0.51100000000E-03 0.  1.
         11   -1    0    0    0    0 -0.00000000000E+00 -0.00000000000E+00 -0.45593999997E+02  0.45594000000E+02  0.51100000000E-03 0. -1.
    9900012    2    1    2    0    0  0.67209510263E+01  0.31114428004E+02 -0.18552483746E+01  0.59301940989E+02  0.49999994458E+02 0.  0.
         12    1    1    2    0    0 -0.67209510263E+01 -0.31114428004E+02  0.18552483746E+01  0.31886059011E+02  0.00000000000E+00 0. -1.
         11    1    3    3    0    0 -0.10517917630E+02  0.40975233080E+01 -0.10334365916E+02  0.15304097742E+02  0.51100000000E-03 0. -1.
        -11    1    3    3    0    0  0.23757624504E+02  0.22015085570E+02  0.12663434804E+02  0.34777166303E+02  0.51100000000E-03 0.  1.
        -12    1    3    3    0    0 -0.65187558474E+01  0.50018191257E+01 -0.41843172627E+01  0.92206769448E+01  0.00000000000E+00 0.  1.
</event>
<event>
 7    1  0.7579108E-012  0.5930194E+02  0.7816164E-02  0.1266605E+00
        -11   -1    0    0    0    0  0.00000000000E+00  0.00000000000E+00  0.45593999997E+02  0.45594000000E+02  0.51100000000E-03 0.  1.
         11   -1    0    0    0    0 -0.00000000000E+00 -0.00000000000E+00 -0.45593999997E+02  0.45594000000E+02  0.51100000000E-03 0. -1.
    9900012    2    1    2    0    0 -0.16201461839E+02  0.15073492150E+02  0.22956984097E+02  0.59301942700E+02  0.49999997579E+02 0.  0.
         12    1    1    2    0    0  0.16201461839E+02 -0.15073492150E+02 -0.22956984097E+02  0.31886057300E+02  0.00000000000E+00 0. -1.
         11    1    3    3    0    0 -0.48489895517E+01  0.12760645945E+02  0.23663372342E+02  0.27318528062E+02  0.51100000000E-03 0. -1.
        -11    1    3    3    0    0 -0.63685495717E+01 -0.13164666126E+02  0.38010037020E+01  0.15110078995E+02  0.51100000000E-03 0.  1.
         12    1    3    3    0    0 -0.49839227153E+01  0.15477512330E+02 -0.45073919471E+01  0.16873335643E+02  0.00000000000E+00 0. -1.
</event>
<event>
 7    1  0.7579108E-012  0.5930194E+02  0.7816164E-02  0.1266605E+00
        -11   -1    0    0    0    0  0.00000000000E+00  0.00000000000E+00  0.45593999997E+02  0.45594000000E+02  0.51100000000E-03 0.  1.
         11   -1    0    0    0    0 -0.00000000000E+00 -0.00000000000E+00 -0.45593999997E+02  0.45594000000E+02  0.51100000000E-03 0. -1.
    9900012    2    1    2    0    0  0.21844934780E+01 -0.31777458188E+02  0.14636477046E+01  0.59301935250E+02  0.49999983991E+02 0.  0.
         12    1    1    2    0    0 -0.21844934780E+01  0.31777458188E+02 -0.14636477046E+01  0.31886064750E+02  0.00000000000E+00 0. -1.
         11    1    3    3    0    0  0.14080009900E+02  0.14596480863E+01 -0.69292538695E+01  0.15760450843E+02  0.51100000000E-03 0. -1.
        -11    1    3    3    0    0  0.65504439532E+01 -0.16581856181E+02  0.44766170934E+01  0.18382229768E+02  0.51100000000E-03 0.  1.
         12    1    3    3    0    0 -0.18445960375E+02 -0.16655250094E+02  0.39162844807E+01  0.25159254639E+02  0.00000000000E+00 0. -1.
</event>
<event>
 7    1  0.7579108E-012  0.5930196E+02  0.7816164E-02  0.1266605E+00
        -11   -1    0    0    0    0  0.00000000000E+00  0.00000000000E+00  0.45593999997E+02  0.45594000000E+02  0.51100000000E-03 0.  1.
         11   -1    0    0    0    0 -0.00000000000E+00 -0.00000000000E+00 -0.45593999997E+02  0.45594000000E+02  0.51100000000E-03 0. -1.
    9900012    2    1    2    0    0 -0.12162139402E+02 -0.78482446132E+01  0.28411383633E+02  0.59301963899E+02  0.50000036240E+02 0.  0.
         12    1    1    2    0    0  0.12162139402E+02  0.78482446132E+01 -0.28411383633E+02  0.31886036101E+02  0.00000000000E+00 0. -1.
         11    1    3    3    0    0 -0.22661699852E+02 -0.13491710332E+02  0.16006482944E+02  0.30851035385E+02  0.51100000000E-03 0. -1.
        -11    1    3    3    0    0  0.12978966444E+02  0.32805977626E+01  0.17670796187E+02  0.22169188749E+02  0.51100000000E-03 0.  1.
         12    1    3    3    0    0 -0.24794059943E+01  0.23628679558E+01 -0.52658954990E+01  0.62817397644E+01  0.00000000000E+00 0. -1.
</event>
<event>
 7    1  0.7579108E-012  0.5930221E+02  0.7816164E-02  0.1266604E+00
        -11   -1    0    0    0    0  0.00000000000E+00  0.00000000000E+00  0.45593999997E+02  0.45594000000E+02  0.51100000000E-03 0.  1.
         11   -1    0    0    0    0 -0.00000000000E+00 -0.00000000000E+00 -0.45593999997E+02  0.45594000000E+02  0.51100000000E-03 0. -1.
    9900012    2    1    2    0    0  0.16352009916E+02 -0.13879410462E+02  0.23594011051E+02  0.59302209739E+02  0.50000484591E+02 0.  0.
         12    1    1    2    0    0 -0.16352009916E+02  0.13879410462E+02 -0.23594011051E+02  0.31885790261E+02  0.00000000000E+00 0. -1.
         11    1    3    3    0    0  0.27192178085E+02 -0.26112809623E+01 -0.13578456872E+01  0.27350997833E+02  0.51100000000E-03 0. -1.
        -11    1    3    3    0    0 -0.10615003534E+02 -0.82400070414E+01  0.10148073238E+02  0.16839222274E+02  0.51100000000E-03 0.  1.
         12    1    3    3    0    0 -0.22516463462E+00 -0.30281224586E+01  0.14803783500E+02  0.15111989633E+02  0.00000000000E+00 0. -1.
</event>
<event>
 7    1  0.7579108E-012  0.5930195E+02  0.7816164E-02  0.1266605E+00
        -11   -1    0    0    0    0  0.00000000000E+00  0.00000000000E+00  0.45593999997E+02  0.45594000000E+02  0.51100000000E-03 0.  1.
         11   -1    0    0    0    0 -0.00000000000E+00 -0.00000000000E+00 -0.45593999997E+02  0.45594000000E+02  0.51100000000E-03 0. -1.
    9900012    2    1    2    0    0  0.40086514020E+00  0.22672759595E+02  0.22416637558E+02  0.59301947251E+02  0.50000005878E+02 0.  0.
         12    1    1    2    0    0 -0.40086514020E+00 -0.22672759595E+02 -0.22416637558E+02  0.31886052749E+02  0.00000000000E+00 0. -1.
         11    1    3    3    0    0 -0.13180398251E+02  0.10752729677E+02  0.20895657182E+01  0.17137980590E+02  0.51100000000E-03 0. -1.
        -11    1    3    3    0    0 -0.41931270006E+01 -0.86240827789E+01  0.72065623152E+01  0.11995484921E+02  0.51100000000E-03 0.  1.
         12    1    3    3    0    0  0.17774390392E+02  0.20544112697E+02  0.13120509524E+02  0.30168481740E+02  0.00000000000E+00 0. -1.
</event>
<event>
 7    1  0.7579108E-012  0.5930192E+02  0.7816164E-02  0.1266605E+00
        -11   -1    0    0    0    0  0.00000000000E+00  0.00000000000E+00  0.45593999997E+02  0.45594000000E+02  0.51100000000E-03 0.  1.
         11   -1    0    0    0    0 -0.00000000000E+00 -0.00000000000E+00 -0.45593999997E+02  0.45594000000E+02  0.51100000000E-03 0. -1.
    9900012    2    1    2    0    0  0.37839351297E+01 -0.17759331246E+02  0.26210878143E+02  0.59301919269E+02  0.49999954846E+02 0.  0.
         12    1    1    2    0    0 -0.37839351297E+01  0.17759331246E+02 -0.26210878143E+02  0.31886080731E+02  0.00000000000E+00 0. -1.
         11    1    3    3    0    0  0.18109226486E+02  0.55294584363E+01  0.86645009388E+01  0.20822885758E+02  0.51100000000E-03 0. -1.
        -11    1    3    3    0    0  0.31407483186E+01 -0.13790210732E+02  0.94613036226E+01  0.17016182843E+02  0.51100000000E-03 0.  1.
         12    1    3    3    0    0 -0.17466039675E+02 -0.94985789503E+01  0.80850735812E+01  0.21462850668E+02  0.00000000000E+00 0. -1.
</event>
<event>
 7    1  0.7579108E-012  0.5930192E+02  0.7816164E-02  0.1266605E+00
        -11   -1    0    0    0    0  0.00000000000E+00  0.00000000000E+00  0.45593999997E+02  0.45594000000E+02  0.51100000000E-03 0. -1.
         11   -1    0    0    0    0 -0.00000000000E+00 -0.00000000000E+00 -0.45593999997E+02  0.45594000000E+02  0.51100000000E-03 0.  1.
    9900012    2    1    2    0    0 -0.31450012524E+02 -0.52546998424E+01 -0.81996715771E-01  0.59301923389E+02  0.49999962359E+02 0.  0.
         12    1    1    2    0    0  0.31450012524E+02  0.52546998424E+01  0.81996715771E-01  0.31886076611E+02  0.00000000000E+00 0. -1.
         11    1    3    3    0    0 -0.37032933103E+02 -0.11002911745E+02  0.26804591968E+00  0.38633845912E+02  0.51100000000E-03 0. -1.
        -11    1    3    3    0    0  0.63246265818E+01 -0.61027800376E+01 -0.56712840753E-02  0.87889053932E+01  0.51100000000E-03 0.  1.
         12    1    3    3    0    0 -0.74170600276E+00  0.11850991940E+02 -0.34437135137E+00  0.11879172083E+02  0.00000000000E+00 0. -1.
</event>
<event>
 7    1  0.7579108E-012  0.5930195E+02  0.7816164E-02  0.1266605E+00
        -11   -1    0    0    0    0  0.00000000000E+00  0.00000000000E+00  0.45593999997E+02  0.45594000000E+02  0.51100000000E-03 0. -1.
         11   -1    0    0    0    0 -0.00000000000E+00 -0.00000000000E+00 -0.45593999997E+02  0.45594000000E+02  0.51100000000E-03 0.  1.
    9900012    2    1    2    0    0 -0.63384789019E+01  0.26082835236E+02 -0.17211312835E+02  0.59301954491E+02  0.50000019082E+02 0.  0.
         12    1    1    2    0    0  0.63384789019E+01 -0.26082835236E+02  0.17211312835E+02  0.31886045509E+02  0.00000000000E+00 0. -1.
         11    1    3    3    0    0 -0.49318143505E+01  0.33233823703E+02 -0.25596943268E+02  0.42237582029E+02  0.51100000000E-03 0.  1.
        -11    1    3    3    0    0  0.55618447218E+01 -0.17220400679E+01  0.19692650648E+01  0.61463439427E+01  0.51100000000E-03 0. -1.
         12    1    3    3    0    0 -0.69685092732E+01 -0.54289483997E+01  0.64163653683E+01  0.10918028520E+02  0.00000000000E+00 0. -1.
</event>
<event>
 7    1  0.7579108E-012  0.5930201E+02  0.7816164E-02  0.1266605E+00
        -11   -1    0    0    0    0  0.00000000000E+00  0.00000000000E+00  0.45593999997E+02  0.45594000000E+02  0.51100000000E-03 0.  1.
         11   -1    0    0    0    0 -0.00000000000E+00 -0.00000000000E+00 -0.45593999997E+02  0.45594000000E+02  0.51100000000E-03 0. -1.
    9900012    2    1    2    0    0  0.66629630803E+01  0.13562430576E+02  0.28078134597E+02  0.59302011814E+02  0.50000123626E+02 0.  0.
         12    1    1    2    0    0 -0.66629630803E+01 -0.13562430576E+02 -0.28078134597E+02  0.31885988186E+02  0.00000000000E+00 0. -1.
         11    1    3    3    0    0 -0.92446908504E+01  0.21667896238E+02  0.18008558022E+01  0.23626364896E+02  0.51100000000E-03 0. -1.
        -11    1    3    3    0    0  0.12917640633E+02 -0.12747897585E+02  0.22834714328E+02  0.29168450611E+02  0.51100000000E-03 0.  1.
        -12    1    3    3    0    0  0.29900132978E+01  0.46424319218E+01  0.34425644666E+01  0.65071963069E+01  0.00000000000E+00 0.  1.
</event>
<event>
 7    1  0.7579108E-012  0.5930193E+02  0.7816164E-02  0.1266605E+00
        -11   -1    0    0    0    0  0.00000000000E+00  0.00000000000E+00  0.45593999997E+02  0.45594000000E+02  0.51100000000E-03 0. -1.
         11   -1    0    0    0    0 -0.00000000000E+00 -0.00000000000E+00 -0.45593999997E+02  0.45594000000E+02  0.51100000000E-03 0.  1.
    9900012    2    1    2    0    0  0.17015420391E+02  0.26139002555E+02  0.66294298151E+01  0.59301932113E+02  0.49999978270E+02 0.  0.
         12    1    1    2    0    0 -0.17015420391E+02 -0.26139002555E+02 -0.66294298151E+01  0.31886067887E+02  0.00000000000E+00 0. -1.
         11    1    3    3    0    0  0.36567549208E+01  0.33284756479E+02 -0.25637491534E+01  0.33583026671E+02  0.51100000000E-03 0. -1.
        -11    1    3    3    0    0  0.17360072336E+02 -0.55102070196E+01  0.34610302808E+01  0.18539504410E+02  0.51100000000E-03 0.  1.
        -12    1    3    3    0    0 -0.40014068658E+01 -0.16355469047E+01  0.57321486877E+01  0.71794010308E+01  0.00000000000E+00 0.  1.
</event>
<event>
 7    1  0.7579108E-012  0.5930202E+02  0.7816164E-02  0.1266604E+00
        -11   -1    0    0    0    0  0.00000000000E+00  0.00000000000E+00  0.45593999997E+02  0.45594000000E+02  0.51100000000E-03 0. -1.
         11   -1    0    0    0    0 -0.00000000000E+00 -0.00000000000E+00 -0.45593999997E+02  0.45594000000E+02  0.51100000000E-03 0.  1.
    9900012    2    1    2    0    0 -0.24910571276E+02 -0.17862798941E+02 -0.87806235592E+01  0.59302023500E+02  0.50000144937E+02 0.  0.
         12    1    1    2    0    0  0.24910571276E+02  0.17862798941E+02  0.87806235592E+01  0.31885976500E+02  0.00000000000E+00 0. -1.
         11    1    3    3    0    0  0.64038704170E+01  0.37950219358E-01 -0.10211439443E+02  0.12053401690E+02  0.51100000000E-03 0. -1.
        -11    1    3    3    0    0 -0.16134433526E+02  0.73343513886E+01 -0.56352151280E+00  0.17732180132E+02  0.51100000000E-03 0.  1.
        -12    1    3    3    0    0 -0.15180008167E+02 -0.25235100549E+02  0.19943373962E+01  0.29516441678E+02  0.00000000000E+00 0.  1.
</event>
<event>
 7    1  0.7579108E-012  0.5930194E+02  0.7816164E-02  0.1266605E+00
        -11   -1    0    0    0    0  0.00000000000E+00  0.00000000000E+00  0.45593999997E+02  0.45594000000E+02  0.51100000000E-03 0. -1.
         11   -1    0    0    0    0 -0.00000000000E+00 -0.00000000000E+00 -0.45593999997E+02  0.45594000000E+02  0.51100000000E-03 0.  1.
    9900012    2    1    2    0    0 -0.17125092034E+02  0.23243004114E+02 -0.13535679141E+02  0.59301943059E+02  0.49999998233E+02 0.  0.
         12    1    1    2    0    0  0.17125092034E+02 -0.23243004114E+02  0.13535679141E+02  0.31886056941E+02  0.00000000000E+00 0. -1.
         11    1    3    3    0    0 -0.89550291993E+01  0.47749624256E+01  0.10528467133E+02  0.14623318178E+02  0.51100000000E-03 0. -1.
        -11    1    3    3    0    0 -0.17455344711E+02  0.21653821198E+02 -0.18326338669E+02  0.33308132952E+02  0.51100000000E-03 0.  1.
         12    1    3    3    0    0  0.92852818759E+01 -0.31857795093E+01 -0.57378076044E+01  0.11370491929E+02  0.00000000000E+00 0. -1.
</event>
<event>
 7    1  0.7579108E-012  0.5930198E+02  0.7816164E-02  0.1266605E+00
        -11   -1    0    0    0    0  0.00000000000E+00  0.00000000000E+00  0.45593999997E+02  0.45594000000E+02  0.51100000000E-03 0.  1.
         11   -1    0    0    0    0 -0.00000000000E+00 -0.00000000000E+00 -0.45593999997E+02  0.45594000000E+02  0.51100000000E-03 0. -1.
    9900012    2    1    2    0    0 -0.17364133802E+02 -0.26244688370E+02  0.51401574695E+01  0.59301983799E+02  0.50000072534E+02 0.  0.
         12    1    1    2    0    0  0.17364133802E+02  0.26244688370E+02 -0.51401574695E+01  0.31886016201E+02  0.00000000000E+00 0. -1.
         11    1    3    3    0    0 -0.25691378152E+02 -0.32536073504E+02 -0.36199369201E+01  0.41614263588E+02  0.51100000000E-03 0. -1.
        -11    1    3    3    0    0  0.10133692646E+02  0.16292695424E+01  0.68280700215E+01  0.12327562061E+02  0.51100000000E-03 0.  1.
         12    1    3    3    0    0 -0.18064482962E+01  0.46621155917E+01  0.19320243682E+01  0.53601581503E+01  0.00000000000E+00 0. -1.
</event>
<event>
 7    1  0.7579108E-012  0.5930194E+02  0.7816164E-02  0.1266605E+00
        -11   -1    0    0    0    0  0.00000000000E+00  0.00000000000E+00  0.45593999997E+02  0.45594000000E+02  0.51100000000E-03 0. -1.
         11   -1    0    0    0    0 -0.00000000000E+00 -0.00000000000E+00 -0.45593999997E+02  0.45594000000E+02  0.51100000000E-03 0.  1.
    9900012    2    1    2    0    0  0.63577111166E+01 -0.91436994185E+01 -0.29877969671E+02  0.59301940329E+02  0.49999993254E+02 0.  0.
         12    1    1    2    0    0 -0.63577111166E+01  0.91436994185E+01  0.29877969671E+02  0.31886059671E+02  0.00000000000E+00 0. -1.
         11    1    3    3    0    0  0.25502428911E+02 -0.72881437403E+01 -0.58454089660E+01  0.27159891859E+02  0.51100000000E-03 0. -1.
        -11    1    3    3    0    0 -0.12838679948E+02 -0.54135614024E+01 -0.13834050159E+02  0.19634645246E+02  0.51100000000E-03 0.  1.
         12    1    3    3    0    0 -0.63060378463E+01  0.35580057241E+01 -0.10198510546E+02  0.12507403224E+02  0.00000000000E+00 0. -1.
</event>
<event>
 7    1  0.7579108E-012  0.5930194E+02  0.7816164E-02  0.1266605E+00
        -11   -1    0    0    0    0  0.00000000000E+00  0.00000000000E+00  0.45593999997E+02  0.45594000000E+02  0.51100000000E-03 0.  1.
         11   -1    0    0    0    0 -0.00000000000E+00 -0.00000000000E+00 -0.45593999997E+02  0.45594000000E+02  0.51100000000E-03 0. -1.
    9900012    2    1    2    0    0  0.97922758065E+01 -0.22888788060E+02  0.19923242808E+02  0.59301938965E+02  0.49999990767E+02 0.  0.
         12    1    1    2    0    0 -0.97922758065E+01  0.22888788060E+02 -0.19923242808E+02  0.31886061035E+02  0.00000000000E+00 0. -1.
         11    1    3    3    0    0  0.37637097009E+01 -0.20613629447E+02  0.11479320245E+02  0.23892719042E+02  0.51100000000E-03 0. -1.
        -11    1    3    3    0    0 -0.85195161111E+01  0.67517546548E+01 -0.65153559269E+01  0.12673523930E+02  0.51100000000E-03 0.  1.
        -12    1    3    3    0    0  0.14548082217E+02 -0.90269132683E+01  0.14959278490E+02  0.22735695993E+02  0.00000000000E+00 0.  1.
</event>
<event>
 7    1  0.7579108E-012  0.5930202E+02  0.7816164E-02  0.1266604E+00
        -11   -1    0    0    0    0  0.00000000000E+00  0.00000000000E+00  0.45593999997E+02  0.45594000000E+02  0.51100000000E-03 0. -1.
         11   -1    0    0    0    0 -0.00000000000E+00 -0.00000000000E+00 -0.45593999997E+02  0.45594000000E+02  0.51100000000E-03 0.  1.
    9900012    2    1    2    0    0  0.13346351377E+02 -0.28776648117E+02 -0.32396162533E+01  0.59302020552E+02  0.50000139561E+02 0.  0.
         12    1    1    2    0    0 -0.13346351377E+02  0.28776648117E+02  0.32396162533E+01  0.31885979448E+02  0.00000000000E+00 0. -1.
         11    1    3    3    0    0 -0.12004489317E+02 -0.92374439434E+01  0.13981110069E+02  0.20613334844E+02  0.51100000000E-03 0. -1.
        -11    1    3    3    0    0  0.17976185782E+02 -0.13124115829E+02 -0.18353970186E+02  0.28848810952E+02  0.51100000000E-03 0.  1.
         12    1    3    3    0    0  0.73746549119E+01 -0.64150883450E+01  0.11332438633E+01  0.98398747552E+01  0.00000000000E+00 0. -1.
</event>
<event>
 7    1  0.7579108E-012  0.5930197E+02  0.7816164E-02  0.1266605E+00
        -11   -1    0    0    0    0  0.00000000000E+00  0.00000000000E+00  0.45593999997E+02  0.45594000000E+02  0.51100000000E-03 0. -1.
         11   -1    0    0    0    0 -0.00000000000E+00 -0.00000000000E+00 -0.45593999997E+02  0.45594000000E+02  0.51100000000E-03 0.  1.
    9900012    2    1    2    0    0  0.35212616266E+01 -0.31463972218E+02 -0.37865968244E+01  0.59301966275E+02  0.50000040574E+02 0.  0.
         12    1    1    2    0    0 -0.35212616266E+01  0.31463972218E+02  0.37865968244E+01  0.31886033725E+02  0.00000000000E+00 0. -1.
         11    1    3    3    0    0 -0.11997658845E+02 -0.20276134433E+01  0.95214148753E+01  0.15450319593E+02  0.51100000000E-03 0.  1.
        -11    1    3    3    0    0  0.98708792350E+01 -0.20561934760E+01 -0.12262465498E+02  0.15875460586E+02  0.51100000000E-03 0. -1.
        -12    1    3    3    0    0  0.56480412370E+01 -0.27380165299E+02 -0.10455462020E+01  0.27976186096E+02  0.00000000000E+00 0.  1.
</event>
<event>
 7    1  0.7579108E-012  0.5930207E+02  0.7816164E-02  0.1266604E+00
        -11   -1    0    0    0    0  0.00000000000E+00  0.00000000000E+00  0.45593999997E+02  0.45594000000E+02  0.51100000000E-03 0. -1.
         11   -1    0    0    0    0 -0.00000000000E+00 -0.00000000000E+00 -0.45593999997E+02  0.45594000000E+02  0.51100000000E-03 0.  1.
    9900012    2    1    2    0    0  0.78638752150E+01 -0.17838184972E+02 -0.25232348309E+02  0.59302066147E+02  0.50000222716E+02 0.  0.
         12    1    1    2    0    0 -0.78638752150E+01  0.17838184972E+02  0.25232348309E+02  0.31885933853E+02  0.00000000000E+00 0. -1.
         11    1    3    3    0    0  0.73615999317E+01 -0.29858295098E+02 -0.97583932605E+00  0.30767892394E+02  0.51100000000E-03 0. -1.
        -11    1    3    3    0    0  0.22876904828E+01  0.70677569556E+01 -0.21161133643E+02  0.22427222152E+02  0.51100000000E-03 0.  1.
         12    1    3    3    0    0 -0.17854151994E+01  0.49523531707E+01 -0.30953753400E+01  0.61069516010E+01  0.00000000000E+00 0. -1.
</event>
<event>
 7    1  0.7579108E-012  0.5930195E+02  0.7816164E-02  0.1266605E+00
        -11   -1    0    0    0    0  0.00000000000E+00  0.00000000000E+00  0.45593999997E+02  0.45594000000E+02  0.51100000000E-03 0.  1.
         11   -1    0    0    0    0 -0.00000000000E+00 -0.00000000000E+00 -0.45593999997E+02  0.45594000000E+02  0.51100000000E-03 0. -1.
    9900012    2    1    2    0    0 -0.10355809755E+02 -0.15198130558E+01  0.30119222194E+02  0.59301950183E+02  0.50000011225E+02 0.  0.
         12    1    1    2    0    0  0.10355809755E+02  0.15198130558E+01 -0.30119222194E+02  0.31886049817E+02  0.00000000000E+00 0. -1.
         11    1    3    3    0    0 -0.36068766206E+01 -0.14766188195E+02  0.22138119646E+02  0.26854165682E+02  0.51100000000E-03 0. -1.
        -11    1    3    3    0    0 -0.82430390106E+01  0.15708921626E+02  0.16023313398E+02  0.23905323326E+02  0.51100000000E-03 0.  1.
         12    1    3    3    0    0  0.14941058764E+01 -0.24625464871E+01 -0.80422108501E+01  0.85424611751E+01  0.00000000000E+00 0. -1.
</event>
<event>
 7    1  0.7579108E-012  0.5930194E+02  0.7816164E-02  0.1266605E+00
        -11   -1    0    0    0    0  0.00000000000E+00  0.00000000000E+00  0.45593999997E+02  0.45594000000E+02  0.51100000000E-03 0.  1.
         11   -1    0    0    0    0 -0.00000000000E+00 -0.00000000000E+00 -0.45593999997E+02  0.45594000000E+02  0.51100000000E-03 0. -1.
    9900012    2    1    2    0    0  0.27863405099E+02  0.14383666915E+02  0.57845872702E+01  0.59301942428E+02  0.49999997082E+02 0.  0.
         12    1    1    2    0    0 -0.27863405099E+02 -0.14383666915E+02 -0.57845872702E+01  0.31886057572E+02  0.00000000000E+00 0. -1.
         11    1    3    3    0    0  0.19309895342E+02  0.99372086256E+01 -0.18197128110E+02  0.28332942754E+02  0.51100000000E-03 0. -1.
        -11    1    3    3    0    0  0.17775937721E+01  0.10366649479E+02  0.14301997177E+02  0.17753151397E+02  0.51100000000E-03 0.  1.
         12    1    3    3    0    0  0.67759159846E+01 -0.59201911893E+01  0.96797182035E+01  0.13215848276E+02  0.00000000000E+00 0. -1.
</event>
<event>
 7    1  0.7579108E-012  0.5930196E+02  0.7816164E-02  0.1266605E+00
        -11   -1    0    0    0    0  0.00000000000E+00  0.00000000000E+00  0.45593999997E+02  0.45594000000E+02  0.51100000000E-03 0. -1.
         11   -1    0    0    0    0 -0.00000000000E+00 -0.00000000000E+00 -0.45593999997E+02  0.45594000000E+02  0.51100000000E-03 0.  1.
    9900012    2    1    2    0    0  0.21639367058E+02  0.22700253587E+02  0.57581354387E+01  0.59301955352E+02  0.50000020652E+02 0.  0.
         12    1    1    2    0    0 -0.21639367058E+02 -0.22700253587E+02 -0.57581354387E+01  0.31886044648E+02  0.00000000000E+00 0. -1.
         11    1    3    3    0    0 -0.11122846993E+02  0.22326110968E+01 -0.18489263904E+01  0.11494381523E+02  0.51100000000E-03 0. -1.
        -11    1    3    3    0    0  0.34296353207E+02  0.94629023271E+01  0.87491349653E+01  0.36637872845E+02  0.51100000000E-03 0.  1.
        -12    1    3    3    0    0 -0.15341391548E+01  0.11004740163E+02 -0.11420731362E+01  0.11169700983E+02  0.00000000000E+00 0.  1.
</event>
<event>
 7    1  0.7579108E-012  0.5930195E+02  0.7816164E-02  0.1266605E+00
        -11   -1    0    0    0    0  0.00000000000E+00  0.00000000000E+00  0.45593999997E+02  0.45594000000E+02  0.51100000000E-03 0. -1.
         11   -1    0    0    0    0 -0.00000000000E+00 -0.00000000000E+00 -0.45593999997E+02  0.45594000000E+02  0.51100000000E-03 0.  1.
    9900012    2    1    2    0    0 -0.19794435449E+02 -0.46166202712E+01 -0.24568013148E+02  0.59301950895E+02  0.50000012525E+02 0.  0.
         12    1    1    2    0    0  0.19794435449E+02  0.46166202712E+01  0.24568013148E+02  0.31886049105E+02  0.00000000000E+00 0. -1.
         11    1    3    3    0    0 -0.22525008749E+00 -0.91512911876E+01  0.31694159457E+01  0.96872114512E+01  0.51100000000E-03 0. -1.
        -11    1    3    3    0    0 -0.20643577576E+02  0.96624843738E+01 -0.14813920696E+01  0.22841090651E+02  0.51100000000E-03 0.  1.
        -12    1    3    3    0    0  0.10743922141E+01 -0.51278134574E+01 -0.26256037024E+02  0.26773648793E+02  0.00000000000E+00 0.  1.
</event>
<event>
 7    1  0.7579108E-012  0.5930192E+02  0.7816164E-02  0.1266605E+00
        -11   -1    0    0    0    0  0.00000000000E+00  0.00000000000E+00  0.45593999997E+02  0.45594000000E+02  0.51100000000E-03 0.  1.
         11   -1    0    0    0    0 -0.00000000000E+00 -0.00000000000E+00 -0.45593999997E+02  0.45594000000E+02  0.51100000000E-03 0. -1.
    9900012    2    1    2    0    0  0.29429508090E+02 -0.24747458295E+01  0.12020882040E+02  0.59301922813E+02  0.49999961309E+02 0.  0.
         12    1    1    2    0    0 -0.29429508090E+02  0.24747458295E+01 -0.12020882040E+02  0.31886077187E+02  0.00000000000E+00 0. -1.
         11    1    3    3    0    0  0.32164162558E+02  0.11380546367E+02 -0.11633340274E+01  0.34138007191E+02  0.51100000000E-03 0. -1.
        -11    1    3    3    0    0  0.72531333141E+00  0.46417139772E+00  0.10070059791E+02  0.10106811514E+02  0.51100000000E-03 0.  1.
         12    1    3    3    0    0 -0.34599677992E+01 -0.14319463594E+02  0.31141562766E+01  0.15057104108E+02  0.00000000000E+00 0. -1.
</event>
<event>
 7    1  0.7579108E-012  0.5930195E+02  0.7816164E-02  0.1266605E+00
        -11   -1    0    0    0    0  0.00000000000E+00  0.00000000000E+00  0.45593999997E+02  0.45594000000E+02  0.51100000000E-03 0.  1.
         11   -1    0    0    0    0 -0.00000000000E+00 -0.00000000000E+00 -0.45593999997E+02  0.45594000000E+02  0.51100000000E-03 0. -1.
    9900012    2    1    2    0    0 -0.56950006387E+01 -0.21714936357E+02  0.22643954400E+02  0.59301950321E+02  0.50000011477E+02 0.  0.
         12    1    1    2    0    0  0.56950006387E+01  0.21714936357E+02 -0.22643954400E+02  0.31886049679E+02  0.00000000000E+00 0. -1.
         11    1    3    3    0    0 -0.26723915692E+01 -0.11272687026E+01 -0.72809369772E-01  0.29013295043E+01  0.51100000000E-03 0. -1.
        -11    1    3    3    0    0  0.15595226264E+02 -0.27081574708E+02  0.95002928724E+01  0.32663103585E+02  0.51100000000E-03 0.  1.
        -12    1    3    3    0    0 -0.18617835334E+02  0.64939070535E+01  0.13216470897E+02  0.23737517231E+02  0.00000000000E+00 0.  1.
</event>
<event>
 7    1  0.7579108E-012  0.5930190E+02  0.7816164E-02  0.1266605E+00
        -11   -1    0    0    0    0  0.00000000000E+00  0.00000000000E+00  0.45593999997E+02  0.45594000000E+02  0.51100000000E-03 0.  1.
         11   -1    0    0    0    0 -0.00000000000E+00 -0.00000000000E+00 -0.45593999997E+02  0.45594000000E+02  0.51100000000E-03 0. -1.
    9900012    2    1    2    0    0  0.31414830311E+02 -0.41128360154E+01  0.35939468767E+01  0.59301898988E+02  0.49999917859E+02 0.  0.
         12    1    1    2    0    0 -0.31414830311E+02  0.41128360154E+01 -0.35939468767E+01  0.31886101012E+02  0.00000000000E+00 0. -1.
         11    1    3    3    0    0  0.21009048667E+02 -0.13395632417E+02 -0.76135727109E+01  0.26053590605E+02  0.51100000000E-03 0. -1.
        -11    1    3    3    0    0  0.15451305681E+02  0.14834157322E+02  0.22091514810E+01  0.21533123815E+02  0.51100000000E-03 0.  1.
         12    1    3    3    0    0 -0.50455240371E+01 -0.55513609205E+01  0.89983681066E+01  0.11715184568E+02  0.00000000000E+00 0. -1.
</event>
<event>
 7    1  0.7579108E-012  0.5930202E+02  0.7816164E-02  0.1266605E+00
        -11   -1    0    0    0    0  0.00000000000E+00  0.00000000000E+00  0.45593999997E+02  0.45594000000E+02  0.51100000000E-03 0.  1.
         11   -1    0    0    0    0 -0.00000000000E+00 -0.00000000000E+00 -0.45593999997E+02  0.45594000000E+02  0.51100000000E-03 0. -1.
    9900012    2    1    2    0    0  0.28261673754E+01 -0.31262991818E+02 -0.55994561341E+01  0.59302018936E+02  0.50000136614E+02 0.  0.
         12    1    1    2    0    0 -0.28261673754E+01  0.31262991818E+02  0.55994561341E+01  0.31885981064E+02  0.00000000000E+00 0. -1.
         11    1    3    3    0    0 -0.13315261310E+02 -0.29571219830E+01  0.17420526454E+00  0.13640788170E+02  0.51100000000E-03 0. -1.
        -11    1    3    3    0    0  0.14573389147E+02 -0.33529188895E+02  0.14761667910E+01  0.36589195780E+02  0.51100000000E-03 0.  1.
        -12    1    3    3    0    0  0.15680395384E+01  0.52233190601E+01 -0.72498281896E+01  0.90720349854E+01  0.00000000000E+00 0.  1.
</event>
<event>
 7    1  0.7579108E-012  0.5930193E+02  0.7816164E-02  0.1266605E+00
        -11   -1    0    0    0    0  0.00000000000E+00  0.00000000000E+00  0.45593999997E+02  0.45594000000E+02  0.51100000000E-03 0.  1.
         11   -1    0    0    0    0 -0.00000000000E+00 -0.00000000000E+00 -0.45593999997E+02  0.45594000000E+02  0.51100000000E-03 0. -1.
    9900012    2    1    2    0    0  0.15422900457E+02  0.25033897692E+02  0.12335297141E+02  0.59301930194E+02  0.49999974770E+02 0.  0.
         12    1    1    2    0    0 -0.15422900457E+02 -0.25033897692E+02 -0.12335297141E+02  0.31886069806E+02  0.00000000000E+00 0. -1.
         11    1    3    3    0    0  0.31531801838E+01 -0.14404126811E+02  0.66641344560E+01  0.16181226862E+02  0.51100000000E-03 0. -1.
        -11    1    3    3    0    0  0.71476037892E+01  0.12750910761E+02  0.63517502799E+01  0.15937964018E+02  0.51100000000E-03 0.  1.
         12    1    3    3    0    0  0.51221164838E+01  0.26687113741E+02 -0.68058759456E+00  0.27182739314E+02  0.00000000000E+00 0. -1.
</event>
<event>
 7    1  0.7579108E-012  0.5930195E+02  0.7816164E-02  0.1266605E+00
        -11   -1    0    0    0    0  0.00000000000E+00  0.00000000000E+00  0.45593999997E+02  0.45594000000E+02  0.51100000000E-03 0. -1.
         11   -1    0    0    0    0 -0.00000000000E+00 -0.00000000000E+00 -0.45593999997E+02  0.45594000000E+02  0.51100000000E-03 0.  1.
    9900012    2    1    2    0    0 -0.80768612869E+01  0.30726960177E+02  0.27089987705E+01  0.59301945928E+02  0.50000003465E+02 0.  0.
         12    1    1    2    0    0  0.80768612869E+01 -0.30726960177E+02 -0.27089987705E+01  0.31886054072E+02  0.00000000000E+00 0. -1.
         11    1    3    3    0    0  0.96882707223E+01 -0.59346846179E+01  0.91029547028E+00  0.11397881786E+02  0.51100000000E-03 0. -1.
        -11    1    3    3    0    0 -0.16915699814E+02  0.15399890882E+02 -0.83203192398E+01  0.24341841588E+02  0.51100000000E-03 0.  1.
        -12    1    3    3    0    0 -0.84943219472E+00  0.21261753913E+02  0.10119022540E+02  0.23562222554E+02  0.00000000000E+00 0.  1.
</event>
<event>
 7    1  0.7579108E-012  0.5930194E+02  0.7816164E-02  0.1266605E+00
        -11   -1    0    0    0    0  0.00000000000E+00  0.00000000000E+00  0.45593999997E+02  0.45594000000E+02  0.51100000000E-03 0. -1.
         11   -1    0    0    0    0 -0.00000000000E+00 -0.00000000000E+00 -0.45593999997E+02  0.45594000000E+02  0.51100000000E-03 0.  1.
    9900012    2    1    2    0    0 -0.17475824651E+02  0.26505479271E+02 -0.29623953050E+01  0.59301942474E+02  0.49999997166E+02 0.  0.
         12    1    1    2    0    0  0.17475824651E+02 -0.26505479271E+02  0.29623953050E+01  0.31886057526E+02  0.00000000000E+00 0. -1.
         11    1    3    3    0    0 -0.32889273880E+01 -0.56472614895E+01 -0.10534225311E+02  0.12396713631E+02  0.51100000000E-03 0. -1.
        -11    1    3    3    0    0  0.44600976687E+01  0.26329515677E+02  0.32914849840E+01  0.26906685799E+02  0.51100000000E-03 0.  1.
        -12    1    3    3    0    0 -0.18646994932E+02  0.58232250828E+01  0.42803450220E+01  0.19998543044E+02  0.00000000000E+00 0.  1.
</event>
<event>
 7    1  0.7579108E-012  0.5930193E+02  0.7816164E-02  0.1266605E+00
        -11   -1    0    0    0    0  0.00000000000E+00  0.00000000000E+00  0.45593999997E+02  0.45594000000E+02  0.51100000000E-03 0. -1.
         11   -1    0    0    0    0 -0.00000000000E+00 -0.00000000000E+00 -0.45593999997E+02  0.45594000000E+02  0.51100000000E-03 0.  1.
    9900012    2    1    2    0    0  0.31208578854E+02  0.41704510884E+01 -0.50351898665E+01  0.59301934182E+02  0.49999982044E+02 0.  0.
         12    1    1    2    0    0 -0.31208578854E+02 -0.41704510884E+01  0.50351898665E+01  0.31886065818E+02  0.00000000000E+00 0. -1.
         11    1    3    3    0    0  0.54444446086E-01  0.53174433799E+01  0.48605883625E+01  0.72044075251E+01  0.51100000000E-03 0. -1.
        -11    1    3    3    0    0  0.14271051830E+02 -0.13074229255E+02 -0.21061113286E+02  0.28603651586E+02  0.51100000000E-03 0.  1.
        -12    1    3    3    0    0  0.16883082577E+02  0.11927236963E+02  0.11165335057E+02  0.23493875071E+02  0.00000000000E+00 0.  1.
</event>
<event>
 7    1  0.7579108E-012  0.5930200E+02  0.7816164E-02  0.1266605E+00
        -11   -1    0    0    0    0  0.00000000000E+00  0.00000000000E+00  0.45593999997E+02  0.45594000000E+02  0.51100000000E-03 0. -1.
         11   -1    0    0    0    0 -0.00000000000E+00 -0.00000000000E+00 -0.45593999997E+02  0.45594000000E+02  0.51100000000E-03 0.  1.
    9900012    2    1    2    0    0 -0.18170572692E+02  0.24264580278E+02 -0.98882359407E+01  0.59302003418E+02  0.50000108313E+02 0.  0.
         12    1    1    2    0    0  0.18170572692E+02 -0.24264580278E+02  0.98882359407E+01  0.31885996582E+02  0.00000000000E+00 0. -1.
         11    1    3    3    0    0 -0.13341528587E+02 -0.71641276692E+01 -0.94142902690E+00  0.15172587096E+02  0.51100000000E-03 0. -1.
        -11    1    3    3    0    0  0.85596462938E+01  0.27984609118E+02 -0.45072293132E+01  0.29609474979E+02  0.51100000000E-03 0.  1.
        -12    1    3    3    0    0 -0.13388690399E+02  0.34440988287E+01 -0.44395776006E+01  0.14519941343E+02  0.00000000000E+00 0.  1.
</event>
<event>
 7    1  0.7579108E-012  0.5930203E+02  0.7816164E-02  0.1266604E+00
        -11   -1    0    0    0    0  0.00000000000E+00  0.00000000000E+00  0.45593999997E+02  0.45594000000E+02  0.51100000000E-03 0.  1.
         11   -1    0    0    0    0 -0.00000000000E+00 -0.00000000000E+00 -0.45593999997E+02  0.45594000000E+02  0.51100000000E-03 0. -1.
    9900012    2    1    2    0    0 -0.12406608201E+02  0.28377923508E+02  0.75818682166E+01  0.59302028236E+02  0.50000153575E+02 0.  0.
         12    1    1    2    0    0  0.12406608201E+02 -0.28377923508E+02 -0.75818682166E+01  0.31885971764E+02  0.00000000000E+00 0. -1.
         11    1    3    3    0    0  0.36373342509E+01 -0.18841783133E+01 -0.37063268205E+01  0.55242363391E+01  0.51100000000E-03 0. -1.
        -11    1    3    3    0    0 -0.67318779843E+01  0.31306275276E+02  0.22521982976E+02  0.39148956184E+02  0.51100000000E-03 0.  1.
        -12    1    3    3    0    0 -0.93120644679E+01 -0.10441734550E+01 -0.11233787939E+02  0.14628835713E+02  0.00000000000E+00 0.  1.
</event>
<event>
 7    1  0.7579108E-012  0.5930197E+02  0.7816164E-02  0.1266605E+00
        -11   -1    0    0    0    0  0.00000000000E+00  0.00000000000E+00  0.45593999997E+02  0.45594000000E+02  0.51100000000E-03 0.  1.
         11   -1    0    0    0    0 -0.00000000000E+00 -0.00000000000E+00 -0.45593999997E+02  0.45594000000E+02  0.51100000000E-03 0. -1.
    9900012    2    1    2    0    0  0.30529089331E+02 -0.89422945057E+01  0.21745780204E+01  0.59301973029E+02  0.50000052892E+02 0.  0.
         12    1    1    2    0    0 -0.30529089331E+02  0.89422945057E+01 -0.21745780204E+01  0.31886026971E+02  0.00000000000E+00 0. -1.
         11    1    3    3    0    0  0.12153099208E+02 -0.11450926530E+02 -0.13251474050E+02  0.21317202056E+02  0.51100000000E-03 0. -1.
        -11    1    3    3    0    0  0.25036454842E+02  0.72629972936E+01  0.89950594716E+01  0.27576915997E+02  0.51100000000E-03 0.  1.
        -12    1    3    3    0    0 -0.66604647191E+01 -0.47543652695E+01  0.64309925990E+01  0.10407854976E+02  0.00000000000E+00 0.  1.
</event>
<event>
 7    1  0.7579108E-012  0.5930193E+02  0.7816164E-02  0.1266605E+00
        -11   -1    0    0    0    0  0.00000000000E+00  0.00000000000E+00  0.45593999997E+02  0.45594000000E+02  0.51100000000E-03 0.  1.
         11   -1    0    0    0    0 -0.00000000000E+00 -0.00000000000E+00 -0.45593999997E+02  0.45594000000E+02  0.51100000000E-03 0. -1.
    9900012    2    1    2    0    0 -0.43626902795E+01 -0.31581205728E+02  0.56202917513E+00  0.59301929397E+02  0.49999973317E+02 0.  0.
         12    1    1    2    0    0  0.43626902795E+01  0.31581205728E+02 -0.56202917513E+00  0.31886070603E+02  0.00000000000E+00 0. -1.
         11    1    3    3    0    0  0.14202495601E+02 -0.48961344604E+01 -0.48140778129E+01  0.15775245146E+02  0.51100000000E-03 0. -1.
        -11    1    3    3    0    0 -0.19156017117E+02 -0.99980927016E+01 -0.70320302985E+01  0.22723650672E+02  0.51100000000E-03 0.  1.
        -12    1    3    3    0    0  0.59083123657E+00 -0.16686978566E+02  0.12408137287E+02  0.20803033580E+02  0.00000000000E+00 0.  1.
</event>
<event>
 7    1  0.7579108E-012  0.5930195E+02  0.7816164E-02  0.1266605E+00
        -11   -1    0    0    0    0  0.00000000000E+00  0.00000000000E+00  0.45593999997E+02  0.45594000000E+02  0.51100000000E-03 0.  1.
         11   -1    0    0    0    0 -0.00000000000E+00 -0.00000000000E+00 -0.45593999997E+02  0.45594000000E+02  0.51100000000E-03 0. -1.
    9900012    2    1    2    0    0 -0.14485407643E+02  0.13606056445E+02  0.24935286721E+02  0.59301947714E+02  0.50000006722E+02 0.  0.
         12    1    1    2    0    0  0.14485407643E+02 -0.13606056445E+02 -0.24935286721E+02  0.31886052286E+02  0.00000000000E+00 0. -1.
         11    1    3    3    0    0  0.53489091348E+01  0.42383928675E+01 -0.27216416370E+01  0.73472536701E+01  0.51100000000E-03 0. -1.
        -11    1    3    3    0    0 -0.94071729010E+01 -0.11828734233E+02  0.23543464647E+02  0.27976929485E+02  0.51100000000E-03 0.  1.
        -12    1    3    3    0    0 -0.10427143877E+02  0.21196397810E+02  0.41134637105E+01  0.23977764559E+02  0.00000000000E+00 0.  1.
</event>
<event>
 7    1  0.7579108E-012  0.5930196E+02  0.7816164E-02  0.1266605E+00
        -11   -1    0    0    0    0  0.00000000000E+00  0.00000000000E+00  0.45593999997E+02  0.45594000000E+02  0.51100000000E-03 0.  1.
         11   -1    0    0    0    0 -0.00000000000E+00 -0.00000000000E+00 -0.45593999997E+02  0.45594000000E+02  0.51100000000E-03 0. -1.
    9900012    2    1    2    0    0 -0.22330005535E+02 -0.12674359222E+02 -0.18906369746E+02  0.59301963152E+02  0.50000034879E+02 0.  0.
         12    1    1    2    0    0  0.22330005535E+02  0.12674359222E+02  0.18906369746E+02  0.31886036848E+02  0.00000000000E+00 0. -1.
         11    1    3    3    0    0 -0.11757983984E+02  0.13208917192E+02 -0.16673247421E+02  0.24304790897E+02  0.51100000000E-03 0. -1.
        -11    1    3    3    0    0  0.12191687011E+01 -0.13439314287E+02  0.73407577586E+01  0.15361909567E+02  0.51100000000E-03 0.  1.
        -12    1    3    3    0    0 -0.11791190251E+02 -0.12443962127E+02 -0.95738800838E+01  0.19635262688E+02  0.00000000000E+00 0.  1.
</event>
<event>
 7    1  0.7579108E-012  0.5930193E+02  0.7816164E-02  0.1266605E+00
        -11   -1    0    0    0    0  0.00000000000E+00  0.00000000000E+00  0.45593999997E+02  0.45594000000E+02  0.51100000000E-03 0.  1.
         11   -1    0    0    0    0 -0.00000000000E+00 -0.00000000000E+00 -0.45593999997E+02  0.45594000000E+02  0.51100000000E-03 0. -1.
    9900012    2    1    2    0    0 -0.11300695534E+02  0.29516383438E+02 -0.42188350574E+01  0.59301934390E+02  0.49999982424E+02 0.  0.
         12    1    1    2    0    0  0.11300695534E+02 -0.29516383438E+02  0.42188350574E+01  0.31886065610E+02  0.00000000000E+00 0. -1.
         11    1    3    3    0    0  0.13159593752E+02  0.65859671441E+00 -0.39128135889E+01  0.13744772381E+02  0.51100000000E-03 0. -1.
        -11    1    3    3    0    0 -0.42602275881E-01  0.15505174889E+02  0.66496431168E+01  0.16870981511E+02  0.51100000000E-03 0.  1.
         12    1    3    3    0    0 -0.24417687011E+02  0.13352611834E+02 -0.69556645853E+01  0.28686180498E+02  0.00000000000E+00 0. -1.
</event>
<event>
 7    1  0.7579108E-012  0.5930195E+02  0.7816164E-02  0.1266605E+00
        -11   -1    0    0    0    0  0.00000000000E+00  0.00000000000E+00  0.45593999997E+02  0.45594000000E+02  0.51100000000E-03 0.  1.
         11   -1    0    0    0    0 -0.00000000000E+00 -0.00000000000E+00 -0.45593999997E+02  0.45594000000E+02  0.51100000000E-03 0. -1.
    9900012    2    1    2    0    0 -0.20519780990E+02 -0.92720415062E+01  0.22576276648E+02  0.59301946107E+02  0.50000003792E+02 0.  0.
         12    1    1    2    0    0  0.20519780990E+02  0.92720415062E+01 -0.22576276648E+02  0.31886053893E+02  0.00000000000E+00 0. -1.
         11    1    3    3    0    0 -0.44211708247E+01  0.13978111558E+01 -0.76295385448E+01  0.89280729251E+01  0.51100000000E-03 0. -1.
        -11    1    3    3    0    0 -0.14902275699E+02  0.58031673973E+01  0.29837830017E+02  0.33853370190E+02  0.51100000000E-03 0.  1.
        -12    1    3    3    0    0 -0.11963344659E+01 -0.16473020059E+02  0.36798517660E+00  0.16520502992E+02  0.00000000000E+00 0.  1.
</event>
<event>
 7    1  0.7579108E-012  0.5930196E+02  0.7816164E-02  0.1266605E+00
        -11   -1    0    0    0    0  0.00000000000E+00  0.00000000000E+00  0.45593999997E+02  0.45594000000E+02  0.51100000000E-03 0. -1.
         11   -1    0    0    0    0 -0.00000000000E+00 -0.00000000000E+00 -0.45593999997E+02  0.45594000000E+02  0.51100000000E-03 0.  1.
    9900012    2    1    2    0    0  0.18448285248E+02 -0.19993380288E+02 -0.16632652115E+02  0.59301959162E+02  0.50000027602E+02 0.  0.
         12    1    1    2    0    0 -0.18448285248E+02  0.19993380288E+02  0.16632652115E+02  0.31886040838E+02  0.00000000000E+00 0. -1.
         11    1    3    3    0    0 -0.59294985418E+01 -0.15053290861E+02 -0.10220222634E+01  0.16211263013E+02  0.51100000000E-03 0. -1.
        -11    1    3    3    0    0  0.19845686277E+02 -0.79642558044E+01 -0.24590041339E+02  0.32587586097E+02  0.51100000000E-03 0.  1.
         12    1    3    3    0    0  0.45320975123E+01  0.30241663771E+01  0.89794114865E+01  0.10503110053E+02  0.00000000000E+00 0. -1.
</event>
<event>
 7    1  0.7579108E-012  0.5930205E+02  0.7816164E-02  0.1266604E+00
        -11   -1    0    0    0    0  0.00000000000E+00  0.00000000000E+00  0.45593999997E+02  0.45594000000E+02  0.51100000000E-03 0.  1.
         11   -1    0    0    0    0 -0.00000000000E+00 -0.00000000000E+00 -0.45593999997E+02  0.45594000000E+02  0.51100000000E-03 0. -1.
    9900012    2    1    2    0    0  0.19218659285E+01 -0.51111317534E+01  0.31414907693E+02  0.59302052283E+02  0.50000197431E+02 0.  0.
         12    1    1    2    0    0 -0.19218659285E+01  0.51111317534E+01 -0.31414907693E+02  0.31885947717E+02  0.00000000000E+00 0. -1.
         11    1    3    3    0    0  0.18406557456E+02  0.43931468786E+01  0.22178024829E+02  0.29154174357E+02  0.51100000000E-03 0.  1.
        -11    1    3    3    0    0 -0.11877089303E+02 -0.12096431146E+02  0.14777873554E+02  0.22489429601E+02  0.51100000000E-03 0. -1.
        -12    1    3    3    0    0 -0.46076022241E+01  0.25921525136E+01 -0.55409906896E+01  0.76584483240E+01  0.00000000000E+00 0.  1.
</event>
<event>
 7    1  0.7579108E-012  0.5930193E+02  0.7816164E-02  0.1266605E+00
        -11   -1    0    0    0    0  0.00000000000E+00  0.00000000000E+00  0.45593999997E+02  0.45594000000E+02  0.51100000000E-03 0.  1.
         11   -1    0    0    0    0 -0.00000000000E+00 -0.00000000000E+00 -0.45593999997E+02  0.45594000000E+02  0.51100000000E-03 0. -1.
    9900012    2    1    2    0    0 -0.67754522500E+01  0.27920618705E+02  0.13829462167E+02  0.59301925831E+02  0.49999966814E+02 0.  0.
         12    1    1    2    0    0  0.67754522500E+01 -0.27920618705E+02 -0.13829462167E+02  0.31886074169E+02  0.00000000000E+00 0. -1.
         11    1    3    3    0    0  0.13496846103E+02  0.80538332033E+01  0.14120633840E+02  0.21128686289E+02  0.51100000000E-03 0. -1.
        -11    1    3    3    0    0 -0.14656054773E+02  0.25979126022E+02  0.52261120907E+00  0.29832667549E+02  0.51100000000E-03 0.  1.
         12    1    3    3    0    0 -0.56162435808E+01 -0.61123405202E+01 -0.81378288132E+00  0.83405719931E+01  0.00000000000E+00 0. -1.
</event>
<event>
 7    1  0.7579108E-012  0.5930194E+02  0.7816164E-02  0.1266605E+00
        -11   -1    0    0    0    0  0.00000000000E+00  0.00000000000E+00  0.45593999997E+02  0.45594000000E+02  0.51100000000E-03 0.  1.
         11   -1    0    0    0    0 -0.00000000000E+00 -0.00000000000E+00 -0.45593999997E+02  0.45594000000E+02  0.51100000000E-03 0. -1.
    9900012    2    1    2    0    0  0.45869391434E+00  0.17867911216E+02  0.26405452178E+02  0.59301944176E+02  0.50000000270E+02 0.  0.
         12    1    1    2    0    0 -0.45869391434E+00 -0.17867911216E+02 -0.26405452178E+02  0.31886055824E+02  0.00000000000E+00 0. -1.
         11    1    3    3    0    0 -0.97276565156E+01 -0.16320770798E+01 -0.11056444368E+02  0.14816745230E+02  0.51100000000E-03 0. -1.
        -11    1    3    3    0    0  0.90407880655E+01  0.90247202060E+01  0.15198442501E+02  0.19853817727E+02  0.51100000000E-03 0.  1.
         12    1    3    3    0    0  0.11455623644E+01  0.10475268090E+02  0.22263454045E+02  0.24631381218E+02  0.00000000000E+00 0. -1.
</event>
<event>
 7    1  0.7579108E-012  0.5930195E+02  0.7816164E-02  0.1266605E+00
        -11   -1    0    0    0    0  0.00000000000E+00  0.00000000000E+00  0.45593999997E+02  0.45594000000E+02  0.51100000000E-03 0. -1.
         11   -1    0    0    0    0 -0.00000000000E+00 -0.00000000000E+00 -0.45593999997E+02  0.45594000000E+02  0.51100000000E-03 0.  1.
    9900012    2    1    2    0    0 -0.22540676422E+02  0.22513405468E+02 -0.13359962497E+01  0.59301946539E+02  0.50000004580E+02 0.  0.
         12    1    1    2    0    0  0.22540676422E+02 -0.22513405468E+02  0.13359962497E+01  0.31886053461E+02  0.00000000000E+00 0. -1.
         11    1    3    3    0    0 -0.21046181882E+02  0.38189148961E+01 -0.96509467974E+01  0.23466287673E+02  0.51100000000E-03 0.  1.
        -11    1    3    3    0    0  0.76845365398E+01  0.16413729711E+02  0.15587575434E+02  0.23904709432E+02  0.51100000000E-03 0. -1.
         12    1    3    3    0    0 -0.91790310797E+01  0.22807608616E+01 -0.72726248860E+01  0.11930949434E+02  0.00000000000E+00 0. -1.
</event>
<event>
 7    1  0.7579108E-012  0.5930194E+02  0.7816164E-02  0.1266605E+00
        -11   -1    0    0    0    0  0.00000000000E+00  0.00000000000E+00  0.45593999997E+02  0.45594000000E+02  0.51100000000E-03 0.  1.
         11   -1    0    0    0    0 -0.00000000000E+00 -0.00000000000E+00 -0.45593999997E+02  0.45594000000E+02  0.51100000000E-03 0. -1.
    9900012    2    1    2    0    0  0.72687011323E+01 -0.29201700473E+02  0.10542644473E+02  0.59301942245E+02  0.49999996749E+02 0.  0.
         12    1    1    2    0    0 -0.72687011323E+01  0.29201700473E+02 -0.10542644473E+02  0.31886057755E+02  0.00000000000E+00 0. -1.
         11    1    3    3    0    0 -0.19334598491E+02 -0.41525234711E+01  0.18857385345E+01  0.19865199724E+02  0.51100000000E-03 0. -1.
        -11    1    3    3    0    0  0.11456846602E+02 -0.38088714371E+01  0.51053404375E+01  0.13108445252E+02  0.51100000000E-03 0.  1.
         12    1    3    3    0    0  0.15146453021E+02 -0.21240305565E+02  0.35515655011E+01  0.26328297269E+02  0.00000000000E+00 0. -1.
</event>
<event>
 7    1  0.7579108E-012  0.5930194E+02  0.7816164E-02  0.1266605E+00
        -11   -1    0    0    0    0  0.00000000000E+00  0.00000000000E+00  0.45593999997E+02  0.45594000000E+02  0.51100000000E-03 0.  1.
         11   -1    0    0    0    0 -0.00000000000E+00 -0.00000000000E+00 -0.45593999997E+02  0.45594000000E+02  0.51100000000E-03 0. -1.
    9900012    2    1    2    0    0 -0.18674507070E+02 -0.21869981472E+02 -0.13772714226E+02  0.59301937825E+02  0.49999988687E+02 0.  0.
         12    1    1    2    0    0  0.18674507070E+02  0.21869981472E+02  0.13772714226E+02  0.31886062175E+02  0.00000000000E+00 0. -1.
         11    1    3    3    0    0 -0.39291900526E+01 -0.13043476960E+02 -0.22573333645E+02  0.26365246401E+02  0.51100000000E-03 0. -1.
        -11    1    3    3    0    0 -0.68130218201E+01 -0.66510770984E+01  0.18142924543E+02  0.20489504731E+02  0.51100000000E-03 0.  1.
        -12    1    3    3    0    0 -0.79322951970E+01 -0.21754274137E+01 -0.93423051244E+01  0.12447186693E+02  0.00000000000E+00 0.  1.
</event>
<event>
 7    1  0.7579108E-012  0.5930193E+02  0.7816164E-02  0.1266605E+00
        -11   -1    0    0    0    0  0.00000000000E+00  0.00000000000E+00  0.45593999997E+02  0.45594000000E+02  0.51100000000E-03 0.  1.
         11   -1    0    0    0    0 -0.00000000000E+00 -0.00000000000E+00 -0.45593999997E+02  0.45594000000E+02  0.51100000000E-03 0. -1.
    9900012    2    1    2    0    0  0.12424980533E+02 -0.19495083432E+02  0.21960941021E+02  0.59301931729E+02  0.49999977570E+02 0.  0.
         12    1    1    2    0    0 -0.12424980533E+02  0.19495083432E+02 -0.21960941021E+02  0.31886068271E+02  0.00000000000E+00 0. -1.
         11    1    3    3    0    0  0.12930153513E+02 -0.14950768784E+02  0.25328401405E+02  0.32128527435E+02  0.51100000000E-03 0. -1.
        -11    1    3    3    0    0 -0.70681839366E+01  0.92213168238E+01 -0.32725886974E+00  0.11623209830E+02  0.51100000000E-03 0.  1.
         12    1    3    3    0    0  0.65630109571E+01 -0.13765631471E+02 -0.30402015151E+01  0.15550194464E+02  0.00000000000E+00 0. -1.
</event>
<event>
 7    1  0.7579108E-012  0.5930195E+02  0.7816164E-02  0.1266605E+00
        -11   -1    0    0    0    0  0.00000000000E+00  0.00000000000E+00  0.45593999997E+02  0.45594000000E+02  0.51100000000E-03 0.  1.
         11   -1    0    0    0    0 -0.00000000000E+00 -0.00000000000E+00 -0.45593999997E+02  0.45594000000E+02  0.51100000000E-03 0. -1.
    9900012    2    1    2    0    0  0.19410740245E+02 -0.21026213896E+02  0.14065613002E+02  0.59301953259E+02  0.50000016836E+02 0.  0.
         12    1    1    2    0    0 -0.19410740245E+02  0.21026213896E+02 -0.14065613002E+02  0.31886046741E+02  0.00000000000E+00 0. -1.
         11    1    3    3    0    0  0.23055148370E+01 -0.19398752652E+02 -0.71152726547E+01  0.20790721689E+02  0.51100000000E-03 0. -1.
        -11    1    3    3    0    0  0.38571810430E+01 -0.61102296659E+01  0.23273690784E+02  0.24369600635E+02  0.51100000000E-03 0.  1.
         12    1    3    3    0    0  0.13248044365E+02  0.44827684216E+01 -0.20928051273E+01  0.14141630935E+02  0.00000000000E+00 0. -1.
</event>
<event>
 7    1  0.7579108E-012  0.5930195E+02  0.7816164E-02  0.1266605E+00
        -11   -1    0    0    0    0  0.00000000000E+00  0.00000000000E+00  0.45593999997E+02  0.45594000000E+02  0.51100000000E-03 0.  1.
         11   -1    0    0    0    0 -0.00000000000E+00 -0.00000000000E+00 -0.45593999997E+02  0.45594000000E+02  0.51100000000E-03 0. -1.
    9900012    2    1    2    0    0  0.20816179588E+02  0.78407301112E+01  0.22845779466E+02  0.59301952570E+02  0.50000015579E+02 0.  0.
         12    1    1    2    0    0 -0.20816179588E+02 -0.78407301112E+01 -0.22845779466E+02  0.31886047430E+02  0.00000000000E+00 0. -1.
         11    1    3    3    0    0  0.60584149517E+01  0.12762712299E+02 -0.94256537986E+01  0.16983349691E+02  0.51100000000E-03 0. -1.
        -11    1    3    3    0    0  0.36488150784E+01 -0.11826697486E+02  0.79706136234E+01  0.14721253570E+02  0.51100000000E-03 0.  1.
         12    1    3    3    0    0  0.11108949558E+02  0.69047152980E+01  0.24300819641E+02  0.27597349308E+02  0.00000000000E+00 0. -1.
</event>
<event>
 7    1  0.7579108E-012  0.5930194E+02  0.7816164E-02  0.1266605E+00
        -11   -1    0    0    0    0  0.00000000000E+00  0.00000000000E+00  0.45593999997E+02  0.45594000000E+02  0.51100000000E-03 0.  1.
         11   -1    0    0    0    0 -0.00000000000E+00 -0.00000000000E+00 -0.45593999997E+02  0.45594000000E+02  0.51100000000E-03 0. -1.
    9900012    2    1    2    0    0  0.13147690140E+02  0.28912150757E+02 -0.28190239834E+01  0.59301935432E+02  0.49999984323E+02 0.  0.
         12    1    1    2    0    0 -0.13147690140E+02 -0.28912150757E+02  0.28190239834E+01  0.31886064568E+02  0.00000000000E+00 0. -1.
         11    1    3    3    0    0  0.27943452065E+02  0.28681580725E+02  0.41209726545E+01  0.40254838244E+02  0.51100000000E-03 0. -1.
        -11    1    3    3    0    0 -0.72159758738E+01  0.41712819361E+01 -0.50213091032E+00  0.83499722463E+01  0.51100000000E-03 0.  1.
         12    1    3    3    0    0 -0.75797860510E+01 -0.39407119039E+01 -0.64378657275E+01  0.10697124941E+02  0.00000000000E+00 0. -1.
</event>
<event>
 7    1  0.7579108E-012  0.5930192E+02  0.7816164E-02  0.1266605E+00
        -11   -1    0    0    0    0  0.00000000000E+00  0.00000000000E+00  0.45593999997E+02  0.45594000000E+02  0.51100000000E-03 0. -1.
         11   -1    0    0    0    0 -0.00000000000E+00 -0.00000000000E+00 -0.45593999997E+02  0.45594000000E+02  0.51100000000E-03 0.  1.
    9900012    2    1    2    0    0 -0.48111044786E+01  0.79107669660E+00 -0.31511104185E+02  0.59301918152E+02  0.49999952809E+02 0.  0.
         12    1    1    2    0    0  0.48111044786E+01 -0.79107669660E+00  0.31511104185E+02  0.31886081848E+02  0.00000000000E+00 0. -1.
         11    1    3    3    0    0 -0.11471683591E+02 -0.13449750400E+02 -0.29953292683E+02  0.34780670681E+02  0.51100000000E-03 0. -1.
        -11    1    3    3    0    0  0.83792172341E+01  0.74821470859E+00  0.46028821196E+01  0.95894541437E+01  0.51100000000E-03 0.  1.
         12    1    3    3    0    0 -0.17186381220E+01  0.13492612388E+02 -0.61606936218E+01  0.14931793327E+02  0.00000000000E+00 0. -1.
</event>
<event>
 7    1  0.7579108E-012  0.5930190E+02  0.7816164E-02  0.1266605E+00
        -11   -1    0    0    0    0  0.00000000000E+00  0.00000000000E+00  0.45593999997E+02  0.45594000000E+02  0.51100000000E-03 0. -1.
         11   -1    0    0    0    0 -0.00000000000E+00 -0.00000000000E+00 -0.45593999997E+02  0.45594000000E+02  0.51100000000E-03 0.  1.
    9900012    2    1    2    0    0  0.60941780152E+01 -0.12937796399E+02 -0.28499079964E+02  0.59301903654E+02  0.49999926369E+02 0.  0.
         12    1    1    2    0    0 -0.60941780152E+01  0.12937796399E+02  0.28499079964E+02  0.31886096346E+02  0.00000000000E+00 0. -1.
         11    1    3    3    0    0 -0.48776773686E+01  0.72704157198E+01 -0.31737689741E+02  0.32923116979E+02  0.51100000000E-03 0.  1.
        -11    1    3    3    0    0  0.49137073888E+01 -0.16192993340E+02  0.68586310223E+01  0.18259199691E+02  0.51100000000E-03 0. -1.
        -12    1    3    3    0    0  0.60581479949E+01 -0.40152187797E+01 -0.36200212450E+01  0.81195869840E+01  0.00000000000E+00 0.  1.
</event>
<event>
 7    1  0.7579108E-012  0.5930185E+02  0.7816164E-02  0.1266605E+00
        -11   -1    0    0    0    0  0.00000000000E+00  0.00000000000E+00  0.45593999997E+02  0.45594000000E+02  0.51100000000E-03 0.  1.
         11   -1    0    0    0    0 -0.00000000000E+00 -0.00000000000E+00 -0.45593999997E+02  0.45594000000E+02  0.51100000000E-03 0. -1.
    9900012    2    1    2    0    0 -0.32049641614E+01 -0.18860741065E+01  0.31668553677E+02  0.59301853121E+02  0.49999834207E+02 0.  0.
         12    1    1    2    0    0  0.32049641614E+01  0.18860741065E+01 -0.31668553677E+02  0.31886146879E+02  0.00000000000E+00 0. -1.
         11    1    3    3    0    0  0.26896629128E+01  0.80987097562E+01 -0.73152314912E+01  0.11239928751E+02  0.51100000000E-03 0. -1.
        -11    1    3    3    0    0 -0.96416512177E+00 -0.18312576185E+02  0.23599508335E+02  0.29886733760E+02  0.51100000000E-03 0.  1.
        -12    1    3    3    0    0 -0.49304619524E+01  0.83277923219E+01  0.15384276833E+02  0.18175190610E+02  0.00000000000E+00 0.  1.
</event>
<event>
 7    1  0.7579108E-012  0.5930193E+02  0.7816164E-02  0.1266605E+00
        -11   -1    0    0    0    0  0.00000000000E+00  0.00000000000E+00  0.45593999997E+02  0.45594000000E+02  0.51100000000E-03 0. -1.
         11   -1    0    0    0    0 -0.00000000000E+00 -0.00000000000E+00 -0.45593999997E+02  0.45594000000E+02  0.51100000000E-03 0.  1.
    9900012    2    1    2    0    0 -0.15356194351E+02  0.21115344324E+02  0.18304389893E+02  0.59301934702E+02  0.49999982992E+02 0.  0.
         12    1    1    2    0    0  0.15356194351E+02 -0.21115344324E+02 -0.18304389893E+02  0.31886065298E+02  0.00000000000E+00 0. -1.
         11    1    3    3    0    0 -0.68573700566E-01  0.22363808107E+02 -0.90555379506E+01  0.24127730586E+02  0.51100000000E-03 0. -1.
        -11    1    3    3    0    0 -0.82931243285E+01  0.12428610256E+01  0.18254652360E+01  0.85821290043E+01  0.51100000000E-03 0.  1.
         12    1    3    3    0    0 -0.69944963222E+01 -0.24913248086E+01  0.25534462607E+02  0.26592075112E+02  0.00000000000E+00 0. -1.
</event>
<event>
 7    1  0.7579108E-012  0.5930190E+02  0.7816164E-02  0.1266605E+00
        -11   -1    0    0    0    0  0.00000000000E+00  0.00000000000E+00  0.45593999997E+02  0.45594000000E+02  0.51100000000E-03 0. -1.
         11   -1    0    0    0    0 -0.00000000000E+00 -0.00000000000E+00 -0.45593999997E+02  0.45594000000E+02  0.51100000000E-03 0.  1.
    9900012    2    1    2    0    0  0.44545490127E+01 -0.13302112200E+02 -0.28634495313E+02  0.59301897734E+02  0.49999915571E+02 0.  0.
         12    1    1    2    0    0 -0.44545490127E+01  0.13302112200E+02  0.28634495313E+02  0.31886102266E+02  0.00000000000E+00 0. -1.
         11    1    3    3    0    0  0.12969670690E+02  0.32270736016E+01  0.19314252575E+01  0.13503953703E+02  0.51100000000E-03 0. -1.
        -11    1    3    3    0    0 -0.66883141602E+01 -0.19383917263E+02 -0.65238219459E+01  0.21518133000E+02  0.51100000000E-03 0.  1.
        -12    1    3    3    0    0 -0.18268075168E+01  0.28547314612E+01 -0.24042098625E+02  0.24279811031E+02  0.00000000000E+00 0.  1.
</event>
<event>
 7    1  0.7579108E-012  0.5930197E+02  0.7816164E-02  0.1266605E+00
        -11   -1    0    0    0    0  0.00000000000E+00  0.00000000000E+00  0.45593999997E+02  0.45594000000E+02  0.51100000000E-03 0.  1.
         11   -1    0    0    0    0 -0.00000000000E+00 -0.00000000000E+00 -0.45593999997E+02  0.45594000000E+02  0.51100000000E-03 0. -1.
    9900012    2    1    2    0    0  0.24831010354E+02 -0.15909188053E+02  0.12125915144E+02  0.59301966102E+02  0.50000040258E+02 0.  0.
         12    1    1    2    0    0 -0.24831010354E+02  0.15909188053E+02 -0.12125915144E+02  0.31886033898E+02  0.00000000000E+00 0. -1.
         11    1    3    3    0    0  0.23354104950E+01  0.10240470732E+02 -0.78966799880E+01  0.13140735827E+02  0.51100000000E-03 0. -1.
        -11    1    3    3    0    0  0.16771411694E+02 -0.50024616359E+01  0.16343794956E+02  0.23946283772E+02  0.51100000000E-03 0.  1.
         12    1    3    3    0    0  0.57241881643E+01 -0.21147197149E+02  0.36788001756E+01  0.22214946503E+02  0.00000000000E+00 0. -1.
</event>
<event>
 7    1  0.7579108E-012  0.5930195E+02  0.7816164E-02  0.1266605E+00
        -11   -1    0    0    0    0  0.00000000000E+00  0.00000000000E+00  0.45593999997E+02  0.45594000000E+02  0.51100000000E-03 0. -1.
         11   -1    0    0    0    0 -0.00000000000E+00 -0.00000000000E+00 -0.45593999997E+02  0.45594000000E+02  0.51100000000E-03 0.  1.
    9900012    2    1    2    0    0 -0.25068393064E+02  0.17946521602E+02  0.81374393521E+01  0.59301954657E+02  0.50000019385E+02 0.  0.
         12    1    1    2    0    0  0.25068393064E+02 -0.17946521602E+02 -0.81374393521E+01  0.31886045343E+02  0.00000000000E+00 0. -1.
         11    1    3    3    0    0 -0.72494918962E+01  0.92609553471E+01  0.15908679069E+02  0.19783995973E+02  0.51100000000E-03 0. -1.
        -11    1    3    3    0    0 -0.11358482631E+02  0.18603559674E+02 -0.14233084788E+02  0.26032446352E+02  0.51100000000E-03 0.  1.
        -12    1    3    3    0    0 -0.64604185370E+01 -0.99179934191E+01  0.64618450708E+01  0.13485512332E+02  0.00000000000E+00 0.  1.
</event>
<event>
 7    1  0.7579108E-012  0.5930229E+02  0.7816164E-02  0.1266604E+00
        -11   -1    0    0    0    0  0.00000000000E+00  0.00000000000E+00  0.45593999997E+02  0.45594000000E+02  0.51100000000E-03 0. -1.
         11   -1    0    0    0    0 -0.00000000000E+00 -0.00000000000E+00 -0.45593999997E+02  0.45594000000E+02  0.51100000000E-03 0.  1.
    9900012    2    1    2    0    0  0.10760102620E+02 -0.32382778503E+01 -0.29840110062E+02  0.59302291284E+02  0.50000633308E+02 0.  0.
         12    1    1    2    0    0 -0.10760102620E+02  0.32382778503E+01  0.29840110062E+02  0.31885708716E+02  0.00000000000E+00 0. -1.
         11    1    3    3    0    0  0.33910057527E+01 -0.21843255259E+02 -0.16814633522E+02  0.27773343714E+02  0.51100000000E-03 0. -1.
        -11    1    3    3    0    0  0.49849060872E+01  0.86071590323E+01  0.47294474378E+01  0.11013634669E+02  0.51100000000E-03 0.  1.
         12    1    3    3    0    0  0.23841907796E+01  0.99978183763E+01 -0.17754923978E+02  0.20515312901E+02  0.00000000000E+00 0. -1.
</event>
<event>
 7    1  0.7579108E-012  0.5930195E+02  0.7816164E-02  0.1266605E+00
        -11   -1    0    0    0    0  0.00000000000E+00  0.00000000000E+00  0.45593999997E+02  0.45594000000E+02  0.51100000000E-03 0. -1.
         11   -1    0    0    0    0 -0.00000000000E+00 -0.00000000000E+00 -0.45593999997E+02  0.45594000000E+02  0.51100000000E-03 0.  1.
    9900012    2    1    2    0    0 -0.26912761822E+02  0.16934537891E+02  0.23758652316E+01  0.59301951984E+02  0.50000014510E+02 0.  0.
         12    1    1    2    0    0  0.26912761822E+02 -0.16934537891E+02 -0.23758652316E+01  0.31886048016E+02  0.00000000000E+00 0. -1.
         11    1    3    3    0    0  0.11026182757E+02  0.61379274442E+01 -0.40827065757E+01  0.13263459306E+02  0.51100000000E-03 0.  1.
        -11    1    3    3    0    0 -0.33385319927E+02  0.17330825920E+02  0.51232514021E+01  0.37962940071E+02  0.51100000000E-03 0. -1.
         12    1    3    3    0    0 -0.45536246530E+01 -0.65342154728E+01  0.13353204052E+01  0.80755526071E+01  0.00000000000E+00 0. -1.
</event>
<event>
 7    1  0.7579108E-012  0.5930197E+02  0.7816164E-02  0.1266605E+00
        -11   -1    0    0    0    0  0.00000000000E+00  0.00000000000E+00  0.45593999997E+02  0.45594000000E+02  0.51100000000E-03 0.  1.
         11   -1    0    0    0    0 -0.00000000000E+00 -0.00000000000E+00 -0.45593999997E+02  0.45594000000E+02  0.51100000000E-03 0. -1.
    9900012    2    1    2    0    0  0.14835943756E+02  0.30487669025E+01  0.28059203541E+02  0.59301966849E+02  0.50000041621E+02 0.  0.
         12    1    1    2    0    0 -0.14835943756E+02 -0.30487669025E+01 -0.28059203541E+02  0.31886033151E+02  0.00000000000E+00 0. -1.
         11    1    3    3    0    0  0.11705210028E+02 -0.83880935820E-01 -0.12608313567E+02  0.17204317745E+02  0.51100000000E-03 0. -1.
        -11    1    3    3    0    0 -0.15021307832E+01 -0.28251794641E+01  0.93025614164E+01  0.98374633449E+01  0.51100000000E-03 0.  1.
         12    1    3    3    0    0  0.46328645116E+01  0.59578273024E+01  0.31364955691E+02  0.32260185759E+02  0.00000000000E+00 0. -1.
</event>
<event>
 7    1  0.7579108E-012  0.5930187E+02  0.7816164E-02  0.1266605E+00
        -11   -1    0    0    0    0  0.00000000000E+00  0.00000000000E+00  0.45593999997E+02  0.45594000000E+02  0.51100000000E-03 0.  1.
         11   -1    0    0    0    0 -0.00000000000E+00 -0.00000000000E+00 -0.45593999997E+02  0.45594000000E+02  0.51100000000E-03 0. -1.
    9900012    2    1    2    0    0  0.15450402685E+02  0.10640167207E+02  0.25783657585E+02  0.59301872926E+02  0.49999870328E+02 0.  0.
         12    1    1    2    0    0 -0.15450402685E+02 -0.10640167207E+02 -0.25783657585E+02  0.31886127074E+02  0.00000000000E+00 0. -1.
         11    1    3    3    0    0  0.97641199184E+01  0.19002655194E+02 -0.38120537894E+01  0.21701859288E+02  0.51100000000E-03 0. -1.
        -11    1    3    3    0    0  0.12699797294E+02 -0.67074133534E+01  0.25617014962E+02  0.29368447371E+02  0.51100000000E-03 0.  1.
         12    1    3    3    0    0 -0.70135145278E+01 -0.16550746331E+01  0.39786964125E+01  0.82315662674E+01  0.00000000000E+00 0. -1.
</event>
<event>
 7    1  0.7579108E-012  0.5930195E+02  0.7816164E-02  0.1266605E+00
        -11   -1    0    0    0    0  0.00000000000E+00  0.00000000000E+00  0.45593999997E+02  0.45594000000E+02  0.51100000000E-03 0.  1.
         11   -1    0    0    0    0 -0.00000000000E+00 -0.00000000000E+00 -0.45593999997E+02  0.45594000000E+02  0.51100000000E-03 0. -1.
    9900012    2    1    2    0    0  0.23742351373E+02 -0.16585617556E+02  0.13339345098E+02  0.59301951545E+02  0.50000013710E+02 0.  0.
         12    1    1    2    0    0 -0.23742351373E+02  0.16585617556E+02 -0.13339345098E+02  0.31886048455E+02  0.00000000000E+00 0. -1.
         11    1    3    3    0    0  0.13973563885E+02  0.15803982701E+02  0.68059033530E+01  0.22166341096E+02  0.51100000000E-03 0. -1.
        -11    1    3    3    0    0 -0.15421797603E+01 -0.14781655714E+02 -0.99403818197E+00  0.14895092353E+02  0.51100000000E-03 0.  1.
         12    1    3    3    0    0  0.11310967248E+02 -0.17607944543E+02  0.75274799274E+01  0.22240518096E+02  0.00000000000E+00 0. -1.
</event>
<event>
 7    1  0.7579108E-012  0.5930195E+02  0.7816164E-02  0.1266605E+00
        -11   -1    0    0    0    0  0.00000000000E+00  0.00000000000E+00  0.45593999997E+02  0.45594000000E+02  0.51100000000E-03 0.  1.
         11   -1    0    0    0    0 -0.00000000000E+00 -0.00000000000E+00 -0.45593999997E+02  0.45594000000E+02  0.51100000000E-03 0. -1.
    9900012    2    1    2    0    0  0.17367814401E+02  0.11556839205E+02  0.24114693866E+02  0.59301953369E+02  0.50000017036E+02 0.  0.
         12    1    1    2    0    0 -0.17367814401E+02 -0.11556839205E+02 -0.24114693866E+02  0.31886046631E+02  0.00000000000E+00 0. -1.
         11    1    3    3    0    0  0.15921014845E+02 -0.42982633097E+01 -0.11024550096E+02  0.19836695447E+02  0.51100000000E-03 0.  1.
        -11    1    3    3    0    0  0.47357011314E+00  0.52131146308E+01  0.21554624427E+02  0.22181133137E+02  0.51100000000E-03 0. -1.
         12    1    3    3    0    0  0.97322944318E+00  0.10641987884E+02  0.13584619535E+02  0.17284124785E+02  0.00000000000E+00 0. -1.
</event>
<event>
 7    1  0.7579108E-012  0.5930193E+02  0.7816164E-02  0.1266605E+00
        -11   -1    0    0    0    0  0.00000000000E+00  0.00000000000E+00  0.45593999997E+02  0.45594000000E+02  0.51100000000E-03 0.  1.
         11   -1    0    0    0    0 -0.00000000000E+00 -0.00000000000E+00 -0.45593999997E+02  0.45594000000E+02  0.51100000000E-03 0. -1.
    9900012    2    1    2    0    0 -0.66340025722E+01 -0.30566723003E+02  0.61957042415E+01  0.59301932567E+02  0.49999979099E+02 0.  0.
         12    1    1    2    0    0  0.66340025722E+01  0.30566723003E+02 -0.61957042415E+01  0.31886067433E+02  0.00000000000E+00 0. -1.
         11    1    3    3    0    0  0.48149387601E+01 -0.15925490504E+02  0.24442149141E+02  0.29567271398E+02  0.51100000000E-03 0. -1.
        -11    1    3    3    0    0 -0.47613136034E+01 -0.15940228230E+02 -0.13609758386E+02  0.21493871379E+02  0.51100000000E-03 0.  1.
         12    1    3    3    0    0 -0.66876277289E+01  0.12989957315E+01 -0.46366865127E+01  0.82407897903E+01  0.00000000000E+00 0. -1.
</event>
<event>
 7    1  0.7579108E-012  0.5930201E+02  0.7816164E-02  0.1266605E+00
        -11   -1    0    0    0    0  0.00000000000E+00  0.00000000000E+00  0.45593999997E+02  0.45594000000E+02  0.51100000000E-03 0.  1.
         11   -1    0    0    0    0 -0.00000000000E+00 -0.00000000000E+00 -0.45593999997E+02  0.45594000000E+02  0.51100000000E-03 0. -1.
    9900012    2    1    2    0    0  0.11468414450E+02  0.26210779047E+02  0.14077889678E+02  0.59302008624E+02  0.50000117808E+02 0.  0.
         12    1    1    2    0    0 -0.11468414450E+02 -0.26210779047E+02 -0.14077889678E+02  0.31885991376E+02  0.00000000000E+00 0. -1.
         11    1    3    3    0    0  0.17204808760E+02  0.16205326822E+02 -0.92563470016E+01  0.25383026257E+02  0.51100000000E-03 0. -1.
        -11    1    3    3    0    0 -0.12699259840E+02  0.28173916467E+01  0.18969436503E+02  0.23001052534E+02  0.51100000000E-03 0.  1.
        -12    1    3    3    0    0  0.69628655296E+01  0.71880605776E+01  0.43648001774E+01  0.10917929833E+02  0.00000000000E+00 0.  1.
</event>
<event>
 7    1  0.7579108E-012  0.5930193E+02  0.7816164E-02  0.1266605E+00
        -11   -1    0    0    0    0  0.00000000000E+00  0.00000000000E+00  0.45593999997E+02  0.45594000000E+02  0.51100000000E-03 0.  1.
         11   -1    0    0    0    0 -0.00000000000E+00 -0.00000000000E+00 -0.45593999997E+02  0.45594000000E+02  0.51100000000E-03 0. -1.
    9900012    2    1    2    0    0  0.28437332935E+01  0.98331710682E+01  0.30198395398E+02  0.59301934753E+02  0.49999983085E+02 0.  0.
         12    1    1    2    0    0 -0.28437332935E+01 -0.98331710682E+01 -0.30198395398E+02  0.31886065247E+02  0.00000000000E+00 0. -1.
         11    1    3    3    0    0  0.11669034546E+02 -0.15575936582E+02  0.16039669967E+02  0.25219975824E+02  0.51100000000E-03 0. -1.
        -11    1    3    3    0    0 -0.24497735308E+01  0.34716031887E+01  0.99947590851E+01  0.10860415668E+02  0.51100000000E-03 0.  1.
         12    1    3    3    0    0 -0.63755277220E+01  0.21937504461E+02  0.41639663460E+01  0.23221543261E+02  0.00000000000E+00 0. -1.
</event>
<event>
 7    1  0.7579108E-012  0.5930195E+02  0.7816164E-02  0.1266605E+00
        -11   -1    0    0    0    0  0.00000000000E+00  0.00000000000E+00  0.45593999997E+02  0.45594000000E+02  0.51100000000E-03 0.  1.
         11   -1    0    0    0    0 -0.00000000000E+00 -0.00000000000E+00 -0.45593999997E+02  0.45594000000E+02  0.51100000000E-03 0. -1.
    9900012    2    1    2    0    0  0.40712615872E+01  0.29793934142E+02  0.10605032959E+02  0.59301946518E+02  0.50000004542E+02 0.  0.
         12    1    1    2    0    0 -0.40712615872E+01 -0.29793934142E+02 -0.10605032959E+02  0.31886053482E+02  0.00000000000E+00 0. -1.
         11    1    3    3    0    0 -0.19759310054E+02  0.21166617390E+02  0.15546583016E+02  0.32865670072E+02  0.51100000000E-03 0.  1.
        -11    1    3    3    0    0  0.10433398401E+02  0.10397515871E+01 -0.30765857246E+01  0.10927134370E+02  0.51100000000E-03 0. -1.
        -12    1    3    3    0    0  0.13397173241E+02  0.75875651651E+01 -0.18649643329E+01  0.15509142076E+02  0.00000000000E+00 0.  1.
</event>
<event>
 7    1  0.7579108E-012  0.5930197E+02  0.7816164E-02  0.1266605E+00
        -11   -1    0    0    0    0  0.00000000000E+00  0.00000000000E+00  0.45593999997E+02  0.45594000000E+02  0.51100000000E-03 0. -1.
         11   -1    0    0    0    0 -0.00000000000E+00 -0.00000000000E+00 -0.45593999997E+02  0.45594000000E+02  0.51100000000E-03 0.  1.
    9900012    2    1    2    0    0 -0.10552057353E+02  0.25522580460E+01 -0.29980975684E+02  0.59301971109E+02  0.50000049389E+02 0.  0.
         12    1    1    2    0    0  0.10552057353E+02 -0.25522580460E+01  0.29980975684E+02  0.31886028891E+02  0.00000000000E+00 0. -1.
         11    1    3    3    0    0 -0.23408785328E+02 -0.44130893691E+01 -0.40388803816E+00  0.23824561153E+02  0.51100000000E-03 0. -1.
        -11    1    3    3    0    0  0.12080290654E+02  0.21326233399E+01 -0.11735375506E+02  0.16976470279E+02  0.51100000000E-03 0.  1.
         12    1    3    3    0    0  0.77643732136E+00  0.48327240752E+01 -0.17841712139E+02  0.18500939678E+02  0.00000000000E+00 0. -1.
</event>
<event>
 7    1  0.7579108E-012  0.5930195E+02  0.7816164E-02  0.1266605E+00
        -11   -1    0    0    0    0  0.00000000000E+00  0.00000000000E+00  0.45593999997E+02  0.45594000000E+02  0.51100000000E-03 0. -1.
         11   -1    0    0    0    0 -0.00000000000E+00 -0.00000000000E+00 -0.45593999997E+02  0.45594000000E+02  0.51100000000E-03 0.  1.
    9900012    2    1    2    0    0  0.42481831210E+01  0.16574714211E+02 -0.26906359691E+02  0.59301946578E+02  0.50000004651E+02 0.  0.
         12    1    1    2    0    0 -0.42481831210E+01 -0.16574714211E+02  0.26906359691E+02  0.31886053422E+02  0.00000000000E+00 0. -1.
         11    1    3    3    0    0 -0.11405061866E+01  0.10637419335E+02  0.92116439607E+01  0.14117713313E+02  0.51100000000E-03 0. -1.
        -11    1    3    3    0    0  0.75185883948E+01  0.15502813458E+01 -0.38845376930E+02  0.39596664668E+02  0.51100000000E-03 0.  1.
        -12    1    3    3    0    0 -0.21298990872E+01  0.43870135294E+01  0.27273732780E+01  0.55875685971E+01  0.00000000000E+00 0.  1.
</event>
<event>
 7    1  0.7579108E-012  0.5930195E+02  0.7816164E-02  0.1266605E+00
        -11   -1    0    0    0    0  0.00000000000E+00  0.00000000000E+00  0.45593999997E+02  0.45594000000E+02  0.51100000000E-03 0. -1.
         11   -1    0    0    0    0 -0.00000000000E+00 -0.00000000000E+00 -0.45593999997E+02  0.45594000000E+02  0.51100000000E-03 0.  1.
    9900012    2    1    2    0    0 -0.39010650720E+01 -0.13431832298E+02 -0.28654628882E+02  0.59301950011E+02  0.50000010912E+02 0.  0.
         12    1    1    2    0    0  0.39010650720E+01  0.13431832298E+02  0.28654628882E+02  0.31886049989E+02  0.00000000000E+00 0. -1.
         11    1    3    3    0    0 -0.18993668110E+02 -0.10068898685E+01  0.27661448932E+01  0.19220426980E+02  0.51100000000E-03 0. -1.
        -11    1    3    3    0    0  0.62740844371E+01  0.14425152791E+01 -0.17141928605E+02  0.18310944880E+02  0.51100000000E-03 0.  1.
         12    1    3    3    0    0  0.88185186007E+01 -0.13867457708E+02 -0.14278845170E+02  0.21770578150E+02  0.00000000000E+00 0. -1.
</event>
<event>
 7    1  0.7579108E-012  0.5930191E+02  0.7816164E-02  0.1266605E+00
        -11   -1    0    0    0    0  0.00000000000E+00  0.00000000000E+00  0.45593999997E+02  0.45594000000E+02  0.51100000000E-03 0. -1.
         11   -1    0    0    0    0 -0.00000000000E+00 -0.00000000000E+00 -0.45593999997E+02  0.45594000000E+02  0.51100000000E-03 0.  1.
    9900012    2    1    2    0    0 -0.98287265385E+01 -0.11418141057E+02 -0.28102398235E+02  0.59301912169E+02  0.49999941898E+02 0.  0.
         12    1    1    2    0    0  0.98287265385E+01  0.11418141057E+02  0.28102398235E+02  0.31886087831E+02  0.00000000000E+00 0. -1.
         11    1    3    3    0    0  0.10068584476E+02  0.18780271407E+01  0.48983450756E+01  0.11353288688E+02  0.51100000000E-03 0. -1.
        -11    1    3    3    0    0 -0.53125001829E+01 -0.12187012842E+01 -0.27774704831E+02  0.28304454061E+02  0.51100000000E-03 0.  1.
         12    1    3    3    0    0 -0.14584810831E+02 -0.12077466913E+02 -0.52260384803E+01  0.19644169421E+02  0.00000000000E+00 0. -1.
</event>
<event>
 7    1  0.7579108E-012  0.5930196E+02  0.7816164E-02  0.1266605E+00
        -11   -1    0    0    0    0  0.00000000000E+00  0.00000000000E+00  0.45593999997E+02  0.45594000000E+02  0.51100000000E-03 0.  1.
         11   -1    0    0    0    0 -0.00000000000E+00 -0.00000000000E+00 -0.45593999997E+02  0.45594000000E+02  0.51100000000E-03 0. -1.
    9900012    2    1    2    0    0  0.11212474249E+02  0.29514512694E+02  0.44602268363E+01  0.59301958198E+02  0.50000025844E+02 0.  0.
         12    1    1    2    0    0 -0.11212474249E+02 -0.29514512694E+02 -0.44602268363E+01  0.31886041802E+02  0.00000000000E+00 0. -1.
         11    1    3    3    0    0  0.22223844855E+01 -0.12730353748E+01  0.88601604132E+01  0.92229092306E+01  0.51100000000E-03 0. -1.
        -11    1    3    3    0    0  0.12447898080E+02  0.26939914334E+02 -0.18560694843E+02  0.35002979077E+02  0.51100000000E-03 0.  1.
        -12    1    3    3    0    0 -0.34578083162E+01  0.38476337347E+01  0.14160761266E+02  0.15076069891E+02  0.00000000000E+00 0.  1.
</event>
<event>
 7    1  0.7579108E-012  0.5930193E+02  0.7816164E-02  0.1266605E+00
        -11   -1    0    0    0    0  0.00000000000E+00  0.00000000000E+00  0.45593999997E+02  0.45594000000E+02  0.51100000000E-03 0.  1.
         11   -1    0    0    0    0 -0.00000000000E+00 -0.00000000000E+00 -0.45593999997E+02  0.45594000000E+02  0.51100000000E-03 0. -1.
    9900012    2    1    2    0    0  0.11273476179E+02 -0.27027562305E+02  0.12615108213E+02  0.59301931811E+02  0.49999977720E+02 0.  0.
         12    1    1    2    0    0 -0.11273476179E+02  0.27027562305E+02 -0.12615108213E+02  0.31886068189E+02  0.00000000000E+00 0. -1.
         11    1    3    3    0    0  0.14929657029E+01 -0.19411015828E+02  0.11434100093E+01  0.19501893979E+02  0.51100000000E-03 0. -1.
        -11    1    3    3    0    0  0.15011768558E+01  0.59700506722E+01  0.20570333947E+02  0.21471694762E+02  0.51100000000E-03 0.  1.
        -12    1    3    3    0    0  0.82793336205E+01 -0.13586597150E+02 -0.90986357440E+01  0.18328343071E+02  0.00000000000E+00 0.  1.
</event>
<event>
 7    1  0.7579108E-012  0.5930197E+02  0.7816164E-02  0.1266605E+00
        -11   -1    0    0    0    0  0.00000000000E+00  0.00000000000E+00  0.45593999997E+02  0.45594000000E+02  0.51100000000E-03 0.  1.
         11   -1    0    0    0    0 -0.00000000000E+00 -0.00000000000E+00 -0.45593999997E+02  0.45594000000E+02  0.51100000000E-03 0. -1.
    9900012    2    1    2    0    0 -0.31125819545E+02  0.27466831220E+01  0.63528029305E+01  0.59301968331E+02  0.50000044324E+02 0.  0.
         12    1    1    2    0    0  0.31125819545E+02 -0.27466831220E+01 -0.63528029305E+01  0.31886031669E+02  0.00000000000E+00 0. -1.
         11    1    3    3    0    0 -0.28995607463E+02  0.76030739260E+01  0.13565986425E+02  0.32902704649E+02  0.51100000000E-03 0.  1.
        -11    1    3    3    0    0 -0.71275706223E+01 -0.47964298851E+01 -0.14918322834E+02  0.17215236248E+02  0.51100000000E-03 0. -1.
         12    1    3    3    0    0  0.49973585405E+01 -0.59960918908E-01  0.77051393392E+01  0.91840274352E+01  0.00000000000E+00 0. -1.
</event>
<event>
 7    1  0.7579108E-012  0.5930195E+02  0.7816164E-02  0.1266605E+00
        -11   -1    0    0    0    0  0.00000000000E+00  0.00000000000E+00  0.45593999997E+02  0.45594000000E+02  0.51100000000E-03 0.  1.
         11   -1    0    0    0    0 -0.00000000000E+00 -0.00000000000E+00 -0.45593999997E+02  0.45594000000E+02  0.51100000000E-03 0. -1.
    9900012    2    1    2    0    0 -0.16679332240E+02 -0.27062199038E+02  0.24813855428E+01  0.59301952660E+02  0.50000015743E+02 0.  0.
         12    1    1    2    0    0  0.16679332240E+02  0.27062199038E+02 -0.24813855428E+01  0.31886047340E+02  0.00000000000E+00 0. -1.
         11    1    3    3    0    0  0.68660158968E+00 -0.90660696965E+01 -0.32116348156E+01  0.96425950830E+01  0.51100000000E-03 0. -1.
        -11    1    3    3    0    0 -0.18533712849E+02  0.45402918297E+01 -0.10597546005E+02  0.21827064472E+02  0.51100000000E-03 0.  1.
        -12    1    3    3    0    0  0.11677790193E+01 -0.22536421172E+02  0.16290566363E+02  0.27832293105E+02  0.00000000000E+00 0.  1.
</event>
<event>
 7    1  0.7579108E-012  0.5930206E+02  0.7816164E-02  0.1266604E+00
        -11   -1    0    0    0    0  0.00000000000E+00  0.00000000000E+00  0.45593999997E+02  0.45594000000E+02  0.51100000000E-03 0. -1.
         11   -1    0    0    0    0 -0.00000000000E+00 -0.00000000000E+00 -0.45593999997E+02  0.45594000000E+02  0.51100000000E-03 0.  1.
    9900012    2    1    2    0    0 -0.53424262313E+01 -0.13698041286E+02 -0.28293730070E+02  0.59302062435E+02  0.50000215945E+02 0.  0.
         12    1    1    2    0    0  0.53424262313E+01  0.13698041286E+02  0.28293730070E+02  0.31885937565E+02  0.00000000000E+00 0. -1.
         11    1    3    3    0    0  0.84620870374E+01 -0.70285865372E+01 -0.72920214925E+01  0.13197784793E+02  0.51100000000E-03 0. -1.
        -11    1    3    3    0    0 -0.22686670377E+02 -0.13925465402E+02 -0.22079172802E+02  0.34584584302E+02  0.51100000000E-03 0.  1.
        -12    1    3    3    0    0  0.88821571079E+01  0.72560106532E+01  0.10774642239E+01  0.11519693340E+02  0.00000000000E+00 0.  1.
</event>
<event>
 7    1  0.7579108E-012  0.5930195E+02  0.7816164E-02  0.1266605E+00
        -11   -1    0    0    0    0  0.00000000000E+00  0.00000000000E+00  0.45593999997E+02  0.45594000000E+02  0.51100000000E-03 0. -1.
         11   -1    0    0    0    0 -0.00000000000E+00 -0.00000000000E+00 -0.45593999997E+02  0.45594000000E+02  0.51100000000E-03 0.  1.
    9900012    2    1    2    0    0 -0.14826640863E+02  0.26419884853E+02 -0.99438749147E+01  0.59301949081E+02  0.50000009215E+02 0.  0.
         12    1    1    2    0    0  0.14826640863E+02 -0.26419884853E+02  0.99438749147E+01  0.31886050919E+02  0.00000000000E+00 0. -1.
         11    1    3    3    0    0 -0.72040299722E+01  0.30189239524E+01 -0.19498104505E+02  0.21004476409E+02  0.51100000000E-03 0. -1.
        -11    1    3    3    0    0 -0.17110929161E+01  0.23552920916E+02  0.16773218837E+02  0.28965648501E+02  0.51100000000E-03 0.  1.
        -12    1    3    3    0    0 -0.59115179747E+01 -0.15196001569E+00 -0.72189892470E+01  0.93318241711E+01  0.00000000000E+00 0.  1.
</event>
<event>
 7    1  0.7579108E-012  0.5930195E+02  0.7816164E-02  0.1266605E+00
        -11   -1    0    0    0    0  0.00000000000E+00  0.00000000000E+00  0.45593999997E+02  0.45594000000E+02  0.51100000000E-03 0.  1.
         11   -1    0    0    0    0 -0.00000000000E+00 -0.00000000000E+00 -0.45593999997E+02  0.45594000000E+02  0.51100000000E-03 0. -1.
    9900012    2    1    2    0    0  0.96837281781E+01 -0.70419975484E+01  0.29552596646E+02  0.59301948357E+02  0.50000007895E+02 0.  0.
         12    1    1    2    0    0 -0.96837281781E+01  0.70419975484E+01 -0.29552596646E+02  0.31886051643E+02  0.00000000000E+00 0. -1.
         11    1    3    3    0    0 -0.66875749731E+01  0.15602230280E+02  0.25006202430E+02  0.30223557185E+02  0.51100000000E-03 0. -1.
        -11    1    3    3    0    0  0.91050054024E+01 -0.85978834158E+01  0.43679505818E+01  0.13262869793E+02  0.51100000000E-03 0.  1.
         12    1    3    3    0    0  0.72662977488E+01 -0.14046344412E+02  0.17844363437E+00  0.15815521378E+02  0.00000000000E+00 0. -1.
</event>
<event>
 7    1  0.7579108E-012  0.5930192E+02  0.7816164E-02  0.1266605E+00
        -11   -1    0    0    0    0  0.00000000000E+00  0.00000000000E+00  0.45593999997E+02  0.45594000000E+02  0.51100000000E-03 0.  1.
         11   -1    0    0    0    0 -0.00000000000E+00 -0.00000000000E+00 -0.45593999997E+02  0.45594000000E+02  0.51100000000E-03 0. -1.
    9900012    2    1    2    0    0  0.26685084371E+02 -0.83547072856E-01  0.17453405075E+02  0.59301920644E+02  0.49999957354E+02 0.  0.
         12    1    1    2    0    0 -0.26685084371E+02  0.83547072856E-01 -0.17453405075E+02  0.31886079356E+02  0.00000000000E+00 0. -1.
         11    1    3    3    0    0  0.12675919465E+02 -0.18262655577E+01 -0.30733964547E+01  0.13170419363E+02  0.51100000000E-03 0. -1.
        -11    1    3    3    0    0 -0.46776263976E+01 -0.84313796726E+01  0.22779060097E+02  0.24735681334E+02  0.51100000000E-03 0.  1.
        -12    1    3    3    0    0  0.18686791303E+02  0.10174098157E+02 -0.22522585680E+01  0.21395819947E+02  0.00000000000E+00 0.  1.
</event>
<event>
 7    1  0.7579108E-012  0.5930187E+02  0.7816164E-02  0.1266605E+00
        -11   -1    0    0    0    0  0.00000000000E+00  0.00000000000E+00  0.45593999997E+02  0.45594000000E+02  0.51100000000E-03 0.  1.
         11   -1    0    0    0    0 -0.00000000000E+00 -0.00000000000E+00 -0.45593999997E+02  0.45594000000E+02  0.51100000000E-03 0. -1.
    9900012    2    1    2    0    0  0.88787872161E+01 -0.10869274869E+02  0.28631297585E+02  0.59301871354E+02  0.49999867461E+02 0.  0.
         12    1    1    2    0    0 -0.88787872161E+01  0.10869274869E+02 -0.28631297585E+02  0.31886128646E+02  0.00000000000E+00 0. -1.
         11    1    3    3    0    0  0.48389201758E+01  0.15690420759E+02 -0.49442702268E+00  0.16427078572E+02  0.51100000000E-03 0. -1.
        -11    1    3    3    0    0 -0.33467518742E+01 -0.22794029751E+02  0.19615141022E+02  0.30257599011E+02  0.51100000000E-03 0.  1.
         12    1    3    3    0    0  0.73866189144E+01 -0.37656658777E+01  0.95105835863E+01  0.12617193770E+02  0.00000000000E+00 0. -1.
</event>
<event>
 7    1  0.7579108E-012  0.5930196E+02  0.7816164E-02  0.1266605E+00
        -11   -1    0    0    0    0  0.00000000000E+00  0.00000000000E+00  0.45593999997E+02  0.45594000000E+02  0.51100000000E-03 0. -1.
         11   -1    0    0    0    0 -0.00000000000E+00 -0.00000000000E+00 -0.45593999997E+02  0.45594000000E+02  0.51100000000E-03 0.  1.
    9900012    2    1    2    0    0  0.14278515680E+02  0.15398328802E+02 -0.23994482001E+02  0.59301957498E+02  0.50000024566E+02 0.  0.
         12    1    1    2    0    0 -0.14278515680E+02 -0.15398328802E+02  0.23994482001E+02  0.31886042502E+02  0.00000000000E+00 0. -1.
         11    1    3    3    0    0  0.91494071518E+01 -0.12634929264E+02 -0.84287394234E+01  0.17731236202E+02  0.51100000000E-03 0. -1.
        -11    1    3    3    0    0  0.11095433548E+02  0.13741614980E+02 -0.18751259923E+02  0.25759471595E+02  0.51100000000E-03 0.  1.
         12    1    3    3    0    0 -0.59663250193E+01  0.14291643086E+02  0.31855173456E+01  0.15811249701E+02  0.00000000000E+00 0. -1.
</event>
<event>
 7    1  0.7579108E-012  0.5930193E+02  0.7816164E-02  0.1266605E+00
        -11   -1    0    0    0    0  0.00000000000E+00  0.00000000000E+00  0.45593999997E+02  0.45594000000E+02  0.51100000000E-03 0.  1.
         11   -1    0    0    0    0 -0.00000000000E+00 -0.00000000000E+00 -0.45593999997E+02  0.45594000000E+02  0.51100000000E-03 0. -1.
    9900012    2    1    2    0    0 -0.27024605135E+02 -0.89572999852E+01  0.14358231796E+02  0.59301932101E+02  0.49999978249E+02 0.  0.
         12    1    1    2    0    0  0.27024605135E+02  0.89572999852E+01 -0.14358231796E+02  0.31886067899E+02  0.00000000000E+00 0. -1.
         11    1    3    3    0    0 -0.16896746554E+02 -0.23631706575E+02 -0.76950030971E+01  0.30052798084E+02  0.51100000000E-03 0. -1.
        -11    1    3    3    0    0 -0.10606492353E+02  0.11598439623E+02  0.15920171397E+02  0.22371261460E+02  0.51100000000E-03 0.  1.
         12    1    3    3    0    0  0.47863377217E+00  0.30759669667E+01  0.61330634957E+01  0.68778725570E+01  0.00000000000E+00 0. -1.
</event>
<event>
 7    1  0.7579108E-012  0.5930196E+02  0.7816164E-02  0.1266605E+00
        -11   -1    0    0    0    0  0.00000000000E+00  0.00000000000E+00  0.45593999997E+02  0.45594000000E+02  0.51100000000E-03 0.  1.
         11   -1    0    0    0    0 -0.00000000000E+00 -0.00000000000E+00 -0.45593999997E+02  0.45594000000E+02  0.51100000000E-03 0. -1.
    9900012    2    1    2    0    0  0.74280483805E+01 -0.74273178774E+01  0.30106125108E+02  0.59301957245E+02  0.50000024104E+02 0.  0.
         12    1    1    2    0    0 -0.74280483805E+01  0.74273178774E+01 -0.30106125108E+02  0.31886042755E+02  0.00000000000E+00 0. -1.
         11    1    3    3    0    0  0.87866974221E+01 -0.22096466177E+02  0.16995674341E+02  0.29228630068E+02  0.51100000000E-03 0. -1.
        -11    1    3    3    0    0 -0.33901052500E+01  0.18832643504E+02  0.35671024803E+01  0.19464981256E+02  0.51100000000E-03 0.  1.
        -12    1    3    3    0    0  0.20314562084E+01 -0.41634952041E+01  0.95433482868E+01  0.10608345920E+02  0.00000000000E+00 0.  1.
</event>
<event>
 7    1  0.7579108E-012  0.5930195E+02  0.7816164E-02  0.1266605E+00
        -11   -1    0    0    0    0  0.00000000000E+00  0.00000000000E+00  0.45593999997E+02  0.45594000000E+02  0.51100000000E-03 0. -1.
         11   -1    0    0    0    0 -0.00000000000E+00 -0.00000000000E+00 -0.45593999997E+02  0.45594000000E+02  0.51100000000E-03 0.  1.
    9900012    2    1    2    0    0 -0.10892940217E+02 -0.66715115692E+01 -0.29215657853E+02  0.59301954824E+02  0.50000019690E+02 0.  0.
         12    1    1    2    0    0  0.10892940217E+02  0.66715115692E+01  0.29215657853E+02  0.31886045176E+02  0.00000000000E+00 0. -1.
         11    1    3    3    0    0  0.53592873628E+01 -0.13270485291E+02  0.76419465173E+01  0.16224274644E+02  0.51100000000E-03 0. -1.
        -11    1    3    3    0    0 -0.17286246211E+02  0.18101848264E+01 -0.29455977160E+02  0.34201544817E+02  0.51100000000E-03 0.  1.
         12    1    3    3    0    0  0.10340186315E+01  0.47887888953E+01 -0.74016272104E+01  0.88761353626E+01  0.00000000000E+00 0. -1.
</event>
<event>
 7    1  0.7579108E-012  0.5930196E+02  0.7816164E-02  0.1266605E+00
        -11   -1    0    0    0    0  0.00000000000E+00  0.00000000000E+00  0.45593999997E+02  0.45594000000E+02  0.51100000000E-03 0. -1.
         11   -1    0    0    0    0 -0.00000000000E+00 -0.00000000000E+00 -0.45593999997E+02  0.45594000000E+02  0.51100000000E-03 0.  1.
    9900012    2    1    2    0    0  0.25083672934E+02 -0.49895818948E+01 -0.19042927154E+02  0.59301958384E+02  0.50000026182E+02 0.  0.
         12    1    1    2    0    0 -0.25083672934E+02  0.49895818948E+01  0.19042927154E+02  0.31886041616E+02  0.00000000000E+00 0. -1.
         11    1    3    3    0    0  0.36482759639E+02 -0.44572763510E+01 -0.52244868276E+01  0.37123500996E+02  0.51100000000E-03 0. -1.
        -11    1    3    3    0    0 -0.43318988766E+01 -0.41847028374E+01 -0.12815483351E+02  0.14160285996E+02  0.51100000000E-03 0.  1.
         12    1    3    3    0    0 -0.70671878276E+01  0.36523972936E+01 -0.10029569754E+01  0.80181713922E+01  0.00000000000E+00 0. -1.
</event>
<event>
 7    1  0.7579108E-012  0.5930194E+02  0.7816164E-02  0.1266605E+00
        -11   -1    0    0    0    0  0.00000000000E+00  0.00000000000E+00  0.45593999997E+02  0.45594000000E+02  0.51100000000E-03 0.  1.
         11   -1    0    0    0    0 -0.00000000000E+00 -0.00000000000E+00 -0.45593999997E+02  0.45594000000E+02  0.51100000000E-03 0. -1.
    9900012    2    1    2    0    0 -0.13280681239E+02  0.95952456660E+01  0.27354626160E+02  0.59301940257E+02  0.49999993123E+02 0.  0.
         12    1    1    2    0    0  0.13280681239E+02 -0.95952456660E+01 -0.27354626160E+02  0.31886059743E+02  0.00000000000E+00 0. -1.
         11    1    3    3    0    0 -0.24319892229E+02  0.28175058118E+01  0.14197990543E+02  0.28301562373E+02  0.51100000000E-03 0. -1.
        -11    1    3    3    0    0  0.54397285236E+01 -0.86928059400E+01  0.98494651617E+01  0.14218561311E+02  0.51100000000E-03 0.  1.
         12    1    3    3    0    0  0.55994824666E+01  0.15470545794E+02  0.33071704559E+01  0.16781816573E+02  0.00000000000E+00 0. -1.
</event>
<event>
 7    1  0.7579108E-012  0.5930196E+02  0.7816164E-02  0.1266605E+00
        -11   -1    0    0    0    0  0.00000000000E+00  0.00000000000E+00  0.45593999997E+02  0.45594000000E+02  0.51100000000E-03 0.  1.
         11   -1    0    0    0    0 -0.00000000000E+00 -0.00000000000E+00 -0.45593999997E+02  0.45594000000E+02  0.51100000000E-03 0. -1.
    9900012    2    1    2    0    0 -0.14863876404E+02  0.89071637536E+01  0.26766530093E+02  0.59301960404E+02  0.50000029866E+02 0.  0.
         12    1    1    2    0    0  0.14863876404E+02 -0.89071637536E+01 -0.26766530093E+02  0.31886039596E+02  0.00000000000E+00 0. -1.
         11    1    3    3    0    0  0.13775905813E+02  0.96388581897E+01 -0.19164921233E+01  0.16922059878E+02  0.51100000000E-03 0. -1.
        -11    1    3    3    0    0 -0.24279790763E+02 -0.35115072517E+01  0.27897463352E+02  0.37149796559E+02  0.51100000000E-03 0.  1.
        -12    1    3    3    0    0 -0.43599914547E+01  0.27798128155E+01  0.78555886468E+00  0.52301039669E+01  0.00000000000E+00 0.  1.
</event>
<event>
 7    1  0.7579108E-012  0.5930193E+02  0.7816164E-02  0.1266605E+00
        -11   -1    0    0    0    0  0.00000000000E+00  0.00000000000E+00  0.45593999997E+02  0.45594000000E+02  0.51100000000E-03 0. -1.
         11   -1    0    0    0    0 -0.00000000000E+00 -0.00000000000E+00 -0.45593999997E+02  0.45594000000E+02  0.51100000000E-03 0.  1.
    9900012    2    1    2    0    0 -0.30924345374E+02 -0.12674865539E+01 -0.76680893379E+01  0.59301933246E+02  0.49999980336E+02 0.  0.
         12    1    1    2    0    0  0.30924345374E+02  0.12674865539E+01  0.76680893379E+01  0.31886066754E+02  0.00000000000E+00 0. -1.
         11    1    3    3    0    0  0.38938214650E+01  0.11946696304E+02  0.89272738590E+01  0.15413682785E+02  0.51100000000E-03 0. -1.
        -11    1    3    3    0    0 -0.14641882278E+02 -0.76019230651E+01 -0.15933057333E+02  0.22935480531E+02  0.51100000000E-03 0.  1.
         12    1    3    3    0    0 -0.20176284561E+02 -0.56122597933E+01 -0.66230586361E+00  0.20952769930E+02  0.00000000000E+00 0. -1.
</event>
<event>
 7    1  0.7579108E-012  0.5930194E+02  0.7816164E-02  0.1266605E+00
        -11   -1    0    0    0    0  0.00000000000E+00  0.00000000000E+00  0.45593999997E+02  0.45594000000E+02  0.51100000000E-03 0.  1.
         11   -1    0    0    0    0 -0.00000000000E+00 -0.00000000000E+00 -0.45593999997E+02  0.45594000000E+02  0.51100000000E-03 0. -1.
    9900012    2    1    2    0    0  0.23466366999E+02  0.21582096643E+02 -0.51356834593E+00  0.59301936774E+02  0.49999986771E+02 0.  0.
         12    1    1    2    0    0 -0.23466366999E+02 -0.21582096643E+02  0.51356834593E+00  0.31886063226E+02  0.00000000000E+00 0. -1.
         11    1    3    3    0    0 -0.51875087354E+01 -0.47955889194E+01  0.56366365340E+01  0.90376762301E+01  0.51100000000E-03 0. -1.
        -11    1    3    3    0    0  0.23925509481E+02  0.19852476381E+02  0.96290785918E+01  0.32546428025E+02  0.51100000000E-03 0.  1.
         12    1    3    3    0    0  0.47283662527E+01  0.65252091814E+01 -0.15779283472E+02  0.17717832519E+02  0.00000000000E+00 0. -1.
</event>
<event>
 7    1  0.7579108E-012  0.5930187E+02  0.7816164E-02  0.1266605E+00
        -11   -1    0    0    0    0  0.00000000000E+00  0.00000000000E+00  0.45593999997E+02  0.45594000000E+02  0.51100000000E-03 0. -1.
         11   -1    0    0    0    0 -0.00000000000E+00 -0.00000000000E+00 -0.45593999997E+02  0.45594000000E+02  0.51100000000E-03 0.  1.
    9900012    2    1    2    0    0 -0.23422313969E+02 -0.16764269112E+02 -0.13677710095E+02  0.59301870351E+02  0.49999865632E+02 0.  0.
         12    1    1    2    0    0  0.23422313969E+02  0.16764269112E+02  0.13677710095E+02  0.31886129649E+02  0.00000000000E+00 0. -1.
         11    1    3    3    0    0  0.94168794782E+01 -0.10336672805E+02  0.35668878687E+01  0.14430769664E+02  0.51100000000E-03 0. -1.
        -11    1    3    3    0    0 -0.33605422902E+02 -0.16715317946E+01 -0.82126892875E+01  0.34634761910E+02  0.51100000000E-03 0.  1.
        -12    1    3    3    0    0  0.76622945472E+00 -0.47560645122E+01 -0.90319086761E+01  0.10236338777E+02  0.00000000000E+00 0.  1.
</event>
<event>
 7    1  0.7579108E-012  0.5930195E+02  0.7816164E-02  0.1266605E+00
        -11   -1    0    0    0    0  0.00000000000E+00  0.00000000000E+00  0.45593999997E+02  0.45594000000E+02  0.51100000000E-03 0. -1.
         11   -1    0    0    0    0 -0.00000000000E+00 -0.00000000000E+00 -0.45593999997E+02  0.45594000000E+02  0.51100000000E-03 0.  1.
    9900012    2    1    2    0    0 -0.27524867767E+02  0.15070472280E+02 -0.56553228714E+01  0.59301950431E+02  0.50000011679E+02 0.  0.
         12    1    1    2    0    0  0.27524867767E+02 -0.15070472280E+02  0.56553228714E+01  0.31886049569E+02  0.00000000000E+00 0. -1.
         11    1    3    3    0    0 -0.50154400802E+00  0.16187361494E+02  0.64097770761E+01  0.17417447027E+02  0.51100000000E-03 0. -1.
        -11    1    3    3    0    0 -0.33446181860E+02 -0.23653958310E+01 -0.94281694531E+01  0.34830052512E+02  0.51100000000E-03 0.  1.
        -12    1    3    3    0    0  0.64228581013E+01  0.12485066169E+01 -0.26369304945E+01  0.70544508925E+01  0.00000000000E+00 0.  1.
</event>
<event>
 7    1  0.7579108E-012  0.5930201E+02  0.7816164E-02  0.1266605E+00
        -11   -1    0    0    0    0  0.00000000000E+00  0.00000000000E+00  0.45593999997E+02  0.45594000000E+02  0.51100000000E-03 0. -1.
         11   -1    0    0    0    0 -0.00000000000E+00 -0.00000000000E+00 -0.45593999997E+02  0.45594000000E+02  0.51100000000E-03 0.  1.
    9900012    2    1    2    0    0 -0.27208335143E+02 -0.98309535881E+01  0.13408016258E+02  0.59302014839E+02  0.50000129143E+02 0.  0.
         12    1    1    2    0    0  0.27208335143E+02  0.98309535881E+01 -0.13408016258E+02  0.31885985161E+02  0.00000000000E+00 0. -1.
         11    1    3    3    0    0  0.10721340419E+02  0.73347722151E+00  0.67481956677E+01  0.12689494641E+02  0.51100000000E-03 0. -1.
        -11    1    3    3    0    0 -0.27245977373E+02 -0.10494875108E+02 -0.62462619436E+01  0.29858021955E+02  0.51100000000E-03 0.  1.
         12    1    3    3    0    0 -0.10683698189E+02 -0.69555701211E-01  0.12906082534E+02  0.16754498242E+02  0.00000000000E+00 0. -1.
</event>
<event>
 7    1  0.7579108E-012  0.5930193E+02  0.7816164E-02  0.1266605E+00
        -11   -1    0    0    0    0  0.00000000000E+00  0.00000000000E+00  0.45593999997E+02  0.45594000000E+02  0.51100000000E-03 0. -1.
         11   -1    0    0    0    0 -0.00000000000E+00 -0.00000000000E+00 -0.45593999997E+02  0.45594000000E+02  0.51100000000E-03 0.  1.
    9900012    2    1    2    0    0 -0.98515450714E+01 -0.74760579579E+01 -0.29390089026E+02  0.59301925989E+02  0.49999967102E+02 0.  0.
         12    1    1    2    0    0  0.98515450714E+01  0.74760579579E+01  0.29390089026E+02  0.31886074011E+02  0.00000000000E+00 0. -1.
         11    1    3    3    0    0 -0.39777369143E+01 -0.12121034224E+02 -0.13892718040E+02  0.18861322234E+02  0.51100000000E-03 0. -1.
        -11    1    3    3    0    0 -0.16508173974E+02  0.10759583274E+02  0.11768805935E+01  0.19740149148E+02  0.51100000000E-03 0.  1.
        -12    1    3    3    0    0  0.10634365817E+02 -0.61146070078E+01 -0.16674251579E+02  0.20700454607E+02  0.00000000000E+00 0.  1.
</event>
<event>
 7    1  0.7579108E-012  0.5930199E+02  0.7816164E-02  0.1266605E+00
        -11   -1    0    0    0    0  0.00000000000E+00  0.00000000000E+00  0.45593999997E+02  0.45594000000E+02  0.51100000000E-03 0. -1.
         11   -1    0    0    0    0 -0.00000000000E+00 -0.00000000000E+00 -0.45593999997E+02  0.45594000000E+02  0.51100000000E-03 0.  1.
    9900012    2    1    2    0    0  0.12162621541E+02  0.24021416426E+02 -0.17080978030E+02  0.59301990210E+02  0.50000084226E+02 0.  0.
         12    1    1    2    0    0 -0.12162621541E+02 -0.24021416426E+02  0.17080978030E+02  0.31886009790E+02  0.00000000000E+00 0. -1.
         11    1    3    3    0    0  0.14820365219E+02  0.14874505694E+02 -0.11370976412E+02  0.23878719600E+02  0.51100000000E-03 0. -1.
        -11    1    3    3    0    0 -0.55666082392E+01 -0.71467354619E+01 -0.14183104575E+02  0.16829242725E+02  0.51100000000E-03 0.  1.
         12    1    3    3    0    0  0.29088645608E+01  0.16293646193E+02  0.84731029569E+01  0.18594027886E+02  0.00000000000E+00 0. -1.
</event>
<event>
 7    1  0.7579108E-012  0.5930193E+02  0.7816164E-02  0.1266605E+00
        -11   -1    0    0    0    0  0.00000000000E+00  0.00000000000E+00  0.45593999997E+02  0.45594000000E+02  0.51100000000E-03 0.  1.
         11   -1    0    0    0    0 -0.00000000000E+00 -0.00000000000E+00 -0.45593999997E+02  0.45594000000E+02  0.51100000000E-03 0. -1.
    9900012    2    1    2    0    0 -0.30567534128E+02  0.89859302340E+01 -0.12649696430E+01  0.59301933560E+02  0.49999980909E+02 0.  0.
         12    1    1    2    0    0  0.30567534128E+02 -0.89859302340E+01  0.12649696430E+01  0.31886066440E+02  0.00000000000E+00 0. -1.
         11    1    3    3    0    0 -0.13964017406E+02  0.12313576258E+02 -0.13066920273E+02  0.22745600630E+02  0.51100000000E-03 0. -1.
        -11    1    3    3    0    0  0.48110041146E+01  0.68364031664E+01  0.96309145997E+01  0.12752908889E+02  0.51100000000E-03 0.  1.
        -12    1    3    3    0    0 -0.21414520836E+02 -0.10164049190E+02  0.21710360298E+01  0.23803424040E+02  0.00000000000E+00 0.  1.
</event>
<event>
 7    1  0.7579108E-012  0.5930196E+02  0.7816164E-02  0.1266605E+00
        -11   -1    0    0    0    0  0.00000000000E+00  0.00000000000E+00  0.45593999997E+02  0.45594000000E+02  0.51100000000E-03 0. -1.
         11   -1    0    0    0    0 -0.00000000000E+00 -0.00000000000E+00 -0.45593999997E+02  0.45594000000E+02  0.51100000000E-03 0.  1.
    9900012    2    1    2    0    0  0.33300252996E+01  0.31289364098E+02 -0.51581446809E+01  0.59301955550E+02  0.50000021013E+02 0.  0.
         12    1    1    2    0    0 -0.33300252996E+01 -0.31289364098E+02  0.51581446809E+01  0.31886044450E+02  0.00000000000E+00 0. -1.
         11    1    3    3    0    0  0.16005087375E+02  0.20098391480E+00  0.12911796653E+02  0.20564963154E+02  0.51100000000E-03 0. -1.
        -11    1    3    3    0    0 -0.11146676564E+02  0.19393922467E+02 -0.13230320373E+02  0.25988728413E+02  0.51100000000E-03 0.  1.
         12    1    3    3    0    0 -0.15283855114E+01  0.11694457716E+02 -0.48396209613E+01  0.12748263983E+02  0.00000000000E+00 0. -1.
</event>
<event>
 7    1  0.7579108E-012  0.5930194E+02  0.7816164E-02  0.1266605E+00
        -11   -1    0    0    0    0  0.00000000000E+00  0.00000000000E+00  0.45593999997E+02  0.45594000000E+02  0.51100000000E-03 0.  1.
         11   -1    0    0    0    0 -0.00000000000E+00 -0.00000000000E+00 -0.45593999997E+02  0.45594000000E+02  0.51100000000E-03 0. -1.
    9900012    2    1    2    0    0 -0.23003570488E+02 -0.18344906314E+02  0.12289067933E+02  0.59301936688E+02  0.49999986614E+02 0.  0.
         12    1    1    2    0    0  0.23003570488E+02  0.18344906314E+02 -0.12289067933E+02  0.31886063312E+02  0.00000000000E+00 0. -1.
         11    1    3    3    0    0  0.10737417753E+02 -0.18521119087E+02  0.42157885360E+01  0.21819644027E+02  0.51100000000E-03 0. -1.
        -11    1    3    3    0    0 -0.25843511764E+02 -0.46544058571E+01  0.18440523779E+01  0.26323964815E+02  0.51100000000E-03 0.  1.
         12    1    3    3    0    0 -0.78974764771E+01  0.48306186300E+01  0.62292270187E+01  0.11158327845E+02  0.00000000000E+00 0. -1.
</event>
<event>
 7    1  0.7579108E-012  0.5930190E+02  0.7816164E-02  0.1266605E+00
        -11   -1    0    0    0    0  0.00000000000E+00  0.00000000000E+00  0.45593999997E+02  0.45594000000E+02  0.51100000000E-03 0. -1.
         11   -1    0    0    0    0 -0.00000000000E+00 -0.00000000000E+00 -0.45593999997E+02  0.45594000000E+02  0.51100000000E-03 0.  1.
    9900012    2    1    2    0    0  0.27174962362E+02  0.14461881823E+02 -0.83125544601E+01  0.59301903235E+02  0.49999925604E+02 0.  0.
         12    1    1    2    0    0 -0.27174962362E+02 -0.14461881823E+02  0.83125544601E+01  0.31886096765E+02  0.00000000000E+00 0. -1.
         11    1    3    3    0    0  0.52102559280E+01  0.44128535344E+01  0.15535613588E+02  0.16969835973E+02  0.51100000000E-03 0. -1.
        -11    1    3    3    0    0  0.20660777160E+02  0.96755137255E+01 -0.29060667834E+02  0.36945983462E+02  0.51100000000E-03 0.  1.
        -12    1    3    3    0    0  0.13039292739E+01  0.37351456308E+00  0.52124997868E+01  0.53860838006E+01  0.00000000000E+00 0.  1.
</event>
<event>
 7    1  0.7579108E-012  0.5930194E+02  0.7816164E-02  0.1266605E+00
        -11   -1    0    0    0    0  0.00000000000E+00  0.00000000000E+00  0.45593999997E+02  0.45594000000E+02  0.51100000000E-03 0. -1.
         11   -1    0    0    0    0 -0.00000000000E+00 -0.00000000000E+00 -0.45593999997E+02  0.45594000000E+02  0.51100000000E-03 0.  1.
    9900012    2    1    2    0    0  0.11525243178E+02  0.12529609659E+02 -0.26961054805E+02  0.59301939962E+02  0.49999992586E+02 0.  0.
         12    1    1    2    0    0 -0.11525243178E+02 -0.12529609659E+02  0.26961054805E+02  0.31886060038E+02  0.00000000000E+00 0. -1.
         11    1    3    3    0    0  0.11296695663E+02  0.17837076661E+02  0.10262317295E+01  0.21138348765E+02  0.51100000000E-03 0. -1.
        -11    1    3    3    0    0  0.70018333332E+01  0.22883932310E+01 -0.26944343474E+02  0.27933135505E+02  0.51100000000E-03 0.  1.
         12    1    3    3    0    0 -0.67732858180E+01 -0.75958602329E+01 -0.10429430606E+01  0.10230455693E+02  0.00000000000E+00 0. -1.
</event>
<event>
 7    1  0.7579108E-012  0.5930186E+02  0.7816164E-02  0.1266605E+00
        -11   -1    0    0    0    0  0.00000000000E+00  0.00000000000E+00  0.45593999997E+02  0.45594000000E+02  0.51100000000E-03 0. -1.
         11   -1    0    0    0    0 -0.00000000000E+00 -0.00000000000E+00 -0.45593999997E+02  0.45594000000E+02  0.51100000000E-03 0.  1.
    9900012    2    1    2    0    0 -0.24363661097E+02  0.20553722511E+02 -0.82613416725E+00  0.59301858986E+02  0.49999844905E+02 0.  0.
         12    1    1    2    0    0  0.24363661097E+02 -0.20553722511E+02  0.82613416725E+00  0.31886141014E+02  0.00000000000E+00 0. -1.
         11    1    3    3    0    0  0.64040372414E+01  0.44975718052E+01  0.10786875556E+02  0.13326534796E+02  0.51100000000E-03 0. -1.
        -11    1    3    3    0    0 -0.21155431633E+02  0.10249391819E+02 -0.20859819278E+02  0.31428241771E+02  0.51100000000E-03 0.  1.
        -12    1    3    3    0    0 -0.96122667049E+01  0.58067588862E+01  0.92468095547E+01  0.14547082419E+02  0.00000000000E+00 0.  1.
</event>
<event>
 7    1  0.7579108E-012  0.5930195E+02  0.7816164E-02  0.1266605E+00
        -11   -1    0    0    0    0  0.00000000000E+00  0.00000000000E+00  0.45593999997E+02  0.45594000000E+02  0.51100000000E-03 0.  1.
         11   -1    0    0    0    0 -0.00000000000E+00 -0.00000000000E+00 -0.45593999997E+02  0.45594000000E+02  0.51100000000E-03 0. -1.
    9900012    2    1    2    0    0 -0.28168436562E+02  0.84919243017E+01 -0.12294166439E+02  0.59301950933E+02  0.50000012593E+02 0.  0.
         12    1    1    2    0    0  0.28168436562E+02 -0.84919243017E+01  0.12294166439E+02  0.31886049067E+02  0.00000000000E+00 0. -1.
         11    1    3    3    0    0  0.30530664199E+01  0.10589027318E+02 -0.60406799492E+01  0.12567359652E+02  0.51100000000E-03 0. -1.
        -11    1    3    3    0    0 -0.33241176363E+02  0.35005444601E+01  0.52003502965E+01  0.33827108374E+02  0.51100000000E-03 0.  1.
        -12    1    3    3    0    0  0.20196733813E+01 -0.55976474767E+01 -0.11453836787E+02  0.12907482906E+02  0.00000000000E+00 0.  1.
</event>
<event>
 7    1  0.7579108E-012  0.5930196E+02  0.7816164E-02  0.1266605E+00
        -11   -1    0    0    0    0  0.00000000000E+00  0.00000000000E+00  0.45593999997E+02  0.45594000000E+02  0.51100000000E-03 0.  1.
         11   -1    0    0    0    0 -0.00000000000E+00 -0.00000000000E+00 -0.45593999997E+02  0.45594000000E+02  0.51100000000E-03 0. -1.
    9900012    2    1    2    0    0 -0.16348874954E+02 -0.20920214291E+02  0.17657244623E+02  0.59301962838E+02  0.50000034305E+02 0.  0.
         12    1    1    2    0    0  0.16348874954E+02  0.20920214291E+02 -0.17657244623E+02  0.31886037162E+02  0.00000000000E+00 0. -1.
         11    1    3    3    0    0  0.91724195092E+01 -0.14514895743E+02 -0.48469198429E+01  0.17841191393E+02  0.51100000000E-03 0. -1.
        -11    1    3    3    0    0 -0.21097149291E+02 -0.10743148579E+02  0.25311932959E+02  0.34658316462E+02  0.51100000000E-03 0.  1.
         12    1    3    3    0    0 -0.44241451716E+01  0.43378300317E+01 -0.28077684930E+01  0.68024549829E+01  0.00000000000E+00 0. -1.
</event>
<event>
 7    1  0.7579108E-012  0.5930195E+02  0.7816164E-02  0.1266605E+00
        -11   -1    0    0    0    0  0.00000000000E+00  0.00000000000E+00  0.45593999997E+02  0.45594000000E+02  0.51100000000E-03 0.  1.
         11   -1    0    0    0    0 -0.00000000000E+00 -0.00000000000E+00 -0.45593999997E+02  0.45594000000E+02  0.51100000000E-03 0. -1.
    9900012    2    1    2    0    0  0.15360455885E+02  0.78244680245E+00  0.27931419213E+02  0.59301952781E+02  0.50000015964E+02 0.  0.
         12    1    1    2    0    0 -0.15360455885E+02 -0.78244680245E+00 -0.27931419213E+02  0.31886047219E+02  0.00000000000E+00 0. -1.
         11    1    3    3    0    0  0.73855939297E+01 -0.15489485848E+02  0.14300395262E+02  0.22337691788E+02  0.51100000000E-03 0. -1.
        -11    1    3    3    0    0  0.40353491029E+01  0.23183868866E+02  0.16239332337E+02  0.28591812342E+02  0.51100000000E-03 0.  1.
         12    1    3    3    0    0  0.39395128522E+01 -0.69119362164E+01 -0.26083083863E+01  0.83724486508E+01  0.00000000000E+00 0. -1.
</event>
<event>
 7    1  0.7579108E-012  0.5930194E+02  0.7816164E-02  0.1266605E+00
        -11   -1    0    0    0    0  0.00000000000E+00  0.00000000000E+00  0.45593999997E+02  0.45594000000E+02  0.51100000000E-03 0. -1.
         11   -1    0    0    0    0 -0.00000000000E+00 -0.00000000000E+00 -0.45593999997E+02  0.45594000000E+02  0.51100000000E-03 0.  1.
    9900012    2    1    2    0    0  0.91006264000E+01  0.28653790015E+02 -0.10623557461E+02  0.59301936332E+02  0.49999985965E+02 0.  0.
         12    1    1    2    0    0 -0.91006264000E+01 -0.28653790015E+02  0.10623557461E+02  0.31886063668E+02  0.00000000000E+00 0. -1.
         11    1    3    3    0    0 -0.59273477507E+01  0.11771543943E+02 -0.26125831192E+02  0.29261950617E+02  0.51100000000E-03 0. -1.
        -11    1    3    3    0    0  0.10075477730E+02  0.13022216429E+02  0.40130990079E+01  0.16946927041E+02  0.51100000000E-03 0.  1.
         12    1    3    3    0    0  0.49524964206E+01  0.38600296429E+01  0.11489174723E+02  0.13093058674E+02  0.00000000000E+00 0. -1.
</event>
<event>
 7    1  0.7579108E-012  0.5930199E+02  0.7816164E-02  0.1266605E+00
        -11   -1    0    0    0    0  0.00000000000E+00  0.00000000000E+00  0.45593999997E+02  0.45594000000E+02  0.51100000000E-03 0. -1.
         11   -1    0    0    0    0 -0.00000000000E+00 -0.00000000000E+00 -0.45593999997E+02  0.45594000000E+02  0.51100000000E-03 0.  1.
    9900012    2    1    2    0    0  0.11758564224E+02 -0.26724259340E+02  0.12816703584E+02  0.59301988010E+02  0.50000080212E+02 0.  0.
         12    1    1    2    0    0 -0.11758564224E+02  0.26724259340E+02 -0.12816703584E+02  0.31886011990E+02  0.00000000000E+00 0. -1.
         11    1    3    3    0    0  0.19329867836E+01 -0.55171671449E+01  0.21132838659E+02  0.21926523693E+02  0.51100000000E-03 0. -1.
        -11    1    3    3    0    0 -0.40552557102E+01 -0.20671317657E+02  0.22875334676E+00  0.21066580190E+02  0.51100000000E-03 0.  1.
         12    1    3    3    0    0  0.13880833151E+02 -0.53577453850E+00 -0.85448884220E+01  0.16308884127E+02  0.00000000000E+00 0. -1.
</event>
<event>
 7    1  0.7579108E-012  0.5930199E+02  0.7816164E-02  0.1266605E+00
        -11   -1    0    0    0    0  0.00000000000E+00  0.00000000000E+00  0.45593999997E+02  0.45594000000E+02  0.51100000000E-03 0.  1.
         11   -1    0    0    0    0 -0.00000000000E+00 -0.00000000000E+00 -0.45593999997E+02  0.45594000000E+02  0.51100000000E-03 0. -1.
    9900012    2    1    2    0    0 -0.30859851951E+02  0.14578464425E+01 -0.78906120079E+01  0.59301991524E+02  0.50000086622E+02 0.  0.
         12    1    1    2    0    0  0.30859851951E+02 -0.14578464425E+01  0.78906120079E+01  0.31886008476E+02  0.00000000000E+00 0. -1.
         11    1    3    3    0    0  0.56560458385E+01  0.69843727129E+01  0.89991036879E+01  0.12718340464E+02  0.51100000000E-03 0. -1.
        -11    1    3    3    0    0 -0.26978036270E+02 -0.10159119655E+01 -0.22032355677E+02  0.34846394577E+02  0.51100000000E-03 0.  1.
         12    1    3    3    0    0 -0.95378615193E+01 -0.45106143048E+01  0.51426399807E+01  0.11737256483E+02  0.00000000000E+00 0. -1.
</event>
<event>
 7    1  0.7579108E-012  0.5930196E+02  0.7816164E-02  0.1266605E+00
        -11   -1    0    0    0    0  0.00000000000E+00  0.00000000000E+00  0.45593999997E+02  0.45594000000E+02  0.51100000000E-03 0.  1.
         11   -1    0    0    0    0 -0.00000000000E+00 -0.00000000000E+00 -0.45593999997E+02  0.45594000000E+02  0.51100000000E-03 0. -1.
    9900012    2    1    2    0    0 -0.24605384290E+02 -0.17510233603E+02  0.10231646354E+02  0.59301955968E+02  0.50000021777E+02 0.  0.
         12    1    1    2    0    0  0.24605384290E+02  0.17510233603E+02 -0.10231646354E+02  0.31886044032E+02  0.00000000000E+00 0. -1.
         11    1    3    3    0    0 -0.12859765119E+02  0.89510125613E+01 -0.11979624597E+02  0.19723224649E+02  0.51100000000E-03 0. -1.
        -11    1    3    3    0    0 -0.15430304546E+02 -0.22556727192E+02  0.17643804371E+02  0.32530048770E+02  0.51100000000E-03 0.  1.
         12    1    3    3    0    0  0.36846853763E+01 -0.39045189721E+01  0.45674665803E+01  0.70486825499E+01  0.00000000000E+00 0. -1.
</event>
<event>
 7    1  0.7579108E-012  0.5930193E+02  0.7816164E-02  0.1266605E+00
        -11   -1    0    0    0    0  0.00000000000E+00  0.00000000000E+00  0.45593999997E+02  0.45594000000E+02  0.51100000000E-03 0. -1.
         11   -1    0    0    0    0 -0.00000000000E+00 -0.00000000000E+00 -0.45593999997E+02  0.45594000000E+02  0.51100000000E-03 0.  1.
    9900012    2    1    2    0    0 -0.18602790098E+02 -0.23582304578E+02  0.10701998565E+02  0.59301926835E+02  0.49999968644E+02 0.  0.
         12    1    1    2    0    0  0.18602790098E+02  0.23582304578E+02 -0.10701998565E+02  0.31886073165E+02  0.00000000000E+00 0. -1.
         11    1    3    3    0    0 -0.73189348756E+01 -0.25439246369E+02  0.88631485669E+00  0.26485989085E+02  0.51100000000E-03 0. -1.
        -11    1    3    3    0    0 -0.10624700656E+02  0.12478733474E+02 -0.24563617055E+01  0.16572168423E+02  0.51100000000E-03 0.  1.
        -12    1    3    3    0    0 -0.65915456618E+00 -0.10621791683E+02  0.12272045414E+02  0.16243769327E+02  0.00000000000E+00 0.  1.
</event>
<event>
 7    1  0.7579108E-012  0.5930194E+02  0.7816164E-02  0.1266605E+00
        -11   -1    0    0    0    0  0.00000000000E+00  0.00000000000E+00  0.45593999997E+02  0.45594000000E+02  0.51100000000E-03 0. -1.
         11   -1    0    0    0    0 -0.00000000000E+00 -0.00000000000E+00 -0.45593999997E+02  0.45594000000E+02  0.51100000000E-03 0.  1.
    9900012    2    1    2    0    0  0.11779095596E+02  0.27144654389E+02 -0.11880301631E+02  0.59301938440E+02  0.49999989809E+02 0.  0.
         12    1    1    2    0    0 -0.11779095596E+02 -0.27144654389E+02  0.11880301631E+02  0.31886061560E+02  0.00000000000E+00 0. -1.
         11    1    3    3    0    0  0.23493947402E+02  0.31021380340E+02 -0.27507542189E+00  0.38914872086E+02  0.51100000000E-03 0. -1.
        -11    1    3    3    0    0 -0.18217576540E+01 -0.63106346214E+01 -0.47973259096E+01  0.81337104951E+01  0.51100000000E-03 0.  1.
         12    1    3    3    0    0 -0.98930941520E+01  0.24339086711E+01 -0.68079002998E+01  0.12253355859E+02  0.00000000000E+00 0. -1.
</event>
<event>
 7    1  0.7579108E-012  0.5930194E+02  0.7816164E-02  0.1266605E+00
        -11   -1    0    0    0    0  0.00000000000E+00  0.00000000000E+00  0.45593999997E+02  0.45594000000E+02  0.51100000000E-03 0.  1.
         11   -1    0    0    0    0 -0.00000000000E+00 -0.00000000000E+00 -0.45593999997E+02  0.45594000000E+02  0.51100000000E-03 0. -1.
    9900012    2    1    2    0    0 -0.23420497797E+02  0.36936897064E+01  0.21320353781E+02  0.59301944332E+02  0.50000000555E+02 0.  0.
         12    1    1    2    0    0  0.23420497797E+02 -0.36936897064E+01 -0.21320353781E+02  0.31886055668E+02  0.00000000000E+00 0. -1.
         11    1    3    3    0    0 -0.16122668687E+02 -0.10075410028E+01 -0.14389454612E+02  0.21633584741E+02  0.51100000000E-03 0. -1.
        -11    1    3    3    0    0 -0.22297588306E+01 -0.12724306848E+01  0.19461885548E+02  0.19630483785E+02  0.51100000000E-03 0.  1.
        -12    1    3    3    0    0 -0.50680702791E+01  0.59736613941E+01  0.16247922846E+02  0.18037875806E+02  0.00000000000E+00 0.  1.
</event>
<event>
 7    1  0.7579108E-012  0.5930192E+02  0.7816164E-02  0.1266605E+00
        -11   -1    0    0    0    0  0.00000000000E+00  0.00000000000E+00  0.45593999997E+02  0.45594000000E+02  0.51100000000E-03 0.  1.
         11   -1    0    0    0    0 -0.00000000000E+00 -0.00000000000E+00 -0.45593999997E+02  0.45594000000E+02  0.51100000000E-03 0. -1.
    9900012    2    1    2    0    0  0.14064880740E+02 -0.26627858472E+02  0.10481320986E+02  0.59301924564E+02  0.49999964503E+02 0.  0.
         12    1    1    2    0    0 -0.14064880740E+02  0.26627858472E+02 -0.10481320986E+02  0.31886075436E+02  0.00000000000E+00 0. -1.
         11    1    3    3    0    0  0.94132601085E+00 -0.24315960640E+02  0.74309838660E+01  0.25443497362E+02  0.51100000000E-03 0. -1.
        -11    1    3    3    0    0  0.19270708846E+02  0.29257551708E+01 -0.72265389323E+01  0.20788052529E+02  0.51100000000E-03 0.  1.
        -12    1    3    3    0    0 -0.61471541163E+01 -0.52376530030E+01  0.10276876053E+02  0.13070374674E+02  0.00000000000E+00 0.  1.
</event>
<event>
 7    1  0.7579108E-012  0.5930193E+02  0.7816164E-02  0.1266605E+00
        -11   -1    0    0    0    0  0.00000000000E+00  0.00000000000E+00  0.45593999997E+02  0.45594000000E+02  0.51100000000E-03 0.  1.
         11   -1    0    0    0    0 -0.00000000000E+00 -0.00000000000E+00 -0.45593999997E+02  0.45594000000E+02  0.51100000000E-03 0. -1.
    9900012    2    1    2    0    0 -0.23493057900E+02  0.20975607719E+02  0.49821243150E+01  0.59301930137E+02  0.49999974666E+02 0.  0.
         12    1    1    2    0    0  0.23493057900E+02 -0.20975607719E+02 -0.49821243150E+01  0.31886069863E+02  0.00000000000E+00 0. -1.
         11    1    3    3    0    0 -0.95928675266E+01  0.16227367177E+02 -0.16314356759E+02  0.24930078010E+02  0.51100000000E-03 0. -1.
        -11    1    3    3    0    0 -0.17089061025E+02  0.39185670905E+00  0.59436094388E+01  0.18097404561E+02  0.51100000000E-03 0.  1.
         12    1    3    3    0    0  0.31888706525E+01  0.43563838329E+01  0.15352871635E+02  0.16274447566E+02  0.00000000000E+00 0. -1.
</event>
<event>
 7    1  0.7579108E-012  0.5930203E+02  0.7816164E-02  0.1266604E+00
        -11   -1    0    0    0    0  0.00000000000E+00  0.00000000000E+00  0.45593999997E+02  0.45594000000E+02  0.51100000000E-03 0. -1.
         11   -1    0    0    0    0 -0.00000000000E+00 -0.00000000000E+00 -0.45593999997E+02  0.45594000000E+02  0.51100000000E-03 0.  1.
    9900012    2    1    2    0    0 -0.30052389211E+02 -0.10591534645E+02 -0.11783236718E+01  0.59302028946E+02  0.50000154870E+02 0.  0.
         12    1    1    2    0    0  0.30052389211E+02  0.10591534645E+02  0.11783236718E+01  0.31885971054E+02  0.00000000000E+00 0. -1.
         11    1    3    3    0    0 -0.13644964156E+02 -0.10290187121E+02  0.12364280770E+02  0.21093800914E+02  0.51100000000E-03 0. -1.
        -11    1    3    3    0    0 -0.13324238925E+02  0.35242021843E+01 -0.23421032570E+02  0.27175358523E+02  0.51100000000E-03 0.  1.
        -12    1    3    3    0    0 -0.30831861304E+01 -0.38255497075E+01  0.98784281290E+01  0.11032869508E+02  0.00000000000E+00 0.  1.
</event>
<event>
 7    1  0.7579108E-012  0.5930193E+02  0.7816164E-02  0.1266605E+00
        -11   -1    0    0    0    0  0.00000000000E+00  0.00000000000E+00  0.45593999997E+02  0.45594000000E+02  0.51100000000E-03 0. -1.
         11   -1    0    0    0    0 -0.00000000000E+00 -0.00000000000E+00 -0.45593999997E+02  0.45594000000E+02  0.51100000000E-03 0.  1.
    9900012    2    1    2    0    0 -0.14892916017E+02  0.20755420742E+01 -0.28117871811E+02  0.59301928785E+02  0.49999972200E+02 0.  0.
         12    1    1    2    0    0  0.14892916017E+02 -0.20755420742E+01  0.28117871811E+02  0.31886071215E+02  0.00000000000E+00 0. -1.
         11    1    3    3    0    0 -0.17800206025E+01  0.15082651645E+02  0.49114009593E+01  0.15961726524E+02  0.51100000000E-03 0. -1.
        -11    1    3    3    0    0 -0.57195601129E+01 -0.37289192225E+01 -0.30441229189E+02  0.31197542231E+02  0.51100000000E-03 0.  1.
         12    1    3    3    0    0 -0.73933353013E+01 -0.92781903479E+01 -0.25880435808E+01  0.12142660029E+02  0.00000000000E+00 0. -1.
</event>
<event>
 7    1  0.7579108E-012  0.5930195E+02  0.7816164E-02  0.1266605E+00
        -11   -1    0    0    0    0  0.00000000000E+00  0.00000000000E+00  0.45593999997E+02  0.45594000000E+02  0.51100000000E-03 0. -1.
         11   -1    0    0    0    0 -0.00000000000E+00 -0.00000000000E+00 -0.45593999997E+02  0.45594000000E+02  0.51100000000E-03 0.  1.
    9900012    2    1    2    0    0 -0.98072030725E+00 -0.73867919822E+01 -0.31003126545E+02  0.59301947192E+02  0.50000005771E+02 0.  0.
         12    1    1    2    0    0  0.98072030725E+00  0.73867919822E+01  0.31003126545E+02  0.31886052808E+02  0.00000000000E+00 0. -1.
         11    1    3    3    0    0 -0.13840203896E+02  0.10871698580E+02 -0.30376669365E+02  0.35106795865E+02  0.51100000000E-03 0.  1.
        -11    1    3    3    0    0  0.12429269766E+02 -0.11377200387E+02 -0.25383189655E+01  0.17040261119E+02  0.51100000000E-03 0. -1.
        -12    1    3    3    0    0  0.43021382279E+00 -0.68812901752E+01  0.19118617862E+01  0.71548902087E+01  0.00000000000E+00 0.  1.
</event>
<event>
 7    1  0.7579108E-012  0.5930197E+02  0.7816164E-02  0.1266605E+00
        -11   -1    0    0    0    0  0.00000000000E+00  0.00000000000E+00  0.45593999997E+02  0.45594000000E+02  0.51100000000E-03 0.  1.
         11   -1    0    0    0    0 -0.00000000000E+00 -0.00000000000E+00 -0.45593999997E+02  0.45594000000E+02  0.51100000000E-03 0. -1.
    9900012    2    1    2    0    0  0.11332489758E+02  0.29662988408E+02  0.28984327378E+01  0.59301966729E+02  0.50000041402E+02 0.  0.
         12    1    1    2    0    0 -0.11332489758E+02 -0.29662988408E+02 -0.28984327378E+01  0.31886033271E+02  0.00000000000E+00 0. -1.
         11    1    3    3    0    0  0.19051363866E+02  0.15365258596E+02 -0.17595845854E+02  0.30143978312E+02  0.51100000000E-03 0. -1.
        -11    1    3    3    0    0  0.28717121707E+01  0.77256378708E+01  0.89869657242E+01  0.12194169283E+02  0.51100000000E-03 0.  1.
         12    1    3    3    0    0 -0.10590586278E+02  0.65720919410E+01  0.11507312868E+02  0.16963819135E+02  0.00000000000E+00 0. -1.
</event>
<event>
 7    1  0.7579108E-012  0.5930198E+02  0.7816164E-02  0.1266605E+00
        -11   -1    0    0    0    0  0.00000000000E+00  0.00000000000E+00  0.45593999997E+02  0.45594000000E+02  0.51100000000E-03 0. -1.
         11   -1    0    0    0    0 -0.00000000000E+00 -0.00000000000E+00 -0.45593999997E+02  0.45594000000E+02  0.51100000000E-03 0.  1.
    9900012    2    1    2    0    0  0.12412231943E+02 -0.12982873878E+02 -0.26345776116E+02  0.59301977434E+02  0.50000060925E+02 0.  0.
         12    1    1    2    0    0 -0.12412231943E+02  0.12982873878E+02  0.26345776116E+02  0.31886022566E+02  0.00000000000E+00 0. -1.
         11    1    3    3    0    0 -0.42573252147E+01 -0.26100591566E+02 -0.33076645434E+01  0.26651572994E+02  0.51100000000E-03 0. -1.
        -11    1    3    3    0    0  0.14330452160E+02  0.11253610845E+02 -0.23378000627E+02  0.29640116898E+02  0.51100000000E-03 0.  1.
         12    1    3    3    0    0  0.23391049976E+01  0.18641068434E+01  0.33988905447E+00  0.30102875415E+01  0.00000000000E+00 0. -1.
</event>
<event>
 7    1  0.7579108E-012  0.5930194E+02  0.7816164E-02  0.1266605E+00
        -11   -1    0    0    0    0  0.00000000000E+00  0.00000000000E+00  0.45593999997E+02  0.45594000000E+02  0.51100000000E-03 0.  1.
         11   -1    0    0    0    0 -0.00000000000E+00 -0.00000000000E+00 -0.45593999997E+02  0.45594000000E+02  0.51100000000E-03 0. -1.
    9900012    2    1    2    0    0  0.73316415712E+01 -0.31027584782E+02  0.50695510500E+00  0.59301937386E+02  0.49999987888E+02 0.  0.
         12    1    1    2    0    0 -0.73316415712E+01  0.31027584782E+02 -0.50695510500E+00  0.31886062614E+02  0.00000000000E+00 0. -1.
         11    1    3    3    0    0 -0.15887456508E+02 -0.11985003056E+02 -0.17273272004E+01  0.19975866240E+02  0.51100000000E-03 0. -1.
        -11    1    3    3    0    0  0.20761796955E+02 -0.76143578296E+00  0.20827431526E+01  0.20879890243E+02  0.51100000000E-03 0.  1.
        -12    1    3    3    0    0  0.24573011238E+01 -0.18281145943E+02  0.15153915279E+00  0.18446180904E+02  0.00000000000E+00 0.  1.
</event>
<event>
 7    1  0.7579108E-012  0.5930196E+02  0.7816164E-02  0.1266605E+00
        -11   -1    0    0    0    0  0.00000000000E+00  0.00000000000E+00  0.45593999997E+02  0.45594000000E+02  0.51100000000E-03 0. -1.
         11   -1    0    0    0    0 -0.00000000000E+00 -0.00000000000E+00 -0.45593999997E+02  0.45594000000E+02  0.51100000000E-03 0.  1.
    9900012    2    1    2    0    0  0.16402173165E+02  0.15647622827E+02 -0.22424097413E+02  0.59301960273E+02  0.50000029627E+02 0.  0.
         12    1    1    2    0    0 -0.16402173165E+02 -0.15647622827E+02  0.22424097413E+02  0.31886039727E+02  0.00000000000E+00 0. -1.
         11    1    3    3    0    0  0.93335438003E+00 -0.45181463187E+01 -0.94061197361E+01  0.10476635209E+02  0.51100000000E-03 0. -1.
        -11    1    3    3    0    0  0.75713166686E+01  0.31446080694E+02 -0.45586696527E+01  0.32664388811E+02  0.51100000000E-03 0.  1.
        -12    1    3    3    0    0  0.78975021168E+01 -0.11280311548E+02 -0.84593080246E+01  0.16160936253E+02  0.00000000000E+00 0.  1.
</event>
<event>
 7    1  0.7579108E-012  0.5930192E+02  0.7816164E-02  0.1266605E+00
        -11   -1    0    0    0    0  0.00000000000E+00  0.00000000000E+00  0.45593999997E+02  0.45594000000E+02  0.51100000000E-03 0. -1.
         11   -1    0    0    0    0 -0.00000000000E+00 -0.00000000000E+00 -0.45593999997E+02  0.45594000000E+02  0.51100000000E-03 0.  1.
    9900012    2    1    2    0    0 -0.67879875793E+01 -0.89421963992E+01 -0.29844301506E+02  0.59301921781E+02  0.49999959427E+02 0.  0.
         12    1    1    2    0    0  0.67879875793E+01  0.89421963992E+01  0.29844301506E+02  0.31886078219E+02  0.00000000000E+00 0. -1.
         11    1    3    3    0    0 -0.52011247513E+01 -0.46444755174E+01  0.37348511491E-01  0.69731088248E+01  0.51100000000E-03 0. -1.
        -11    1    3    3    0    0 -0.11233748386E+02  0.70042564010E+01 -0.34349596054E+02  0.36812381883E+02  0.51100000000E-03 0.  1.
        -12    1    3    3    0    0  0.96468855579E+01 -0.11301977283E+02  0.44679460365E+01  0.15516431073E+02  0.00000000000E+00 0.  1.
</event>
<event>
 7    1  0.7579108E-012  0.5930185E+02  0.7816164E-02  0.1266605E+00
        -11   -1    0    0    0    0  0.00000000000E+00  0.00000000000E+00  0.45593999997E+02  0.45594000000E+02  0.51100000000E-03 0.  1.
         11   -1    0    0    0    0 -0.00000000000E+00 -0.00000000000E+00 -0.45593999997E+02  0.45594000000E+02  0.51100000000E-03 0. -1.
    9900012    2    1    2    0    0  0.55685642366E+01 -0.30970211914E+02  0.51540087239E+01  0.59301847213E+02  0.49999823433E+02 0.  0.
         12    1    1    2    0    0 -0.55685642366E+01  0.30970211914E+02 -0.51540087239E+01  0.31886152787E+02  0.00000000000E+00 0. -1.
         11    1    3    3    0    0  0.13925262482E+02 -0.12696463523E+02 -0.16233365754E+02  0.24872379966E+02  0.51100000000E-03 0. -1.
        -11    1    3    3    0    0  0.58373222760E+00  0.34298265039E+01  0.22433162385E+01  0.41396764569E+01  0.51100000000E-03 0.  1.
         12    1    3    3    0    0 -0.89404304730E+01 -0.21703574894E+02  0.19144058240E+02  0.30289790790E+02  0.00000000000E+00 0. -1.
</event>
<event>
 7    1  0.7579108E-012  0.5930194E+02  0.7816164E-02  0.1266605E+00
        -11   -1    0    0    0    0  0.00000000000E+00  0.00000000000E+00  0.45593999997E+02  0.45594000000E+02  0.51100000000E-03 0. -1.
         11   -1    0    0    0    0 -0.00000000000E+00 -0.00000000000E+00 -0.45593999997E+02  0.45594000000E+02  0.51100000000E-03 0.  1.
    9900012    2    1    2    0    0  0.16673133988E+02  0.25723592357E+02 -0.87763329814E+01  0.59301943152E+02  0.49999998402E+02 0.  0.
         12    1    1    2    0    0 -0.16673133988E+02 -0.25723592357E+02  0.87763329814E+01  0.31886056848E+02  0.00000000000E+00 0. -1.
         11    1    3    3    0    0  0.73578615260E+01 -0.28675065556E+01 -0.27870174371E+00  0.79017969479E+01  0.51100000000E-03 0. -1.
        -11    1    3    3    0    0 -0.15454805987E+02  0.99744963116E+01  0.24079375749E+01  0.18551004512E+02  0.51100000000E-03 0.  1.
        -12    1    3    3    0    0  0.24770078449E+02  0.18616602601E+02 -0.10905568813E+02  0.32849141692E+02  0.00000000000E+00 0.  1.
</event>
<event>
 7    1  0.7579108E-012  0.5930190E+02  0.7816164E-02  0.1266605E+00
        -11   -1    0    0    0    0  0.00000000000E+00  0.00000000000E+00  0.45593999997E+02  0.45594000000E+02  0.51100000000E-03 0.  1.
         11   -1    0    0    0    0 -0.00000000000E+00 -0.00000000000E+00 -0.45593999997E+02  0.45594000000E+02  0.51100000000E-03 0. -1.
    9900012    2    1    2    0    0  0.27157850505E+02  0.15887410988E+02  0.51734390980E+01  0.59301903593E+02  0.49999926257E+02 0.  0.
         12    1    1    2    0    0 -0.27157850505E+02 -0.15887410988E+02 -0.51734390980E+01  0.31886096407E+02  0.00000000000E+00 0. -1.
         11    1    3    3    0    0  0.26202645359E+02  0.25284027523E+01 -0.95451130742E+00  0.26341650222E+02  0.51100000000E-03 0. -1.
        -11    1    3    3    0    0  0.26492865817E+01  0.22703248582E+02  0.49911172332E+01  0.23395885686E+02  0.51100000000E-03 0.  1.
         12    1    3    3    0    0 -0.16940814355E+01 -0.93442403459E+01  0.11368331723E+01  0.95643676850E+01  0.00000000000E+00 0. -1.
</event>
<event>
 7    1  0.7579108E-012  0.5930195E+02  0.7816164E-02  0.1266605E+00
        -11   -1    0    0    0    0  0.00000000000E+00  0.00000000000E+00  0.45593999997E+02  0.45594000000E+02  0.51100000000E-03 0. -1.
         11   -1    0    0    0    0 -0.00000000000E+00 -0.00000000000E+00 -0.45593999997E+02  0.45594000000E+02  0.51100000000E-03 0.  1.
    9900012    2    1    2    0    0  0.10641079001E+02  0.29960863614E+02  0.24154788015E+01  0.59301945860E+02  0.50000003342E+02 0.  0.
         12    1    1    2    0    0 -0.10641079001E+02 -0.29960863614E+02 -0.24154788015E+01  0.31886054140E+02  0.00000000000E+00 0. -1.
         11    1    3    3    0    0  0.28108502788E+02  0.26593181130E+02 -0.57271186660E+01  0.39116302229E+02  0.51100000000E-03 0. -1.
        -11    1    3    3    0    0 -0.76822582939E+01  0.39719390458E+01  0.42657453550E+01  0.96431310254E+01  0.51100000000E-03 0.  1.
         12    1    3    3    0    0 -0.97851654938E+01 -0.60425656245E+00  0.38768521125E+01  0.10542512605E+02  0.00000000000E+00 0. -1.
</event>
<event>
 7    1  0.7579108E-012  0.5930184E+02  0.7816164E-02  0.1266605E+00
        -11   -1    0    0    0    0  0.00000000000E+00  0.00000000000E+00  0.45593999997E+02  0.45594000000E+02  0.51100000000E-03 0. -1.
         11   -1    0    0    0    0 -0.00000000000E+00 -0.00000000000E+00 -0.45593999997E+02  0.45594000000E+02  0.51100000000E-03 0.  1.
    9900012    2    1    2    0    0 -0.23921423823E+02  0.17374938430E+02 -0.11941696382E+02  0.59301841316E+02  0.49999812678E+02 0.  0.
         12    1    1    2    0    0  0.23921423823E+02 -0.17374938430E+02  0.11941696382E+02  0.31886158684E+02  0.00000000000E+00 0. -1.
         11    1    3    3    0    0 -0.27507685550E+02  0.30583859874E+02 -0.37223684581E+01  0.41302557745E+02  0.51100000000E-03 0. -1.
        -11    1    3    3    0    0 -0.85279600386E+00 -0.10945343884E+02 -0.63130590034E+01  0.12664222361E+02  0.51100000000E-03 0.  1.
        -12    1    3    3    0    0  0.44390577315E+01 -0.22635775602E+01 -0.19062689207E+01  0.53350612098E+01  0.00000000000E+00 0.  1.
</event>
<event>
 7    1  0.7579108E-012  0.5930195E+02  0.7816164E-02  0.1266605E+00
        -11   -1    0    0    0    0  0.00000000000E+00  0.00000000000E+00  0.45593999997E+02  0.45594000000E+02  0.51100000000E-03 0. -1.
         11   -1    0    0    0    0 -0.00000000000E+00 -0.00000000000E+00 -0.45593999997E+02  0.45594000000E+02  0.51100000000E-03 0.  1.
    9900012    2    1    2    0    0 -0.16058603386E+02  0.10984201738E+02 -0.25262402016E+02  0.59301946839E+02  0.50000005128E+02 0.  0.
         12    1    1    2    0    0  0.16058603386E+02 -0.10984201738E+02  0.25262402016E+02  0.31886053161E+02  0.00000000000E+00 0. -1.
         11    1    3    3    0    0 -0.78507598864E+01 -0.15206701829E+02 -0.14747354091E+02  0.22591207676E+02  0.51100000000E-03 0. -1.
        -11    1    3    3    0    0  0.47247731880E+01  0.17737592542E+02 -0.10723879823E+02  0.21259051474E+02  0.51100000000E-03 0.  1.
        -12    1    3    3    0    0 -0.12932616688E+02  0.84533110254E+01  0.20883189807E+00  0.15451687689E+02  0.00000000000E+00 0.  1.
</event>
<event>
 7    1  0.7579108E-012  0.5930193E+02  0.7816164E-02  0.1266605E+00
        -11   -1    0    0    0    0  0.00000000000E+00  0.00000000000E+00  0.45593999997E+02  0.45594000000E+02  0.51100000000E-03 0. -1.
         11   -1    0    0    0    0 -0.00000000000E+00 -0.00000000000E+00 -0.45593999997E+02  0.45594000000E+02  0.51100000000E-03 0.  1.
    9900012    2    1    2    0    0 -0.15850307527E+02  0.98960125824E+00 -0.27649774115E+02  0.59301928308E+02  0.49999971331E+02 0.  0.
         12    1    1    2    0    0  0.15850307527E+02 -0.98960125824E+00  0.27649774115E+02  0.31886071692E+02  0.00000000000E+00 0. -1.
         11    1    3    3    0    0 -0.25678109915E+02  0.18070262339E+02 -0.21264136346E+02  0.37921803815E+02  0.51100000000E-03 0.  1.
        -11    1    3    3    0    0  0.38261250336E+01 -0.10822496236E+02 -0.19598941010E+01  0.11645035109E+02  0.51100000000E-03 0. -1.
        -12    1    3    3    0    0  0.60016773550E+01 -0.62581648448E+01 -0.44257436676E+01  0.97350893837E+01  0.00000000000E+00 0.  1.
</event>
<event>
 7    1  0.7579108E-012  0.5930194E+02  0.7816164E-02  0.1266605E+00
        -11   -1    0    0    0    0  0.00000000000E+00  0.00000000000E+00  0.45593999997E+02  0.45594000000E+02  0.51100000000E-03 0. -1.
         11   -1    0    0    0    0 -0.00000000000E+00 -0.00000000000E+00 -0.45593999997E+02  0.45594000000E+02  0.51100000000E-03 0.  1.
    9900012    2    1    2    0    0  0.19500031588E+01  0.17580736669E+02 -0.26529902735E+02  0.59301944219E+02  0.50000000348E+02 0.  0.
         12    1    1    2    0    0 -0.19500031588E+01 -0.17580736669E+02  0.26529902735E+02  0.31886055781E+02  0.00000000000E+00 0. -1.
         11    1    3    3    0    0 -0.19854118873E+02  0.11748280380E+02 -0.17015432986E+02  0.28665887185E+02  0.51100000000E-03 0. -1.
        -11    1    3    3    0    0  0.22824666212E+02  0.93781335167E+01 -0.10499737393E+02  0.26817144917E+02  0.51100000000E-03 0.  1.
         12    1    3    3    0    0 -0.10205441794E+01 -0.35456772282E+01  0.98526764344E+00  0.38189121170E+01  0.00000000000E+00 0. -1.
</event>
<event>
 7    1  0.7579108E-012  0.5930197E+02  0.7816164E-02  0.1266605E+00
        -11   -1    0    0    0    0  0.00000000000E+00  0.00000000000E+00  0.45593999997E+02  0.45594000000E+02  0.51100000000E-03 0.  1.
         11   -1    0    0    0    0 -0.00000000000E+00 -0.00000000000E+00 -0.45593999997E+02  0.45594000000E+02  0.51100000000E-03 0. -1.
    9900012    2    1    2    0    0  0.14628012971E+02  0.15753084164E+02  0.23549531442E+02  0.59301970845E+02  0.50000048907E+02 0.  0.
         12    1    1    2    0    0 -0.14628012971E+02 -0.15753084164E+02 -0.23549531442E+02  0.31886029155E+02  0.00000000000E+00 0. -1.
         11    1    3    3    0    0 -0.32449736522E+01  0.95802247932E+01  0.11928140726E+02  0.15639408637E+02  0.51100000000E-03 0. -1.
        -11    1    3    3    0    0  0.69255470316E+01 -0.15267897917E+02 -0.36612783475E+00  0.16769196711E+02  0.51100000000E-03 0.  1.
        -12    1    3    3    0    0  0.10947439591E+02  0.21440757288E+02  0.11987518551E+02  0.26893365496E+02  0.00000000000E+00 0.  1.
</event>
<event>
 7    1  0.7579108E-012  0.5930196E+02  0.7816164E-02  0.1266605E+00
        -11   -1    0    0    0    0  0.00000000000E+00  0.00000000000E+00  0.45593999997E+02  0.45594000000E+02  0.51100000000E-03 0.  1.
         11   -1    0    0    0    0 -0.00000000000E+00 -0.00000000000E+00 -0.45593999997E+02  0.45594000000E+02  0.51100000000E-03 0. -1.
    9900012    2    1    2    0    0 -0.23458107770E+02 -0.11138584281E+02  0.18503215397E+02  0.59301955091E+02  0.50000020176E+02 0.  0.
         12    1    1    2    0    0  0.23458107770E+02  0.11138584281E+02 -0.18503215397E+02  0.31886044909E+02  0.00000000000E+00 0. -1.
         11    1    3    3    0    0 -0.56549307829E+01 -0.33402012501E+01 -0.17078111356E+02  0.18297460871E+02  0.51100000000E-03 0. -1.
        -11    1    3    3    0    0 -0.96698060404E+01 -0.59493803490E+01  0.25546884586E+02  0.27956101082E+02  0.51100000000E-03 0.  1.
         12    1    3    3    0    0 -0.81333709465E+01 -0.18490026816E+01  0.10034442167E+02  0.13048393138E+02  0.00000000000E+00 0. -1.
</event>
<event>
 7    1  0.7579108E-012  0.5930194E+02  0.7816164E-02  0.1266605E+00
        -11   -1    0    0    0    0  0.00000000000E+00  0.00000000000E+00  0.45593999997E+02  0.45594000000E+02  0.51100000000E-03 0. -1.
         11   -1    0    0    0    0 -0.00000000000E+00 -0.00000000000E+00 -0.45593999997E+02  0.45594000000E+02  0.51100000000E-03 0.  1.
    9900012    2    1    2    0    0 -0.22699653721E+02 -0.45846340981E+01 -0.21918661088E+02  0.59301939523E+02  0.49999991784E+02 0.  0.
         12    1    1    2    0    0  0.22699653721E+02  0.45846340981E+01  0.21918661088E+02  0.31886060477E+02  0.00000000000E+00 0. -1.
         11    1    3    3    0    0 -0.10886939535E+02  0.93822710566E+01 -0.26641951970E+02  0.30271208560E+02  0.51100000000E-03 0.  1.
        -11    1    3    3    0    0 -0.23864832965E+01  0.33062649782E+01  0.80970402443E+01  0.90658012117E+01  0.51100000000E-03 0. -1.
         12    1    3    3    0    0 -0.94262308893E+01 -0.17273170133E+02 -0.33737493624E+01  0.19964929751E+02  0.00000000000E+00 0. -1.
</event>
<event>
 7    1  0.7579108E-012  0.5930199E+02  0.7816164E-02  0.1266605E+00
        -11   -1    0    0    0    0  0.00000000000E+00  0.00000000000E+00  0.45593999997E+02  0.45594000000E+02  0.51100000000E-03 0.  1.
         11   -1    0    0    0    0 -0.00000000000E+00 -0.00000000000E+00 -0.45593999997E+02  0.45594000000E+02  0.51100000000E-03 0. -1.
    9900012    2    1    2    0    0 -0.27005070403E+01 -0.13597561273E+02  0.28714652851E+02  0.59301988973E+02  0.50000081969E+02 0.  0.
         12    1    1    2    0    0  0.27005070403E+01  0.13597561273E+02 -0.28714652851E+02  0.31886011027E+02  0.00000000000E+00 0. -1.
         11    1    3    3    0    0 -0.48897371044E+01  0.21438375000E+00  0.92482041400E+00  0.49810423007E+01  0.51100000000E-03 0. -1.
        -11    1    3    3    0    0 -0.69740470749E+01 -0.22793207399E+02  0.32800267007E+02  0.40546580031E+02  0.51100000000E-03 0.  1.
        -12    1    3    3    0    0  0.91632771389E+01  0.89812623764E+01 -0.50104345703E+01  0.13774366642E+02  0.00000000000E+00 0.  1.
</event>
<event>
 7    1  0.7579108E-012  0.5930194E+02  0.7816164E-02  0.1266605E+00
        -11   -1    0    0    0    0  0.00000000000E+00  0.00000000000E+00  0.45593999997E+02  0.45594000000E+02  0.51100000000E-03 0.  1.
         11   -1    0    0    0    0 -0.00000000000E+00 -0.00000000000E+00 -0.45593999997E+02  0.45594000000E+02  0.51100000000E-03 0. -1.
    9900012    2    1    2    0    0  0.15046689829E+02  0.28107603979E+02  0.52992003506E+00  0.59301935780E+02  0.49999984957E+02 0.  0.
         12    1    1    2    0    0 -0.15046689829E+02 -0.28107603979E+02 -0.52992003506E+00  0.31886064220E+02  0.00000000000E+00 0. -1.
         11    1    3    3    0    0  0.17899181478E+01  0.26054620769E+02 -0.14575238741E+01  0.26156671166E+02  0.51100000000E-03 0. -1.
        -11    1    3    3    0    0  0.22816549822E+02  0.44112930300E+01  0.14466531437E+01  0.23284055866E+02  0.51100000000E-03 0.  1.
         12    1    3    3    0    0 -0.95597781411E+01 -0.23583098202E+01  0.54079076544E+00  0.98612087478E+01  0.00000000000E+00 0. -1.
</event>
<event>
 7    1  0.7579108E-012  0.5930198E+02  0.7816164E-02  0.1266605E+00
        -11   -1    0    0    0    0  0.00000000000E+00  0.00000000000E+00  0.45593999997E+02  0.45594000000E+02  0.51100000000E-03 0.  1.
         11   -1    0    0    0    0 -0.00000000000E+00 -0.00000000000E+00 -0.45593999997E+02  0.45594000000E+02  0.51100000000E-03 0. -1.
    9900012    2    1    2    0    0  0.16862239767E+02  0.42837459657E+01  0.26721394942E+02  0.59301975521E+02  0.50000057436E+02 0.  0.
         12    1    1    2    0    0 -0.16862239767E+02 -0.42837459657E+01 -0.26721394942E+02  0.31886024479E+02  0.00000000000E+00 0. -1.
         11    1    3    3    0    0  0.18505444771E+02  0.20382776216E+02  0.12195026434E+02  0.30110259422E+02  0.51100000000E-03 0. -1.
        -11    1    3    3    0    0  0.42724025453E+01 -0.18415203715E+02  0.99568271409E+01  0.21366131104E+02  0.51100000000E-03 0.  1.
        -12    1    3    3    0    0 -0.59156075499E+01  0.23161734647E+01  0.45695413669E+01  0.78255849946E+01  0.00000000000E+00 0.  1.
</event>
<event>
 7    1  0.7579108E-012  0.5930195E+02  0.7816164E-02  0.1266605E+00
        -11   -1    0    0    0    0  0.00000000000E+00  0.00000000000E+00  0.45593999997E+02  0.45594000000E+02  0.51100000000E-03 0.  1.
         11   -1    0    0    0    0 -0.00000000000E+00 -0.00000000000E+00 -0.45593999997E+02  0.45594000000E+02  0.51100000000E-03 0. -1.
    9900012    2    1    2    0    0 -0.39451326370E+01 -0.26258400608E+02  0.17653678776E+02  0.59301952137E+02  0.50000014789E+02 0.  0.
         12    1    1    2    0    0  0.39451326370E+01  0.26258400608E+02 -0.17653678776E+02  0.31886047863E+02  0.00000000000E+00 0. -1.
         11    1    3    3    0    0 -0.14368480023E+02 -0.33472711129E+02  0.13092371477E+02  0.38707696905E+02  0.51100000000E-03 0. -1.
        -11    1    3    3    0    0  0.12398700536E+02  0.28655360504E+01 -0.15700697503E+01  0.12822019775E+02  0.51100000000E-03 0.  1.
        -12    1    3    3    0    0 -0.19753531504E+01  0.43487744713E+01  0.61313770495E+01  0.77722354567E+01  0.00000000000E+00 0.  1.
</event>
<event>
 7    1  0.7579108E-012  0.5930182E+02  0.7816164E-02  0.1266605E+00
        -11   -1    0    0    0    0  0.00000000000E+00  0.00000000000E+00  0.45593999997E+02  0.45594000000E+02  0.51100000000E-03 0.  1.
         11   -1    0    0    0    0 -0.00000000000E+00 -0.00000000000E+00 -0.45593999997E+02  0.45594000000E+02  0.51100000000E-03 0. -1.
    9900012    2    1    2    0    0  0.12750677840E+02  0.26521647598E+02  0.12278060318E+02  0.59301822088E+02  0.49999777611E+02 0.  0.
         12    1    1    2    0    0 -0.12750677840E+02 -0.26521647598E+02 -0.12278060318E+02  0.31886177912E+02  0.00000000000E+00 0. -1.
         11    1    3    3    0    0  0.27101190118E+02  0.17243315400E+02  0.35849972566E+01  0.32321179394E+02  0.51100000000E-03 0. -1.
        -11    1    3    3    0    0 -0.31723895572E+01  0.11994244108E+02  0.92320507653E+01  0.15464692329E+02  0.51100000000E-03 0.  1.
         12    1    3    3    0    0 -0.11178122721E+02 -0.27159119108E+01 -0.53898770433E+00  0.11515950365E+02  0.00000000000E+00 0. -1.
</event>
<event>
 7    1  0.7579108E-012  0.5930195E+02  0.7816164E-02  0.1266605E+00
        -11   -1    0    0    0    0  0.00000000000E+00  0.00000000000E+00  0.45593999997E+02  0.45594000000E+02  0.51100000000E-03 0.  1.
         11   -1    0    0    0    0 -0.00000000000E+00 -0.00000000000E+00 -0.45593999997E+02  0.45594000000E+02  0.51100000000E-03 0. -1.
    9900012    2    1    2    0    0 -0.15945545003E+01  0.10518547228E+01  0.31828780418E+02  0.59301948734E+02  0.50000008584E+02 0.  0.
         12    1    1    2    0    0  0.15945545003E+01 -0.10518547228E+01 -0.31828780418E+02  0.31886051266E+02  0.00000000000E+00 0. -1.
         11    1    3    3    0    0  0.19385321848E+02  0.85985307873E+01  0.10042605623E+02  0.23464427605E+02  0.51100000000E-03 0. -1.
        -11    1    3    3    0    0 -0.19462767805E+02 -0.92609931594E+01  0.98748019017E+01  0.23708163948E+02  0.51100000000E-03 0.  1.
        -12    1    3    3    0    0 -0.15171085437E+01  0.17143170949E+01  0.11911372893E+02  0.12129357181E+02  0.00000000000E+00 0.  1.
</event>
<event>
 7    1  0.7863416E-012  0.5930192E+02  0.7816164E-02  0.1266605E+00
        -11   -1    0    0    0    0  0.00000000000E+00  0.00000000000E+00  0.45593999997E+02  0.45594000000E+02  0.51100000000E-03 0. -1.
         11   -1    0    0    0    0 -0.00000000000E+00 -0.00000000000E+00 -0.45593999997E+02  0.45594000000E+02  0.51100000000E-03 0.  1.
    9900012    2    1    2    0    0 -0.15135759951E+02  0.18586858070E+02 -0.21027595724E+02  0.59301916764E+02  0.49999950277E+02 0.  0.
         12    1    1    2    0    0  0.15135759951E+02 -0.18586858070E+02  0.21027595724E+02  0.31886083236E+02  0.00000000000E+00 0. -1.
         11    1    3    3    0    0 -0.79396088811E+01  0.44081066201E+01  0.12350114954E+02  0.15329518348E+02  0.51100000000E-03 0. -1.
        -11    1    3    3    0    0 -0.13648400597E+02  0.16135467920E+02 -0.20534257134E+02  0.29466724965E+02  0.51100000000E-03 0.  1.
         12    1    3    3    0    0  0.64522495276E+01 -0.19567164701E+01 -0.12843453544E+02  0.14505673450E+02  0.00000000000E+00 0. -1.
</event>
<event>
 7    1  0.7579108E-012  0.5930195E+02  0.7816164E-02  0.1266605E+00
        -11   -1    0    0    0    0  0.00000000000E+00  0.00000000000E+00  0.45593999997E+02  0.45594000000E+02  0.51100000000E-03 0.  1.
         11   -1    0    0    0    0 -0.00000000000E+00 -0.00000000000E+00 -0.45593999997E+02  0.45594000000E+02  0.51100000000E-03 0. -1.
    9900012    2    1    2    0    0  0.25766874915E+01 -0.15651351369E+02  0.27660731922E+02  0.59301949625E+02  0.50000010208E+02 0.  0.
         12    1    1    2    0    0 -0.25766874915E+01  0.15651351369E+02 -0.27660731922E+02  0.31886050375E+02  0.00000000000E+00 0. -1.
         11    1    3    3    0    0 -0.14120131817E+02 -0.22000308460E+02  0.16902346224E+02  0.31130065901E+02  0.51100000000E-03 0.  1.
        -11    1    3    3    0    0  0.10906245194E+02  0.12864811923E+02  0.45457553412E+01  0.17467497300E+02  0.51100000000E-03 0. -1.
         12    1    3    3    0    0  0.57905741147E+01 -0.65158548319E+01  0.62126303567E+01  0.10704386424E+02  0.00000000000E+00 0. -1.
</event>
<event>
 7    1  0.7579108E-012  0.5930196E+02  0.7816164E-02  0.1266605E+00
        -11   -1    0    0    0    0  0.00000000000E+00  0.00000000000E+00  0.45593999997E+02  0.45594000000E+02  0.51100000000E-03 0.  1.
         11   -1    0    0    0    0 -0.00000000000E+00 -0.00000000000E+00 -0.45593999997E+02  0.45594000000E+02  0.51100000000E-03 0. -1.
    9900012    2    1    2    0    0 -0.17965564730E+02 -0.23086613162E+02  0.12687257111E+02  0.59301957343E+02  0.50000024283E+02 0.  0.
         12    1    1    2    0    0  0.17965564730E+02  0.23086613162E+02 -0.12687257111E+02  0.31886042657E+02  0.00000000000E+00 0. -1.
         11    1    3    3    0    0  0.78959684609E+01 -0.62444563001E+01 -0.65306020517E+01  0.11999513150E+02  0.51100000000E-03 0. -1.
        -11    1    3    3    0    0 -0.16278338820E+02 -0.25536202398E+02  0.13484269235E+02  0.33149773222E+02  0.51100000000E-03 0.  1.
        -12    1    3    3    0    0 -0.95831943705E+01  0.86940455359E+01  0.57335899282E+01  0.14152670970E+02  0.00000000000E+00 0.  1.
</event>
<event>
 7    1  0.7579108E-012  0.5930196E+02  0.7816164E-02  0.1266605E+00
        -11   -1    0    0    0    0  0.00000000000E+00  0.00000000000E+00  0.45593999997E+02  0.45594000000E+02  0.51100000000E-03 0. -1.
         11   -1    0    0    0    0 -0.00000000000E+00 -0.00000000000E+00 -0.45593999997E+02  0.45594000000E+02  0.51100000000E-03 0.  1.
    9900012    2    1    2    0    0  0.23276247112E+02 -0.21785830820E+02 -0.56011004048E+00  0.59301955601E+02  0.50000021107E+02 0.  0.
         12    1    1    2    0    0 -0.23276247112E+02  0.21785830820E+02  0.56011004048E+00  0.31886044399E+02  0.00000000000E+00 0. -1.
         11    1    3    3    0    0  0.12525147643E+01  0.24474446864E+01  0.44454542498E+00  0.27850313506E+01  0.51100000000E-03 0. -1.
        -11    1    3    3    0    0  0.55438283271E+01 -0.28840809119E+02 -0.16279716876E+02  0.33579092975E+02  0.51100000000E-03 0.  1.
        -12    1    3    3    0    0  0.16479904021E+02  0.46075336129E+01  0.15275061411E+02  0.22937831276E+02  0.00000000000E+00 0.  1.
</event>
<event>
 7    1  0.7579108E-012  0.5930196E+02  0.7816164E-02  0.1266605E+00
        -11   -1    0    0    0    0  0.00000000000E+00  0.00000000000E+00  0.45593999997E+02  0.45594000000E+02  0.51100000000E-03 0.  1.
         11   -1    0    0    0    0 -0.00000000000E+00 -0.00000000000E+00 -0.45593999997E+02  0.45594000000E+02  0.51100000000E-03 0. -1.
    9900012    2    1    2    0    0  0.89556933990E+01  0.28321829603E+02  0.11592639756E+02  0.59301956457E+02  0.50000022667E+02 0.  0.
         12    1    1    2    0    0 -0.89556933990E+01 -0.28321829603E+02 -0.11592639756E+02  0.31886043543E+02  0.00000000000E+00 0. -1.
         11    1    3    3    0    0  0.17693899997E+02  0.92339255415E+01  0.14458573906E+02  0.24645280231E+02  0.51100000000E-03 0.  1.
        -11    1    3    3    0    0 -0.92703366982E+01 -0.35012708872E+01 -0.63856430649E+01  0.11788743696E+02  0.51100000000E-03 0. -1.
         12    1    3    3    0    0  0.53213010072E+00  0.22589174949E+02  0.35197089143E+01  0.22867932529E+02  0.00000000000E+00 0. -1.
</event>
<event>
 7    1  0.7579108E-012  0.5930192E+02  0.7816164E-02  0.1266605E+00
        -11   -1    0    0    0    0  0.00000000000E+00  0.00000000000E+00  0.45593999997E+02  0.45594000000E+02  0.51100000000E-03 0. -1.
         11   -1    0    0    0    0 -0.00000000000E+00 -0.00000000000E+00 -0.45593999997E+02  0.45594000000E+02  0.51100000000E-03 0.  1.
    9900012    2    1    2    0    0 -0.31541001051E+02 -0.29653423279E+01 -0.36185403098E+01  0.59301924099E+02  0.49999963654E+02 0.  0.
         12    1    1    2    0    0  0.31541001051E+02  0.29653423279E+01  0.36185403098E+01  0.31886075901E+02  0.00000000000E+00 0. -1.
         11    1    3    3    0    0 -0.92872469281E+01  0.65530833422E+01  0.13071491407E+02  0.17322232669E+02  0.51100000000E-03 0. -1.
        -11    1    3    3    0    0 -0.15306927899E+02 -0.17196950261E+02 -0.82841305451E+00  0.23037434936E+02  0.51100000000E-03 0.  1.
        -12    1    3    3    0    0 -0.69468262238E+01  0.76785245909E+01 -0.15861618662E+02  0.18942256493E+02  0.00000000000E+00 0.  1.
</event>
<event>
 7    1  0.7579108E-012  0.5930193E+02  0.7816164E-02  0.1266605E+00
        -11   -1    0    0    0    0  0.00000000000E+00  0.00000000000E+00  0.45593999997E+02  0.45594000000E+02  0.51100000000E-03 0. -1.
         11   -1    0    0    0    0 -0.00000000000E+00 -0.00000000000E+00 -0.45593999997E+02  0.45594000000E+02  0.51100000000E-03 0.  1.
    9900012    2    1    2    0    0 -0.18383094535E+02 -0.48787674341E+00 -0.26048899822E+02  0.59301931406E+02  0.49999976982E+02 0.  0.
         12    1    1    2    0    0  0.18383094535E+02  0.48787674341E+00  0.26048899822E+02  0.31886068594E+02  0.00000000000E+00 0. -1.
         11    1    3    3    0    0 -0.18670777764E+02 -0.10452117943E+02  0.71069089444E+01  0.22546681947E+02  0.51100000000E-03 0. -1.
        -11    1    3    3    0    0  0.82061451499E+00 -0.14820743451E+01 -0.16213654947E+02  0.16301918891E+02  0.51100000000E-03 0.  1.
         12    1    3    3    0    0 -0.53293128672E+00  0.11446315545E+02 -0.16942153820E+02  0.20453330569E+02  0.00000000000E+00 0. -1.
</event>
<event>
 7    1  0.7579108E-012  0.5930192E+02  0.7816164E-02  0.1266605E+00
        -11   -1    0    0    0    0  0.00000000000E+00  0.00000000000E+00  0.45593999997E+02  0.45594000000E+02  0.51100000000E-03 0.  1.
         11   -1    0    0    0    0 -0.00000000000E+00 -0.00000000000E+00 -0.45593999997E+02  0.45594000000E+02  0.51100000000E-03 0. -1.
    9900012    2    1    2    0    0  0.21583378735E+02 -0.35718538038E+01  0.23197443974E+02  0.59301924918E+02  0.49999965148E+02 0.  0.
         12    1    1    2    0    0 -0.21583378735E+02  0.35718538038E+01 -0.23197443974E+02  0.31886075082E+02  0.00000000000E+00 0. -1.
         11    1    3    3    0    0  0.42591779980E+01  0.80106044890E+01  0.27736831965E+02  0.29182909883E+02  0.51100000000E-03 0. -1.
        -11    1    3    3    0    0  0.66973988122E+01 -0.14389574534E+02  0.38020747888E+01  0.16320869434E+02  0.51100000000E-03 0.  1.
        -12    1    3    3    0    0  0.10626801925E+02  0.28071162407E+01 -0.83414627801E+01  0.13798145602E+02  0.00000000000E+00 0.  1.
</event>
<event>
 7    1  0.7579108E-012  0.5930195E+02  0.7816164E-02  0.1266605E+00
        -11   -1    0    0    0    0  0.00000000000E+00  0.00000000000E+00  0.45593999997E+02  0.45594000000E+02  0.51100000000E-03 0.  1.
         11   -1    0    0    0    0 -0.00000000000E+00 -0.00000000000E+00 -0.45593999997E+02  0.45594000000E+02  0.51100000000E-03 0. -1.
    9900012    2    1    2    0    0 -0.24347615780E+02  0.95352441919E+01  0.18248096895E+02  0.59301947935E+02  0.50000007126E+02 0.  0.
         12    1    1    2    0    0  0.24347615780E+02 -0.95352441919E+01 -0.18248096895E+02  0.31886052065E+02  0.00000000000E+00 0. -1.
         11    1    3    3    0    0 -0.37339726025E+02  0.70383522729E+01  0.12529200942E+02  0.40009679064E+02  0.51100000000E-03 0. -1.
        -11    1    3    3    0    0  0.37048616034E+01  0.22617821209E+01  0.85428075162E+01  0.95823388785E+01  0.51100000000E-03 0.  1.
         12    1    3    3    0    0  0.92872486413E+01  0.23510979801E+00 -0.28239115627E+01  0.97099299923E+01  0.00000000000E+00 0. -1.
</event>
<event>
 7    1  0.7579108E-012  0.5930194E+02  0.7816164E-02  0.1266605E+00
        -11   -1    0    0    0    0  0.00000000000E+00  0.00000000000E+00  0.45593999997E+02  0.45594000000E+02  0.51100000000E-03 0.  1.
         11   -1    0    0    0    0 -0.00000000000E+00 -0.00000000000E+00 -0.45593999997E+02  0.45594000000E+02  0.51100000000E-03 0. -1.
    9900012    2    1    2    0    0 -0.19329001044E+02  0.14410695033E+02  0.20867249836E+02  0.59301944609E+02  0.50000001060E+02 0.  0.
         12    1    1    2    0    0  0.19329001044E+02 -0.14410695033E+02 -0.20867249836E+02  0.31886055391E+02  0.00000000000E+00 0. -1.
         11    1    3    3    0    0 -0.96993586479E+01  0.21060168998E+02  0.13889429979E+02  0.27028217511E+02  0.51100000000E-03 0. -1.
        -11    1    3    3    0    0  0.31146393748E+01 -0.31062858230E+01 -0.98980943590E+01  0.10831540161E+02  0.51100000000E-03 0.  1.
        -12    1    3    3    0    0 -0.12744281771E+02 -0.35431881417E+01  0.16875914215E+02  0.21442186938E+02  0.00000000000E+00 0.  1.
</event>
<event>
 7    1  0.7579108E-012  0.5930195E+02  0.7816164E-02  0.1266605E+00
        -11   -1    0    0    0    0  0.00000000000E+00  0.00000000000E+00  0.45593999997E+02  0.45594000000E+02  0.51100000000E-03 0. -1.
         11   -1    0    0    0    0 -0.00000000000E+00 -0.00000000000E+00 -0.45593999997E+02  0.45594000000E+02  0.51100000000E-03 0.  1.
    9900012    2    1    2    0    0  0.11637588825E+02 -0.23693226985E+02  0.17886244975E+02  0.59301949164E+02  0.50000009367E+02 0.  0.
         12    1    1    2    0    0 -0.11637588825E+02  0.23693226985E+02 -0.17886244975E+02  0.31886050836E+02  0.00000000000E+00 0. -1.
         11    1    3    3    0    0  0.15353179203E+02 -0.14449839179E+02  0.28490278834E+02  0.35443108671E+02  0.51100000000E-03 0. -1.
        -11    1    3    3    0    0 -0.77966953490E+01  0.16819844142E+01  0.17477542984E+00  0.79779744701E+01  0.51100000000E-03 0.  1.
         12    1    3    3    0    0  0.40811049709E+01 -0.10925372220E+02 -0.10778809290E+02  0.15880866023E+02  0.00000000000E+00 0. -1.
</event>
<event>
 7    1  0.7579108E-012  0.5930198E+02  0.7816164E-02  0.1266605E+00
        -11   -1    0    0    0    0  0.00000000000E+00  0.00000000000E+00  0.45593999997E+02  0.45594000000E+02  0.51100000000E-03 0.  1.
         11   -1    0    0    0    0 -0.00000000000E+00 -0.00000000000E+00 -0.45593999997E+02  0.45594000000E+02  0.51100000000E-03 0. -1.
    9900012    2    1    2    0    0 -0.18556782541E+02 -0.25531298001E+02 -0.45295374439E+01  0.59301983232E+02  0.50000071498E+02 0.  0.
         12    1    1    2    0    0  0.18556782541E+02  0.25531298001E+02  0.45295374439E+01  0.31886016768E+02  0.00000000000E+00 0. -1.
         11    1    3    3    0    0 -0.29671356468E+02 -0.48134498232E+01 -0.84219579563E+01  0.31216791474E+02  0.51100000000E-03 0. -1.
        -11    1    3    3    0    0  0.78805263352E+01 -0.35641916484E+01  0.59652661537E+01  0.10506691105E+02  0.51100000000E-03 0.  1.
         12    1    3    3    0    0  0.32340475913E+01 -0.17153656530E+02 -0.20728456412E+01  0.17578500653E+02  0.00000000000E+00 0. -1.
</event>
<event>
 7    1  0.7579108E-012  0.5930192E+02  0.7816164E-02  0.1266605E+00
        -11   -1    0    0    0    0  0.00000000000E+00  0.00000000000E+00  0.45593999997E+02  0.45594000000E+02  0.51100000000E-03 0.  1.
         11   -1    0    0    0    0 -0.00000000000E+00 -0.00000000000E+00 -0.45593999997E+02  0.45594000000E+02  0.51100000000E-03 0. -1.
    9900012    2    1    2    0    0  0.12336848300E+02 -0.28820046847E+02  0.58248573294E+01  0.59301923271E+02  0.49999962145E+02 0.  0.
         12    1    1    2    0    0 -0.12336848300E+02  0.28820046847E+02 -0.58248573294E+01  0.31886076729E+02  0.00000000000E+00 0. -1.
         11    1    3    3    0    0  0.11182086399E+01  0.46873810766E+01 -0.65288174107E+01  0.81146404087E+01  0.51100000000E-03 0. -1.
        -11    1    3    3    0    0 -0.11008188461E+02 -0.16166316927E+02  0.12092658694E+02  0.22994834436E+02  0.51100000000E-03 0.  1.
        -12    1    3    3    0    0  0.22226828121E+02 -0.17341110996E+02  0.26101604634E+00  0.28192448427E+02  0.00000000000E+00 0.  1.
</event>
<event>
 7    1  0.7579108E-012  0.5930194E+02  0.7816164E-02  0.1266605E+00
        -11   -1    0    0    0    0  0.00000000000E+00  0.00000000000E+00  0.45593999997E+02  0.45594000000E+02  0.51100000000E-03 0.  1.
         11   -1    0    0    0    0 -0.00000000000E+00 -0.00000000000E+00 -0.45593999997E+02  0.45594000000E+02  0.51100000000E-03 0. -1.
    9900012    2    1    2    0    0 -0.25815040118E+01  0.31319333112E+02 -0.53996445819E+01  0.59301937980E+02  0.49999988971E+02 0.  0.
         12    1    1    2    0    0  0.25815040118E+01 -0.31319333112E+02  0.53996445819E+01  0.31886062020E+02  0.00000000000E+00 0. -1.
         11    1    3    3    0    0 -0.12331319277E+02  0.60426511711E+01  0.16563516857E+02  0.21515695648E+02  0.51100000000E-03 0. -1.
        -11    1    3    3    0    0  0.62295133875E+01  0.23149099540E+02 -0.23330685586E+02  0.33451584966E+02  0.51100000000E-03 0.  1.
         12    1    3    3    0    0  0.35203018781E+01  0.21275824005E+01  0.13675241475E+01  0.43346573657E+01  0.00000000000E+00 0. -1.
</event>
<event>
 7    1  0.7579108E-012  0.5930193E+02  0.7816164E-02  0.1266605E+00
        -11   -1    0    0    0    0  0.00000000000E+00  0.00000000000E+00  0.45593999997E+02  0.45594000000E+02  0.51100000000E-03 0.  1.
         11   -1    0    0    0    0 -0.00000000000E+00 -0.00000000000E+00 -0.45593999997E+02  0.45594000000E+02  0.51100000000E-03 0. -1.
    9900012    2    1    2    0    0  0.73874027160E+01 -0.48581894471E+01  0.30635690841E+02  0.59301932872E+02  0.49999979655E+02 0.  0.
         12    1    1    2    0    0 -0.73874027160E+01  0.48581894471E+01 -0.30635690841E+02  0.31886067128E+02  0.00000000000E+00 0. -1.
         11    1    3    3    0    0 -0.27697637948E+01  0.19656859398E+02  0.48092988734E+01  0.20425304620E+02  0.51100000000E-03 0. -1.
        -11    1    3    3    0    0  0.76703382336E+01 -0.23571540044E+02  0.26337815169E+02  0.36168108836E+02  0.51100000000E-03 0.  1.
         12    1    3    3    0    0  0.24868282772E+01 -0.94350880147E+00 -0.51142320132E+00  0.27085194165E+01  0.00000000000E+00 0. -1.
</event>
<event>
 7    1  0.7579108E-012  0.5930195E+02  0.7816164E-02  0.1266605E+00
        -11   -1    0    0    0    0  0.00000000000E+00  0.00000000000E+00  0.45593999997E+02  0.45594000000E+02  0.51100000000E-03 0.  1.
         11   -1    0    0    0    0 -0.00000000000E+00 -0.00000000000E+00 -0.45593999997E+02  0.45594000000E+02  0.51100000000E-03 0. -1.
    9900012    2    1    2    0    0 -0.19099955363E+02 -0.24011997878E+02  0.86796365396E+01  0.59301946193E+02  0.50000003948E+02 0.  0.
         12    1    1    2    0    0  0.19099955363E+02  0.24011997878E+02 -0.86796365396E+01  0.31886053807E+02  0.00000000000E+00 0. -1.
         11    1    3    3    0    0  0.44367966249E+01  0.43937144177E+01 -0.90707629122E+01  0.11012203719E+02  0.51100000000E-03 0. -1.
        -11    1    3    3    0    0 -0.14084339601E+02 -0.20242178467E+02  0.23923644416E+02  0.34357752742E+02  0.51100000000E-03 0.  1.
        -12    1    3    3    0    0 -0.94524123875E+01 -0.81635338283E+01 -0.61732449638E+01  0.13931989732E+02  0.00000000000E+00 0.  1.
</event>
<event>
 7    1  0.7579108E-012  0.5930193E+02  0.7816164E-02  0.1266605E+00
        -11   -1    0    0    0    0  0.00000000000E+00  0.00000000000E+00  0.45593999997E+02  0.45594000000E+02  0.51100000000E-03 0. -1.
         11   -1    0    0    0    0 -0.00000000000E+00 -0.00000000000E+00 -0.45593999997E+02  0.45594000000E+02  0.51100000000E-03 0.  1.
    9900012    2    1    2    0    0  0.63044138535E+01  0.14478469092E+02 -0.27701080812E+02  0.59301928128E+02  0.49999971002E+02 0.  0.
         12    1    1    2    0    0 -0.63044138535E+01 -0.14478469092E+02  0.27701080812E+02  0.31886071872E+02  0.00000000000E+00 0. -1.
         11    1    3    3    0    0  0.21561276101E+02  0.76657346031E+01  0.39516757575E+00  0.22886858059E+02  0.51100000000E-03 0. -1.
        -11    1    3    3    0    0 -0.13738738543E+01  0.35231317823E+00 -0.18039871799E+02  0.18095541681E+02  0.51100000000E-03 0.  1.
         12    1    3    3    0    0 -0.13882988394E+02  0.64604213105E+01 -0.10056376589E+02  0.18319528388E+02  0.00000000000E+00 0. -1.
</event>
<event>
 7    1  0.7579108E-012  0.5930195E+02  0.7816164E-02  0.1266605E+00
        -11   -1    0    0    0    0  0.00000000000E+00  0.00000000000E+00  0.45593999997E+02  0.45594000000E+02  0.51100000000E-03 0. -1.
         11   -1    0    0    0    0 -0.00000000000E+00 -0.00000000000E+00 -0.45593999997E+02  0.45594000000E+02  0.51100000000E-03 0.  1.
    9900012    2    1    2    0    0  0.26408176026E+02  0.15498224383E+02 -0.88956907645E+01  0.59301952358E+02  0.50000015192E+02 0.  0.
         12    1    1    2    0    0 -0.26408176026E+02 -0.15498224383E+02  0.88956907645E+01  0.31886047642E+02  0.00000000000E+00 0. -1.
         11    1    3    3    0    0  0.14697987757E+02 -0.13044821652E+02 -0.12675612022E+01  0.19692763333E+02  0.51100000000E-03 0.  1.
        -11    1    3    3    0    0  0.14340137152E+02  0.28273540058E+02 -0.17677803219E+00  0.31702742021E+02  0.51100000000E-03 0. -1.
        -12    1    3    3    0    0 -0.26299488824E+01  0.26950597669E+00 -0.74513515301E+01  0.79064470036E+01  0.00000000000E+00 0.  1.
</event>
<event>
 7    1  0.7579108E-012  0.5930193E+02  0.7816164E-02  0.1266605E+00
        -11   -1    0    0    0    0  0.00000000000E+00  0.00000000000E+00  0.45593999997E+02  0.45594000000E+02  0.51100000000E-03 0. -1.
         11   -1    0    0    0    0 -0.00000000000E+00 -0.00000000000E+00 -0.45593999997E+02  0.45594000000E+02  0.51100000000E-03 0.  1.
    9900012    2    1    2    0    0  0.48840359006E+01 -0.29520979716E+02 -0.11017236080E+02  0.59301928731E+02  0.49999972103E+02 0.  0.
         12    1    1    2    0    0 -0.48840359006E+01  0.29520979716E+02  0.11017236080E+02  0.31886071269E+02  0.00000000000E+00 0. -1.
         11    1    3    3    0    0  0.18591717411E+02 -0.32625541256E+01  0.24759541778E+01  0.19037504171E+02  0.51100000000E-03 0. -1.
        -11    1    3    3    0    0 -0.79815664485E+01 -0.87108227041E+01 -0.17749293101E+02  0.21321848912E+02  0.51100000000E-03 0.  1.
         12    1    3    3    0    0 -0.57261150623E+01 -0.17547602887E+02  0.42561028435E+01  0.18942575648E+02  0.00000000000E+00 0. -1.
</event>
<event>
 7    1  0.7579108E-012  0.5930195E+02  0.7816164E-02  0.1266605E+00
        -11   -1    0    0    0    0  0.00000000000E+00  0.00000000000E+00  0.45593999997E+02  0.45594000000E+02  0.51100000000E-03 0. -1.
         11   -1    0    0    0    0 -0.00000000000E+00 -0.00000000000E+00 -0.45593999997E+02  0.45594000000E+02  0.51100000000E-03 0.  1.
    9900012    2    1    2    0    0  0.27170550305E+02  0.15807800263E+02  0.53474060640E+01  0.59301951253E+02  0.50000013178E+02 0.  0.
         12    1    1    2    0    0 -0.27170550305E+02 -0.15807800263E+02 -0.53474060640E+01  0.31886048747E+02  0.00000000000E+00 0. -1.
         11    1    3    3    0    0  0.17050620818E+02  0.17329651374E+02  0.19904976109E+02  0.31420511790E+02  0.51100000000E-03 0. -1.
        -11    1    3    3    0    0  0.10829049026E+02  0.38158923251E+01 -0.18101079253E+02  0.21435447452E+02  0.51100000000E-03 0.  1.
        -12    1    3    3    0    0 -0.70911953869E+00 -0.53377434354E+01  0.35435092083E+01  0.64459920114E+01  0.00000000000E+00 0.  1.
</event>
<event>
 7    1  0.7579108E-012  0.5930195E+02  0.7816164E-02  0.1266605E+00
        -11   -1    0    0    0    0  0.00000000000E+00  0.00000000000E+00  0.45593999997E+02  0.45594000000E+02  0.51100000000E-03 0.  1.
         11   -1    0    0    0    0 -0.00000000000E+00 -0.00000000000E+00 -0.45593999997E+02  0.45594000000E+02  0.51100000000E-03 0. -1.
    9900012    2    1    2    0    0  0.30403267630E+02 -0.17079915216E+01  0.94574937989E+01  0.59301951224E+02  0.50000013124E+02 0.  0.
         12    1    1    2    0    0 -0.30403267630E+02  0.17079915216E+01 -0.94574937989E+01  0.31886048776E+02  0.00000000000E+00 0. -1.
         11    1    3    3    0    0  0.29376896027E+02  0.12125780231E+02  0.21268267798E+02  0.38241022238E+02  0.51100000000E-03 0.  1.
        -11    1    3    3    0    0 -0.91072335929E+00 -0.14452901903E+02 -0.12264622378E+02  0.18977269372E+02  0.51100000000E-03 0. -1.
         12    1    3    3    0    0  0.19370949627E+01  0.61913015042E+00  0.45384837877E+00  0.20836596144E+01  0.00000000000E+00 0. -1.
</event>
<event>
 7    1  0.7579108E-012  0.5930201E+02  0.7816164E-02  0.1266605E+00
        -11   -1    0    0    0    0  0.00000000000E+00  0.00000000000E+00  0.45593999997E+02  0.45594000000E+02  0.51100000000E-03 0.  1.
         11   -1    0    0    0    0 -0.00000000000E+00 -0.00000000000E+00 -0.45593999997E+02  0.45594000000E+02  0.51100000000E-03 0. -1.
    9900012    2    1    2    0    0  0.31588029772E+02  0.22667510891E+00  0.43429702479E+01  0.59302009392E+02  0.50000119209E+02 0.  0.
         12    1    1    2    0    0 -0.31588029772E+02 -0.22667510891E+00 -0.43429702479E+01  0.31885990608E+02  0.00000000000E+00 0. -1.
         11    1    3    3    0    0  0.49872907012E+01 -0.13758614306E+02  0.17781058866E+02  0.23029081415E+02  0.51100000000E-03 0. -1.
        -11    1    3    3    0    0  0.14639564841E+02  0.12682199977E+02 -0.14498641347E+02  0.24194331075E+02  0.51100000000E-03 0.  1.
         12    1    3    3    0    0  0.11961174230E+02  0.13030894378E+01  0.10605527288E+01  0.12078596903E+02  0.00000000000E+00 0. -1.
</event>
<event>
 7    1  0.7579108E-012  0.5930193E+02  0.7816164E-02  0.1266605E+00
        -11   -1    0    0    0    0  0.00000000000E+00  0.00000000000E+00  0.45593999997E+02  0.45594000000E+02  0.51100000000E-03 0.  1.
         11   -1    0    0    0    0 -0.00000000000E+00 -0.00000000000E+00 -0.45593999997E+02  0.45594000000E+02  0.51100000000E-03 0. -1.
    9900012    2    1    2    0    0  0.25189720102E+02  0.70767334489E+01 -0.18224144284E+02  0.59301927962E+02  0.49999970700E+02 0.  0.
         12    1    1    2    0    0 -0.25189720102E+02 -0.70767334489E+01  0.18224144284E+02  0.31886072038E+02  0.00000000000E+00 0. -1.
         11    1    3    3    0    0 -0.25072957652E+01 -0.12736385489E+02 -0.20192580347E+02  0.24005048400E+02  0.51100000000E-03 0. -1.
        -11    1    3    3    0    0  0.18430021233E+02  0.16438623915E+02  0.45283997303E+01  0.25107776550E+02  0.51100000000E-03 0.  1.
         12    1    3    3    0    0  0.92669946343E+01  0.33744950225E+01 -0.25599636673E+01  0.10189103012E+02  0.00000000000E+00 0. -1.
</event>
<event>
 7    1  0.7579108E-012  0.5930200E+02  0.7816164E-02  0.1266605E+00
        -11   -1    0    0    0    0  0.00000000000E+00  0.00000000000E+00  0.45593999997E+02  0.45594000000E+02  0.51100000000E-03 0. -1.
         11   -1    0    0    0    0 -0.00000000000E+00 -0.00000000000E+00 -0.45593999997E+02  0.45594000000E+02  0.51100000000E-03 0.  1.
    9900012    2    1    2    0    0  0.20245182779E+02 -0.16261206586E+02 -0.18504671675E+02  0.59301997755E+02  0.50000097985E+02 0.  0.
         12    1    1    2    0    0 -0.20245182779E+02  0.16261206586E+02  0.18504671675E+02  0.31886002245E+02  0.00000000000E+00 0. -1.
         11    1    3    3    0    0 -0.11462219963E+02  0.17042806987E+01 -0.48054026943E+01  0.12545076903E+02  0.51100000000E-03 0. -1.
        -11    1    3    3    0    0  0.28014905973E+02 -0.16380326980E+02 -0.20836910457E+02  0.38565877486E+02  0.51100000000E-03 0.  1.
         12    1    3    3    0    0  0.36924967689E+01 -0.15851603041E+01  0.71376414761E+01  0.81910433657E+01  0.00000000000E+00 0. -1.
</event>
<event>
 7    1  0.7579108E-012  0.5930194E+02  0.7816164E-02  0.1266605E+00
        -11   -1    0    0    0    0  0.00000000000E+00  0.00000000000E+00  0.45593999997E+02  0.45594000000E+02  0.51100000000E-03 0.  1.
         11   -1    0    0    0    0 -0.00000000000E+00 -0.00000000000E+00 -0.45593999997E+02  0.45594000000E+02  0.51100000000E-03 0. -1.
    9900012    2    1    2    0    0 -0.15614701968E+02 -0.66127332986E+01  0.27003221371E+02  0.59301935275E+02  0.49999984037E+02 0.  0.
         12    1    1    2    0    0  0.15614701968E+02  0.66127332986E+01 -0.27003221371E+02  0.31886064725E+02  0.00000000000E+00 0. -1.
         11    1    3    3    0    0 -0.13426172400E+02 -0.62795569331E+01 -0.20637216170E+01  0.14965088966E+02  0.51100000000E-03 0. -1.
        -11    1    3    3    0    0 -0.15396907072E+01 -0.33664721144E+01  0.36288736684E+02  0.36477063922E+02  0.51100000000E-03 0.  1.
        -12    1    3    3    0    0 -0.64883886063E+00  0.30332957488E+01 -0.72217936963E+01  0.78597823863E+01  0.00000000000E+00 0.  1.
</event>
<event>
 7    1  0.7579108E-012  0.5930192E+02  0.7816164E-02  0.1266605E+00
        -11   -1    0    0    0    0  0.00000000000E+00  0.00000000000E+00  0.45593999997E+02  0.45594000000E+02  0.51100000000E-03 0.  1.
         11   -1    0    0    0    0 -0.00000000000E+00 -0.00000000000E+00 -0.45593999997E+02  0.45594000000E+02  0.51100000000E-03 0. -1.
    9900012    2    1    2    0    0  0.20230683014E+02  0.24500318736E+02 -0.26787883671E+01  0.59301920584E+02  0.49999957244E+02 0.  0.
         12    1    1    2    0    0 -0.20230683014E+02 -0.24500318736E+02  0.26787883671E+01  0.31886079416E+02  0.00000000000E+00 0. -1.
         11    1    3    3    0    0 -0.11089412303E+02  0.96845869413E+01 -0.17130599423E+01  0.14822309674E+02  0.51100000000E-03 0. -1.
        -11    1    3    3    0    0  0.22887371532E+02 -0.45066635871E+01 -0.16598796724E+01  0.23385828895E+02  0.51100000000E-03 0.  1.
        -12    1    3    3    0    0  0.84327237848E+01  0.19322395382E+02  0.69415124765E+00  0.21093782015E+02  0.00000000000E+00 0.  1.
</event>
<event>
 7    1  0.7579108E-012  0.5930196E+02  0.7816164E-02  0.1266605E+00
        -11   -1    0    0    0    0  0.00000000000E+00  0.00000000000E+00  0.45593999997E+02  0.45594000000E+02  0.51100000000E-03 0.  1.
         11   -1    0    0    0    0 -0.00000000000E+00 -0.00000000000E+00 -0.45593999997E+02  0.45594000000E+02  0.51100000000E-03 0. -1.
    9900012    2    1    2    0    0  0.18829509882E+02  0.24814102012E+02  0.68138997799E+01  0.59301963381E+02  0.50000035295E+02 0.  0.
         12    1    1    2    0    0 -0.18829509882E+02 -0.24814102012E+02 -0.68138997799E+01  0.31886036619E+02  0.00000000000E+00 0. -1.
         11    1    3    3    0    0  0.38969066085E+01 -0.26833521272E+01  0.15712355448E+02  0.16409277063E+02  0.51100000000E-03 0. -1.
        -11    1    3    3    0    0  0.13142818442E+02  0.29540579807E+02 -0.15425129900E+02  0.35823374557E+02  0.51100000000E-03 0.  1.
        -12    1    3    3    0    0  0.17897848319E+01 -0.20431256675E+01  0.65266742327E+01  0.70693117613E+01  0.00000000000E+00 0.  1.
</event>
<event>
 7    1  0.7579108E-012  0.5930194E+02  0.7816164E-02  0.1266605E+00
        -11   -1    0    0    0    0  0.00000000000E+00  0.00000000000E+00  0.45593999997E+02  0.45594000000E+02  0.51100000000E-03 0. -1.
         11   -1    0    0    0    0 -0.00000000000E+00 -0.00000000000E+00 -0.45593999997E+02  0.45594000000E+02  0.51100000000E-03 0.  1.
    9900012    2    1    2    0    0 -0.10033470220E+02  0.10464627256E+02 -0.28399676092E+02  0.59301944264E+02  0.50000000431E+02 0.  0.
         12    1    1    2    0    0  0.10033470220E+02 -0.10464627256E+02  0.28399676092E+02  0.31886055736E+02  0.00000000000E+00 0. -1.
         11    1    3    3    0    0  0.14193474590E+01  0.25143045605E+02 -0.65154113474E+01  0.26012263931E+02  0.51100000000E-03 0. -1.
        -11    1    3    3    0    0 -0.12401330790E+02 -0.27015854047E+01 -0.14114591027E+02  0.18981919007E+02  0.51100000000E-03 0.  1.
         12    1    3    3    0    0  0.94851311119E+00 -0.11976832944E+02 -0.77696737172E+01  0.14307761326E+02  0.00000000000E+00 0. -1.
</event>
<event>
 7    1  0.7579108E-012  0.5930194E+02  0.7816164E-02  0.1266605E+00
        -11   -1    0    0    0    0  0.00000000000E+00  0.00000000000E+00  0.45593999997E+02  0.45594000000E+02  0.51100000000E-03 0. -1.
         11   -1    0    0    0    0 -0.00000000000E+00 -0.00000000000E+00 -0.45593999997E+02  0.45594000000E+02  0.51100000000E-03 0.  1.
    9900012    2    1    2    0    0  0.24608945620E+02  0.19747561403E+02  0.45993758910E+01  0.59301942789E+02  0.49999997740E+02 0.  0.
         12    1    1    2    0    0 -0.24608945620E+02 -0.19747561403E+02 -0.45993758910E+01  0.31886057211E+02  0.00000000000E+00 0. -1.
         11    1    3    3    0    0  0.33027517617E+02  0.24741346616E+01 -0.88196882412E+00  0.33131799401E+02  0.51100000000E-03 0. -1.
        -11    1    3    3    0    0 -0.54473297488E+01  0.35788640584E+01  0.95645327362E+01  0.11574193538E+02  0.51100000000E-03 0.  1.
        -12    1    3    3    0    0 -0.29712422486E+01  0.13694562683E+02 -0.40831880211E+01  0.14595949849E+02  0.00000000000E+00 0.  1.
</event>
<event>
 7    1  0.7579108E-012  0.5930196E+02  0.7816164E-02  0.1266605E+00
        -11   -1    0    0    0    0  0.00000000000E+00  0.00000000000E+00  0.45593999997E+02  0.45594000000E+02  0.51100000000E-03 0.  1.
         11   -1    0    0    0    0 -0.00000000000E+00 -0.00000000000E+00 -0.45593999997E+02  0.45594000000E+02  0.51100000000E-03 0. -1.
    9900012    2    1    2    0    0 -0.23132973933E+02  0.17106437015E+02 -0.13746086556E+02  0.59301959701E+02  0.50000028585E+02 0.  0.
         12    1    1    2    0    0  0.23132973933E+02 -0.17106437015E+02  0.13746086556E+02  0.31886040299E+02  0.00000000000E+00 0. -1.
         11    1    3    3    0    0  0.87609177525E+01  0.52991698251E+01 -0.19803442751E+02  0.22293748580E+02  0.51100000000E-03 0. -1.
        -11    1    3    3    0    0 -0.45360408477E+01  0.70522734151E+01 -0.74808201554E+00  0.84184234781E+01  0.51100000000E-03 0.  1.
         12    1    3    3    0    0 -0.27357850838E+02  0.47549937744E+01  0.68054382103E+01  0.28589787643E+02  0.00000000000E+00 0. -1.
</event>
<event>
 7    1  0.7579108E-012  0.5930195E+02  0.7816164E-02  0.1266605E+00
        -11   -1    0    0    0    0  0.00000000000E+00  0.00000000000E+00  0.45593999997E+02  0.45594000000E+02  0.51100000000E-03 0. -1.
         11   -1    0    0    0    0 -0.00000000000E+00 -0.00000000000E+00 -0.45593999997E+02  0.45594000000E+02  0.51100000000E-03 0.  1.
    9900012    2    1    2    0    0 -0.94662928881E+01  0.17349087065E+02 -0.25022360545E+02  0.59301952106E+02  0.50000014733E+02 0.  0.
         12    1    1    2    0    0  0.94662928881E+01 -0.17349087065E+02  0.25022360545E+02  0.31886047894E+02  0.00000000000E+00 0. -1.
         11    1    3    3    0    0  0.99048615424E+01  0.44215073245E+01  0.28685211346E+01  0.11219822768E+02  0.51100000000E-03 0. -1.
        -11    1    3    3    0    0  0.21073633676E+01  0.13763541807E+02 -0.21576267268E+02  0.25679006463E+02  0.51100000000E-03 0.  1.
        -12    1    3    3    0    0 -0.21478517798E+02 -0.83596206634E+00 -0.63146144119E+01  0.22403122875E+02  0.00000000000E+00 0.  1.
</event>
<event>
 7    1  0.7579108E-012  0.5930189E+02  0.7816164E-02  0.1266605E+00
        -11   -1    0    0    0    0  0.00000000000E+00  0.00000000000E+00  0.45593999997E+02  0.45594000000E+02  0.51100000000E-03 0. -1.
         11   -1    0    0    0    0 -0.00000000000E+00 -0.00000000000E+00 -0.45593999997E+02  0.45594000000E+02  0.51100000000E-03 0.  1.
    9900012    2    1    2    0    0 -0.81690032926E+01  0.18452379116E+02 -0.24688072155E+02  0.59301893048E+02  0.49999907025E+02 0.  0.
         12    1    1    2    0    0  0.81690032926E+01 -0.18452379116E+02  0.24688072155E+02  0.31886106952E+02  0.00000000000E+00 0. -1.
         11    1    3    3    0    0  0.12803258279E+02  0.21978885376E+02 -0.21433607951E+01  0.25526237888E+02  0.51100000000E-03 0. -1.
        -11    1    3    3    0    0 -0.32636930351E+01  0.40113132949E+01 -0.85015975290E+01  0.99508536007E+01  0.51100000000E-03 0.  1.
         12    1    3    3    0    0 -0.17708568537E+02 -0.75378195550E+01 -0.14043113831E+02  0.23824801559E+02  0.00000000000E+00 0. -1.
</event>
<event>
 7    1  0.7579108E-012  0.5930198E+02  0.7816164E-02  0.1266605E+00
        -11   -1    0    0    0    0  0.00000000000E+00  0.00000000000E+00  0.45593999997E+02  0.45594000000E+02  0.51100000000E-03 0. -1.
         11   -1    0    0    0    0 -0.00000000000E+00 -0.00000000000E+00 -0.45593999997E+02  0.45594000000E+02  0.51100000000E-03 0.  1.
    9900012    2    1    2    0    0  0.24608481663E+02 -0.20065356396E+02 -0.29193315984E+01  0.59301978078E+02  0.50000062099E+02 0.  0.
         12    1    1    2    0    0 -0.24608481663E+02  0.20065356396E+02  0.29193315984E+01  0.31886021922E+02  0.00000000000E+00 0. -1.
         11    1    3    3    0    0 -0.77965169628E+01 -0.68474148132E+01  0.14229768638E+02  0.17611333911E+02  0.51100000000E-03 0. -1.
        -11    1    3    3    0    0  0.20213606932E+02 -0.54935118953E+01 -0.24482622913E+01  0.21089394649E+02  0.51100000000E-03 0.  1.
         12    1    3    3    0    0  0.12191391693E+02 -0.77244296873E+01 -0.14700837945E+02  0.20601249518E+02  0.00000000000E+00 0. -1.
</event>
<event>
 7    1  0.7579108E-012  0.5930193E+02  0.7816164E-02  0.1266605E+00
        -11   -1    0    0    0    0  0.00000000000E+00  0.00000000000E+00  0.45593999997E+02  0.45594000000E+02  0.51100000000E-03 0. -1.
         11   -1    0    0    0    0 -0.00000000000E+00 -0.00000000000E+00 -0.45593999997E+02  0.45594000000E+02  0.51100000000E-03 0.  1.
    9900012    2    1    2    0    0  0.23831583879E+02 -0.85360194363E+01 -0.19388480099E+02  0.59301934414E+02  0.49999982467E+02 0.  0.
         12    1    1    2    0    0 -0.23831583879E+02  0.85360194363E+01  0.19388480099E+02  0.31886065586E+02  0.00000000000E+00 0. -1.
         11    1    3    3    0    0 -0.12964631251E+01 -0.72795522481E+01 -0.62734733750E+00  0.74206645599E+01  0.51100000000E-03 0. -1.
        -11    1    3    3    0    0  0.27956055019E+02 -0.42191440357E+00  0.45997156777E+01  0.28335073823E+02  0.51100000000E-03 0.  1.
        -12    1    3    3    0    0 -0.28280080151E+01 -0.83455278455E+00 -0.23360848440E+02  0.23546196030E+02  0.00000000000E+00 0.  1.
</event>
<event>
 7    1  0.7579108E-012  0.5930194E+02  0.7816164E-02  0.1266605E+00
        -11   -1    0    0    0    0  0.00000000000E+00  0.00000000000E+00  0.45593999997E+02  0.45594000000E+02  0.51100000000E-03 0.  1.
         11   -1    0    0    0    0 -0.00000000000E+00 -0.00000000000E+00 -0.45593999997E+02  0.45594000000E+02  0.51100000000E-03 0. -1.
    9900012    2    1    2    0    0 -0.11685909579E+02  0.27617239024E+02  0.10837356203E+02  0.59301942491E+02  0.49999997198E+02 0.  0.
         12    1    1    2    0    0  0.11685909579E+02 -0.27617239024E+02 -0.10837356203E+02  0.31886057509E+02  0.00000000000E+00 0. -1.
         11    1    3    3    0    0  0.84711888755E+01  0.55428485457E+01 -0.79523763582E+00  0.10154635105E+02  0.51100000000E-03 0. -1.
        -11    1    3    3    0    0 -0.13022561225E+02 -0.81056555715E+01  0.95424281629E+01  0.18065068188E+02  0.51100000000E-03 0.  1.
        -12    1    3    3    0    0 -0.71345372287E+01  0.30180046050E+02  0.20901656759E+01  0.31082239198E+02  0.00000000000E+00 0.  1.
</event>
<event>
 7    1  0.7579108E-012  0.5930196E+02  0.7816164E-02  0.1266605E+00
        -11   -1    0    0    0    0  0.00000000000E+00  0.00000000000E+00  0.45593999997E+02  0.45594000000E+02  0.51100000000E-03 0.  1.
         11   -1    0    0    0    0 -0.00000000000E+00 -0.00000000000E+00 -0.45593999997E+02  0.45594000000E+02  0.51100000000E-03 0. -1.
    9900012    2    1    2    0    0 -0.28537138557E+02 -0.91126453013E+01  0.10922946922E+02  0.59301963073E+02  0.50000034734E+02 0.  0.
         12    1    1    2    0    0  0.28537138557E+02  0.91126453013E+01 -0.10922946922E+02  0.31886036927E+02  0.00000000000E+00 0. -1.
         11    1    3    3    0    0 -0.46161704928E+01 -0.13481143467E+01 -0.17272008811E+02  0.17928991353E+02  0.51100000000E-03 0. -1.
        -11    1    3    3    0    0 -0.13650371730E+02 -0.12854231255E+02  0.16162489110E+02  0.24754594806E+02  0.51100000000E-03 0.  1.
         12    1    3    3    0    0 -0.10270596334E+02  0.50897003007E+01  0.12032466623E+02  0.16618376914E+02  0.00000000000E+00 0. -1.
</event>
<event>
 7    1  0.7579108E-012  0.5930196E+02  0.7816164E-02  0.1266605E+00
        -11   -1    0    0    0    0  0.00000000000E+00  0.00000000000E+00  0.45593999997E+02  0.45594000000E+02  0.51100000000E-03 0. -1.
         11   -1    0    0    0    0 -0.00000000000E+00 -0.00000000000E+00 -0.45593999997E+02  0.45594000000E+02  0.51100000000E-03 0.  1.
    9900012    2    1    2    0    0  0.25068725479E+02 -0.35885482312E+01 -0.19375272320E+02  0.59301955200E+02  0.50000020375E+02 0.  0.
         12    1    1    2    0    0 -0.25068725479E+02  0.35885482312E+01  0.19375272320E+02  0.31886044800E+02  0.00000000000E+00 0. -1.
         11    1    3    3    0    0 -0.97257169866E+00 -0.12328622284E+02 -0.86090308924E+01  0.15068385325E+02  0.51100000000E-03 0. -1.
        -11    1    3    3    0    0  0.79730907997E+01  0.44668864752E+01  0.11854861785E+02  0.14968667272E+02  0.51100000000E-03 0.  1.
        -12    1    3    3    0    0  0.18068206378E+02  0.42731875779E+01 -0.22621103213E+02  0.29264902603E+02  0.00000000000E+00 0.  1.
</event>
<event>
 7    1  0.7579108E-012  0.5930196E+02  0.7816164E-02  0.1266605E+00
        -11   -1    0    0    0    0  0.00000000000E+00  0.00000000000E+00  0.45593999997E+02  0.45594000000E+02  0.51100000000E-03 0.  1.
         11   -1    0    0    0    0 -0.00000000000E+00 -0.00000000000E+00 -0.45593999997E+02  0.45594000000E+02  0.51100000000E-03 0. -1.
    9900012    2    1    2    0    0 -0.23562303993E+02  0.20924529554E+02  0.48684444302E+01  0.59301955126E+02  0.50000020242E+02 0.  0.
         12    1    1    2    0    0  0.23562303993E+02 -0.20924529554E+02 -0.48684444302E+01  0.31886044874E+02  0.00000000000E+00 0. -1.
         11    1    3    3    0    0 -0.14466600520E+02  0.19165414526E+02  0.21207016607E+02  0.32036435479E+02  0.51100000000E-03 0. -1.
        -11    1    3    3    0    0 -0.82042132781E+01 -0.78708156369E+01 -0.12400015511E+02  0.16823175659E+02  0.51100000000E-03 0.  1.
         12    1    3    3    0    0 -0.89149019480E+00  0.96299306652E+01 -0.39385566656E+01  0.10442343989E+02  0.00000000000E+00 0. -1.
</event>
<event>
 7    1  0.7579108E-012  0.5930192E+02  0.7816164E-02  0.1266605E+00
        -11   -1    0    0    0    0  0.00000000000E+00  0.00000000000E+00  0.45593999997E+02  0.45594000000E+02  0.51100000000E-03 0.  1.
         11   -1    0    0    0    0 -0.00000000000E+00 -0.00000000000E+00 -0.45593999997E+02  0.45594000000E+02  0.51100000000E-03 0. -1.
    9900012    2    1    2    0    0  0.13413871545E+02  0.12892837629E+02  0.25895269648E+02  0.59301918364E+02  0.49999953195E+02 0.  0.
         12    1    1    2    0    0 -0.13413871545E+02 -0.12892837629E+02 -0.25895269648E+02  0.31886081636E+02  0.00000000000E+00 0. -1.
         11    1    3    3    0    0 -0.30130751832E+01  0.24459880394E+02  0.15799617513E+02  0.29274430563E+02  0.51100000000E-03 0. -1.
        -11    1    3    3    0    0  0.30668545514E+01 -0.15651278444E+01  0.12680166096E+02  0.13139323974E+02  0.51100000000E-03 0.  1.
         12    1    3    3    0    0  0.13360092177E+02 -0.10001914921E+02 -0.25845139607E+01  0.16888163827E+02  0.00000000000E+00 0. -1.
</event>
<event>
 7    1  0.7579108E-012  0.5930195E+02  0.7816164E-02  0.1266605E+00
        -11   -1    0    0    0    0  0.00000000000E+00  0.00000000000E+00  0.45593999997E+02  0.45594000000E+02  0.51100000000E-03 0.  1.
         11   -1    0    0    0    0 -0.00000000000E+00 -0.00000000000E+00 -0.45593999997E+02  0.45594000000E+02  0.51100000000E-03 0. -1.
    9900012    2    1    2    0    0  0.13250414591E+02 -0.36500936671E+01  0.28771926810E+02  0.59301945949E+02  0.50000003504E+02 0.  0.
         12    1    1    2    0    0 -0.13250414591E+02  0.36500936671E+01 -0.28771926810E+02  0.31886054051E+02  0.00000000000E+00 0. -1.
         11    1    3    3    0    0 -0.14014214464E+01  0.93756201122E+01  0.15865324249E+02  0.18481740944E+02  0.51100000000E-03 0. -1.
        -11    1    3    3    0    0  0.21698669784E+02 -0.19447004196E+02  0.10648935616E+02  0.31022863707E+02  0.51100000000E-03 0.  1.
        -12    1    3    3    0    0 -0.70468337465E+01  0.64212904164E+01  0.22576669447E+01  0.97973412973E+01  0.00000000000E+00 0.  1.
</event>
<event>
 7    1  0.7579108E-012  0.5930200E+02  0.7816164E-02  0.1266605E+00
        -11   -1    0    0    0    0  0.00000000000E+00  0.00000000000E+00  0.45593999997E+02  0.45594000000E+02  0.51100000000E-03 0.  1.
         11   -1    0    0    0    0 -0.00000000000E+00 -0.00000000000E+00 -0.45593999997E+02  0.45594000000E+02  0.51100000000E-03 0. -1.
    9900012    2    1    2    0    0 -0.30425188808E+02  0.94465022989E+01 -0.13373247841E+01  0.59302000608E+02  0.50000103188E+02 0.  0.
         12    1    1    2    0    0  0.30425188808E+02 -0.94465022989E+01  0.13373247841E+01  0.31885999392E+02  0.00000000000E+00 0. -1.
         11    1    3    3    0    0  0.63106727093E+01  0.16527020434E+02 -0.10280709920E+02  0.20461182546E+02  0.51100000000E-03 0. -1.
        -11    1    3    3    0    0 -0.77729021769E+01  0.50642048353E+00  0.27964114435E+01  0.82761335888E+01  0.51100000000E-03 0.  1.
         12    1    3    3    0    0 -0.28962959340E+02 -0.75869386188E+01  0.61469736920E+01  0.30564684473E+02  0.00000000000E+00 0. -1.
</event>
<event>
 7    1  0.7579108E-012  0.5930194E+02  0.7816164E-02  0.1266605E+00
        -11   -1    0    0    0    0  0.00000000000E+00  0.00000000000E+00  0.45593999997E+02  0.45594000000E+02  0.51100000000E-03 0.  1.
         11   -1    0    0    0    0 -0.00000000000E+00 -0.00000000000E+00 -0.45593999997E+02  0.45594000000E+02  0.51100000000E-03 0. -1.
    9900012    2    1    2    0    0 -0.40671132952E+01  0.16072368395E+02  0.27237078395E+02  0.59301939160E+02  0.49999991123E+02 0.  0.
         12    1    1    2    0    0  0.40671132952E+01 -0.16072368395E+02 -0.27237078395E+02  0.31886060840E+02  0.00000000000E+00 0. -1.
         11    1    3    3    0    0 -0.50122033045E+01  0.14627835692E+02 -0.11434279308E+02  0.19231185677E+02  0.51100000000E-03 0. -1.
        -11    1    3    3    0    0  0.55125383956E+01  0.20579856593E+01  0.21096851609E+02  0.21902066857E+02  0.51100000000E-03 0.  1.
         12    1    3    3    0    0 -0.45674483863E+01 -0.61345295645E+00  0.17574506094E+02  0.18168686627E+02  0.00000000000E+00 0. -1.
</event>
<event>
 7    1  0.7579108E-012  0.5930194E+02  0.7816164E-02  0.1266605E+00
        -11   -1    0    0    0    0  0.00000000000E+00  0.00000000000E+00  0.45593999997E+02  0.45594000000E+02  0.51100000000E-03 0. -1.
         11   -1    0    0    0    0 -0.00000000000E+00 -0.00000000000E+00 -0.45593999997E+02  0.45594000000E+02  0.51100000000E-03 0.  1.
    9900012    2    1    2    0    0  0.21755543464E+02 -0.34193988942E+01 -0.23059160606E+02  0.59301939596E+02  0.49999991918E+02 0.  0.
         12    1    1    2    0    0 -0.21755543464E+02  0.34193988942E+01  0.23059160606E+02  0.31886060404E+02  0.00000000000E+00 0. -1.
         11    1    3    3    0    0  0.86904073733E+01  0.76891554447E+01 -0.26142800782E+02  0.28602313276E+02  0.51100000000E-03 0. -1.
        -11    1    3    3    0    0 -0.38289084802E+01 -0.11171689812E+01  0.92935032451E+01  0.10113249206E+02  0.51100000000E-03 0.  1.
         12    1    3    3    0    0  0.16894044571E+02 -0.99913853577E+01 -0.62098630693E+01  0.20586377114E+02  0.00000000000E+00 0. -1.
</event>
<event>
 7    1  0.7579108E-012  0.5930222E+02  0.7816164E-02  0.1266604E+00
        -11   -1    0    0    0    0  0.00000000000E+00  0.00000000000E+00  0.45593999997E+02  0.45594000000E+02  0.51100000000E-03 0. -1.
         11   -1    0    0    0    0 -0.00000000000E+00 -0.00000000000E+00 -0.45593999997E+02  0.45594000000E+02  0.51100000000E-03 0.  1.
    9900012    2    1    2    0    0 -0.13858438499E+02 -0.21795615657E+02  0.18697529867E+02  0.59302222565E+02  0.50000507983E+02 0.  0.
         12    1    1    2    0    0  0.13858438499E+02  0.21795615657E+02 -0.18697529867E+02  0.31885777435E+02  0.00000000000E+00 0. -1.
         11    1    3    3    0    0 -0.28954853139E+02 -0.12299380486E+02  0.13378268784E+02  0.34185323702E+02  0.51100000000E-03 0. -1.
        -11    1    3    3    0    0  0.10457052031E+02  0.50098822978E+00 -0.34603800864E+01  0.11026112506E+02  0.51100000000E-03 0.  1.
         12    1    3    3    0    0  0.46393626097E+01 -0.99972234005E+01  0.87796411689E+01  0.14090786358E+02  0.00000000000E+00 0. -1.
</event>
<event>
 7    1  0.7579108E-012  0.5930195E+02  0.7816164E-02  0.1266605E+00
        -11   -1    0    0    0    0  0.00000000000E+00  0.00000000000E+00  0.45593999997E+02  0.45594000000E+02  0.51100000000E-03 0. -1.
         11   -1    0    0    0    0 -0.00000000000E+00 -0.00000000000E+00 -0.45593999997E+02  0.45594000000E+02  0.51100000000E-03 0.  1.
    9900012    2    1    2    0    0 -0.31849598739E+01 -0.10925075116E+02 -0.29786224018E+02  0.59301946984E+02  0.50000005391E+02 0.  0.
         12    1    1    2    0    0  0.31849598739E+01  0.10925075116E+02  0.29786224018E+02  0.31886053016E+02  0.00000000000E+00 0. -1.
         11    1    3    3    0    0  0.11818165512E+02 -0.11370750762E+02 -0.83390577275E+01  0.18398448114E+02  0.51100000000E-03 0. -1.
        -11    1    3    3    0    0 -0.18808018232E+01  0.14989688517E+02 -0.11124537750E+02  0.18761223781E+02  0.51100000000E-03 0.  1.
        -12    1    3    3    0    0 -0.13122323563E+02 -0.14544012872E+02 -0.10322628541E+02  0.22142275088E+02  0.00000000000E+00 0.  1.
</event>
<event>
 7    1  0.7579108E-012  0.5930207E+02  0.7816164E-02  0.1266604E+00
        -11   -1    0    0    0    0  0.00000000000E+00  0.00000000000E+00  0.45593999997E+02  0.45594000000E+02  0.51100000000E-03 0. -1.
         11   -1    0    0    0    0 -0.00000000000E+00 -0.00000000000E+00 -0.45593999997E+02  0.45594000000E+02  0.51100000000E-03 0.  1.
    9900012    2    1    2    0    0  0.19651541637E+02  0.24450696982E+02 -0.57177764484E+01  0.59302068319E+02  0.50000226678E+02 0.  0.
         12    1    1    2    0    0 -0.19651541637E+02 -0.24450696982E+02  0.57177764484E+01  0.31885931681E+02  0.00000000000E+00 0. -1.
         11    1    3    3    0    0 -0.29152218459E+01  0.60781430144E+00  0.14954670397E+01  0.33323232982E+01  0.51100000000E-03 0. -1.
        -11    1    3    3    0    0  0.18312120250E+02  0.98853879429E+01 -0.25281941382E+02  0.32744941642E+02  0.51100000000E-03 0.  1.
        -12    1    3    3    0    0  0.42546432321E+01  0.13957494738E+02  0.18068697894E+02  0.23224803379E+02  0.00000000000E+00 0.  1.
</event>
<event>
 7    1  0.7579108E-012  0.5930195E+02  0.7816164E-02  0.1266605E+00
        -11   -1    0    0    0    0  0.00000000000E+00  0.00000000000E+00  0.45593999997E+02  0.45594000000E+02  0.51100000000E-03 0.  1.
         11   -1    0    0    0    0 -0.00000000000E+00 -0.00000000000E+00 -0.45593999997E+02  0.45594000000E+02  0.51100000000E-03 0. -1.
    9900012    2    1    2    0    0 -0.24631706392E+02  0.18011545257E+02  0.92511454127E+01  0.59301946407E+02  0.50000004338E+02 0.  0.
         12    1    1    2    0    0  0.24631706392E+02 -0.18011545257E+02 -0.92511454127E+01  0.31886053593E+02  0.00000000000E+00 0. -1.
         11    1    3    3    0    0  0.53132770939E+01 -0.27621223232E+01 -0.42932682574E+01  0.73683367048E+01  0.51100000000E-03 0. -1.
        -11    1    3    3    0    0 -0.44944628482E+01  0.22900437966E+02  0.12261038001E+02  0.26362156749E+02  0.51100000000E-03 0.  1.
        -12    1    3    3    0    0 -0.25450520637E+02 -0.21267703861E+01  0.12833756688E+01  0.25571452952E+02  0.00000000000E+00 0.  1.
</event>
<event>
 7    1  0.7579108E-012  0.5930194E+02  0.7816164E-02  0.1266605E+00
        -11   -1    0    0    0    0  0.00000000000E+00  0.00000000000E+00  0.45593999997E+02  0.45594000000E+02  0.51100000000E-03 0. -1.
         11   -1    0    0    0    0 -0.00000000000E+00 -0.00000000000E+00 -0.45593999997E+02  0.45594000000E+02  0.51100000000E-03 0.  1.
    9900012    2    1    2    0    0  0.30272135530E+02  0.82524083333E+00  0.99818531522E+01  0.59301943418E+02  0.49999998888E+02 0.  0.
         12    1    1    2    0    0 -0.30272135530E+02 -0.82524083333E+00 -0.99818531522E+01  0.31886056582E+02  0.00000000000E+00 0. -1.
         11    1    3    3    0    0  0.19565350756E+02 -0.19286182720E+02  0.13672084665E+02  0.30686897749E+02  0.51100000000E-03 0. -1.
        -11    1    3    3    0    0  0.49739334208E+01  0.57200314142E+01 -0.94262380631E+01  0.12095980214E+02  0.51100000000E-03 0.  1.
        -12    1    3    3    0    0  0.57328513538E+01  0.14391392139E+02  0.57360065504E+01  0.16519065455E+02  0.00000000000E+00 0.  1.
</event>
<event>
 7    1  0.7579108E-012  0.5930193E+02  0.7816164E-02  0.1266605E+00
        -11   -1    0    0    0    0  0.00000000000E+00  0.00000000000E+00  0.45593999997E+02  0.45594000000E+02  0.51100000000E-03 0. -1.
         11   -1    0    0    0    0 -0.00000000000E+00 -0.00000000000E+00 -0.45593999997E+02  0.45594000000E+02  0.51100000000E-03 0.  1.
    9900012    2    1    2    0    0 -0.11820079781E+02  0.29236553253E+02  0.47149643954E+01  0.59301933742E+02  0.49999981242E+02 0.  0.
         12    1    1    2    0    0  0.11820079781E+02 -0.29236553253E+02 -0.47149643954E+01  0.31886066258E+02  0.00000000000E+00 0. -1.
         11    1    3    3    0    0 -0.53974839933E+01  0.24696633124E+02  0.23347339824E+02  0.34411550361E+02  0.51100000000E-03 0. -1.
        -11    1    3    3    0    0 -0.70049762779E+01 -0.98919017951E+00 -0.19975722012E+01  0.73510873226E+01  0.51100000000E-03 0.  1.
         12    1    3    3    0    0  0.58238048976E+00  0.55291103080E+01 -0.16634803227E+02  0.17539296059E+02  0.00000000000E+00 0. -1.
</event>
<event>
 7    1  0.7579108E-012  0.5930193E+02  0.7816164E-02  0.1266605E+00
        -11   -1    0    0    0    0  0.00000000000E+00  0.00000000000E+00  0.45593999997E+02  0.45594000000E+02  0.51100000000E-03 0.  1.
         11   -1    0    0    0    0 -0.00000000000E+00 -0.00000000000E+00 -0.45593999997E+02  0.45594000000E+02  0.51100000000E-03 0. -1.
    9900012    2    1    2    0    0 -0.35319714494E+01 -0.16704563747E+02  0.26929611322E+02  0.59301933478E+02  0.49999980760E+02 0.  0.
         12    1    1    2    0    0  0.35319714494E+01  0.16704563747E+02 -0.26929611322E+02  0.31886066522E+02  0.00000000000E+00 0. -1.
         11    1    3    3    0    0  0.70174803624E+01 -0.13376220266E+02  0.31119399707E+01  0.15422466401E+02  0.51100000000E-03 0. -1.
        -11    1    3    3    0    0 -0.16873643781E+02 -0.75570516971E+01  0.29199446546E+02  0.34560621575E+02  0.51100000000E-03 0.  1.
        -12    1    3    3    0    0  0.63241919689E+01  0.42287082164E+01 -0.53817751953E+01  0.93188455021E+01  0.00000000000E+00 0.  1.
</event>
<event>
 7    1  0.7579108E-012  0.5930194E+02  0.7816164E-02  0.1266605E+00
        -11   -1    0    0    0    0  0.00000000000E+00  0.00000000000E+00  0.45593999997E+02  0.45594000000E+02  0.51100000000E-03 0. -1.
         11   -1    0    0    0    0 -0.00000000000E+00 -0.00000000000E+00 -0.45593999997E+02  0.45594000000E+02  0.51100000000E-03 0.  1.
    9900012    2    1    2    0    0  0.17188425618E+02 -0.39137497226E+00  0.26853784029E+02  0.59301939311E+02  0.49999991398E+02 0.  0.
         12    1    1    2    0    0 -0.17188425618E+02  0.39137497226E+00 -0.26853784029E+02  0.31886060689E+02  0.00000000000E+00 0. -1.
         11    1    3    3    0    0  0.60130240978E+01 -0.22747705502E+02  0.21122460352E+02  0.31619185569E+02  0.51100000000E-03 0. -1.
        -11    1    3    3    0    0  0.17440783485E+01  0.71889705311E+01  0.64402498685E+01  0.98081560557E+01  0.51100000000E-03 0.  1.
         12    1    3    3    0    0  0.94313231721E+01  0.15167359999E+02 -0.70892619226E+00  0.17874597687E+02  0.00000000000E+00 0. -1.
</event>
<event>
 7    1  0.7579108E-012  0.5930193E+02  0.7816164E-02  0.1266605E+00
        -11   -1    0    0    0    0  0.00000000000E+00  0.00000000000E+00  0.45593999997E+02  0.45594000000E+02  0.51100000000E-03 0.  1.
         11   -1    0    0    0    0 -0.00000000000E+00 -0.00000000000E+00 -0.45593999997E+02  0.45594000000E+02  0.51100000000E-03 0. -1.
    9900012    2    1    2    0    0 -0.10623640408E+02  0.29723051206E+02 -0.45166552576E+01  0.59301926500E+02  0.49999968033E+02 0.  0.
         12    1    1    2    0    0  0.10623640408E+02 -0.29723051206E+02  0.45166552576E+01  0.31886073500E+02  0.00000000000E+00 0. -1.
         11    1    3    3    0    0 -0.14778602578E+01  0.16156759388E+01 -0.86895592608E+01  0.89611896581E+01  0.51100000000E-03 0. -1.
        -11    1    3    3    0    0 -0.24540287072E+02  0.20925962585E+02  0.73034207889E+01  0.33067530225E+02  0.51100000000E-03 0.  1.
        -12    1    3    3    0    0  0.15394506922E+02  0.71814126821E+01 -0.31305167857E+01  0.17273206617E+02  0.00000000000E+00 0.  1.
</event>
<event>
 7    1  0.7579108E-012  0.5930204E+02  0.7816164E-02  0.1266604E+00
        -11   -1    0    0    0    0  0.00000000000E+00  0.00000000000E+00  0.45593999997E+02  0.45594000000E+02  0.51100000000E-03 0.  1.
         11   -1    0    0    0    0 -0.00000000000E+00 -0.00000000000E+00 -0.45593999997E+02  0.45594000000E+02  0.51100000000E-03 0. -1.
    9900012    2    1    2    0    0 -0.29886816731E+02 -0.52708385020E+01 -0.97831937310E+01  0.59302040200E+02  0.50000175394E+02 0.  0.
         12    1    1    2    0    0  0.29886816731E+02  0.52708385020E+01  0.97831937310E+01  0.31885959800E+02  0.00000000000E+00 0. -1.
         11    1    3    3    0    0  0.26485660733E+01 -0.12785518594E+02  0.89770902437E+01  0.15845268615E+02  0.51100000000E-03 0. -1.
        -11    1    3    3    0    0 -0.25420074338E+02 -0.36080487935E+01 -0.14966860068E+02  0.29718766730E+02  0.51100000000E-03 0.  1.
         12    1    3    3    0    0 -0.71153084666E+01  0.11122728886E+02 -0.37934239069E+01  0.13738004854E+02  0.00000000000E+00 0. -1.
</event>
<event>
 7    1  0.7579108E-012  0.5930193E+02  0.7816164E-02  0.1266605E+00
        -11   -1    0    0    0    0  0.00000000000E+00  0.00000000000E+00  0.45593999997E+02  0.45594000000E+02  0.51100000000E-03 0. -1.
         11   -1    0    0    0    0 -0.00000000000E+00 -0.00000000000E+00 -0.45593999997E+02  0.45594000000E+02  0.51100000000E-03 0.  1.
    9900012    2    1    2    0    0  0.26752384235E+01 -0.29538460406E+02  0.11706576253E+02  0.59301929823E+02  0.49999974094E+02 0.  0.
         12    1    1    2    0    0 -0.26752384235E+01  0.29538460406E+02 -0.11706576253E+02  0.31886070177E+02  0.00000000000E+00 0. -1.
         11    1    3    3    0    0  0.14718148710E+02 -0.27363688278E+02  0.79483622586E+01  0.32071354827E+02  0.51100000000E-03 0. -1.
        -11    1    3    3    0    0  0.35560588820E+00  0.94444749090E+01  0.39349468976E+01  0.10237595870E+02  0.51100000000E-03 0.  1.
         12    1    3    3    0    0 -0.12398516174E+02 -0.11619247037E+02 -0.17673290308E+00  0.16992979125E+02  0.00000000000E+00 0. -1.
</event>
<event>
 7    1  0.7579108E-012  0.5930187E+02  0.7816164E-02  0.1266605E+00
        -11   -1    0    0    0    0  0.00000000000E+00  0.00000000000E+00  0.45593999997E+02  0.45594000000E+02  0.51100000000E-03 0.  1.
         11   -1    0    0    0    0 -0.00000000000E+00 -0.00000000000E+00 -0.45593999997E+02  0.45594000000E+02  0.51100000000E-03 0. -1.
    9900012    2    1    2    0    0  0.33233366975E+01  0.17698044972E+02  0.26314633765E+02  0.59301869585E+02  0.49999864235E+02 0.  0.
         12    1    1    2    0    0 -0.33233366975E+01 -0.17698044972E+02 -0.26314633765E+02  0.31886130415E+02  0.00000000000E+00 0. -1.
         11    1    3    3    0    0 -0.17169979498E+01  0.29327770736E+01 -0.86602635328E+00  0.35070308281E+01  0.51100000000E-03 0. -1.
        -11    1    3    3    0    0  0.23750664646E+02  0.17650234901E+02  0.19040099562E+02  0.35187359304E+02  0.51100000000E-03 0.  1.
        -12    1    3    3    0    0 -0.18710329999E+02 -0.28849670020E+01  0.81405605563E+01  0.20607479454E+02  0.00000000000E+00 0.  1.
</event>
<event>
 7    1  0.7579108E-012  0.5930196E+02  0.7816164E-02  0.1266605E+00
        -11   -1    0    0    0    0  0.00000000000E+00  0.00000000000E+00  0.45593999997E+02  0.45594000000E+02  0.51100000000E-03 0. -1.
         11   -1    0    0    0    0 -0.00000000000E+00 -0.00000000000E+00 -0.45593999997E+02  0.45594000000E+02  0.51100000000E-03 0.  1.
    9900012    2    1    2    0    0  0.11405495038E+02  0.26617870795E+02 -0.13346288445E+02  0.59301956376E+02  0.50000022521E+02 0.  0.
         12    1    1    2    0    0 -0.11405495038E+02 -0.26617870795E+02  0.13346288445E+02  0.31886043624E+02  0.00000000000E+00 0. -1.
         11    1    3    3    0    0  0.44987852160E+01  0.74599499385E+01  0.29678867139E+01  0.92031664829E+01  0.51100000000E-03 0. -1.
        -11    1    3    3    0    0  0.16116829272E+02  0.17075737905E+02 -0.27037888419E+02  0.35810339585E+02  0.51100000000E-03 0.  1.
        -12    1    3    3    0    0 -0.92101194499E+01  0.20821829510E+01  0.10723713260E+02  0.14288450308E+02  0.00000000000E+00 0.  1.
</event>
<event>
 7    1  0.7579108E-012  0.5930195E+02  0.7816164E-02  0.1266605E+00
        -11   -1    0    0    0    0  0.00000000000E+00  0.00000000000E+00  0.45593999997E+02  0.45594000000E+02  0.51100000000E-03 0.  1.
         11   -1    0    0    0    0 -0.00000000000E+00 -0.00000000000E+00 -0.45593999997E+02  0.45594000000E+02  0.51100000000E-03 0. -1.
    9900012    2    1    2    0    0 -0.17468360925E+02 -0.23886858324E+02  0.11874099214E+02  0.59301954994E+02  0.50000019999E+02 0.  0.
         12    1    1    2    0    0  0.17468360925E+02  0.23886858324E+02 -0.11874099214E+02  0.31886045006E+02  0.00000000000E+00 0. -1.
         11    1    3    3    0    0  0.12024949331E+02 -0.22765546158E+02 -0.47689977670E+00  0.25750668573E+02  0.51100000000E-03 0. -1.
        -11    1    3    3    0    0 -0.22769972015E+02  0.34833827846E+01  0.87241051532E+01  0.24631597435E+02  0.51100000000E-03 0.  1.
         12    1    3    3    0    0 -0.67233382418E+01 -0.46046949501E+01  0.36268938372E+01  0.89196889858E+01  0.00000000000E+00 0. -1.
</event>
<event>
 7    1  0.7579108E-012  0.5930174E+02  0.7816164E-02  0.1266605E+00
        -11   -1    0    0    0    0  0.00000000000E+00  0.00000000000E+00  0.45593999997E+02  0.45594000000E+02  0.51100000000E-03 0.  1.
         11   -1    0    0    0    0 -0.00000000000E+00 -0.00000000000E+00 -0.45593999997E+02  0.45594000000E+02  0.51100000000E-03 0. -1.
    9900012    2    1    2    0    0 -0.17767725248E+02 -0.75048862742E+01  0.25391302969E+02  0.59301738931E+02  0.49999625952E+02 0.  0.
         12    1    1    2    0    0  0.17767725248E+02  0.75048862742E+01 -0.25391302969E+02  0.31886261069E+02  0.00000000000E+00 0. -1.
         11    1    3    3    0    0 -0.49053273909E+01  0.10309628864E+02  0.29672301852E+02  0.31793020958E+02  0.51100000000E-03 0. -1.
        -11    1    3    3    0    0 -0.10712949143E+02 -0.53492814623E+01  0.37232738928E+01  0.12539731267E+02  0.51100000000E-03 0.  1.
         12    1    3    3    0    0 -0.21494487141E+01 -0.12465233676E+02 -0.80042727757E+01  0.14968986707E+02  0.00000000000E+00 0. -1.
</event>
<event>
 7    1  0.7579108E-012  0.5930196E+02  0.7816164E-02  0.1266605E+00
        -11   -1    0    0    0    0  0.00000000000E+00  0.00000000000E+00  0.45593999997E+02  0.45594000000E+02  0.51100000000E-03 0. -1.
         11   -1    0    0    0    0 -0.00000000000E+00 -0.00000000000E+00 -0.45593999997E+02  0.45594000000E+02  0.51100000000E-03 0.  1.
    9900012    2    1    2    0    0  0.26609693351E+02 -0.17506166573E+02  0.14758441933E+01  0.59301956590E+02  0.50000022910E+02 0.  0.
         12    1    1    2    0    0 -0.26609693351E+02  0.17506166573E+02 -0.14758441933E+01  0.31886043410E+02  0.00000000000E+00 0. -1.
         11    1    3    3    0    0 -0.18560714546E+01  0.31460474710E+01  0.53468290999E+01  0.64754303038E+01  0.51100000000E-03 0. -1.
        -11    1    3    3    0    0 -0.39829113390E+00 -0.23479279885E+02  0.55132798351E+00  0.23489129029E+02  0.51100000000E-03 0.  1.
        -12    1    3    3    0    0  0.28864055939E+02  0.28270658410E+01 -0.44223128901E+01  0.29337397257E+02  0.00000000000E+00 0.  1.
</event>
<event>
 7    1  0.7579108E-012  0.5930193E+02  0.7816164E-02  0.1266605E+00
        -11   -1    0    0    0    0  0.00000000000E+00  0.00000000000E+00  0.45593999997E+02  0.45594000000E+02  0.51100000000E-03 0.  1.
         11   -1    0    0    0    0 -0.00000000000E+00 -0.00000000000E+00 -0.45593999997E+02  0.45594000000E+02  0.51100000000E-03 0. -1.
    9900012    2    1    2    0    0  0.31764826262E+02 -0.70568309207E+00  0.26868680386E+01  0.59301930378E+02  0.49999975107E+02 0.  0.
         12    1    1    2    0    0 -0.31764826262E+02  0.70568309207E+00 -0.26868680386E+01  0.31886069622E+02  0.00000000000E+00 0. -1.
         11    1    3    3    0    0  0.28582290258E+02 -0.58864125094E+01 -0.13232001638E+02  0.32041895016E+02  0.51100000000E-03 0.  1.
        -11    1    3    3    0    0 -0.18562063426E+01  0.11649822406E+02  0.33683276546E+01  0.12268231149E+02  0.51100000000E-03 0. -1.
         12    1    3    3    0    0  0.50387423464E+01 -0.64690929884E+01  0.12550542022E+02  0.14991804213E+02  0.00000000000E+00 0. -1.
</event>
<event>
 7    1  0.7579108E-012  0.5930192E+02  0.7816164E-02  0.1266605E+00
        -11   -1    0    0    0    0  0.00000000000E+00  0.00000000000E+00  0.45593999997E+02  0.45594000000E+02  0.51100000000E-03 0. -1.
         11   -1    0    0    0    0 -0.00000000000E+00 -0.00000000000E+00 -0.45593999997E+02  0.45594000000E+02  0.51100000000E-03 0.  1.
    9900012    2    1    2    0    0 -0.69707259439E+01  0.30571196578E+02 -0.57907971961E+01  0.59301915064E+02  0.49999947177E+02 0.  0.
         12    1    1    2    0    0  0.69707259439E+01 -0.30571196578E+02  0.57907971961E+01  0.31886084936E+02  0.00000000000E+00 0. -1.
         11    1    3    3    0    0  0.21209885850E+00  0.65182975508E+01  0.12562639486E+02  0.14154614089E+02  0.51100000000E-03 0. -1.
        -11    1    3    3    0    0  0.51177585924E+01  0.57589886230E+01 -0.21537267583E+02  0.22873812497E+02  0.51100000000E-03 0.  1.
        -12    1    3    3    0    0 -0.12300583395E+02  0.18293910404E+02  0.31838309004E+01  0.22273488477E+02  0.00000000000E+00 0.  1.
</event>
<event>
 7    1  0.7579108E-012  0.5930194E+02  0.7816164E-02  0.1266605E+00
        -11   -1    0    0    0    0  0.00000000000E+00  0.00000000000E+00  0.45593999997E+02  0.45594000000E+02  0.51100000000E-03 0.  1.
         11   -1    0    0    0    0 -0.00000000000E+00 -0.00000000000E+00 -0.45593999997E+02  0.45594000000E+02  0.51100000000E-03 0. -1.
    9900012    2    1    2    0    0  0.21019296585E+02 -0.20432562434E+01  0.23890056783E+02  0.59301944457E+02  0.50000000783E+02 0.  0.
         12    1    1    2    0    0 -0.21019296585E+02  0.20432562434E+01 -0.23890056783E+02  0.31886055543E+02  0.00000000000E+00 0. -1.
         11    1    3    3    0    0 -0.41729066687E+01  0.88759987620E+01 -0.42383245668E+01  0.10684563608E+02  0.51100000000E-03 0. -1.
        -11    1    3    3    0    0  0.31033559605E+02 -0.60865941157E+01  0.19598083378E+02  0.37205017431E+02  0.51100000000E-03 0.  1.
         12    1    3    3    0    0 -0.58413563515E+01 -0.48326608897E+01  0.85302979721E+01  0.11412363418E+02  0.00000000000E+00 0. -1.
</event>
<event>
 7    1  0.7579108E-012  0.5930196E+02  0.7816164E-02  0.1266605E+00
        -11   -1    0    0    0    0  0.00000000000E+00  0.00000000000E+00  0.45593999997E+02  0.45594000000E+02  0.51100000000E-03 0.  1.
         11   -1    0    0    0    0 -0.00000000000E+00 -0.00000000000E+00 -0.45593999997E+02  0.45594000000E+02  0.51100000000E-03 0. -1.
    9900012    2    1    2    0    0  0.19673972104E+02 -0.18289952687E+02  0.17179404900E+02  0.59301960730E+02  0.50000030460E+02 0.  0.
         12    1    1    2    0    0 -0.19673972104E+02  0.18289952687E+02 -0.17179404900E+02  0.31886039270E+02  0.00000000000E+00 0. -1.
         11    1    3    3    0    0  0.58696463224E+01  0.30162610814E+01 -0.14359265441E+02  0.15803135230E+02  0.51100000000E-03 0. -1.
        -11    1    3    3    0    0  0.99447909843E+01 -0.18737175355E+02  0.14141290412E+02  0.25494248425E+02  0.51100000000E-03 0.  1.
        -12    1    3    3    0    0  0.38595347970E+01 -0.25690384136E+01  0.17397379929E+02  0.18004577074E+02  0.00000000000E+00 0.  1.
</event>
<event>
 7    1  0.7579108E-012  0.5930198E+02  0.7816164E-02  0.1266605E+00
        -11   -1    0    0    0    0  0.00000000000E+00  0.00000000000E+00  0.45593999997E+02  0.45594000000E+02  0.51100000000E-03 0. -1.
         11   -1    0    0    0    0 -0.00000000000E+00 -0.00000000000E+00 -0.45593999997E+02  0.45594000000E+02  0.51100000000E-03 0.  1.
    9900012    2    1    2    0    0  0.18687331384E+02 -0.25283182371E+02  0.53162397618E+01  0.59301983154E+02  0.50000071358E+02 0.  0.
         12    1    1    2    0    0 -0.18687331384E+02  0.25283182371E+02 -0.53162397618E+01  0.31886016846E+02  0.00000000000E+00 0. -1.
         11    1    3    3    0    0 -0.25055335789E+01  0.91352677959E+01 -0.53353672113E+01  0.10871842519E+02  0.51100000000E-03 0. -1.
        -11    1    3    3    0    0  0.78725456615E+01 -0.27806377327E+02  0.15493600913E+02  0.32790597201E+02  0.51100000000E-03 0.  1.
        -12    1    3    3    0    0  0.13320319301E+02 -0.66120728399E+01 -0.48419939402E+01  0.15639543435E+02  0.00000000000E+00 0.  1.
</event>
<event>
 7    1  0.7579108E-012  0.5930193E+02  0.7816164E-02  0.1266605E+00
        -11   -1    0    0    0    0  0.00000000000E+00  0.00000000000E+00  0.45593999997E+02  0.45594000000E+02  0.51100000000E-03 0.  1.
         11   -1    0    0    0    0 -0.00000000000E+00 -0.00000000000E+00 -0.45593999997E+02  0.45594000000E+02  0.51100000000E-03 0. -1.
    9900012    2    1    2    0    0  0.12169933928E+02  0.26903937224E+02  0.12032976141E+02  0.59301927103E+02  0.49999969133E+02 0.  0.
         12    1    1    2    0    0 -0.12169933928E+02 -0.26903937224E+02 -0.12032976141E+02  0.31886072897E+02  0.00000000000E+00 0. -1.
         11    1    3    3    0    0  0.12913871321E+02 -0.78098880123E+01 -0.44920807230E+01  0.15746149140E+02  0.51100000000E-03 0. -1.
        -11    1    3    3    0    0  0.46632897625E+01  0.21698517674E+02  0.19036766179E+02  0.29239877009E+02  0.51100000000E-03 0.  1.
         12    1    3    3    0    0 -0.54072271554E+01  0.13015307562E+02 -0.25117093150E+01  0.14315900955E+02  0.00000000000E+00 0. -1.
</event>
<event>
 7    1  0.7579108E-012  0.5930190E+02  0.7816164E-02  0.1266605E+00
        -11   -1    0    0    0    0  0.00000000000E+00  0.00000000000E+00  0.45593999997E+02  0.45594000000E+02  0.51100000000E-03 0. -1.
         11   -1    0    0    0    0 -0.00000000000E+00 -0.00000000000E+00 -0.45593999997E+02  0.45594000000E+02  0.51100000000E-03 0.  1.
    9900012    2    1    2    0    0  0.16528079231E+02 -0.27217761108E+02 -0.16550848623E+01  0.59301902266E+02  0.49999923836E+02 0.  0.
         12    1    1    2    0    0 -0.16528079231E+02  0.27217761108E+02  0.16550848623E+01  0.31886097734E+02  0.00000000000E+00 0. -1.
         11    1    3    3    0    0  0.23187130698E+01  0.97744054277E+01  0.15779576022E+01  0.10168843701E+02  0.51100000000E-03 0. -1.
        -11    1    3    3    0    0  0.19575105114E+02 -0.10964214534E+02 -0.87977776541E+00  0.22453791434E+02  0.51100000000E-03 0.  1.
         12    1    3    3    0    0 -0.53657389528E+01 -0.26027952002E+02 -0.23532646991E+01  0.26679267131E+02  0.00000000000E+00 0. -1.
</event>
<event>
 7    1  0.7579108E-012  0.5930192E+02  0.7816164E-02  0.1266605E+00
        -11   -1    0    0    0    0  0.00000000000E+00  0.00000000000E+00  0.45593999997E+02  0.45594000000E+02  0.51100000000E-03 0.  1.
         11   -1    0    0    0    0 -0.00000000000E+00 -0.00000000000E+00 -0.45593999997E+02  0.45594000000E+02  0.51100000000E-03 0. -1.
    9900012    2    1    2    0    0  0.47335262822E+01  0.18623842776E+02  0.25445394880E+02  0.59301922922E+02  0.49999961509E+02 0.  0.
         12    1    1    2    0    0 -0.47335262822E+01 -0.18623842776E+02 -0.25445394880E+02  0.31886077078E+02  0.00000000000E+00 0. -1.
         11    1    3    3    0    0  0.12649207681E+02 -0.55795814232E+01  0.34638937992E+01  0.14252464500E+02  0.51100000000E-03 0. -1.
        -11    1    3    3    0    0 -0.11721719034E+02  0.29645351311E+02  0.14427346427E+02  0.34991340024E+02  0.51100000000E-03 0.  1.
        -12    1    3    3    0    0  0.38060376355E+01 -0.54419271121E+01  0.75541546538E+01  0.10058118398E+02  0.00000000000E+00 0.  1.
</event>
<event>
 7    1  0.7579108E-012  0.5930189E+02  0.7816164E-02  0.1266605E+00
        -11   -1    0    0    0    0  0.00000000000E+00  0.00000000000E+00  0.45593999997E+02  0.45594000000E+02  0.51100000000E-03 0.  1.
         11   -1    0    0    0    0 -0.00000000000E+00 -0.00000000000E+00 -0.45593999997E+02  0.45594000000E+02  0.51100000000E-03 0. -1.
    9900012    2    1    2    0    0 -0.74800507898E+01 -0.62179700647E+01  0.30366255578E+02  0.59301893474E+02  0.49999907803E+02 0.  0.
         12    1    1    2    0    0  0.74800507898E+01  0.62179700647E+01 -0.30366255578E+02  0.31886106526E+02  0.00000000000E+00 0. -1.
         11    1    3    3    0    0 -0.43751922607E+01  0.20795650555E+02  0.16655432267E+02  0.27000089141E+02  0.51100000000E-03 0. -1.
        -11    1    3    3    0    0 -0.24519135825E+01 -0.18970318573E+02  0.14764542933E+02  0.24163538550E+02  0.51100000000E-03 0.  1.
         12    1    3    3    0    0 -0.65294494659E+00 -0.80433020468E+01 -0.10537196227E+01  0.81382657835E+01  0.00000000000E+00 0. -1.
</event>
<event>
 7    1  0.7579108E-012  0.5930194E+02  0.7816164E-02  0.1266605E+00
        -11   -1    0    0    0    0  0.00000000000E+00  0.00000000000E+00  0.45593999997E+02  0.45594000000E+02  0.51100000000E-03 0.  1.
         11   -1    0    0    0    0 -0.00000000000E+00 -0.00000000000E+00 -0.45593999997E+02  0.45594000000E+02  0.51100000000E-03 0. -1.
    9900012    2    1    2    0    0 -0.16486917783E+02  0.23802494098E+02  0.13354537950E+02  0.59301939298E+02  0.49999991374E+02 0.  0.
         12    1    1    2    0    0  0.16486917783E+02 -0.23802494098E+02 -0.13354537950E+02  0.31886060702E+02  0.00000000000E+00 0. -1.
         11    1    3    3    0    0  0.45514711121E+01  0.29506555284E+02  0.10945616201E+02  0.31798729665E+02  0.51100000000E-03 0. -1.
        -11    1    3    3    0    0 -0.92681646109E+01  0.54926375058E+01 -0.12659664197E+01  0.10847608643E+02  0.51100000000E-03 0.  1.
         12    1    3    3    0    0 -0.11770224284E+02 -0.11196698692E+02  0.36748881687E+01  0.16655600991E+02  0.00000000000E+00 0. -1.
</event>
<event>
 7    1  0.7579108E-012  0.5930196E+02  0.7816164E-02  0.1266605E+00
        -11   -1    0    0    0    0  0.00000000000E+00  0.00000000000E+00  0.45593999997E+02  0.45594000000E+02  0.51100000000E-03 0. -1.
         11   -1    0    0    0    0 -0.00000000000E+00 -0.00000000000E+00 -0.45593999997E+02  0.45594000000E+02  0.51100000000E-03 0.  1.
    9900012    2    1    2    0    0  0.27757599914E+02  0.14254246655E+01 -0.15627005023E+02  0.59301961135E+02  0.50000031200E+02 0.  0.
         12    1    1    2    0    0 -0.27757599914E+02 -0.14254246655E+01  0.15627005023E+02  0.31886038865E+02  0.00000000000E+00 0. -1.
         11    1    3    3    0    0  0.28292515649E+02  0.79940559094E+01 -0.11158317430E+02  0.31446453215E+02  0.51100000000E-03 0. -1.
        -11    1    3    3    0    0 -0.30478830231E+01  0.90165297535E+01 -0.70697929558E+01  0.11856195529E+02  0.51100000000E-03 0.  1.
         12    1    3    3    0    0  0.25129672884E+01 -0.15585160997E+02  0.26011053633E+01  0.15999312392E+02  0.00000000000E+00 0. -1.
</event>
<event>
 7    1  0.7579108E-012  0.5930197E+02  0.7816164E-02  0.1266605E+00
        -11   -1    0    0    0    0  0.00000000000E+00  0.00000000000E+00  0.45593999997E+02  0.45594000000E+02  0.51100000000E-03 0. -1.
         11   -1    0    0    0    0 -0.00000000000E+00 -0.00000000000E+00 -0.45593999997E+02  0.45594000000E+02  0.51100000000E-03 0.  1.
    9900012    2    1    2    0    0 -0.31652922649E+02  0.12356542269E+01  0.36448220157E+01  0.59301967303E+02  0.50000042449E+02 0.  0.
         12    1    1    2    0    0  0.31652922649E+02 -0.12356542269E+01 -0.36448220157E+01  0.31886032697E+02  0.00000000000E+00 0. -1.
         11    1    3    3    0    0 -0.25278282044E+01  0.17939988854E+02 -0.12059870904E+02  0.21764043787E+02  0.51100000000E-03 0. -1.
        -11    1    3    3    0    0 -0.12996585347E+02 -0.79265462965E+01  0.10358608595E+02  0.18413096947E+02  0.51100000000E-03 0.  1.
         12    1    3    3    0    0 -0.16128509098E+02 -0.87777883304E+01  0.53460843239E+01  0.19124826569E+02  0.00000000000E+00 0. -1.
</event>
<event>
 7    1  0.7579108E-012  0.5930194E+02  0.7816164E-02  0.1266605E+00
        -11   -1    0    0    0    0  0.00000000000E+00  0.00000000000E+00  0.45593999997E+02  0.45594000000E+02  0.51100000000E-03 0.  1.
         11   -1    0    0    0    0 -0.00000000000E+00 -0.00000000000E+00 -0.45593999997E+02  0.45594000000E+02  0.51100000000E-03 0. -1.
    9900012    2    1    2    0    0 -0.13369580309E+02  0.18772427174E+02  0.22035684111E+02  0.59301936056E+02  0.49999985461E+02 0.  0.
         12    1    1    2    0    0  0.13369580309E+02 -0.18772427174E+02 -0.22035684111E+02  0.31886063944E+02  0.00000000000E+00 0. -1.
         11    1    3    3    0    0  0.14675976198E+02  0.79849102465E+01  0.16584017802E+02  0.23540873300E+02  0.51100000000E-03 0. -1.
        -11    1    3    3    0    0 -0.92352326252E+01  0.11033454003E+02  0.84882937352E+01  0.16705620601E+02  0.51100000000E-03 0.  1.
         12    1    3    3    0    0 -0.18810323882E+02 -0.24593707558E+00 -0.30366274258E+01  0.19055442155E+02  0.00000000000E+00 0. -1.
</event>
<event>
 7    1  0.7579108E-012  0.5930195E+02  0.7816164E-02  0.1266605E+00
        -11   -1    0    0    0    0  0.00000000000E+00  0.00000000000E+00  0.45593999997E+02  0.45594000000E+02  0.51100000000E-03 0.  1.
         11   -1    0    0    0    0 -0.00000000000E+00 -0.00000000000E+00 -0.45593999997E+02  0.45594000000E+02  0.51100000000E-03 0. -1.
    9900012    2    1    2    0    0 -0.32112271065E+01 -0.10149765968E+02  0.30056454984E+02  0.59301949524E+02  0.50000010025E+02 0.  0.
         12    1    1    2    0    0  0.32112271065E+01  0.10149765968E+02 -0.30056454984E+02  0.31886050476E+02  0.00000000000E+00 0. -1.
         11    1    3    3    0    0  0.43924297273E+01 -0.48951432467E+01 -0.75553518739E+01  0.10016946067E+02  0.51100000000E-03 0. -1.
        -11    1    3    3    0    0  0.51562932132E+01 -0.66645425427E+00  0.35114324787E+02  0.35497145329E+02  0.51100000000E-03 0.  1.
        -12    1    3    3    0    0 -0.12759950047E+02 -0.45881684666E+01  0.24974820707E+01  0.13787858128E+02  0.00000000000E+00 0.  1.
</event>
<event>
 7    1  0.7579108E-012  0.5930189E+02  0.7816164E-02  0.1266605E+00
        -11   -1    0    0    0    0  0.00000000000E+00  0.00000000000E+00  0.45593999997E+02  0.45594000000E+02  0.51100000000E-03 0.  1.
         11   -1    0    0    0    0 -0.00000000000E+00 -0.00000000000E+00 -0.45593999997E+02  0.45594000000E+02  0.51100000000E-03 0. -1.
    9900012    2    1    2    0    0 -0.97931647839E+01 -0.27466483756E+02  0.12900013982E+02  0.59301887550E+02  0.49999896998E+02 0.  0.
         12    1    1    2    0    0  0.97931647839E+01  0.27466483756E+02 -0.12900013982E+02  0.31886112450E+02  0.00000000000E+00 0. -1.
         11    1    3    3    0    0 -0.73344767436E+01 -0.30749470788E+01 -0.64768134356E+01  0.10256654483E+02  0.51100000000E-03 0. -1.
        -11    1    3    3    0    0  0.63610691221E+01 -0.29869053347E+02  0.22802190999E+02  0.38112510582E+02  0.51100000000E-03 0.  1.
        -12    1    3    3    0    0 -0.88197571624E+01  0.54775166697E+01 -0.34253635816E+01  0.10932722485E+02  0.00000000000E+00 0.  1.
</event>
<event>
 7    1  0.7579108E-012  0.5930201E+02  0.7816164E-02  0.1266605E+00
        -11   -1    0    0    0    0  0.00000000000E+00  0.00000000000E+00  0.45593999997E+02  0.45594000000E+02  0.51100000000E-03 0. -1.
         11   -1    0    0    0    0 -0.00000000000E+00 -0.00000000000E+00 -0.45593999997E+02  0.45594000000E+02  0.51100000000E-03 0.  1.
    9900012    2    1    2    0    0 -0.19537969484E+02  0.16192298775E+02 -0.19307857025E+02  0.59302013515E+02  0.50000126729E+02 0.  0.
         12    1    1    2    0    0  0.19537969484E+02 -0.16192298775E+02  0.19307857025E+02  0.31885986485E+02  0.00000000000E+00 0. -1.
         11    1    3    3    0    0  0.10972240567E+02 -0.93568337514E+00  0.64391164287E+01  0.12756480200E+02  0.51100000000E-03 0. -1.
        -11    1    3    3    0    0 -0.23725332342E+02  0.42717991977E+01 -0.14177245121E+02  0.27966657695E+02  0.51100000000E-03 0.  1.
         12    1    3    3    0    0 -0.67848777097E+01  0.12856182952E+02 -0.11569728333E+02  0.18578875621E+02  0.00000000000E+00 0. -1.
</event>
<event>
 7    1  0.7579108E-012  0.5930195E+02  0.7816164E-02  0.1266605E+00
        -11   -1    0    0    0    0  0.00000000000E+00  0.00000000000E+00  0.45593999997E+02  0.45594000000E+02  0.51100000000E-03 0.  1.
         11   -1    0    0    0    0 -0.00000000000E+00 -0.00000000000E+00 -0.45593999997E+02  0.45594000000E+02  0.51100000000E-03 0. -1.
    9900012    2    1    2    0    0 -0.17768103280E+02 -0.20951356202E+02  0.16188125819E+02  0.59301949156E+02  0.50000009352E+02 0.  0.
         12    1    1    2    0    0  0.17768103280E+02  0.20951356202E+02 -0.16188125819E+02  0.31886050844E+02  0.00000000000E+00 0. -1.
         11    1    3    3    0    0 -0.19184174152E+02 -0.26319371392E+00 -0.15758135202E+01  0.19250584337E+02  0.51100000000E-03 0. -1.
        -11    1    3    3    0    0  0.25589341302E+00 -0.28229179449E+02  0.13236148885E+02  0.31179283048E+02  0.51100000000E-03 0.  1.
        -12    1    3    3    0    0  0.11601774583E+01  0.75410169610E+01  0.45277904545E+01  0.88720817705E+01  0.00000000000E+00 0.  1.
</event>
<event>
 7    1  0.7579108E-012  0.5930195E+02  0.7816164E-02  0.1266605E+00
        -11   -1    0    0    0    0  0.00000000000E+00  0.00000000000E+00  0.45593999997E+02  0.45594000000E+02  0.51100000000E-03 0.  1.
         11   -1    0    0    0    0 -0.00000000000E+00 -0.00000000000E+00 -0.45593999997E+02  0.45594000000E+02  0.51100000000E-03 0. -1.
    9900012    2    1    2    0    0 -0.25859044131E+02 -0.35192500515E+01  0.18320608668E+02  0.59301953110E+02  0.50000016564E+02 0.  0.
         12    1    1    2    0    0  0.25859044131E+02  0.35192500515E+01 -0.18320608668E+02  0.31886046890E+02  0.00000000000E+00 0. -1.
         11    1    3    3    0    0 -0.21937793609E+02 -0.37577173091E+01  0.31391612242E+02  0.38481431200E+02  0.51100000000E-03 0. -1.
        -11    1    3    3    0    0  0.30311593052E+01  0.12448393622E+01  0.22438036541E+01  0.39714237838E+01  0.51100000000E-03 0.  1.
         12    1    3    3    0    0 -0.69524098270E+01 -0.10063721047E+01 -0.15314807228E+02  0.16849098126E+02  0.00000000000E+00 0. -1.
</event>
<event>
 7    1  0.7579108E-012  0.5930193E+02  0.7816164E-02  0.1266605E+00
        -11   -1    0    0    0    0  0.00000000000E+00  0.00000000000E+00  0.45593999997E+02  0.45594000000E+02  0.51100000000E-03 0.  1.
         11   -1    0    0    0    0 -0.00000000000E+00 -0.00000000000E+00 -0.45593999997E+02  0.45594000000E+02  0.51100000000E-03 0. -1.
    9900012    2    1    2    0    0 -0.18261314161E+02  0.42921919122E+01  0.25784158314E+02  0.59301932098E+02  0.49999978243E+02 0.  0.
         12    1    1    2    0    0  0.18261314161E+02 -0.42921919122E+01 -0.25784158314E+02  0.31886067902E+02  0.00000000000E+00 0. -1.
         11    1    3    3    0    0  0.30788209431E+01  0.14155198844E+02  0.91946501394E+01  0.17157808256E+02  0.51100000000E-03 0. -1.
        -11    1    3    3    0    0 -0.13903472012E+02 -0.13731625107E+02  0.24004249057E+02  0.30952674119E+02  0.51100000000E-03 0.  1.
        -12    1    3    3    0    0 -0.74366630922E+01  0.38686181759E+01 -0.74147408830E+01  0.11191449723E+02  0.00000000000E+00 0.  1.
</event>
<event>
 7    1  0.7579108E-012  0.5930191E+02  0.7816164E-02  0.1266605E+00
        -11   -1    0    0    0    0  0.00000000000E+00  0.00000000000E+00  0.45593999997E+02  0.45594000000E+02  0.51100000000E-03 0.  1.
         11   -1    0    0    0    0 -0.00000000000E+00 -0.00000000000E+00 -0.45593999997E+02  0.45594000000E+02  0.51100000000E-03 0. -1.
    9900012    2    1    2    0    0 -0.15786463140E+02  0.28672194610E+01  0.27555208667E+02  0.59301907568E+02  0.49999933506E+02 0.  0.
         12    1    1    2    0    0  0.15786463140E+02 -0.28672194610E+01 -0.27555208667E+02  0.31886092432E+02  0.00000000000E+00 0. -1.
         11    1    3    3    0    0 -0.22393613900E+02  0.32772923983E+01  0.68105973749E+01  0.23634695383E+02  0.51100000000E-03 0. -1.
        -11    1    3    3    0    0  0.29390283358E+01  0.12707391280E+02  0.17212572298E+02  0.21596025701E+02  0.51100000000E-03 0.  1.
        -12    1    3    3    0    0  0.36681224241E+01 -0.13117464217E+02  0.35320389945E+01  0.14071186484E+02  0.00000000000E+00 0.  1.
</event>
<event>
 7    1  0.7579108E-012  0.5930195E+02  0.7816164E-02  0.1266605E+00
        -11   -1    0    0    0    0  0.00000000000E+00  0.00000000000E+00  0.45593999997E+02  0.45594000000E+02  0.51100000000E-03 0.  1.
         11   -1    0    0    0    0 -0.00000000000E+00 -0.00000000000E+00 -0.45593999997E+02  0.45594000000E+02  0.51100000000E-03 0. -1.
    9900012    2    1    2    0    0  0.11428789946E+02  0.57203444712E+01  0.29212683020E+02  0.59301946156E+02  0.50000003882E+02 0.  0.
         12    1    1    2    0    0 -0.11428789946E+02 -0.57203444712E+01 -0.29212683020E+02  0.31886053844E+02  0.00000000000E+00 0. -1.
         11    1    3    3    0    0  0.20457521806E+01  0.22271805783E+02  0.41781781155E+01  0.22752485742E+02  0.51100000000E-03 0. -1.
        -11    1    3    3    0    0  0.77717823999E+01  0.18575452191E+01  0.94525689591E+01  0.12377485047E+02  0.51100000000E-03 0.  1.
         12    1    3    3    0    0  0.16112553659E+01 -0.18409006531E+02  0.15581935945E+02  0.24171975366E+02  0.00000000000E+00 0. -1.
</event>
<event>
 7    1  0.7579108E-012  0.5930190E+02  0.7816164E-02  0.1266605E+00
        -11   -1    0    0    0    0  0.00000000000E+00  0.00000000000E+00  0.45593999997E+02  0.45594000000E+02  0.51100000000E-03 0.  1.
         11   -1    0    0    0    0 -0.00000000000E+00 -0.00000000000E+00 -0.45593999997E+02  0.45594000000E+02  0.51100000000E-03 0. -1.
    9900012    2    1    2    0    0  0.21285180046E+02 -0.20869667325E+02  0.11319078092E+02  0.59301899067E+02  0.49999918003E+02 0.  0.
         12    1    1    2    0    0 -0.21285180046E+02  0.20869667325E+02 -0.11319078092E+02  0.31886100933E+02  0.00000000000E+00 0. -1.
         11    1    3    3    0    0  0.31685180796E+02 -0.24581478730E+02  0.19560281040E+01  0.40150041405E+02  0.51100000000E-03 0. -1.
        -11    1    3    3    0    0 -0.59585370277E+01  0.17152540812E+01  0.12077973266E+02  0.13576586410E+02  0.51100000000E-03 0.  1.
         12    1    3    3    0    0 -0.44414637221E+01  0.19965573234E+01 -0.27149232775E+01  0.55752712528E+01  0.00000000000E+00 0. -1.
</event>
<event>
 7    1  0.7579108E-012  0.5930196E+02  0.7816164E-02  0.1266605E+00
        -11   -1    0    0    0    0  0.00000000000E+00  0.00000000000E+00  0.45593999997E+02  0.45594000000E+02  0.51100000000E-03 0. -1.
         11   -1    0    0    0    0 -0.00000000000E+00 -0.00000000000E+00 -0.45593999997E+02  0.45594000000E+02  0.51100000000E-03 0.  1.
    9900012    2    1    2    0    0 -0.24298812754E+02 -0.19007412511E+02 -0.80626072075E+01  0.59301958122E+02  0.50000025705E+02 0.  0.
         12    1    1    2    0    0  0.24298812754E+02  0.19007412511E+02  0.80626072075E+01  0.31886041878E+02  0.00000000000E+00 0. -1.
         11    1    3    3    0    0  0.95568581232E+01 -0.56316308556E+01 -0.85941132570E+01  0.14032376357E+02  0.51100000000E-03 0. -1.
        -11    1    3    3    0    0 -0.16520070240E+02 -0.13793614534E+02 -0.11270223701E+02  0.24293918275E+02  0.51100000000E-03 0.  1.
         12    1    3    3    0    0 -0.17335600638E+02  0.41783287796E+00  0.11801729750E+02  0.20975663491E+02  0.00000000000E+00 0. -1.
</event>
<event>
 7    1  0.7579108E-012  0.5930175E+02  0.7816164E-02  0.1266605E+00
        -11   -1    0    0    0    0  0.00000000000E+00  0.00000000000E+00  0.45593999997E+02  0.45594000000E+02  0.51100000000E-03 0.  1.
         11   -1    0    0    0    0 -0.00000000000E+00 -0.00000000000E+00 -0.45593999997E+02  0.45594000000E+02  0.51100000000E-03 0. -1.
    9900012    2    1    2    0    0  0.19608618550E+02 -0.13978668913E+02  0.20900518397E+02  0.59301752568E+02  0.49999650823E+02 0.  0.
         12    1    1    2    0    0 -0.19608618550E+02  0.13978668913E+02 -0.20900518397E+02  0.31886247432E+02  0.00000000000E+00 0. -1.
         11    1    3    3    0    0  0.23202454514E+01 -0.21468543516E+02  0.17497488141E+02  0.27792876627E+02  0.51100000000E-03 0. -1.
        -11    1    3    3    0    0  0.19825554254E+02 -0.32067254534E+01  0.29810802535E+00  0.20085431494E+02  0.51100000000E-03 0.  1.
         12    1    3    3    0    0 -0.25371811562E+01  0.10696600057E+02  0.31049222306E+01  0.11423444448E+02  0.00000000000E+00 0. -1.
</event>
<event>
 7    1  0.7579108E-012  0.5930196E+02  0.7816164E-02  0.1266605E+00
        -11   -1    0    0    0    0  0.00000000000E+00  0.00000000000E+00  0.45593999997E+02  0.45594000000E+02  0.51100000000E-03 0.  1.
         11   -1    0    0    0    0 -0.00000000000E+00 -0.00000000000E+00 -0.45593999997E+02  0.45594000000E+02  0.51100000000E-03 0. -1.
    9900012    2    1    2    0    0 -0.15062760128E+02 -0.26533541063E+02 -0.92630405462E+01  0.59301961297E+02  0.50000031495E+02 0.  0.
         12    1    1    2    0    0  0.15062760128E+02  0.26533541063E+02  0.92630405462E+01  0.31886038703E+02  0.00000000000E+00 0. -1.
         11    1    3    3    0    0 -0.20260189008E+02 -0.24648659597E+02 -0.23630258279E+02  0.39704165841E+02  0.51100000000E-03 0. -1.
        -11    1    3    3    0    0  0.42238005559E+01 -0.41347767109E+01  0.15722320684E+02  0.16796673407E+02  0.51100000000E-03 0.  1.
        -12    1    3    3    0    0  0.97362832468E+00  0.22498952444E+01 -0.13551029508E+01  0.28011220489E+01  0.00000000000E+00 0.  1.
</event>
<event>
 7    1  0.7579108E-012  0.5930195E+02  0.7816164E-02  0.1266605E+00
        -11   -1    0    0    0    0  0.00000000000E+00  0.00000000000E+00  0.45593999997E+02  0.45594000000E+02  0.51100000000E-03 0.  1.
         11   -1    0    0    0    0 -0.00000000000E+00 -0.00000000000E+00 -0.45593999997E+02  0.45594000000E+02  0.51100000000E-03 0. -1.
    9900012    2    1    2    0    0 -0.60269884010E+00 -0.25943575219E+02  0.18528030644E+02  0.59301948808E+02  0.50000008718E+02 0.  0.
         12    1    1    2    0    0  0.60269884010E+00  0.25943575219E+02 -0.18528030644E+02  0.31886051192E+02  0.00000000000E+00 0. -1.
         11    1    3    3    0    0  0.17754530491E+02 -0.98004442789E+01  0.11743459318E+02  0.23434608980E+02  0.51100000000E-03 0. -1.
        -11    1    3    3    0    0 -0.37496135785E+01 -0.13216450555E+02 -0.71334016297E+01  0.15479650717E+02  0.51100000000E-03 0.  1.
        -12    1    3    3    0    0 -0.14607615753E+02 -0.29266803855E+01  0.13917972956E+02  0.20387689111E+02  0.00000000000E+00 0.  1.
</event>
<event>
 7    1  0.7579108E-012  0.5930208E+02  0.7816164E-02  0.1266604E+00
        -11   -1    0    0    0    0  0.00000000000E+00  0.00000000000E+00  0.45593999997E+02  0.45594000000E+02  0.51100000000E-03 0.  1.
         11   -1    0    0    0    0 -0.00000000000E+00 -0.00000000000E+00 -0.45593999997E+02  0.45594000000E+02  0.51100000000E-03 0. -1.
    9900012    2    1    2    0    0  0.18490341341E+02 -0.12317145050E+02  0.22871537893E+02  0.59302077860E+02  0.50000244078E+02 0.  0.
         12    1    1    2    0    0 -0.18490341341E+02  0.12317145050E+02 -0.22871537893E+02  0.31885922140E+02  0.00000000000E+00 0. -1.
         11    1    3    3    0    0  0.46616463530E+01 -0.24401192511E+02  0.52742745709E+01  0.25396202771E+02  0.51100000000E-03 0. -1.
        -11    1    3    3    0    0  0.18385643075E+02  0.28938927144E+01  0.98999950077E+01  0.21081185634E+02  0.51100000000E-03 0.  1.
        -12    1    3    3    0    0 -0.45569480869E+01  0.91901547464E+01  0.76972683146E+01  0.12824689456E+02  0.00000000000E+00 0.  1.
</event>
<event>
 7    1  0.7579108E-012  0.5930198E+02  0.7816164E-02  0.1266605E+00
        -11   -1    0    0    0    0  0.00000000000E+00  0.00000000000E+00  0.45593999997E+02  0.45594000000E+02  0.51100000000E-03 0.  1.
         11   -1    0    0    0    0 -0.00000000000E+00 -0.00000000000E+00 -0.45593999997E+02  0.45594000000E+02  0.51100000000E-03 0. -1.
    9900012    2    1    2    0    0 -0.19429531013E+02  0.57276923290E+00  0.25276139402E+02  0.59301984836E+02  0.50000074424E+02 0.  0.
         12    1    1    2    0    0  0.19429531013E+02 -0.57276923290E+00 -0.25276139402E+02  0.31886015164E+02  0.00000000000E+00 0. -1.
         11    1    3    3    0    0 -0.24810423725E+01 -0.18371439873E+02  0.84456061590E+00  0.18557442096E+02  0.51100000000E-03 0. -1.
        -11    1    3    3    0    0 -0.19403049825E+02  0.81175202437E+01  0.12589672791E+02  0.24512697498E+02  0.51100000000E-03 0.  1.
         12    1    3    3    0    0  0.24545611843E+01  0.10826688862E+02  0.11841905995E+02  0.16231845241E+02  0.00000000000E+00 0. -1.
</event>
<event>
 7    1  0.7579108E-012  0.5930194E+02  0.7816164E-02  0.1266605E+00
        -11   -1    0    0    0    0  0.00000000000E+00  0.00000000000E+00  0.45593999997E+02  0.45594000000E+02  0.51100000000E-03 0.  1.
         11   -1    0    0    0    0 -0.00000000000E+00 -0.00000000000E+00 -0.45593999997E+02  0.45594000000E+02  0.51100000000E-03 0. -1.
    9900012    2    1    2    0    0  0.15597378145E+02  0.27157730686E+02 -0.59917019119E+01  0.59301936699E+02  0.49999986634E+02 0.  0.
         12    1    1    2    0    0 -0.15597378145E+02 -0.27157730686E+02  0.59917019119E+01  0.31886063301E+02  0.00000000000E+00 0. -1.
         11    1    3    3    0    0  0.15465328458E+02  0.94528016319E+01 -0.10450867380E+02  0.20922535034E+02  0.51100000000E-03 0. -1.
        -11    1    3    3    0    0  0.18785562622E+01 -0.94453841414E+01  0.56162350550E+01  0.11148378881E+02  0.51100000000E-03 0.  1.
        -12    1    3    3    0    0 -0.17465065745E+01  0.27150313196E+02 -0.11570695869E+01  0.27231022784E+02  0.00000000000E+00 0.  1.
</event>
<event>
 7    1  0.7579108E-012  0.5930183E+02  0.7816164E-02  0.1266605E+00
        -11   -1    0    0    0    0  0.00000000000E+00  0.00000000000E+00  0.45593999997E+02  0.45594000000E+02  0.51100000000E-03 0.  1.
         11   -1    0    0    0    0 -0.00000000000E+00 -0.00000000000E+00 -0.45593999997E+02  0.45594000000E+02  0.51100000000E-03 0. -1.
    9900012    2    1    2    0    0 -0.18653554753E+02  0.51157259482E+01  0.25349599436E+02  0.59301828256E+02  0.49999788860E+02 0.  0.
         12    1    1    2    0    0  0.18653554753E+02 -0.51157259482E+01 -0.25349599436E+02  0.31886171744E+02  0.00000000000E+00 0. -1.
         11    1    3    3    0    0  0.42654224984E+01  0.21549888915E+02  0.10979528822E+02  0.24558941238E+02  0.51100000000E-03 0.  1.
        -11    1    3    3    0    0 -0.15515924778E+02 -0.43040378532E+01  0.26411051858E+01  0.16316988093E+02  0.51100000000E-03 0. -1.
        -12    1    3    3    0    0 -0.74030524740E+01 -0.12130125113E+02  0.11728965428E+02  0.18425898925E+02  0.00000000000E+00 0.  1.
</event>
<event>
 7    1  0.7579108E-012  0.5930194E+02  0.7816164E-02  0.1266605E+00
        -11   -1    0    0    0    0  0.00000000000E+00  0.00000000000E+00  0.45593999997E+02  0.45594000000E+02  0.51100000000E-03 0. -1.
         11   -1    0    0    0    0 -0.00000000000E+00 -0.00000000000E+00 -0.45593999997E+02  0.45594000000E+02  0.51100000000E-03 0.  1.
    9900012    2    1    2    0    0 -0.24671180153E+02  0.99640212346E+01 -0.17571902452E+02  0.59301943407E+02  0.49999998868E+02 0.  0.
         12    1    1    2    0    0  0.24671180153E+02 -0.99640212346E+01  0.17571902452E+02  0.31886056593E+02  0.00000000000E+00 0. -1.
         11    1    3    3    0    0 -0.27214507756E+02  0.43437396553E+01 -0.22553391279E+02  0.35611135407E+02  0.51100000000E-03 0. -1.
        -11    1    3    3    0    0  0.27481762343E+01 -0.59123185447E+01  0.93143008990E+01  0.11369440826E+02  0.51100000000E-03 0.  1.
         12    1    3    3    0    0 -0.20484863147E+00  0.11532600124E+02 -0.43328120719E+01  0.12321367174E+02  0.00000000000E+00 0. -1.
</event>
<event>
 7    1  0.7579108E-012  0.5930172E+02  0.7816164E-02  0.1266606E+00
        -11   -1    0    0    0    0  0.00000000000E+00  0.00000000000E+00  0.45593999997E+02  0.45594000000E+02  0.51100000000E-03 0. -1.
         11   -1    0    0    0    0 -0.00000000000E+00 -0.00000000000E+00 -0.45593999997E+02  0.45594000000E+02  0.51100000000E-03 0.  1.
    9900012    2    1    2    0    0 -0.12341056700E+02 -0.24340760054E+02 -0.16491222241E+02  0.59301722520E+02  0.49999596022E+02 0.  0.
         12    1    1    2    0    0  0.12341056700E+02  0.24340760054E+02  0.16491222241E+02  0.31886277480E+02  0.00000000000E+00 0. -1.
         11    1    3    3    0    0 -0.19666481708E+02 -0.25782118725E+02 -0.17133807606E+02  0.36674998460E+02  0.51100000000E-03 0. -1.
        -11    1    3    3    0    0  0.98597064854E+01  0.13907022291E+01 -0.85293475669E+01  0.13110973833E+02  0.51100000000E-03 0.  1.
         12    1    3    3    0    0 -0.25342814774E+01  0.50656441926E-01  0.91719329317E+01  0.95157502272E+01  0.00000000000E+00 0. -1.
</event>
<event>
 7    1  0.7579108E-012  0.5930192E+02  0.7816164E-02  0.1266605E+00
        -11   -1    0    0    0    0  0.00000000000E+00  0.00000000000E+00  0.45593999997E+02  0.45594000000E+02  0.51100000000E-03 0.  1.
         11   -1    0    0    0    0 -0.00000000000E+00 -0.00000000000E+00 -0.45593999997E+02  0.45594000000E+02  0.51100000000E-03 0. -1.
    9900012    2    1    2    0    0 -0.19653080084E+02  0.16330046000E+02  0.19073754102E+02  0.59301920675E+02  0.49999957411E+02 0.  0.
         12    1    1    2    0    0  0.19653080084E+02 -0.16330046000E+02 -0.19073754102E+02  0.31886079325E+02  0.00000000000E+00 0. -1.
         11    1    3    3    0    0 -0.22616077701E+00  0.47980064111E+01 -0.12739247489E+02  0.13614714138E+02  0.51100000000E-03 0. -1.
        -11    1    3    3    0    0  0.14218377225E+01  0.10398227209E+02  0.17386407191E+02  0.20308419606E+02  0.51100000000E-03 0.  1.
        -12    1    3    3    0    0 -0.20848757029E+02  0.11338123801E+01  0.14426594399E+02  0.25378786932E+02  0.00000000000E+00 0.  1.
</event>
<event>
 7    1  0.7579108E-012  0.5930194E+02  0.7816164E-02  0.1266605E+00
        -11   -1    0    0    0    0  0.00000000000E+00  0.00000000000E+00  0.45593999997E+02  0.45594000000E+02  0.51100000000E-03 0. -1.
         11   -1    0    0    0    0 -0.00000000000E+00 -0.00000000000E+00 -0.45593999997E+02  0.45594000000E+02  0.51100000000E-03 0.  1.
    9900012    2    1    2    0    0 -0.31107982439E+02  0.90794698504E+00  0.69418845635E+01  0.59301941911E+02  0.49999996140E+02 0.  0.
         12    1    1    2    0    0  0.31107982439E+02 -0.90794698504E+00 -0.69418845635E+01  0.31886058089E+02  0.00000000000E+00 0. -1.
         11    1    3    3    0    0 -0.29637228266E+01 -0.70318950804E+01  0.10989674463E+02  0.13379243120E+02  0.51100000000E-03 0. -1.
        -11    1    3    3    0    0 -0.31373601576E+02  0.35391997725E+00 -0.12811406446E+02  0.33890415615E+02  0.51100000000E-03 0.  1.
        -12    1    3    3    0    0  0.32293419634E+01  0.75859220882E+01  0.87636165466E+01  0.12032283176E+02  0.00000000000E+00 0.  1.
</event>
<event>
 7    1  0.7579108E-012  0.5930194E+02  0.7816164E-02  0.1266605E+00
        -11   -1    0    0    0    0  0.00000000000E+00  0.00000000000E+00  0.45593999997E+02  0.45594000000E+02  0.51100000000E-03 0.  1.
         11   -1    0    0    0    0 -0.00000000000E+00 -0.00000000000E+00 -0.45593999997E+02  0.45594000000E+02  0.51100000000E-03 0. -1.
    9900012    2    1    2    0    0 -0.37427878781E+01  0.23935368055E+01  0.31575038364E+02  0.59301944628E+02  0.50000001094E+02 0.  0.
         12    1    1    2    0    0  0.37427878781E+01 -0.23935368055E+01 -0.31575038364E+02  0.31886055372E+02  0.00000000000E+00 0. -1.
         11    1    3    3    0    0  0.14742856152E+02  0.24757200833E+01  0.22132508998E+02  0.26708218814E+02  0.51100000000E-03 0. -1.
        -11    1    3    3    0    0 -0.21195259069E+02  0.56879342631E+01  0.12783067626E+02  0.25396819119E+02  0.51100000000E-03 0.  1.
        -12    1    3    3    0    0  0.27096150385E+01 -0.57701175409E+01 -0.33405382601E+01  0.71969066939E+01  0.00000000000E+00 0.  1.
</event>
<event>
 7    1  0.7579108E-012  0.5930197E+02  0.7816164E-02  0.1266605E+00
        -11   -1    0    0    0    0  0.00000000000E+00  0.00000000000E+00  0.45593999997E+02  0.45594000000E+02  0.51100000000E-03 0. -1.
         11   -1    0    0    0    0 -0.00000000000E+00 -0.00000000000E+00 -0.45593999997E+02  0.45594000000E+02  0.51100000000E-03 0.  1.
    9900012    2    1    2    0    0  0.19551564804E+02 -0.62894154539E+01 -0.24390545278E+02  0.59301966506E+02  0.50000040995E+02 0.  0.
         12    1    1    2    0    0 -0.19551564804E+02  0.62894154539E+01  0.24390545278E+02  0.31886033494E+02  0.00000000000E+00 0. -1.
         11    1    3    3    0    0  0.28264319452E+02 -0.11221994817E+01  0.43319115202E-01  0.28286621618E+02  0.51100000000E-03 0. -1.
        -11    1    3    3    0    0  0.26968016200E+01 -0.62542174341E+01 -0.13761030827E+02  0.15354280979E+02  0.51100000000E-03 0.  1.
         12    1    3    3    0    0 -0.11409556269E+02  0.10870014619E+01 -0.10672833566E+02  0.15661063909E+02  0.00000000000E+00 0. -1.
</event>
<event>
 7    1  0.7579108E-012  0.5930197E+02  0.7816164E-02  0.1266605E+00
        -11   -1    0    0    0    0  0.00000000000E+00  0.00000000000E+00  0.45593999997E+02  0.45594000000E+02  0.51100000000E-03 0.  1.
         11   -1    0    0    0    0 -0.00000000000E+00 -0.00000000000E+00 -0.45593999997E+02  0.45594000000E+02  0.51100000000E-03 0. -1.
    9900012    2    1    2    0    0  0.79634646998E+01  0.18496451656E+02  0.24722120122E+02  0.59301973010E+02  0.50000052857E+02 0.  0.
         12    1    1    2    0    0 -0.79634646998E+01 -0.18496451656E+02 -0.24722120122E+02  0.31886026990E+02  0.00000000000E+00 0. -1.
         11    1    3    3    0    0  0.39044397949E+01  0.51514788025E+01 -0.10353823996E+01  0.65463272863E+01  0.51100000000E-03 0. -1.
        -11    1    3    3    0    0  0.13092766942E+02 -0.12644545538E+02  0.13349951494E+02  0.22572688878E+02  0.51100000000E-03 0.  1.
        -12    1    3    3    0    0 -0.90337420367E+01  0.25989518391E+02  0.12407551028E+02  0.30182956845E+02  0.00000000000E+00 0.  1.
</event>
<event>
 7    1  0.7579108E-012  0.5930194E+02  0.7816164E-02  0.1266605E+00
        -11   -1    0    0    0    0  0.00000000000E+00  0.00000000000E+00  0.45593999997E+02  0.45594000000E+02  0.51100000000E-03 0.  1.
         11   -1    0    0    0    0 -0.00000000000E+00 -0.00000000000E+00 -0.45593999997E+02  0.45594000000E+02  0.51100000000E-03 0. -1.
    9900012    2    1    2    0    0 -0.20007231493E+02 -0.20832123340E+02  0.13507568680E+02  0.59301935857E+02  0.49999985099E+02 0.  0.
         12    1    1    2    0    0  0.20007231493E+02  0.20832123340E+02 -0.13507568680E+02  0.31886064143E+02  0.00000000000E+00 0. -1.
         11    1    3    3    0    0 -0.16897479555E+02 -0.31427684773E+02  0.22666134933E+02  0.42272660888E+02  0.51100000000E-03 0.  1.
        -11    1    3    3    0    0  0.27781566618E+01  0.53338201680E+01 -0.60860514660E+01  0.85561565395E+01  0.51100000000E-03 0. -1.
        -12    1    3    3    0    0 -0.58879085990E+01  0.52617412651E+01 -0.30725147863E+01  0.84731184296E+01  0.00000000000E+00 0.  1.
</event>
<event>
 7    1  0.7579108E-012  0.5930191E+02  0.7816164E-02  0.1266605E+00
        -11   -1    0    0    0    0  0.00000000000E+00  0.00000000000E+00  0.45593999997E+02  0.45594000000E+02  0.51100000000E-03 0. -1.
         11   -1    0    0    0    0 -0.00000000000E+00 -0.00000000000E+00 -0.45593999997E+02  0.45594000000E+02  0.51100000000E-03 0.  1.
    9900012    2    1    2    0    0  0.21472357118E+02  0.23168721374E+02  0.43440485757E+01  0.59301913249E+02  0.49999943866E+02 0.  0.
         12    1    1    2    0    0 -0.21472357118E+02 -0.23168721374E+02 -0.43440485757E+01  0.31886086751E+02  0.00000000000E+00 0. -1.
         11    1    3    3    0    0  0.17625021310E+02 -0.50975710836E+01  0.86058685578E+01  0.20265428222E+02  0.51100000000E-03 0. -1.
        -11    1    3    3    0    0  0.10861002473E+02  0.19263565647E+02 -0.12084175339E+02  0.25200667254E+02  0.51100000000E-03 0.  1.
         12    1    3    3    0    0 -0.70136666653E+01  0.90027268106E+01  0.78223553565E+01  0.13835817773E+02  0.00000000000E+00 0. -1.
</event>
<event>
 7    1  0.7579108E-012  0.5930195E+02  0.7816164E-02  0.1266605E+00
        -11   -1    0    0    0    0  0.00000000000E+00  0.00000000000E+00  0.45593999997E+02  0.45594000000E+02  0.51100000000E-03 0.  1.
         11   -1    0    0    0    0 -0.00000000000E+00 -0.00000000000E+00 -0.45593999997E+02  0.45594000000E+02  0.51100000000E-03 0. -1.
    9900012    2    1    2    0    0  0.22911220435E+02 -0.18164873614E+02  0.12721387930E+02  0.59301947154E+02  0.50000005702E+02 0.  0.
         12    1    1    2    0    0 -0.22911220435E+02  0.18164873614E+02 -0.12721387930E+02  0.31886052846E+02  0.00000000000E+00 0. -1.
         11    1    3    3    0    0 -0.14723283956E+02 -0.43544766208E+01  0.90138946380E+01  0.17804124631E+02  0.51100000000E-03 0. -1.
        -11    1    3    3    0    0  0.22733352220E+02 -0.10397634142E+02  0.67880729075E+01  0.25903552516E+02  0.51100000000E-03 0.  1.
         12    1    3    3    0    0  0.14901152170E+02 -0.34127628509E+01 -0.30805796155E+01  0.15594270007E+02  0.00000000000E+00 0. -1.
</event>
<event>
 7    1  0.7579108E-012  0.5930200E+02  0.7816164E-02  0.1266605E+00
        -11   -1    0    0    0    0  0.00000000000E+00  0.00000000000E+00  0.45593999997E+02  0.45594000000E+02  0.51100000000E-03 0. -1.
         11   -1    0    0    0    0 -0.00000000000E+00 -0.00000000000E+00 -0.45593999997E+02  0.45594000000E+02  0.51100000000E-03 0.  1.
    9900012    2    1    2    0    0 -0.95786416564E+01 -0.79007939008E+01 -0.29369105839E+02  0.59301995264E+02  0.50000093443E+02 0.  0.
         12    1    1    2    0    0  0.95786416564E+01  0.79007939008E+01  0.29369105839E+02  0.31886004736E+02  0.00000000000E+00 0. -1.
         11    1    3    3    0    0  0.74777102772E+01  0.45232126992E+01  0.68274533475E+01  0.11090073200E+02  0.51100000000E-03 0. -1.
        -11    1    3    3    0    0 -0.10132667831E+02 -0.16513555450E+02 -0.35105559162E+02  0.40096991849E+02  0.51100000000E-03 0.  1.
        -12    1    3    3    0    0 -0.69236841027E+01  0.40895488497E+01 -0.10910000239E+01  0.81149302153E+01  0.00000000000E+00 0.  1.
</event>
<event>
 7    1  0.7579108E-012  0.5930196E+02  0.7816164E-02  0.1266605E+00
        -11   -1    0    0    0    0  0.00000000000E+00  0.00000000000E+00  0.45593999997E+02  0.45594000000E+02  0.51100000000E-03 0.  1.
         11   -1    0    0    0    0 -0.00000000000E+00 -0.00000000000E+00 -0.45593999997E+02  0.45594000000E+02  0.51100000000E-03 0. -1.
    9900012    2    1    2    0    0  0.19700489088E+02 -0.72987835437E+01  0.23986211219E+02  0.59301955401E+02  0.50000020742E+02 0.  0.
         12    1    1    2    0    0 -0.19700489088E+02  0.72987835437E+01 -0.23986211219E+02  0.31886044599E+02  0.00000000000E+00 0. -1.
         11    1    3    3    0    0  0.32788994855E+02 -0.64935273607E+01  0.18891324910E+02  0.38394872552E+02  0.51100000000E-03 0. -1.
        -11    1    3    3    0    0 -0.32648141354E+01 -0.21184788991E-01  0.95494495963E+01  0.10092147838E+02  0.51100000000E-03 0.  1.
         12    1    3    3    0    0 -0.98236916312E+01 -0.78407139407E+00 -0.44545632871E+01  0.10814935011E+02  0.00000000000E+00 0. -1.
</event>
<event>
 7    1  0.7579108E-012  0.5930193E+02  0.7816164E-02  0.1266605E+00
        -11   -1    0    0    0    0  0.00000000000E+00  0.00000000000E+00  0.45593999997E+02  0.45594000000E+02  0.51100000000E-03 0. -1.
         11   -1    0    0    0    0 -0.00000000000E+00 -0.00000000000E+00 -0.45593999997E+02  0.45594000000E+02  0.51100000000E-03 0.  1.
    9900012    2    1    2    0    0  0.15341532687E+02  0.27318183369E+02 -0.59224733741E+01  0.59301930022E+02  0.49999974457E+02 0.  0.
         12    1    1    2    0    0 -0.15341532687E+02 -0.27318183369E+02  0.59224733741E+01  0.31886069978E+02  0.00000000000E+00 0. -1.
         11    1    3    3    0    0  0.47048177691E+01  0.20596681628E+02 -0.52426699652E+00  0.21133704372E+02  0.51100000000E-03 0. -1.
        -11    1    3    3    0    0 -0.77065950920E+01 -0.60040804283E+01 -0.11436211278E+02  0.15040861623E+02  0.51100000000E-03 0.  1.
        -12    1    3    3    0    0  0.18343310010E+02  0.12725582169E+02  0.60380049006E+01  0.23127364027E+02  0.00000000000E+00 0.  1.
</event>
<event>
 7    1  0.7579108E-012  0.5930197E+02  0.7816164E-02  0.1266605E+00
        -11   -1    0    0    0    0  0.00000000000E+00  0.00000000000E+00  0.45593999997E+02  0.45594000000E+02  0.51100000000E-03 0.  1.
         11   -1    0    0    0    0 -0.00000000000E+00 -0.00000000000E+00 -0.45593999997E+02  0.45594000000E+02  0.51100000000E-03 0. -1.
    9900012    2    1    2    0    0 -0.11891273575E+02 -0.29524248693E+02 -0.19065527126E+01  0.59301974984E+02  0.50000056456E+02 0.  0.
         12    1    1    2    0    0  0.11891273575E+02  0.29524248693E+02  0.19065527126E+01  0.31886025016E+02  0.00000000000E+00 0. -1.
         11    1    3    3    0    0 -0.41529289385E+01  0.41047760302E+01  0.10154941236E+02  0.11714044425E+02  0.51100000000E-03 0. -1.
        -11    1    3    3    0    0 -0.14920631083E+02 -0.17906734817E+02 -0.17851296581E+02  0.29358902800E+02  0.51100000000E-03 0.  1.
        -12    1    3    3    0    0  0.71822864466E+01 -0.15722289906E+02  0.57898026326E+01  0.18229027758E+02  0.00000000000E+00 0.  1.
</event>
<event>
 7    1  0.7579108E-012  0.5930195E+02  0.7816164E-02  0.1266605E+00
        -11   -1    0    0    0    0  0.00000000000E+00  0.00000000000E+00  0.45593999997E+02  0.45594000000E+02  0.51100000000E-03 0.  1.
         11   -1    0    0    0    0 -0.00000000000E+00 -0.00000000000E+00 -0.45593999997E+02  0.45594000000E+02  0.51100000000E-03 0. -1.
    9900012    2    1    2    0    0 -0.28991863177E+01  0.30890923300E+02 -0.73529442685E+01  0.59301949554E+02  0.50000010078E+02 0.  0.
         12    1    1    2    0    0  0.28991863177E+01 -0.30890923300E+02  0.73529442685E+01  0.31886050446E+02  0.00000000000E+00 0. -1.
         11    1    3    3    0    0 -0.16527077831E+02  0.10390196690E+02 -0.16568671918E+02  0.25605104536E+02  0.51100000000E-03 0. -1.
        -11    1    3    3    0    0  0.66446913326E+01 -0.22741155394E+00  0.97692420014E+01  0.11817010132E+02  0.51100000000E-03 0.  1.
        -12    1    3    3    0    0  0.69832001806E+01  0.20728138164E+02 -0.55351435177E+00  0.21879834886E+02  0.00000000000E+00 0.  1.
</event>
<event>
 7    1  0.7579108E-012  0.5930193E+02  0.7816164E-02  0.1266605E+00
        -11   -1    0    0    0    0  0.00000000000E+00  0.00000000000E+00  0.45593999997E+02  0.45594000000E+02  0.51100000000E-03 0. -1.
         11   -1    0    0    0    0 -0.00000000000E+00 -0.00000000000E+00 -0.45593999997E+02  0.45594000000E+02  0.51100000000E-03 0.  1.
    9900012    2    1    2    0    0 -0.29175566225E+01 -0.28673442815E+02 -0.13639762296E+02  0.59301928197E+02  0.49999971129E+02 0.  0.
         12    1    1    2    0    0  0.29175566225E+01  0.28673442815E+02  0.13639762296E+02  0.31886071803E+02  0.00000000000E+00 0. -1.
         11    1    3    3    0    0  0.95574986288E+01 -0.46827710234E+00 -0.20428254627E+02  0.22558338832E+02  0.51100000000E-03 0. -1.
        -11    1    3    3    0    0 -0.12605853383E+02 -0.22713961548E+02 -0.23476697033E+01  0.26083388239E+02  0.51100000000E-03 0.  1.
         12    1    3    3    0    0  0.13079813142E+00 -0.54912041649E+01  0.91361620349E+01  0.10660201127E+02  0.00000000000E+00 0. -1.
</event>
<event>
 7    1  0.7579108E-012  0.5930186E+02  0.7816164E-02  0.1266605E+00
        -11   -1    0    0    0    0  0.00000000000E+00  0.00000000000E+00  0.45593999997E+02  0.45594000000E+02  0.51100000000E-03 0.  1.
         11   -1    0    0    0    0 -0.00000000000E+00 -0.00000000000E+00 -0.45593999997E+02  0.45594000000E+02  0.51100000000E-03 0. -1.
    9900012    2    1    2    0    0  0.10994668557E+02 -0.37947162824E+01  0.29689109091E+02  0.59301861837E+02  0.49999850104E+02 0.  0.
         12    1    1    2    0    0 -0.10994668557E+02  0.37947162824E+01 -0.29689109091E+02  0.31886138163E+02  0.00000000000E+00 0. -1.
         11    1    3    3    0    0 -0.52483145305E+01  0.47074348260E+01 -0.51478878478E+01  0.87295760267E+01  0.51100000000E-03 0. -1.
        -11    1    3    3    0    0  0.16830334404E+02 -0.14630139297E+02  0.37685410321E+02  0.43789168562E+02  0.51100000000E-03 0.  1.
        -12    1    3    3    0    0 -0.58735131692E+00  0.61279881881E+01 -0.28484133828E+01  0.67831172482E+01  0.00000000000E+00 0.  1.
</event>
<event>
 7    1  0.7579108E-012  0.5930194E+02  0.7816164E-02  0.1266605E+00
        -11   -1    0    0    0    0  0.00000000000E+00  0.00000000000E+00  0.45593999997E+02  0.45594000000E+02  0.51100000000E-03 0.  1.
         11   -1    0    0    0    0 -0.00000000000E+00 -0.00000000000E+00 -0.45593999997E+02  0.45594000000E+02  0.51100000000E-03 0. -1.
    9900012    2    1    2    0    0  0.20162390786E+02 -0.24697947910E+02 -0.45864294070E+00  0.59301937425E+02  0.49999987959E+02 0.  0.
         12    1    1    2    0    0 -0.20162390786E+02  0.24697947910E+02  0.45864294070E+00  0.31886062575E+02  0.00000000000E+00 0. -1.
         11    1    3    3    0    0  0.26021173792E+02 -0.17389779860E+02 -0.12397498021E+02  0.33663093835E+02  0.51100000000E-03 0. -1.
        -11    1    3    3    0    0  0.85078638853E+00 -0.69217803387E+01  0.16230113883E+02  0.17664978841E+02  0.51100000000E-03 0.  1.
         12    1    3    3    0    0 -0.67095693949E+01 -0.38638771168E+00 -0.42912588031E+01  0.79738647496E+01  0.00000000000E+00 0. -1.
</event>
<event>
 7    1  0.7579108E-012  0.5930193E+02  0.7816164E-02  0.1266605E+00
        -11   -1    0    0    0    0  0.00000000000E+00  0.00000000000E+00  0.45593999997E+02  0.45594000000E+02  0.51100000000E-03 0.  1.
         11   -1    0    0    0    0 -0.00000000000E+00 -0.00000000000E+00 -0.45593999997E+02  0.45594000000E+02  0.51100000000E-03 0. -1.
    9900012    2    1    2    0    0  0.23296646818E+02 -0.17018015180E+02  0.13578465367E+02  0.59301932269E+02  0.49999978555E+02 0.  0.
         12    1    1    2    0    0 -0.23296646818E+02  0.17018015180E+02 -0.13578465367E+02  0.31886067731E+02  0.00000000000E+00 0. -1.
         11    1    3    3    0    0 -0.92654576015E+01 -0.38463087879E+01 -0.94238606739E+01  0.13764154392E+02  0.51100000000E-03 0. -1.
        -11    1    3    3    0    0  0.24715153768E+02 -0.95063157150E+00  0.13441556259E+02  0.28149919380E+02  0.51100000000E-03 0.  1.
        -12    1    3    3    0    0  0.78469506511E+01 -0.12221074821E+02  0.95607697819E+01  0.17387858497E+02  0.00000000000E+00 0.  1.
</event>
<event>
 7    1  0.7579108E-012  0.5930193E+02  0.7816164E-02  0.1266605E+00
        -11   -1    0    0    0    0  0.00000000000E+00  0.00000000000E+00  0.45593999997E+02  0.45594000000E+02  0.51100000000E-03 0. -1.
         11   -1    0    0    0    0 -0.00000000000E+00 -0.00000000000E+00 -0.45593999997E+02  0.45594000000E+02  0.51100000000E-03 0.  1.
    9900012    2    1    2    0    0  0.57194403630E+01  0.19114537979E+02 -0.24872548241E+02  0.59301933824E+02  0.49999981390E+02 0.  0.
         12    1    1    2    0    0 -0.57194403630E+01 -0.19114537979E+02  0.24872548241E+02  0.31886066176E+02  0.00000000000E+00 0. -1.
         11    1    3    3    0    0  0.18150281614E+02  0.37438758879E+01  0.29548791777E+01  0.18766476509E+02  0.51100000000E-03 0. -1.
        -11    1    3    3    0    0 -0.65231317167E+01 -0.45251110077E+01 -0.38499033773E+01  0.88232439216E+01  0.51100000000E-03 0.  1.
         12    1    3    3    0    0 -0.59077095346E+01  0.19895773099E+02 -0.23977524041E+02  0.31712213393E+02  0.00000000000E+00 0. -1.
</event>
<event>
 7    1  0.7579108E-012  0.5930186E+02  0.7816164E-02  0.1266605E+00
        -11   -1    0    0    0    0  0.00000000000E+00  0.00000000000E+00  0.45593999997E+02  0.45594000000E+02  0.51100000000E-03 0.  1.
         11   -1    0    0    0    0 -0.00000000000E+00 -0.00000000000E+00 -0.45593999997E+02  0.45594000000E+02  0.51100000000E-03 0. -1.
    9900012    2    1    2    0    0  0.10675616208E+02 -0.25267790996E+02 -0.16257177819E+02  0.59301860787E+02  0.49999848189E+02 0.  0.
         12    1    1    2    0    0 -0.10675616208E+02  0.25267790996E+02  0.16257177819E+02  0.31886139213E+02  0.00000000000E+00 0. -1.
         11    1    3    3    0    0  0.40449375079E+01 -0.24626025164E+01 -0.94660772893E+01  0.10584542980E+02  0.51100000000E-03 0. -1.
        -11    1    3    3    0    0  0.40918424524E+01  0.10830251619E+02  0.54989065215E+01  0.12817000351E+02  0.51100000000E-03 0.  1.
        -12    1    3    3    0    0  0.25388362481E+01 -0.33635440099E+02 -0.12290007051E+02  0.35900317456E+02  0.00000000000E+00 0.  1.
</event>
<event>
 7    1  0.7579108E-012  0.5930194E+02  0.7816164E-02  0.1266605E+00
        -11   -1    0    0    0    0  0.00000000000E+00  0.00000000000E+00  0.45593999997E+02  0.45594000000E+02  0.51100000000E-03 0.  1.
         11   -1    0    0    0    0 -0.00000000000E+00 -0.00000000000E+00 -0.45593999997E+02  0.45594000000E+02  0.51100000000E-03 0. -1.
    9900012    2    1    2    0    0 -0.31705137855E+02 -0.31945776766E+01  0.11401110111E+01  0.59301938060E+02  0.49999989116E+02 0.  0.
         12    1    1    2    0    0  0.31705137855E+02  0.31945776766E+01 -0.11401110111E+01  0.31886061940E+02  0.00000000000E+00 0. -1.
         11    1    3    3    0    0  0.24880797325E+01  0.75847997442E+01  0.74919838769E+01  0.10947581952E+02  0.51100000000E-03 0.  1.
        -11    1    3    3    0    0 -0.27201885443E+02  0.14684915762E+01 -0.15693165558E+02  0.31438423699E+02  0.51100000000E-03 0. -1.
        -12    1    3    3    0    0 -0.69913321440E+01 -0.12247868997E+02  0.93412926925E+01  0.16915932409E+02  0.00000000000E+00 0.  1.
</event>
<event>
 7    1  0.7579108E-012  0.5930198E+02  0.7816164E-02  0.1266605E+00
        -11   -1    0    0    0    0  0.00000000000E+00  0.00000000000E+00  0.45593999997E+02  0.45594000000E+02  0.51100000000E-03 0. -1.
         11   -1    0    0    0    0 -0.00000000000E+00 -0.00000000000E+00 -0.45593999997E+02  0.45594000000E+02  0.51100000000E-03 0.  1.
    9900012    2    1    2    0    0  0.98293841924E+01 -0.69797836337E+01 -0.29519219236E+02  0.59301976769E+02  0.50000059713E+02 0.  0.
         12    1    1    2    0    0 -0.98293841924E+01  0.69797836337E+01  0.29519219236E+02  0.31886023231E+02  0.00000000000E+00 0. -1.
         11    1    3    3    0    0  0.39269258260E+01  0.56530917352E+00  0.29732035910E+01  0.49578484002E+01  0.51100000000E-03 0. -1.
        -11    1    3    3    0    0 -0.86558312647E+01  0.14353801618E+02 -0.87160220853E+01  0.18892434386E+02  0.51100000000E-03 0.  1.
        -12    1    3    3    0    0  0.14558289631E+02 -0.21898894425E+02 -0.23776400742E+02  0.35451693983E+02  0.00000000000E+00 0.  1.
</event>
<event>
 7    1  0.7579108E-012  0.5930195E+02  0.7816164E-02  0.1266605E+00
        -11   -1    0    0    0    0  0.00000000000E+00  0.00000000000E+00  0.45593999997E+02  0.45594000000E+02  0.51100000000E-03 0. -1.
         11   -1    0    0    0    0 -0.00000000000E+00 -0.00000000000E+00 -0.45593999997E+02  0.45594000000E+02  0.51100000000E-03 0.  1.
    9900012    2    1    2    0    0 -0.30179480320E+02  0.24370786979E+01 -0.99989802684E+01  0.59301953030E+02  0.50000016419E+02 0.  0.
         12    1    1    2    0    0  0.30179480320E+02 -0.24370786979E+01  0.99989802684E+01  0.31886046970E+02  0.00000000000E+00 0. -1.
         11    1    3    3    0    0 -0.37678204579E+02 -0.14666361257E+00 -0.46311881231E+01  0.37962040438E+02  0.51100000000E-03 0. -1.
        -11    1    3    3    0    0  0.78438662802E+01 -0.33917870937E+01 -0.10441892406E+02  0.13493093611E+02  0.51100000000E-03 0.  1.
         12    1    3    3    0    0 -0.34514202100E+00  0.59755294042E+01  0.50741002607E+01  0.78468189816E+01  0.00000000000E+00 0. -1.
</event>
<event>
 7    1  0.7579108E-012  0.5930197E+02  0.7816164E-02  0.1266605E+00
        -11   -1    0    0    0    0  0.00000000000E+00  0.00000000000E+00  0.45593999997E+02  0.45594000000E+02  0.51100000000E-03 0.  1.
         11   -1    0    0    0    0 -0.00000000000E+00 -0.00000000000E+00 -0.45593999997E+02  0.45594000000E+02  0.51100000000E-03 0. -1.
    9900012    2    1    2    0    0  0.19115756377E+02 -0.22728838631E+02  0.11606327226E+02  0.59301967336E+02  0.50000042508E+02 0.  0.
         12    1    1    2    0    0 -0.19115756377E+02  0.22728838631E+02 -0.11606327226E+02  0.31886032664E+02  0.00000000000E+00 0. -1.
         11    1    3    3    0    0  0.10595241964E+02 -0.60162886550E+00 -0.13289715966E+01  0.10695198704E+02  0.51100000000E-03 0. -1.
        -11    1    3    3    0    0 -0.14439575442E+02 -0.18437656162E+02  0.43598451874E+01  0.23821350801E+02  0.51100000000E-03 0.  1.
        -12    1    3    3    0    0  0.22960089855E+02 -0.36895536043E+01  0.85754536355E+01  0.24785417830E+02  0.00000000000E+00 0.  1.
</event>
<event>
 7    1  0.7579108E-012  0.5930194E+02  0.7816164E-02  0.1266605E+00
        -11   -1    0    0    0    0  0.00000000000E+00  0.00000000000E+00  0.45593999997E+02  0.45594000000E+02  0.51100000000E-03 0.  1.
         11   -1    0    0    0    0 -0.00000000000E+00 -0.00000000000E+00 -0.45593999997E+02  0.45594000000E+02  0.51100000000E-03 0. -1.
    9900012    2    1    2    0    0  0.28645727922E+02 -0.12835178176E+02  0.56036700416E+01  0.59301942781E+02  0.49999997727E+02 0.  0.
         12    1    1    2    0    0 -0.28645727922E+02  0.12835178176E+02 -0.56036700416E+01  0.31886057219E+02  0.00000000000E+00 0. -1.
         11    1    3    3    0    0  0.19512922139E+02 -0.46308754012E+01 -0.13010017032E+02  0.23905222877E+02  0.51100000000E-03 0. -1.
        -11    1    3    3    0    0  0.79975165847E+01  0.32763659111E+01  0.21781119515E+02  0.23433139199E+02  0.51100000000E-03 0.  1.
         12    1    3    3    0    0  0.11352891992E+01 -0.11480668686E+02 -0.31674324412E+01  0.11963580706E+02  0.00000000000E+00 0. -1.
</event>
<event>
 7    1  0.7579108E-012  0.5930194E+02  0.7816164E-02  0.1266605E+00
        -11   -1    0    0    0    0  0.00000000000E+00  0.00000000000E+00  0.45593999997E+02  0.45594000000E+02  0.51100000000E-03 0. -1.
         11   -1    0    0    0    0 -0.00000000000E+00 -0.00000000000E+00 -0.45593999997E+02  0.45594000000E+02  0.51100000000E-03 0.  1.
    9900012    2    1    2    0    0 -0.68761305708E-01  0.28490294636E+02 -0.14318495426E+02  0.59301938346E+02  0.49999989638E+02 0.  0.
         12    1    1    2    0    0  0.68761305708E-01 -0.28490294636E+02  0.14318495426E+02  0.31886061654E+02  0.00000000000E+00 0. -1.
         11    1    3    3    0    0 -0.63329366772E+01  0.63181682488E+01 -0.28227062203E+02  0.29610680131E+02  0.51100000000E-03 0. -1.
        -11    1    3    3    0    0  0.31595312757E+01  0.50058994479E+01 -0.18301309167E+01  0.61960508873E+01  0.51100000000E-03 0.  1.
         12    1    3    3    0    0  0.31046440958E+01  0.17166226939E+02  0.15738697694E+02  0.23495207328E+02  0.00000000000E+00 0. -1.
</event>
<event>
 7    1  0.7579108E-012  0.5930197E+02  0.7816164E-02  0.1266605E+00
        -11   -1    0    0    0    0  0.00000000000E+00  0.00000000000E+00  0.45593999997E+02  0.45594000000E+02  0.51100000000E-03 0. -1.
         11   -1    0    0    0    0 -0.00000000000E+00 -0.00000000000E+00 -0.45593999997E+02  0.45594000000E+02  0.51100000000E-03 0.  1.
    9900012    2    1    2    0    0 -0.26702200479E+02  0.17360935260E+02  0.15196380067E+01  0.59301970407E+02  0.50000048109E+02 0.  0.
         12    1    1    2    0    0  0.26702200479E+02 -0.17360935260E+02 -0.15196380067E+01  0.31886029593E+02  0.00000000000E+00 0. -1.
         11    1    3    3    0    0  0.97957113251E+01  0.10804764854E+02  0.36169761388E+01  0.15026024776E+02  0.51100000000E-03 0. -1.
        -11    1    3    3    0    0 -0.29879344620E+02  0.76005438865E+01 -0.11348471617E+02  0.32853178090E+02  0.51100000000E-03 0.  1.
        -12    1    3    3    0    0 -0.66185671844E+01 -0.10443734810E+01  0.92511334850E+01  0.11422767541E+02  0.00000000000E+00 0.  1.
</event>
<event>
 7    1  0.7579108E-012  0.5930196E+02  0.7816164E-02  0.1266605E+00
        -11   -1    0    0    0    0  0.00000000000E+00  0.00000000000E+00  0.45593999997E+02  0.45594000000E+02  0.51100000000E-03 0.  1.
         11   -1    0    0    0    0 -0.00000000000E+00 -0.00000000000E+00 -0.45593999997E+02  0.45594000000E+02  0.51100000000E-03 0. -1.
    9900012    2    1    2    0    0  0.41387084949E+01 -0.17630419323E+02  0.26244219110E+02  0.59301958693E+02  0.50000026746E+02 0.  0.
         12    1    1    2    0    0 -0.41387084949E+01  0.17630419323E+02 -0.26244219110E+02  0.31886041307E+02  0.00000000000E+00 0. -1.
         11    1    3    3    0    0 -0.87115834361E+01 -0.60784932603E+01  0.32423284034E+01  0.11106415264E+02  0.51100000000E-03 0. -1.
        -11    1    3    3    0    0  0.14548307680E+02  0.90370847319E+01 -0.20180747219E+00  0.17127839424E+02  0.51100000000E-03 0.  1.
        -12    1    3    3    0    0 -0.16980157492E+01 -0.20589010795E+02  0.23203698179E+02  0.31067704006E+02  0.00000000000E+00 0.  1.
</event>
<event>
 7    1  0.7579108E-012  0.5930196E+02  0.7816164E-02  0.1266605E+00
        -11   -1    0    0    0    0  0.00000000000E+00  0.00000000000E+00  0.45593999997E+02  0.45594000000E+02  0.51100000000E-03 0.  1.
         11   -1    0    0    0    0 -0.00000000000E+00 -0.00000000000E+00 -0.45593999997E+02  0.45594000000E+02  0.51100000000E-03 0. -1.
    9900012    2    1    2    0    0  0.17161043033E+02 -0.20702292129E+02 -0.17135739378E+02  0.59301955068E+02  0.50000020134E+02 0.  0.
         12    1    1    2    0    0 -0.17161043033E+02  0.20702292129E+02  0.17135739378E+02  0.31886044932E+02  0.00000000000E+00 0. -1.
         11    1    3    3    0    0  0.29449708237E+02 -0.11678038946E+02 -0.24787888288E+01  0.31777449602E+02  0.51100000000E-03 0. -1.
        -11    1    3    3    0    0 -0.52682435358E+01 -0.13364493967E+02 -0.12376361034E+02  0.18961497875E+02  0.51100000000E-03 0.  1.
         12    1    3    3    0    0 -0.70204216683E+01  0.43402407841E+01 -0.22805895154E+01  0.85630075909E+01  0.00000000000E+00 0. -1.
</event>
<event>
 7    1  0.7579108E-012  0.5930194E+02  0.7816164E-02  0.1266605E+00
        -11   -1    0    0    0    0  0.00000000000E+00  0.00000000000E+00  0.45593999997E+02  0.45594000000E+02  0.51100000000E-03 0. -1.
         11   -1    0    0    0    0 -0.00000000000E+00 -0.00000000000E+00 -0.45593999997E+02  0.45594000000E+02  0.51100000000E-03 0.  1.
    9900012    2    1    2    0    0  0.10533803643E+02  0.29176543838E+02 -0.73816538879E+01  0.59301944370E+02  0.50000000625E+02 0.  0.
         12    1    1    2    0    0 -0.10533803643E+02 -0.29176543838E+02  0.73816538879E+01  0.31886055630E+02  0.00000000000E+00 0. -1.
         11    1    3    3    0    0  0.10945584122E+02  0.30216685651E+02  0.12630988069E+01  0.32162856253E+02  0.51100000000E-03 0. -1.
        -11    1    3    3    0    0  0.39697228598E+01  0.51692049382E+01 -0.15556410291E+02  0.16866572879E+02  0.51100000000E-03 0.  1.
         12    1    3    3    0    0 -0.43815033385E+01 -0.62093467514E+01  0.69116575966E+01  0.10272515238E+02  0.00000000000E+00 0. -1.
</event>
<event>
 7    1  0.7579108E-012  0.5930183E+02  0.7816164E-02  0.1266605E+00
        -11   -1    0    0    0    0  0.00000000000E+00  0.00000000000E+00  0.45593999997E+02  0.45594000000E+02  0.51100000000E-03 0. -1.
         11   -1    0    0    0    0 -0.00000000000E+00 -0.00000000000E+00 -0.45593999997E+02  0.45594000000E+02  0.51100000000E-03 0.  1.
    9900012    2    1    2    0    0 -0.12769879511E+02 -0.25906419927E+02 -0.13509834528E+02  0.59301826740E+02  0.49999786096E+02 0.  0.
         12    1    1    2    0    0  0.12769879511E+02  0.25906419927E+02  0.13509834528E+02  0.31886173260E+02  0.00000000000E+00 0. -1.
         11    1    3    3    0    0 -0.17155698818E+02  0.37087967334E+01 -0.24713347584E+01  0.17725142338E+02  0.51100000000E-03 0. -1.
        -11    1    3    3    0    0  0.31120701731E+01 -0.28657926190E+02  0.15688289727E+01  0.28869065431E+02  0.51100000000E-03 0.  1.
        -12    1    3    3    0    0  0.12737491342E+01 -0.95729047063E+00 -0.12607328742E+02  0.12707618971E+02  0.00000000000E+00 0.  1.
</event>
<event>
 7    1  0.7579108E-012  0.5930195E+02  0.7816164E-02  0.1266605E+00
        -11   -1    0    0    0    0  0.00000000000E+00  0.00000000000E+00  0.45593999997E+02  0.45594000000E+02  0.51100000000E-03 0.  1.
         11   -1    0    0    0    0 -0.00000000000E+00 -0.00000000000E+00 -0.45593999997E+02  0.45594000000E+02  0.51100000000E-03 0. -1.
    9900012    2    1    2    0    0  0.23489870134E+02 -0.18948452632E+02  0.10290879567E+02  0.59301951980E+02  0.50000014503E+02 0.  0.
         12    1    1    2    0    0 -0.23489870134E+02  0.18948452632E+02 -0.10290879567E+02  0.31886048020E+02  0.00000000000E+00 0. -1.
         11    1    3    3    0    0 -0.61966508978E+01  0.35455623695E+01  0.10737035274E+02  0.12893929642E+02  0.51100000000E-03 0. -1.
        -11    1    3    3    0    0  0.12917787429E+02 -0.22496151840E+02 -0.91592770300E+01  0.27510696750E+02  0.51100000000E-03 0.  1.
        -12    1    3    3    0    0  0.16768733603E+02  0.21368387953E-02  0.87131213223E+01  0.18897325589E+02  0.00000000000E+00 0.  1.
</event>
<event>
 7    1  0.7579108E-012  0.5930196E+02  0.7816164E-02  0.1266605E+00
        -11   -1    0    0    0    0  0.00000000000E+00  0.00000000000E+00  0.45593999997E+02  0.45594000000E+02  0.51100000000E-03 0.  1.
         11   -1    0    0    0    0 -0.00000000000E+00 -0.00000000000E+00 -0.45593999997E+02  0.45594000000E+02  0.51100000000E-03 0. -1.
    9900012    2    1    2    0    0 -0.21396347583E+02 -0.18713744587E+02 -0.14446851468E+02  0.59301961618E+02  0.50000032081E+02 0.  0.
         12    1    1    2    0    0  0.21396347583E+02  0.18713744587E+02  0.14446851468E+02  0.31886038382E+02  0.00000000000E+00 0. -1.
         11    1    3    3    0    0 -0.36399695954E+02 -0.10129432098E+02 -0.61588682603E+01  0.38281521896E+02  0.51100000000E-03 0. -1.
        -11    1    3    3    0    0  0.48312565551E+01 -0.56862775130E+01  0.19178648593E+00  0.74640186343E+01  0.51100000000E-03 0.  1.
         12    1    3    3    0    0  0.10172091816E+02 -0.28980349759E+01 -0.84797696941E+01  0.13556421088E+02  0.00000000000E+00 0. -1.
</event>
<event>
 7    1  0.7579108E-012  0.5930196E+02  0.7816164E-02  0.1266605E+00
        -11   -1    0    0    0    0  0.00000000000E+00  0.00000000000E+00  0.45593999997E+02  0.45594000000E+02  0.51100000000E-03 0.  1.
         11   -1    0    0    0    0 -0.00000000000E+00 -0.00000000000E+00 -0.45593999997E+02  0.45594000000E+02  0.51100000000E-03 0. -1.
    9900012    2    1    2    0    0 -0.16797548464E+02  0.17281972854E+02  0.20878101440E+02  0.59301963246E+02  0.50000035049E+02 0.  0.
         12    1    1    2    0    0  0.16797548464E+02 -0.17281972854E+02 -0.20878101440E+02  0.31886036754E+02  0.00000000000E+00 0. -1.
         11    1    3    3    0    0  0.93835189458E+01 -0.12323068791E+01 -0.63556862088E+01  0.11400164714E+02  0.51100000000E-03 0. -1.
        -11    1    3    3    0    0 -0.10769352259E+02  0.17860164980E+02  0.24603388924E+02  0.32253545356E+02  0.51100000000E-03 0.  1.
         12    1    3    3    0    0 -0.15411715151E+02  0.65411475284E+00  0.26303987249E+01  0.15648253176E+02  0.00000000000E+00 0. -1.
</event>
<event>
 7    1  0.7579108E-012  0.5930190E+02  0.7816164E-02  0.1266605E+00
        -11   -1    0    0    0    0  0.00000000000E+00  0.00000000000E+00  0.45593999997E+02  0.45594000000E+02  0.51100000000E-03 0. -1.
         11   -1    0    0    0    0 -0.00000000000E+00 -0.00000000000E+00 -0.45593999997E+02  0.45594000000E+02  0.51100000000E-03 0.  1.
    9900012    2    1    2    0    0 -0.13170962920E+02  0.24813625194E+02 -0.15084205612E+02  0.59301897723E+02  0.49999915551E+02 0.  0.
         12    1    1    2    0    0  0.13170962920E+02 -0.24813625194E+02  0.15084205612E+02  0.31886102277E+02  0.00000000000E+00 0. -1.
         11    1    3    3    0    0  0.13104679610E+01 -0.54910200657E+01 -0.91123837584E+00  0.57183024821E+01  0.51100000000E-03 0. -1.
        -11    1    3    3    0    0 -0.25359846608E+02  0.31633142408E+02 -0.12923155318E+02  0.42553324925E+02  0.51100000000E-03 0.  1.
        -12    1    3    3    0    0  0.10878415727E+02 -0.13284971486E+01 -0.12498119179E+01  0.11030270315E+02  0.00000000000E+00 0.  1.
</event>
<event>
 7    1  0.7579108E-012  0.5930188E+02  0.7816164E-02  0.1266605E+00
        -11   -1    0    0    0    0  0.00000000000E+00  0.00000000000E+00  0.45593999997E+02  0.45594000000E+02  0.51100000000E-03 0.  1.
         11   -1    0    0    0    0 -0.00000000000E+00 -0.00000000000E+00 -0.45593999997E+02  0.45594000000E+02  0.51100000000E-03 0. -1.
    9900012    2    1    2    0    0  0.15940139752E+02 -0.40017013628E+01  0.27324405381E+02  0.59301877650E+02  0.49999878943E+02 0.  0.
         12    1    1    2    0    0 -0.15940139752E+02  0.40017013628E+01 -0.27324405381E+02  0.31886122350E+02  0.00000000000E+00 0. -1.
         11    1    3    3    0    0  0.41270742450E+01 -0.16034352636E+00 -0.13472582036E+02  0.14091448430E+02  0.51100000000E-03 0. -1.
        -11    1    3    3    0    0  0.66224974201E+01 -0.96990714730E+00  0.38118848081E+02  0.38701999576E+02  0.51100000000E-03 0.  1.
        -12    1    3    3    0    0  0.51905680868E+01 -0.28714506892E+01  0.26781393364E+01  0.65084296439E+01  0.00000000000E+00 0.  1.
</event>
<event>
 7    1  0.7579108E-012  0.5930195E+02  0.7816164E-02  0.1266605E+00
        -11   -1    0    0    0    0  0.00000000000E+00  0.00000000000E+00  0.45593999997E+02  0.45594000000E+02  0.51100000000E-03 0. -1.
         11   -1    0    0    0    0 -0.00000000000E+00 -0.00000000000E+00 -0.45593999997E+02  0.45594000000E+02  0.51100000000E-03 0.  1.
    9900012    2    1    2    0    0  0.21545514232E+02 -0.56799883965E+01 -0.22808961270E+02  0.59301950293E+02  0.50000011427E+02 0.  0.
         12    1    1    2    0    0 -0.21545514232E+02  0.56799883965E+01  0.22808961270E+02  0.31886049707E+02  0.00000000000E+00 0. -1.
         11    1    3    3    0    0 -0.26684298487E+01  0.75368883372E+00  0.13973202367E+02  0.14245664230E+02  0.51100000000E-03 0. -1.
        -11    1    3    3    0    0  0.16989854245E+02 -0.18507012645E+01 -0.27942737601E+02  0.32754798539E+02  0.51100000000E-03 0.  1.
         12    1    3    3    0    0  0.72240898361E+01 -0.45829759657E+01 -0.88394260353E+01  0.12301487524E+02  0.00000000000E+00 0. -1.
</event>
<event>
 7    1  0.7579108E-012  0.5930195E+02  0.7816164E-02  0.1266605E+00
        -11   -1    0    0    0    0  0.00000000000E+00  0.00000000000E+00  0.45593999997E+02  0.45594000000E+02  0.51100000000E-03 0. -1.
         11   -1    0    0    0    0 -0.00000000000E+00 -0.00000000000E+00 -0.45593999997E+02  0.45594000000E+02  0.51100000000E-03 0.  1.
    9900012    2    1    2    0    0 -0.12183104881E+02 -0.16556366024E+02 -0.24375790883E+02  0.59301945342E+02  0.50000002398E+02 0.  0.
         12    1    1    2    0    0  0.12183104881E+02  0.16556366024E+02  0.24375790883E+02  0.31886054658E+02  0.00000000000E+00 0. -1.
         11    1    3    3    0    0 -0.14037116545E+01  0.15156087061E+02 -0.72606508309E+01  0.16863998108E+02  0.51100000000E-03 0. -1.
        -11    1    3    3    0    0 -0.16364744261E+02 -0.26446632273E+02 -0.14628979499E+02  0.34369117748E+02  0.51100000000E-03 0.  1.
        -12    1    3    3    0    0  0.55853510342E+01 -0.52658208118E+01 -0.24861605534E+01  0.80688294872E+01  0.00000000000E+00 0.  1.
</event>
<event>
 7    1  0.7579108E-012  0.5930195E+02  0.7816164E-02  0.1266605E+00
        -11   -1    0    0    0    0  0.00000000000E+00  0.00000000000E+00  0.45593999997E+02  0.45594000000E+02  0.51100000000E-03 0. -1.
         11   -1    0    0    0    0 -0.00000000000E+00 -0.00000000000E+00 -0.45593999997E+02  0.45594000000E+02  0.51100000000E-03 0.  1.
    9900012    2    1    2    0    0  0.32319225924E+01  0.11648515667E+02 -0.29505704992E+02  0.59301954966E+02  0.50000019948E+02 0.  0.
         12    1    1    2    0    0 -0.32319225924E+01 -0.11648515667E+02  0.29505704992E+02  0.31886045034E+02  0.00000000000E+00 0. -1.
         11    1    3    3    0    0  0.60904902079E+01 -0.10253461719E+02  0.74875479495E+01  0.14081580975E+02  0.51100000000E-03 0. -1.
        -11    1    3    3    0    0 -0.48891407037E+01  0.98662694315E+01 -0.75600915635E+01  0.13356719433E+02  0.51100000000E-03 0.  1.
         12    1    3    3    0    0  0.20305730881E+01  0.12035707954E+02 -0.29433161378E+02  0.31863654557E+02  0.00000000000E+00 0. -1.
</event>
<event>
 7    1  0.7579108E-012  0.5930195E+02  0.7816164E-02  0.1266605E+00
        -11   -1    0    0    0    0  0.00000000000E+00  0.00000000000E+00  0.45593999997E+02  0.45594000000E+02  0.51100000000E-03 0.  1.
         11   -1    0    0    0    0 -0.00000000000E+00 -0.00000000000E+00 -0.45593999997E+02  0.45594000000E+02  0.51100000000E-03 0. -1.
    9900012    2    1    2    0    0  0.28939292087E+02 -0.11815282934E+02 -0.62957623536E+01  0.59301950372E+02  0.50000011570E+02 0.  0.
         12    1    1    2    0    0 -0.28939292087E+02  0.11815282934E+02  0.62957623536E+01  0.31886049628E+02  0.00000000000E+00 0. -1.
         11    1    3    3    0    0 -0.42710443844E+01 -0.47494399532E+01 -0.19174674827E+02  0.20210570378E+02  0.51100000000E-03 0. -1.
        -11    1    3    3    0    0  0.10025090372E+01  0.29289895739E+01  0.18708286563E+01  0.36171818334E+01  0.51100000000E-03 0.  1.
         12    1    3    3    0    0  0.32207827434E+02 -0.99948325544E+01  0.11008083818E+02  0.35474198160E+02  0.00000000000E+00 0. -1.
</event>
<event>
 7    1  0.7579108E-012  0.5930194E+02  0.7816164E-02  0.1266605E+00
        -11   -1    0    0    0    0  0.00000000000E+00  0.00000000000E+00  0.45593999997E+02  0.45594000000E+02  0.51100000000E-03 0.  1.
         11   -1    0    0    0    0 -0.00000000000E+00 -0.00000000000E+00 -0.45593999997E+02  0.45594000000E+02  0.51100000000E-03 0. -1.
    9900012    2    1    2    0    0  0.17744464425E+02 -0.52065173255E+01 -0.25975889502E+02  0.59301942298E+02  0.49999996845E+02 0.  0.
         12    1    1    2    0    0 -0.17744464425E+02  0.52065173255E+01  0.25975889502E+02  0.31886057702E+02  0.00000000000E+00 0. -1.
         11    1    3    3    0    0  0.14311122079E+01 -0.11524494803E+01 -0.37978141269E+02  0.38022564833E+02  0.51100000000E-03 0. -1.
        -11    1    3    3    0    0  0.14540646213E+01  0.15778341813E-01  0.32496742382E+01  0.35601876066E+01  0.51100000000E-03 0.  1.
         12    1    3    3    0    0  0.14859287596E+02 -0.40698461871E+01  0.87525775289E+01  0.17719189859E+02  0.00000000000E+00 0. -1.
</event>
<event>
 7    1  0.7579108E-012  0.5930220E+02  0.7816164E-02  0.1266604E+00
        -11   -1    0    0    0    0  0.00000000000E+00  0.00000000000E+00  0.45593999997E+02  0.45594000000E+02  0.51100000000E-03 0.  1.
         11   -1    0    0    0    0 -0.00000000000E+00 -0.00000000000E+00 -0.45593999997E+02  0.45594000000E+02  0.51100000000E-03 0. -1.
    9900012    2    1    2    0    0 -0.27766609127E+02 -0.76266203148E+01  0.13695055980E+02  0.59302196292E+02  0.50000460067E+02 0.  0.
         12    1    1    2    0    0  0.27766609127E+02  0.76266203148E+01 -0.13695055980E+02  0.31885803708E+02  0.00000000000E+00 0. -1.
         11    1    3    3    0    0  0.28260182173E+00 -0.20291044985E+02 -0.92951108958E+00  0.20314289589E+02  0.51100000000E-03 0. -1.
        -11    1    3    3    0    0 -0.12776947583E+02  0.35086846964E+01  0.16410818223E+02  0.21092088868E+02  0.51100000000E-03 0.  1.
         12    1    3    3    0    0 -0.15272263366E+02  0.91557399736E+01 -0.17862511536E+01  0.17895817835E+02  0.00000000000E+00 0. -1.
</event>
<event>
 7    1  0.7579108E-012  0.5930193E+02  0.7816164E-02  0.1266605E+00
        -11   -1    0    0    0    0  0.00000000000E+00  0.00000000000E+00  0.45593999997E+02  0.45594000000E+02  0.51100000000E-03 0. -1.
         11   -1    0    0    0    0 -0.00000000000E+00 -0.00000000000E+00 -0.45593999997E+02  0.45594000000E+02  0.51100000000E-03 0.  1.
    9900012    2    1    2    0    0  0.23717042724E+02 -0.11819514114E+02 -0.17734775862E+02  0.59301932442E+02  0.49999978870E+02 0.  0.
         12    1    1    2    0    0 -0.23717042724E+02  0.11819514114E+02  0.17734775862E+02  0.31886067558E+02  0.00000000000E+00 0. -1.
         11    1    3    3    0    0 -0.21178818127E+01 -0.14739229122E+02 -0.17429722419E+02  0.22924343445E+02  0.51100000000E-03 0. -1.
        -11    1    3    3    0    0  0.24302831876E+02  0.12026982261E+02  0.36086858960E+00  0.27118373216E+02  0.51100000000E-03 0.  1.
        -12    1    3    3    0    0  0.15320926604E+01 -0.91072672521E+01 -0.66592203233E+00  0.92592157807E+01  0.00000000000E+00 0.  1.
</event>
<event>
 7    1  0.7579108E-012  0.5930195E+02  0.7816164E-02  0.1266605E+00
        -11   -1    0    0    0    0  0.00000000000E+00  0.00000000000E+00  0.45593999997E+02  0.45594000000E+02  0.51100000000E-03 0.  1.
         11   -1    0    0    0    0 -0.00000000000E+00 -0.00000000000E+00 -0.45593999997E+02  0.45594000000E+02  0.51100000000E-03 0. -1.
    9900012    2    1    2    0    0  0.24391852040E+02 -0.63224744377E+01  0.19539298413E+02  0.59301948011E+02  0.50000007265E+02 0.  0.
         12    1    1    2    0    0 -0.24391852040E+02  0.63224744377E+01 -0.19539298413E+02  0.31886051989E+02  0.00000000000E+00 0. -1.
         11    1    3    3    0    0 -0.53495282192E+00  0.59739344071E+01 -0.18297470075E+01  0.62707289205E+01  0.51100000000E-03 0.  1.
        -11    1    3    3    0    0 -0.72716493757E+01 -0.14079826418E+02  0.10462410037E+02  0.18988955228E+02  0.51100000000E-03 0. -1.
        -12    1    3    3    0    0  0.32198454238E+02  0.17834175729E+01  0.10906635383E+02  0.34042263863E+02  0.00000000000E+00 0.  1.
</event>
<event>
 7    1  0.7579108E-012  0.5930193E+02  0.7816164E-02  0.1266605E+00
        -11   -1    0    0    0    0  0.00000000000E+00  0.00000000000E+00  0.45593999997E+02  0.45594000000E+02  0.51100000000E-03 0.  1.
         11   -1    0    0    0    0 -0.00000000000E+00 -0.00000000000E+00 -0.45593999997E+02  0.45594000000E+02  0.51100000000E-03 0. -1.
    9900012    2    1    2    0    0  0.11321584610E+02  0.12954767605E+02  0.26846176084E+02  0.59301930124E+02  0.49999974643E+02 0.  0.
         12    1    1    2    0    0 -0.11321584610E+02 -0.12954767605E+02 -0.26846176084E+02  0.31886069876E+02  0.00000000000E+00 0. -1.
         11    1    3    3    0    0 -0.92079397711E+01  0.49975497676E+01 -0.49053199714E+01  0.11568224703E+02  0.51100000000E-03 0. -1.
        -11    1    3    3    0    0  0.53229333612E+01 -0.14095901252E+01  0.29173560737E+02  0.29688671412E+02  0.51100000000E-03 0.  1.
         12    1    3    3    0    0  0.15206591020E+02  0.93668079629E+01  0.25779353191E+01  0.18045034009E+02  0.00000000000E+00 0. -1.
</event>
<event>
 7    1  0.7579108E-012  0.5930193E+02  0.7816164E-02  0.1266605E+00
        -11   -1    0    0    0    0  0.00000000000E+00  0.00000000000E+00  0.45593999997E+02  0.45594000000E+02  0.51100000000E-03 0.  1.
         11   -1    0    0    0    0 -0.00000000000E+00 -0.00000000000E+00 -0.45593999997E+02  0.45594000000E+02  0.51100000000E-03 0. -1.
    9900012    2    1    2    0    0 -0.20857422476E+01  0.10600185504E+02  0.30000119016E+02  0.59301931029E+02  0.49999976294E+02 0.  0.
         12    1    1    2    0    0  0.20857422476E+01 -0.10600185504E+02 -0.30000119016E+02  0.31886068971E+02  0.00000000000E+00 0. -1.
         11    1    3    3    0    0  0.27519761955E+01 -0.10623423071E+02  0.92233083073E+01  0.14335267947E+02  0.51100000000E-03 0. -1.
        -11    1    3    3    0    0 -0.61434230818E+01  0.10632750186E+02 -0.77420494311E+01  0.14516761117E+02  0.51100000000E-03 0.  1.
        -12    1    3    3    0    0  0.13057046387E+01  0.10590858389E+02  0.28518860139E+02  0.30449901965E+02  0.00000000000E+00 0.  1.
</event>
<event>
 7    1  0.7715972E-012  0.5930194E+02  0.7816164E-02  0.1266605E+00
        -11   -1    0    0    0    0  0.00000000000E+00  0.00000000000E+00  0.45593999997E+02  0.45594000000E+02  0.51100000000E-03 0. -1.
         11   -1    0    0    0    0 -0.00000000000E+00 -0.00000000000E+00 -0.45593999997E+02  0.45594000000E+02  0.51100000000E-03 0.  1.
    9900012    2    1    2    0    0  0.32685497925E+01  0.30287448338E+02 -0.94184787324E+01  0.59301942135E+02  0.49999996548E+02 0.  0.
         12    1    1    2    0    0 -0.32685497925E+01 -0.30287448338E+02  0.94184787324E+01  0.31886057865E+02  0.00000000000E+00 0. -1.
         11    1    3    3    0    0  0.12861829240E+02  0.49953785717E+01  0.12372023240E+02  0.18532334385E+02  0.51100000000E-03 0. -1.
        -11    1    3    3    0    0 -0.13806451386E+02  0.70896032510E+01 -0.74437155423E+01  0.17213061188E+02  0.51100000000E-03 0.  1.
        -12    1    3    3    0    0  0.42131719388E+01  0.18202466515E+02 -0.14346786430E+02  0.23556546561E+02  0.00000000000E+00 0.  1.
</event>
<event>
 7    1  0.7579108E-012  0.5930194E+02  0.7816164E-02  0.1266605E+00
        -11   -1    0    0    0    0  0.00000000000E+00  0.00000000000E+00  0.45593999997E+02  0.45594000000E+02  0.51100000000E-03 0.  1.
         11   -1    0    0    0    0 -0.00000000000E+00 -0.00000000000E+00 -0.45593999997E+02  0.45594000000E+02  0.51100000000E-03 0. -1.
    9900012    2    1    2    0    0 -0.33883710547E+00 -0.28602904009E+02  0.14088277969E+02  0.59301944984E+02  0.50000001744E+02 0.  0.
         12    1    1    2    0    0  0.33883710547E+00  0.28602904009E+02 -0.14088277969E+02  0.31886055016E+02  0.00000000000E+00 0. -1.
         11    1    3    3    0    0  0.95305801687E+01 -0.14764082354E+02  0.19121077843E+02  0.25969707435E+02  0.51100000000E-03 0. -1.
        -11    1    3    3    0    0 -0.17444678609E+02 -0.15058556633E+02  0.17225119877E+01  0.23109391759E+02  0.51100000000E-03 0.  1.
        -12    1    3    3    0    0  0.75752613347E+01  0.12197349781E+01 -0.67553118618E+01  0.10222845790E+02  0.00000000000E+00 0.  1.
</event>
<event>
 7    1  0.7579108E-012  0.5930194E+02  0.7816164E-02  0.1266605E+00
        -11   -1    0    0    0    0  0.00000000000E+00  0.00000000000E+00  0.45593999997E+02  0.45594000000E+02  0.51100000000E-03 0.  1.
         11   -1    0    0    0    0 -0.00000000000E+00 -0.00000000000E+00 -0.45593999997E+02  0.45594000000E+02  0.51100000000E-03 0. -1.
    9900012    2    1    2    0    0 -0.66596033593E+01 -0.11606272402E+02  0.28942440331E+02  0.59301941474E+02  0.49999995343E+02 0.  0.
         12    1    1    2    0    0  0.66596033593E+01  0.11606272402E+02 -0.28942440331E+02  0.31886058526E+02  0.00000000000E+00 0. -1.
         11    1    3    3    0    0 -0.17847793521E+02 -0.49606428638E+01  0.99067732158E+01  0.21007043271E+02  0.51100000000E-03 0. -1.
        -11    1    3    3    0    0  0.16308396161E+02  0.13840784824E+01 -0.69967232891E+00  0.16381971805E+02  0.51100000000E-03 0.  1.
        -12    1    3    3    0    0 -0.51202059993E+01 -0.80297080207E+01  0.19735339444E+02  0.21912926399E+02  0.00000000000E+00 0.  1.
</event>
<event>
 7    1  0.7579108E-012  0.5930193E+02  0.7816164E-02  0.1266605E+00
        -11   -1    0    0    0    0  0.00000000000E+00  0.00000000000E+00  0.45593999997E+02  0.45594000000E+02  0.51100000000E-03 0.  1.
         11   -1    0    0    0    0 -0.00000000000E+00 -0.00000000000E+00 -0.45593999997E+02  0.45594000000E+02  0.51100000000E-03 0. -1.
    9900012    2    1    2    0    0  0.15875564177E+02  0.13409158257E+02  0.24184341707E+02  0.59301930206E+02  0.49999974793E+02 0.  0.
         12    1    1    2    0    0 -0.15875564177E+02 -0.13409158257E+02 -0.24184341707E+02  0.31886069794E+02  0.00000000000E+00 0. -1.
         11    1    3    3    0    0 -0.11178703350E+02  0.99659852078E+01  0.59897694134E+01  0.16129525958E+02  0.51100000000E-03 0. -1.
        -11    1    3    3    0    0  0.27240727599E+02  0.96563115002E+01  0.21603181845E+02  0.36083224053E+02  0.51100000000E-03 0.  1.
         12    1    3    3    0    0 -0.18646007273E+00 -0.62131384509E+01 -0.34086095518E+01  0.70891801956E+01  0.00000000000E+00 0. -1.
</event>
<event>
 7    1  0.7579108E-012  0.5930195E+02  0.7816164E-02  0.1266605E+00
        -11   -1    0    0    0    0  0.00000000000E+00  0.00000000000E+00  0.45593999997E+02  0.45594000000E+02  0.51100000000E-03 0. -1.
         11   -1    0    0    0    0 -0.00000000000E+00 -0.00000000000E+00 -0.45593999997E+02  0.45594000000E+02  0.51100000000E-03 0.  1.
    9900012    2    1    2    0    0 -0.25824689866E+02  0.85341196820E+01 -0.16642546394E+02  0.59301950450E+02  0.50000011712E+02 0.  0.
         12    1    1    2    0    0  0.25824689866E+02 -0.85341196820E+01  0.16642546394E+02  0.31886049550E+02  0.00000000000E+00 0. -1.
         11    1    3    3    0    0 -0.13198883218E+02 -0.16306957847E+02  0.76414273220E+01  0.22327534665E+02  0.51100000000E-03 0. -1.
        -11    1    3    3    0    0 -0.11434330303E+02  0.21838838534E+02 -0.21388985486E+02  0.32636903627E+02  0.51100000000E-03 0.  1.
         12    1    3    3    0    0 -0.11914763459E+01  0.30022389958E+01 -0.28949882305E+01  0.43375121585E+01  0.00000000000E+00 0. -1.
</event>
<event>
 7    1  0.7579108E-012  0.5930194E+02  0.7816164E-02  0.1266605E+00
        -11   -1    0    0    0    0  0.00000000000E+00  0.00000000000E+00  0.45593999997E+02  0.45594000000E+02  0.51100000000E-03 0.  1.
         11   -1    0    0    0    0 -0.00000000000E+00 -0.00000000000E+00 -0.45593999997E+02  0.45594000000E+02  0.51100000000E-03 0. -1.
    9900012    2    1    2    0    0  0.91852567996E+01  0.29575201368E+02 -0.75933768957E+01  0.59301939548E+02  0.49999991830E+02 0.  0.
         12    1    1    2    0    0 -0.91852567996E+01 -0.29575201368E+02  0.75933768957E+01  0.31886060452E+02  0.00000000000E+00 0. -1.
         11    1    3    3    0    0  0.19906607861E+02  0.67307437518E+01  0.85458245222E+01  0.22684952392E+02  0.51100000000E-03 0.  1.
        -11    1    3    3    0    0 -0.20936047947E+01  0.17048639075E+02  0.28645242983E+00  0.17179095745E+02  0.51100000000E-03 0. -1.
         12    1    3    3    0    0 -0.86277462668E+01  0.57958185415E+01 -0.16425653848E+02  0.19437891412E+02  0.00000000000E+00 0. -1.
</event>
<event>
 7    1  0.7579108E-012  0.5930191E+02  0.7816164E-02  0.1266605E+00
        -11   -1    0    0    0    0  0.00000000000E+00  0.00000000000E+00  0.45593999997E+02  0.45594000000E+02  0.51100000000E-03 0.  1.
         11   -1    0    0    0    0 -0.00000000000E+00 -0.00000000000E+00 -0.45593999997E+02  0.45594000000E+02  0.51100000000E-03 0. -1.
    9900012    2    1    2    0    0  0.28154562833E+02 -0.12917241996E+02 -0.75622876126E+01  0.59301909881E+02  0.49999937725E+02 0.  0.
         12    1    1    2    0    0 -0.28154562833E+02  0.12917241996E+02  0.75622876126E+01  0.31886090119E+02  0.00000000000E+00 0. -1.
         11    1    3    3    0    0 -0.32885760901E+01  0.15387482644E+02 -0.18530226633E+01  0.15843706892E+02  0.51100000000E-03 0. -1.
        -11    1    3    3    0    0  0.24694434447E+02 -0.22465720814E+02 -0.10731299390E+01  0.33401726190E+02  0.51100000000E-03 0.  1.
         12    1    3    3    0    0  0.67487044763E+01 -0.58390038260E+01 -0.46361350104E+01  0.10056476800E+02  0.00000000000E+00 0. -1.
</event>
<event>
 7    1  0.7579108E-012  0.5930191E+02  0.7816164E-02  0.1266605E+00
        -11   -1    0    0    0    0  0.00000000000E+00  0.00000000000E+00  0.45593999997E+02  0.45594000000E+02  0.51100000000E-03 0.  1.
         11   -1    0    0    0    0 -0.00000000000E+00 -0.00000000000E+00 -0.45593999997E+02  0.45594000000E+02  0.51100000000E-03 0. -1.
    9900012    2    1    2    0    0 -0.34442616596E+01  0.37041985545E+01  0.31482357813E+02  0.59301907753E+02  0.49999933843E+02 0.  0.
         12    1    1    2    0    0  0.34442616596E+01 -0.37041985545E+01 -0.31482357813E+02  0.31886092247E+02  0.00000000000E+00 0. -1.
         11    1    3    3    0    0  0.11432839865E+02  0.19770502965E+02  0.84934649115E+01  0.24366402306E+02  0.51100000000E-03 0. -1.
        -11    1    3    3    0    0 -0.24366855479E+01 -0.12225859917E+02  0.15586214078E+02  0.19958435728E+02  0.51100000000E-03 0.  1.
         12    1    3    3    0    0 -0.12440415977E+02 -0.38404444941E+01  0.74026788242E+01  0.14977069719E+02  0.00000000000E+00 0. -1.
</event>
<event>
 7    1  0.7579108E-012  0.5930196E+02  0.7816164E-02  0.1266605E+00
        -11   -1    0    0    0    0  0.00000000000E+00  0.00000000000E+00  0.45593999997E+02  0.45594000000E+02  0.51100000000E-03 0.  1.
         11   -1    0    0    0    0 -0.00000000000E+00 -0.00000000000E+00 -0.45593999997E+02  0.45594000000E+02  0.51100000000E-03 0. -1.
    9900012    2    1    2    0    0  0.27453359698E+02  0.93010901231E+01 -0.13286179421E+02  0.59301956034E+02  0.50000021896E+02 0.  0.
         12    1    1    2    0    0 -0.27453359698E+02 -0.93010901231E+01  0.13286179421E+02  0.31886043966E+02  0.00000000000E+00 0. -1.
         11    1    3    3    0    0  0.98651771027E+01  0.22905274151E+02 -0.22769747785E+01  0.25043121163E+02  0.51100000000E-03 0. -1.
        -11    1    3    3    0    0  0.51213217066E+01 -0.17440517245E+02 -0.17461468751E+01  0.18260575209E+02  0.51100000000E-03 0.  1.
        -12    1    3    3    0    0  0.12466860889E+02  0.38363332172E+01 -0.92630577677E+01  0.15998259661E+02  0.00000000000E+00 0.  1.
</event>
<event>
 7    1  0.7579108E-012  0.5930228E+02  0.7816164E-02  0.1266604E+00
        -11   -1    0    0    0    0  0.00000000000E+00  0.00000000000E+00  0.45593999997E+02  0.45594000000E+02  0.51100000000E-03 0. -1.
         11   -1    0    0    0    0 -0.00000000000E+00 -0.00000000000E+00 -0.45593999997E+02  0.45594000000E+02  0.51100000000E-03 0.  1.
    9900012    2    1    2    0    0  0.15007663857E+02  0.26285187444E+02 -0.10027878095E+02  0.59302276039E+02  0.50000605505E+02 0.  0.
         12    1    1    2    0    0 -0.15007663857E+02 -0.26285187444E+02  0.10027878095E+02  0.31885723961E+02  0.00000000000E+00 0. -1.
         11    1    3    3    0    0 -0.86470538706E+01  0.40394809002E+01 -0.71977383441E+01  0.11953927560E+02  0.51100000000E-03 0. -1.
        -11    1    3    3    0    0  0.54983059121E+01  0.49464847002E+01  0.14900659474E+02  0.16635165518E+02  0.51100000000E-03 0.  1.
        -12    1    3    3    0    0  0.18156411815E+02  0.17299221844E+02 -0.17730799225E+02  0.30713182961E+02  0.00000000000E+00 0.  1.
</event>
<event>
 7    1  0.7579108E-012  0.5930192E+02  0.7816164E-02  0.1266605E+00
        -11   -1    0    0    0    0  0.00000000000E+00  0.00000000000E+00  0.45593999997E+02  0.45594000000E+02  0.51100000000E-03 0. -1.
         11   -1    0    0    0    0 -0.00000000000E+00 -0.00000000000E+00 -0.45593999997E+02  0.45594000000E+02  0.51100000000E-03 0.  1.
    9900012    2    1    2    0    0  0.32532925725E+01  0.29820368656E+02 -0.10811289520E+02  0.59301917136E+02  0.49999950955E+02 0.  0.
         12    1    1    2    0    0 -0.32532925725E+01 -0.29820368656E+02  0.10811289520E+02  0.31886082864E+02  0.00000000000E+00 0. -1.
         11    1    3    3    0    0 -0.12509940193E+02  0.56970121103E+01  0.11017089971E+02  0.17616209079E+02  0.51100000000E-03 0. -1.
        -11    1    3    3    0    0  0.16656834266E+02  0.66828324487E+01 -0.12647294991E+02  0.21955966117E+02  0.51100000000E-03 0.  1.
         12    1    3    3    0    0 -0.89360150016E+00  0.17440524097E+02 -0.91810844995E+01  0.19729741940E+02  0.00000000000E+00 0. -1.
</event>
<event>
 7    1  0.7579108E-012  0.5930196E+02  0.7816164E-02  0.1266605E+00
        -11   -1    0    0    0    0  0.00000000000E+00  0.00000000000E+00  0.45593999997E+02  0.45594000000E+02  0.51100000000E-03 0.  1.
         11   -1    0    0    0    0 -0.00000000000E+00 -0.00000000000E+00 -0.45593999997E+02  0.45594000000E+02  0.51100000000E-03 0. -1.
    9900012    2    1    2    0    0 -0.12899016288E+02  0.13614538402E+02  0.25787192875E+02  0.59301959269E+02  0.50000027796E+02 0.  0.
         12    1    1    2    0    0  0.12899016288E+02 -0.13614538402E+02 -0.25787192875E+02  0.31886040731E+02  0.00000000000E+00 0. -1.
         11    1    3    3    0    0 -0.41642483653E+01  0.73253411291E+01  0.44005959253E+01  0.95061470567E+01  0.51100000000E-03 0. -1.
        -11    1    3    3    0    0  0.17810900908E+02  0.43187969985E+01  0.95145287661E+01  0.20649611536E+02  0.51100000000E-03 0.  1.
        -12    1    3    3    0    0 -0.26545668831E+02  0.19704002745E+01  0.11872068184E+02  0.29146200677E+02  0.00000000000E+00 0.  1.
</event>
<event>
 7    1  0.7579108E-012  0.5930195E+02  0.7816164E-02  0.1266605E+00
        -11   -1    0    0    0    0  0.00000000000E+00  0.00000000000E+00  0.45593999997E+02  0.45594000000E+02  0.51100000000E-03 0.  1.
         11   -1    0    0    0    0 -0.00000000000E+00 -0.00000000000E+00 -0.45593999997E+02  0.45594000000E+02  0.51100000000E-03 0. -1.
    9900012    2    1    2    0    0 -0.23039283224E+02  0.18283813723E+02  0.12313165782E+02  0.59301945567E+02  0.50000002807E+02 0.  0.
         12    1    1    2    0    0  0.23039283224E+02 -0.18283813723E+02 -0.12313165782E+02  0.31886054433E+02  0.00000000000E+00 0. -1.
         11    1    3    3    0    0 -0.11741360548E+02 -0.41960429632E+01 -0.42535815541E+01  0.13174189932E+02  0.51100000000E-03 0. -1.
        -11    1    3    3    0    0 -0.19956338756E+01  0.29360553840E+02  0.51548649232E+01  0.29876367065E+02  0.51100000000E-03 0.  1.
        -12    1    3    3    0    0 -0.93022888009E+01 -0.68806971536E+01  0.11411882412E+02  0.16251388570E+02  0.00000000000E+00 0.  1.
</event>
<event>
 7    1  0.7579108E-012  0.5930205E+02  0.7816164E-02  0.1266604E+00
        -11   -1    0    0    0    0  0.00000000000E+00  0.00000000000E+00  0.45593999997E+02  0.45594000000E+02  0.51100000000E-03 0. -1.
         11   -1    0    0    0    0 -0.00000000000E+00 -0.00000000000E+00 -0.45593999997E+02  0.45594000000E+02  0.51100000000E-03 0.  1.
    9900012    2    1    2    0    0 -0.26947721096E+02  0.72276863822E+01 -0.15436796948E+02  0.59302049760E+02  0.50000192829E+02 0.  0.
         12    1    1    2    0    0  0.26947721096E+02 -0.72276863822E+01  0.15436796948E+02  0.31885950240E+02  0.00000000000E+00 0. -1.
         11    1    3    3    0    0 -0.21255544823E+02 -0.70793248903E+01 -0.13788169701E+02  0.26306437436E+02  0.51100000000E-03 0.  1.
        -11    1    3    3    0    0 -0.29880946626E+01  0.58748619375E+01  0.13741122881E+02  0.15240117152E+02  0.51100000000E-03 0. -1.
        -12    1    3    3    0    0 -0.27040816108E+01  0.84321493350E+01 -0.15389750129E+02  0.17755495172E+02  0.00000000000E+00 0.  1.
</event>
<event>
 7    1  0.7579108E-012  0.5930193E+02  0.7816164E-02  0.1266605E+00
        -11   -1    0    0    0    0  0.00000000000E+00  0.00000000000E+00  0.45593999997E+02  0.45594000000E+02  0.51100000000E-03 0.  1.
         11   -1    0    0    0    0 -0.00000000000E+00 -0.00000000000E+00 -0.45593999997E+02  0.45594000000E+02  0.51100000000E-03 0. -1.
    9900012    2    1    2    0    0 -0.15523761988E+02 -0.27690088070E+02 -0.29988781380E+01  0.59301930414E+02  0.49999975171E+02 0.  0.
         12    1    1    2    0    0  0.15523761988E+02  0.27690088070E+02  0.29988781380E+01  0.31886069586E+02  0.00000000000E+00 0. -1.
         11    1    3    3    0    0 -0.71944887093E+01 -0.23537728479E+02 -0.19740094324E+02  0.31550858213E+02  0.51100000000E-03 0. -1.
        -11    1    3    3    0    0  0.60477594267E+01 -0.25944966018E+01  0.95572087817E+01  0.11603751405E+02  0.51100000000E-03 0.  1.
         12    1    3    3    0    0 -0.14377032706E+02 -0.15578629886E+01  0.71840074047E+01  0.16147320797E+02  0.00000000000E+00 0. -1.
</event>
<event>
 7    1  0.7579108E-012  0.5930191E+02  0.7816164E-02  0.1266605E+00
        -11   -1    0    0    0    0  0.00000000000E+00  0.00000000000E+00  0.45593999997E+02  0.45594000000E+02  0.51100000000E-03 0.  1.
         11   -1    0    0    0    0 -0.00000000000E+00 -0.00000000000E+00 -0.45593999997E+02  0.45594000000E+02  0.51100000000E-03 0. -1.
    9900012    2    1    2    0    0 -0.15118673809E+02 -0.27433701346E+02 -0.59615947974E+01  0.59301907737E+02  0.49999933814E+02 0.  0.
         12    1    1    2    0    0  0.15118673809E+02  0.27433701346E+02  0.59615947974E+01  0.31886092263E+02  0.00000000000E+00 0. -1.
         11    1    3    3    0    0  0.42791428254E+01  0.72139722835E+01  0.17047308445E+01  0.85591218557E+01  0.51100000000E-03 0. -1.
        -11    1    3    3    0    0  0.62984430031E+01 -0.17968816826E+02 -0.63799039712E+01  0.20081133865E+02  0.51100000000E-03 0.  1.
         12    1    3    3    0    0 -0.25696259637E+02 -0.16678856804E+02 -0.12864216707E+01  0.30661652016E+02  0.00000000000E+00 0. -1.
</event>
<event>
 7    1  0.7579108E-012  0.5930193E+02  0.7816164E-02  0.1266605E+00
        -11   -1    0    0    0    0  0.00000000000E+00  0.00000000000E+00  0.45593999997E+02  0.45594000000E+02  0.51100000000E-03 0.  1.
         11   -1    0    0    0    0 -0.00000000000E+00 -0.00000000000E+00 -0.45593999997E+02  0.45594000000E+02  0.51100000000E-03 0. -1.
    9900012    2    1    2    0    0  0.16480568473E+02  0.18134183937E+02  0.20402544084E+02  0.59301928286E+02  0.49999971291E+02 0.  0.
         12    1    1    2    0    0 -0.16480568473E+02 -0.18134183937E+02 -0.20402544084E+02  0.31886071714E+02  0.00000000000E+00 0. -1.
         11    1    3    3    0    0  0.11386238399E+02 -0.11414773346E+01 -0.62653811362E+01  0.13046240701E+02  0.51100000000E-03 0. -1.
        -11    1    3    3    0    0 -0.34400763410E+01 -0.59123366723E+01  0.16361591756E+02  0.17733909191E+02  0.51100000000E-03 0.  1.
        -12    1    3    3    0    0  0.85344064155E+01  0.25187997944E+02  0.10306333464E+02  0.28521778394E+02  0.00000000000E+00 0.  1.
</event>
<event>
 7    1  0.7579108E-012  0.5930194E+02  0.7816164E-02  0.1266605E+00
        -11   -1    0    0    0    0  0.00000000000E+00  0.00000000000E+00  0.45593999997E+02  0.45594000000E+02  0.51100000000E-03 0. -1.
         11   -1    0    0    0    0 -0.00000000000E+00 -0.00000000000E+00 -0.45593999997E+02  0.45594000000E+02  0.51100000000E-03 0.  1.
    9900012    2    1    2    0    0  0.11903419129E+02  0.18280693052E+02  0.23256093341E+02  0.59301937168E+02  0.49999987490E+02 0.  0.
         12    1    1    2    0    0 -0.11903419129E+02 -0.18280693052E+02 -0.23256093341E+02  0.31886062832E+02  0.00000000000E+00 0. -1.
         11    1    3    3    0    0 -0.99105304830E+01 -0.10149129439E+02  0.32804530249E-01  0.14185362851E+02  0.51100000000E-03 0. -1.
        -11    1    3    3    0    0  0.16704025397E+02  0.98178614998E+01  0.11967722530E+02  0.22773696487E+02  0.51100000000E-03 0.  1.
        -12    1    3    3    0    0  0.51099242153E+01  0.18611960991E+02  0.11255566281E+02  0.22342877830E+02  0.00000000000E+00 0.  1.
</event>
<event>
 7    1  0.7579108E-012  0.5930178E+02  0.7816164E-02  0.1266605E+00
        -11   -1    0    0    0    0  0.00000000000E+00  0.00000000000E+00  0.45593999997E+02  0.45594000000E+02  0.51100000000E-03 0.  1.
         11   -1    0    0    0    0 -0.00000000000E+00 -0.00000000000E+00 -0.45593999997E+02  0.45594000000E+02  0.51100000000E-03 0. -1.
    9900012    2    1    2    0    0  0.19343148965E+02 -0.24719615007E+02 -0.56137587623E+01  0.59301779380E+02  0.49999699722E+02 0.  0.
         12    1    1    2    0    0 -0.19343148965E+02  0.24719615007E+02  0.56137587623E+01  0.31886220620E+02  0.00000000000E+00 0. -1.
         11    1    3    3    0    0  0.34410050148E+01 -0.37793841396E+01 -0.16886266163E+02  0.17642852524E+02  0.51100000000E-03 0. -1.
        -11    1    3    3    0    0  0.16630775514E+02  0.66731715787E+00  0.11159098882E+02  0.20038799727E+02  0.51100000000E-03 0.  1.
        -12    1    3    3    0    0 -0.72863156336E+00 -0.21607548025E+02  0.11340851879E+00  0.21620127130E+02  0.00000000000E+00 0.  1.
</event>
<event>
 7    1  0.7579108E-012  0.5930195E+02  0.7816164E-02  0.1266605E+00
        -11   -1    0    0    0    0  0.00000000000E+00  0.00000000000E+00  0.45593999997E+02  0.45594000000E+02  0.51100000000E-03 0. -1.
         11   -1    0    0    0    0 -0.00000000000E+00 -0.00000000000E+00 -0.45593999997E+02  0.45594000000E+02  0.51100000000E-03 0.  1.
    9900012    2    1    2    0    0 -0.25328386480E+02 -0.16931970928E+02 -0.94075213753E+01  0.59301948824E+02  0.50000008747E+02 0.  0.
         12    1    1    2    0    0  0.25328386480E+02  0.16931970928E+02  0.94075213753E+01  0.31886051176E+02  0.00000000000E+00 0. -1.
         11    1    3    3    0    0  0.53609618190E+01 -0.14089189533E+02 -0.80208029128E+01  0.17075668448E+02  0.51100000000E-03 0. -1.
        -11    1    3    3    0    0 -0.31179999734E+02 -0.11627925872E+02  0.23912357384E+00  0.33278494916E+02  0.51100000000E-03 0.  1.
         12    1    3    3    0    0  0.49065143523E+00  0.87851444774E+01 -0.16258420364E+01  0.89477854605E+01  0.00000000000E+00 0. -1.
</event>
<event>
 7    1  0.7579108E-012  0.5930195E+02  0.7816164E-02  0.1266605E+00
        -11   -1    0    0    0    0  0.00000000000E+00  0.00000000000E+00  0.45593999997E+02  0.45594000000E+02  0.51100000000E-03 0.  1.
         11   -1    0    0    0    0 -0.00000000000E+00 -0.00000000000E+00 -0.45593999997E+02  0.45594000000E+02  0.51100000000E-03 0. -1.
    9900012    2    1    2    0    0 -0.13088172279E+02 -0.27283393190E+02  0.10051681717E+02  0.59301951281E+02  0.50000013228E+02 0.  0.
         12    1    1    2    0    0  0.13088172279E+02  0.27283393190E+02 -0.10051681717E+02  0.31886048719E+02  0.00000000000E+00 0. -1.
         11    1    3    3    0    0  0.13408778673E+02 -0.20250984464E+02  0.10236252259E+02  0.26356755829E+02  0.51100000000E-03 0. -1.
        -11    1    3    3    0    0 -0.81764343083E+01  0.31456507293E+01  0.65425681915E+01  0.10934093255E+02  0.51100000000E-03 0.  1.
         12    1    3    3    0    0 -0.18320516644E+02 -0.10178059455E+02 -0.67271387339E+01  0.22011102197E+02  0.00000000000E+00 0. -1.
</event>
<event>
 7    1  0.7579108E-012  0.5930193E+02  0.7816164E-02  0.1266605E+00
        -11   -1    0    0    0    0  0.00000000000E+00  0.00000000000E+00  0.45593999997E+02  0.45594000000E+02  0.51100000000E-03 0.  1.
         11   -1    0    0    0    0 -0.00000000000E+00 -0.00000000000E+00 -0.45593999997E+02  0.45594000000E+02  0.51100000000E-03 0. -1.
    9900012    2    1    2    0    0  0.18497676279E+02 -0.40240498142E+01  0.25658613419E+02  0.59301930201E+02  0.49999974784E+02 0.  0.
         12    1    1    2    0    0 -0.18497676279E+02  0.40240498142E+01 -0.25658613419E+02  0.31886069799E+02  0.00000000000E+00 0. -1.
         11    1    3    3    0    0 -0.16206278933E+02 -0.49855597060E+01  0.17634598567E+01  0.17047259996E+02  0.51100000000E-03 0. -1.
        -11    1    3    3    0    0  0.15104977853E+02 -0.83210413642E+00  0.93774982340E+01  0.17798601817E+02  0.51100000000E-03 0.  1.
         12    1    3    3    0    0  0.19598977359E+02  0.17936140283E+01  0.14517655328E+02  0.24456068389E+02  0.00000000000E+00 0. -1.
</event>
<event>
 7    1  0.8162381E-012  0.5930194E+02  0.7816164E-02  0.1266605E+00
        -11   -1    0    0    0    0  0.00000000000E+00  0.00000000000E+00  0.45593999997E+02  0.45594000000E+02  0.51100000000E-03 0. -1.
         11   -1    0    0    0    0 -0.00000000000E+00 -0.00000000000E+00 -0.45593999997E+02  0.45594000000E+02  0.51100000000E-03 0.  1.
    9900012    2    1    2    0    0 -0.25917226282E+01  0.97175269799E+01 -0.30258439300E+02  0.59301944965E+02  0.50000001710E+02 0.  0.
         12    1    1    2    0    0  0.25917226282E+01 -0.97175269799E+01  0.30258439300E+02  0.31886055035E+02  0.00000000000E+00 0. -1.
         11    1    3    3    0    0  0.10160924998E+02  0.65494653716E+01  0.18754208409E+01  0.12233441750E+02  0.51100000000E-03 0. -1.
        -11    1    3    3    0    0 -0.19917394207E+02 -0.56627445621E+00 -0.77476747789E+01  0.21378721279E+02  0.51100000000E-03 0.  1.
        -12    1    3    3    0    0  0.71647465814E+01  0.37343360645E+01 -0.24386185362E+02  0.25689781936E+02  0.00000000000E+00 0.  1.
</event>
<event>
 7    1  0.7579108E-012  0.5930186E+02  0.7816164E-02  0.1266605E+00
        -11   -1    0    0    0    0  0.00000000000E+00  0.00000000000E+00  0.45593999997E+02  0.45594000000E+02  0.51100000000E-03 0.  1.
         11   -1    0    0    0    0 -0.00000000000E+00 -0.00000000000E+00 -0.45593999997E+02  0.45594000000E+02  0.51100000000E-03 0. -1.
    9900012    2    1    2    0    0 -0.15386641903E+02  0.22770571383E+02 -0.16170291842E+02  0.59301858678E+02  0.49999844342E+02 0.  0.
         12    1    1    2    0    0  0.15386641903E+02 -0.22770571383E+02  0.16170291842E+02  0.31886141322E+02  0.00000000000E+00 0. -1.
         11    1    3    3    0    0  0.38787842354E+01  0.13056932577E+02 -0.29058242950E+01  0.13927392812E+02  0.51100000000E-03 0. -1.
        -11    1    3    3    0    0 -0.17323537546E+02 -0.78531419182E+01  0.52973479199E+01  0.19744333018E+02  0.51100000000E-03 0.  1.
        -12    1    3    3    0    0 -0.19418885926E+01  0.17566780724E+02 -0.18561815467E+02  0.25630132847E+02  0.00000000000E+00 0.  1.
</event>
<event>
 7    1  0.7579108E-012  0.5930193E+02  0.7816164E-02  0.1266605E+00
        -11   -1    0    0    0    0  0.00000000000E+00  0.00000000000E+00  0.45593999997E+02  0.45594000000E+02  0.51100000000E-03 0.  1.
         11   -1    0    0    0    0 -0.00000000000E+00 -0.00000000000E+00 -0.45593999997E+02  0.45594000000E+02  0.51100000000E-03 0. -1.
    9900012    2    1    2    0    0  0.21354815797E+02 -0.16029712759E+02  0.17428191071E+02  0.59301926349E+02  0.49999967758E+02 0.  0.
         12    1    1    2    0    0 -0.21354815797E+02  0.16029712759E+02 -0.17428191071E+02  0.31886073651E+02  0.00000000000E+00 0. -1.
         11    1    3    3    0    0  0.41322516091E+01 -0.25701883018E+02  0.11722038420E+02  0.28549404180E+02  0.51100000000E-03 0. -1.
        -11    1    3    3    0    0  0.13616679732E+02  0.49914298005E+01  0.14271377709E+02  0.20347003719E+02  0.51100000000E-03 0.  1.
         12    1    3    3    0    0  0.36058844564E+01  0.46807404591E+01 -0.85652250567E+01  0.10405518451E+02  0.00000000000E+00 0. -1.
</event>
<event>
 7    1  0.7579108E-012  0.5930189E+02  0.7816164E-02  0.1266605E+00
        -11   -1    0    0    0    0  0.00000000000E+00  0.00000000000E+00  0.45593999997E+02  0.45594000000E+02  0.51100000000E-03 0.  1.
         11   -1    0    0    0    0 -0.00000000000E+00 -0.00000000000E+00 -0.45593999997E+02  0.45594000000E+02  0.51100000000E-03 0. -1.
    9900012    2    1    2    0    0 -0.12349810684E+02 -0.23181210373E+02  0.18078651158E+02  0.59301890705E+02  0.49999902751E+02 0.  0.
         12    1    1    2    0    0  0.12349810684E+02  0.23181210373E+02 -0.18078651158E+02  0.31886109295E+02  0.00000000000E+00 0. -1.
         11    1    3    3    0    0  0.52338296164E+01  0.46993271208E+01  0.24031465447E+02  0.25039728026E+02  0.51100000000E-03 0.  1.
        -11    1    3    3    0    0 -0.13161668133E+02 -0.14722238979E+02 -0.48647685469E+01  0.20338136637E+02  0.51100000000E-03 0. -1.
        -12    1    3    3    0    0 -0.44219721665E+01 -0.13158298516E+02 -0.10880457413E+01  0.13924026041E+02  0.00000000000E+00 0.  1.
</event>
<event>
 7    1  0.7579108E-012  0.5930196E+02  0.7816164E-02  0.1266605E+00
        -11   -1    0    0    0    0  0.00000000000E+00  0.00000000000E+00  0.45593999997E+02  0.45594000000E+02  0.51100000000E-03 0. -1.
         11   -1    0    0    0    0 -0.00000000000E+00 -0.00000000000E+00 -0.45593999997E+02  0.45594000000E+02  0.51100000000E-03 0.  1.
    9900012    2    1    2    0    0 -0.17387153895E+02  0.14926630182E+02 -0.22172097583E+02  0.59301963552E+02  0.50000035607E+02 0.  0.
         12    1    1    2    0    0  0.17387153895E+02 -0.14926630182E+02  0.22172097583E+02  0.31886036448E+02  0.00000000000E+00 0. -1.
         11    1    3    3    0    0  0.68316381041E+01  0.54215505318E+01  0.11871768377E+02  0.14731034384E+02  0.51100000000E-03 0. -1.
        -11    1    3    3    0    0 -0.17144282228E+02  0.20370292043E+01 -0.27195531767E+02  0.32212929849E+02  0.51100000000E-03 0.  1.
        -12    1    3    3    0    0 -0.70745097710E+01  0.74680504456E+01 -0.68483341934E+01  0.12357999320E+02  0.00000000000E+00 0.  1.
</event>
<event>
 7    1  0.7579108E-012  0.5930196E+02  0.7816164E-02  0.1266605E+00
        -11   -1    0    0    0    0  0.00000000000E+00  0.00000000000E+00  0.45593999997E+02  0.45594000000E+02  0.51100000000E-03 0. -1.
         11   -1    0    0    0    0 -0.00000000000E+00 -0.00000000000E+00 -0.45593999997E+02  0.45594000000E+02  0.51100000000E-03 0.  1.
    9900012    2    1    2    0    0  0.19693175858E+02  0.24334664347E+02  0.60599244322E+01  0.59301956840E+02  0.50000023367E+02 0.  0.
         12    1    1    2    0    0 -0.19693175858E+02 -0.24334664347E+02 -0.60599244322E+01  0.31886043160E+02  0.00000000000E+00 0. -1.
         11    1    3    3    0    0  0.15676602302E+02  0.29306110266E+01  0.19194370355E+02  0.24955323968E+02  0.51100000000E-03 0. -1.
        -11    1    3    3    0    0 -0.46412744392E+01  0.18323242756E+02 -0.73915116372E+00  0.18916368526E+02  0.51100000000E-03 0.  1.
         12    1    3    3    0    0  0.86578479946E+01  0.30808105649E+01 -0.12395294759E+02  0.15430264347E+02  0.00000000000E+00 0. -1.
</event>
<event>
 7    1  0.7579108E-012  0.5930195E+02  0.7816164E-02  0.1266605E+00
        -11   -1    0    0    0    0  0.00000000000E+00  0.00000000000E+00  0.45593999997E+02  0.45594000000E+02  0.51100000000E-03 0.  1.
         11   -1    0    0    0    0 -0.00000000000E+00 -0.00000000000E+00 -0.45593999997E+02  0.45594000000E+02  0.51100000000E-03 0. -1.
    9900012    2    1    2    0    0  0.80436776728E+01 -0.11532730021E+01  0.30833248654E+02  0.59301952711E+02  0.50000015837E+02 0.  0.
         12    1    1    2    0    0 -0.80436776728E+01  0.11532730021E+01 -0.30833248654E+02  0.31886047289E+02  0.00000000000E+00 0. -1.
         11    1    3    3    0    0  0.18027534523E+02 -0.46980711582E+01  0.14781152294E+02  0.23781218156E+02  0.51100000000E-03 0. -1.
        -11    1    3    3    0    0 -0.11832373428E+02  0.14878840297E+02  0.14549736560E+02  0.23939084856E+02  0.51100000000E-03 0.  1.
         12    1    3    3    0    0  0.18485165780E+01 -0.11334042141E+02  0.15023598002E+01  0.11581649699E+02  0.00000000000E+00 0. -1.
</event>
<event>
 7    1  0.7579108E-012  0.5930195E+02  0.7816164E-02  0.1266605E+00
        -11   -1    0    0    0    0  0.00000000000E+00  0.00000000000E+00  0.45593999997E+02  0.45594000000E+02  0.51100000000E-03 0.  1.
         11   -1    0    0    0    0 -0.00000000000E+00 -0.00000000000E+00 -0.45593999997E+02  0.45594000000E+02  0.51100000000E-03 0. -1.
    9900012    2    1    2    0    0  0.28754080622E+02  0.94069868145E+01 -0.10071337771E+02  0.59301946657E+02  0.50000004795E+02 0.  0.
         12    1    1    2    0    0 -0.28754080622E+02 -0.94069868145E+01  0.10071337771E+02  0.31886053343E+02  0.00000000000E+00 0. -1.
         11    1    3    3    0    0 -0.21038089604E+00  0.38214023997E+01  0.17180043637E+01  0.41951061580E+01  0.51100000000E-03 0. -1.
        -11    1    3    3    0    0 -0.25629690205E+00 -0.16926433446E+02 -0.43279814569E+01  0.17472872146E+02  0.51100000000E-03 0.  1.
        -12    1    3    3    0    0  0.29220758420E+02  0.22512017861E+02 -0.74613606775E+01  0.37633968352E+02  0.00000000000E+00 0.  1.
</event>
<event>
 7    1  0.7579108E-012  0.5930195E+02  0.7816164E-02  0.1266605E+00
        -11   -1    0    0    0    0  0.00000000000E+00  0.00000000000E+00  0.45593999997E+02  0.45594000000E+02  0.51100000000E-03 0.  1.
         11   -1    0    0    0    0 -0.00000000000E+00 -0.00000000000E+00 -0.45593999997E+02  0.45594000000E+02  0.51100000000E-03 0. -1.
    9900012    2    1    2    0    0 -0.14248699356E+02 -0.19549931925E+02 -0.20772457189E+02  0.59301948986E+02  0.50000009042E+02 0.  0.
         12    1    1    2    0    0  0.14248699356E+02  0.19549931925E+02  0.20772457189E+02  0.31886051014E+02  0.00000000000E+00 0. -1.
         11    1    3    3    0    0  0.14333765630E+02 -0.36986169031E+01 -0.28160876907E+01  0.15068740965E+02  0.51100000000E-03 0. -1.
        -11    1    3    3    0    0 -0.18570354145E+02  0.12101135956E+01 -0.18089154213E+01  0.18697449110E+02  0.51100000000E-03 0.  1.
        -12    1    3    3    0    0 -0.10012110841E+02 -0.17061428617E+02 -0.16147454077E+02  0.25535758911E+02  0.00000000000E+00 0.  1.
</event>
<event>
 7    1  0.7579108E-012  0.5930198E+02  0.7816164E-02  0.1266605E+00
        -11   -1    0    0    0    0  0.00000000000E+00  0.00000000000E+00  0.45593999997E+02  0.45594000000E+02  0.51100000000E-03 0.  1.
         11   -1    0    0    0    0 -0.00000000000E+00 -0.00000000000E+00 -0.45593999997E+02  0.45594000000E+02  0.51100000000E-03 0. -1.
    9900012    2    1    2    0    0 -0.16840224597E+02 -0.14657280269E+02  0.22765960609E+02  0.59301984385E+02  0.50000073602E+02 0.  0.
         12    1    1    2    0    0  0.16840224597E+02  0.14657280269E+02 -0.22765960609E+02  0.31886015615E+02  0.00000000000E+00 0. -1.
         11    1    3    3    0    0  0.64661194101E+01 -0.14544138189E+02 -0.26042758447E+01  0.16128388290E+02  0.51100000000E-03 0. -1.
        -11    1    3    3    0    0 -0.16700859572E+02  0.61990538370E+01  0.18125494430E+01  0.17906208830E+02  0.51100000000E-03 0.  1.
        -12    1    3    3    0    0 -0.66054844351E+01 -0.63121959167E+01  0.23557687010E+02  0.25267387265E+02  0.00000000000E+00 0.  1.
</event>
<event>
 7    1  0.7579108E-012  0.5930196E+02  0.7816164E-02  0.1266605E+00
        -11   -1    0    0    0    0  0.00000000000E+00  0.00000000000E+00  0.45593999997E+02  0.45594000000E+02  0.51100000000E-03 0. -1.
         11   -1    0    0    0    0 -0.00000000000E+00 -0.00000000000E+00 -0.45593999997E+02  0.45594000000E+02  0.51100000000E-03 0.  1.
    9900012    2    1    2    0    0  0.29599486000E+01  0.59213038070E+01 -0.31191282623E+02  0.59301964716E+02  0.50000037730E+02 0.  0.
         12    1    1    2    0    0 -0.29599486000E+01 -0.59213038070E+01  0.31191282623E+02  0.31886035284E+02  0.00000000000E+00 0. -1.
         11    1    3    3    0    0  0.24810996042E+02 -0.18958966385E+01 -0.10007342164E+02  0.26820269314E+02  0.51100000000E-03 0. -1.
        -11    1    3    3    0    0 -0.53514433944E+01  0.52003779354E+01 -0.38077228121E+01  0.83773880386E+01  0.51100000000E-03 0.  1.
         12    1    3    3    0    0 -0.16499604047E+02  0.26168225102E+01 -0.17376217646E+02  0.24104307363E+02  0.00000000000E+00 0. -1.
</event>
<event>
 7    1  0.7579108E-012  0.5930193E+02  0.7816164E-02  0.1266605E+00
        -11   -1    0    0    0    0  0.00000000000E+00  0.00000000000E+00  0.45593999997E+02  0.45594000000E+02  0.51100000000E-03 0.  1.
         11   -1    0    0    0    0 -0.00000000000E+00 -0.00000000000E+00 -0.45593999997E+02  0.45594000000E+02  0.51100000000E-03 0. -1.
    9900012    2    1    2    0    0 -0.24818954289E+01  0.13125837188E+02  0.28952961918E+02  0.59301930775E+02  0.49999975830E+02 0.  0.
         12    1    1    2    0    0  0.24818954289E+01 -0.13125837188E+02 -0.28952961918E+02  0.31886069225E+02  0.00000000000E+00 0. -1.
         11    1    3    3    0    0 -0.20708942548E+02  0.54634815991E+01  0.16170958041E+02  0.26836725152E+02  0.51100000000E-03 0. -1.
        -11    1    3    3    0    0  0.13842094186E+01  0.95320307089E+01 -0.21611877106E+01  0.98714931866E+01  0.51100000000E-03 0.  1.
         12    1    3    3    0    0  0.16842837700E+02 -0.18696751197E+01  0.14943191587E+02  0.22593712437E+02  0.00000000000E+00 0. -1.
</event>
<event>
 7    1  0.7579108E-012  0.5930177E+02  0.7816164E-02  0.1266605E+00
        -11   -1    0    0    0    0  0.00000000000E+00  0.00000000000E+00  0.45593999997E+02  0.45594000000E+02  0.51100000000E-03 0. -1.
         11   -1    0    0    0    0 -0.00000000000E+00 -0.00000000000E+00 -0.45593999997E+02  0.45594000000E+02  0.51100000000E-03 0.  1.
    9900012    2    1    2    0    0  0.66608111666E+01 -0.25808967897E+02 -0.17500354447E+02  0.59301770448E+02  0.49999683431E+02 0.  0.
         12    1    1    2    0    0 -0.66608111666E+01  0.25808967897E+02  0.17500354447E+02  0.31886229552E+02  0.00000000000E+00 0. -1.
         11    1    3    3    0    0  0.59498369536E+00 -0.31990274630E+02 -0.22605811353E+02  0.39175941388E+02  0.51100000000E-03 0.  1.
        -11    1    3    3    0    0 -0.40976629730E+01 -0.21859818842E+01  0.51851013458E+01  0.69609363498E+01  0.51100000000E-03 0. -1.
         12    1    3    3    0    0  0.10163490444E+02  0.83672886174E+01 -0.79644440203E-01  0.13164892710E+02  0.00000000000E+00 0. -1.
</event>
<event>
 7    1  0.7579108E-012  0.5930199E+02  0.7816164E-02  0.1266605E+00
        -11   -1    0    0    0    0  0.00000000000E+00  0.00000000000E+00  0.45593999997E+02  0.45594000000E+02  0.51100000000E-03 0. -1.
         11   -1    0    0    0    0 -0.00000000000E+00 -0.00000000000E+00 -0.45593999997E+02  0.45594000000E+02  0.51100000000E-03 0.  1.
    9900012    2    1    2    0    0  0.12988944919E+02  0.32557569318E+01 -0.28937950901E+02  0.59301989813E+02  0.50000083501E+02 0.  0.
         12    1    1    2    0    0 -0.12988944919E+02 -0.32557569318E+01  0.28937950901E+02  0.31886010187E+02  0.00000000000E+00 0. -1.
         11    1    3    3    0    0  0.19993719586E+02  0.17652851365E+02 -0.66604338649E+00  0.26679872530E+02  0.51100000000E-03 0. -1.
        -11    1    3    3    0    0 -0.49017701578E+01 -0.10309212750E+02 -0.17307611630E+02  0.20733080785E+02  0.51100000000E-03 0.  1.
         12    1    3    3    0    0 -0.21030045086E+01 -0.40878816829E+01 -0.10964295884E+02  0.11889036498E+02  0.00000000000E+00 0. -1.
</event>
<event>
 7    1  0.7579108E-012  0.5930193E+02  0.7816164E-02  0.1266605E+00
        -11   -1    0    0    0    0  0.00000000000E+00  0.00000000000E+00  0.45593999997E+02  0.45594000000E+02  0.51100000000E-03 0.  1.
         11   -1    0    0    0    0 -0.00000000000E+00 -0.00000000000E+00 -0.45593999997E+02  0.45594000000E+02  0.51100000000E-03 0. -1.
    9900012    2    1    2    0    0  0.12780785613E+02  0.15017431589E+02  0.25056923914E+02  0.59301934572E+02  0.49999982755E+02 0.  0.
         12    1    1    2    0    0 -0.12780785613E+02 -0.15017431589E+02 -0.25056923914E+02  0.31886065428E+02  0.00000000000E+00 0. -1.
         11    1    3    3    0    0 -0.64058212846E+01 -0.38404747007E+01 -0.24378325920E+01  0.78566417931E+01  0.51100000000E-03 0. -1.
        -11    1    3    3    0    0  0.22390171193E+02  0.25930095800E+02  0.27081574397E+02  0.43670371035E+02  0.51100000000E-03 0.  1.
        -12    1    3    3    0    0 -0.32035642955E+01 -0.70721895103E+01  0.41318210935E+00  0.77749217437E+01  0.00000000000E+00 0.  1.
</event>
<event>
 7    1  0.7579108E-012  0.5930190E+02  0.7816164E-02  0.1266605E+00
        -11   -1    0    0    0    0  0.00000000000E+00  0.00000000000E+00  0.45593999997E+02  0.45594000000E+02  0.51100000000E-03 0. -1.
         11   -1    0    0    0    0 -0.00000000000E+00 -0.00000000000E+00 -0.45593999997E+02  0.45594000000E+02  0.51100000000E-03 0.  1.
    9900012    2    1    2    0    0 -0.70201673933E+01  0.32293975045E+01 -0.30935605730E+02  0.59301898633E+02  0.49999917211E+02 0.  0.
         12    1    1    2    0    0  0.70201673933E+01 -0.32293975045E+01  0.30935605730E+02  0.31886101367E+02  0.00000000000E+00 0. -1.
         11    1    3    3    0    0 -0.97962123064E+01 -0.18215438826E+02 -0.13696264628E+02  0.24806363139E+02  0.51100000000E-03 0.  1.
        -11    1    3    3    0    0  0.65350796507E+01  0.54175467072E+01 -0.15843508806E+02  0.17974255198E+02  0.51100000000E-03 0. -1.
         12    1    3    3    0    0 -0.37590347376E+01  0.16027289623E+02 -0.13958322957E+01  0.16521280296E+02  0.00000000000E+00 0. -1.
</event>
<event>
 7    1  0.7579108E-012  0.5930196E+02  0.7816164E-02  0.1266605E+00
        -11   -1    0    0    0    0  0.00000000000E+00  0.00000000000E+00  0.45593999997E+02  0.45594000000E+02  0.51100000000E-03 0.  1.
         11   -1    0    0    0    0 -0.00000000000E+00 -0.00000000000E+00 -0.45593999997E+02  0.45594000000E+02  0.51100000000E-03 0. -1.
    9900012    2    1    2    0    0  0.32173855441E+01 -0.13907765955E+00  0.31723003042E+02  0.59301955492E+02  0.50000020909E+02 0.  0.
         12    1    1    2    0    0 -0.32173855441E+01  0.13907765955E+00 -0.31723003042E+02  0.31886044508E+02  0.00000000000E+00 0. -1.
         11    1    3    3    0    0  0.23913407633E+02 -0.62277211300E+01  0.18954678744E+02  0.31143465151E+02  0.51100000000E-03 0. -1.
        -11    1    3    3    0    0 -0.45044097690E+01  0.70564967149E+01  0.70972181260E+01  0.10975170096E+02  0.51100000000E-03 0.  1.
         12    1    3    3    0    0 -0.16191612320E+02 -0.96785324442E+00  0.56711061722E+01  0.17183320245E+02  0.00000000000E+00 0. -1.
</event>
<event>
 7    1  0.7579108E-012  0.5930196E+02  0.7816164E-02  0.1266605E+00
        -11   -1    0    0    0    0  0.00000000000E+00  0.00000000000E+00  0.45593999997E+02  0.45594000000E+02  0.51100000000E-03 0. -1.
         11   -1    0    0    0    0 -0.00000000000E+00 -0.00000000000E+00 -0.45593999997E+02  0.45594000000E+02  0.51100000000E-03 0.  1.
    9900012    2    1    2    0    0 -0.90712439953E+01 -0.22320340747E+02 -0.20886228878E+02  0.59301958611E+02  0.50000026597E+02 0.  0.
         12    1    1    2    0    0  0.90712439953E+01  0.22320340747E+02  0.20886228878E+02  0.31886041389E+02  0.00000000000E+00 0. -1.
         11    1    3    3    0    0 -0.21453758321E+02  0.34844226204E+01 -0.23574070703E+01  0.21862349267E+02  0.51100000000E-03 0. -1.
        -11    1    3    3    0    0  0.12961531342E+01 -0.14306351646E+01 -0.87065384870E+01  0.89179898301E+01  0.51100000000E-03 0.  1.
         12    1    3    3    0    0  0.11086361192E+02 -0.24374128203E+02 -0.98222833209E+01  0.28521619515E+02  0.00000000000E+00 0. -1.
</event>
<event>
 7    1  0.7579108E-012  0.5930194E+02  0.7816164E-02  0.1266605E+00
        -11   -1    0    0    0    0  0.00000000000E+00  0.00000000000E+00  0.45593999997E+02  0.45594000000E+02  0.51100000000E-03 0.  1.
         11   -1    0    0    0    0 -0.00000000000E+00 -0.00000000000E+00 -0.45593999997E+02  0.45594000000E+02  0.51100000000E-03 0. -1.
    9900012    2    1    2    0    0 -0.56828038913E+01  0.11655514286E+02  0.29130321085E+02  0.59301939097E+02  0.49999991008E+02 0.  0.
         12    1    1    2    0    0  0.56828038913E+01 -0.11655514286E+02 -0.29130321085E+02  0.31886060903E+02  0.00000000000E+00 0. -1.
         11    1    3    3    0    0 -0.12948745589E+02  0.11990517572E+01 -0.11002228360E+02  0.17033988570E+02  0.51100000000E-03 0. -1.
        -11    1    3    3    0    0  0.17198208266E+01  0.56910474428E+01  0.17294564001E+02  0.18287912645E+02  0.51100000000E-03 0.  1.
         12    1    3    3    0    0  0.55461208708E+01  0.47654150864E+01  0.22837985445E+02  0.23980037882E+02  0.00000000000E+00 0. -1.
</event>
<event>
 7    1  0.7579108E-012  0.5930195E+02  0.7816164E-02  0.1266605E+00
        -11   -1    0    0    0    0  0.00000000000E+00  0.00000000000E+00  0.45593999997E+02  0.45594000000E+02  0.51100000000E-03 0. -1.
         11   -1    0    0    0    0 -0.00000000000E+00 -0.00000000000E+00 -0.45593999997E+02  0.45594000000E+02  0.51100000000E-03 0.  1.
    9900012    2    1    2    0    0 -0.23336852733E+02  0.76095189614E+01 -0.20352073199E+02  0.59301947284E+02  0.50000005938E+02 0.  0.
         12    1    1    2    0    0  0.23336852733E+02 -0.76095189614E+01  0.20352073199E+02  0.31886052716E+02  0.00000000000E+00 0. -1.
         11    1    3    3    0    0 -0.25775740978E+02  0.99555983299E+01 -0.59942745751E+01  0.28274265491E+02  0.51100000000E-03 0. -1.
        -11    1    3    3    0    0  0.12906523080E+02  0.55747270176E+01 -0.97779694551E+01  0.17124970256E+02  0.51100000000E-03 0.  1.
        -12    1    3    3    0    0 -0.10467634836E+02 -0.79208063861E+01 -0.45798291691E+01  0.13902711537E+02  0.00000000000E+00 0.  1.
</event>
<event>
 7    1  0.7579108E-012  0.5930195E+02  0.7816164E-02  0.1266605E+00
        -11   -1    0    0    0    0  0.00000000000E+00  0.00000000000E+00  0.45593999997E+02  0.45594000000E+02  0.51100000000E-03 0.  1.
         11   -1    0    0    0    0 -0.00000000000E+00 -0.00000000000E+00 -0.45593999997E+02  0.45594000000E+02  0.51100000000E-03 0. -1.
    9900012    2    1    2    0    0 -0.27702834270E+02  0.15098264018E+02  0.46168715151E+01  0.59301951240E+02  0.50000013153E+02 0.  0.
         12    1    1    2    0    0  0.27702834270E+02 -0.15098264018E+02 -0.46168715151E+01  0.31886048760E+02  0.00000000000E+00 0. -1.
         11    1    3    3    0    0 -0.74519042477E+01 -0.97371902800E+01  0.24961308799E+01  0.12512970115E+02  0.51100000000E-03 0. -1.
        -11    1    3    3    0    0 -0.11547876444E+02  0.32351081398E+02  0.55357987851E+01  0.34793548058E+02  0.51100000000E-03 0.  1.
        -12    1    3    3    0    0 -0.87030535779E+01 -0.75156271000E+01 -0.34150581499E+01  0.11995433067E+02  0.00000000000E+00 0.  1.
</event>
<event>
 7    1  0.7579108E-012  0.5930234E+02  0.7816164E-02  0.1266603E+00
        -11   -1    0    0    0    0  0.00000000000E+00  0.00000000000E+00  0.45593999997E+02  0.45594000000E+02  0.51100000000E-03 0. -1.
         11   -1    0    0    0    0 -0.00000000000E+00 -0.00000000000E+00 -0.45593999997E+02  0.45594000000E+02  0.51100000000E-03 0.  1.
    9900012    2    1    2    0    0 -0.29307664066E+02 -0.11830174726E+02 -0.42193827307E+01  0.59302338682E+02  0.50000719750E+02 0.  0.
         12    1    1    2    0    0  0.29307664066E+02  0.11830174726E+02  0.42193827307E+01  0.31885661318E+02  0.00000000000E+00 0. -1.
         11    1    3    3    0    0 -0.41626419594E+00  0.11494160204E+02  0.73992202295E+01  0.13676163751E+02  0.51100000000E-03 0. -1.
        -11    1    3    3    0    0 -0.30861697002E+02 -0.25810623051E+02 -0.83858604273E+01  0.41096900851E+02  0.51100000000E-03 0.  1.
        -12    1    3    3    0    0  0.19702971318E+01  0.24862881215E+01 -0.32327425330E+01  0.45292740804E+01  0.00000000000E+00 0.  1.
</event>
<event>
 7    1  0.7579108E-012  0.5930196E+02  0.7816164E-02  0.1266605E+00
        -11   -1    0    0    0    0  0.00000000000E+00  0.00000000000E+00  0.45593999997E+02  0.45594000000E+02  0.51100000000E-03 0. -1.
         11   -1    0    0    0    0 -0.00000000000E+00 -0.00000000000E+00 -0.45593999997E+02  0.45594000000E+02  0.51100000000E-03 0.  1.
    9900012    2    1    2    0    0  0.24237280845E+02 -0.15332997301E+02 -0.13934603710E+02  0.59301956509E+02  0.50000022762E+02 0.  0.
         12    1    1    2    0    0 -0.24237280845E+02  0.15332997301E+02  0.13934603710E+02  0.31886043491E+02  0.00000000000E+00 0. -1.
         11    1    3    3    0    0  0.20800018627E+02  0.11337963732E+02  0.55366318001E+01  0.24327854168E+02  0.51100000000E-03 0. -1.
        -11    1    3    3    0    0 -0.26786541190E+01 -0.86551281989E+01 -0.10709772285E+02  0.14028031034E+02  0.51100000000E-03 0.  1.
         12    1    3    3    0    0  0.61159163370E+01 -0.18015832834E+02 -0.87614632247E+01  0.20946071307E+02  0.00000000000E+00 0. -1.
</event>
<event>
 7    1  0.7579108E-012  0.5930195E+02  0.7816164E-02  0.1266605E+00
        -11   -1    0    0    0    0  0.00000000000E+00  0.00000000000E+00  0.45593999997E+02  0.45594000000E+02  0.51100000000E-03 0.  1.
         11   -1    0    0    0    0 -0.00000000000E+00 -0.00000000000E+00 -0.45593999997E+02  0.45594000000E+02  0.51100000000E-03 0. -1.
    9900012    2    1    2    0    0 -0.29246441674E+02 -0.56098486405E+01 -0.11397180810E+02  0.59301945324E+02  0.50000002365E+02 0.  0.
         12    1    1    2    0    0  0.29246441674E+02  0.56098486405E+01  0.11397180810E+02  0.31886054676E+02  0.00000000000E+00 0. -1.
         11    1    3    3    0    0 -0.30149601207E+02  0.12136036404E+02 -0.59609880732E+01  0.33042627190E+02  0.51100000000E-03 0. -1.
        -11    1    3    3    0    0 -0.84483887250E+01 -0.12119420758E+02 -0.29185744769E+01  0.15059007564E+02  0.51100000000E-03 0.  1.
         12    1    3    3    0    0  0.93515482576E+01 -0.56264642867E+01 -0.25176182598E+01  0.11200310571E+02  0.00000000000E+00 0. -1.
</event>
<event>
 7    1  0.7579108E-012  0.5930193E+02  0.7816164E-02  0.1266605E+00
        -11   -1    0    0    0    0  0.00000000000E+00  0.00000000000E+00  0.45593999997E+02  0.45594000000E+02  0.51100000000E-03 0.  1.
         11   -1    0    0    0    0 -0.00000000000E+00 -0.00000000000E+00 -0.45593999997E+02  0.45594000000E+02  0.51100000000E-03 0. -1.
    9900012    2    1    2    0    0  0.16911683829E+02  0.17507774183E+02  0.20595982280E+02  0.59301926350E+02  0.49999967759E+02 0.  0.
         12    1    1    2    0    0 -0.16911683829E+02 -0.17507774183E+02 -0.20595982280E+02  0.31886073650E+02  0.00000000000E+00 0. -1.
         11    1    3    3    0    0  0.17476222768E+02  0.17116471727E+02 -0.10109514504E+02  0.26468741005E+02  0.51100000000E-03 0. -1.
        -11    1    3    3    0    0 -0.44287633131E+01  0.40314693629E+01  0.12351481904E+02  0.13726827572E+02  0.51100000000E-03 0.  1.
         12    1    3    3    0    0  0.38642243741E+01 -0.36401669063E+01  0.18354014880E+02  0.19106357773E+02  0.00000000000E+00 0. -1.
</event>
<event>
 7    1  0.7579108E-012  0.5930196E+02  0.7816164E-02  0.1266605E+00
        -11   -1    0    0    0    0  0.00000000000E+00  0.00000000000E+00  0.45593999997E+02  0.45594000000E+02  0.51100000000E-03 0. -1.
         11   -1    0    0    0    0 -0.00000000000E+00 -0.00000000000E+00 -0.45593999997E+02  0.45594000000E+02  0.51100000000E-03 0.  1.
    9900012    2    1    2    0    0  0.47522316120E+01 -0.25218766486E+02 -0.18924840880E+02  0.59301960881E+02  0.50000030736E+02 0.  0.
         12    1    1    2    0    0 -0.47522316120E+01  0.25218766486E+02  0.18924840880E+02  0.31886039119E+02  0.00000000000E+00 0. -1.
         11    1    3    3    0    0 -0.94863620105E+01  0.13460611972E+01  0.80221902352E+01  0.12496338719E+02  0.51100000000E-03 0. -1.
        -11    1    3    3    0    0  0.14071723196E+02 -0.21062393584E+02 -0.72411304648E+01  0.26345242225E+02  0.51100000000E-03 0.  1.
        -12    1    3    3    0    0  0.16687042610E+00 -0.55024340994E+01 -0.19705900650E+02  0.20460379937E+02  0.00000000000E+00 0.  1.
</event>
<event>
 7    1  0.7579108E-012  0.5930193E+02  0.7816164E-02  0.1266605E+00
        -11   -1    0    0    0    0  0.00000000000E+00  0.00000000000E+00  0.45593999997E+02  0.45594000000E+02  0.51100000000E-03 0.  1.
         11   -1    0    0    0    0 -0.00000000000E+00 -0.00000000000E+00 -0.45593999997E+02  0.45594000000E+02  0.51100000000E-03 0. -1.
    9900012    2    1    2    0    0  0.11173861502E+02 -0.16477604364E+02  0.24906929547E+02  0.59301925204E+02  0.49999965669E+02 0.  0.
         12    1    1    2    0    0 -0.11173861502E+02  0.16477604364E+02 -0.24906929547E+02  0.31886074796E+02  0.00000000000E+00 0. -1.
         11    1    3    3    0    0  0.14211523925E+02  0.98063319699E+01  0.27025988806E+02  0.32070790919E+02  0.51100000000E-03 0. -1.
        -11    1    3    3    0    0  0.10736300009E+01 -0.13786764522E+02  0.40819531855E+00  0.13834528580E+02  0.51100000000E-03 0.  1.
         12    1    3    3    0    0 -0.41112924241E+01 -0.12497171812E+02 -0.25272545769E+01  0.13396605704E+02  0.00000000000E+00 0. -1.
</event>
<event>
 7    1  0.7579108E-012  0.5930197E+02  0.7816164E-02  0.1266605E+00
        -11   -1    0    0    0    0  0.00000000000E+00  0.00000000000E+00  0.45593999997E+02  0.45594000000E+02  0.51100000000E-03 0. -1.
         11   -1    0    0    0    0 -0.00000000000E+00 -0.00000000000E+00 -0.45593999997E+02  0.45594000000E+02  0.51100000000E-03 0.  1.
    9900012    2    1    2    0    0  0.26057896801E+02 -0.14540260654E+02  0.11237702964E+02  0.59301966482E+02  0.50000040952E+02 0.  0.
         12    1    1    2    0    0 -0.26057896801E+02  0.14540260654E+02 -0.11237702964E+02  0.31886033518E+02  0.00000000000E+00 0. -1.
         11    1    3    3    0    0  0.27838802581E+01 -0.13981662127E+02  0.12042994458E+02  0.18662009027E+02  0.51100000000E-03 0. -1.
        -11    1    3    3    0    0  0.84145888480E+01  0.10872102906E+02 -0.12469125656E+02  0.18560361580E+02  0.51100000000E-03 0.  1.
        -12    1    3    3    0    0  0.14859427695E+02 -0.11430701433E+02  0.11663834163E+02  0.22079595876E+02  0.00000000000E+00 0.  1.
</event>
<event>
 7    1  0.7579108E-012  0.5930195E+02  0.7816164E-02  0.1266605E+00
        -11   -1    0    0    0    0  0.00000000000E+00  0.00000000000E+00  0.45593999997E+02  0.45594000000E+02  0.51100000000E-03 0.  1.
         11   -1    0    0    0    0 -0.00000000000E+00 -0.00000000000E+00 -0.45593999997E+02  0.45594000000E+02  0.51100000000E-03 0. -1.
    9900012    2    1    2    0    0 -0.14215387488E+00  0.24041782200E+02  0.20944991743E+02  0.59301950100E+02  0.50000011074E+02 0.  0.
         12    1    1    2    0    0  0.14215387488E+00 -0.24041782200E+02 -0.20944991743E+02  0.31886049900E+02  0.00000000000E+00 0. -1.
         11    1    3    3    0    0 -0.65478203515E+01  0.10865683443E+02 -0.57412744104E+01  0.13924771458E+02  0.51100000000E-03 0. -1.
        -11    1    3    3    0    0  0.84888259196E+01  0.19605964296E+02  0.30785255099E+02  0.37472469003E+02  0.51100000000E-03 0.  1.
        -12    1    3    3    0    0 -0.20831594430E+01 -0.64298655383E+01 -0.40989889449E+01  0.79047096389E+01  0.00000000000E+00 0.  1.
</event>
<event>
 7    1  0.7579108E-012  0.5930192E+02  0.7816164E-02  0.1266605E+00
        -11   -1    0    0    0    0  0.00000000000E+00  0.00000000000E+00  0.45593999997E+02  0.45594000000E+02  0.51100000000E-03 0.  1.
         11   -1    0    0    0    0 -0.00000000000E+00 -0.00000000000E+00 -0.45593999997E+02  0.45594000000E+02  0.51100000000E-03 0. -1.
    9900012    2    1    2    0    0  0.25160997195E+02  0.28025694175E+01  0.19385351515E+02  0.59301921086E+02  0.49999958159E+02 0.  0.
         12    1    1    2    0    0 -0.25160997195E+02 -0.28025694175E+01 -0.19385351515E+02  0.31886078914E+02  0.00000000000E+00 0. -1.
         11    1    3    3    0    0 -0.43749719172E+01  0.13729930417E+02 -0.19641055580E+01  0.14543351726E+02  0.51100000000E-03 0. -1.
        -11    1    3    3    0    0  0.25514015010E+02 -0.12222352282E+02  0.26036586667E+02  0.38448078011E+02  0.51100000000E-03 0.  1.
        -12    1    3    3    0    0  0.40219541020E+01  0.12949912821E+01 -0.46871295941E+01  0.63104913478E+01  0.00000000000E+00 0.  1.
</event>
<event>
 7    1  0.7579108E-012  0.5930200E+02  0.7816164E-02  0.1266605E+00
        -11   -1    0    0    0    0  0.00000000000E+00  0.00000000000E+00  0.45593999997E+02  0.45594000000E+02  0.51100000000E-03 0. -1.
         11   -1    0    0    0    0 -0.00000000000E+00 -0.00000000000E+00 -0.45593999997E+02  0.45594000000E+02  0.51100000000E-03 0.  1.
    9900012    2    1    2    0    0  0.29116619766E+02 -0.73906455471E+00 -0.12976633913E+02  0.59302003219E+02  0.50000107950E+02 0.  0.
         12    1    1    2    0    0 -0.29116619766E+02  0.73906455471E+00  0.12976633913E+02  0.31885996781E+02  0.00000000000E+00 0. -1.
         11    1    3    3    0    0  0.34434659859E+02 -0.24149074230E+01 -0.11271195124E+02  0.36312772095E+02  0.51100000000E-03 0. -1.
        -11    1    3    3    0    0 -0.56650547282E+01 -0.98645248962E+01 -0.10819574474E+01  0.11426824961E+02  0.51100000000E-03 0.  1.
        -12    1    3    3    0    0  0.34701463544E+00  0.11540367764E+02 -0.62348134144E+00  0.11562406163E+02  0.00000000000E+00 0.  1.
</event>
<event>
 7    1  0.7579108E-012  0.5930198E+02  0.7816164E-02  0.1266605E+00
        -11   -1    0    0    0    0  0.00000000000E+00  0.00000000000E+00  0.45593999997E+02  0.45594000000E+02  0.51100000000E-03 0.  1.
         11   -1    0    0    0    0 -0.00000000000E+00 -0.00000000000E+00 -0.45593999997E+02  0.45594000000E+02  0.51100000000E-03 0. -1.
    9900012    2    1    2    0    0  0.11310599805E+02  0.23979380880E+02  0.17713777779E+02  0.59301979575E+02  0.50000064829E+02 0.  0.
         12    1    1    2    0    0 -0.11310599805E+02 -0.23979380880E+02 -0.17713777779E+02  0.31886020425E+02  0.00000000000E+00 0. -1.
         11    1    3    3    0    0  0.29404681367E+01 -0.10960932314E+02 -0.61160486731E+01  0.12891642320E+02  0.51100000000E-03 0. -1.
        -11    1    3    3    0    0  0.94071274175E+01  0.33085238031E+02  0.26191400272E+02  0.43233279661E+02  0.51100000000E-03 0.  1.
        -12    1    3    3    0    0 -0.10369957494E+01  0.18550751640E+01 -0.23615738200E+01  0.31770575941E+01  0.00000000000E+00 0.  1.
</event>
<event>
 7    1  0.7579108E-012  0.5930195E+02  0.7816164E-02  0.1266605E+00
        -11   -1    0    0    0    0  0.00000000000E+00  0.00000000000E+00  0.45593999997E+02  0.45594000000E+02  0.51100000000E-03 0.  1.
         11   -1    0    0    0    0 -0.00000000000E+00 -0.00000000000E+00 -0.45593999997E+02  0.45594000000E+02  0.51100000000E-03 0. -1.
    9900012    2    1    2    0    0  0.12723453869E+02 -0.26583897419E+02 -0.12170884359E+02  0.59301948090E+02  0.50000007408E+02 0.  0.
         12    1    1    2    0    0 -0.12723453869E+02  0.26583897419E+02  0.12170884359E+02  0.31886051910E+02  0.00000000000E+00 0. -1.
         11    1    3    3    0    0  0.14974617022E+02 -0.74458867934E+01 -0.17820644826E+02  0.24438816816E+02  0.51100000000E-03 0. -1.
        -11    1    3    3    0    0 -0.12616894848E+02 -0.19550668237E+02  0.72385230459E+01  0.24368235066E+02  0.51100000000E-03 0.  1.
        -12    1    3    3    0    0  0.10365731695E+02  0.41265761079E+00 -0.15887625791E+01  0.10494896207E+02  0.00000000000E+00 0.  1.
</event>
<event>
 7    1  0.7579108E-012  0.5930193E+02  0.7816164E-02  0.1266605E+00
        -11   -1    0    0    0    0  0.00000000000E+00  0.00000000000E+00  0.45593999997E+02  0.45594000000E+02  0.51100000000E-03 0.  1.
         11   -1    0    0    0    0 -0.00000000000E+00 -0.00000000000E+00 -0.45593999997E+02  0.45594000000E+02  0.51100000000E-03 0. -1.
    9900012    2    1    2    0    0 -0.95860066916E+01  0.15876958957E+02  0.25937459432E+02  0.59301934833E+02  0.49999983231E+02 0.  0.
         12    1    1    2    0    0  0.95860066916E+01 -0.15876958957E+02 -0.25937459432E+02  0.31886065167E+02  0.00000000000E+00 0. -1.
         11    1    3    3    0    0  0.19574808337E+02  0.42016434425E+01  0.15734432666E+02  0.25463685920E+02  0.51100000000E-03 0. -1.
        -11    1    3    3    0    0 -0.23956603830E+02  0.66607179571E+01  0.93324673957E+01  0.26558971718E+02  0.51100000000E-03 0.  1.
         12    1    3    3    0    0 -0.52042111987E+01  0.50145975576E+01  0.87055937067E+00  0.72792771951E+01  0.00000000000E+00 0. -1.
</event>
<event>
 7    1  0.7579108E-012  0.5930196E+02  0.7816164E-02  0.1266605E+00
        -11   -1    0    0    0    0  0.00000000000E+00  0.00000000000E+00  0.45593999997E+02  0.45594000000E+02  0.51100000000E-03 0.  1.
         11   -1    0    0    0    0 -0.00000000000E+00 -0.00000000000E+00 -0.45593999997E+02  0.45594000000E+02  0.51100000000E-03 0. -1.
    9900012    2    1    2    0    0  0.10613426821E+02 -0.19486535838E+02  0.22898683094E+02  0.59301959241E+02  0.50000027745E+02 0.  0.
         12    1    1    2    0    0 -0.10613426821E+02  0.19486535838E+02 -0.22898683094E+02  0.31886040759E+02  0.00000000000E+00 0. -1.
         11    1    3    3    0    0  0.19452238207E+02 -0.28472188751E+02  0.13791618961E+02  0.37138441773E+02  0.51100000000E-03 0. -1.
        -11    1    3    3    0    0 -0.76776602776E+01 -0.29307217655E+01  0.41301839051E+01  0.91975005712E+01  0.51100000000E-03 0.  1.
         12    1    3    3    0    0 -0.11611511085E+01  0.11916374678E+02  0.49768802285E+01  0.12966016897E+02  0.00000000000E+00 0. -1.
</event>
<event>
 7    1  0.7579108E-012  0.5930194E+02  0.7816164E-02  0.1266605E+00
        -11   -1    0    0    0    0  0.00000000000E+00  0.00000000000E+00  0.45593999997E+02  0.45594000000E+02  0.51100000000E-03 0. -1.
         11   -1    0    0    0    0 -0.00000000000E+00 -0.00000000000E+00 -0.45593999997E+02  0.45594000000E+02  0.51100000000E-03 0.  1.
    9900012    2    1    2    0    0  0.20395622739E+02 -0.87528463801E+01 -0.22893815575E+02  0.59301944454E+02  0.50000000777E+02 0.  0.
         12    1    1    2    0    0 -0.20395622739E+02  0.87528463801E+01  0.22893815575E+02  0.31886055546E+02  0.00000000000E+00 0. -1.
         11    1    3    3    0    0  0.18701005326E+02 -0.21439351103E+02 -0.20019239655E+02  0.34787114461E+02  0.51100000000E-03 0. -1.
        -11    1    3    3    0    0  0.27366301434E+01  0.60186254891E+01 -0.11679488562E+02  0.13421007810E+02  0.51100000000E-03 0.  1.
         12    1    3    3    0    0 -0.10420127305E+01  0.66678792335E+01  0.88049126409E+01  0.11093822183E+02  0.00000000000E+00 0. -1.
</event>
<event>
 7    1  0.7579108E-012  0.5930200E+02  0.7816164E-02  0.1266605E+00
        -11   -1    0    0    0    0  0.00000000000E+00  0.00000000000E+00  0.45593999997E+02  0.45594000000E+02  0.51100000000E-03 0. -1.
         11   -1    0    0    0    0 -0.00000000000E+00 -0.00000000000E+00 -0.45593999997E+02  0.45594000000E+02  0.51100000000E-03 0.  1.
    9900012    2    1    2    0    0  0.24371315707E+02  0.12906971785E+02 -0.16005185598E+02  0.59302001255E+02  0.50000104368E+02 0.  0.
         12    1    1    2    0    0 -0.24371315707E+02 -0.12906971785E+02  0.16005185598E+02  0.31885998745E+02  0.00000000000E+00 0. -1.
         11    1    3    3    0    0  0.27093668061E+02 -0.56850532979E+01  0.76595494207E+01  0.28723777217E+02  0.51100000000E-03 0. -1.
        -11    1    3    3    0    0 -0.16774717431E+01  0.58209947781E+01 -0.45953785689E+01  0.76036436074E+01  0.51100000000E-03 0.  1.
         12    1    3    3    0    0 -0.10448806110E+01  0.12771030305E+02 -0.19069356450E+02  0.22974580431E+02  0.00000000000E+00 0. -1.
</event>
<event>
 7    1  0.7579108E-012  0.5930190E+02  0.7816164E-02  0.1266605E+00
        -11   -1    0    0    0    0  0.00000000000E+00  0.00000000000E+00  0.45593999997E+02  0.45594000000E+02  0.51100000000E-03 0.  1.
         11   -1    0    0    0    0 -0.00000000000E+00 -0.00000000000E+00 -0.45593999997E+02  0.45594000000E+02  0.51100000000E-03 0. -1.
    9900012    2    1    2    0    0  0.10079434507E+02 -0.29616036645E+02  0.61659289083E+01  0.59301901056E+02  0.49999921630E+02 0.  0.
         12    1    1    2    0    0 -0.10079434507E+02  0.29616036645E+02 -0.61659289083E+01  0.31886098944E+02  0.00000000000E+00 0. -1.
         11    1    3    3    0    0  0.35215041979E+01 -0.21399770674E+02 -0.12343044456E+02  0.24953996142E+02  0.51100000000E-03 0. -1.
        -11    1    3    3    0    0 -0.65089016470E+01 -0.56139162950E+01  0.19169211259E+02  0.21008105992E+02  0.51100000000E-03 0.  1.
        -12    1    3    3    0    0  0.13066831956E+02 -0.26023496762E+01 -0.66023789483E+00  0.13339798922E+02  0.00000000000E+00 0.  1.
</event>
<event>
 7    1  0.7579108E-012  0.5930196E+02  0.7816164E-02  0.1266605E+00
        -11   -1    0    0    0    0  0.00000000000E+00  0.00000000000E+00  0.45593999997E+02  0.45594000000E+02  0.51100000000E-03 0.  1.
         11   -1    0    0    0    0 -0.00000000000E+00 -0.00000000000E+00 -0.45593999997E+02  0.45594000000E+02  0.51100000000E-03 0. -1.
    9900012    2    1    2    0    0 -0.13716532564E+02  0.16052070419E+02  0.23893664205E+02  0.59301961998E+02  0.50000032773E+02 0.  0.
         12    1    1    2    0    0  0.13716532564E+02 -0.16052070419E+02 -0.23893664205E+02  0.31886038002E+02  0.00000000000E+00 0. -1.
         11    1    3    3    0    0 -0.10846903370E+02 -0.41538894546E+01 -0.58044964232E+01  0.12984694425E+02  0.51100000000E-03 0. -1.
        -11    1    3    3    0    0 -0.24005572778E-01  0.23302883623E+02  0.86555484959E+01  0.24858469008E+02  0.51100000000E-03 0.  1.
         12    1    3    3    0    0 -0.28456236213E+01 -0.30969237490E+01  0.21042612132E+02  0.21458798565E+02  0.00000000000E+00 0. -1.
</event>
<event>
 7    1  0.7579108E-012  0.5930190E+02  0.7816164E-02  0.1266605E+00
        -11   -1    0    0    0    0  0.00000000000E+00  0.00000000000E+00  0.45593999997E+02  0.45594000000E+02  0.51100000000E-03 0. -1.
         11   -1    0    0    0    0 -0.00000000000E+00 -0.00000000000E+00 -0.45593999997E+02  0.45594000000E+02  0.51100000000E-03 0.  1.
    9900012    2    1    2    0    0 -0.15317561221E+02  0.27934784564E+02 -0.13205184109E+01  0.59301895828E+02  0.49999912096E+02 0.  0.
         12    1    1    2    0    0  0.15317561221E+02 -0.27934784564E+02  0.13205184109E+01  0.31886104172E+02  0.00000000000E+00 0. -1.
         11    1    3    3    0    0  0.27150797042E+01 -0.40342225573E+01  0.51637062048E+01  0.70929874858E+01  0.51100000000E-03 0. -1.
        -11    1    3    3    0    0 -0.19100179615E+02  0.20908050142E+02 -0.20031199639E+02  0.34687351892E+02  0.51100000000E-03 0.  1.
        -12    1    3    3    0    0  0.10675386900E+01  0.11060956979E+02  0.13546975023E+02  0.17521556450E+02  0.00000000000E+00 0.  1.
</event>
<event>
 7    1  0.7579108E-012  0.5930193E+02  0.7816164E-02  0.1266605E+00
        -11   -1    0    0    0    0  0.00000000000E+00  0.00000000000E+00  0.45593999997E+02  0.45594000000E+02  0.51100000000E-03 0.  1.
         11   -1    0    0    0    0 -0.00000000000E+00 -0.00000000000E+00 -0.45593999997E+02  0.45594000000E+02  0.51100000000E-03 0. -1.
    9900012    2    1    2    0    0  0.52868346845E+01 -0.24965533999E+02  0.19117870134E+02  0.59301929886E+02  0.49999974208E+02 0.  0.
         12    1    1    2    0    0 -0.52868346845E+01  0.24965533999E+02 -0.19117870134E+02  0.31886070114E+02  0.00000000000E+00 0. -1.
         11    1    3    3    0    0 -0.17262031882E+02 -0.96693476972E+01 -0.70009632734E+01  0.20987794467E+02  0.51100000000E-03 0. -1.
        -11    1    3    3    0    0  0.60094286581E+01 -0.78005642400E+01  0.84005760520E+01  0.12943404248E+02  0.51100000000E-03 0.  1.
         12    1    3    3    0    0  0.16539437908E+02 -0.74956220623E+01  0.17718257356E+02  0.25370731171E+02  0.00000000000E+00 0. -1.
</event>
<event>
 7    1  0.7579108E-012  0.5930192E+02  0.7816164E-02  0.1266605E+00
        -11   -1    0    0    0    0  0.00000000000E+00  0.00000000000E+00  0.45593999997E+02  0.45594000000E+02  0.51100000000E-03 0.  1.
         11   -1    0    0    0    0 -0.00000000000E+00 -0.00000000000E+00 -0.45593999997E+02  0.45594000000E+02  0.51100000000E-03 0. -1.
    9900012    2    1    2    0    0 -0.28337629658E+02  0.73784306439E+00  0.14599881401E+02  0.59301918336E+02  0.49999953144E+02 0.  0.
         12    1    1    2    0    0  0.28337629658E+02 -0.73784306439E+00 -0.14599881401E+02  0.31886081664E+02  0.00000000000E+00 0. -1.
         11    1    3    3    0    0 -0.25079757792E+02  0.50027049470E+01 -0.87343581256E+00  0.25588751397E+02  0.51100000000E-03 0. -1.
        -11    1    3    3    0    0 -0.19355355325E+01  0.36665847157E+01  0.22594789691E+02  0.22972040891E+02  0.51100000000E-03 0.  1.
        -12    1    3    3    0    0 -0.13223363330E+01 -0.79314465983E+01 -0.71214724773E+01  0.10741126047E+02  0.00000000000E+00 0.  1.
</event>
<event>
 7    1  0.7579108E-012  0.5930194E+02  0.7816164E-02  0.1266605E+00
        -11   -1    0    0    0    0  0.00000000000E+00  0.00000000000E+00  0.45593999997E+02  0.45594000000E+02  0.51100000000E-03 0. -1.
         11   -1    0    0    0    0 -0.00000000000E+00 -0.00000000000E+00 -0.45593999997E+02  0.45594000000E+02  0.51100000000E-03 0.  1.
    9900012    2    1    2    0    0  0.54872658491E+01 -0.31370331525E+02  0.15851706584E+01  0.59301944231E+02  0.50000000370E+02 0.  0.
         12    1    1    2    0    0 -0.54872658491E+01  0.31370331525E+02 -0.15851706584E+01  0.31886055769E+02  0.00000000000E+00 0. -1.
         11    1    3    3    0    0  0.98396451752E+01  0.43882833105E+01 -0.28134197260E+01  0.11135123637E+02  0.51100000000E-03 0. -1.
        -11    1    3    3    0    0 -0.12068426350E+02 -0.23939441802E+02  0.14809454595E+02  0.30627826139E+02  0.51100000000E-03 0.  1.
        -12    1    3    3    0    0  0.77160470242E+01 -0.11819173034E+02 -0.10410864210E+02  0.17538994455E+02  0.00000000000E+00 0.  1.
</event>
<event>
 7    1  0.7579108E-012  0.5930195E+02  0.7816164E-02  0.1266605E+00
        -11   -1    0    0    0    0  0.00000000000E+00  0.00000000000E+00  0.45593999997E+02  0.45594000000E+02  0.51100000000E-03 0.  1.
         11   -1    0    0    0    0 -0.00000000000E+00 -0.00000000000E+00 -0.45593999997E+02  0.45594000000E+02  0.51100000000E-03 0. -1.
    9900012    2    1    2    0    0 -0.23916325684E-01 -0.15787806815E+01  0.31846931439E+02  0.59301950347E+02  0.50000011524E+02 0.  0.
         12    1    1    2    0    0  0.23916325684E-01  0.15787806815E+01 -0.31846931439E+02  0.31886049653E+02  0.00000000000E+00 0. -1.
         11    1    3    3    0    0 -0.35277220669E+01  0.30013177734E+01  0.20522651043E+01  0.50660165493E+01  0.51100000000E-03 0. -1.
        -11    1    3    3    0    0  0.12234267474E+02 -0.14019907542E+02 -0.31489191413E+01  0.18871958036E+02  0.51100000000E-03 0.  1.
        -12    1    3    3    0    0 -0.87304617324E+01  0.94398090868E+01  0.32943585476E+02  0.35363975761E+02  0.00000000000E+00 0.  1.
</event>
<event>
 7    1  0.7579108E-012  0.5930195E+02  0.7816164E-02  0.1266605E+00
        -11   -1    0    0    0    0  0.00000000000E+00  0.00000000000E+00  0.45593999997E+02  0.45594000000E+02  0.51100000000E-03 0. -1.
         11   -1    0    0    0    0 -0.00000000000E+00 -0.00000000000E+00 -0.45593999997E+02  0.45594000000E+02  0.51100000000E-03 0.  1.
    9900012    2    1    2    0    0  0.30329880622E+02  0.82615413087E+00 -0.98048906277E+01  0.59301951806E+02  0.50000014187E+02 0.  0.
         12    1    1    2    0    0 -0.30329880622E+02 -0.82615413087E+00  0.98048906277E+01  0.31886048194E+02  0.00000000000E+00 0. -1.
         11    1    3    3    0    0  0.42592493354E+01  0.16926249579E+02 -0.14921297984E+02  0.22962671087E+02  0.51100000000E-03 0. -1.
        -11    1    3    3    0    0  0.21551285023E+02 -0.27072453734E+01  0.16353942925E+01  0.21782138977E+02  0.51100000000E-03 0.  1.
         12    1    3    3    0    0  0.45193462636E+01 -0.13392850074E+02  0.34810130633E+01  0.14557141742E+02  0.00000000000E+00 0. -1.
</event>
<event>
 7    1  0.7579108E-012  0.5930197E+02  0.7816164E-02  0.1266605E+00
        -11   -1    0    0    0    0  0.00000000000E+00  0.00000000000E+00  0.45593999997E+02  0.45594000000E+02  0.51100000000E-03 0.  1.
         11   -1    0    0    0    0 -0.00000000000E+00 -0.00000000000E+00 -0.45593999997E+02  0.45594000000E+02  0.51100000000E-03 0. -1.
    9900012    2    1    2    0    0  0.11059163112E+02  0.12196048479E+01  0.29881875283E+02  0.59301968652E+02  0.50000044908E+02 0.  0.
         12    1    1    2    0    0 -0.11059163112E+02 -0.12196048479E+01 -0.29881875283E+02  0.31886031348E+02  0.00000000000E+00 0. -1.
         11    1    3    3    0    0  0.10757865044E+02 -0.77544397103E+01  0.82593997991E+01  0.15623081669E+02  0.51100000000E-03 0. -1.
        -11    1    3    3    0    0  0.11322916035E+02  0.17698744218E+02  0.20850768633E+02  0.29600819707E+02  0.51100000000E-03 0.  1.
        -12    1    3    3    0    0 -0.11021617967E+02 -0.87246996603E+01  0.77170685076E+00  0.14078067276E+02  0.00000000000E+00 0.  1.
</event>
<event>
 7    1  0.7579108E-012  0.5930201E+02  0.7816164E-02  0.1266605E+00
        -11   -1    0    0    0    0  0.00000000000E+00  0.00000000000E+00  0.45593999997E+02  0.45594000000E+02  0.51100000000E-03 0. -1.
         11   -1    0    0    0    0 -0.00000000000E+00 -0.00000000000E+00 -0.45593999997E+02  0.45594000000E+02  0.51100000000E-03 0.  1.
    9900012    2    1    2    0    0 -0.46985247324E+01  0.15958549237E+02 -0.27202301983E+02  0.59302005244E+02  0.50000111643E+02 0.  0.
         12    1    1    2    0    0  0.46985247324E+01 -0.15958549237E+02  0.27202301983E+02  0.31885994756E+02  0.00000000000E+00 0. -1.
         11    1    3    3    0    0 -0.84044933509E+01 -0.92097995485E+01  0.22852857575E+01  0.12675900263E+02  0.51100000000E-03 0. -1.
        -11    1    3    3    0    0 -0.81038484069E+00  0.68663957519E+01 -0.26687171461E+02  0.27568264999E+02  0.51100000000E-03 0.  1.
         12    1    3    3    0    0  0.45163534592E+01  0.18301953034E+02 -0.28004162795E+01  0.19057839982E+02  0.00000000000E+00 0. -1.
</event>
<event>
 7    1  0.7579108E-012  0.5930194E+02  0.7816164E-02  0.1266605E+00
        -11   -1    0    0    0    0  0.00000000000E+00  0.00000000000E+00  0.45593999997E+02  0.45594000000E+02  0.51100000000E-03 0. -1.
         11   -1    0    0    0    0 -0.00000000000E+00 -0.00000000000E+00 -0.45593999997E+02  0.45594000000E+02  0.51100000000E-03 0.  1.
    9900012    2    1    2    0    0  0.80998785566E+01 -0.30760949181E+02 -0.22083194866E+01  0.59301941885E+02  0.49999996092E+02 0.  0.
         12    1    1    2    0    0 -0.80998785566E+01  0.30760949181E+02  0.22083194866E+01  0.31886058115E+02  0.00000000000E+00 0. -1.
         11    1    3    3    0    0  0.23736383271E+02 -0.92589612818E+01  0.66481531129E+01  0.26331391814E+02  0.51100000000E-03 0. -1.
        -11    1    3    3    0    0 -0.53216259701E+01 -0.18354544079E+00 -0.75669965071E+01  0.92527200484E+01  0.51100000000E-03 0.  1.
         12    1    3    3    0    0 -0.10314878744E+02 -0.21318442459E+02 -0.12894760924E+01  0.23717830022E+02  0.00000000000E+00 0. -1.
</event>
<event>
 7    1  0.7579108E-012  0.5930193E+02  0.7816164E-02  0.1266605E+00
        -11   -1    0    0    0    0  0.00000000000E+00  0.00000000000E+00  0.45593999997E+02  0.45594000000E+02  0.51100000000E-03 0.  1.
         11   -1    0    0    0    0 -0.00000000000E+00 -0.00000000000E+00 -0.45593999997E+02  0.45594000000E+02  0.51100000000E-03 0. -1.
    9900012    2    1    2    0    0  0.21277517289E+02 -0.10194789897E+02 -0.21448887276E+02  0.59301933318E+02  0.49999980468E+02 0.  0.
         12    1    1    2    0    0 -0.21277517289E+02  0.10194789897E+02  0.21448887276E+02  0.31886066682E+02  0.00000000000E+00 0. -1.
         11    1    3    3    0    0  0.28485200081E+02 -0.10575172146E+02  0.18693763857E+01  0.30442330034E+02  0.51100000000E-03 0.  1.
        -11    1    3    3    0    0 -0.11675385311E+02 -0.68308450273E+00 -0.12559553836E+02  0.17161690459E+02  0.51100000000E-03 0. -1.
        -12    1    3    3    0    0  0.44677025188E+01  0.10634667512E+01 -0.10758709826E+02  0.11697912825E+02  0.00000000000E+00 0.  1.
</event>
<event>
 7    1  0.7579108E-012  0.5930194E+02  0.7816164E-02  0.1266605E+00
        -11   -1    0    0    0    0  0.00000000000E+00  0.00000000000E+00  0.45593999997E+02  0.45594000000E+02  0.51100000000E-03 0.  1.
         11   -1    0    0    0    0 -0.00000000000E+00 -0.00000000000E+00 -0.45593999997E+02  0.45594000000E+02  0.51100000000E-03 0. -1.
    9900012    2    1    2    0    0 -0.16227491046E+02 -0.84053575585E+01  0.26129275775E+02  0.59301944210E+02  0.50000000333E+02 0.  0.
         12    1    1    2    0    0  0.16227491046E+02  0.84053575585E+01 -0.26129275775E+02  0.31886055790E+02  0.00000000000E+00 0. -1.
         11    1    3    3    0    0 -0.91290714637E+01  0.30762337606E+01 -0.41278891062E+01  0.10480583413E+02  0.51100000000E-03 0. -1.
        -11    1    3    3    0    0 -0.51759737767E+01 -0.24048963256E+02  0.14427548704E+02  0.28518371274E+02  0.51100000000E-03 0.  1.
        -12    1    3    3    0    0 -0.19224458054E+01  0.12567371937E+02  0.15829616177E+02  0.20302989524E+02  0.00000000000E+00 0.  1.
</event>
<event>
 7    1  0.7579108E-012  0.5930209E+02  0.7816164E-02  0.1266604E+00
        -11   -1    0    0    0    0  0.00000000000E+00  0.00000000000E+00  0.45593999997E+02  0.45594000000E+02  0.51100000000E-03 0.  1.
         11   -1    0    0    0    0 -0.00000000000E+00 -0.00000000000E+00 -0.45593999997E+02  0.45594000000E+02  0.51100000000E-03 0. -1.
    9900012    2    1    2    0    0 -0.87671969179E+01  0.16907117390E+02  0.25573365999E+02  0.59302087613E+02  0.50000261864E+02 0.  0.
         12    1    1    2    0    0  0.87671969179E+01 -0.16907117390E+02 -0.25573365999E+02  0.31885912387E+02  0.00000000000E+00 0. -1.
         11    1    3    3    0    0 -0.13498034531E+02  0.17398344968E+02 -0.94264833309E+01  0.23953244708E+02  0.51100000000E-03 0. -1.
        -11    1    3    3    0    0  0.60692696907E+00 -0.49472770866E+00  0.76269959216E+01  0.76670843807E+01  0.51100000000E-03 0.  1.
         12    1    3    3    0    0  0.41239106439E+01  0.35001307875E-02  0.27372853408E+02  0.27681758524E+02  0.00000000000E+00 0. -1.
</event>
<event>
 7    1  0.7579108E-012  0.5930171E+02  0.7816164E-02  0.1266606E+00
        -11   -1    0    0    0    0  0.00000000000E+00  0.00000000000E+00  0.45593999997E+02  0.45594000000E+02  0.51100000000E-03 0.  1.
         11   -1    0    0    0    0 -0.00000000000E+00 -0.00000000000E+00 -0.45593999997E+02  0.45594000000E+02  0.51100000000E-03 0. -1.
    9900012    2    1    2    0    0  0.59108788453E+00  0.46915630623E+01  0.31533712940E+02  0.59301714537E+02  0.49999581462E+02 0.  0.
         12    1    1    2    0    0 -0.59108788453E+00 -0.46915630623E+01 -0.31533712940E+02  0.31886285463E+02  0.00000000000E+00 0. -1.
         11    1    3    3    0    0 -0.10187864757E+02  0.13408469472E+02  0.77700651201E-01  0.16840002362E+02  0.51100000000E-03 0. -1.
        -11    1    3    3    0    0  0.51880569190E+01 -0.12147866384E+02  0.33151661940E+02  0.35686401919E+02  0.51100000000E-03 0.  1.
         12    1    3    3    0    0  0.55908957228E+01  0.34309599740E+01 -0.16956496511E+01  0.67753102561E+01  0.00000000000E+00 0. -1.
</event>
<event>
 7    1  0.7579108E-012  0.5930194E+02  0.7816164E-02  0.1266605E+00
        -11   -1    0    0    0    0  0.00000000000E+00  0.00000000000E+00  0.45593999997E+02  0.45594000000E+02  0.51100000000E-03 0.  1.
         11   -1    0    0    0    0 -0.00000000000E+00 -0.00000000000E+00 -0.45593999997E+02  0.45594000000E+02  0.51100000000E-03 0. -1.
    9900012    2    1    2    0    0 -0.20253664730E+02  0.23427171547E+02  0.75945513828E+01  0.59301944860E+02  0.50000001517E+02 0.  0.
         12    1    1    2    0    0  0.20253664730E+02 -0.23427171547E+02 -0.75945513828E+01  0.31886055140E+02  0.00000000000E+00 0. -1.
         11    1    3    3    0    0  0.97307902649E+01  0.24045917188E+01  0.15885749915E+02  0.18783700145E+02  0.51100000000E-03 0. -1.
        -11    1    3    3    0    0 -0.17232655532E+02  0.45023332598E+01 -0.82973654538E+01  0.19648961682E+02  0.51100000000E-03 0.  1.
         12    1    3    3    0    0 -0.12751799463E+02  0.16520246569E+02  0.61669215199E-02  0.20869283032E+02  0.00000000000E+00 0. -1.
</event>
<event>
 7    1  0.7579108E-012  0.5930194E+02  0.7816164E-02  0.1266605E+00
        -11   -1    0    0    0    0  0.00000000000E+00  0.00000000000E+00  0.45593999997E+02  0.45594000000E+02  0.51100000000E-03 0. -1.
         11   -1    0    0    0    0 -0.00000000000E+00 -0.00000000000E+00 -0.45593999997E+02  0.45594000000E+02  0.51100000000E-03 0.  1.
    9900012    2    1    2    0    0  0.24565126013E+02 -0.16294528758E+02 -0.12155823058E+02  0.59301935368E+02  0.49999984207E+02 0.  0.
         12    1    1    2    0    0 -0.24565126013E+02  0.16294528758E+02  0.12155823058E+02  0.31886064632E+02  0.00000000000E+00 0. -1.
         11    1    3    3    0    0  0.31580716476E+02 -0.22307749554E+02 -0.31671099564E+01  0.38794431675E+02  0.51100000000E-03 0. -1.
        -11    1    3    3    0    0 -0.15058526968E+01  0.24918779182E+01 -0.12672283951E+02  0.13002454719E+02  0.51100000000E-03 0.  1.
         12    1    3    3    0    0 -0.55097377655E+01  0.35213428773E+01  0.36835708498E+01  0.75050489745E+01  0.00000000000E+00 0. -1.
</event>
<event>
 7    1  0.7579108E-012  0.5930197E+02  0.7816164E-02  0.1266605E+00
        -11   -1    0    0    0    0  0.00000000000E+00  0.00000000000E+00  0.45593999997E+02  0.45594000000E+02  0.51100000000E-03 0.  1.
         11   -1    0    0    0    0 -0.00000000000E+00 -0.00000000000E+00 -0.45593999997E+02  0.45594000000E+02  0.51100000000E-03 0. -1.
    9900012    2    1    2    0    0  0.23314086694E+02 -0.10869733765E+01  0.21725344295E+02  0.59301972743E+02  0.50000052370E+02 0.  0.
         12    1    1    2    0    0 -0.23314086694E+02  0.10869733765E+01 -0.21725344295E+02  0.31886027257E+02  0.00000000000E+00 0. -1.
         11    1    3    3    0    0 -0.35699901120E+01 -0.68051235286E+01  0.77004906357E+01  0.10878974765E+02  0.51100000000E-03 0. -1.
        -11    1    3    3    0    0  0.17791931192E+02  0.99198783025E+01  0.25859266120E+02  0.32918967870E+02  0.51100000000E-03 0.  1.
        -12    1    3    3    0    0  0.90921456140E+01 -0.42017281505E+01 -0.11834412461E+02  0.15504030109E+02  0.00000000000E+00 0.  1.
</event>
<event>
 7    1  0.7579108E-012  0.5930195E+02  0.7816164E-02  0.1266605E+00
        -11   -1    0    0    0    0  0.00000000000E+00  0.00000000000E+00  0.45593999997E+02  0.45594000000E+02  0.51100000000E-03 0.  1.
         11   -1    0    0    0    0 -0.00000000000E+00 -0.00000000000E+00 -0.45593999997E+02  0.45594000000E+02  0.51100000000E-03 0. -1.
    9900012    2    1    2    0    0  0.69500160149E+01 -0.12762078084E+02  0.28382154773E+02  0.59301951810E+02  0.50000014193E+02 0.  0.
         12    1    1    2    0    0 -0.69500160149E+01  0.12762078084E+02 -0.28382154773E+02  0.31886048190E+02  0.00000000000E+00 0. -1.
         11    1    3    3    0    0  0.82441435930E+01  0.44746409398E+00  0.61636859104E+01  0.10303259288E+02  0.51100000000E-03 0. -1.
        -11    1    3    3    0    0 -0.19198891787E+02 -0.16674662549E+02  0.12555250174E+02  0.28359762414E+02  0.51100000000E-03 0.  1.
        -12    1    3    3    0    0  0.17904764209E+02  0.34651203715E+01  0.96632186886E+01  0.20638930108E+02  0.00000000000E+00 0.  1.
</event>
<event>
 7    1  0.7579108E-012  0.5930197E+02  0.7816164E-02  0.1266605E+00
        -11   -1    0    0    0    0  0.00000000000E+00  0.00000000000E+00  0.45593999997E+02  0.45594000000E+02  0.51100000000E-03 0.  1.
         11   -1    0    0    0    0 -0.00000000000E+00 -0.00000000000E+00 -0.45593999997E+02  0.45594000000E+02  0.51100000000E-03 0. -1.
    9900012    2    1    2    0    0  0.18504638347E+02 -0.17564580157E+02  0.19125445724E+02  0.59301971859E+02  0.50000050758E+02 0.  0.
         12    1    1    2    0    0 -0.18504638347E+02  0.17564580157E+02 -0.19125445724E+02  0.31886028141E+02  0.00000000000E+00 0. -1.
         11    1    3    3    0    0  0.39723378336E+01 -0.82942818875E+01 -0.10867736267E+02  0.14236652406E+02  0.51100000000E-03 0. -1.
        -11    1    3    3    0    0  0.97699178017E+01  0.95040061720E+01  0.16782530602E+02  0.21620147105E+02  0.51100000000E-03 0.  1.
        -12    1    3    3    0    0  0.47623827121E+01 -0.18774304442E+02  0.13210651389E+02  0.23445172349E+02  0.00000000000E+00 0.  1.
</event>
<event>
 7    1  0.7579108E-012  0.5930195E+02  0.7816164E-02  0.1266605E+00
        -11   -1    0    0    0    0  0.00000000000E+00  0.00000000000E+00  0.45593999997E+02  0.45594000000E+02  0.51100000000E-03 0.  1.
         11   -1    0    0    0    0 -0.00000000000E+00 -0.00000000000E+00 -0.45593999997E+02  0.45594000000E+02  0.51100000000E-03 0. -1.
    9900012    2    1    2    0    0 -0.26194798137E+02  0.48595182048E+01  0.17519643420E+02  0.59301948626E+02  0.50000008386E+02 0.  0.
         12    1    1    2    0    0  0.26194798137E+02 -0.48595182048E+01 -0.17519643420E+02  0.31886051374E+02  0.00000000000E+00 0. -1.
         11    1    3    3    0    0 -0.65222086329E+01 -0.63398080664E+01 -0.35898719618E+01  0.97785250796E+01  0.51100000000E-03 0. -1.
        -11    1    3    3    0    0 -0.21036697406E+02  0.27480501390E+01  0.30283615333E+02  0.36975556455E+02  0.51100000000E-03 0.  1.
        -12    1    3    3    0    0  0.13641079013E+01  0.84512761322E+01 -0.91740999507E+01  0.12547867091E+02  0.00000000000E+00 0.  1.
</event>
<event>
 7    1  0.7579108E-012  0.5930200E+02  0.7816164E-02  0.1266605E+00
        -11   -1    0    0    0    0  0.00000000000E+00  0.00000000000E+00  0.45593999997E+02  0.45594000000E+02  0.51100000000E-03 0.  1.
         11   -1    0    0    0    0 -0.00000000000E+00 -0.00000000000E+00 -0.45593999997E+02  0.45594000000E+02  0.51100000000E-03 0. -1.
    9900012    2    1    2    0    0  0.18606861274E+02  0.80536384810E+01  0.24609768109E+02  0.59301998909E+02  0.50000100090E+02 0.  0.
         12    1    1    2    0    0 -0.18606861274E+02 -0.80536384810E+01 -0.24609768109E+02  0.31886001091E+02  0.00000000000E+00 0. -1.
         11    1    3    3    0    0 -0.64647407481E+01 -0.45460823384E+01  0.32196133694E+01  0.85337944713E+01  0.51100000000E-03 0. -1.
        -11    1    3    3    0    0  0.24163496915E+02  0.22429909137E+02  0.76430041884E+01  0.33843624516E+02  0.51100000000E-03 0.  1.
        -12    1    3    3    0    0  0.90810510645E+00 -0.98301883180E+01  0.13747150551E+02  0.16924579922E+02  0.00000000000E+00 0.  1.
</event>
<event>
 7    1  0.7579108E-012  0.5930195E+02  0.7816164E-02  0.1266605E+00
        -11   -1    0    0    0    0  0.00000000000E+00  0.00000000000E+00  0.45593999997E+02  0.45594000000E+02  0.51100000000E-03 0.  1.
         11   -1    0    0    0    0 -0.00000000000E+00 -0.00000000000E+00 -0.45593999997E+02  0.45594000000E+02  0.51100000000E-03 0. -1.
    9900012    2    1    2    0    0 -0.32746917248E+01  0.35217072624E+01  0.31521326417E+02  0.59301952158E+02  0.50000014827E+02 0.  0.
         12    1    1    2    0    0  0.32746917248E+01 -0.35217072624E+01 -0.31521326417E+02  0.31886047842E+02  0.00000000000E+00 0. -1.
         11    1    3    3    0    0 -0.15989856763E+01  0.13519026225E+02  0.21872156861E+02  0.25762609947E+02  0.51100000000E-03 0. -1.
        -11    1    3    3    0    0 -0.12057958923E+02 -0.14432834918E+02  0.11578916295E+02  0.22085569949E+02  0.51100000000E-03 0.  1.
        -12    1    3    3    0    0  0.10382252875E+02  0.44355159557E+01 -0.19297467390E+01  0.11453772262E+02  0.00000000000E+00 0.  1.
</event>
<event>
 7    1  0.7579108E-012  0.5930195E+02  0.7816164E-02  0.1266605E+00
        -11   -1    0    0    0    0  0.00000000000E+00  0.00000000000E+00  0.45593999997E+02  0.45594000000E+02  0.51100000000E-03 0.  1.
         11   -1    0    0    0    0 -0.00000000000E+00 -0.00000000000E+00 -0.45593999997E+02  0.45594000000E+02  0.51100000000E-03 0. -1.
    9900012    2    1    2    0    0  0.22184892355E+02 -0.12963414998E+02  0.18881222255E+02  0.59301950840E+02  0.50000012424E+02 0.  0.
         12    1    1    2    0    0 -0.22184892355E+02  0.12963414998E+02 -0.18881222255E+02  0.31886049160E+02  0.00000000000E+00 0. -1.
         11    1    3    3    0    0 -0.34159642848E+01  0.29354782222E+01 -0.25031065139E+01  0.51528037872E+01  0.51100000000E-03 0. -1.
        -11    1    3    3    0    0  0.20087592784E+02  0.31005878867E+01  0.26802131796E+02  0.33637468664E+02  0.51100000000E-03 0.  1.
        -12    1    3    3    0    0  0.55132638561E+01 -0.18999481107E+02 -0.54178030273E+01  0.20511678388E+02  0.00000000000E+00 0.  1.
</event>
<event>
 7    1  0.7579108E-012  0.5930193E+02  0.7816164E-02  0.1266605E+00
        -11   -1    0    0    0    0  0.00000000000E+00  0.00000000000E+00  0.45593999997E+02  0.45594000000E+02  0.51100000000E-03 0.  1.
         11   -1    0    0    0    0 -0.00000000000E+00 -0.00000000000E+00 -0.45593999997E+02  0.45594000000E+02  0.51100000000E-03 0. -1.
    9900012    2    1    2    0    0 -0.91522501850E+01  0.28512102467E+02  0.10955258858E+02  0.59301931456E+02  0.49999977072E+02 0.  0.
         12    1    1    2    0    0  0.91522501850E+01 -0.28512102467E+02 -0.10955258858E+02  0.31886068544E+02  0.00000000000E+00 0. -1.
         11    1    3    3    0    0 -0.19510090269E+01 -0.13562099769E+02  0.22433165032E+00  0.13703551048E+02  0.51100000000E-03 0. -1.
        -11    1    3    3    0    0  0.11344268238E+01  0.20292328692E+02  0.10637210899E+01  0.20351831141E+02  0.51100000000E-03 0.  1.
         12    1    3    3    0    0 -0.83356679819E+01  0.21781873544E+02  0.96672061177E+01  0.25246549268E+02  0.00000000000E+00 0. -1.
</event>
<event>
 7    1  0.7579108E-012  0.5930195E+02  0.7816164E-02  0.1266605E+00
        -11   -1    0    0    0    0  0.00000000000E+00  0.00000000000E+00  0.45593999997E+02  0.45594000000E+02  0.51100000000E-03 0.  1.
         11   -1    0    0    0    0 -0.00000000000E+00 -0.00000000000E+00 -0.45593999997E+02  0.45594000000E+02  0.51100000000E-03 0. -1.
    9900012    2    1    2    0    0 -0.27206829301E+02  0.49832657109E-01  0.16628476023E+02  0.59301948837E+02  0.50000008771E+02 0.  0.
         12    1    1    2    0    0  0.27206829301E+02 -0.49832657109E-01 -0.16628476023E+02  0.31886051163E+02  0.00000000000E+00 0. -1.
         11    1    3    3    0    0 -0.28227929001E+01 -0.63897676423E+01  0.13700303820E+02  0.15378413940E+02  0.51100000000E-03 0. -1.
        -11    1    3    3    0    0 -0.35143614701E+01  0.13300316814E+02 -0.11255156653E+02  0.17774355556E+02  0.51100000000E-03 0.  1.
        -12    1    3    3    0    0 -0.20869674931E+02 -0.68607165141E+01  0.14183328856E+02  0.26149179342E+02  0.00000000000E+00 0.  1.
</event>
<event>
 7    1  0.7579108E-012  0.5930194E+02  0.7816164E-02  0.1266605E+00
        -11   -1    0    0    0    0  0.00000000000E+00  0.00000000000E+00  0.45593999997E+02  0.45594000000E+02  0.51100000000E-03 0. -1.
         11   -1    0    0    0    0 -0.00000000000E+00 -0.00000000000E+00 -0.45593999997E+02  0.45594000000E+02  0.51100000000E-03 0.  1.
    9900012    2    1    2    0    0  0.26826764646E+02 -0.25091396706E+01 -0.17051381686E+02  0.59301941908E+02  0.49999996135E+02 0.  0.
         12    1    1    2    0    0 -0.26826764646E+02  0.25091396706E+01  0.17051381686E+02  0.31886058092E+02  0.00000000000E+00 0. -1.
         11    1    3    3    0    0 -0.78780178145E+01  0.78642606255E+01 -0.46960240880E+01  0.12081490072E+02  0.51100000000E-03 0. -1.
        -11    1    3    3    0    0  0.25776194777E+02 -0.16355318198E+02  0.41446689830E+00  0.30529992362E+02  0.51100000000E-03 0.  1.
         12    1    3    3    0    0  0.89285876828E+01  0.59819179018E+01 -0.12769824496E+02  0.16690459474E+02  0.00000000000E+00 0. -1.
</event>
<event>
 7    1  0.7579108E-012  0.5930198E+02  0.7816164E-02  0.1266605E+00
        -11   -1    0    0    0    0  0.00000000000E+00  0.00000000000E+00  0.45593999997E+02  0.45594000000E+02  0.51100000000E-03 0.  1.
         11   -1    0    0    0    0 -0.00000000000E+00 -0.00000000000E+00 -0.45593999997E+02  0.45594000000E+02  0.51100000000E-03 0. -1.
    9900012    2    1    2    0    0  0.81460288581E+01  0.90340872060E+00  0.30814678299E+02  0.59301979048E+02  0.50000063869E+02 0.  0.
         12    1    1    2    0    0 -0.81460288581E+01 -0.90340872060E+00 -0.30814678299E+02  0.31886020952E+02  0.00000000000E+00 0. -1.
         11    1    3    3    0    0  0.13178725760E+02  0.10097271083E+02  0.29514670121E+01  0.16862528096E+02  0.51100000000E-03 0. -1.
        -11    1    3    3    0    0 -0.14315481886E+02 -0.58046600038E+01  0.30703963604E+01  0.15749743917E+02  0.51100000000E-03 0.  1.
        -12    1    3    3    0    0  0.92827849839E+01 -0.33892023588E+01  0.24792814926E+02  0.26689707036E+02  0.00000000000E+00 0.  1.
</event>
<event>
 7    1  0.7579108E-012  0.5930172E+02  0.7816164E-02  0.1266606E+00
        -11   -1    0    0    0    0  0.00000000000E+00  0.00000000000E+00  0.45593999997E+02  0.45594000000E+02  0.51100000000E-03 0.  1.
         11   -1    0    0    0    0 -0.00000000000E+00 -0.00000000000E+00 -0.45593999997E+02  0.45594000000E+02  0.51100000000E-03 0. -1.
    9900012    2    1    2    0    0  0.14588400463E+01 -0.14812905151E+02  0.28199013309E+02  0.59301721997E+02  0.49999595068E+02 0.  0.
         12    1    1    2    0    0 -0.14588400463E+01  0.14812905151E+02 -0.28199013309E+02  0.31886278003E+02  0.00000000000E+00 0. -1.
         11    1    3    3    0    0 -0.19255109145E+02 -0.94676652055E+01  0.30976374724E+02  0.37681981157E+02  0.51100000000E-03 0. -1.
        -11    1    3    3    0    0  0.16963040252E+01 -0.60851481485E+00 -0.60531534470E+00  0.19010903591E+01  0.51100000000E-03 0.  1.
         12    1    3    3    0    0  0.19017645167E+02 -0.47367251308E+01 -0.21720460704E+01  0.19718650481E+02  0.00000000000E+00 0. -1.
</event>
<event>
 7    1  0.7579108E-012  0.5930202E+02  0.7816164E-02  0.1266604E+00
        -11   -1    0    0    0    0  0.00000000000E+00  0.00000000000E+00  0.45593999997E+02  0.45594000000E+02  0.51100000000E-03 0.  1.
         11   -1    0    0    0    0 -0.00000000000E+00 -0.00000000000E+00 -0.45593999997E+02  0.45594000000E+02  0.51100000000E-03 0. -1.
    9900012    2    1    2    0    0 -0.90889505157E+01  0.30548916277E+02 -0.93280431218E+00  0.59302024540E+02  0.50000146834E+02 0.  0.
         12    1    1    2    0    0  0.90889505157E+01 -0.30548916277E+02  0.93280431218E+00  0.31885975460E+02  0.00000000000E+00 0. -1.
         11    1    3    3    0    0  0.39064159221E+01  0.44198007660E+01 -0.97034549006E+01  0.11355692909E+02  0.51100000000E-03 0. -1.
        -11    1    3    3    0    0 -0.20727247829E+02  0.51031653761E+01  0.13217082597E+02  0.25106819234E+02  0.51100000000E-03 0.  1.
         12    1    3    3    0    0  0.77318813913E+01  0.21025950135E+02 -0.44464320085E+01  0.22839512397E+02  0.00000000000E+00 0. -1.
</event>
<event>
 7    1  0.7579108E-012  0.5930194E+02  0.7816164E-02  0.1266605E+00
        -11   -1    0    0    0    0  0.00000000000E+00  0.00000000000E+00  0.45593999997E+02  0.45594000000E+02  0.51100000000E-03 0.  1.
         11   -1    0    0    0    0 -0.00000000000E+00 -0.00000000000E+00 -0.45593999997E+02  0.45594000000E+02  0.51100000000E-03 0. -1.
    9900012    2    1    2    0    0 -0.97693976643E+01 -0.12664589664E+02  0.27584199200E+02  0.59301937095E+02  0.49999987357E+02 0.  0.
         12    1    1    2    0    0  0.97693976643E+01  0.12664589664E+02 -0.27584199200E+02  0.31886062905E+02  0.00000000000E+00 0. -1.
         11    1    3    3    0    0  0.93660686397E+01 -0.21694519860E+01  0.62685076857E+01  0.11477105582E+02  0.51100000000E-03 0. -1.
        -11    1    3    3    0    0 -0.13282776280E+02  0.11271818755E+02  0.17986956682E+02  0.25040300611E+02  0.51100000000E-03 0.  1.
        -12    1    3    3    0    0 -0.58526900236E+01 -0.21766956432E+02  0.33287348321E+01  0.22784530902E+02  0.00000000000E+00 0.  1.
</event>
<event>
 7    1  0.7579108E-012  0.5930183E+02  0.7816164E-02  0.1266605E+00
        -11   -1    0    0    0    0  0.00000000000E+00  0.00000000000E+00  0.45593999997E+02  0.45594000000E+02  0.51100000000E-03 0.  1.
         11   -1    0    0    0    0 -0.00000000000E+00 -0.00000000000E+00 -0.45593999997E+02  0.45594000000E+02  0.51100000000E-03 0. -1.
    9900012    2    1    2    0    0 -0.21604896126E+02  0.95919453158E+01  0.21399785201E+02  0.59301831240E+02  0.49999794301E+02 0.  0.
         12    1    1    2    0    0  0.21604896126E+02 -0.95919453158E+01 -0.21399785201E+02  0.31886168760E+02  0.00000000000E+00 0. -1.
         11    1    3    3    0    0  0.46815443672E+01 -0.11383589020E+02 -0.41655625671E+01  0.12994416817E+02  0.51100000000E-03 0. -1.
        -11    1    3    3    0    0 -0.20322942626E+02  0.42238394209E+01  0.15174984492E+02  0.25712700578E+02  0.51100000000E-03 0.  1.
         12    1    3    3    0    0 -0.59634978671E+01  0.16751694915E+02  0.10390363276E+02  0.20594713845E+02  0.00000000000E+00 0. -1.
</event>
<event>
 7    1  0.7579108E-012  0.5930197E+02  0.7816164E-02  0.1266605E+00
        -11   -1    0    0    0    0  0.00000000000E+00  0.00000000000E+00  0.45593999997E+02  0.45594000000E+02  0.51100000000E-03 0.  1.
         11   -1    0    0    0    0 -0.00000000000E+00 -0.00000000000E+00 -0.45593999997E+02  0.45594000000E+02  0.51100000000E-03 0. -1.
    9900012    2    1    2    0    0 -0.30242716313E+02 -0.10056511804E+02  0.98156687735E+00  0.59301971819E+02  0.50000050684E+02 0.  0.
         12    1    1    2    0    0  0.30242716313E+02  0.10056511804E+02 -0.98156687735E+00  0.31886028181E+02  0.00000000000E+00 0. -1.
         11    1    3    3    0    0 -0.24418321177E+02  0.15993927581E+01 -0.21829549846E+02  0.32792403282E+02  0.51100000000E-03 0. -1.
        -11    1    3    3    0    0 -0.34472125678E+01 -0.76020209210E+01  0.11080986512E+02  0.13873076765E+02  0.51100000000E-03 0.  1.
         12    1    3    3    0    0 -0.23771825687E+01 -0.40538836406E+01  0.11730130211E+02  0.12636491772E+02  0.00000000000E+00 0. -1.
</event>
<event>
 7    1  0.7912938E-012  0.5930193E+02  0.7816164E-02  0.1266605E+00
        -11   -1    0    0    0    0  0.00000000000E+00  0.00000000000E+00  0.45593999997E+02  0.45594000000E+02  0.51100000000E-03 0. -1.
         11   -1    0    0    0    0 -0.00000000000E+00 -0.00000000000E+00 -0.45593999997E+02  0.45594000000E+02  0.51100000000E-03 0.  1.
    9900012    2    1    2    0    0  0.24687815716E+02  0.18094254525E+02 -0.89348393850E+01  0.59301927077E+02  0.49999969085E+02 0.  0.
         12    1    1    2    0    0 -0.24687815716E+02 -0.18094254525E+02  0.89348393850E+01  0.31886072923E+02  0.00000000000E+00 0. -1.
         11    1    3    3    0    0  0.25130874706E+01 -0.14444881393E+01  0.80281684092E+01  0.85354345459E+01  0.51100000000E-03 0. -1.
        -11    1    3    3    0    0  0.10491530874E+01  0.23870412033E+02 -0.16786367252E+02  0.29200674968E+02  0.51100000000E-03 0.  1.
        -12    1    3    3    0    0  0.21125575158E+02 -0.43316693687E+01 -0.17664054254E+00  0.21565817563E+02  0.00000000000E+00 0.  1.
</event>
<event>
 7    1  0.7579108E-012  0.5930196E+02  0.7816164E-02  0.1266605E+00
        -11   -1    0    0    0    0  0.00000000000E+00  0.00000000000E+00  0.45593999997E+02  0.45594000000E+02  0.51100000000E-03 0. -1.
         11   -1    0    0    0    0 -0.00000000000E+00 -0.00000000000E+00 -0.45593999997E+02  0.45594000000E+02  0.51100000000E-03 0.  1.
    9900012    2    1    2    0    0  0.19006036712E+02  0.21060433456E+02 -0.14558438854E+02  0.59301961821E+02  0.50000032451E+02 0.  0.
         12    1    1    2    0    0 -0.19006036712E+02 -0.21060433456E+02  0.14558438854E+02  0.31886038179E+02  0.00000000000E+00 0. -1.
         11    1    3    3    0    0  0.21717307185E+02  0.16243904512E+02  0.72483718215E+01  0.28072134929E+02  0.51100000000E-03 0. -1.
        -11    1    3    3    0    0  0.16278344542E+01 -0.52820205450E+00 -0.23956595502E+02  0.24017645820E+02  0.51100000000E-03 0.  1.
        -12    1    3    3    0    0 -0.43391049270E+01  0.53447309984E+01  0.21497848263E+01  0.72121810718E+01  0.00000000000E+00 0.  1.
</event>
<event>
 7    1  0.7579108E-012  0.5930187E+02  0.7816164E-02  0.1266605E+00
        -11   -1    0    0    0    0  0.00000000000E+00  0.00000000000E+00  0.45593999997E+02  0.45594000000E+02  0.51100000000E-03 0. -1.
         11   -1    0    0    0    0 -0.00000000000E+00 -0.00000000000E+00 -0.45593999997E+02  0.45594000000E+02  0.51100000000E-03 0.  1.
    9900012    2    1    2    0    0 -0.18126064313E+02 -0.25744383093E+02 -0.50396305792E+01  0.59301869085E+02  0.49999863322E+02 0.  0.
         12    1    1    2    0    0  0.18126064313E+02  0.25744383093E+02  0.50396305792E+01  0.31886130915E+02  0.00000000000E+00 0. -1.
         11    1    3    3    0    0  0.13605295749E+02 -0.10474479846E+02 -0.36796984982E+01  0.17560153238E+02  0.51100000000E-03 0. -1.
        -11    1    3    3    0    0 -0.25216336529E+02 -0.18309898476E+02 -0.77621518428E+01  0.32114903264E+02  0.51100000000E-03 0.  1.
        -12    1    3    3    0    0 -0.65150235332E+01  0.30399952287E+01  0.64022197618E+01  0.96268125829E+01  0.00000000000E+00 0.  1.
</event>
<event>
 7    1  0.7579108E-012  0.5930199E+02  0.7816164E-02  0.1266605E+00
        -11   -1    0    0    0    0  0.00000000000E+00  0.00000000000E+00  0.45593999997E+02  0.45594000000E+02  0.51100000000E-03 0.  1.
         11   -1    0    0    0    0 -0.00000000000E+00 -0.00000000000E+00 -0.45593999997E+02  0.45594000000E+02  0.51100000000E-03 0. -1.
    9900012    2    1    2    0    0  0.10845216090E+02  0.30135269225E+01  0.29833165384E+02  0.59301987183E+02  0.50000078705E+02 0.  0.
         12    1    1    2    0    0 -0.10845216090E+02 -0.30135269225E+01 -0.29833165384E+02  0.31886012817E+02  0.00000000000E+00 0. -1.
         11    1    3    3    0    0 -0.10767677548E+02 -0.70671441825E+01  0.95714060361E+01  0.16046782246E+02  0.51100000000E-03 0. -1.
        -11    1    3    3    0    0  0.15533760327E+02  0.20743628582E+02  0.14501539652E+02  0.29696641042E+02  0.51100000000E-03 0.  1.
        -12    1    3    3    0    0  0.60791333108E+01 -0.10662957477E+02  0.57602196952E+01  0.13558563895E+02  0.00000000000E+00 0.  1.
</event>
<event>
 7    1  0.7579108E-012  0.5930201E+02  0.7816164E-02  0.1266605E+00
        -11   -1    0    0    0    0  0.00000000000E+00  0.00000000000E+00  0.45593999997E+02  0.45594000000E+02  0.51100000000E-03 0.  1.
         11   -1    0    0    0    0 -0.00000000000E+00 -0.00000000000E+00 -0.45593999997E+02  0.45594000000E+02  0.51100000000E-03 0. -1.
    9900012    2    1    2    0    0 -0.11325881574E+02 -0.29799381103E+02  0.66158194129E+00  0.59302009374E+02  0.50000119176E+02 0.  0.
         12    1    1    2    0    0  0.11325881574E+02  0.29799381103E+02 -0.66158194129E+00  0.31885990626E+02  0.00000000000E+00 0. -1.
         11    1    3    3    0    0 -0.89709806964E+01 -0.98044810529E+00 -0.15149953496E+02  0.17634082464E+02  0.51100000000E-03 0.  1.
        -11    1    3    3    0    0  0.28239362800E+01 -0.32223753490E+02  0.12990106426E+02  0.34858109104E+02  0.51100000000E-03 0. -1.
        -12    1    3    3    0    0 -0.51788371576E+01  0.34048204923E+01  0.28214290117E+01  0.68098178064E+01  0.00000000000E+00 0.  1.
</event>
<event>
 7    1  0.7579108E-012  0.5930195E+02  0.7816164E-02  0.1266605E+00
        -11   -1    0    0    0    0  0.00000000000E+00  0.00000000000E+00  0.45593999997E+02  0.45594000000E+02  0.51100000000E-03 0. -1.
         11   -1    0    0    0    0 -0.00000000000E+00 -0.00000000000E+00 -0.45593999997E+02  0.45594000000E+02  0.51100000000E-03 0.  1.
    9900012    2    1    2    0    0 -0.10183138370E+02 -0.16709432043E+02 -0.25175762230E+02  0.59301946150E+02  0.50000003871E+02 0.  0.
         12    1    1    2    0    0  0.10183138370E+02  0.16709432043E+02  0.25175762230E+02  0.31886053850E+02  0.00000000000E+00 0. -1.
         11    1    3    3    0    0 -0.19066164050E+01 -0.51557519310E+01  0.18891422840E+01  0.58125573477E+01  0.51100000000E-03 0. -1.
        -11    1    3    3    0    0  0.12292765370E+02 -0.10957981975E+02 -0.28442016731E+02  0.32865449417E+02  0.51100000000E-03 0.  1.
        -12    1    3    3    0    0 -0.20569287335E+02 -0.59569813738E+00  0.13771122169E+01  0.20623939386E+02  0.00000000000E+00 0.  1.
</event>
<event>
 7    1  0.7579108E-012  0.5930211E+02  0.7816164E-02  0.1266604E+00
        -11   -1    0    0    0    0  0.00000000000E+00  0.00000000000E+00  0.45593999997E+02  0.45594000000E+02  0.51100000000E-03 0. -1.
         11   -1    0    0    0    0 -0.00000000000E+00 -0.00000000000E+00 -0.45593999997E+02  0.45594000000E+02  0.51100000000E-03 0.  1.
    9900012    2    1    2    0    0 -0.20243464428E+02  0.24430780325E+02 -0.31700315101E+01  0.59302110031E+02  0.50000302750E+02 0.  0.
         12    1    1    2    0    0  0.20243464428E+02 -0.24430780325E+02  0.31700315101E+01  0.31885889969E+02  0.00000000000E+00 0. -1.
         11    1    3    3    0    0 -0.49576794296E+00  0.67558819109E+00 -0.11908703946E+02  0.11938150409E+02  0.51100000000E-03 0. -1.
        -11    1    3    3    0    0 -0.28798454923E+02  0.13937973117E+02  0.11700781528E+01  0.32015421030E+02  0.51100000000E-03 0.  1.
        -12    1    3    3    0    0  0.90507584381E+01  0.98172190163E+01  0.75685942827E+01  0.15348538593E+02  0.00000000000E+00 0.  1.
</event>
<event>
 7    1  0.7579108E-012  0.5930202E+02  0.7816164E-02  0.1266604E+00
        -11   -1    0    0    0    0  0.00000000000E+00  0.00000000000E+00  0.45593999997E+02  0.45594000000E+02  0.51100000000E-03 0.  1.
         11   -1    0    0    0    0 -0.00000000000E+00 -0.00000000000E+00 -0.45593999997E+02  0.45594000000E+02  0.51100000000E-03 0. -1.
    9900012    2    1    2    0    0  0.21849970672E+02 -0.36518816031E+01  0.22933774730E+02  0.59302023757E+02  0.50000145406E+02 0.  0.
         12    1    1    2    0    0 -0.21849970672E+02  0.36518816031E+01 -0.22933774730E+02  0.31885976243E+02  0.00000000000E+00 0. -1.
         11    1    3    3    0    0 -0.36484123294E+01 -0.10967906075E+02  0.25926390601E+01  0.11845997373E+02  0.51100000000E-03 0. -1.
        -11    1    3    3    0    0  0.31807458317E+02  0.11892463999E+02  0.20489276215E+02  0.39660503585E+02  0.51100000000E-03 0.  1.
        -12    1    3    3    0    0 -0.63090753153E+01 -0.45764395270E+01 -0.14814054478E+00  0.77955227983E+01  0.00000000000E+00 0.  1.
</event>
<event>
 7    1  0.7579108E-012  0.5930197E+02  0.7816164E-02  0.1266605E+00
        -11   -1    0    0    0    0  0.00000000000E+00  0.00000000000E+00  0.45593999997E+02  0.45594000000E+02  0.51100000000E-03 0.  1.
         11   -1    0    0    0    0 -0.00000000000E+00 -0.00000000000E+00 -0.45593999997E+02  0.45594000000E+02  0.51100000000E-03 0. -1.
    9900012    2    1    2    0    0 -0.48308359459E+01  0.19098608703E+02 -0.25072392169E+02  0.59301973603E+02  0.50000053938E+02 0.  0.
         12    1    1    2    0    0  0.48308359459E+01 -0.19098608703E+02  0.25072392169E+02  0.31886026397E+02  0.00000000000E+00 0. -1.
         11    1    3    3    0    0 -0.17118786740E+01  0.16533728679E+02 -0.35726970515E+00  0.16625954244E+02  0.51100000000E-03 0. -1.
        -11    1    3    3    0    0  0.10922527963E+01  0.12347165964E+02 -0.28733346699E+02  0.31292982222E+02  0.51100000000E-03 0.  1.
        -12    1    3    3    0    0 -0.42112100683E+01 -0.97822859402E+01  0.40182242359E+01  0.11383037137E+02  0.00000000000E+00 0.  1.
</event>
<event>
 7    1  0.7579108E-012  0.5930193E+02  0.7816164E-02  0.1266605E+00
        -11   -1    0    0    0    0  0.00000000000E+00  0.00000000000E+00  0.45593999997E+02  0.45594000000E+02  0.51100000000E-03 0. -1.
         11   -1    0    0    0    0 -0.00000000000E+00 -0.00000000000E+00 -0.45593999997E+02  0.45594000000E+02  0.51100000000E-03 0.  1.
    9900012    2    1    2    0    0 -0.26100371593E+02 -0.22599888305E+01 -0.18176483878E+02  0.59301929170E+02  0.49999972903E+02 0.  0.
         12    1    1    2    0    0  0.26100371593E+02  0.22599888305E+01  0.18176483878E+02  0.31886070830E+02  0.00000000000E+00 0. -1.
         11    1    3    3    0    0  0.13516586574E+01 -0.19531287790E+02 -0.85997737022E+01  0.21383505135E+02  0.51100000000E-03 0. -1.
        -11    1    3    3    0    0 -0.12109100770E+02  0.12497938310E+02 -0.12707647515E+02  0.21547925401E+02  0.51100000000E-03 0.  1.
         12    1    3    3    0    0 -0.15342929480E+02  0.47733606493E+01  0.31309373387E+01  0.16370498635E+02  0.00000000000E+00 0. -1.
</event>
<event>
 7    1  0.7579108E-012  0.5930192E+02  0.7816164E-02  0.1266605E+00
        -11   -1    0    0    0    0  0.00000000000E+00  0.00000000000E+00  0.45593999997E+02  0.45594000000E+02  0.51100000000E-03 0.  1.
         11   -1    0    0    0    0 -0.00000000000E+00 -0.00000000000E+00 -0.45593999997E+02  0.45594000000E+02  0.51100000000E-03 0. -1.
    9900012    2    1    2    0    0  0.13929124504E+01  0.29127473693E+02  0.12898522996E+02  0.59301924288E+02  0.49999963999E+02 0.  0.
         12    1    1    2    0    0 -0.13929124504E+01 -0.29127473693E+02 -0.12898522996E+02  0.31886075712E+02  0.00000000000E+00 0. -1.
         11    1    3    3    0    0  0.22075747013E+01  0.25368840636E+02 -0.69165235009E+01  0.26387302986E+02  0.51100000000E-03 0. -1.
        -11    1    3    3    0    0 -0.99616049358E+01  0.74412978283E+01  0.19403405599E+02  0.23045577350E+02  0.51100000000E-03 0.  1.
         12    1    3    3    0    0  0.91469426849E+01 -0.36826647713E+01  0.41164089777E+00  0.98690439520E+01  0.00000000000E+00 0. -1.
</event>
<event>
 7    1  0.7579108E-012  0.5930200E+02  0.7816164E-02  0.1266605E+00
        -11   -1    0    0    0    0  0.00000000000E+00  0.00000000000E+00  0.45593999997E+02  0.45594000000E+02  0.51100000000E-03 0.  1.
         11   -1    0    0    0    0 -0.00000000000E+00 -0.00000000000E+00 -0.45593999997E+02  0.45594000000E+02  0.51100000000E-03 0. -1.
    9900012    2    1    2    0    0  0.27480764118E+01  0.31581902821E+02  0.34276156849E+01  0.59301999011E+02  0.50000100277E+02 0.  0.
         12    1    1    2    0    0 -0.27480764118E+01 -0.31581902821E+02 -0.34276156849E+01  0.31886000989E+02  0.00000000000E+00 0. -1.
         11    1    3    3    0    0 -0.76900797900E+01  0.30155423549E+02  0.11158436383E+02  0.33060514203E+02  0.51100000000E-03 0. -1.
        -11    1    3    3    0    0  0.12548279470E+01  0.52310370458E+00 -0.14646809448E+02  0.14709767433E+02  0.51100000000E-03 0.  1.
        -12    1    3    3    0    0  0.91833282548E+01  0.90337556786E+00  0.69159887499E+01  0.11531717376E+02  0.00000000000E+00 0.  1.
</event>
<event>
 7    1  0.7579108E-012  0.5930195E+02  0.7816164E-02  0.1266605E+00
        -11   -1    0    0    0    0  0.00000000000E+00  0.00000000000E+00  0.45593999997E+02  0.45594000000E+02  0.51100000000E-03 0. -1.
         11   -1    0    0    0    0 -0.00000000000E+00 -0.00000000000E+00 -0.45593999997E+02  0.45594000000E+02  0.51100000000E-03 0.  1.
    9900012    2    1    2    0    0 -0.19890998001E+02 -0.11421139317E+02 -0.22150079963E+02  0.59301948706E+02  0.50000008532E+02 0.  0.
         12    1    1    2    0    0  0.19890998001E+02  0.11421139317E+02  0.22150079963E+02  0.31886051294E+02  0.00000000000E+00 0. -1.
         11    1    3    3    0    0  0.10753069592E+02  0.27871419177E+01 -0.10624976131E+02  0.15371622678E+02  0.51100000000E-03 0. -1.
        -11    1    3    3    0    0 -0.30833324775E+02 -0.68428602466E+01 -0.15901564910E+02  0.35360690319E+02  0.51100000000E-03 0.  1.
        -12    1    3    3    0    0  0.18925718247E+00 -0.73654209878E+01  0.43764610774E+01  0.85696357081E+01  0.00000000000E+00 0.  1.
</event>
<event>
 7    1  0.7579108E-012  0.5930195E+02  0.7816164E-02  0.1266605E+00
        -11   -1    0    0    0    0  0.00000000000E+00  0.00000000000E+00  0.45593999997E+02  0.45594000000E+02  0.51100000000E-03 0.  1.
         11   -1    0    0    0    0 -0.00000000000E+00 -0.00000000000E+00 -0.45593999997E+02  0.45594000000E+02  0.51100000000E-03 0. -1.
    9900012    2    1    2    0    0  0.44608374349E+01 -0.65276922191E+01  0.30890292908E+02  0.59301952389E+02  0.50000015249E+02 0.  0.
         12    1    1    2    0    0 -0.44608374349E+01  0.65276922191E+01 -0.30890292908E+02  0.31886047611E+02  0.00000000000E+00 0. -1.
         11    1    3    3    0    0  0.81498270340E+01 -0.80316232031E+01 -0.10933772116E+02  0.15826371186E+02  0.51100000000E-03 0. -1.
        -11    1    3    3    0    0  0.13084977717E+01  0.11920470720E+01  0.34824291120E+02  0.34869247122E+02  0.51100000000E-03 0.  1.
        -12    1    3    3    0    0 -0.49974873708E+01  0.31188391192E+00  0.69997739043E+01  0.86063340807E+01  0.00000000000E+00 0.  1.
</event>
<event>
 7    1  0.7579108E-012  0.5930195E+02  0.7816164E-02  0.1266605E+00
        -11   -1    0    0    0    0  0.00000000000E+00  0.00000000000E+00  0.45593999997E+02  0.45594000000E+02  0.51100000000E-03 0. -1.
         11   -1    0    0    0    0 -0.00000000000E+00 -0.00000000000E+00 -0.45593999997E+02  0.45594000000E+02  0.51100000000E-03 0.  1.
    9900012    2    1    2    0    0  0.31827801232E+02 -0.11023568187E+01 -0.15799150926E+01  0.59301948919E+02  0.50000008921E+02 0.  0.
         12    1    1    2    0    0 -0.31827801232E+02  0.11023568187E+01  0.15799150926E+01  0.31886051081E+02  0.00000000000E+00 0. -1.
         11    1    3    3    0    0  0.22749215684E+02  0.16446235198E+02 -0.70455652489E+01  0.28942105251E+02  0.51100000000E-03 0.  1.
        -11    1    3    3    0    0  0.10511936258E+01 -0.15790761194E+02 -0.54133937677E+01  0.16725967221E+02  0.51100000000E-03 0. -1.
         12    1    3    3    0    0  0.80273919230E+01 -0.17578308230E+01  0.10879043924E+02  0.13633876448E+02  0.00000000000E+00 0. -1.
</event>
<event>
 7    1  0.7579108E-012  0.5930194E+02  0.7816164E-02  0.1266605E+00
        -11   -1    0    0    0    0  0.00000000000E+00  0.00000000000E+00  0.45593999997E+02  0.45594000000E+02  0.51100000000E-03 0. -1.
         11   -1    0    0    0    0 -0.00000000000E+00 -0.00000000000E+00 -0.45593999997E+02  0.45594000000E+02  0.51100000000E-03 0.  1.
    9900012    2    1    2    0    0 -0.24928762991E+02 -0.15769530115E+02 -0.12107829585E+02  0.59301939698E+02  0.49999992104E+02 0.  0.
         12    1    1    2    0    0  0.24928762991E+02  0.15769530115E+02  0.12107829585E+02  0.31886060302E+02  0.00000000000E+00 0. -1.
         11    1    3    3    0    0  0.11272467697E+02  0.29942299597E+01  0.10688571702E+01  0.11712232791E+02  0.51100000000E-03 0. -1.
        -11    1    3    3    0    0 -0.21228627144E+02 -0.94391883649E+01 -0.17901079619E+02  0.29329192611E+02  0.51100000000E-03 0.  1.
         12    1    3    3    0    0 -0.14972603544E+02 -0.93245717094E+01  0.47243928635E+01  0.18260514296E+02  0.00000000000E+00 0. -1.
</event>
<event>
 7    1  0.7579108E-012  0.5930175E+02  0.7816164E-02  0.1266605E+00
        -11   -1    0    0    0    0  0.00000000000E+00  0.00000000000E+00  0.45593999997E+02  0.45594000000E+02  0.51100000000E-03 0. -1.
         11   -1    0    0    0    0 -0.00000000000E+00 -0.00000000000E+00 -0.45593999997E+02  0.45594000000E+02  0.51100000000E-03 0.  1.
    9900012    2    1    2    0    0 -0.27667254725E+02 -0.13956198442E+02  0.75153644425E+01  0.59301746510E+02  0.49999639773E+02 0.  0.
         12    1    1    2    0    0  0.27667254725E+02  0.13956198442E+02 -0.75153644425E+01  0.31886253490E+02  0.00000000000E+00 0. -1.
         11    1    3    3    0    0  0.12288728596E+02  0.11684623842E-01 -0.44117128600E+01  0.13056653386E+02  0.51100000000E-03 0. -1.
        -11    1    3    3    0    0 -0.23872103027E+01 -0.53418728478E+01  0.33989314147E+01  0.67666175874E+01  0.51100000000E-03 0.  1.
         12    1    3    3    0    0 -0.37568773018E+02 -0.86260102176E+01  0.85281458879E+01  0.39478475536E+02  0.00000000000E+00 0. -1.
</event>
<event>
 7    1  0.7579108E-012  0.5930195E+02  0.7816164E-02  0.1266605E+00
        -11   -1    0    0    0    0  0.00000000000E+00  0.00000000000E+00  0.45593999997E+02  0.45594000000E+02  0.51100000000E-03 0. -1.
         11   -1    0    0    0    0 -0.00000000000E+00 -0.00000000000E+00 -0.45593999997E+02  0.45594000000E+02  0.51100000000E-03 0.  1.
    9900012    2    1    2    0    0  0.64987518369E+01 -0.31031920261E+02 -0.33921031954E+01  0.59301949530E+02  0.50000010034E+02 0.  0.
         12    1    1    2    0    0 -0.64987518369E+01  0.31031920261E+02  0.33921031954E+01  0.31886050470E+02  0.00000000000E+00 0. -1.
         11    1    3    3    0    0  0.97656100014E+01 -0.92078393817E+01 -0.15776289669E+02  0.20713347406E+02  0.51100000000E-03 0. -1.
        -11    1    3    3    0    0 -0.14582573778E+02 -0.50230985218E+01  0.12502644739E+01  0.15474047249E+02  0.51100000000E-03 0.  1.
         12    1    3    3    0    0  0.11315715613E+02 -0.16800982357E+02  0.11133921999E+02  0.23114554875E+02  0.00000000000E+00 0. -1.
</event>
<event>
 7    1  0.7579108E-012  0.5930191E+02  0.7816164E-02  0.1266605E+00
        -11   -1    0    0    0    0  0.00000000000E+00  0.00000000000E+00  0.45593999997E+02  0.45594000000E+02  0.51100000000E-03 0.  1.
         11   -1    0    0    0    0 -0.00000000000E+00 -0.00000000000E+00 -0.45593999997E+02  0.45594000000E+02  0.51100000000E-03 0. -1.
    9900012    2    1    2    0    0  0.67238095129E+01  0.28197623648E+02  0.13281846041E+02  0.59301905413E+02  0.49999929576E+02 0.  0.
         12    1    1    2    0    0 -0.67238095129E+01 -0.28197623648E+02 -0.13281846041E+02  0.31886094587E+02  0.00000000000E+00 0. -1.
         11    1    3    3    0    0  0.96018889526E+01  0.29355630529E+01 -0.30163694982E+01  0.10483906100E+02  0.51100000000E-03 0. -1.
        -11    1    3    3    0    0  0.47884966064E+01  0.21931391651E+02  0.27080699440E+02  0.35174990006E+02  0.51100000000E-03 0.  1.
        -12    1    3    3    0    0 -0.76665760462E+01  0.33306689443E+01 -0.10782483901E+02  0.13643009307E+02  0.00000000000E+00 0.  1.
</event>
<event>
 7    1  0.7579108E-012  0.5930193E+02  0.7816164E-02  0.1266605E+00
        -11   -1    0    0    0    0  0.00000000000E+00  0.00000000000E+00  0.45593999997E+02  0.45594000000E+02  0.51100000000E-03 0. -1.
         11   -1    0    0    0    0 -0.00000000000E+00 -0.00000000000E+00 -0.45593999997E+02  0.45594000000E+02  0.51100000000E-03 0.  1.
    9900012    2    1    2    0    0  0.61615895526E+01  0.68285596992E+01 -0.30530755714E+02  0.59301930035E+02  0.49999974480E+02 0.  0.
         12    1    1    2    0    0 -0.61615895526E+01 -0.68285596992E+01  0.30530755714E+02  0.31886069965E+02  0.00000000000E+00 0. -1.
         11    1    3    3    0    0  0.35477593759E+01  0.19264735191E+02 -0.31362788128E+02  0.36977575610E+02  0.51100000000E-03 0. -1.
        -11    1    3    3    0    0 -0.71196946075E+01 -0.26539204608E+01 -0.27273864230E+01  0.80729165781E+01  0.51100000000E-03 0.  1.
         12    1    3    3    0    0  0.97335247842E+01 -0.97822550315E+01  0.35594188375E+01  0.14251437846E+02  0.00000000000E+00 0. -1.
</event>
<event>
 7    1  0.7579108E-012  0.5930197E+02  0.7816164E-02  0.1266605E+00
        -11   -1    0    0    0    0  0.00000000000E+00  0.00000000000E+00  0.45593999997E+02  0.45594000000E+02  0.51100000000E-03 0.  1.
         11   -1    0    0    0    0 -0.00000000000E+00 -0.00000000000E+00 -0.45593999997E+02  0.45594000000E+02  0.51100000000E-03 0. -1.
    9900012    2    1    2    0    0  0.98525602988E+01  0.28468754426E+02  0.10448743003E+02  0.59301966171E+02  0.50000040384E+02 0.  0.
         12    1    1    2    0    0 -0.98525602988E+01 -0.28468754426E+02 -0.10448743003E+02  0.31886033829E+02  0.00000000000E+00 0. -1.
         11    1    3    3    0    0 -0.18384508294E+02  0.94856429453E+01 -0.36890510805E+01  0.21013725644E+02  0.51100000000E-03 0. -1.
        -11    1    3    3    0    0  0.17575861787E+02  0.16623850991E+02  0.12551699209E+02  0.27254513252E+02  0.51100000000E-03 0.  1.
         12    1    3    3    0    0  0.10661206806E+02  0.23592604897E+01  0.15860948750E+01  0.11033727275E+02  0.00000000000E+00 0. -1.
</event>
<event>
 7    1  0.7579108E-012  0.5930194E+02  0.7816164E-02  0.1266605E+00
        -11   -1    0    0    0    0  0.00000000000E+00  0.00000000000E+00  0.45593999997E+02  0.45594000000E+02  0.51100000000E-03 0.  1.
         11   -1    0    0    0    0 -0.00000000000E+00 -0.00000000000E+00 -0.45593999997E+02  0.45594000000E+02  0.51100000000E-03 0. -1.
    9900012    2    1    2    0    0 -0.18073687254E+02  0.12587207329E+02  0.23056992559E+02  0.59301939328E+02  0.49999991430E+02 0.  0.
         12    1    1    2    0    0  0.18073687254E+02 -0.12587207329E+02 -0.23056992559E+02  0.31886060672E+02  0.00000000000E+00 0. -1.
         11    1    3    3    0    0  0.61597848062E+01 -0.46809526094E+00  0.23620824936E+02  0.24415270487E+02  0.51100000000E-03 0.  1.
        -11    1    3    3    0    0 -0.22096479145E+02  0.17511563404E+02 -0.45224694952E+01  0.28554543843E+02  0.51100000000E-03 0. -1.
         12    1    3    3    0    0 -0.21369929153E+01 -0.44562608147E+01  0.39586371182E+01  0.63321249989E+01  0.00000000000E+00 0. -1.
</event>
<event>
 7    1  0.7579108E-012  0.5930193E+02  0.7816164E-02  0.1266605E+00
        -11   -1    0    0    0    0  0.00000000000E+00  0.00000000000E+00  0.45593999997E+02  0.45594000000E+02  0.51100000000E-03 0.  1.
         11   -1    0    0    0    0 -0.00000000000E+00 -0.00000000000E+00 -0.45593999997E+02  0.45594000000E+02  0.51100000000E-03 0. -1.
    9900012    2    1    2    0    0  0.50887299884E+01 -0.31473808109E+02  0.47491673282E+00  0.59301932264E+02  0.49999978545E+02 0.  0.
         12    1    1    2    0    0 -0.50887299884E+01  0.31473808109E+02 -0.47491673282E+00  0.31886067736E+02  0.00000000000E+00 0. -1.
         11    1    3    3    0    0 -0.20676924539E+02 -0.88633865494E+01  0.64415856637E+00  0.22505771927E+02  0.51100000000E-03 0. -1.
        -11    1    3    3    0    0  0.17733423378E+02 -0.20558716891E+02  0.41217893004E+01  0.27461323570E+02  0.51100000000E-03 0.  1.
        -12    1    3    3    0    0  0.80322311490E+01 -0.20517046690E+01 -0.42910311340E+01  0.93348367673E+01  0.00000000000E+00 0.  1.
</event>
<event>
 7    1  0.7579108E-012  0.5930195E+02  0.7816164E-02  0.1266605E+00
        -11   -1    0    0    0    0  0.00000000000E+00  0.00000000000E+00  0.45593999997E+02  0.45594000000E+02  0.51100000000E-03 0.  1.
         11   -1    0    0    0    0 -0.00000000000E+00 -0.00000000000E+00 -0.45593999997E+02  0.45594000000E+02  0.51100000000E-03 0. -1.
    9900012    2    1    2    0    0 -0.90877879938E+01 -0.15964134879E+02  0.26062980065E+02  0.59301946263E+02  0.50000004077E+02 0.  0.
         12    1    1    2    0    0  0.90877879938E+01  0.15964134879E+02 -0.26062980065E+02  0.31886053737E+02  0.00000000000E+00 0. -1.
         11    1    3    3    0    0 -0.10203585043E+02  0.97643776331E+00 -0.87631800734E+01  0.13485544249E+02  0.51100000000E-03 0. -1.
        -11    1    3    3    0    0 -0.57826459198E+01  0.31238884895E+01  0.16570638970E+02  0.17826490099E+02  0.51100000000E-03 0.  1.
         12    1    3    3    0    0  0.68984429690E+01 -0.20064461131E+02  0.18255521168E+02  0.27989911915E+02  0.00000000000E+00 0. -1.
</event>
<event>
 7    1  0.7579108E-012  0.5930195E+02  0.7816164E-02  0.1266605E+00
        -11   -1    0    0    0    0  0.00000000000E+00  0.00000000000E+00  0.45593999997E+02  0.45594000000E+02  0.51100000000E-03 0.  1.
         11   -1    0    0    0    0 -0.00000000000E+00 -0.00000000000E+00 -0.45593999997E+02  0.45594000000E+02  0.51100000000E-03 0. -1.
    9900012    2    1    2    0    0  0.98877955545E+01  0.13591966163E+02  0.27096316155E+02  0.59301946712E+02  0.50000004896E+02 0.  0.
         12    1    1    2    0    0 -0.98877955545E+01 -0.13591966163E+02 -0.27096316155E+02  0.31886053288E+02  0.00000000000E+00 0. -1.
         11    1    3    3    0    0 -0.64955186464E+01  0.20349582364E+02  0.99489688720E+01  0.23564363916E+02  0.51100000000E-03 0. -1.
        -11    1    3    3    0    0  0.58597351925E+01 -0.58379477310E+00  0.21874247686E+02  0.22653035667E+02  0.51100000000E-03 0.  1.
         12    1    3    3    0    0  0.10523579008E+02 -0.61738214278E+01 -0.47269004030E+01  0.13084547130E+02  0.00000000000E+00 0. -1.
</event>
<event>
 7    1  0.7579108E-012  0.5930192E+02  0.7816164E-02  0.1266605E+00
        -11   -1    0    0    0    0  0.00000000000E+00  0.00000000000E+00  0.45593999997E+02  0.45594000000E+02  0.51100000000E-03 0.  1.
         11   -1    0    0    0    0 -0.00000000000E+00 -0.00000000000E+00 -0.45593999997E+02  0.45594000000E+02  0.51100000000E-03 0. -1.
    9900012    2    1    2    0    0  0.30221724261E+02 -0.32225566702E+01  0.96428472157E+01  0.59301921670E+02  0.49999959225E+02 0.  0.
         12    1    1    2    0    0 -0.30221724261E+02  0.32225566702E+01 -0.96428472157E+01  0.31886078330E+02  0.00000000000E+00 0. -1.
         11    1    3    3    0    0 -0.18473667183E+01 -0.20904379265E+02  0.38159909915E+01  0.21329970083E+02  0.51100000000E-03 0. -1.
        -11    1    3    3    0    0  0.18174050422E+02  0.11828323593E+02  0.71593480987E+01  0.22835534003E+02  0.51100000000E-03 0.  1.
         12    1    3    3    0    0  0.13895040558E+02  0.58534990020E+01 -0.13324918745E+01  0.15136417584E+02  0.00000000000E+00 0. -1.
</event>
<event>
 7    1  0.7579108E-012  0.5930198E+02  0.7816164E-02  0.1266605E+00
        -11   -1    0    0    0    0  0.00000000000E+00  0.00000000000E+00  0.45593999997E+02  0.45594000000E+02  0.51100000000E-03 0. -1.
         11   -1    0    0    0    0 -0.00000000000E+00 -0.00000000000E+00 -0.45593999997E+02  0.45594000000E+02  0.51100000000E-03 0.  1.
    9900012    2    1    2    0    0 -0.22184130732E+02 -0.20905415190E+02  0.93566184269E+01  0.59301978784E+02  0.50000063387E+02 0.  0.
         12    1    1    2    0    0  0.22184130732E+02  0.20905415190E+02 -0.93566184269E+01  0.31886021216E+02  0.00000000000E+00 0. -1.
         11    1    3    3    0    0 -0.15526171312E+02 -0.10149839149E+02  0.26203125798E+02  0.32104283705E+02  0.51100000000E-03 0. -1.
        -11    1    3    3    0    0 -0.19987897607E+01  0.41817645092E+01 -0.79386783786E+01  0.91926562852E+01  0.51100000000E-03 0.  1.
         12    1    3    3    0    0 -0.46591696592E+01 -0.14937340550E+02 -0.89078289923E+01  0.18005038794E+02  0.00000000000E+00 0. -1.
</event>
<event>
 7    1  0.7579108E-012  0.5930195E+02  0.7816164E-02  0.1266605E+00
        -11   -1    0    0    0    0  0.00000000000E+00  0.00000000000E+00  0.45593999997E+02  0.45594000000E+02  0.51100000000E-03 0.  1.
         11   -1    0    0    0    0 -0.00000000000E+00 -0.00000000000E+00 -0.45593999997E+02  0.45594000000E+02  0.51100000000E-03 0. -1.
    9900012    2    1    2    0    0  0.30696331591E+02  0.26659621943E+01  0.82065745251E+01  0.59301953004E+02  0.50000016371E+02 0.  0.
         12    1    1    2    0    0 -0.30696331591E+02 -0.26659621943E+01 -0.82065745251E+01  0.31886046996E+02  0.00000000000E+00 0. -1.
         11    1    3    3    0    0  0.16687984608E+02 -0.10609565680E+01  0.16054343969E+02  0.23180949498E+02  0.51100000000E-03 0.  1.
        -11    1    3    3    0    0  0.35739776605E+01 -0.34387168120E+01 -0.18762611323E+02  0.19407052160E+02  0.51100000000E-03 0. -1.
         12    1    3    3    0    0  0.10434369323E+02  0.71656355742E+01  0.10914841879E+02  0.16713951346E+02  0.00000000000E+00 0. -1.
</event>
<event>
 7    1  0.7579108E-012  0.5930193E+02  0.7816164E-02  0.1266605E+00
        -11   -1    0    0    0    0  0.00000000000E+00  0.00000000000E+00  0.45593999997E+02  0.45594000000E+02  0.51100000000E-03 0.  1.
         11   -1    0    0    0    0 -0.00000000000E+00 -0.00000000000E+00 -0.45593999997E+02  0.45594000000E+02  0.51100000000E-03 0. -1.
    9900012    2    1    2    0    0 -0.34957827332E+00  0.25872069093E+02  0.18634243727E+02  0.59301934025E+02  0.49999981757E+02 0.  0.
         12    1    1    2    0    0  0.34957827332E+00 -0.25872069093E+02 -0.18634243727E+02  0.31886065975E+02  0.00000000000E+00 0. -1.
         11    1    3    3    0    0 -0.98231673101E+01  0.10837340739E+01  0.26404711140E+02  0.28193578457E+02  0.51100000000E-03 0.  1.
        -11    1    3    3    0    0  0.10867727866E+02  0.16374680180E+02 -0.10332358797E+02  0.22203497439E+02  0.51100000000E-03 0. -1.
         12    1    3    3    0    0 -0.13941388295E+01  0.84136548392E+01  0.25618913833E+01  0.89048581285E+01  0.00000000000E+00 0. -1.
</event>
<event>
 7    1  0.7579108E-012  0.5930193E+02  0.7816164E-02  0.1266605E+00
        -11   -1    0    0    0    0  0.00000000000E+00  0.00000000000E+00  0.45593999997E+02  0.45594000000E+02  0.51100000000E-03 0.  1.
         11   -1    0    0    0    0 -0.00000000000E+00 -0.00000000000E+00 -0.45593999997E+02  0.45594000000E+02  0.51100000000E-03 0. -1.
    9900012    2    1    2    0    0 -0.21100577041E+02  0.16339198123E+02 -0.17450428358E+02  0.59301934131E+02  0.49999981950E+02 0.  0.
         12    1    1    2    0    0  0.21100577041E+02 -0.16339198123E+02  0.17450428358E+02  0.31886065869E+02  0.00000000000E+00 0. -1.
         11    1    3    3    0    0 -0.27238207840E+02 -0.18870870381E+01 -0.72353422311E+01  0.28245906629E+02  0.51100000000E-03 0. -1.
        -11    1    3    3    0    0  0.10974704746E+02  0.17006349880E+02 -0.62925546280E+00  0.20249840572E+02  0.51100000000E-03 0.  1.
         12    1    3    3    0    0 -0.48370739464E+01  0.12199352811E+01 -0.95858306641E+01  0.10806186930E+02  0.00000000000E+00 0. -1.
</event>
<event>
 7    1  0.7579108E-012  0.5930195E+02  0.7816164E-02  0.1266605E+00
        -11   -1    0    0    0    0  0.00000000000E+00  0.00000000000E+00  0.45593999997E+02  0.45594000000E+02  0.51100000000E-03 0.  1.
         11   -1    0    0    0    0 -0.00000000000E+00 -0.00000000000E+00 -0.45593999997E+02  0.45594000000E+02  0.51100000000E-03 0. -1.
    9900012    2    1    2    0    0 -0.49182579581E+00  0.90569769586E+01  0.30568771127E+02  0.59301945173E+02  0.50000002088E+02 0.  0.
         12    1    1    2    0    0  0.49182579581E+00 -0.90569769586E+01 -0.30568771127E+02  0.31886054827E+02  0.00000000000E+00 0. -1.
         11    1    3    3    0    0 -0.63981942550E+01 -0.41811109432E+01 -0.67142575442E+01  0.10173486771E+02  0.51100000000E-03 0. -1.
        -11    1    3    3    0    0  0.81258684941E+01  0.12033680222E+02  0.41636413026E+02  0.44095692402E+02  0.51100000000E-03 0.  1.
        -12    1    3    3    0    0 -0.22195000349E+01  0.12044076795E+01 -0.43533843551E+01  0.50327659996E+01  0.00000000000E+00 0.  1.
</event>
<event>
 7    1  0.7579108E-012  0.5930195E+02  0.7816164E-02  0.1266605E+00
        -11   -1    0    0    0    0  0.00000000000E+00  0.00000000000E+00  0.45593999997E+02  0.45594000000E+02  0.51100000000E-03 0. -1.
         11   -1    0    0    0    0 -0.00000000000E+00 -0.00000000000E+00 -0.45593999997E+02  0.45594000000E+02  0.51100000000E-03 0.  1.
    9900012    2    1    2    0    0 -0.51743975592E+01 -0.28811935958E+02 -0.12641925040E+02  0.59301947995E+02  0.50000007235E+02 0.  0.
         12    1    1    2    0    0  0.51743975592E+01  0.28811935958E+02  0.12641925040E+02  0.31886052005E+02  0.00000000000E+00 0. -1.
         11    1    3    3    0    0  0.42938998734E+01 -0.33881886213E+02 -0.60473614869E+01  0.34684151578E+02  0.51100000000E-03 0. -1.
        -11    1    3    3    0    0 -0.81719717512E+01 -0.48190048459E+01 -0.10276712446E+02  0.13986234267E+02  0.51100000000E-03 0.  1.
         12    1    3    3    0    0 -0.12963256814E+01  0.98889551011E+01  0.36821488931E+01  0.10631562149E+02  0.00000000000E+00 0. -1.
</event>
<event>
 7    1  0.7579108E-012  0.5930195E+02  0.7816164E-02  0.1266605E+00
        -11   -1    0    0    0    0  0.00000000000E+00  0.00000000000E+00  0.45593999997E+02  0.45594000000E+02  0.51100000000E-03 0.  1.
         11   -1    0    0    0    0 -0.00000000000E+00 -0.00000000000E+00 -0.45593999997E+02  0.45594000000E+02  0.51100000000E-03 0. -1.
    9900012    2    1    2    0    0 -0.18707397414E+02 -0.23984160404E+02  0.95662686315E+01  0.59301950325E+02  0.50000011485E+02 0.  0.
         12    1    1    2    0    0  0.18707397414E+02  0.23984160404E+02 -0.95662686315E+01  0.31886049675E+02  0.00000000000E+00 0. -1.
         11    1    3    3    0    0 -0.80062327151E+01 -0.14683954905E+02 -0.80426286636E+01  0.18558075601E+02  0.51100000000E-03 0. -1.
        -11    1    3    3    0    0 -0.12929445695E+02 -0.11127760636E+02  0.26433882537E+02  0.31460256976E+02  0.51100000000E-03 0.  1.
        -12    1    3    3    0    0  0.22282809957E+01  0.18275551369E+01 -0.88249852418E+01  0.92836177481E+01  0.00000000000E+00 0.  1.
</event>
<event>
 7    1  0.7579108E-012  0.5930192E+02  0.7816164E-02  0.1266605E+00
        -11   -1    0    0    0    0  0.00000000000E+00  0.00000000000E+00  0.45593999997E+02  0.45594000000E+02  0.51100000000E-03 0.  1.
         11   -1    0    0    0    0 -0.00000000000E+00 -0.00000000000E+00 -0.45593999997E+02  0.45594000000E+02  0.51100000000E-03 0. -1.
    9900012    2    1    2    0    0  0.25754527894E+02  0.18626800027E+02 -0.25433649971E+01  0.59301920094E+02  0.49999956350E+02 0.  0.
         12    1    1    2    0    0 -0.25754527894E+02 -0.18626800027E+02  0.25433649971E+01  0.31886079906E+02  0.00000000000E+00 0. -1.
         11    1    3    3    0    0  0.12432619389E+01  0.66660832866E+01  0.57634547679E+01  0.88994256981E+01  0.51100000000E-03 0. -1.
        -11    1    3    3    0    0 -0.56020336171E-01  0.10980287344E+02 -0.20275026963E+02  0.23057462286E+02  0.51100000000E-03 0.  1.
        -12    1    3    3    0    0  0.24567286291E+02  0.98042939624E+00  0.11968207198E+02  0.27345032109E+02  0.00000000000E+00 0.  1.
</event>
<event>
 7    1  0.7579108E-012  0.5930199E+02  0.7816164E-02  0.1266605E+00
        -11   -1    0    0    0    0  0.00000000000E+00  0.00000000000E+00  0.45593999997E+02  0.45594000000E+02  0.51100000000E-03 0. -1.
         11   -1    0    0    0    0 -0.00000000000E+00 -0.00000000000E+00 -0.45593999997E+02  0.45594000000E+02  0.51100000000E-03 0.  1.
    9900012    2    1    2    0    0  0.25458333026E+02 -0.15049211714E+02 -0.11921082009E+02  0.59301989118E+02  0.50000082234E+02 0.  0.
         12    1    1    2    0    0 -0.25458333026E+02  0.15049211714E+02  0.11921082009E+02  0.31886010882E+02  0.00000000000E+00 0. -1.
         11    1    3    3    0    0 -0.34816308698E+01 -0.83090565197E+01 -0.17416988487E+02  0.19609019914E+02  0.51100000000E-03 0. -1.
        -11    1    3    3    0    0  0.31905732339E+02 -0.31566927282E+01 -0.54815512073E+00  0.32066196210E+02  0.51100000000E-03 0.  1.
        -12    1    3    3    0    0 -0.29657684427E+01 -0.35834624661E+01  0.60440615989E+01  0.76267729947E+01  0.00000000000E+00 0.  1.
</event>
<event>
 7    1  0.7579108E-012  0.5930196E+02  0.7816164E-02  0.1266605E+00
        -11   -1    0    0    0    0  0.00000000000E+00  0.00000000000E+00  0.45593999997E+02  0.45594000000E+02  0.51100000000E-03 0.  1.
         11   -1    0    0    0    0 -0.00000000000E+00 -0.00000000000E+00 -0.45593999997E+02  0.45594000000E+02  0.51100000000E-03 0. -1.
    9900012    2    1    2    0    0  0.10621633231E+02  0.69514662351E+01  0.29250262247E+02  0.59301955767E+02  0.50000021410E+02 0.  0.
         12    1    1    2    0    0 -0.10621633231E+02 -0.69514662351E+01 -0.29250262247E+02  0.31886044233E+02  0.00000000000E+00 0. -1.
         11    1    3    3    0    0 -0.98869556725E+01 -0.23319756148E+01 -0.53630382684E+01  0.11487044114E+02  0.51100000000E-03 0. -1.
        -11    1    3    3    0    0  0.83746099865E+01  0.12475742888E+02  0.31480757805E+02  0.34882895024E+02  0.51100000000E-03 0.  1.
         12    1    3    3    0    0  0.12133978917E+02 -0.31923010381E+01  0.31325427104E+01  0.12932016629E+02  0.00000000000E+00 0. -1.
</event>
<event>
 7    1  0.7579108E-012  0.5930196E+02  0.7816164E-02  0.1266605E+00
        -11   -1    0    0    0    0  0.00000000000E+00  0.00000000000E+00  0.45593999997E+02  0.45594000000E+02  0.51100000000E-03 0. -1.
         11   -1    0    0    0    0 -0.00000000000E+00 -0.00000000000E+00 -0.45593999997E+02  0.45594000000E+02  0.51100000000E-03 0.  1.
    9900012    2    1    2    0    0 -0.25626570242E+02 -0.10133909378E+02  0.16040647735E+02  0.59301959145E+02  0.50000027570E+02 0.  0.
         12    1    1    2    0    0  0.25626570242E+02  0.10133909378E+02 -0.16040647735E+02  0.31886040855E+02  0.00000000000E+00 0. -1.
         11    1    3    3    0    0 -0.11563946307E+02  0.17836272014E+02  0.14830305247E+02  0.25919016331E+02  0.51100000000E-03 0. -1.
        -11    1    3    3    0    0  0.17766326831E+01 -0.49028159220E+01 -0.10152486654E+01  0.53126977863E+01  0.51100000000E-03 0.  1.
         12    1    3    3    0    0 -0.15839256618E+02 -0.23067365470E+02  0.22255911531E+01  0.28070245028E+02  0.00000000000E+00 0. -1.
</event>
<event>
 7    1  0.7579108E-012  0.5930192E+02  0.7816164E-02  0.1266605E+00
        -11   -1    0    0    0    0  0.00000000000E+00  0.00000000000E+00  0.45593999997E+02  0.45594000000E+02  0.51100000000E-03 0.  1.
         11   -1    0    0    0    0 -0.00000000000E+00 -0.00000000000E+00 -0.45593999997E+02  0.45594000000E+02  0.51100000000E-03 0. -1.
    9900012    2    1    2    0    0  0.27131242103E+02 -0.93082166547E+01  0.13927476803E+02  0.59301924584E+02  0.49999964539E+02 0.  0.
         12    1    1    2    0    0 -0.27131242103E+02  0.93082166547E+01 -0.13927476803E+02  0.31886075416E+02  0.00000000000E+00 0. -1.
         11    1    3    3    0    0 -0.14450180696E+01  0.90227693808E+01 -0.19413686014E+00  0.91398103865E+01  0.51100000000E-03 0. -1.
        -11    1    3    3    0    0  0.30676748170E+02 -0.25694232379E+02  0.14324812150E+02  0.42502431686E+02  0.51100000000E-03 0.  1.
        -12    1    3    3    0    0 -0.21004879976E+01  0.73632463438E+01 -0.20319848616E+00  0.76596825112E+01  0.00000000000E+00 0.  1.
</event>
<event>
 7    1  0.7579108E-012  0.5930195E+02  0.7816164E-02  0.1266605E+00
        -11   -1    0    0    0    0  0.00000000000E+00  0.00000000000E+00  0.45593999997E+02  0.45594000000E+02  0.51100000000E-03 0. -1.
         11   -1    0    0    0    0 -0.00000000000E+00 -0.00000000000E+00 -0.45593999997E+02  0.45594000000E+02  0.51100000000E-03 0.  1.
    9900012    2    1    2    0    0  0.86895213915E+01  0.20897844088E+02 -0.22460913879E+02  0.59301947848E+02  0.50000006968E+02 0.  0.
         12    1    1    2    0    0 -0.86895213915E+01 -0.20897844088E+02  0.22460913879E+02  0.31886052152E+02  0.00000000000E+00 0. -1.
         11    1    3    3    0    0  0.25400535282E+01  0.91127052194E+01 -0.29555816073E+02  0.31032878248E+02  0.51100000000E-03 0. -1.
        -11    1    3    3    0    0  0.14124945673E+02  0.68245360173E+01  0.97978162483E+01  0.18495555834E+02  0.51100000000E-03 0.  1.
         12    1    3    3    0    0 -0.79754778101E+01  0.49606028514E+01 -0.27029140538E+01  0.97735137659E+01  0.00000000000E+00 0. -1.
</event>
<event>
 7    1  0.7579108E-012  0.5930185E+02  0.7816164E-02  0.1266605E+00
        -11   -1    0    0    0    0  0.00000000000E+00  0.00000000000E+00  0.45593999997E+02  0.45594000000E+02  0.51100000000E-03 0.  1.
         11   -1    0    0    0    0 -0.00000000000E+00 -0.00000000000E+00 -0.45593999997E+02  0.45594000000E+02  0.51100000000E-03 0. -1.
    9900012    2    1    2    0    0 -0.11143061280E+02 -0.15198168245E+00  0.29875337247E+02  0.59301848009E+02  0.49999824885E+02 0.  0.
         12    1    1    2    0    0  0.11143061280E+02  0.15198168245E+00 -0.29875337247E+02  0.31886151991E+02  0.00000000000E+00 0. -1.
         11    1    3    3    0    0 -0.15053502088E+02  0.92352118617E+01  0.25560568760E+02  0.31068307628E+02  0.51100000000E-03 0.  1.
        -11    1    3    3    0    0  0.14356841078E+02 -0.17987021041E+01  0.49868492625E+01  0.15304341895E+02  0.51100000000E-03 0. -1.
         12    1    3    3    0    0 -0.10446400270E+02 -0.75884914400E+01 -0.67208077542E+00  0.12929198487E+02  0.00000000000E+00 0. -1.
</event>
<event>
 7    1  0.7579108E-012  0.5930193E+02  0.7816164E-02  0.1266605E+00
        -11   -1    0    0    0    0  0.00000000000E+00  0.00000000000E+00  0.45593999997E+02  0.45594000000E+02  0.51100000000E-03 0. -1.
         11   -1    0    0    0    0 -0.00000000000E+00 -0.00000000000E+00 -0.45593999997E+02  0.45594000000E+02  0.51100000000E-03 0.  1.
    9900012    2    1    2    0    0  0.21042816036E+01 -0.28154519747E+02 -0.14819452430E+02  0.59301934805E+02  0.49999983181E+02 0.  0.
         12    1    1    2    0    0 -0.21042816036E+01  0.28154519747E+02  0.14819452430E+02  0.31886065195E+02  0.00000000000E+00 0. -1.
         11    1    3    3    0    0 -0.11633172612E+02 -0.22615186514E+01  0.14500735233E+01  0.11939341905E+02  0.51100000000E-03 0. -1.
        -11    1    3    3    0    0  0.19171545909E+02 -0.13808328256E+01 -0.90010947736E+01  0.21224386427E+02  0.51100000000E-03 0.  1.
        -12    1    3    3    0    0 -0.54340916928E+01 -0.24512168270E+02 -0.72684311799E+01  0.26138206473E+02  0.00000000000E+00 0.  1.
</event>
<event>
 7    1  0.7579108E-012  0.5930195E+02  0.7816164E-02  0.1266605E+00
        -11   -1    0    0    0    0  0.00000000000E+00  0.00000000000E+00  0.45593999997E+02  0.45594000000E+02  0.51100000000E-03 0. -1.
         11   -1    0    0    0    0 -0.00000000000E+00 -0.00000000000E+00 -0.45593999997E+02  0.45594000000E+02  0.51100000000E-03 0.  1.
    9900012    2    1    2    0    0  0.10741773434E+02  0.27168273548E+02 -0.12775732623E+02  0.59301950885E+02  0.50000012505E+02 0.  0.
         12    1    1    2    0    0 -0.10741773434E+02 -0.27168273548E+02  0.12775732623E+02  0.31886049115E+02  0.00000000000E+00 0. -1.
         11    1    3    3    0    0  0.94968686033E+01 -0.11507866822E+02 -0.43128506336E+01  0.15531329399E+02  0.51100000000E-03 0. -1.
        -11    1    3    3    0    0 -0.86377051358E+00  0.10983930155E+02 -0.11386955508E+02  0.15844733420E+02  0.51100000000E-03 0.  1.
         12    1    3    3    0    0  0.21086753447E+01  0.27692210215E+02  0.29240735181E+01  0.27925888065E+02  0.00000000000E+00 0. -1.
</event>
<event>
 7    1  0.7579108E-012  0.5930214E+02  0.7816164E-02  0.1266604E+00
        -11   -1    0    0    0    0  0.00000000000E+00  0.00000000000E+00  0.45593999997E+02  0.45594000000E+02  0.51100000000E-03 0. -1.
         11   -1    0    0    0    0 -0.00000000000E+00 -0.00000000000E+00 -0.45593999997E+02  0.45594000000E+02  0.51100000000E-03 0.  1.
    9900012    2    1    2    0    0  0.71509788638E+01 -0.45898412046E+01 -0.30732800630E+02  0.59302138312E+02  0.50000354327E+02 0.  0.
         12    1    1    2    0    0 -0.71509788638E+01  0.45898412046E+01  0.30732800630E+02  0.31885861688E+02  0.00000000000E+00 0. -1.
         11    1    3    3    0    0 -0.43693831052E+01 -0.24296804137E+01  0.57901139684E+01  0.76498546170E+01  0.51100000000E-03 0. -1.
        -11    1    3    3    0    0 -0.57051055471E+01  0.12314109438E+02 -0.17787587581E+02  0.22373729970E+02  0.51100000000E-03 0.  1.
        -12    1    3    3    0    0  0.17225467516E+02 -0.14474270229E+02 -0.18735327017E+02  0.29278553725E+02  0.00000000000E+00 0.  1.
</event>
<event>
 7    1  0.7579108E-012  0.5930189E+02  0.7816164E-02  0.1266605E+00
        -11   -1    0    0    0    0  0.00000000000E+00  0.00000000000E+00  0.45593999997E+02  0.45594000000E+02  0.51100000000E-03 0.  1.
         11   -1    0    0    0    0 -0.00000000000E+00 -0.00000000000E+00 -0.45593999997E+02  0.45594000000E+02  0.51100000000E-03 0. -1.
    9900012    2    1    2    0    0 -0.76584304365E+01 -0.30415786107E+02  0.57404029852E+01  0.59301892874E+02  0.49999906707E+02 0.  0.
         12    1    1    2    0    0  0.76584304365E+01  0.30415786107E+02 -0.57404029852E+01  0.31886107126E+02  0.00000000000E+00 0. -1.
         11    1    3    3    0    0 -0.59644169704E+01  0.22731255707E+01 -0.59347499875E+01  0.87156541540E+01  0.51100000000E-03 0. -1.
        -11    1    3    3    0    0  0.32895806797E+01 -0.34054310867E+02 -0.36560933818E+01  0.34407621957E+02  0.51100000000E-03 0.  1.
        -12    1    3    3    0    0 -0.49835941458E+01  0.13653991895E+01  0.15331246355E+02  0.16178616762E+02  0.00000000000E+00 0.  1.
</event>
<event>
 7    1  0.7579108E-012  0.5930195E+02  0.7816164E-02  0.1266605E+00
        -11   -1    0    0    0    0  0.00000000000E+00  0.00000000000E+00  0.45593999997E+02  0.45594000000E+02  0.51100000000E-03 0. -1.
         11   -1    0    0    0    0 -0.00000000000E+00 -0.00000000000E+00 -0.45593999997E+02  0.45594000000E+02  0.51100000000E-03 0.  1.
    9900012    2    1    2    0    0  0.21674037354E+02 -0.23367512947E+02  0.95675023163E+00  0.59301954030E+02  0.50000018242E+02 0.  0.
         12    1    1    2    0    0 -0.21674037354E+02  0.23367512947E+02 -0.95675023163E+00  0.31886045970E+02  0.00000000000E+00 0. -1.
         11    1    3    3    0    0 -0.17185638874E+01  0.60817361264E+01  0.65461205753E+01  0.90990478070E+01  0.51100000000E-03 0. -1.
        -11    1    3    3    0    0  0.17395762857E+02 -0.36084228095E+02 -0.81938891462E+01  0.40887943238E+02  0.51100000000E-03 0.  1.
        -12    1    3    3    0    0  0.59968383848E+01  0.66349790215E+01  0.26045188025E+01  0.93149629855E+01  0.00000000000E+00 0.  1.
</event>
<event>
 7    1  0.7579108E-012  0.5930193E+02  0.7816164E-02  0.1266605E+00
        -11   -1    0    0    0    0  0.00000000000E+00  0.00000000000E+00  0.45593999997E+02  0.45594000000E+02  0.51100000000E-03 0.  1.
         11   -1    0    0    0    0 -0.00000000000E+00 -0.00000000000E+00 -0.45593999997E+02  0.45594000000E+02  0.51100000000E-03 0. -1.
    9900012    2    1    2    0    0  0.46495727311E+01  0.11345045314E+02  0.29434550084E+02  0.59301932221E+02  0.49999978467E+02 0.  0.
         12    1    1    2    0    0 -0.46495727311E+01 -0.11345045314E+02 -0.29434550084E+02  0.31886067779E+02  0.00000000000E+00 0. -1.
         11    1    3    3    0    0  0.15071649265E+02  0.64683919347E+01 -0.26000104002E+01  0.16605865233E+02  0.51100000000E-03 0.  1.
        -11    1    3    3    0    0 -0.16957479320E+02 -0.24980770079E+01  0.13944223739E+02  0.22096105303E+02  0.51100000000E-03 0. -1.
        -12    1    3    3    0    0  0.65354027866E+01  0.73747303868E+01  0.18090336745E+02  0.20599961685E+02  0.00000000000E+00 0.  1.
</event>
<event>
 7    1  0.7579108E-012  0.5930189E+02  0.7816164E-02  0.1266605E+00
        -11   -1    0    0    0    0  0.00000000000E+00  0.00000000000E+00  0.45593999997E+02  0.45594000000E+02  0.51100000000E-03 0. -1.
         11   -1    0    0    0    0 -0.00000000000E+00 -0.00000000000E+00 -0.45593999997E+02  0.45594000000E+02  0.51100000000E-03 0.  1.
    9900012    2    1    2    0    0 -0.20794013343E+02 -0.22218591245E+02  0.95219205277E+01  0.59301893961E+02  0.49999908690E+02 0.  0.
         12    1    1    2    0    0  0.20794013343E+02  0.22218591245E+02 -0.95219205277E+01  0.31886106039E+02  0.00000000000E+00 0. -1.
         11    1    3    3    0    0 -0.27089839294E+02 -0.27650084096E+02  0.11003439207E+02  0.40242542391E+02  0.51100000000E-03 0. -1.
        -11    1    3    3    0    0 -0.10834522314E+01 -0.11494282824E+01 -0.73793139950E+01  0.75464779475E+01  0.51100000000E-03 0.  1.
         12    1    3    3    0    0  0.73792781824E+01  0.65809211332E+01  0.58977953156E+01  0.11512873622E+02  0.00000000000E+00 0. -1.
</event>
<event>
 7    1  0.7579108E-012  0.5930217E+02  0.7816164E-02  0.1266604E+00
        -11   -1    0    0    0    0  0.00000000000E+00  0.00000000000E+00  0.45593999997E+02  0.45594000000E+02  0.51100000000E-03 0.  1.
         11   -1    0    0    0    0 -0.00000000000E+00 -0.00000000000E+00 -0.45593999997E+02  0.45594000000E+02  0.51100000000E-03 0. -1.
    9900012    2    1    2    0    0 -0.89101363126E+01  0.35760997576E+01  0.30406041336E+02  0.59302166652E+02  0.50000406011E+02 0.  0.
         12    1    1    2    0    0  0.89101363126E+01 -0.35760997576E+01 -0.30406041336E+02  0.31885833348E+02  0.00000000000E+00 0. -1.
         11    1    3    3    0    0 -0.48143003561E+01  0.15097578160E+00 -0.82889276590E+01  0.95867931866E+01  0.51100000000E-03 0. -1.
        -11    1    3    3    0    0  0.69231034719E+01  0.12833857578E+02  0.28451841306E+02  0.31970995230E+02  0.51100000000E-03 0.  1.
        -12    1    3    3    0    0 -0.11018939428E+02 -0.94087336015E+01  0.10243127689E+02  0.17744378235E+02  0.00000000000E+00 0.  1.
</event>
<event>
 7    1  0.7579108E-012  0.5930195E+02  0.7816164E-02  0.1266605E+00
        -11   -1    0    0    0    0  0.00000000000E+00  0.00000000000E+00  0.45593999997E+02  0.45594000000E+02  0.51100000000E-03 0. -1.
         11   -1    0    0    0    0 -0.00000000000E+00 -0.00000000000E+00 -0.45593999997E+02  0.45594000000E+02  0.51100000000E-03 0.  1.
    9900012    2    1    2    0    0 -0.53753998858E+01  0.13975907855E+02 -0.28151368061E+02  0.59301945869E+02  0.50000003358E+02 0.  0.
         12    1    1    2    0    0  0.53753998858E+01 -0.13975907855E+02  0.28151368061E+02  0.31886054131E+02  0.00000000000E+00 0. -1.
         11    1    3    3    0    0  0.18913177839E+02  0.16562899152E+02 -0.16810743441E+02  0.30242999513E+02  0.51100000000E-03 0. -1.
        -11    1    3    3    0    0 -0.98739974909E+01 -0.45838006301E+00 -0.10564030972E+02  0.14467366359E+02  0.51100000000E-03 0.  1.
         12    1    3    3    0    0 -0.14414580234E+02 -0.21286112337E+01 -0.77659364866E+00  0.14591579996E+02  0.00000000000E+00 0. -1.
</event>
<event>
 7    1  0.7579108E-012  0.5930192E+02  0.7816164E-02  0.1266605E+00
        -11   -1    0    0    0    0  0.00000000000E+00  0.00000000000E+00  0.45593999997E+02  0.45594000000E+02  0.51100000000E-03 0. -1.
         11   -1    0    0    0    0 -0.00000000000E+00 -0.00000000000E+00 -0.45593999997E+02  0.45594000000E+02  0.51100000000E-03 0.  1.
    9900012    2    1    2    0    0  0.20853367644E+02  0.21860381072E+02 -0.10197196042E+02  0.59301921379E+02  0.49999958694E+02 0.  0.
         12    1    1    2    0    0 -0.20853367644E+02 -0.21860381072E+02  0.10197196042E+02  0.31886078621E+02  0.00000000000E+00 0. -1.
         11    1    3    3    0    0 -0.56216315069E+01  0.17005119339E+01  0.58775860518E+01  0.83090613004E+01  0.51100000000E-03 0. -1.
        -11    1    3    3    0    0  0.31155171333E+02  0.10465289902E+02 -0.21158479152E+02  0.39087699265E+02  0.51100000000E-03 0.  1.
        -12    1    3    3    0    0 -0.46801721824E+01  0.96945792363E+01  0.50836970583E+01  0.11905160814E+02  0.00000000000E+00 0.  1.
</event>
<event>
 7    1  0.8886679E-012  0.5930191E+02  0.7816164E-02  0.1266605E+00
        -11   -1    0    0    0    0  0.00000000000E+00  0.00000000000E+00  0.45593999997E+02  0.45594000000E+02  0.51100000000E-03 0. -1.
         11   -1    0    0    0    0 -0.00000000000E+00 -0.00000000000E+00 -0.45593999997E+02  0.45594000000E+02  0.51100000000E-03 0.  1.
    9900012    2    1    2    0    0  0.16836014574E+02 -0.15755883160E+02 -0.22023253730E+02  0.59301906703E+02  0.49999931928E+02 0.  0.
         12    1    1    2    0    0 -0.16836014574E+02  0.15755883160E+02  0.22023253730E+02  0.31886093297E+02  0.00000000000E+00 0. -1.
         11    1    3    3    0    0 -0.47153021682E+01  0.73596871274E+00  0.81136619169E+01  0.94131415822E+01  0.51100000000E-03 0. -1.
        -11    1    3    3    0    0  0.56866870600E+01 -0.20694587573E+02 -0.24417761154E+02  0.32508943762E+02  0.51100000000E-03 0.  1.
        -12    1    3    3    0    0  0.15864629683E+02  0.42027357000E+01 -0.57191544931E+01  0.17379821358E+02  0.00000000000E+00 0.  1.
</event>
<event>
 7    1  0.7579108E-012  0.5930209E+02  0.7816164E-02  0.1266604E+00
        -11   -1    0    0    0    0  0.00000000000E+00  0.00000000000E+00  0.45593999997E+02  0.45594000000E+02  0.51100000000E-03 0. -1.
         11   -1    0    0    0    0 -0.00000000000E+00 -0.00000000000E+00 -0.45593999997E+02  0.45594000000E+02  0.51100000000E-03 0.  1.
    9900012    2    1    2    0    0  0.22929194739E+02 -0.22070874229E+02 -0.19596111056E+01  0.59302085613E+02  0.50000258217E+02 0.  0.
         12    1    1    2    0    0 -0.22929194739E+02  0.22070874229E+02  0.19596111056E+01  0.31885914387E+02  0.00000000000E+00 0. -1.
         11    1    3    3    0    0  0.14886231379E+02  0.91534911085E+01 -0.54140241781E+01  0.18294751766E+02  0.51100000000E-03 0. -1.
        -11    1    3    3    0    0 -0.17579124824E+01 -0.29109992222E+02 -0.26265197048E+01  0.29281060594E+02  0.51100000000E-03 0.  1.
        -12    1    3    3    0    0  0.98008758426E+01 -0.21143731152E+01  0.60809327773E+01  0.11726273253E+02  0.00000000000E+00 0.  1.
</event>
<event>
 7    1  0.7579108E-012  0.5930194E+02  0.7816164E-02  0.1266605E+00
        -11   -1    0    0    0    0  0.00000000000E+00  0.00000000000E+00  0.45593999997E+02  0.45594000000E+02  0.51100000000E-03 0.  1.
         11   -1    0    0    0    0 -0.00000000000E+00 -0.00000000000E+00 -0.45593999997E+02  0.45594000000E+02  0.51100000000E-03 0. -1.
    9900012    2    1    2    0    0  0.30147428298E+02 -0.10356144053E+02  0.77680449629E+00  0.59301943833E+02  0.49999999646E+02 0.  0.
         12    1    1    2    0    0 -0.30147428298E+02  0.10356144053E+02 -0.77680449629E+00  0.31886056167E+02  0.00000000000E+00 0. -1.
         11    1    3    3    0    0  0.30999668838E+02 -0.85310838562E+01 -0.16855156219E+02  0.36302274739E+02  0.51100000000E-03 0. -1.
        -11    1    3    3    0    0  0.44029951642E+01 -0.46956407663E+01  0.15254158343E+02  0.16556713310E+02  0.51100000000E-03 0.  1.
         12    1    3    3    0    0 -0.52552357039E+01  0.28705805698E+01  0.23778023721E+01  0.64429557838E+01  0.00000000000E+00 0. -1.
</event>
<event>
 7    1  0.7579108E-012  0.5930194E+02  0.7816164E-02  0.1266605E+00
        -11   -1    0    0    0    0  0.00000000000E+00  0.00000000000E+00  0.45593999997E+02  0.45594000000E+02  0.51100000000E-03 0. -1.
         11   -1    0    0    0    0 -0.00000000000E+00 -0.00000000000E+00 -0.45593999997E+02  0.45594000000E+02  0.51100000000E-03 0.  1.
    9900012    2    1    2    0    0 -0.23142541574E+02  0.17500090901E+02 -0.13224608661E+02  0.59301942133E+02  0.49999996545E+02 0.  0.
         12    1    1    2    0    0  0.23142541574E+02 -0.17500090901E+02  0.13224608661E+02  0.31886057867E+02  0.00000000000E+00 0. -1.
         11    1    3    3    0    0 -0.20824689996E+02  0.82788751922E+01  0.68974255631E+01  0.23447429870E+02  0.51100000000E-03 0. -1.
        -11    1    3    3    0    0  0.40872980601E+01  0.14724000938E+02 -0.22393196551E+02  0.27110098876E+02  0.51100000000E-03 0.  1.
        -12    1    3    3    0    0 -0.64051496380E+01 -0.55027852291E+01  0.22711623272E+01  0.87444133867E+01  0.00000000000E+00 0.  1.
</event>
<event>
 7    1  0.7579108E-012  0.5930195E+02  0.7816164E-02  0.1266605E+00
        -11   -1    0    0    0    0  0.00000000000E+00  0.00000000000E+00  0.45593999997E+02  0.45594000000E+02  0.51100000000E-03 0.  1.
         11   -1    0    0    0    0 -0.00000000000E+00 -0.00000000000E+00 -0.45593999997E+02  0.45594000000E+02  0.51100000000E-03 0. -1.
    9900012    2    1    2    0    0  0.13347299797E+02  0.21635920312E+01  0.28877128523E+02  0.59301951420E+02  0.50000013481E+02 0.  0.
         12    1    1    2    0    0 -0.13347299797E+02 -0.21635920312E+01 -0.28877128523E+02  0.31886048580E+02  0.00000000000E+00 0. -1.
         11    1    3    3    0    0  0.21696880459E+02 -0.45410574361E+01  0.11742293810E+02  0.25085001265E+02  0.51100000000E-03 0. -1.
        -11    1    3    3    0    0 -0.17065532936E+02 -0.21096961983E+01  0.92461525274E+01  0.19523692511E+02  0.51100000000E-03 0.  1.
         12    1    3    3    0    0  0.87159522741E+01  0.88143456657E+01  0.78886821851E+01  0.14693257643E+02  0.00000000000E+00 0. -1.
</event>
<event>
 7    1  0.7579108E-012  0.5930191E+02  0.7816164E-02  0.1266605E+00
        -11   -1    0    0    0    0  0.00000000000E+00  0.00000000000E+00  0.45593999997E+02  0.45594000000E+02  0.51100000000E-03 0. -1.
         11   -1    0    0    0    0 -0.00000000000E+00 -0.00000000000E+00 -0.45593999997E+02  0.45594000000E+02  0.51100000000E-03 0.  1.
    9900012    2    1    2    0    0 -0.27228064358E+02  0.16037985740E+02  0.42588985727E+01  0.59301910677E+02  0.49999939176E+02 0.  0.
         12    1    1    2    0    0  0.27228064358E+02 -0.16037985740E+02 -0.42588985727E+01  0.31886089323E+02  0.00000000000E+00 0. -1.
         11    1    3    3    0    0 -0.60499834332E+01  0.42178420546E-01 -0.29796258931E+01  0.67440528827E+01  0.51100000000E-03 0. -1.
        -11    1    3    3    0    0 -0.16968983330E+02  0.13859414856E+02  0.25544333892E+02  0.33653272793E+02  0.51100000000E-03 0.  1.
        -12    1    3    3    0    0 -0.42090975946E+01  0.21363924636E+01 -0.18305809426E+02  0.18904585001E+02  0.00000000000E+00 0.  1.
</event>
<event>
 7    1  0.7579108E-012  0.5930191E+02  0.7816164E-02  0.1266605E+00
        -11   -1    0    0    0    0  0.00000000000E+00  0.00000000000E+00  0.45593999997E+02  0.45594000000E+02  0.51100000000E-03 0. -1.
         11   -1    0    0    0    0 -0.00000000000E+00 -0.00000000000E+00 -0.45593999997E+02  0.45594000000E+02  0.51100000000E-03 0.  1.
    9900012    2    1    2    0    0  0.50458055569E+01  0.13110455292E+02 -0.28624787945E+02  0.59301910924E+02  0.49999939627E+02 0.  0.
         12    1    1    2    0    0 -0.50458055569E+01 -0.13110455292E+02  0.28624787945E+02  0.31886089076E+02  0.00000000000E+00 0. -1.
         11    1    3    3    0    0 -0.13441013705E+00  0.41149370245E+01  0.12878751113E+02  0.13520835894E+02  0.51100000000E-03 0. -1.
        -11    1    3    3    0    0  0.20600925067E+01  0.13544350796E+02 -0.27319558351E+02  0.30562259216E+02  0.51100000000E-03 0.  1.
        -12    1    3    3    0    0  0.31201231872E+01 -0.45488325288E+01 -0.14183980707E+02  0.15218815813E+02  0.00000000000E+00 0.  1.
</event>
<event>
 7    1  0.7579108E-012  0.5930195E+02  0.7816164E-02  0.1266605E+00
        -11   -1    0    0    0    0  0.00000000000E+00  0.00000000000E+00  0.45593999997E+02  0.45594000000E+02  0.51100000000E-03 0. -1.
         11   -1    0    0    0    0 -0.00000000000E+00 -0.00000000000E+00 -0.45593999997E+02  0.45594000000E+02  0.51100000000E-03 0.  1.
    9900012    2    1    2    0    0  0.22576842710E+02 -0.21638966566E+02 -0.62258686607E+01  0.59301950678E+02  0.50000012128E+02 0.  0.
         12    1    1    2    0    0 -0.22576842710E+02  0.21638966566E+02  0.62258686607E+01  0.31886049322E+02  0.00000000000E+00 0. -1.
         11    1    3    3    0    0  0.12572050645E+02 -0.89669568295E+01  0.17928386885E+02  0.23661991226E+02  0.51100000000E-03 0. -1.
        -11    1    3    3    0    0  0.14349654103E+02 -0.45926467732E+01 -0.79903966794E+01  0.17054366497E+02  0.51100000000E-03 0.  1.
         12    1    3    3    0    0 -0.43448620380E+01 -0.80793629632E+01 -0.16163858867E+02  0.18585592955E+02  0.00000000000E+00 0. -1.
</event>
<event>
 7    1  0.7579108E-012  0.5930196E+02  0.7816164E-02  0.1266605E+00
        -11   -1    0    0    0    0  0.00000000000E+00  0.00000000000E+00  0.45593999997E+02  0.45594000000E+02  0.51100000000E-03 0. -1.
         11   -1    0    0    0    0 -0.00000000000E+00 -0.00000000000E+00 -0.45593999997E+02  0.45594000000E+02  0.51100000000E-03 0.  1.
    9900012    2    1    2    0    0  0.13645403966E+02 -0.16287410325E+02 -0.23774840102E+02  0.59301955931E+02  0.50000021709E+02 0.  0.
         12    1    1    2    0    0 -0.13645403966E+02  0.16287410325E+02  0.23774840102E+02  0.31886044069E+02  0.00000000000E+00 0. -1.
         11    1    3    3    0    0  0.89610736055E+01 -0.25303829493E+02 -0.11330790612E+02  0.29137114533E+02  0.51100000000E-03 0. -1.
        -11    1    3    3    0    0 -0.80660631160E+01  0.11927947184E+02 -0.66216566726E+01  0.15848773945E+02  0.51100000000E-03 0.  1.
         12    1    3    3    0    0  0.12750393476E+02 -0.29115280166E+01 -0.58223928171E+01  0.14316067452E+02  0.00000000000E+00 0. -1.
</event>
<event>
 7    1  0.7579108E-012  0.5930194E+02  0.7816164E-02  0.1266605E+00
        -11   -1    0    0    0    0  0.00000000000E+00  0.00000000000E+00  0.45593999997E+02  0.45594000000E+02  0.51100000000E-03 0.  1.
         11   -1    0    0    0    0 -0.00000000000E+00 -0.00000000000E+00 -0.45593999997E+02  0.45594000000E+02  0.51100000000E-03 0. -1.
    9900012    2    1    2    0    0  0.19666925068E+02 -0.72425694623E+01  0.24030767060E+02  0.59301944748E+02  0.50000001313E+02 0.  0.
         12    1    1    2    0    0 -0.19666925068E+02  0.72425694623E+01 -0.24030767060E+02  0.31886055252E+02  0.00000000000E+00 0. -1.
         11    1    3    3    0    0  0.75718728014E+01 -0.76376239077E+01 -0.11862803179E+02  0.16012265805E+02  0.51100000000E-03 0. -1.
        -11    1    3    3    0    0  0.45873282471E+01  0.10570111138E+02  0.15995751642E+02  0.19713825117E+02  0.51100000000E-03 0.  1.
         12    1    3    3    0    0  0.75077240199E+01 -0.10175056692E+02  0.19897818598E+02  0.23575853825E+02  0.00000000000E+00 0. -1.
</event>
<event>
 7    1  0.7579108E-012  0.5930199E+02  0.7816164E-02  0.1266605E+00
        -11   -1    0    0    0    0  0.00000000000E+00  0.00000000000E+00  0.45593999997E+02  0.45594000000E+02  0.51100000000E-03 0. -1.
         11   -1    0    0    0    0 -0.00000000000E+00 -0.00000000000E+00 -0.45593999997E+02  0.45594000000E+02  0.51100000000E-03 0.  1.
    9900012    2    1    2    0    0 -0.20511355595E+02  0.30105215212E+01 -0.24226811117E+02  0.59301994840E+02  0.50000092670E+02 0.  0.
         12    1    1    2    0    0  0.20511355595E+02 -0.30105215212E+01  0.24226811117E+02  0.31886005160E+02  0.00000000000E+00 0. -1.
         11    1    3    3    0    0  0.15945392677E+02  0.51577094650E+00 -0.21310779451E+01  0.16095436022E+02  0.51100000000E-03 0. -1.
        -11    1    3    3    0    0 -0.24994277309E+02  0.34553987254E+01 -0.18008394608E+02  0.30999289591E+02  0.51100000000E-03 0.  1.
         12    1    3    3    0    0 -0.11462470963E+02 -0.96064815077E+00 -0.40873385633E+01  0.12207269227E+02  0.00000000000E+00 0. -1.
</event>
<event>
 7    1  0.7579108E-012  0.5930193E+02  0.7816164E-02  0.1266605E+00
        -11   -1    0    0    0    0  0.00000000000E+00  0.00000000000E+00  0.45593999997E+02  0.45594000000E+02  0.51100000000E-03 0.  1.
         11   -1    0    0    0    0 -0.00000000000E+00 -0.00000000000E+00 -0.45593999997E+02  0.45594000000E+02  0.51100000000E-03 0. -1.
    9900012    2    1    2    0    0 -0.49558380375E+01 -0.14150347235E+02  0.28141232589E+02  0.59301927348E+02  0.49999969581E+02 0.  0.
         12    1    1    2    0    0  0.49558380375E+01  0.14150347235E+02 -0.28141232589E+02  0.31886072652E+02  0.00000000000E+00 0. -1.
         11    1    3    3    0    0  0.11260860539E+02  0.31948330377E+01 -0.38880309565E+01  0.12334128393E+02  0.51100000000E-03 0. -1.
        -11    1    3    3    0    0 -0.67825548686E+01 -0.22555119150E+02  0.22757436197E+02  0.32751142774E+02  0.51100000000E-03 0.  1.
         12    1    3    3    0    0 -0.94341437084E+01  0.52099388777E+01  0.92718273481E+01  0.14216656182E+02  0.00000000000E+00 0. -1.
</event>
<event>
 7    1  0.7579108E-012  0.5930162E+02  0.7816164E-02  0.1266606E+00
        -11   -1    0    0    0    0  0.00000000000E+00  0.00000000000E+00  0.45593999997E+02  0.45594000000E+02  0.51100000000E-03 0. -1.
         11   -1    0    0    0    0 -0.00000000000E+00 -0.00000000000E+00 -0.45593999997E+02  0.45594000000E+02  0.51100000000E-03 0.  1.
    9900012    2    1    2    0    0  0.13928732163E+02 -0.22447660037E+02 -0.17855933437E+02  0.59301617645E+02  0.49999404752E+02 0.  0.
         12    1    1    2    0    0 -0.13928732163E+02  0.22447660037E+02  0.17855933437E+02  0.31886382355E+02  0.00000000000E+00 0. -1.
         11    1    3    3    0    0  0.10145223990E+02 -0.20644966899E+02 -0.14805835253E+02  0.27356041122E+02  0.51100000000E-03 0.  1.
        -11    1    3    3    0    0 -0.10061140726E+02  0.22304223010E+01  0.85881379185E+01  0.13414822009E+02  0.51100000000E-03 0. -1.
        -12    1    3    3    0    0  0.13844648899E+02 -0.40331154395E+01 -0.11638236102E+02  0.18530754514E+02  0.00000000000E+00 0.  1.
</event>
<event>
 7    1  0.7579108E-012  0.5930194E+02  0.7816164E-02  0.1266605E+00
        -11   -1    0    0    0    0  0.00000000000E+00  0.00000000000E+00  0.45593999997E+02  0.45594000000E+02  0.51100000000E-03 0. -1.
         11   -1    0    0    0    0 -0.00000000000E+00 -0.00000000000E+00 -0.45593999997E+02  0.45594000000E+02  0.51100000000E-03 0.  1.
    9900012    2    1    2    0    0  0.12821239049E+02 -0.23337786255E+02 -0.17540941539E+02  0.59301936146E+02  0.49999985625E+02 0.  0.
         12    1    1    2    0    0 -0.12821239049E+02  0.23337786255E+02  0.17540941539E+02  0.31886063854E+02  0.00000000000E+00 0. -1.
         11    1    3    3    0    0 -0.13595702122E+02  0.40188954186E+00 -0.18810840098E+02  0.23213193164E+02  0.51100000000E-03 0. -1.
        -11    1    3    3    0    0  0.83004926237E+01 -0.45332490332E+01 -0.13623659558E+01  0.95553422677E+01  0.51100000000E-03 0.  1.
         12    1    3    3    0    0  0.18116448548E+02 -0.19206426763E+02  0.26322645145E+01  0.26533400715E+02  0.00000000000E+00 0. -1.
</event>
<event>
 7    1  0.7579108E-012  0.5930190E+02  0.7816164E-02  0.1266605E+00
        -11   -1    0    0    0    0  0.00000000000E+00  0.00000000000E+00  0.45593999997E+02  0.45594000000E+02  0.51100000000E-03 0. -1.
         11   -1    0    0    0    0 -0.00000000000E+00 -0.00000000000E+00 -0.45593999997E+02  0.45594000000E+02  0.51100000000E-03 0.  1.
    9900012    2    1    2    0    0 -0.14251668270E+02  0.23939249768E+02 -0.15508881057E+02  0.59301903978E+02  0.49999926958E+02 0.  0.
         12    1    1    2    0    0  0.14251668270E+02 -0.23939249768E+02  0.15508881057E+02  0.31886096022E+02  0.00000000000E+00 0. -1.
         11    1    3    3    0    0  0.10303904069E+02  0.82918350933E+01 -0.15751703886E+00  0.13226858287E+02  0.51100000000E-03 0. -1.
        -11    1    3    3    0    0 -0.15212875088E+02  0.64877665214E+01 -0.24889768831E+02  0.29883495036E+02  0.51100000000E-03 0.  1.
        -12    1    3    3    0    0 -0.93426972507E+01  0.91596481529E+01  0.95384048130E+01  0.16191550654E+02  0.00000000000E+00 0.  1.
</event>
<event>
 7    1  0.7579108E-012  0.5930196E+02  0.7816164E-02  0.1266605E+00
        -11   -1    0    0    0    0  0.00000000000E+00  0.00000000000E+00  0.45593999997E+02  0.45594000000E+02  0.51100000000E-03 0. -1.
         11   -1    0    0    0    0 -0.00000000000E+00 -0.00000000000E+00 -0.45593999997E+02  0.45594000000E+02  0.51100000000E-03 0.  1.
    9900012    2    1    2    0    0 -0.10250136274E+02 -0.28683981169E+01 -0.30057052780E+02  0.59301961939E+02  0.50000032665E+02 0.  0.
         12    1    1    2    0    0  0.10250136274E+02  0.28683981169E+01  0.30057052780E+02  0.31886038061E+02  0.00000000000E+00 0. -1.
         11    1    3    3    0    0 -0.24006688825E+02 -0.41091645643E+01 -0.16613435656E+02  0.29482411474E+02  0.51100000000E-03 0. -1.
        -11    1    3    3    0    0  0.10067485254E+02  0.15543194470E+01 -0.19912047857E+02  0.22366488736E+02  0.51100000000E-03 0.  1.
         12    1    3    3    0    0  0.36890672959E+01 -0.31355299963E+00  0.64684307320E+01  0.74530617287E+01  0.00000000000E+00 0. -1.
</event>
<event>
 7    1  0.7579108E-012  0.5930194E+02  0.7816164E-02  0.1266605E+00
        -11   -1    0    0    0    0  0.00000000000E+00  0.00000000000E+00  0.45593999997E+02  0.45594000000E+02  0.51100000000E-03 0.  1.
         11   -1    0    0    0    0 -0.00000000000E+00 -0.00000000000E+00 -0.45593999997E+02  0.45594000000E+02  0.51100000000E-03 0. -1.
    9900012    2    1    2    0    0  0.12263082246E+02 -0.13934941040E+02  0.25925950457E+02  0.59301942309E+02  0.49999996866E+02 0.  0.
         12    1    1    2    0    0 -0.12263082246E+02  0.13934941040E+02 -0.25925950457E+02  0.31886057691E+02  0.00000000000E+00 0. -1.
         11    1    3    3    0    0 -0.18968673811E+01 -0.28867591722E+02  0.18923139880E+02  0.34569078392E+02  0.51100000000E-03 0. -1.
        -11    1    3    3    0    0  0.40456957843E+01  0.90100996535E+01  0.83521415788E+01  0.12934752389E+02  0.51100000000E-03 0.  1.
         12    1    3    3    0    0  0.10114253843E+02  0.59225510294E+01 -0.13493310012E+01  0.11798111529E+02  0.00000000000E+00 0. -1.
</event>
<event>
 7    1  0.7579108E-012  0.5930195E+02  0.7816164E-02  0.1266605E+00
        -11   -1    0    0    0    0  0.00000000000E+00  0.00000000000E+00  0.45593999997E+02  0.45594000000E+02  0.51100000000E-03 0.  1.
         11   -1    0    0    0    0 -0.00000000000E+00 -0.00000000000E+00 -0.45593999997E+02  0.45594000000E+02  0.51100000000E-03 0. -1.
    9900012    2    1    2    0    0  0.63302868384E+01 -0.16887428551E+02  0.26295669182E+02  0.59301953016E+02  0.50000016393E+02 0.  0.
         12    1    1    2    0    0 -0.63302868384E+01  0.16887428551E+02 -0.26295669182E+02  0.31886046984E+02  0.00000000000E+00 0. -1.
         11    1    3    3    0    0  0.35331087411E+00 -0.12428800551E+02  0.23966222599E+02  0.26999624769E+02  0.51100000000E-03 0.  1.
        -11    1    3    3    0    0 -0.89775629963E+00 -0.47794346954E+01 -0.13872008987E+02  0.14699714146E+02  0.51100000000E-03 0. -1.
         12    1    3    3    0    0  0.68747322639E+01  0.32080669525E+00  0.16201455570E+02  0.17602614102E+02  0.00000000000E+00 0. -1.
</event>
<event>
 7    1  0.7579108E-012  0.5930195E+02  0.7816164E-02  0.1266605E+00
        -11   -1    0    0    0    0  0.00000000000E+00  0.00000000000E+00  0.45593999997E+02  0.45594000000E+02  0.51100000000E-03 0.  1.
         11   -1    0    0    0    0 -0.00000000000E+00 -0.00000000000E+00 -0.45593999997E+02  0.45594000000E+02  0.51100000000E-03 0. -1.
    9900012    2    1    2    0    0 -0.26120613814E+02  0.18223060028E+02 -0.15341842298E+01  0.59301951263E+02  0.50000013196E+02 0.  0.
         12    1    1    2    0    0  0.26120613814E+02 -0.18223060028E+02  0.15341842298E+01  0.31886048737E+02  0.00000000000E+00 0. -1.
         11    1    3    3    0    0 -0.25157284925E+02 -0.48597797431E+01  0.13218538149E+02  0.28831167076E+02  0.51100000000E-03 0. -1.
        -11    1    3    3    0    0  0.18003572652E+01  0.11055147023E+02  0.46797392716E-01  0.11200881762E+02  0.51100000000E-03 0.  1.
         12    1    3    3    0    0 -0.27636861550E+01  0.12027692748E+02 -0.14799519772E+02  0.19269902425E+02  0.00000000000E+00 0. -1.
</event>
<event>
 7    1  0.7579108E-012  0.5930198E+02  0.7816164E-02  0.1266605E+00
        -11   -1    0    0    0    0  0.00000000000E+00  0.00000000000E+00  0.45593999997E+02  0.45594000000E+02  0.51100000000E-03 0.  1.
         11   -1    0    0    0    0 -0.00000000000E+00 -0.00000000000E+00 -0.45593999997E+02  0.45594000000E+02  0.51100000000E-03 0. -1.
    9900012    2    1    2    0    0 -0.54433014247E+01  0.31415416784E+02  0.40051807063E+00  0.59301978661E+02  0.50000063163E+02 0.  0.
         12    1    1    2    0    0  0.54433014247E+01 -0.31415416784E+02 -0.40051807063E+00  0.31886021339E+02  0.00000000000E+00 0. -1.
         11    1    3    3    0    0  0.20518374578E+01  0.88981247584E+01 -0.19765855973E+02  0.21773280041E+02  0.51100000000E-03 0. -1.
        -11    1    3    3    0    0 -0.60867878074E+01  0.26437437482E+02  0.15387071235E+02  0.31188925084E+02  0.51100000000E-03 0.  1.
         12    1    3    3    0    0 -0.14083510751E+01 -0.39201454566E+01  0.47793028082E+01  0.63397735357E+01  0.00000000000E+00 0. -1.
</event>
<event>
 7    1  0.7579108E-012  0.5930201E+02  0.7816164E-02  0.1266605E+00
        -11   -1    0    0    0    0  0.00000000000E+00  0.00000000000E+00  0.45593999997E+02  0.45594000000E+02  0.51100000000E-03 0.  1.
         11   -1    0    0    0    0 -0.00000000000E+00 -0.00000000000E+00 -0.45593999997E+02  0.45594000000E+02  0.51100000000E-03 0. -1.
    9900012    2    1    2    0    0 -0.23201223253E+02  0.18279210374E+02  0.12012068344E+02  0.59302014392E+02  0.50000128327E+02 0.  0.
         12    1    1    2    0    0  0.23201223253E+02 -0.18279210374E+02 -0.12012068344E+02  0.31885985608E+02  0.00000000000E+00 0. -1.
         11    1    3    3    0    0 -0.17529790247E+01  0.54795156480E+01 -0.15544524316E+02  0.16574989100E+02  0.51100000000E-03 0. -1.
        -11    1    3    3    0    0 -0.15619649673E+02  0.16416127073E+02  0.11813054394E+02  0.25554078703E+02  0.51100000000E-03 0.  1.
         12    1    3    3    0    0 -0.58285945548E+01 -0.36164323463E+01  0.15743538265E+02  0.17172946588E+02  0.00000000000E+00 0. -1.
</event>
<event>
 7    1  0.7579108E-012  0.5930206E+02  0.7816164E-02  0.1266604E+00
        -11   -1    0    0    0    0  0.00000000000E+00  0.00000000000E+00  0.45593999997E+02  0.45594000000E+02  0.51100000000E-03 0. -1.
         11   -1    0    0    0    0 -0.00000000000E+00 -0.00000000000E+00 -0.45593999997E+02  0.45594000000E+02  0.51100000000E-03 0.  1.
    9900012    2    1    2    0    0 -0.30203690758E+02 -0.11187254685E+01 -0.10158672563E+02  0.59302060931E+02  0.50000213203E+02 0.  0.
         12    1    1    2    0    0  0.30203690758E+02  0.11187254685E+01  0.10158672563E+02  0.31885939069E+02  0.00000000000E+00 0. -1.
         11    1    3    3    0    0  0.37704649706E+01  0.63191776139E+01  0.89471189473E+01  0.11584444291E+02  0.51100000000E-03 0. -1.
        -11    1    3    3    0    0 -0.36534739916E+02 -0.73498697879E+00 -0.16310868613E+02  0.40017144598E+02  0.51100000000E-03 0.  1.
        -12    1    3    3    0    0  0.25605841874E+01 -0.67029161036E+01 -0.27949228971E+01  0.77004720423E+01  0.00000000000E+00 0.  1.
</event>
<event>
 7    1  0.7579108E-012  0.5930194E+02  0.7816164E-02  0.1266605E+00
        -11   -1    0    0    0    0  0.00000000000E+00  0.00000000000E+00  0.45593999997E+02  0.45594000000E+02  0.51100000000E-03 0.  1.
         11   -1    0    0    0    0 -0.00000000000E+00 -0.00000000000E+00 -0.45593999997E+02  0.45594000000E+02  0.51100000000E-03 0. -1.
    9900012    2    1    2    0    0  0.20933785784E+02 -0.12581613167E+02  0.20498790340E+02  0.59301940624E+02  0.49999993793E+02 0.  0.
         12    1    1    2    0    0 -0.20933785784E+02  0.12581613167E+02 -0.20498790340E+02  0.31886059376E+02  0.00000000000E+00 0. -1.
         11    1    3    3    0    0  0.24943375348E+02 -0.14652206507E+02  0.33414867658E+00  0.28930447368E+02  0.51100000000E-03 0. -1.
        -11    1    3    3    0    0 -0.49597547547E+01  0.11106372359E+02  0.60489490001E+01  0.13584566923E+02  0.51100000000E-03 0.  1.
         12    1    3    3    0    0  0.95016518971E+00 -0.90357790197E+01  0.14115692663E+02  0.16786926334E+02  0.00000000000E+00 0. -1.
</event>
<event>
 7    1  0.7579108E-012  0.5930187E+02  0.7816164E-02  0.1266605E+00
        -11   -1    0    0    0    0  0.00000000000E+00  0.00000000000E+00  0.45593999997E+02  0.45594000000E+02  0.51100000000E-03 0.  1.
         11   -1    0    0    0    0 -0.00000000000E+00 -0.00000000000E+00 -0.45593999997E+02  0.45594000000E+02  0.51100000000E-03 0. -1.
    9900012    2    1    2    0    0  0.21342042954E+02 -0.23574756894E+02  0.23394956490E+01  0.59301871356E+02  0.49999867464E+02 0.  0.
         12    1    1    2    0    0 -0.21342042954E+02  0.23574756894E+02 -0.23394956490E+01  0.31886128644E+02  0.00000000000E+00 0. -1.
         11    1    3    3    0    0  0.16565343549E+02 -0.99607580106E+01 -0.86085177394E+01  0.21159723178E+02  0.51100000000E-03 0. -1.
        -11    1    3    3    0    0 -0.11462524472E+02  0.11430192223E+01 -0.32959663851E+01  0.11981625720E+02  0.51100000000E-03 0.  1.
        -12    1    3    3    0    0  0.16239223877E+02 -0.14757018105E+02  0.14243979774E+02  0.26160522458E+02  0.00000000000E+00 0.  1.
</event>
<event>
 7    1  0.7579108E-012  0.5930194E+02  0.7816164E-02  0.1266605E+00
        -11   -1    0    0    0    0  0.00000000000E+00  0.00000000000E+00  0.45593999997E+02  0.45594000000E+02  0.51100000000E-03 0.  1.
         11   -1    0    0    0    0 -0.00000000000E+00 -0.00000000000E+00 -0.45593999997E+02  0.45594000000E+02  0.51100000000E-03 0. -1.
    9900012    2    1    2    0    0  0.22282680392E+02  0.97425726888E+01  0.20622446612E+02  0.59301939216E+02  0.49999991225E+02 0.  0.
         12    1    1    2    0    0 -0.22282680392E+02 -0.97425726888E+01 -0.20622446612E+02  0.31886060784E+02  0.00000000000E+00 0. -1.
         11    1    3    3    0    0 -0.93240010406E+01 -0.43205682923E+01 -0.11923099329E+01  0.10345332716E+02  0.51100000000E-03 0. -1.
        -11    1    3    3    0    0  0.22457243649E+02  0.15763015697E+02  0.26838599143E+02  0.38381126357E+02  0.51100000000E-03 0.  1.
         12    1    3    3    0    0  0.91494377838E+01 -0.16998747161E+01 -0.50238425983E+01  0.10575480143E+02  0.00000000000E+00 0. -1.
</event>
<event>
 7    1  0.7579108E-012  0.5930193E+02  0.7816164E-02  0.1266605E+00
        -11   -1    0    0    0    0  0.00000000000E+00  0.00000000000E+00  0.45593999997E+02  0.45594000000E+02  0.51100000000E-03 0. -1.
         11   -1    0    0    0    0 -0.00000000000E+00 -0.00000000000E+00 -0.45593999997E+02  0.45594000000E+02  0.51100000000E-03 0.  1.
    9900012    2    1    2    0    0 -0.11206579449E+02 -0.12848585183E+02 -0.26945270718E+02  0.59301934419E+02  0.49999982476E+02 0.  0.
         12    1    1    2    0    0  0.11206579449E+02  0.12848585183E+02  0.26945270718E+02  0.31886065581E+02  0.00000000000E+00 0. -1.
         11    1    3    3    0    0 -0.12125822283E+02 -0.21874586718E+02 -0.87230199210E+01  0.26488189575E+02  0.51100000000E-03 0.  1.
        -11    1    3    3    0    0  0.81605483801E+01  0.86473477353E+01  0.13262639918E+01  0.11963701315E+02  0.51100000000E-03 0. -1.
         12    1    3    3    0    0 -0.72413055455E+01  0.37865379976E+00 -0.19548514789E+02  0.20850043529E+02  0.00000000000E+00 0. -1.
</event>
<event>
 7    1  0.7579108E-012  0.5930192E+02  0.7816164E-02  0.1266605E+00
        -11   -1    0    0    0    0  0.00000000000E+00  0.00000000000E+00  0.45593999997E+02  0.45594000000E+02  0.51100000000E-03 0. -1.
         11   -1    0    0    0    0 -0.00000000000E+00 -0.00000000000E+00 -0.45593999997E+02  0.45594000000E+02  0.51100000000E-03 0.  1.
    9900012    2    1    2    0    0 -0.26428654606E+01 -0.31166331454E+02 -0.61965238581E+01  0.59301923696E+02  0.49999962920E+02 0.  0.
         12    1    1    2    0    0  0.26428654606E+01  0.31166331454E+02  0.61965238581E+01  0.31886076304E+02  0.00000000000E+00 0. -1.
         11    1    3    3    0    0  0.12829441672E+02 -0.18092054064E+01  0.10275139160E+02  0.16536211260E+02  0.51100000000E-03 0. -1.
        -11    1    3    3    0    0 -0.93312303529E+01 -0.28860249186E+02 -0.19336973435E+02  0.35970882458E+02  0.51100000000E-03 0.  1.
        -12    1    3    3    0    0 -0.61410767801E+01 -0.49687686190E+00  0.28653104171E+01  0.67948299773E+01  0.00000000000E+00 0.  1.
</event>
<event>
 7    1  0.7579108E-012  0.5930194E+02  0.7816164E-02  0.1266605E+00
        -11   -1    0    0    0    0  0.00000000000E+00  0.00000000000E+00  0.45593999997E+02  0.45594000000E+02  0.51100000000E-03 0.  1.
         11   -1    0    0    0    0 -0.00000000000E+00 -0.00000000000E+00 -0.45593999997E+02  0.45594000000E+02  0.51100000000E-03 0. -1.
    9900012    2    1    2    0    0  0.47645076116E+01  0.10603941205E+02  0.29691352601E+02  0.59301944723E+02  0.50000001267E+02 0.  0.
         12    1    1    2    0    0 -0.47645076116E+01 -0.10603941205E+02 -0.29691352601E+02  0.31886055277E+02  0.00000000000E+00 0. -1.
         11    1    3    3    0    0 -0.21387961716E+01 -0.32703753318E+01 -0.16410663765E+01  0.42382665074E+01  0.51100000000E-03 0. -1.
        -11    1    3    3    0    0  0.18827609503E+02  0.16307380038E+02  0.34439975886E+02  0.42503193557E+02  0.51100000000E-03 0.  1.
        -12    1    3    3    0    0 -0.11924305720E+02 -0.24330635014E+01 -0.31075569080E+01  0.12560484658E+02  0.00000000000E+00 0.  1.
</event>
<event>
 7    1  0.7579108E-012  0.5930195E+02  0.7816164E-02  0.1266605E+00
        -11   -1    0    0    0    0  0.00000000000E+00  0.00000000000E+00  0.45593999997E+02  0.45594000000E+02  0.51100000000E-03 0.  1.
         11   -1    0    0    0    0 -0.00000000000E+00 -0.00000000000E+00 -0.45593999997E+02  0.45594000000E+02  0.51100000000E-03 0. -1.
    9900012    2    1    2    0    0  0.17719077714E+01  0.70017450988E+01  0.31057302353E+02  0.59301950997E+02  0.50000012711E+02 0.  0.
         12    1    1    2    0    0 -0.17719077714E+01 -0.70017450988E+01 -0.31057302353E+02  0.31886049003E+02  0.00000000000E+00 0. -1.
         11    1    3    3    0    0  0.94257710071E+01 -0.77116745201E+01  0.19993465559E+02  0.23410547800E+02  0.51100000000E-03 0. -1.
        -11    1    3    3    0    0 -0.16393707137E+02  0.10813296984E+02  0.15806987871E+02  0.25209956192E+02  0.51100000000E-03 0.  1.
        -12    1    3    3    0    0  0.87398439017E+01  0.39001226348E+01 -0.47431510773E+01  0.10681447006E+02  0.00000000000E+00 0.  1.
</event>
<event>
 7    1  0.7579108E-012  0.5930195E+02  0.7816164E-02  0.1266605E+00
        -11   -1    0    0    0    0  0.00000000000E+00  0.00000000000E+00  0.45593999997E+02  0.45594000000E+02  0.51100000000E-03 0.  1.
         11   -1    0    0    0    0 -0.00000000000E+00 -0.00000000000E+00 -0.45593999997E+02  0.45594000000E+02  0.51100000000E-03 0. -1.
    9900012    2    1    2    0    0 -0.19726497709E+02  0.24183796431E+02 -0.65367839689E+01  0.59301948718E+02  0.50000008554E+02 0.  0.
         12    1    1    2    0    0  0.19726497709E+02 -0.24183796431E+02  0.65367839689E+01  0.31886051282E+02  0.00000000000E+00 0. -1.
         11    1    3    3    0    0  0.25824222224E+01  0.98409552037E+01 -0.10761242432E+02  0.14809376854E+02  0.51100000000E-03 0. -1.
        -11    1    3    3    0    0 -0.46796340315E+01 -0.89412257789E+01  0.10561464163E+02  0.14607840998E+02  0.51100000000E-03 0.  1.
        -12    1    3    3    0    0 -0.17629285900E+02  0.23284067006E+02 -0.63370056997E+01  0.29884730866E+02  0.00000000000E+00 0.  1.
</event>
<event>
 7    1  0.7579108E-012  0.5930194E+02  0.7816164E-02  0.1266605E+00
        -11   -1    0    0    0    0  0.00000000000E+00  0.00000000000E+00  0.45593999997E+02  0.45594000000E+02  0.51100000000E-03 0.  1.
         11   -1    0    0    0    0 -0.00000000000E+00 -0.00000000000E+00 -0.45593999997E+02  0.45594000000E+02  0.51100000000E-03 0. -1.
    9900012    2    1    2    0    0 -0.11007366339E+02 -0.26339185530E+02 -0.14205834612E+02  0.59301944347E+02  0.50000000582E+02 0.  0.
         12    1    1    2    0    0  0.11007366339E+02  0.26339185530E+02  0.14205834612E+02  0.31886055653E+02  0.00000000000E+00 0. -1.
         11    1    3    3    0    0  0.96109340401E+01  0.40238892188E+01 -0.73298109429E+01  0.12739225498E+02  0.51100000000E-03 0. -1.
        -11    1    3    3    0    0 -0.12060365517E+02 -0.28871628162E+02 -0.14973002966E+02  0.34687377347E+02  0.51100000000E-03 0.  1.
        -12    1    3    3    0    0 -0.85579348629E+01 -0.14914465864E+01  0.80969792975E+01  0.11875341502E+02  0.00000000000E+00 0.  1.
</event>
<event>
 7    1  0.7579108E-012  0.5930193E+02  0.7816164E-02  0.1266605E+00
        -11   -1    0    0    0    0  0.00000000000E+00  0.00000000000E+00  0.45593999997E+02  0.45594000000E+02  0.51100000000E-03 0.  1.
         11   -1    0    0    0    0 -0.00000000000E+00 -0.00000000000E+00 -0.45593999997E+02  0.45594000000E+02  0.51100000000E-03 0. -1.
    9900012    2    1    2    0    0 -0.74640859960E+01  0.26158347512E+02  0.16635798211E+02  0.59301929273E+02  0.49999973090E+02 0.  0.
         12    1    1    2    0    0  0.74640859960E+01 -0.26158347512E+02 -0.16635798211E+02  0.31886070727E+02  0.00000000000E+00 0. -1.
         11    1    3    3    0    0  0.14066177553E+02  0.15454749789E+02  0.17567033059E+02  0.27300316715E+02  0.51100000000E-03 0. -1.
        -11    1    3    3    0    0 -0.15587169130E+02 -0.13524492827E+01 -0.71372400446E+01  0.17196777496E+02  0.51100000000E-03 0.  1.
         12    1    3    3    0    0 -0.59430944196E+01  0.12056047006E+02  0.62060051959E+01  0.14804835061E+02  0.00000000000E+00 0. -1.
</event>
<event>
 7    1  0.7579108E-012  0.5930190E+02  0.7816164E-02  0.1266605E+00
        -11   -1    0    0    0    0  0.00000000000E+00  0.00000000000E+00  0.45593999997E+02  0.45594000000E+02  0.51100000000E-03 0.  1.
         11   -1    0    0    0    0 -0.00000000000E+00 -0.00000000000E+00 -0.45593999997E+02  0.45594000000E+02  0.51100000000E-03 0. -1.
    9900012    2    1    2    0    0 -0.50524042771E+01 -0.23424666132E+02  0.21035246890E+02  0.59301899829E+02  0.49999919392E+02 0.  0.
         12    1    1    2    0    0  0.50524042771E+01  0.23424666132E+02 -0.21035246890E+02  0.31886100171E+02  0.00000000000E+00 0. -1.
         11    1    3    3    0    0  0.10334323017E+02 -0.11089204761E+02 -0.48897919396E+01  0.15927296065E+02  0.51100000000E-03 0. -1.
        -11    1    3    3    0    0 -0.44040621898E+01  0.84777236827E+01  0.14115583592E+02  0.17044566965E+02  0.51100000000E-03 0.  1.
        -12    1    3    3    0    0 -0.10982665104E+02 -0.20813185054E+02  0.11809455238E+02  0.26330036800E+02  0.00000000000E+00 0.  1.
</event>
<event>
 7    1  0.7579108E-012  0.5930194E+02  0.7816164E-02  0.1266605E+00
        -11   -1    0    0    0    0  0.00000000000E+00  0.00000000000E+00  0.45593999997E+02  0.45594000000E+02  0.51100000000E-03 0. -1.
         11   -1    0    0    0    0 -0.00000000000E+00 -0.00000000000E+00 -0.45593999997E+02  0.45594000000E+02  0.51100000000E-03 0.  1.
    9900012    2    1    2    0    0  0.16603492594E+02 -0.27127210923E+02  0.22713422658E+01  0.59301944514E+02  0.50000000887E+02 0.  0.
         12    1    1    2    0    0 -0.16603492594E+02  0.27127210923E+02 -0.22713422658E+01  0.31886055486E+02  0.00000000000E+00 0. -1.
         11    1    3    3    0    0  0.10253988859E+01 -0.54913049165E+01  0.98539115399E+01  0.11327199365E+02  0.51100000000E-03 0. -1.
        -11    1    3    3    0    0  0.22630326747E+02 -0.22077022528E+02 -0.17238458593E+02  0.36009596878E+02  0.51100000000E-03 0.  1.
        -12    1    3    3    0    0 -0.70522330385E+01  0.44111652185E+00  0.96558893188E+01  0.11965148271E+02  0.00000000000E+00 0.  1.
</event>
<event>
 7    1  0.7579108E-012  0.5930194E+02  0.7816164E-02  0.1266605E+00
        -11   -1    0    0    0    0  0.00000000000E+00  0.00000000000E+00  0.45593999997E+02  0.45594000000E+02  0.51100000000E-03 0.  1.
         11   -1    0    0    0    0 -0.00000000000E+00 -0.00000000000E+00 -0.45593999997E+02  0.45594000000E+02  0.51100000000E-03 0. -1.
    9900012    2    1    2    0    0  0.31882179993E+01 -0.28400391518E+02  0.14141214159E+02  0.59301938621E+02  0.49999990139E+02 0.  0.
         12    1    1    2    0    0 -0.31882179993E+01  0.28400391518E+02 -0.14141214159E+02  0.31886061379E+02  0.00000000000E+00 0. -1.
         11    1    3    3    0    0  0.80942537849E+01 -0.15023008613E+02 -0.16311901764E+02  0.23606903049E+02  0.51100000000E-03 0. -1.
        -11    1    3    3    0    0 -0.38226296301E+01  0.68919843694E+00  0.33056541964E+01  0.51004746546E+01  0.51100000000E-03 0.  1.
         12    1    3    3    0    0 -0.10834061555E+01 -0.14066581342E+02  0.27147461726E+02  0.30594560917E+02  0.00000000000E+00 0. -1.
</event>
<event>
 7    1  0.7579108E-012  0.5930194E+02  0.7816164E-02  0.1266605E+00
        -11   -1    0    0    0    0  0.00000000000E+00  0.00000000000E+00  0.45593999997E+02  0.45594000000E+02  0.51100000000E-03 0.  1.
         11   -1    0    0    0    0 -0.00000000000E+00 -0.00000000000E+00 -0.45593999997E+02  0.45594000000E+02  0.51100000000E-03 0. -1.
    9900012    2    1    2    0    0 -0.23705754590E+02  0.28413368875E+01  0.21134923335E+02  0.59301937522E+02  0.49999988134E+02 0.  0.
         12    1    1    2    0    0  0.23705754590E+02 -0.28413368875E+01 -0.21134923335E+02  0.31886062478E+02  0.00000000000E+00 0. -1.
         11    1    3    3    0    0 -0.26114845696E+02  0.85251703577E+00  0.31404691991E+02  0.40852988022E+02  0.51100000000E-03 0. -1.
        -11    1    3    3    0    0  0.51235170373E+01 -0.54012828368E+01 -0.46807520576E+01  0.87939594723E+01  0.51100000000E-03 0.  1.
         12    1    3    3    0    0 -0.27144259317E+01  0.73901026885E+01 -0.55890165986E+01  0.96549900272E+01  0.00000000000E+00 0. -1.
</event>
<event>
 7    1  0.7579108E-012  0.5930194E+02  0.7816164E-02  0.1266605E+00
        -11   -1    0    0    0    0  0.00000000000E+00  0.00000000000E+00  0.45593999997E+02  0.45594000000E+02  0.51100000000E-03 0. -1.
         11   -1    0    0    0    0 -0.00000000000E+00 -0.00000000000E+00 -0.45593999997E+02  0.45594000000E+02  0.51100000000E-03 0.  1.
    9900012    2    1    2    0    0 -0.21401922059E+02 -0.22780389140E+02  0.63033599750E+01  0.59301941225E+02  0.49999994889E+02 0.  0.
         12    1    1    2    0    0  0.21401922059E+02  0.22780389140E+02 -0.63033599750E+01  0.31886058775E+02  0.00000000000E+00 0. -1.
         11    1    3    3    0    0  0.12814017835E+02 -0.55167428460E+01 -0.45062684466E+01  0.14660830818E+02  0.51100000000E-03 0. -1.
        -11    1    3    3    0    0 -0.15519492772E+02 -0.12694419225E+02 -0.38889645949E+01  0.20423686769E+02  0.51100000000E-03 0.  1.
         12    1    3    3    0    0 -0.18696447122E+02 -0.45692270694E+01  0.14698593016E+02  0.24217423638E+02  0.00000000000E+00 0. -1.
</event>
<event>
 7    1  0.7579108E-012  0.5930193E+02  0.7816164E-02  0.1266605E+00
        -11   -1    0    0    0    0  0.00000000000E+00  0.00000000000E+00  0.45593999997E+02  0.45594000000E+02  0.51100000000E-03 0.  1.
         11   -1    0    0    0    0 -0.00000000000E+00 -0.00000000000E+00 -0.45593999997E+02  0.45594000000E+02  0.51100000000E-03 0. -1.
    9900012    2    1    2    0    0  0.16192845888E+02  0.59392785913E+01  0.26818611154E+02  0.59301934198E+02  0.49999982072E+02 0.  0.
         12    1    1    2    0    0 -0.16192845888E+02 -0.59392785913E+01 -0.26818611154E+02  0.31886065802E+02  0.00000000000E+00 0. -1.
         11    1    3    3    0    0  0.11903338132E+02  0.16271303154E+02 -0.24319026321E+01  0.20306622459E+02  0.51100000000E-03 0. -1.
        -11    1    3    3    0    0  0.13693156334E+02 -0.34410318614E+01  0.15446281651E+02  0.20926797360E+02  0.51100000000E-03 0.  1.
         12    1    3    3    0    0 -0.94036485784E+01 -0.68909927013E+01  0.13804232135E+02  0.18068514378E+02  0.00000000000E+00 0. -1.
</event>
<event>
 7    1  0.7579108E-012  0.5930196E+02  0.7816164E-02  0.1266605E+00
        -11   -1    0    0    0    0  0.00000000000E+00  0.00000000000E+00  0.45593999997E+02  0.45594000000E+02  0.51100000000E-03 0.  1.
         11   -1    0    0    0    0 -0.00000000000E+00 -0.00000000000E+00 -0.45593999997E+02  0.45594000000E+02  0.51100000000E-03 0. -1.
    9900012    2    1    2    0    0  0.23357492381E+02  0.19983451807E+02  0.84740044422E+01  0.59301959987E+02  0.50000029105E+02 0.  0.
         12    1    1    2    0    0 -0.23357492381E+02 -0.19983451807E+02 -0.84740044422E+01  0.31886040013E+02  0.00000000000E+00 0. -1.
         11    1    3    3    0    0  0.23304253674E+02  0.24538069103E+02  0.21148914734E+01  0.33906899605E+02  0.51100000000E-03 0. -1.
        -11    1    3    3    0    0  0.65117390897E+01 -0.59326809046E+01  0.13211113633E+02  0.15878695550E+02  0.51100000000E-03 0.  1.
         12    1    3    3    0    0 -0.64585003832E+01  0.13780636089E+01 -0.68520006640E+01  0.95163648316E+01  0.00000000000E+00 0. -1.
</event>
<event>
 7    1  0.7579108E-012  0.5930195E+02  0.7816164E-02  0.1266605E+00
        -11   -1    0    0    0    0  0.00000000000E+00  0.00000000000E+00  0.45593999997E+02  0.45594000000E+02  0.51100000000E-03 0.  1.
         11   -1    0    0    0    0 -0.00000000000E+00 -0.00000000000E+00 -0.45593999997E+02  0.45594000000E+02  0.51100000000E-03 0. -1.
    9900012    2    1    2    0    0  0.21141805277E+02 -0.18864872311E+02  0.14623991672E+02  0.59301945523E+02  0.50000002728E+02 0.  0.
         12    1    1    2    0    0 -0.21141805277E+02  0.18864872311E+02 -0.14623991672E+02  0.31886054477E+02  0.00000000000E+00 0. -1.
         11    1    3    3    0    0 -0.60264747331E+01  0.26190791192E+01  0.18308415070E+02  0.19451890288E+02  0.51100000000E-03 0. -1.
        -11    1    3    3    0    0  0.10734226692E+02 -0.19860030461E+02  0.12635336838E+01  0.22610637987E+02  0.51100000000E-03 0.  1.
         12    1    3    3    0    0  0.16434053318E+02 -0.16239209689E+01 -0.49479570811E+01  0.17239417248E+02  0.00000000000E+00 0. -1.
</event>
<event>
 7    1  0.7579108E-012  0.5930194E+02  0.7816164E-02  0.1266605E+00
        -11   -1    0    0    0    0  0.00000000000E+00  0.00000000000E+00  0.45593999997E+02  0.45594000000E+02  0.51100000000E-03 0.  1.
         11   -1    0    0    0    0 -0.00000000000E+00 -0.00000000000E+00 -0.45593999997E+02  0.45594000000E+02  0.51100000000E-03 0. -1.
    9900012    2    1    2    0    0 -0.14823745582E+02  0.27702619013E+02  0.54352862146E+01  0.59301939260E+02  0.49999991305E+02 0.  0.
         12    1    1    2    0    0  0.14823745582E+02 -0.27702619013E+02 -0.54352862146E+01  0.31886060740E+02  0.00000000000E+00 0. -1.
         11    1    3    3    0    0 -0.17799893944E+02  0.40145279747E+01 -0.35237421315E+01  0.18584117362E+02  0.51100000000E-03 0. -1.
        -11    1    3    3    0    0  0.45100327394E+01  0.31447754250E+02  0.79038470284E+01  0.32737935805E+02  0.51100000000E-03 0.  1.
         12    1    3    3    0    0 -0.15338843779E+01 -0.77596632111E+01  0.10551813178E+01  0.79798860924E+01  0.00000000000E+00 0. -1.
</event>
<event>
 7    1  0.7579108E-012  0.5930183E+02  0.7816164E-02  0.1266605E+00
        -11   -1    0    0    0    0  0.00000000000E+00  0.00000000000E+00  0.45593999997E+02  0.45594000000E+02  0.51100000000E-03 0. -1.
         11   -1    0    0    0    0 -0.00000000000E+00 -0.00000000000E+00 -0.45593999997E+02  0.45594000000E+02  0.51100000000E-03 0.  1.
    9900012    2    1    2    0    0 -0.11660698945E+02 -0.25455825644E+02 -0.15256377822E+02  0.59301827082E+02  0.49999786719E+02 0.  0.
         12    1    1    2    0    0  0.11660698945E+02  0.25455825644E+02  0.15256377822E+02  0.31886172918E+02  0.00000000000E+00 0. -1.
         11    1    3    3    0    0 -0.13883213525E+02  0.38597933073E+01 -0.81646767698E+00  0.14432887510E+02  0.51100000000E-03 0. -1.
        -11    1    3    3    0    0  0.14491037739E+02 -0.24375632181E+02 -0.14025700655E+02  0.31636717562E+02  0.51100000000E-03 0.  1.
        -12    1    3    3    0    0 -0.12268523159E+02 -0.49399867707E+01 -0.41420948916E+00  0.13232222009E+02  0.00000000000E+00 0.  1.
</event>
<event>
 7    1  0.7579108E-012  0.5930195E+02  0.7816164E-02  0.1266605E+00
        -11   -1    0    0    0    0  0.00000000000E+00  0.00000000000E+00  0.45593999997E+02  0.45594000000E+02  0.51100000000E-03 0.  1.
         11   -1    0    0    0    0 -0.00000000000E+00 -0.00000000000E+00 -0.45593999997E+02  0.45594000000E+02  0.51100000000E-03 0. -1.
    9900012    2    1    2    0    0 -0.18662281940E+02  0.21425028770E+02  0.14470918048E+02  0.59301951418E+02  0.50000013479E+02 0.  0.
         12    1    1    2    0    0  0.18662281940E+02 -0.21425028770E+02 -0.14470918048E+02  0.31886048582E+02  0.00000000000E+00 0. -1.
         11    1    3    3    0    0  0.28694653598E+01 -0.13059985488E+01 -0.19981529016E+01  0.37325700181E+01  0.51100000000E-03 0. -1.
        -11    1    3    3    0    0 -0.30776975900E+02  0.99906676498E+01 -0.58195622432E+00  0.32363163612E+02  0.51100000000E-03 0.  1.
        -12    1    3    3    0    0  0.92452286003E+01  0.12740359669E+02  0.17051027174E+02  0.23206217788E+02  0.00000000000E+00 0.  1.
</event>
<event>
 7    1  0.7579108E-012  0.5930192E+02  0.7816164E-02  0.1266605E+00
        -11   -1    0    0    0    0  0.00000000000E+00  0.00000000000E+00  0.45593999997E+02  0.45594000000E+02  0.51100000000E-03 0. -1.
         11   -1    0    0    0    0 -0.00000000000E+00 -0.00000000000E+00 -0.45593999997E+02  0.45594000000E+02  0.51100000000E-03 0.  1.
    9900012    2    1    2    0    0 -0.10498951616E+02 -0.19775215611E+02 -0.22703194199E+02  0.59301918956E+02  0.49999954276E+02 0.  0.
         12    1    1    2    0    0  0.10498951616E+02  0.19775215611E+02  0.22703194199E+02  0.31886081044E+02  0.00000000000E+00 0. -1.
         11    1    3    3    0    0 -0.24041940240E+02  0.10692864522E+01  0.19678360908E+01  0.24146027482E+02  0.51100000000E-03 0. -1.
        -11    1    3    3    0    0  0.19431828235E+01 -0.29358042832E+01 -0.51355702344E+01  0.62264747786E+01  0.51100000000E-03 0.  1.
         12    1    3    3    0    0  0.11599805801E+02 -0.17908697780E+02 -0.19535460055E+02  0.28929416696E+02  0.00000000000E+00 0. -1.
</event>
<event>
 7    1  0.7579108E-012  0.5930188E+02  0.7816164E-02  0.1266605E+00
        -11   -1    0    0    0    0  0.00000000000E+00  0.00000000000E+00  0.45593999997E+02  0.45594000000E+02  0.51100000000E-03 0.  1.
         11   -1    0    0    0    0 -0.00000000000E+00 -0.00000000000E+00 -0.45593999997E+02  0.45594000000E+02  0.51100000000E-03 0. -1.
    9900012    2    1    2    0    0 -0.20510948997E+02  0.52476948743E+01  0.23842969316E+02  0.59301882079E+02  0.49999887021E+02 0.  0.
         12    1    1    2    0    0  0.20510948997E+02 -0.52476948743E+01 -0.23842969316E+02  0.31886117921E+02  0.00000000000E+00 0. -1.
         11    1    3    3    0    0 -0.97891980178E+01 -0.14192192414E+02  0.72081165656E+01  0.18686991947E+02  0.51100000000E-03 0.  1.
        -11    1    3    3    0    0 -0.16883268095E+02  0.22278151927E+02  0.69731953497E+01  0.28809481920E+02  0.51100000000E-03 0. -1.
         12    1    3    3    0    0  0.61615171157E+01 -0.28382646382E+01  0.96616574007E+01  0.11805408212E+02  0.00000000000E+00 0. -1.
</event>
<event>
 7    1  0.7579108E-012  0.5930205E+02  0.7816164E-02  0.1266604E+00
        -11   -1    0    0    0    0  0.00000000000E+00  0.00000000000E+00  0.45593999997E+02  0.45594000000E+02  0.51100000000E-03 0. -1.
         11   -1    0    0    0    0 -0.00000000000E+00 -0.00000000000E+00 -0.45593999997E+02  0.45594000000E+02  0.51100000000E-03 0.  1.
    9900012    2    1    2    0    0  0.17189077674E+02  0.23330674743E+02  0.13301472354E+02  0.59302047889E+02  0.50000189418E+02 0.  0.
         12    1    1    2    0    0 -0.17189077674E+02 -0.23330674743E+02 -0.13301472354E+02  0.31885952111E+02  0.00000000000E+00 0. -1.
         11    1    3    3    0    0 -0.28247528022E+01  0.93181791794E+00  0.57477746116E+01  0.64718178491E+01  0.51100000000E-03 0. -1.
        -11    1    3    3    0    0  0.12672135283E+02 -0.32357048021E+01 -0.13544099806E+02  0.18828049235E+02  0.51100000000E-03 0.  1.
        -12    1    3    3    0    0  0.73416951934E+01  0.25634561627E+02  0.21097797548E+02  0.34002180805E+02  0.00000000000E+00 0.  1.
</event>
<event>
 7    1  0.7579108E-012  0.5930192E+02  0.7816164E-02  0.1266605E+00
        -11   -1    0    0    0    0  0.00000000000E+00  0.00000000000E+00  0.45593999997E+02  0.45594000000E+02  0.51100000000E-03 0.  1.
         11   -1    0    0    0    0 -0.00000000000E+00 -0.00000000000E+00 -0.45593999997E+02  0.45594000000E+02  0.51100000000E-03 0. -1.
    9900012    2    1    2    0    0  0.26952742316E+01  0.26998399867E+02  0.16749456255E+02  0.59301915521E+02  0.49999948011E+02 0.  0.
         12    1    1    2    0    0 -0.26952742316E+01 -0.26998399867E+02 -0.16749456255E+02  0.31886084479E+02  0.00000000000E+00 0. -1.
         11    1    3    3    0    0  0.33169146303E+00  0.85462606237E+01  0.15176129809E+02  0.17420203963E+02  0.51100000000E-03 0.  1.
        -11    1    3    3    0    0  0.36351550322E+01  0.24607085122E+02 -0.11478973881E+02  0.27395069482E+02  0.51100000000E-03 0. -1.
        -12    1    3    3    0    0 -0.12715722636E+01 -0.61549458791E+01  0.13052300328E+02  0.14486642076E+02  0.00000000000E+00 0.  1.
</event>
<event>
 7    1  0.7579108E-012  0.5930213E+02  0.7816164E-02  0.1266604E+00
        -11   -1    0    0    0    0  0.00000000000E+00  0.00000000000E+00  0.45593999997E+02  0.45594000000E+02  0.51100000000E-03 0.  1.
         11   -1    0    0    0    0 -0.00000000000E+00 -0.00000000000E+00 -0.45593999997E+02  0.45594000000E+02  0.51100000000E-03 0. -1.
    9900012    2    1    2    0    0  0.28080935210E+02  0.12709185523E+02  0.81637270528E+01  0.59302129174E+02  0.50000337662E+02 0.  0.
         12    1    1    2    0    0 -0.28080935210E+02 -0.12709185523E+02 -0.81637270528E+01  0.31885870826E+02  0.00000000000E+00 0. -1.
         11    1    3    3    0    0 -0.12505065909E+02  0.38150067337E+01  0.25384105753E+01  0.13318201015E+02  0.51100000000E-03 0. -1.
        -11    1    3    3    0    0  0.15343953381E+02 -0.41745639115E+01 -0.32008088056E+01  0.16220637055E+02  0.51100000000E-03 0.  1.
         12    1    3    3    0    0  0.25242047739E+02  0.13068742701E+02  0.88261252832E+01  0.29763291104E+02  0.00000000000E+00 0. -1.
</event>
<event>
 7    1  0.7579108E-012  0.5930190E+02  0.7816164E-02  0.1266605E+00
        -11   -1    0    0    0    0  0.00000000000E+00  0.00000000000E+00  0.45593999997E+02  0.45594000000E+02  0.51100000000E-03 0.  1.
         11   -1    0    0    0    0 -0.00000000000E+00 -0.00000000000E+00 -0.45593999997E+02  0.45594000000E+02  0.51100000000E-03 0. -1.
    9900012    2    1    2    0    0 -0.19948818409E+02  0.24874233316E+02 -0.20183128729E+00  0.59301896838E+02  0.49999913937E+02 0.  0.
         12    1    1    2    0    0  0.19948818409E+02 -0.24874233316E+02  0.20183128729E+00  0.31886103162E+02  0.00000000000E+00 0. -1.
         11    1    3    3    0    0 -0.23352602043E+01  0.34086940468E+02 -0.64052506725E+01  0.34762050963E+02  0.51100000000E-03 0.  1.
        -11    1    3    3    0    0 -0.64718514810E+01 -0.86951718399E+01  0.76863224205E+01  0.13287980566E+02  0.51100000000E-03 0. -1.
        -12    1    3    3    0    0 -0.11141706724E+02 -0.51753531181E+00 -0.14829030352E+01  0.11251865309E+02  0.00000000000E+00 0.  1.
</event>
<event>
 7    1  0.7579108E-012  0.5930186E+02  0.7816164E-02  0.1266605E+00
        -11   -1    0    0    0    0  0.00000000000E+00  0.00000000000E+00  0.45593999997E+02  0.45594000000E+02  0.51100000000E-03 0.  1.
         11   -1    0    0    0    0 -0.00000000000E+00 -0.00000000000E+00 -0.45593999997E+02  0.45594000000E+02  0.51100000000E-03 0. -1.
    9900012    2    1    2    0    0  0.21187268763E+01  0.91345378248E+01  0.30476168587E+02  0.59301864509E+02  0.49999854976E+02 0.  0.
         12    1    1    2    0    0 -0.21187268763E+01 -0.91345378248E+01 -0.30476168587E+02  0.31886135491E+02  0.00000000000E+00 0. -1.
         11    1    3    3    0    0 -0.81576849727E+01  0.10890819133E+01 -0.11702467307E+01  0.83128455537E+01  0.51100000000E-03 0. -1.
        -11    1    3    3    0    0  0.11045226759E+02 -0.46478223741E+01  0.35687620968E+02  0.37645790968E+02  0.51100000000E-03 0.  1.
        -12    1    3    3    0    0 -0.76881491031E+00  0.12693278286E+02 -0.40412056505E+01  0.13343227987E+02  0.00000000000E+00 0.  1.
</event>
<event>
 7    1  0.7579108E-012  0.5930194E+02  0.7816164E-02  0.1266605E+00
        -11   -1    0    0    0    0  0.00000000000E+00  0.00000000000E+00  0.45593999997E+02  0.45594000000E+02  0.51100000000E-03 0.  1.
         11   -1    0    0    0    0 -0.00000000000E+00 -0.00000000000E+00 -0.45593999997E+02  0.45594000000E+02  0.51100000000E-03 0. -1.
    9900012    2    1    2    0    0  0.22933067356E+02  0.11420378321E+02  0.18983421364E+02  0.59301938688E+02  0.49999990261E+02 0.  0.
         12    1    1    2    0    0 -0.22933067356E+02 -0.11420378321E+02 -0.18983421364E+02  0.31886061312E+02  0.00000000000E+00 0. -1.
         11    1    3    3    0    0  0.41849226586E+01 -0.10921823186E+02  0.21962813926E+01  0.11900565179E+02  0.51100000000E-03 0. -1.
        -11    1    3    3    0    0  0.16254951171E+02  0.14794787734E+02  0.26772135755E+02  0.34638943904E+02  0.51100000000E-03 0.  1.
        -12    1    3    3    0    0  0.24931935259E+01  0.75474137728E+01 -0.99849957829E+01  0.12762429604E+02  0.00000000000E+00 0.  1.
</event>
<event>
 7    1  0.7579108E-012  0.5930190E+02  0.7816164E-02  0.1266605E+00
        -11   -1    0    0    0    0  0.00000000000E+00  0.00000000000E+00  0.45593999997E+02  0.45594000000E+02  0.51100000000E-03 0. -1.
         11   -1    0    0    0    0 -0.00000000000E+00 -0.00000000000E+00 -0.45593999997E+02  0.45594000000E+02  0.51100000000E-03 0.  1.
    9900012    2    1    2    0    0 -0.18328502683E+02 -0.16568644613E+02 -0.20156129029E+02  0.59301897505E+02  0.49999915153E+02 0.  0.
         12    1    1    2    0    0  0.18328502683E+02  0.16568644613E+02  0.20156129029E+02  0.31886102495E+02  0.00000000000E+00 0. -1.
         11    1    3    3    0    0 -0.36685027339E+00  0.13234800197E+02 -0.11658419038E+02  0.17641237204E+02  0.51100000000E-03 0. -1.
        -11    1    3    3    0    0 -0.18113499792E+02 -0.10158547625E+02 -0.71693785721E+01  0.21970319842E+02  0.51100000000E-03 0.  1.
         12    1    3    3    0    0  0.15184738313E+00 -0.19644897185E+02 -0.13283314185E+01  0.19690340459E+02  0.00000000000E+00 0. -1.
</event>
<event>
 7    1  0.7579108E-012  0.5930196E+02  0.7816164E-02  0.1266605E+00
        -11   -1    0    0    0    0  0.00000000000E+00  0.00000000000E+00  0.45593999997E+02  0.45594000000E+02  0.51100000000E-03 0. -1.
         11   -1    0    0    0    0 -0.00000000000E+00 -0.00000000000E+00 -0.45593999997E+02  0.45594000000E+02  0.51100000000E-03 0.  1.
    9900012    2    1    2    0    0  0.14878396788E+02 -0.27070741364E+02 -0.79074598367E+01  0.59301958383E+02  0.50000026180E+02 0.  0.
         12    1    1    2    0    0 -0.14878396788E+02  0.27070741364E+02  0.79074598367E+01  0.31886041617E+02  0.00000000000E+00 0. -1.
         11    1    3    3    0    0  0.14010388544E+02 -0.13936598981E+02  0.80767482433E+01  0.21348387311E+02  0.51100000000E-03 0. -1.
        -11    1    3    3    0    0 -0.78020242564E+01  0.71298017988E+01 -0.11199958290E+02  0.15399503958E+02  0.51100000000E-03 0.  1.
        -12    1    3    3    0    0  0.86700325000E+01 -0.20263944181E+02 -0.47842497896E+01  0.22554067114E+02  0.00000000000E+00 0.  1.
</event>
<event>
 7    1  0.7579108E-012  0.5930194E+02  0.7816164E-02  0.1266605E+00
        -11   -1    0    0    0    0  0.00000000000E+00  0.00000000000E+00  0.45593999997E+02  0.45594000000E+02  0.51100000000E-03 0.  1.
         11   -1    0    0    0    0 -0.00000000000E+00 -0.00000000000E+00 -0.45593999997E+02  0.45594000000E+02  0.51100000000E-03 0. -1.
    9900012    2    1    2    0    0  0.19441735124E+02 -0.23536286328E+01  0.25163475124E+02  0.59301935447E+02  0.49999984351E+02 0.  0.
         12    1    1    2    0    0 -0.19441735124E+02  0.23536286328E+01 -0.25163475124E+02  0.31886064553E+02  0.00000000000E+00 0. -1.
         11    1    3    3    0    0  0.20306980139E+01 -0.18285587982E+02  0.11691937634E+02  0.21798804283E+02  0.51100000000E-03 0. -1.
        -11    1    3    3    0    0  0.86063078581E+01  0.17626998248E+02  0.18718892803E+02  0.27114139305E+02  0.51100000000E-03 0.  1.
         12    1    3    3    0    0  0.88047292521E+01 -0.16950388996E+01 -0.52473553133E+01  0.10388991860E+02  0.00000000000E+00 0. -1.
</event>
<event>
 7    1  0.7579108E-012  0.5930194E+02  0.7816164E-02  0.1266605E+00
        -11   -1    0    0    0    0  0.00000000000E+00  0.00000000000E+00  0.45593999997E+02  0.45594000000E+02  0.51100000000E-03 0. -1.
         11   -1    0    0    0    0 -0.00000000000E+00 -0.00000000000E+00 -0.45593999997E+02  0.45594000000E+02  0.51100000000E-03 0.  1.
    9900012    2    1    2    0    0 -0.31714283660E+02 -0.77784829034E+00  0.32124647473E+01  0.59301940886E+02  0.49999994271E+02 0.  0.
         12    1    1    2    0    0  0.31714283660E+02  0.77784829034E+00 -0.32124647473E+01  0.31886059114E+02  0.00000000000E+00 0. -1.
         11    1    3    3    0    0 -0.26801228359E+02  0.17662025365E+02 -0.11661442654E+02  0.34150288821E+02  0.51100000000E-03 0. -1.
        -11    1    3    3    0    0 -0.90829214691E+00 -0.99504824576E+01  0.39382368390E+01  0.10739963008E+02  0.51100000000E-03 0.  1.
         12    1    3    3    0    0 -0.40047631547E+01 -0.84893911974E+01  0.10935670562E+02  0.14411689057E+02  0.00000000000E+00 0. -1.
</event>
<event>
 7    1  0.7579108E-012  0.5930193E+02  0.7816164E-02  0.1266605E+00
        -11   -1    0    0    0    0  0.00000000000E+00  0.00000000000E+00  0.45593999997E+02  0.45594000000E+02  0.51100000000E-03 0.  1.
         11   -1    0    0    0    0 -0.00000000000E+00 -0.00000000000E+00 -0.45593999997E+02  0.45594000000E+02  0.51100000000E-03 0. -1.
    9900012    2    1    2    0    0 -0.19050130075E+02 -0.23772689462E+02  0.94166425956E+01  0.59301931288E+02  0.49999976766E+02 0.  0.
         12    1    1    2    0    0  0.19050130075E+02  0.23772689462E+02 -0.94166425956E+01  0.31886068712E+02  0.00000000000E+00 0. -1.
         11    1    3    3    0    0 -0.64507903448E+01 -0.22447874009E+02  0.19037806013E+02  0.30132338138E+02  0.51100000000E-03 0.  1.
        -11    1    3    3    0    0 -0.17379556287E+02  0.49197195409E+01 -0.19226351624E+01  0.18164502287E+02  0.51100000000E-03 0. -1.
        -12    1    3    3    0    0  0.47802165571E+01 -0.62445349936E+01 -0.76985282552E+01  0.11005090864E+02  0.00000000000E+00 0.  1.
</event>
<event>
 7    1  0.7579108E-012  0.5930196E+02  0.7816164E-02  0.1266605E+00
        -11   -1    0    0    0    0  0.00000000000E+00  0.00000000000E+00  0.45593999997E+02  0.45594000000E+02  0.51100000000E-03 0.  1.
         11   -1    0    0    0    0 -0.00000000000E+00 -0.00000000000E+00 -0.45593999997E+02  0.45594000000E+02  0.51100000000E-03 0. -1.
    9900012    2    1    2    0    0 -0.10438918880E+02 -0.78962654708E+01  0.29075724376E+02  0.59301956286E+02  0.50000022355E+02 0.  0.
         12    1    1    2    0    0  0.10438918880E+02  0.78962654708E+01 -0.29075724376E+02  0.31886043714E+02  0.00000000000E+00 0. -1.
         11    1    3    3    0    0  0.90757276516E+01  0.72555068754E+01  0.14018137988E+02  0.18207674353E+02  0.51100000000E-03 0. -1.
        -11    1    3    3    0    0 -0.27155651467E+02 -0.97131395709E+01  0.10834416211E+02  0.30808425176E+02  0.51100000000E-03 0.  1.
        -12    1    3    3    0    0  0.76410049350E+01 -0.54386327752E+01  0.42231701767E+01  0.10285856757E+02  0.00000000000E+00 0.  1.
</event>
<event>
 7    1  0.7579108E-012  0.5930194E+02  0.7816164E-02  0.1266605E+00
        -11   -1    0    0    0    0  0.00000000000E+00  0.00000000000E+00  0.45593999997E+02  0.45594000000E+02  0.51100000000E-03 0.  1.
         11   -1    0    0    0    0 -0.00000000000E+00 -0.00000000000E+00 -0.45593999997E+02  0.45594000000E+02  0.51100000000E-03 0. -1.
    9900012    2    1    2    0    0 -0.41823091478E+00  0.31618911074E+02  0.40976413082E+01  0.59301935350E+02  0.49999984174E+02 0.  0.
         12    1    1    2    0    0  0.41823091478E+00 -0.31618911074E+02 -0.40976413082E+01  0.31886064650E+02  0.00000000000E+00 0. -1.
         11    1    3    3    0    0  0.94844812773E+01  0.12813823394E+02 -0.18031810234E+02  0.24068561146E+02  0.51100000000E-03 0. -1.
        -11    1    3    3    0    0 -0.27985349357E+01  0.17398703610E+02  0.79939887296E+01  0.19350724564E+02  0.51100000000E-03 0.  1.
         12    1    3    3    0    0 -0.71041772564E+01  0.14063840700E+01  0.14135462813E+02  0.15882649639E+02  0.00000000000E+00 0. -1.
</event>
<event>
 7    1  0.7579108E-012  0.5930199E+02  0.7816164E-02  0.1266605E+00
        -11   -1    0    0    0    0  0.00000000000E+00  0.00000000000E+00  0.45593999997E+02  0.45594000000E+02  0.51100000000E-03 0. -1.
         11   -1    0    0    0    0 -0.00000000000E+00 -0.00000000000E+00 -0.45593999997E+02  0.45594000000E+02  0.51100000000E-03 0.  1.
    9900012    2    1    2    0    0 -0.14504202869E+01  0.16158690578E+02 -0.27450153671E+02  0.59301985248E+02  0.50000075176E+02 0.  0.
         12    1    1    2    0    0  0.14504202869E+01 -0.16158690578E+02  0.27450153671E+02  0.31886014752E+02  0.00000000000E+00 0. -1.
         11    1    3    3    0    0  0.57979856317E+01  0.80869418221E+00  0.94190539251E+01  0.11090049629E+02  0.51100000000E-03 0. -1.
        -11    1    3    3    0    0  0.64993807923E+01  0.15649194126E+02 -0.16622414288E+02  0.23736972943E+02  0.51100000000E-03 0.  1.
         12    1    3    3    0    0 -0.13747786711E+02 -0.29919773059E+00 -0.20246793308E+02  0.24474962676E+02  0.00000000000E+00 0. -1.
</event>
<event>
 7    1  0.7579108E-012  0.5930195E+02  0.7816164E-02  0.1266605E+00
        -11   -1    0    0    0    0  0.00000000000E+00  0.00000000000E+00  0.45593999997E+02  0.45594000000E+02  0.51100000000E-03 0. -1.
         11   -1    0    0    0    0 -0.00000000000E+00 -0.00000000000E+00 -0.45593999997E+02  0.45594000000E+02  0.51100000000E-03 0.  1.
    9900012    2    1    2    0    0  0.10155548443E+02  0.16962578689E+02 -0.25017109733E+02  0.59301952591E+02  0.50000015618E+02 0.  0.
         12    1    1    2    0    0 -0.10155548443E+02 -0.16962578689E+02  0.25017109733E+02  0.31886047409E+02  0.00000000000E+00 0. -1.
         11    1    3    3    0    0 -0.55224587326E+01  0.22531501986E+02  0.30373732227E+01  0.23396405035E+02  0.51100000000E-03 0. -1.
        -11    1    3    3    0    0  0.16386989098E+02  0.40566696209E+00 -0.20601665994E+02  0.26327297989E+02  0.51100000000E-03 0.  1.
        -12    1    3    3    0    0 -0.70898192252E+00 -0.59745902589E+01 -0.74528169614E+01  0.95782495681E+01  0.00000000000E+00 0.  1.
</event>
<event>
 7    1  0.7579108E-012  0.5930190E+02  0.7816164E-02  0.1266605E+00
        -11   -1    0    0    0    0  0.00000000000E+00  0.00000000000E+00  0.45593999997E+02  0.45594000000E+02  0.51100000000E-03 0. -1.
         11   -1    0    0    0    0 -0.00000000000E+00 -0.00000000000E+00 -0.45593999997E+02  0.45594000000E+02  0.51100000000E-03 0.  1.
    9900012    2    1    2    0    0 -0.81414964386E+01  0.26462690531E+02 -0.15816624291E+02  0.59301897097E+02  0.49999914409E+02 0.  0.
         12    1    1    2    0    0  0.81414964386E+01 -0.26462690531E+02  0.15816624291E+02  0.31886102903E+02  0.00000000000E+00 0. -1.
         11    1    3    3    0    0 -0.11638946951E+02  0.84544181874E+01  0.92581341875E+01  0.17107171652E+02  0.51100000000E-03 0. -1.
        -11    1    3    3    0    0  0.67637502431E+01  0.24871490907E+02 -0.22365228795E+02  0.34125398703E+02  0.51100000000E-03 0.  1.
        -12    1    3    3    0    0 -0.32662997305E+01 -0.68632185633E+01 -0.27095296829E+01  0.80693267426E+01  0.00000000000E+00 0.  1.
</event>
<event>
 7    1  0.7579108E-012  0.5930193E+02  0.7816164E-02  0.1266605E+00
        -11   -1    0    0    0    0  0.00000000000E+00  0.00000000000E+00  0.45593999997E+02  0.45594000000E+02  0.51100000000E-03 0.  1.
         11   -1    0    0    0    0 -0.00000000000E+00 -0.00000000000E+00 -0.45593999997E+02  0.45594000000E+02  0.51100000000E-03 0. -1.
    9900012    2    1    2    0    0  0.28326882969E+02  0.14259763042E+02 -0.33118090775E+01  0.59301933763E+02  0.49999981279E+02 0.  0.
         12    1    1    2    0    0 -0.28326882969E+02 -0.14259763042E+02  0.33118090775E+01  0.31886066237E+02  0.00000000000E+00 0. -1.
         11    1    3    3    0    0  0.23571827026E+02  0.18339003054E+02 -0.21257567103E+02  0.36658344504E+02  0.51100000000E-03 0. -1.
        -11    1    3    3    0    0  0.79070217335E+01 -0.16866775897E+01  0.16599413128E+02  0.18463650518E+02  0.51100000000E-03 0.  1.
         12    1    3    3    0    0 -0.31519657911E+01 -0.23925624223E+01  0.13463448975E+01  0.41799387407E+01  0.00000000000E+00 0. -1.
</event>
<event>
 7    1  0.7579108E-012  0.5930194E+02  0.7816164E-02  0.1266605E+00
        -11   -1    0    0    0    0  0.00000000000E+00  0.00000000000E+00  0.45593999997E+02  0.45594000000E+02  0.51100000000E-03 0.  1.
         11   -1    0    0    0    0 -0.00000000000E+00 -0.00000000000E+00 -0.45593999997E+02  0.45594000000E+02  0.51100000000E-03 0. -1.
    9900012    2    1    2    0    0 -0.24466865927E+01 -0.65333620836E+01  0.31113501497E+02  0.59301936104E+02  0.49999985549E+02 0.  0.
         12    1    1    2    0    0  0.24466865927E+01  0.65333620836E+01 -0.31113501497E+02  0.31886063896E+02  0.00000000000E+00 0. -1.
         11    1    3    3    0    0  0.35427104449E+01 -0.76249553607E+01  0.12943779695E+01  0.85068299700E+01  0.51100000000E-03 0. -1.
        -11    1    3    3    0    0  0.63445323758E+00  0.12806477497E+02  0.34294094862E+02  0.36612748319E+02  0.51100000000E-03 0.  1.
        -12    1    3    3    0    0 -0.66238502752E+01 -0.11714884220E+02 -0.44749713349E+01  0.14182357815E+02  0.00000000000E+00 0.  1.
</event>
<event>
 7    1  0.7579108E-012  0.5930197E+02  0.7816164E-02  0.1266605E+00
        -11   -1    0    0    0    0  0.00000000000E+00  0.00000000000E+00  0.45593999997E+02  0.45594000000E+02  0.51100000000E-03 0. -1.
         11   -1    0    0    0    0 -0.00000000000E+00 -0.00000000000E+00 -0.45593999997E+02  0.45594000000E+02  0.51100000000E-03 0.  1.
    9900012    2    1    2    0    0  0.29728097624E+02 -0.88581400056E+01 -0.73818859977E+01  0.59301973694E+02  0.50000054103E+02 0.  0.
         12    1    1    2    0    0 -0.29728097624E+02  0.88581400056E+01  0.73818859977E+01  0.31886026306E+02  0.00000000000E+00 0. -1.
         11    1    3    3    0    0  0.27675524193E+01 -0.62240980993E+01  0.68056613580E+01  0.96289028620E+01  0.51100000000E-03 0. -1.
        -11    1    3    3    0    0  0.16988439718E+02  0.44641313071E+01 -0.26834834820E+02  0.32072479051E+02  0.51100000000E-03 0.  1.
        -12    1    3    3    0    0  0.99721054876E+01 -0.70981732134E+01  0.12647287465E+02  0.17600591781E+02  0.00000000000E+00 0.  1.
</event>
<event>
 7    1  0.7579108E-012  0.5930196E+02  0.7816164E-02  0.1266605E+00
        -11   -1    0    0    0    0  0.00000000000E+00  0.00000000000E+00  0.45593999997E+02  0.45594000000E+02  0.51100000000E-03 0.  1.
         11   -1    0    0    0    0 -0.00000000000E+00 -0.00000000000E+00 -0.45593999997E+02  0.45594000000E+02  0.51100000000E-03 0. -1.
    9900012    2    1    2    0    0  0.30779440657E+02 -0.59190750980E+01  0.58575041243E+01  0.59301956474E+02  0.50000022699E+02 0.  0.
         12    1    1    2    0    0 -0.30779440657E+02  0.59190750980E+01 -0.58575041243E+01  0.31886043526E+02  0.00000000000E+00 0. -1.
         11    1    3    3    0    0 -0.90784215765E+01  0.49737105704E+01 -0.54838610263E+01  0.11714446943E+02  0.51100000000E-03 0. -1.
        -11    1    3    3    0    0  0.17215645207E+02 -0.18769405514E+01  0.15040390540E+02  0.22937190185E+02  0.51100000000E-03 0.  1.
         12    1    3    3    0    0  0.22642217027E+02 -0.90158451171E+01 -0.36990253890E+01  0.24650319347E+02  0.00000000000E+00 0. -1.
</event>
<event>
 7    1  0.7579108E-012  0.5930194E+02  0.7816164E-02  0.1266605E+00
        -11   -1    0    0    0    0  0.00000000000E+00  0.00000000000E+00  0.45593999997E+02  0.45594000000E+02  0.51100000000E-03 0. -1.
         11   -1    0    0    0    0 -0.00000000000E+00 -0.00000000000E+00 -0.45593999997E+02  0.45594000000E+02  0.51100000000E-03 0.  1.
    9900012    2    1    2    0    0  0.19273962824E+02 -0.25166376821E+02 -0.34479788128E+01  0.59301941555E+02  0.49999995491E+02 0.  0.
         12    1    1    2    0    0 -0.19273962824E+02  0.25166376821E+02  0.34479788128E+01  0.31886058445E+02  0.00000000000E+00 0. -1.
         11    1    3    3    0    0  0.20580191064E+01  0.28239769516E+01  0.70003378436E+01  0.78240027257E+01  0.51100000000E-03 0. -1.
        -11    1    3    3    0    0  0.15029220408E+02 -0.37456826785E+02 -0.10718029404E+02  0.41758442182E+02  0.51100000000E-03 0.  1.
        -12    1    3    3    0    0  0.21867233100E+01  0.94664730123E+01  0.26971274738E+00  0.97194966481E+01  0.00000000000E+00 0.  1.
</event>
<event>
 7    1  0.7579108E-012  0.5930197E+02  0.7816164E-02  0.1266605E+00
        -11   -1    0    0    0    0  0.00000000000E+00  0.00000000000E+00  0.45593999997E+02  0.45594000000E+02  0.51100000000E-03 0.  1.
         11   -1    0    0    0    0 -0.00000000000E+00 -0.00000000000E+00 -0.45593999997E+02  0.45594000000E+02  0.51100000000E-03 0. -1.
    9900012    2    1    2    0    0 -0.20317713839E+02  0.19827570891E+02  0.14518152328E+02  0.59301971554E+02  0.50000050201E+02 0.  0.
         12    1    1    2    0    0  0.20317713839E+02 -0.19827570891E+02 -0.14518152328E+02  0.31886028446E+02  0.00000000000E+00 0. -1.
         11    1    3    3    0    0  0.51218900447E+01 -0.83093098816E+01  0.13211086885E+01  0.98500617646E+01  0.51100000000E-03 0. -1.
        -11    1    3    3    0    0 -0.15815238646E+02  0.31367925282E+02  0.33168802750E+01  0.35285552355E+02  0.51100000000E-03 0.  1.
         12    1    3    3    0    0 -0.96243652376E+01 -0.32310445101E+01  0.98801633646E+01  0.14166357435E+02  0.00000000000E+00 0. -1.
</event>
<event>
 7    1  0.7579108E-012  0.5930197E+02  0.7816164E-02  0.1266605E+00
        -11   -1    0    0    0    0  0.00000000000E+00  0.00000000000E+00  0.45593999997E+02  0.45594000000E+02  0.51100000000E-03 0. -1.
         11   -1    0    0    0    0 -0.00000000000E+00 -0.00000000000E+00 -0.45593999997E+02  0.45594000000E+02  0.51100000000E-03 0.  1.
    9900012    2    1    2    0    0  0.12034093822E+02 -0.12459223799E+02 -0.26770639249E+02  0.59301971749E+02  0.50000050558E+02 0.  0.
         12    1    1    2    0    0 -0.12034093822E+02  0.12459223799E+02  0.26770639249E+02  0.31886028251E+02  0.00000000000E+00 0. -1.
         11    1    3    3    0    0  0.11699460084E+02  0.59488199002E+01  0.69426364806E+01  0.14848098398E+02  0.51100000000E-03 0. -1.
        -11    1    3    3    0    0  0.12441020197E+01 -0.20880434960E+02 -0.35546572166E+02  0.41244383217E+02  0.51100000000E-03 0.  1.
        -12    1    3    3    0    0 -0.90946828153E+00  0.24723912607E+01  0.18332964362E+01  0.32094901346E+01  0.00000000000E+00 0.  1.
</event>
<event>
 7    1  0.7579108E-012  0.5930194E+02  0.7816164E-02  0.1266605E+00
        -11   -1    0    0    0    0  0.00000000000E+00  0.00000000000E+00  0.45593999997E+02  0.45594000000E+02  0.51100000000E-03 0.  1.
         11   -1    0    0    0    0 -0.00000000000E+00 -0.00000000000E+00 -0.45593999997E+02  0.45594000000E+02  0.51100000000E-03 0. -1.
    9900012    2    1    2    0    0 -0.17886766675E+02  0.19115716922E+02  0.18203667570E+02  0.59301943979E+02  0.49999999912E+02 0.  0.
         12    1    1    2    0    0  0.17886766675E+02 -0.19115716922E+02 -0.18203667570E+02  0.31886056021E+02  0.00000000000E+00 0. -1.
         11    1    3    3    0    0  0.37845450167E+01  0.10131948714E+02 -0.82482223386E+01  0.13601924045E+02  0.51100000000E-03 0. -1.
        -11    1    3    3    0    0 -0.26725099012E+02  0.65478168148E+01  0.28605118872E+02  0.39690775353E+02  0.51100000000E-03 0.  1.
        -12    1    3    3    0    0  0.50537873201E+01  0.24359513936E+01 -0.21532289626E+01  0.60092445809E+01  0.00000000000E+00 0.  1.
</event>
<event>
 7    1  0.7579108E-012  0.5930193E+02  0.7816164E-02  0.1266605E+00
        -11   -1    0    0    0    0  0.00000000000E+00  0.00000000000E+00  0.45593999997E+02  0.45594000000E+02  0.51100000000E-03 0.  1.
         11   -1    0    0    0    0 -0.00000000000E+00 -0.00000000000E+00 -0.45593999997E+02  0.45594000000E+02  0.51100000000E-03 0. -1.
    9900012    2    1    2    0    0 -0.48428839836E+01 -0.30895142859E+00  0.31514637471E+02  0.59301931707E+02  0.49999977530E+02 0.  0.
         12    1    1    2    0    0  0.48428839836E+01  0.30895142859E+00 -0.31514637471E+02  0.31886068293E+02  0.00000000000E+00 0. -1.
         11    1    3    3    0    0  0.14861609685E+01  0.15140533201E+02  0.11693438661E+02  0.19188041276E+02  0.51100000000E-03 0. -1.
        -11    1    3    3    0    0 -0.23283107011E+01 -0.94022536709E+01  0.27736691464E+02  0.29379371308E+02  0.51100000000E-03 0.  1.
         12    1    3    3    0    0 -0.40007342510E+01 -0.60472309590E+01 -0.79154926546E+01  0.10734519122E+02  0.00000000000E+00 0. -1.
</event>
<event>
 7    1  0.7579108E-012  0.5930192E+02  0.7816164E-02  0.1266605E+00
        -11   -1    0    0    0    0  0.00000000000E+00  0.00000000000E+00  0.45593999997E+02  0.45594000000E+02  0.51100000000E-03 0.  1.
         11   -1    0    0    0    0 -0.00000000000E+00 -0.00000000000E+00 -0.45593999997E+02  0.45594000000E+02  0.51100000000E-03 0. -1.
    9900012    2    1    2    0    0 -0.27230901073E+02  0.16491358397E+02 -0.17987388004E+01  0.59301916259E+02  0.49999949357E+02 0.  0.
         12    1    1    2    0    0  0.27230901073E+02 -0.16491358397E+02  0.17987388004E+01  0.31886083741E+02  0.00000000000E+00 0. -1.
         11    1    3    3    0    0 -0.12134970102E+02 -0.11577046065E+02 -0.12925515470E+02  0.21174381818E+02  0.51100000000E-03 0. -1.
        -11    1    3    3    0    0 -0.14123876963E+02  0.30217366357E+02  0.81626132186E+01  0.34339501814E+02  0.51100000000E-03 0.  1.
         12    1    3    3    0    0 -0.97205400752E+00 -0.21489618947E+01  0.29641634512E+01  0.37880326270E+01  0.00000000000E+00 0. -1.
</event>
<event>
 7    1  0.7579108E-012  0.5930194E+02  0.7816164E-02  0.1266605E+00
        -11   -1    0    0    0    0  0.00000000000E+00  0.00000000000E+00  0.45593999997E+02  0.45594000000E+02  0.51100000000E-03 0. -1.
         11   -1    0    0    0    0 -0.00000000000E+00 -0.00000000000E+00 -0.45593999997E+02  0.45594000000E+02  0.51100000000E-03 0.  1.
    9900012    2    1    2    0    0  0.54681689376E+01  0.26042155409E+02 -0.17567751700E+02  0.59301943021E+02  0.49999998164E+02 0.  0.
         12    1    1    2    0    0 -0.54681689376E+01 -0.26042155409E+02  0.17567751700E+02  0.31886056979E+02  0.00000000000E+00 0. -1.
         11    1    3    3    0    0  0.14771199290E+01 -0.85295702038E+01  0.10837095005E+02  0.13870042522E+02  0.51100000000E-03 0. -1.
        -11    1    3    3    0    0  0.42000737471E+01  0.95284108254E+01 -0.82900979823E+01  0.13310032200E+02  0.51100000000E-03 0.  1.
         12    1    3    3    0    0 -0.20902473840E+00  0.25043314787E+02 -0.20114748723E+02  0.32121868300E+02  0.00000000000E+00 0. -1.
</event>
<event>
 7    1  0.7579108E-012  0.5930191E+02  0.7816164E-02  0.1266605E+00
        -11   -1    0    0    0    0  0.00000000000E+00  0.00000000000E+00  0.45593999997E+02  0.45594000000E+02  0.51100000000E-03 0.  1.
         11   -1    0    0    0    0 -0.00000000000E+00 -0.00000000000E+00 -0.45593999997E+02  0.45594000000E+02  0.51100000000E-03 0. -1.
    9900012    2    1    2    0    0  0.24965176334E+02  0.16151249679E+02  0.11515188618E+02  0.59301914250E+02  0.49999945692E+02 0.  0.
         12    1    1    2    0    0 -0.24965176334E+02 -0.16151249679E+02 -0.11515188618E+02  0.31886085750E+02  0.00000000000E+00 0. -1.
         11    1    3    3    0    0  0.53924815753E+01  0.27119621963E+02  0.67724436988E+01  0.28467854624E+02  0.51100000000E-03 0. -1.
        -11    1    3    3    0    0  0.11918184663E+01 -0.10396677094E+02  0.65660582490E+01  0.12354126721E+02  0.51100000000E-03 0.  1.
         12    1    3    3    0    0  0.18380876292E+02 -0.57169519067E+00 -0.18233133302E+01  0.18479932905E+02  0.00000000000E+00 0. -1.
</event>
<event>
 7    1  0.7579108E-012  0.5930191E+02  0.7816164E-02  0.1266605E+00
        -11   -1    0    0    0    0  0.00000000000E+00  0.00000000000E+00  0.45593999997E+02  0.45594000000E+02  0.51100000000E-03 0. -1.
         11   -1    0    0    0    0 -0.00000000000E+00 -0.00000000000E+00 -0.45593999997E+02  0.45594000000E+02  0.51100000000E-03 0.  1.
    9900012    2    1    2    0    0  0.14833620879E+02 -0.15463984119E+02 -0.23612532909E+02  0.59301908618E+02  0.49999935422E+02 0.  0.
         12    1    1    2    0    0 -0.14833620879E+02  0.15463984119E+02  0.23612532909E+02  0.31886091382E+02  0.00000000000E+00 0. -1.
         11    1    3    3    0    0  0.64566429337E+01 -0.35882753881E+01  0.52986841200E+01  0.90906551964E+01  0.51100000000E-03 0. -1.
        -11    1    3    3    0    0 -0.15323184248E+02 -0.23171352922E+01 -0.10947409554E+02  0.18974057754E+02  0.51100000000E-03 0.  1.
        -12    1    3    3    0    0  0.23700162194E+02 -0.95585734387E+01 -0.17963807475E+02  0.31237195668E+02  0.00000000000E+00 0.  1.
</event>
<event>
 7    1  0.7579108E-012  0.5930223E+02  0.7816164E-02  0.1266604E+00
        -11   -1    0    0    0    0  0.00000000000E+00  0.00000000000E+00  0.45593999997E+02  0.45594000000E+02  0.51100000000E-03 0.  1.
         11   -1    0    0    0    0 -0.00000000000E+00 -0.00000000000E+00 -0.45593999997E+02  0.45594000000E+02  0.51100000000E-03 0. -1.
    9900012    2    1    2    0    0 -0.21209647611E+02 -0.22946731958E+02 -0.63482962703E+01  0.59302226921E+02  0.50000515926E+02 0.  0.
         12    1    1    2    0    0  0.21209647611E+02  0.22946731958E+02  0.63482962703E+01  0.31885773079E+02  0.00000000000E+00 0. -1.
         11    1    3    3    0    0  0.73320962249E+01 -0.52275429031E-01  0.11951044493E+02  0.14021049622E+02  0.51100000000E-03 0.  1.
        -11    1    3    3    0    0 -0.12420948412E+02 -0.19544421690E+02 -0.40553863215E+01  0.23509796620E+02  0.51100000000E-03 0. -1.
         12    1    3    3    0    0 -0.16120795424E+02 -0.33500348393E+01 -0.14243954441E+02  0.21771380679E+02  0.00000000000E+00 0. -1.
</event>
<event>
 7    1  0.7579108E-012  0.5930194E+02  0.7816164E-02  0.1266605E+00
        -11   -1    0    0    0    0  0.00000000000E+00  0.00000000000E+00  0.45593999997E+02  0.45594000000E+02  0.51100000000E-03 0.  1.
         11   -1    0    0    0    0 -0.00000000000E+00 -0.00000000000E+00 -0.45593999997E+02  0.45594000000E+02  0.51100000000E-03 0. -1.
    9900012    2    1    2    0    0 -0.13112235884E+02 -0.20085919959E+02 -0.21008238893E+02  0.59301937028E+02  0.49999987233E+02 0.  0.
         12    1    1    2    0    0  0.13112235884E+02  0.20085919959E+02  0.21008238893E+02  0.31886062972E+02  0.00000000000E+00 0. -1.
         11    1    3    3    0    0 -0.10595286540E+02 -0.28436500675E+00 -0.23232152757E+02  0.25535737355E+02  0.51100000000E-03 0. -1.
        -11    1    3    3    0    0 -0.35420408578E+01 -0.23415781615E+02 -0.62532946274E+01  0.24493847718E+02  0.51100000000E-03 0.  1.
        -12    1    3    3    0    0  0.10250915135E+01  0.36142266622E+01  0.84772084906E+01  0.92723519546E+01  0.00000000000E+00 0.  1.
</event>
<event>
 7    1  0.7579108E-012  0.5930198E+02  0.7816164E-02  0.1266605E+00
        -11   -1    0    0    0    0  0.00000000000E+00  0.00000000000E+00  0.45593999997E+02  0.45594000000E+02  0.51100000000E-03 0.  1.
         11   -1    0    0    0    0 -0.00000000000E+00 -0.00000000000E+00 -0.45593999997E+02  0.45594000000E+02  0.51100000000E-03 0. -1.
    9900012    2    1    2    0    0 -0.17989859810E+02  0.24691066343E+02 -0.91342323256E+01  0.59301984047E+02  0.50000072986E+02 0.  0.
         12    1    1    2    0    0  0.17989859810E+02 -0.24691066343E+02  0.91342323256E+01  0.31886015953E+02  0.00000000000E+00 0. -1.
         11    1    3    3    0    0 -0.36648363954E+01  0.80538586065E+01 -0.16843960823E+02  0.19026683388E+02  0.51100000000E-03 0. -1.
        -11    1    3    3    0    0 -0.81300245347E+00  0.23552486665E+02  0.85593273344E+01  0.25072747870E+02  0.51100000000E-03 0.  1.
        -12    1    3    3    0    0 -0.13512020962E+02 -0.69152789285E+01 -0.84959883672E+00  0.15202552789E+02  0.00000000000E+00 0.  1.
</event>
<event>
 7    1  0.7579108E-012  0.5930195E+02  0.7816164E-02  0.1266605E+00
        -11   -1    0    0    0    0  0.00000000000E+00  0.00000000000E+00  0.45593999997E+02  0.45594000000E+02  0.51100000000E-03 0.  1.
         11   -1    0    0    0    0 -0.00000000000E+00 -0.00000000000E+00 -0.45593999997E+02  0.45594000000E+02  0.51100000000E-03 0. -1.
    9900012    2    1    2    0    0 -0.95577670821E+01 -0.27027586651E+01  0.30299580366E+02  0.59301946836E+02  0.50000005122E+02 0.  0.
         12    1    1    2    0    0  0.95577670821E+01  0.27027586651E+01 -0.30299580366E+02  0.31886053164E+02  0.00000000000E+00 0. -1.
         11    1    3    3    0    0 -0.15148320996E+02  0.60927018179E+01 -0.54833355020E+01  0.17223809478E+02  0.51100000000E-03 0. -1.
        -11    1    3    3    0    0 -0.37087181112E+01 -0.60829818926E+01  0.29917202946E+02  0.30753801246E+02  0.51100000000E-03 0.  1.
        -12    1    3    3    0    0  0.92992720252E+01 -0.27124785903E+01  0.58657129220E+01  0.11324336112E+02  0.00000000000E+00 0.  1.
</event>
<event>
 7    1  0.7579108E-012  0.5930186E+02  0.7816164E-02  0.1266605E+00
        -11   -1    0    0    0    0  0.00000000000E+00  0.00000000000E+00  0.45593999997E+02  0.45594000000E+02  0.51100000000E-03 0. -1.
         11   -1    0    0    0    0 -0.00000000000E+00 -0.00000000000E+00 -0.45593999997E+02  0.45594000000E+02  0.51100000000E-03 0.  1.
    9900012    2    1    2    0    0 -0.26506546485E+02  0.13074718129E+02 -0.11965822721E+02  0.59301856080E+02  0.49999839604E+02 0.  0.
         12    1    1    2    0    0  0.26506546485E+02 -0.13074718129E+02  0.11965822721E+02  0.31886143920E+02  0.00000000000E+00 0. -1.
         11    1    3    3    0    0 -0.19643161604E+02  0.12986478513E+00  0.92686648280E+01  0.21720469853E+02  0.51100000000E-03 0. -1.
        -11    1    3    3    0    0  0.10099785851E+02  0.81692212449E+01 -0.60960815884E+01  0.14349357511E+02  0.51100000000E-03 0.  1.
        -12    1    3    3    0    0 -0.16963170732E+02  0.47756320986E+01 -0.15138405961E+02  0.23232028716E+02  0.00000000000E+00 0.  1.
</event>
<event>
 7    1  0.7579108E-012  0.5930195E+02  0.7816164E-02  0.1266605E+00
        -11   -1    0    0    0    0  0.00000000000E+00  0.00000000000E+00  0.45593999997E+02  0.45594000000E+02  0.51100000000E-03 0.  1.
         11   -1    0    0    0    0 -0.00000000000E+00 -0.00000000000E+00 -0.45593999997E+02  0.45594000000E+02  0.51100000000E-03 0. -1.
    9900012    2    1    2    0    0 -0.28093512330E+01 -0.29665583679E+02 -0.11348179599E+02  0.59301945217E+02  0.50000002170E+02 0.  0.
         12    1    1    2    0    0  0.28093512330E+01  0.29665583679E+02  0.11348179599E+02  0.31886054783E+02  0.00000000000E+00 0. -1.
         11    1    3    3    0    0  0.11739130167E+02 -0.60226965569E+01 -0.20885449658E+02  0.24703887519E+02  0.51100000000E-03 0. -1.
        -11    1    3    3    0    0 -0.10607828663E+02 -0.11160911305E+02  0.13957806873E+02  0.20782500886E+02  0.51100000000E-03 0.  1.
        -12    1    3    3    0    0 -0.39406527374E+01 -0.12481975818E+02 -0.44205368142E+01  0.13815556812E+02  0.00000000000E+00 0.  1.
</event>
<event>
 7    1  0.7579108E-012  0.5930195E+02  0.7816164E-02  0.1266605E+00
        -11   -1    0    0    0    0  0.00000000000E+00  0.00000000000E+00  0.45593999997E+02  0.45594000000E+02  0.51100000000E-03 0. -1.
         11   -1    0    0    0    0 -0.00000000000E+00 -0.00000000000E+00 -0.45593999997E+02  0.45594000000E+02  0.51100000000E-03 0.  1.
    9900012    2    1    2    0    0  0.13855022864E+02 -0.27321793654E+02 -0.88474838627E+01  0.59301952303E+02  0.50000015093E+02 0.  0.
         12    1    1    2    0    0 -0.13855022864E+02  0.27321793654E+02  0.88474838627E+01  0.31886047697E+02  0.00000000000E+00 0. -1.
         11    1    3    3    0    0  0.22570496917E+02 -0.19064620900E+02 -0.54354966368E+01  0.30040501412E+02  0.51100000000E-03 0. -1.
        -11    1    3    3    0    0 -0.40050484286E+01 -0.14714718835E+02 -0.10551233333E+02  0.18544322268E+02  0.51100000000E-03 0.  1.
         12    1    3    3    0    0 -0.47104256242E+01  0.64575460810E+01  0.71392461065E+01  0.10717128623E+02  0.00000000000E+00 0. -1.
</event>
<event>
 7    1  0.7579108E-012  0.5930195E+02  0.7816164E-02  0.1266605E+00
        -11   -1    0    0    0    0  0.00000000000E+00  0.00000000000E+00  0.45593999997E+02  0.45594000000E+02  0.51100000000E-03 0.  1.
         11   -1    0    0    0    0 -0.00000000000E+00 -0.00000000000E+00 -0.45593999997E+02  0.45594000000E+02  0.51100000000E-03 0. -1.
    9900012    2    1    2    0    0 -0.11676622412E+02  0.22413586173E+02  0.19442422196E+02  0.59301950747E+02  0.50000012255E+02 0.  0.
         12    1    1    2    0    0  0.11676622412E+02 -0.22413586173E+02 -0.19442422196E+02  0.31886049253E+02  0.00000000000E+00 0. -1.
         11    1    3    3    0    0  0.68341657983E+01 -0.34158645009E+01 -0.71820436140E+00  0.76739670453E+01  0.51100000000E-03 0.  1.
        -11    1    3    3    0    0 -0.95647871296E+01  0.33462416249E+02  0.10338000547E+02  0.36305546541E+02  0.51100000000E-03 0. -1.
        -12    1    3    3    0    0 -0.89460010809E+01 -0.76329655754E+01  0.98226260102E+01  0.15322437161E+02  0.00000000000E+00 0.  1.
</event>
<event>
 7    1  0.7579108E-012  0.5930196E+02  0.7816164E-02  0.1266605E+00
        -11   -1    0    0    0    0  0.00000000000E+00  0.00000000000E+00  0.45593999997E+02  0.45594000000E+02  0.51100000000E-03 0. -1.
         11   -1    0    0    0    0 -0.00000000000E+00 -0.00000000000E+00 -0.45593999997E+02  0.45594000000E+02  0.51100000000E-03 0.  1.
    9900012    2    1    2    0    0 -0.23605704881E+02 -0.17036792690E+02 -0.13009151752E+02  0.59301958580E+02  0.50000026541E+02 0.  0.
         12    1    1    2    0    0  0.23605704881E+02  0.17036792690E+02  0.13009151752E+02  0.31886041420E+02  0.00000000000E+00 0. -1.
         11    1    3    3    0    0 -0.29786144971E+02 -0.23552451688E+02 -0.82239238288E+01  0.38853125179E+02  0.51100000000E-03 0. -1.
        -11    1    3    3    0    0  0.74616899912E+01  0.10828126778E+02 -0.75549295330E+01  0.15165820372E+02  0.51100000000E-03 0.  1.
         12    1    3    3    0    0 -0.12812499012E+01 -0.43124677803E+01  0.27697016095E+01  0.52830130296E+01  0.00000000000E+00 0. -1.
</event>
<event>
 7    1  0.7579108E-012  0.5930194E+02  0.7816164E-02  0.1266605E+00
        -11   -1    0    0    0    0  0.00000000000E+00  0.00000000000E+00  0.45593999997E+02  0.45594000000E+02  0.51100000000E-03 0.  1.
         11   -1    0    0    0    0 -0.00000000000E+00 -0.00000000000E+00 -0.45593999997E+02  0.45594000000E+02  0.51100000000E-03 0. -1.
    9900012    2    1    2    0    0 -0.16432478596E+02  0.30749353523E+01  0.27152144238E+02  0.59301944788E+02  0.50000001387E+02 0.  0.
         12    1    1    2    0    0  0.16432478596E+02 -0.30749353523E+01 -0.27152144238E+02  0.31886055212E+02  0.00000000000E+00 0. -1.
         11    1    3    3    0    0 -0.26902798608E+02 -0.16755908680E+01  0.32674899270E+02  0.42358201334E+02  0.51100000000E-03 0. -1.
        -11    1    3    3    0    0  0.60884765423E+01  0.55599783564E+01  0.17364186402E+01  0.84260344104E+01  0.51100000000E-03 0.  1.
         12    1    3    3    0    0  0.43818434692E+01 -0.80945213609E+00 -0.72591736720E+01  0.85177090435E+01  0.00000000000E+00 0. -1.
</event>
<event>
 7    1  0.7579108E-012  0.5930191E+02  0.7816164E-02  0.1266605E+00
        -11   -1    0    0    0    0  0.00000000000E+00  0.00000000000E+00  0.45593999997E+02  0.45594000000E+02  0.51100000000E-03 0.  1.
         11   -1    0    0    0    0 -0.00000000000E+00 -0.00000000000E+00 -0.45593999997E+02  0.45594000000E+02  0.51100000000E-03 0. -1.
    9900012    2    1    2    0    0 -0.25022889094E+02 -0.19762381688E+02 -0.16074001283E+00  0.59301912972E+02  0.49999943362E+02 0.  0.
         12    1    1    2    0    0  0.25022889094E+02  0.19762381688E+02  0.16074001283E+00  0.31886087028E+02  0.00000000000E+00 0. -1.
         11    1    3    3    0    0 -0.36795983222E+01 -0.92395407723E+01 -0.23754597056E+02  0.25752464718E+02  0.51100000000E-03 0. -1.
        -11    1    3    3    0    0 -0.12111637533E+02 -0.67609060100E+01  0.14248811437E+02  0.19885427866E+02  0.51100000000E-03 0.  1.
         12    1    3    3    0    0 -0.92316532391E+01 -0.37619349060E+01  0.93450456063E+01  0.13664020387E+02  0.00000000000E+00 0. -1.
</event>
<event>
 7    1  0.7579108E-012  0.5930195E+02  0.7816164E-02  0.1266605E+00
        -11   -1    0    0    0    0  0.00000000000E+00  0.00000000000E+00  0.45593999997E+02  0.45594000000E+02  0.51100000000E-03 0. -1.
         11   -1    0    0    0    0 -0.00000000000E+00 -0.00000000000E+00 -0.45593999997E+02  0.45594000000E+02  0.51100000000E-03 0.  1.
    9900012    2    1    2    0    0  0.20867443102E+02  0.15632470980E+02 -0.18354729382E+02  0.59301946289E+02  0.50000004124E+02 0.  0.
         12    1    1    2    0    0 -0.20867443102E+02 -0.15632470980E+02  0.18354729382E+02  0.31886053711E+02  0.00000000000E+00 0. -1.
         11    1    3    3    0    0 -0.15418008656E+01 -0.58020520024E+01  0.80243273632E+01  0.10021516215E+02  0.51100000000E-03 0. -1.
        -11    1    3    3    0    0  0.24304444548E+02  0.12053488844E+02 -0.75524131829E+01  0.28160816097E+02  0.51100000000E-03 0.  1.
         12    1    3    3    0    0 -0.18952005797E+01  0.93810341384E+01 -0.18826643562E+02  0.21119613978E+02  0.00000000000E+00 0. -1.
</event>
<event>
 7    1  0.7579108E-012  0.5930192E+02  0.7816164E-02  0.1266605E+00
        -11   -1    0    0    0    0  0.00000000000E+00  0.00000000000E+00  0.45593999997E+02  0.45594000000E+02  0.51100000000E-03 0.  1.
         11   -1    0    0    0    0 -0.00000000000E+00 -0.00000000000E+00 -0.45593999997E+02  0.45594000000E+02  0.51100000000E-03 0. -1.
    9900012    2    1    2    0    0 -0.48420168394E+01  0.82588113592E+01  0.30414942203E+02  0.59301924648E+02  0.49999964657E+02 0.  0.
         12    1    1    2    0    0  0.48420168394E+01 -0.82588113592E+01 -0.30414942203E+02  0.31886075352E+02  0.00000000000E+00 0. -1.
         11    1    3    3    0    0  0.55192321318E+01  0.14535497621E+01 -0.42857750998E+01  0.71374084024E+01  0.51100000000E-03 0. -1.
        -11    1    3    3    0    0 -0.23486306650E+02  0.98150437238E+01  0.21742776432E+02  0.33476708479E+02  0.51100000000E-03 0.  1.
        -12    1    3    3    0    0  0.13125057679E+02 -0.30097821267E+01  0.12957940870E+02  0.18687807767E+02  0.00000000000E+00 0.  1.
</event>
<event>
 7    1  0.7579108E-012  0.5930193E+02  0.7816164E-02  0.1266605E+00
        -11   -1    0    0    0    0  0.00000000000E+00  0.00000000000E+00  0.45593999997E+02  0.45594000000E+02  0.51100000000E-03 0. -1.
         11   -1    0    0    0    0 -0.00000000000E+00 -0.00000000000E+00 -0.45593999997E+02  0.45594000000E+02  0.51100000000E-03 0.  1.
    9900012    2    1    2    0    0  0.95250679503E+01 -0.29236242907E+02 -0.84401951498E+01  0.59301926034E+02  0.49999967184E+02 0.  0.
         12    1    1    2    0    0 -0.95250679503E+01  0.29236242907E+02  0.84401951498E+01  0.31886073966E+02  0.00000000000E+00 0. -1.
         11    1    3    3    0    0  0.22109644933E+02 -0.81126067623E+01 -0.11981831139E+02  0.26423759484E+02  0.51100000000E-03 0. -1.
        -11    1    3    3    0    0 -0.84577107965E+01 -0.24997977421E+02  0.53677702357E+01  0.26930367703E+02  0.51100000000E-03 0.  1.
        -12    1    3    3    0    0 -0.41268661866E+01  0.38743412755E+01 -0.18261342464E+01  0.59477988472E+01  0.00000000000E+00 0.  1.
</event>
<event>
 7    1  0.7579108E-012  0.5930189E+02  0.7816164E-02  0.1266605E+00
        -11   -1    0    0    0    0  0.00000000000E+00  0.00000000000E+00  0.45593999997E+02  0.45594000000E+02  0.51100000000E-03 0.  1.
         11   -1    0    0    0    0 -0.00000000000E+00 -0.00000000000E+00 -0.45593999997E+02  0.45594000000E+02  0.51100000000E-03 0. -1.
    9900012    2    1    2    0    0  0.23359586930E+01 -0.15237032563E+02  0.27912364951E+02  0.59301890462E+02  0.49999902309E+02 0.  0.
         12    1    1    2    0    0 -0.23359586930E+01  0.15237032563E+02 -0.27912364951E+02  0.31886109538E+02  0.00000000000E+00 0. -1.
         11    1    3    3    0    0 -0.44882229140E+01  0.47339214007E+01  0.59429553012E+01  0.88245608801E+01  0.51100000000E-03 0. -1.
        -11    1    3    3    0    0  0.17840767754E+02 -0.24844110947E+02  0.23169820707E+02  0.38371388230E+02  0.51100000000E-03 0.  1.
        -12    1    3    3    0    0 -0.11016586147E+02  0.48731569835E+01 -0.12004110576E+01  0.12105941352E+02  0.00000000000E+00 0.  1.
</event>
<event>
 7    1  0.7579108E-012  0.5930194E+02  0.7816164E-02  0.1266605E+00
        -11   -1    0    0    0    0  0.00000000000E+00  0.00000000000E+00  0.45593999997E+02  0.45594000000E+02  0.51100000000E-03 0.  1.
         11   -1    0    0    0    0 -0.00000000000E+00 -0.00000000000E+00 -0.45593999997E+02  0.45594000000E+02  0.51100000000E-03 0. -1.
    9900012    2    1    2    0    0 -0.18510639377E+02  0.11526898431E+02  0.23263866358E+02  0.59301942929E+02  0.49999997997E+02 0.  0.
         12    1    1    2    0    0  0.18510639377E+02 -0.11526898431E+02 -0.23263866358E+02  0.31886057071E+02  0.00000000000E+00 0. -1.
         11    1    3    3    0    0 -0.15209545854E+01 -0.11793083765E+02 -0.31008712087E+01  0.12288430740E+02  0.51100000000E-03 0. -1.
        -11    1    3    3    0    0 -0.10014559113E+02  0.15351728475E+02 -0.29048185852E+00  0.18331703177E+02  0.51100000000E-03 0.  1.
        -12    1    3    3    0    0 -0.69751256787E+01  0.79682537216E+01  0.26655219425E+02  0.28681809012E+02  0.00000000000E+00 0.  1.
</event>
<event>
 7    1  0.7579108E-012  0.5930198E+02  0.7816164E-02  0.1266605E+00
        -11   -1    0    0    0    0  0.00000000000E+00  0.00000000000E+00  0.45593999997E+02  0.45594000000E+02  0.51100000000E-03 0.  1.
         11   -1    0    0    0    0 -0.00000000000E+00 -0.00000000000E+00 -0.45593999997E+02  0.45594000000E+02  0.51100000000E-03 0. -1.
    9900012    2    1    2    0    0 -0.18975382326E+01  0.64853241089E+01  0.31161806211E+02  0.59301980392E+02  0.50000066319E+02 0.  0.
         12    1    1    2    0    0  0.18975382326E+01 -0.64853241089E+01 -0.31161806211E+02  0.31886019608E+02  0.00000000000E+00 0. -1.
         11    1    3    3    0    0 -0.20751520329E+02  0.10041357551E+02  0.19040784190E+02  0.29899931777E+02  0.51100000000E-03 0.  1.
        -11    1    3    3    0    0  0.98332262396E+01  0.18982747545E+01 -0.34551557271E+01  0.10594049588E+02  0.51100000000E-03 0. -1.
        -12    1    3    3    0    0  0.90207558571E+01 -0.54543081965E+01  0.15576177748E+02  0.18807999026E+02  0.00000000000E+00 0.  1.
</event>
<event>
 7    1  0.7579108E-012  0.5930195E+02  0.7816164E-02  0.1266605E+00
        -11   -1    0    0    0    0  0.00000000000E+00  0.00000000000E+00  0.45593999997E+02  0.45594000000E+02  0.51100000000E-03 0.  1.
         11   -1    0    0    0    0 -0.00000000000E+00 -0.00000000000E+00 -0.45593999997E+02  0.45594000000E+02  0.51100000000E-03 0. -1.
    9900012    2    1    2    0    0 -0.15642235886E+01  0.26159981104E+02  0.18163936146E+02  0.59301953160E+02  0.50000016654E+02 0.  0.
         12    1    1    2    0    0  0.15642235886E+01 -0.26159981104E+02 -0.18163936146E+02  0.31886046840E+02  0.00000000000E+00 0. -1.
         11    1    3    3    0    0 -0.83898148963E+01  0.59600938845E+01 -0.88260186572E+01  0.13557666418E+02  0.51100000000E-03 0. -1.
        -11    1    3    3    0    0  0.10105919622E+02 -0.29081478728E+01  0.17772018779E+02  0.20650220028E+02  0.51100000000E-03 0.  1.
         12    1    3    3    0    0 -0.32803283144E+01  0.23108035092E+02  0.92179360234E+01  0.25094066713E+02  0.00000000000E+00 0. -1.
</event>
<event>
 7    1  0.7579108E-012  0.5930196E+02  0.7816164E-02  0.1266605E+00
        -11   -1    0    0    0    0  0.00000000000E+00  0.00000000000E+00  0.45593999997E+02  0.45594000000E+02  0.51100000000E-03 0.  1.
         11   -1    0    0    0    0 -0.00000000000E+00 -0.00000000000E+00 -0.45593999997E+02  0.45594000000E+02  0.51100000000E-03 0. -1.
    9900012    2    1    2    0    0  0.13031475636E+02 -0.14038890991E+02  0.25491364837E+02  0.59301960755E+02  0.50000030506E+02 0.  0.
         12    1    1    2    0    0 -0.13031475636E+02  0.14038890991E+02 -0.25491364837E+02  0.31886039245E+02  0.00000000000E+00 0. -1.
         11    1    3    3    0    0  0.98982492424E+01 -0.25737516887E+02  0.74938647241E+01  0.28575393652E+02  0.51100000000E-03 0. -1.
        -11    1    3    3    0    0  0.11035932886E+02  0.65336363200E+01  0.16909969662E+02  0.21223272426E+02  0.51100000000E-03 0.  1.
         12    1    3    3    0    0 -0.79027064929E+01  0.51649895763E+01  0.10875304502E+01  0.95032946769E+01  0.00000000000E+00 0. -1.
</event>
<event>
 7    1  0.7579108E-012  0.5930191E+02  0.7816164E-02  0.1266605E+00
        -11   -1    0    0    0    0  0.00000000000E+00  0.00000000000E+00  0.45593999997E+02  0.45594000000E+02  0.51100000000E-03 0. -1.
         11   -1    0    0    0    0 -0.00000000000E+00 -0.00000000000E+00 -0.45593999997E+02  0.45594000000E+02  0.51100000000E-03 0.  1.
    9900012    2    1    2    0    0 -0.61195056792E+01 -0.28755588000E+02  0.12344650213E+02  0.59301912440E+02  0.49999942392E+02 0.  0.
         12    1    1    2    0    0  0.61195056792E+01  0.28755588000E+02 -0.12344650213E+02  0.31886087560E+02  0.00000000000E+00 0. -1.
         11    1    3    3    0    0  0.97301358216E+01  0.77664633682E+01  0.12576713837E+02  0.17696531512E+02  0.51100000000E-03 0. -1.
        -11    1    3    3    0    0 -0.44320776574E+01 -0.20382738659E+02  0.43590891440E+01  0.21309645844E+02  0.51100000000E-03 0.  1.
         12    1    3    3    0    0 -0.11417563843E+02 -0.16139312710E+02 -0.45911527679E+01  0.20295735084E+02  0.00000000000E+00 0. -1.
</event>
<event>
 7    1  0.7579108E-012  0.5930183E+02  0.7816164E-02  0.1266605E+00
        -11   -1    0    0    0    0  0.00000000000E+00  0.00000000000E+00  0.45593999997E+02  0.45594000000E+02  0.51100000000E-03 0.  1.
         11   -1    0    0    0    0 -0.00000000000E+00 -0.00000000000E+00 -0.45593999997E+02  0.45594000000E+02  0.51100000000E-03 0. -1.
    9900012    2    1    2    0    0  0.81180080048E+00  0.14764390339E+02  0.28250332465E+02  0.59301834865E+02  0.49999800914E+02 0.  0.
         12    1    1    2    0    0 -0.81180080048E+00 -0.14764390339E+02 -0.28250332465E+02  0.31886165135E+02  0.00000000000E+00 0. -1.
         11    1    3    3    0    0  0.52895362130E+00 -0.28759324107E+01 -0.70359752384E+00  0.30076284513E+01  0.51100000000E-03 0. -1.
        -11    1    3    3    0    0 -0.27707714121E+01  0.19055800357E+02 -0.67703546077E+01  0.20411722201E+02  0.51100000000E-03 0.  1.
        -12    1    3    3    0    0  0.30536185912E+01 -0.14154776069E+01  0.35724284596E+02  0.35882484213E+02  0.00000000000E+00 0.  1.
</event>
<event>
 7    1  0.7579108E-012  0.5930194E+02  0.7816164E-02  0.1266605E+00
        -11   -1    0    0    0    0  0.00000000000E+00  0.00000000000E+00  0.45593999997E+02  0.45594000000E+02  0.51100000000E-03 0.  1.
         11   -1    0    0    0    0 -0.00000000000E+00 -0.00000000000E+00 -0.45593999997E+02  0.45594000000E+02  0.51100000000E-03 0. -1.
    9900012    2    1    2    0    0 -0.10075910185E+02  0.29837434849E+02  0.49924560576E+01  0.59301935616E+02  0.49999984659E+02 0.  0.
         12    1    1    2    0    0  0.10075910185E+02 -0.29837434849E+02 -0.49924560576E+01  0.31886064384E+02  0.00000000000E+00 0. -1.
         11    1    3    3    0    0 -0.83514397736E+01  0.81835104216E-01  0.84355180609E+00  0.83943328018E+01  0.51100000000E-03 0. -1.
        -11    1    3    3    0    0 -0.16470812264E+01  0.28140142181E+02  0.20261096762E+02  0.34714442539E+02  0.51100000000E-03 0.  1.
        -12    1    3    3    0    0 -0.77389185234E-01  0.16154575635E+01 -0.16112192510E+02  0.16193160276E+02  0.00000000000E+00 0.  1.
</event>
<event>
 7    1  0.7579108E-012  0.5930198E+02  0.7816164E-02  0.1266605E+00
        -11   -1    0    0    0    0  0.00000000000E+00  0.00000000000E+00  0.45593999997E+02  0.45594000000E+02  0.51100000000E-03 0. -1.
         11   -1    0    0    0    0 -0.00000000000E+00 -0.00000000000E+00 -0.45593999997E+02  0.45594000000E+02  0.51100000000E-03 0.  1.
    9900012    2    1    2    0    0  0.32006595287E+00 -0.65152982337E+01 -0.31211642271E+02  0.59301981645E+02  0.50000068604E+02 0.  0.
         12    1    1    2    0    0 -0.32006595287E+00  0.65152982337E+01  0.31211642271E+02  0.31886018355E+02  0.00000000000E+00 0. -1.
         11    1    3    3    0    0 -0.63764545497E+01  0.10011556306E+02  0.89521078191E+01  0.14867100153E+02  0.51100000000E-03 0. -1.
        -11    1    3    3    0    0 -0.44333380161E+00 -0.26357628884E+01 -0.11348488468E+02  0.11658987162E+02  0.51100000000E-03 0.  1.
         12    1    3    3    0    0  0.71398543042E+01 -0.13891091652E+02 -0.28815261622E+02  0.32775894330E+02  0.00000000000E+00 0. -1.
</event>
<event>
 7    1  0.7579108E-012  0.5930190E+02  0.7816164E-02  0.1266605E+00
        -11   -1    0    0    0    0  0.00000000000E+00  0.00000000000E+00  0.45593999997E+02  0.45594000000E+02  0.51100000000E-03 0. -1.
         11   -1    0    0    0    0 -0.00000000000E+00 -0.00000000000E+00 -0.45593999997E+02  0.45594000000E+02  0.51100000000E-03 0.  1.
    9900012    2    1    2    0    0  0.30422958706E+02  0.79931827949E+01 -0.52226539146E+01  0.59301897988E+02  0.49999916034E+02 0.  0.
         12    1    1    2    0    0 -0.30422958706E+02 -0.79931827949E+01  0.52226539146E+01  0.31886102012E+02  0.00000000000E+00 0. -1.
         11    1    3    3    0    0 -0.11749201981E+02  0.46714234309E+01 -0.38149563982E+01  0.13206810237E+02  0.51100000000E-03 0. -1.
        -11    1    3    3    0    0  0.36697538971E+02  0.17796432386E+01  0.54968252050E+01  0.37149583903E+02  0.51100000000E-03 0.  1.
        -12    1    3    3    0    0  0.54746217162E+01  0.15421161254E+01 -0.69045227214E+01  0.89455038478E+01  0.00000000000E+00 0.  1.
</event>
<event>
 7    1  0.7579108E-012  0.5930194E+02  0.7816164E-02  0.1266605E+00
        -11   -1    0    0    0    0  0.00000000000E+00  0.00000000000E+00  0.45593999997E+02  0.45594000000E+02  0.51100000000E-03 0.  1.
         11   -1    0    0    0    0 -0.00000000000E+00 -0.00000000000E+00 -0.45593999997E+02  0.45594000000E+02  0.51100000000E-03 0. -1.
    9900012    2    1    2    0    0  0.22110529299E+02 -0.20680767643E+02  0.10007564708E+02  0.59301937095E+02  0.49999987357E+02 0.  0.
         12    1    1    2    0    0 -0.22110529299E+02  0.20680767643E+02 -0.10007564708E+02  0.31886062905E+02  0.00000000000E+00 0. -1.
         11    1    3    3    0    0  0.29263809593E+02 -0.48672262798E+01  0.44813419102E+01  0.30002381058E+02  0.51100000000E-03 0. -1.
        -11    1    3    3    0    0 -0.21878690780E+01 -0.20555449240E+02  0.30486429212E+00  0.20673804852E+02  0.51100000000E-03 0.  1.
         12    1    3    3    0    0 -0.49654112166E+01  0.47419078767E+01  0.52213585059E+01  0.86257511852E+01  0.00000000000E+00 0. -1.
</event>
<event>
 7    1  0.7579108E-012  0.5930196E+02  0.7816164E-02  0.1266605E+00
        -11   -1    0    0    0    0  0.00000000000E+00  0.00000000000E+00  0.45593999997E+02  0.45594000000E+02  0.51100000000E-03 0.  1.
         11   -1    0    0    0    0 -0.00000000000E+00 -0.00000000000E+00 -0.45593999997E+02  0.45594000000E+02  0.51100000000E-03 0. -1.
    9900012    2    1    2    0    0 -0.76090398405E+01  0.17004914153E+02 -0.25877687189E+02  0.59301964077E+02  0.50000036564E+02 0.  0.
         12    1    1    2    0    0  0.76090398405E+01 -0.17004914153E+02  0.25877687189E+02  0.31886035923E+02  0.00000000000E+00 0. -1.
         11    1    3    3    0    0 -0.29764189223E+01 -0.31810681822E+01 -0.19084388133E+02  0.19575293997E+02  0.51100000000E-03 0. -1.
        -11    1    3    3    0    0 -0.10619269650E+02  0.27550282496E+02 -0.37680946001E+01  0.29765508406E+02  0.51100000000E-03 0.  1.
        -12    1    3    3    0    0  0.59866487321E+01 -0.73643001603E+01 -0.30252044559E+01  0.99611616738E+01  0.00000000000E+00 0.  1.
</event>
<event>
 7    1  0.7579108E-012  0.5930199E+02  0.7816164E-02  0.1266605E+00
        -11   -1    0    0    0    0  0.00000000000E+00  0.00000000000E+00  0.45593999997E+02  0.45594000000E+02  0.51100000000E-03 0.  1.
         11   -1    0    0    0    0 -0.00000000000E+00 -0.00000000000E+00 -0.45593999997E+02  0.45594000000E+02  0.51100000000E-03 0. -1.
    9900012    2    1    2    0    0  0.26927761320E+02 -0.16933904690E+02 -0.22036821797E+01  0.59301989386E+02  0.50000082723E+02 0.  0.
         12    1    1    2    0    0 -0.26927761320E+02  0.16933904690E+02  0.22036821797E+01  0.31886010614E+02  0.00000000000E+00 0. -1.
         11    1    3    3    0    0 -0.88856824178E+01 -0.10221198132E+02  0.50993624682E+01  0.14471756670E+02  0.51100000000E-03 0.  1.
        -11    1    3    3    0    0  0.32022575794E+02  0.42123879552E+01 -0.79006200989E+01  0.33250704819E+02  0.51100000000E-03 0. -1.
        -12    1    3    3    0    0  0.37908679435E+01 -0.10925094513E+02  0.59757545102E+00  0.11579527897E+02  0.00000000000E+00 0.  1.
</event>
<event>
 7    1  0.7579108E-012  0.5930199E+02  0.7816164E-02  0.1266605E+00
        -11   -1    0    0    0    0  0.00000000000E+00  0.00000000000E+00  0.45593999997E+02  0.45594000000E+02  0.51100000000E-03 0.  1.
         11   -1    0    0    0    0 -0.00000000000E+00 -0.00000000000E+00 -0.45593999997E+02  0.45594000000E+02  0.51100000000E-03 0. -1.
    9900012    2    1    2    0    0 -0.32081567994E+01  0.12721616380E+02  0.29061756282E+02  0.59301992542E+02  0.50000088479E+02 0.  0.
         12    1    1    2    0    0  0.32081567994E+01 -0.12721616380E+02 -0.29061756282E+02  0.31886007458E+02  0.00000000000E+00 0. -1.
         11    1    3    3    0    0 -0.46166264331E+01 -0.15763226645E+02  0.15000328619E+02  0.22244154576E+02  0.51100000000E-03 0. -1.
        -11    1    3    3    0    0  0.62677993107E+01  0.21996692460E+02  0.26000021272E+01  0.23019552531E+02  0.51100000000E-03 0.  1.
        -12    1    3    3    0    0 -0.48593296770E+01  0.64881505643E+01  0.11461425536E+02  0.14038285436E+02  0.00000000000E+00 0.  1.
</event>
<event>
 7    1  0.7579108E-012  0.5930196E+02  0.7816164E-02  0.1266605E+00
        -11   -1    0    0    0    0  0.00000000000E+00  0.00000000000E+00  0.45593999997E+02  0.45594000000E+02  0.51100000000E-03 0. -1.
         11   -1    0    0    0    0 -0.00000000000E+00 -0.00000000000E+00 -0.45593999997E+02  0.45594000000E+02  0.51100000000E-03 0.  1.
    9900012    2    1    2    0    0 -0.26173851750E+02  0.14581967068E+02 -0.10909401417E+02  0.59301963585E+02  0.50000035668E+02 0.  0.
         12    1    1    2    0    0  0.26173851750E+02 -0.14581967068E+02  0.10909401417E+02  0.31886036415E+02  0.00000000000E+00 0. -1.
         11    1    3    3    0    0  0.10973942752E+01 -0.15339592180E+01  0.10284008283E+02  0.10455531153E+02  0.51100000000E-03 0. -1.
        -11    1    3    3    0    0 -0.13276155858E+02  0.23783016974E+02 -0.17781835608E+02  0.32528170693E+02  0.51100000000E-03 0.  1.
        -12    1    3    3    0    0 -0.13995090166E+02 -0.76670906881E+01 -0.34115740912E+01  0.16318261738E+02  0.00000000000E+00 0.  1.
</event>
<event>
 7    1  0.7579108E-012  0.5930195E+02  0.7816164E-02  0.1266605E+00
        -11   -1    0    0    0    0  0.00000000000E+00  0.00000000000E+00  0.45593999997E+02  0.45594000000E+02  0.51100000000E-03 0.  1.
         11   -1    0    0    0    0 -0.00000000000E+00 -0.00000000000E+00 -0.45593999997E+02  0.45594000000E+02  0.51100000000E-03 0. -1.
    9900012    2    1    2    0    0  0.19103222737E+02 -0.25206868877E+02  0.40498079893E+01  0.59301948155E+02  0.50000007527E+02 0.  0.
         12    1    1    2    0    0 -0.19103222737E+02  0.25206868877E+02 -0.40498079893E+01  0.31886051845E+02  0.00000000000E+00 0. -1.
         11    1    3    3    0    0  0.12789487171E+02  0.13914405002E+02  0.20577563477E+01  0.19010944482E+02  0.51100000000E-03 0. -1.
        -11    1    3    3    0    0  0.54878237477E+01 -0.20331658380E+02  0.37896958997E+01  0.21397531101E+02  0.51100000000E-03 0.  1.
         12    1    3    3    0    0  0.82591181764E+00 -0.18789615499E+02 -0.17976442581E+01  0.18893472571E+02  0.00000000000E+00 0. -1.
</event>
<event>
 7    1  0.7579108E-012  0.5930194E+02  0.7816164E-02  0.1266605E+00
        -11   -1    0    0    0    0  0.00000000000E+00  0.00000000000E+00  0.45593999997E+02  0.45594000000E+02  0.51100000000E-03 0.  1.
         11   -1    0    0    0    0 -0.00000000000E+00 -0.00000000000E+00 -0.45593999997E+02  0.45594000000E+02  0.51100000000E-03 0. -1.
    9900012    2    1    2    0    0  0.10657499052E+02  0.17897260725E+02  0.24141798739E+02  0.59301942328E+02  0.49999996900E+02 0.  0.
         12    1    1    2    0    0 -0.10657499052E+02 -0.17897260725E+02 -0.24141798739E+02  0.31886057672E+02  0.00000000000E+00 0. -1.
         11    1    3    3    0    0 -0.35375922088E+01 -0.16763708900E+01 -0.29859776117E+01  0.49234988124E+01  0.51100000000E-03 0. -1.
        -11    1    3    3    0    0  0.22328111667E+02  0.14715028873E+02  0.33572259986E+02  0.42920546201E+02  0.51100000000E-03 0.  1.
        -12    1    3    3    0    0 -0.81330204065E+01  0.48586027425E+01 -0.64444836357E+01  0.11457897315E+02  0.00000000000E+00 0.  1.
</event>
<event>
 7    1  0.7579108E-012  0.5930193E+02  0.7816164E-02  0.1266605E+00
        -11   -1    0    0    0    0  0.00000000000E+00  0.00000000000E+00  0.45593999997E+02  0.45594000000E+02  0.51100000000E-03 0. -1.
         11   -1    0    0    0    0 -0.00000000000E+00 -0.00000000000E+00 -0.45593999997E+02  0.45594000000E+02  0.51100000000E-03 0.  1.
    9900012    2    1    2    0    0 -0.17706091074E+02  0.18904108286E+02 -0.18597054835E+02  0.59301930631E+02  0.49999975568E+02 0.  0.
         12    1    1    2    0    0  0.17706091074E+02 -0.18904108286E+02  0.18597054835E+02  0.31886069369E+02  0.00000000000E+00 0. -1.
         11    1    3    3    0    0  0.14055241437E+02  0.14837744744E+02  0.17575229843E+01  0.20513346100E+02  0.51100000000E-03 0. -1.
        -11    1    3    3    0    0 -0.26102861586E+02  0.47209366382E+01 -0.19727756074E+02  0.33057994278E+02  0.51100000000E-03 0.  1.
         12    1    3    3    0    0 -0.56584709244E+01 -0.65457309605E+00 -0.62682174596E+00  0.57305902525E+01  0.00000000000E+00 0. -1.
</event>
<event>
 7    1  0.7579108E-012  0.5930194E+02  0.7816164E-02  0.1266605E+00
        -11   -1    0    0    0    0  0.00000000000E+00  0.00000000000E+00  0.45593999997E+02  0.45594000000E+02  0.51100000000E-03 0.  1.
         11   -1    0    0    0    0 -0.00000000000E+00 -0.00000000000E+00 -0.45593999997E+02  0.45594000000E+02  0.51100000000E-03 0. -1.
    9900012    2    1    2    0    0  0.28339335266E+02  0.10297966814E+02  0.10370866477E+02  0.59301938542E+02  0.49999989995E+02 0.  0.
         12    1    1    2    0    0 -0.28339335266E+02 -0.10297966814E+02 -0.10370866477E+02  0.31886061458E+02  0.00000000000E+00 0. -1.
         11    1    3    3    0    0 -0.15675023926E+01  0.12522056721E+02  0.18603623373E+01  0.12756171705E+02  0.51100000000E-03 0. -1.
        -11    1    3    3    0    0  0.11601854458E+02 -0.15736247721E+02 -0.48736311063E+01  0.20149064485E+02  0.51100000000E-03 0.  1.
        -12    1    3    3    0    0  0.18304983200E+02  0.13512157814E+02  0.13384135246E+02  0.26396702352E+02  0.00000000000E+00 0.  1.
</event>
<event>
 7    1  0.7579108E-012  0.5930193E+02  0.7816164E-02  0.1266605E+00
        -11   -1    0    0    0    0  0.00000000000E+00  0.00000000000E+00  0.45593999997E+02  0.45594000000E+02  0.51100000000E-03 0.  1.
         11   -1    0    0    0    0 -0.00000000000E+00 -0.00000000000E+00 -0.45593999997E+02  0.45594000000E+02  0.51100000000E-03 0. -1.
    9900012    2    1    2    0    0  0.12217620243E+02 -0.15328148292E+02  0.25149529689E+02  0.59301933795E+02  0.49999981337E+02 0.  0.
         12    1    1    2    0    0 -0.12217620243E+02  0.15328148292E+02 -0.25149529689E+02  0.31886066205E+02  0.00000000000E+00 0. -1.
         11    1    3    3    0    0  0.27508513072E+02  0.12132006901E+01  0.50188387048E+01  0.27988906545E+02  0.51100000000E-03 0. -1.
        -11    1    3    3    0    0 -0.12041895929E+02 -0.16857532661E+02  0.17571902359E+02  0.27165334855E+02  0.51100000000E-03 0.  1.
        -12    1    3    3    0    0 -0.32489969000E+01  0.31618367932E+00  0.25587886258E+01  0.41476923954E+01  0.00000000000E+00 0.  1.
</event>
<event>
 7    1  0.7579108E-012  0.5930184E+02  0.7816164E-02  0.1266605E+00
        -11   -1    0    0    0    0  0.00000000000E+00  0.00000000000E+00  0.45593999997E+02  0.45594000000E+02  0.51100000000E-03 0.  1.
         11   -1    0    0    0    0 -0.00000000000E+00 -0.00000000000E+00 -0.45593999997E+02  0.45594000000E+02  0.51100000000E-03 0. -1.
    9900012    2    1    2    0    0 -0.18496954469E+02  0.12626412976E+02  0.22697218122E+02  0.59301837801E+02  0.49999806268E+02 0.  0.
         12    1    1    2    0    0  0.18496954469E+02 -0.12626412976E+02 -0.22697218122E+02  0.31886162199E+02  0.00000000000E+00 0. -1.
         11    1    3    3    0    0 -0.69250891381E+01  0.24308878810E+02  0.23922398810E+02  0.34801718545E+02  0.51100000000E-03 0. -1.
        -11    1    3    3    0    0 -0.14070212248E+02 -0.52014438184E+01  0.43219101267E+01  0.15611047303E+02  0.51100000000E-03 0.  1.
         12    1    3    3    0    0  0.24983469168E+01 -0.64810220161E+01 -0.55470908144E+01  0.88890719535E+01  0.00000000000E+00 0. -1.
</event>
<event>
 7    1  0.7579108E-012  0.5930198E+02  0.7816164E-02  0.1266605E+00
        -11   -1    0    0    0    0  0.00000000000E+00  0.00000000000E+00  0.45593999997E+02  0.45594000000E+02  0.51100000000E-03 0. -1.
         11   -1    0    0    0    0 -0.00000000000E+00 -0.00000000000E+00 -0.45593999997E+02  0.45594000000E+02  0.51100000000E-03 0.  1.
    9900012    2    1    2    0    0 -0.27850528863E+02  0.30206933411E+01 -0.15229641181E+02  0.59301976153E+02  0.50000058590E+02 0.  0.
         12    1    1    2    0    0  0.27850528863E+02 -0.30206933411E+01  0.15229641181E+02  0.31886023847E+02  0.00000000000E+00 0. -1.
         11    1    3    3    0    0  0.11935850408E+02 -0.12503547793E+00 -0.26028713091E+01  0.12217000374E+02  0.51100000000E-03 0. -1.
        -11    1    3    3    0    0 -0.25527491052E+02  0.26373846388E+01  0.31005966046E+01  0.25849996068E+02  0.51100000000E-03 0.  1.
        -12    1    3    3    0    0 -0.14258888220E+02  0.50834418018E+00 -0.15727366477E+02  0.21234979712E+02  0.00000000000E+00 0.  1.
</event>
<event>
 7    1  0.7579108E-012  0.5930195E+02  0.7816164E-02  0.1266605E+00
        -11   -1    0    0    0    0  0.00000000000E+00  0.00000000000E+00  0.45593999997E+02  0.45594000000E+02  0.51100000000E-03 0. -1.
         11   -1    0    0    0    0 -0.00000000000E+00 -0.00000000000E+00 -0.45593999997E+02  0.45594000000E+02  0.51100000000E-03 0.  1.
    9900012    2    1    2    0    0  0.35193604067E+01  0.16591299294E+01 -0.31647770107E+02  0.59301953483E+02  0.50000017243E+02 0.  0.
         12    1    1    2    0    0 -0.35193604067E+01 -0.16591299294E+01  0.31647770107E+02  0.31886046517E+02  0.00000000000E+00 0. -1.
         11    1    3    3    0    0 -0.32531042917E+00 -0.20908210219E+02 -0.61585576780E+01  0.21798782406E+02  0.51100000000E-03 0. -1.
        -11    1    3    3    0    0 -0.30754070198E+01  0.18411874981E+02 -0.13447411360E+02  0.23006263087E+02  0.51100000000E-03 0.  1.
        -12    1    3    3    0    0  0.69200778556E+01  0.41554651674E+01 -0.12041801069E+02  0.14496907990E+02  0.00000000000E+00 0.  1.
</event>
<event>
 7    1  0.7579108E-012  0.5930195E+02  0.7816164E-02  0.1266605E+00
        -11   -1    0    0    0    0  0.00000000000E+00  0.00000000000E+00  0.45593999997E+02  0.45594000000E+02  0.51100000000E-03 0.  1.
         11   -1    0    0    0    0 -0.00000000000E+00 -0.00000000000E+00 -0.45593999997E+02  0.45594000000E+02  0.51100000000E-03 0. -1.
    9900012    2    1    2    0    0  0.48114158647E+01  0.20125088238E+02  0.24260073528E+02  0.59301951848E+02  0.50000014262E+02 0.  0.
         12    1    1    2    0    0 -0.48114158647E+01 -0.20125088238E+02 -0.24260073528E+02  0.31886048152E+02  0.00000000000E+00 0. -1.
         11    1    3    3    0    0 -0.87048466345E+01 -0.49178846536E+01 -0.97805425586E+01  0.13986384715E+02  0.51100000000E-03 0. -1.
        -11    1    3    3    0    0  0.62306472795E+01  0.15192975729E+02  0.12902361964E+02  0.20883448507E+02  0.51100000000E-03 0.  1.
         12    1    3    3    0    0  0.72856152197E+01  0.98499971628E+01  0.21138254122E+02  0.24432118626E+02  0.00000000000E+00 0. -1.
</event>
<event>
 7    1  0.7579108E-012  0.5930191E+02  0.7816164E-02  0.1266605E+00
        -11   -1    0    0    0    0  0.00000000000E+00  0.00000000000E+00  0.45593999997E+02  0.45594000000E+02  0.51100000000E-03 0. -1.
         11   -1    0    0    0    0 -0.00000000000E+00 -0.00000000000E+00 -0.45593999997E+02  0.45594000000E+02  0.51100000000E-03 0.  1.
    9900012    2    1    2    0    0 -0.15473799553E+02  0.11132997154E+02 -0.25560524252E+02  0.59301913719E+02  0.49999944725E+02 0.  0.
         12    1    1    2    0    0  0.15473799553E+02 -0.11132997154E+02  0.25560524252E+02  0.31886086281E+02  0.00000000000E+00 0. -1.
         11    1    3    3    0    0 -0.18468212026E+02 -0.38844085955E+01 -0.19186660002E+02  0.26912662594E+02  0.51100000000E-03 0.  1.
        -11    1    3    3    0    0  0.22112498945E+00  0.71174792990E+00  0.10253272194E+02  0.10280324525E+02  0.51100000000E-03 0. -1.
         12    1    3    3    0    0  0.27732874836E+01  0.14305657819E+02 -0.16627136444E+02  0.22108926601E+02  0.00000000000E+00 0. -1.
</event>
<event>
 7    1  0.7579108E-012  0.5930194E+02  0.7816164E-02  0.1266605E+00
        -11   -1    0    0    0    0  0.00000000000E+00  0.00000000000E+00  0.45593999997E+02  0.45594000000E+02  0.51100000000E-03 0. -1.
         11   -1    0    0    0    0 -0.00000000000E+00 -0.00000000000E+00 -0.45593999997E+02  0.45594000000E+02  0.51100000000E-03 0.  1.
    9900012    2    1    2    0    0  0.18921173978E+02  0.92329577854E+01  0.23947073831E+02  0.59301942244E+02  0.49999996747E+02 0.  0.
         12    1    1    2    0    0 -0.18921173978E+02 -0.92329577854E+01 -0.23947073831E+02  0.31886057756E+02  0.00000000000E+00 0. -1.
         11    1    3    3    0    0  0.11469549718E+02  0.18241792599E+02  0.30605447178E+02  0.37430027588E+02  0.51100000000E-03 0. -1.
        -11    1    3    3    0    0  0.12780576943E+02 -0.61239137810E+01 -0.69920667477E+01  0.15802989105E+02  0.51100000000E-03 0.  1.
        -12    1    3    3    0    0 -0.53289526826E+01 -0.28849210329E+01  0.33369340015E+00  0.60689255511E+01  0.00000000000E+00 0.  1.
</event>
<event>
 7    1  0.7579108E-012  0.5930195E+02  0.7816164E-02  0.1266605E+00
        -11   -1    0    0    0    0  0.00000000000E+00  0.00000000000E+00  0.45593999997E+02  0.45594000000E+02  0.51100000000E-03 0.  1.
         11   -1    0    0    0    0 -0.00000000000E+00 -0.00000000000E+00 -0.45593999997E+02  0.45594000000E+02  0.51100000000E-03 0. -1.
    9900012    2    1    2    0    0 -0.13565209718E+02 -0.28786170253E+02  0.20154171842E+01  0.59301946325E+02  0.50000004190E+02 0.  0.
         12    1    1    2    0    0  0.13565209718E+02  0.28786170253E+02 -0.20154171842E+01  0.31886053675E+02  0.00000000000E+00 0. -1.
         11    1    3    3    0    0 -0.22265467134E+02 -0.10392509226E+01  0.45371973267E+01  0.22746807007E+02  0.51100000000E-03 0. -1.
        -11    1    3    3    0    0  0.11747831997E+02 -0.17945397273E+02  0.69921705209E+01  0.22559682816E+02  0.51100000000E-03 0.  1.
         12    1    3    3    0    0 -0.30475745814E+01 -0.98015220570E+01 -0.95139506633E+01  0.13995456502E+02  0.00000000000E+00 0. -1.
</event>
<event>
 7    1  0.7579108E-012  0.5930194E+02  0.7816164E-02  0.1266605E+00
        -11   -1    0    0    0    0  0.00000000000E+00  0.00000000000E+00  0.45593999997E+02  0.45594000000E+02  0.51100000000E-03 0. -1.
         11   -1    0    0    0    0 -0.00000000000E+00 -0.00000000000E+00 -0.45593999997E+02  0.45594000000E+02  0.51100000000E-03 0.  1.
    9900012    2    1    2    0    0 -0.24035947570E+02  0.36168473336E+01 -0.20637641657E+02  0.59301943276E+02  0.49999998629E+02 0.  0.
         12    1    1    2    0    0  0.24035947570E+02 -0.36168473336E+01  0.20637641657E+02  0.31886056724E+02  0.00000000000E+00 0. -1.
         11    1    3    3    0    0 -0.10151895091E+01 -0.71199554152E+00  0.69618822086E+01  0.70714462126E+01  0.51100000000E-03 0. -1.
        -11    1    3    3    0    0 -0.83962243290E+01 -0.27267452097E+01 -0.33736136026E+02  0.34872031725E+02  0.51100000000E-03 0.  1.
        -12    1    3    3    0    0 -0.14624533732E+02  0.70555880848E+01  0.61366121597E+01  0.17358465338E+02  0.00000000000E+00 0.  1.
</event>
<event>
 7    1  0.7579108E-012  0.5930193E+02  0.7816164E-02  0.1266605E+00
        -11   -1    0    0    0    0  0.00000000000E+00  0.00000000000E+00  0.45593999997E+02  0.45594000000E+02  0.51100000000E-03 0.  1.
         11   -1    0    0    0    0 -0.00000000000E+00 -0.00000000000E+00 -0.45593999997E+02  0.45594000000E+02  0.51100000000E-03 0. -1.
    9900012    2    1    2    0    0 -0.15086656177E+02 -0.20926288909E+02  0.18740461329E+02  0.59301926975E+02  0.49999968901E+02 0.  0.
         12    1    1    2    0    0  0.15086656177E+02  0.20926288909E+02 -0.18740461329E+02  0.31886073025E+02  0.00000000000E+00 0. -1.
         11    1    3    3    0    0  0.14861080480E+02 -0.62202100509E+01  0.12834089827E+02  0.20597489849E+02  0.51100000000E-03 0. -1.
        -11    1    3    3    0    0 -0.10098532377E+02 -0.14479278794E+02  0.65878829626E+01  0.18842241712E+02  0.51100000000E-03 0.  1.
         12    1    3    3    0    0 -0.19849204280E+02 -0.22680006482E+00 -0.68151146133E+00  0.19862195414E+02  0.00000000000E+00 0. -1.
</event>
<event>
 7    1  0.7579108E-012  0.5930208E+02  0.7816164E-02  0.1266604E+00
        -11   -1    0    0    0    0  0.00000000000E+00  0.00000000000E+00  0.45593999997E+02  0.45594000000E+02  0.51100000000E-03 0. -1.
         11   -1    0    0    0    0 -0.00000000000E+00 -0.00000000000E+00 -0.45593999997E+02  0.45594000000E+02  0.51100000000E-03 0.  1.
    9900012    2    1    2    0    0  0.27269334880E+02 -0.15353851153E+02  0.61118139335E+01  0.59302083994E+02  0.50000255264E+02 0.  0.
         12    1    1    2    0    0 -0.27269334880E+02  0.15353851153E+02 -0.61118139335E+01  0.31885916006E+02  0.00000000000E+00 0. -1.
         11    1    3    3    0    0  0.84652128192E+01 -0.21686990511E+02  0.83601996122E+01  0.24736174387E+02  0.51100000000E-03 0. -1.
        -11    1    3    3    0    0  0.22355710342E+02  0.10809322198E+02  0.50060147331E+01  0.25331391889E+02  0.51100000000E-03 0.  1.
        -12    1    3    3    0    0 -0.35515882815E+01 -0.44761828392E+01 -0.72544004119E+01  0.92345177171E+01  0.00000000000E+00 0.  1.
</event>
<event>
 7    1  0.7579108E-012  0.5930199E+02  0.7816164E-02  0.1266605E+00
        -11   -1    0    0    0    0  0.00000000000E+00  0.00000000000E+00  0.45593999997E+02  0.45594000000E+02  0.51100000000E-03 0. -1.
         11   -1    0    0    0    0 -0.00000000000E+00 -0.00000000000E+00 -0.45593999997E+02  0.45594000000E+02  0.51100000000E-03 0.  1.
    9900012    2    1    2    0    0 -0.65413585200E+01  0.24758541272E+00 -0.31206838010E+02  0.59301993533E+02  0.50000090285E+02 0.  0.
         12    1    1    2    0    0  0.65413585200E+01 -0.24758541272E+00  0.31206838010E+02  0.31886006467E+02  0.00000000000E+00 0. -1.
         11    1    3    3    0    0  0.13114545071E+02 -0.76703512218E+01  0.39160005101E+01  0.15689507339E+02  0.51100000000E-03 0. -1.
        -11    1    3    3    0    0 -0.14534408160E+02  0.34758624872E+01 -0.33439804353E+02  0.36627191485E+02  0.51100000000E-03 0.  1.
         12    1    3    3    0    0 -0.51214954303E+01  0.44420741472E+01 -0.16830341672E+01  0.69852947096E+01  0.00000000000E+00 0. -1.
</event>
<event>
 7    1  0.7579108E-012  0.5930194E+02  0.7816164E-02  0.1266605E+00
        -11   -1    0    0    0    0  0.00000000000E+00  0.00000000000E+00  0.45593999997E+02  0.45594000000E+02  0.51100000000E-03 0.  1.
         11   -1    0    0    0    0 -0.00000000000E+00 -0.00000000000E+00 -0.45593999997E+02  0.45594000000E+02  0.51100000000E-03 0. -1.
    9900012    2    1    2    0    0  0.13371343849E+01 -0.31391197226E+02 -0.54337753161E+01  0.59301935555E+02  0.49999984547E+02 0.  0.
         12    1    1    2    0    0 -0.13371343849E+01  0.31391197226E+02  0.54337753161E+01  0.31886064445E+02  0.00000000000E+00 0. -1.
         11    1    3    3    0    0  0.10891891743E+02 -0.30093949806E+02 -0.48136373697E+01  0.32364335706E+02  0.51100000000E-03 0. -1.
        -11    1    3    3    0    0 -0.16044092736E+02  0.26394770018E+01  0.55238769741E+01  0.17172447922E+02  0.51100000000E-03 0.  1.
         12    1    3    3    0    0  0.64893353777E+01 -0.39367244210E+01 -0.61440149204E+01  0.97651519268E+01  0.00000000000E+00 0. -1.
</event>
<event>
 7    1  0.7579108E-012  0.5930194E+02  0.7816164E-02  0.1266605E+00
        -11   -1    0    0    0    0  0.00000000000E+00  0.00000000000E+00  0.45593999997E+02  0.45594000000E+02  0.51100000000E-03 0.  1.
         11   -1    0    0    0    0 -0.00000000000E+00 -0.00000000000E+00 -0.45593999997E+02  0.45594000000E+02  0.51100000000E-03 0. -1.
    9900012    2    1    2    0    0  0.13901430672E+02 -0.17878374403E+02  0.22446266895E+02  0.59301938100E+02  0.49999989188E+02 0.  0.
         12    1    1    2    0    0 -0.13901430672E+02  0.17878374403E+02 -0.22446266895E+02  0.31886061900E+02  0.00000000000E+00 0. -1.
         11    1    3    3    0    0  0.12684508359E+02  0.13143494180E+01  0.67572904070E+01  0.14432090653E+02  0.51100000000E-03 0. -1.
        -11    1    3    3    0    0  0.23777079848E+01 -0.30297275037E+02  0.83780055059E+01  0.31524107386E+02  0.51100000000E-03 0.  1.
        -12    1    3    3    0    0 -0.11607856718E+01  0.11104551216E+02  0.73109709816E+01  0.13345740061E+02  0.00000000000E+00 0.  1.
</event>
<event>
 7    1  0.7579108E-012  0.5930203E+02  0.7816164E-02  0.1266604E+00
        -11   -1    0    0    0    0  0.00000000000E+00  0.00000000000E+00  0.45593999997E+02  0.45594000000E+02  0.51100000000E-03 0.  1.
         11   -1    0    0    0    0 -0.00000000000E+00 -0.00000000000E+00 -0.45593999997E+02  0.45594000000E+02  0.51100000000E-03 0. -1.
    9900012    2    1    2    0    0 -0.23699986746E+02 -0.83812412079E+01  0.19615815237E+02  0.59302034696E+02  0.50000165358E+02 0.  0.
         12    1    1    2    0    0  0.23699986746E+02  0.83812412079E+01 -0.19615815237E+02  0.31885965304E+02  0.00000000000E+00 0. -1.
         11    1    3    3    0    0 -0.10385120391E+01  0.12648693740E+02  0.18622966697E+02  0.22536256332E+02  0.51100000000E-03 0. -1.
        -11    1    3    3    0    0 -0.26116778591E+02 -0.17298286336E+02  0.25960676909E+01  0.31433364469E+02  0.51100000000E-03 0.  1.
         12    1    3    3    0    0  0.34553038845E+01 -0.37316486122E+01 -0.16032191518E+01  0.53324138950E+01  0.00000000000E+00 0. -1.
</event>
<event>
 7    1  0.7579108E-012  0.5930195E+02  0.7816164E-02  0.1266605E+00
        -11   -1    0    0    0    0  0.00000000000E+00  0.00000000000E+00  0.45593999997E+02  0.45594000000E+02  0.51100000000E-03 0.  1.
         11   -1    0    0    0    0 -0.00000000000E+00 -0.00000000000E+00 -0.45593999997E+02  0.45594000000E+02  0.51100000000E-03 0. -1.
    9900012    2    1    2    0    0 -0.11153682738E+02  0.11682259091E+02  0.27492545817E+02  0.59301954595E+02  0.50000019271E+02 0.  0.
         12    1    1    2    0    0  0.11153682738E+02 -0.11682259091E+02 -0.27492545817E+02  0.31886045405E+02  0.00000000000E+00 0. -1.
         11    1    3    3    0    0 -0.16207336125E+02  0.93512730539E+01 -0.89758748820E+01  0.20753081269E+02  0.51100000000E-03 0. -1.
        -11    1    3    3    0    0  0.43751680770E+00  0.61610061865E+01  0.22809483424E+02  0.23630953271E+02  0.51100000000E-03 0.  1.
         12    1    3    3    0    0  0.46161365795E+01 -0.38300201491E+01  0.13658937275E+02  0.14917920054E+02  0.00000000000E+00 0. -1.
</event>
<event>
 7    1  0.7579108E-012  0.5930196E+02  0.7816164E-02  0.1266605E+00
        -11   -1    0    0    0    0  0.00000000000E+00  0.00000000000E+00  0.45593999997E+02  0.45594000000E+02  0.51100000000E-03 0.  1.
         11   -1    0    0    0    0 -0.00000000000E+00 -0.00000000000E+00 -0.45593999997E+02  0.45594000000E+02  0.51100000000E-03 0. -1.
    9900012    2    1    2    0    0 -0.94621302558E+01 -0.97158185881E+01  0.28858110128E+02  0.59301959795E+02  0.50000028756E+02 0.  0.
         12    1    1    2    0    0  0.94621302558E+01  0.97158185881E+01 -0.28858110128E+02  0.31886040205E+02  0.00000000000E+00 0. -1.
         11    1    3    3    0    0 -0.93917627787E+01 -0.19012580213E+02 -0.40501020447E+01  0.21589042157E+02  0.51100000000E-03 0. -1.
        -11    1    3    3    0    0  0.75850247849E+01  0.45917843585E+01  0.20998254771E+02  0.22793503203E+02  0.51100000000E-03 0.  1.
         12    1    3    3    0    0 -0.76553922620E+01  0.47049772663E+01  0.11909957401E+02  0.14919414434E+02  0.00000000000E+00 0. -1.
</event>
<event>
 7    1  0.7579108E-012  0.5930194E+02  0.7816164E-02  0.1266605E+00
        -11   -1    0    0    0    0  0.00000000000E+00  0.00000000000E+00  0.45593999997E+02  0.45594000000E+02  0.51100000000E-03 0.  1.
         11   -1    0    0    0    0 -0.00000000000E+00 -0.00000000000E+00 -0.45593999997E+02  0.45594000000E+02  0.51100000000E-03 0. -1.
    9900012    2    1    2    0    0  0.81431441588E+01 -0.21748640068E+02  0.21849637703E+02  0.59301940203E+02  0.49999993025E+02 0.  0.
         12    1    1    2    0    0 -0.81431441588E+01  0.21748640068E+02 -0.21849637703E+02  0.31886059797E+02  0.00000000000E+00 0. -1.
         11    1    3    3    0    0  0.11374001693E+02  0.60546322223E+01  0.15195441875E+02  0.19923050467E+02  0.51100000000E-03 0. -1.
        -11    1    3    3    0    0 -0.13192533312E+02 -0.13352501616E+02 -0.35110856313E+01  0.19096071773E+02  0.51100000000E-03 0.  1.
        -12    1    3    3    0    0  0.99616757785E+01 -0.14450770674E+02  0.10165281459E+02  0.20282817963E+02  0.00000000000E+00 0.  1.
</event>
<event>
 7    1  0.7579108E-012  0.5930195E+02  0.7816164E-02  0.1266605E+00
        -11   -1    0    0    0    0  0.00000000000E+00  0.00000000000E+00  0.45593999997E+02  0.45594000000E+02  0.51100000000E-03 0. -1.
         11   -1    0    0    0    0 -0.00000000000E+00 -0.00000000000E+00 -0.45593999997E+02  0.45594000000E+02  0.51100000000E-03 0.  1.
    9900012    2    1    2    0    0  0.20624247349E+02 -0.24280568451E+02 -0.13470144493E+01  0.59301952410E+02  0.50000015286E+02 0.  0.
         12    1    1    2    0    0 -0.20624247349E+02  0.24280568451E+02  0.13470144493E+01  0.31886047590E+02  0.00000000000E+00 0. -1.
         11    1    3    3    0    0  0.24455995089E+02 -0.46969433451E+00  0.54634816268E+01  0.25063238824E+02  0.51100000000E-03 0. -1.
        -11    1    3    3    0    0 -0.11694431508E+02 -0.10370039719E+02  0.28867802589E+01  0.15894368581E+02  0.51100000000E-03 0.  1.
        -12    1    3    3    0    0  0.78626837680E+01 -0.13440834397E+02 -0.96972763350E+01  0.18344345005E+02  0.00000000000E+00 0.  1.
</event>
<event>
 7    1  0.7579108E-012  0.5930189E+02  0.7816164E-02  0.1266605E+00
        -11   -1    0    0    0    0  0.00000000000E+00  0.00000000000E+00  0.45593999997E+02  0.45594000000E+02  0.51100000000E-03 0. -1.
         11   -1    0    0    0    0 -0.00000000000E+00 -0.00000000000E+00 -0.45593999997E+02  0.45594000000E+02  0.51100000000E-03 0.  1.
    9900012    2    1    2    0    0  0.22698442058E+02  0.20571350879E+02 -0.88501070707E+01  0.59301887913E+02  0.49999897660E+02 0.  0.
         12    1    1    2    0    0 -0.22698442058E+02 -0.20571350879E+02  0.88501070707E+01  0.31886112087E+02  0.00000000000E+00 0. -1.
         11    1    3    3    0    0  0.20913609610E+02  0.34618269964E+02 -0.41777174014E+01  0.40660263220E+02  0.51100000000E-03 0. -1.
        -11    1    3    3    0    0  0.17160220180E+01 -0.14695249117E+02 -0.68968041802E+01  0.16323632755E+02  0.51100000000E-03 0.  1.
         12    1    3    3    0    0  0.68810430172E-01  0.64833003213E+00  0.22244145109E+01  0.23179919375E+01  0.00000000000E+00 0. -1.
</event>
<event>
 7    1  0.7579108E-012  0.5930196E+02  0.7816164E-02  0.1266605E+00
        -11   -1    0    0    0    0  0.00000000000E+00  0.00000000000E+00  0.45593999997E+02  0.45594000000E+02  0.51100000000E-03 0. -1.
         11   -1    0    0    0    0 -0.00000000000E+00 -0.00000000000E+00 -0.45593999997E+02  0.45594000000E+02  0.51100000000E-03 0.  1.
    9900012    2    1    2    0    0  0.32733437500E+00 -0.19711273885E+02 -0.25061489101E+02  0.59301957569E+02  0.50000024696E+02 0.  0.
         12    1    1    2    0    0 -0.32733437500E+00  0.19711273885E+02  0.25061489101E+02  0.31886042431E+02  0.00000000000E+00 0. -1.
         11    1    3    3    0    0  0.76122365636E+01 -0.10899342292E+02 -0.35917166638E+02  0.38298624877E+02  0.51100000000E-03 0. -1.
        -11    1    3    3    0    0 -0.10881110241E+02 -0.93331835442E+01  0.83601384697E+01  0.16595143586E+02  0.51100000000E-03 0.  1.
         12    1    3    3    0    0  0.35962080522E+01  0.52125195132E+00  0.24955390678E+01  0.44081891056E+01  0.00000000000E+00 0. -1.
</event>
<event>
 7    1  0.7579108E-012  0.5930191E+02  0.7816164E-02  0.1266605E+00
        -11   -1    0    0    0    0  0.00000000000E+00  0.00000000000E+00  0.45593999997E+02  0.45594000000E+02  0.51100000000E-03 0. -1.
         11   -1    0    0    0    0 -0.00000000000E+00 -0.00000000000E+00 -0.45593999997E+02  0.45594000000E+02  0.51100000000E-03 0.  1.
    9900012    2    1    2    0    0  0.21630722885E+02  0.20300323496E+01 -0.23339104524E+02  0.59301905792E+02  0.49999930266E+02 0.  0.
         12    1    1    2    0    0 -0.21630722885E+02 -0.20300323496E+01  0.23339104524E+02  0.31886094208E+02  0.00000000000E+00 0. -1.
         11    1    3    3    0    0 -0.80650662373E+01  0.17887082955E+02 -0.75785490007E+01  0.21033959096E+02  0.51100000000E-03 0. -1.
        -11    1    3    3    0    0  0.20849998530E+02 -0.13051395408E+02 -0.71689296189E+01  0.25621376093E+02  0.51100000000E-03 0.  1.
         12    1    3    3    0    0  0.88457905930E+01 -0.28056551977E+01 -0.85916259044E+01  0.12646570602E+02  0.00000000000E+00 0. -1.
</event>
<event>
 7    1  0.7579108E-012  0.5930211E+02  0.7816164E-02  0.1266604E+00
        -11   -1    0    0    0    0  0.00000000000E+00  0.00000000000E+00  0.45593999997E+02  0.45594000000E+02  0.51100000000E-03 0. -1.
         11   -1    0    0    0    0 -0.00000000000E+00 -0.00000000000E+00 -0.45593999997E+02  0.45594000000E+02  0.51100000000E-03 0.  1.
    9900012    2    1    2    0    0 -0.14863952484E+01 -0.10083531359E+02 -0.30212960741E+02  0.59302110139E+02  0.50000302947E+02 0.  0.
         12    1    1    2    0    0  0.14863952484E+01  0.10083531359E+02  0.30212960741E+02  0.31885889861E+02  0.00000000000E+00 0. -1.
         11    1    3    3    0    0 -0.13404879770E+01 -0.18155810310E+02  0.72570598581E+01  0.19598348759E+02  0.51100000000E-03 0. -1.
        -11    1    3    3    0    0  0.43039374458E+01  0.22956528242E+01 -0.82183733051E+01  0.95569639253E+01  0.51100000000E-03 0.  1.
         12    1    3    3    0    0 -0.44498447172E+01  0.57766261267E+01 -0.29251647294E+02  0.30146797455E+02  0.00000000000E+00 0. -1.
</event>
<event>
 7    1  0.7579108E-012  0.5930195E+02  0.7816164E-02  0.1266605E+00
        -11   -1    0    0    0    0  0.00000000000E+00  0.00000000000E+00  0.45593999997E+02  0.45594000000E+02  0.51100000000E-03 0.  1.
         11   -1    0    0    0    0 -0.00000000000E+00 -0.00000000000E+00 -0.45593999997E+02  0.45594000000E+02  0.51100000000E-03 0. -1.
    9900012    2    1    2    0    0 -0.22106265437E+02  0.48765107743E+01  0.22455581901E+02  0.59301945251E+02  0.50000002232E+02 0.  0.
         12    1    1    2    0    0  0.22106265437E+02 -0.48765107743E+01 -0.22455581901E+02  0.31886054749E+02  0.00000000000E+00 0. -1.
         11    1    3    3    0    0 -0.20040563395E+02 -0.13553229944E+01 -0.12150087301E+02  0.23475214660E+02  0.51100000000E-03 0. -1.
        -11    1    3    3    0    0 -0.65105692623E+00  0.61790230370E+01  0.15950160706E+02  0.17117588253E+02  0.51100000000E-03 0.  1.
         12    1    3    3    0    0 -0.14146451156E+01  0.52810731704E-01  0.18655508496E+02  0.18709142338E+02  0.00000000000E+00 0. -1.
</event>
<event>
 7    1  0.7579108E-012  0.5930193E+02  0.7816164E-02  0.1266605E+00
        -11   -1    0    0    0    0  0.00000000000E+00  0.00000000000E+00  0.45593999997E+02  0.45594000000E+02  0.51100000000E-03 0.  1.
         11   -1    0    0    0    0 -0.00000000000E+00 -0.00000000000E+00 -0.45593999997E+02  0.45594000000E+02  0.51100000000E-03 0. -1.
    9900012    2    1    2    0    0  0.38494273047E+01  0.15635130437E+02  0.27521739076E+02  0.59301929121E+02  0.49999972813E+02 0.  0.
         12    1    1    2    0    0 -0.38494273047E+01 -0.15635130437E+02 -0.27521739076E+02  0.31886070879E+02  0.00000000000E+00 0. -1.
         11    1    3    3    0    0  0.77793957001E+01 -0.59064032621E+01 -0.54969067816E+01  0.11208058769E+02  0.51100000000E-03 0. -1.
        -11    1    3    3    0    0 -0.55059904692E+01  0.25749976669E+02  0.16731382012E+02  0.31198018748E+02  0.51100000000E-03 0.  1.
         12    1    3    3    0    0  0.15760220738E+01 -0.42084429706E+01  0.16287263845E+02  0.16895851603E+02  0.00000000000E+00 0. -1.
</event>
<event>
 7    1  0.7579108E-012  0.5930194E+02  0.7816164E-02  0.1266605E+00
        -11   -1    0    0    0    0  0.00000000000E+00  0.00000000000E+00  0.45593999997E+02  0.45594000000E+02  0.51100000000E-03 0.  1.
         11   -1    0    0    0    0 -0.00000000000E+00 -0.00000000000E+00 -0.45593999997E+02  0.45594000000E+02  0.51100000000E-03 0. -1.
    9900012    2    1    2    0    0 -0.26581681846E+02  0.93574219005E+01  0.14918907141E+02  0.59301938081E+02  0.49999989155E+02 0.  0.
         12    1    1    2    0    0  0.26581681846E+02 -0.93574219005E+01 -0.14918907141E+02  0.31886061919E+02  0.00000000000E+00 0. -1.
         11    1    3    3    0    0 -0.23606740266E+02  0.15838161290E+02  0.12330442021E+02  0.30986534814E+02  0.51100000000E-03 0. -1.
        -11    1    3    3    0    0  0.44911880465E+01 -0.56668806618E+01  0.13355789947E+02  0.15187541996E+02  0.51100000000E-03 0.  1.
         12    1    3    3    0    0 -0.74661296263E+01 -0.81385872790E+00 -0.10767324827E+02  0.13127861271E+02  0.00000000000E+00 0. -1.
</event>
<event>
 7    1  0.7579108E-012  0.5930186E+02  0.7816164E-02  0.1266605E+00
        -11   -1    0    0    0    0  0.00000000000E+00  0.00000000000E+00  0.45593999997E+02  0.45594000000E+02  0.51100000000E-03 0. -1.
         11   -1    0    0    0    0 -0.00000000000E+00 -0.00000000000E+00 -0.45593999997E+02  0.45594000000E+02  0.51100000000E-03 0.  1.
    9900012    2    1    2    0    0  0.30730462545E+02 -0.74856836420E+01 -0.40409334122E+01  0.59301859897E+02  0.49999846565E+02 0.  0.
         12    1    1    2    0    0 -0.30730462545E+02  0.74856836420E+01  0.40409334122E+01  0.31886140103E+02  0.00000000000E+00 0. -1.
         11    1    3    3    0    0 -0.84970782079E+01 -0.93717574454E+01  0.77117381159E+01  0.14815568862E+02  0.51100000000E-03 0. -1.
        -11    1    3    3    0    0  0.32625446006E+02  0.61037430126E+01 -0.14450164295E+02  0.36200589143E+02  0.51100000000E-03 0.  1.
        -12    1    3    3    0    0  0.66020947467E+01 -0.42176692092E+01  0.26974927674E+01  0.82857018914E+01  0.00000000000E+00 0.  1.
</event>
<event>
 7    1  0.7579108E-012  0.5930214E+02  0.7816164E-02  0.1266604E+00
        -11   -1    0    0    0    0  0.00000000000E+00  0.00000000000E+00  0.45593999997E+02  0.45594000000E+02  0.51100000000E-03 0. -1.
         11   -1    0    0    0    0 -0.00000000000E+00 -0.00000000000E+00 -0.45593999997E+02  0.45594000000E+02  0.51100000000E-03 0.  1.
    9900012    2    1    2    0    0 -0.29926026993E+02  0.10635264106E+01 -0.10954895545E+02  0.59302142376E+02  0.50000361739E+02 0.  0.
         12    1    1    2    0    0  0.29926026993E+02 -0.10635264106E+01  0.10954895545E+02  0.31885857624E+02  0.00000000000E+00 0. -1.
         11    1    3    3    0    0 -0.73698621219E+01  0.12351663788E+01 -0.18506603093E+02  0.19958328136E+02  0.51100000000E-03 0. -1.
        -11    1    3    3    0    0 -0.29879201222E+02 -0.42715553188E+01  0.66121517466E+01  0.30898760517E+02  0.51100000000E-03 0.  1.
        -12    1    3    3    0    0  0.73230363510E+01  0.40999153507E+01  0.93955580179E+00  0.84450537230E+01  0.00000000000E+00 0.  1.
</event>
<event>
 7    1  0.7579108E-012  0.5930188E+02  0.7816164E-02  0.1266605E+00
        -11   -1    0    0    0    0  0.00000000000E+00  0.00000000000E+00  0.45593999997E+02  0.45594000000E+02  0.51100000000E-03 0.  1.
         11   -1    0    0    0    0 -0.00000000000E+00 -0.00000000000E+00 -0.45593999997E+02  0.45594000000E+02  0.51100000000E-03 0. -1.
    9900012    2    1    2    0    0  0.12757027846E+02  0.65749806492E+01  0.28473711916E+02  0.59301883895E+02  0.49999890333E+02 0.  0.
         12    1    1    2    0    0 -0.12757027846E+02 -0.65749806492E+01 -0.28473711916E+02  0.31886116105E+02  0.00000000000E+00 0. -1.
         11    1    3    3    0    0  0.66964673344E+01  0.20835878312E+02  0.15651929644E+02  0.26906493671E+02  0.51100000000E-03 0. -1.
        -11    1    3    3    0    0  0.16065470000E+02 -0.91439762959E+01  0.86415059802E+01  0.20405569208E+02  0.51100000000E-03 0.  1.
        -12    1    3    3    0    0 -0.10004909488E+02 -0.51169213672E+01  0.41802762915E+01  0.11989821017E+02  0.00000000000E+00 0.  1.
</event>
<event>
 7    1  0.7579108E-012  0.5930196E+02  0.7816164E-02  0.1266605E+00
        -11   -1    0    0    0    0  0.00000000000E+00  0.00000000000E+00  0.45593999997E+02  0.45594000000E+02  0.51100000000E-03 0.  1.
         11   -1    0    0    0    0 -0.00000000000E+00 -0.00000000000E+00 -0.45593999997E+02  0.45594000000E+02  0.51100000000E-03 0. -1.
    9900012    2    1    2    0    0  0.27845573764E+02  0.40143409775E+01  0.15007625977E+02  0.59301956828E+02  0.50000023344E+02 0.  0.
         12    1    1    2    0    0 -0.27845573764E+02 -0.40143409775E+01 -0.15007625977E+02  0.31886043172E+02  0.00000000000E+00 0. -1.
         11    1    3    3    0    0 -0.66318382030E+01  0.16882317429E+02  0.10235771195E+02  0.20827024078E+02  0.51100000000E-03 0. -1.
        -11    1    3    3    0    0  0.63481303574E+01 -0.61506517784E+01  0.35608512562E+01  0.95293723961E+01  0.51100000000E-03 0.  1.
         12    1    3    3    0    0  0.28129281610E+02 -0.67173246728E+01  0.12110035250E+01  0.28945560354E+02  0.00000000000E+00 0. -1.
</event>
<event>
 7    1  0.7579108E-012  0.5930195E+02  0.7816164E-02  0.1266605E+00
        -11   -1    0    0    0    0  0.00000000000E+00  0.00000000000E+00  0.45593999997E+02  0.45594000000E+02  0.51100000000E-03 0. -1.
         11   -1    0    0    0    0 -0.00000000000E+00 -0.00000000000E+00 -0.45593999997E+02  0.45594000000E+02  0.51100000000E-03 0.  1.
    9900012    2    1    2    0    0 -0.25531209908E+02  0.61429784691E+01  0.18087055139E+02  0.59301946192E+02  0.50000003947E+02 0.  0.
         12    1    1    2    0    0  0.25531209908E+02 -0.61429784691E+01 -0.18087055139E+02  0.31886053808E+02  0.00000000000E+00 0. -1.
         11    1    3    3    0    0 -0.33806790498E+02 -0.10528951146E+02  0.65529670014E+01  0.36009710812E+02  0.51100000000E-03 0. -1.
        -11    1    3    3    0    0  0.79070677756E+01  0.77854355992E+01  0.45903962519E+01  0.12008599681E+02  0.51100000000E-03 0.  1.
         12    1    3    3    0    0  0.36851281420E+00  0.88864940161E+01  0.69436918861E+01  0.11283635700E+02  0.00000000000E+00 0. -1.
</event>
<event>
 7    1  0.7579108E-012  0.5930184E+02  0.7816164E-02  0.1266605E+00
        -11   -1    0    0    0    0  0.00000000000E+00  0.00000000000E+00  0.45593999997E+02  0.45594000000E+02  0.51100000000E-03 0.  1.
         11   -1    0    0    0    0 -0.00000000000E+00 -0.00000000000E+00 -0.45593999997E+02  0.45594000000E+02  0.51100000000E-03 0. -1.
    9900012    2    1    2    0    0 -0.53675965374E+01  0.19379729921E+02  0.24745547297E+02  0.59301841005E+02  0.49999812111E+02 0.  0.
         12    1    1    2    0    0  0.53675965374E+01 -0.19379729921E+02 -0.24745547297E+02  0.31886158995E+02  0.00000000000E+00 0. -1.
         11    1    3    3    0    0 -0.19941108220E+02  0.16871567346E+01 -0.12916737821E+01  0.20053995021E+02  0.51100000000E-03 0. -1.
        -11    1    3    3    0    0  0.40609256300E+01  0.10655645762E+02  0.13173631199E+01  0.11479083126E+02  0.51100000000E-03 0.  1.
         12    1    3    3    0    0  0.10512586053E+02  0.70369274249E+01  0.24719857959E+02  0.27768762857E+02  0.00000000000E+00 0. -1.
</event>
<event>
 7    1  0.7579108E-012  0.5930193E+02  0.7816164E-02  0.1266605E+00
        -11   -1    0    0    0    0  0.00000000000E+00  0.00000000000E+00  0.45593999997E+02  0.45594000000E+02  0.51100000000E-03 0.  1.
         11   -1    0    0    0    0 -0.00000000000E+00 -0.00000000000E+00 -0.45593999997E+02  0.45594000000E+02  0.51100000000E-03 0. -1.
    9900012    2    1    2    0    0 -0.24984473566E+02  0.15766883513E+02 -0.11995946480E+02  0.59301933026E+02  0.49999979936E+02 0.  0.
         12    1    1    2    0    0  0.24984473566E+02 -0.15766883513E+02  0.11995946480E+02  0.31886066974E+02  0.00000000000E+00 0. -1.
         11    1    3    3    0    0 -0.67862499402E+01 -0.56937005311E+00 -0.10343188696E+02  0.12383816987E+02  0.51100000000E-03 0. -1.
        -11    1    3    3    0    0 -0.10855350504E+02  0.21248019259E+02  0.14917654616E+02  0.28139889419E+02  0.51100000000E-03 0.  1.
        -12    1    3    3    0    0 -0.73428731219E+01 -0.49117656923E+01 -0.16570412400E+02  0.18778226620E+02  0.00000000000E+00 0.  1.
</event>
<event>
 7    1  0.7579108E-012  0.5930194E+02  0.7816164E-02  0.1266605E+00
        -11   -1    0    0    0    0  0.00000000000E+00  0.00000000000E+00  0.45593999997E+02  0.45594000000E+02  0.51100000000E-03 0. -1.
         11   -1    0    0    0    0 -0.00000000000E+00 -0.00000000000E+00 -0.45593999997E+02  0.45594000000E+02  0.51100000000E-03 0.  1.
    9900012    2    1    2    0    0 -0.38897549847E+01 -0.30873654465E+02  0.69576071701E+01  0.59301936721E+02  0.49999986675E+02 0.  0.
         12    1    1    2    0    0  0.38897549847E+01  0.30873654465E+02 -0.69576071701E+01  0.31886063279E+02  0.00000000000E+00 0. -1.
         11    1    3    3    0    0 -0.13201128758E+02 -0.23273376093E+02  0.25370374603E+02  0.36872425239E+02  0.51100000000E-03 0. -1.
        -11    1    3    3    0    0  0.32402167366E+01 -0.48346085698E+01 -0.61358304767E+01  0.84570006754E+01  0.51100000000E-03 0.  1.
         12    1    3    3    0    0  0.60711570363E+01 -0.27656698022E+01 -0.12276936956E+02  0.13972510807E+02  0.00000000000E+00 0. -1.
</event>
<event>
 7    1  0.7579108E-012  0.5930195E+02  0.7816164E-02  0.1266605E+00
        -11   -1    0    0    0    0  0.00000000000E+00  0.00000000000E+00  0.45593999997E+02  0.45594000000E+02  0.51100000000E-03 0.  1.
         11   -1    0    0    0    0 -0.00000000000E+00 -0.00000000000E+00 -0.45593999997E+02  0.45594000000E+02  0.51100000000E-03 0. -1.
    9900012    2    1    2    0    0  0.26530398077E+02  0.61166740756E+01  0.16596528425E+02  0.59301945374E+02  0.50000002454E+02 0.  0.
         12    1    1    2    0    0 -0.26530398077E+02 -0.61166740756E+01 -0.16596528425E+02  0.31886054626E+02  0.00000000000E+00 0. -1.
         11    1    3    3    0    0  0.20205652994E+01  0.12090850652E+02 -0.11066991116E+00  0.12259021238E+02  0.51100000000E-03 0. -1.
        -11    1    3    3    0    0  0.38783292289E+01 -0.29580029611E+01  0.24351360090E+02  0.24835055015E+02  0.51100000000E-03 0.  1.
        -12    1    3    3    0    0  0.20631503549E+02 -0.30161736156E+01 -0.76441617532E+01  0.22207869120E+02  0.00000000000E+00 0.  1.
</event>
<event>
 7    1  0.7579108E-012  0.5930195E+02  0.7816164E-02  0.1266605E+00
        -11   -1    0    0    0    0  0.00000000000E+00  0.00000000000E+00  0.45593999997E+02  0.45594000000E+02  0.51100000000E-03 0. -1.
         11   -1    0    0    0    0 -0.00000000000E+00 -0.00000000000E+00 -0.45593999997E+02  0.45594000000E+02  0.51100000000E-03 0.  1.
    9900012    2    1    2    0    0  0.16449536113E+01  0.22363085676E+02 -0.22669517013E+02  0.59301945447E+02  0.50000002589E+02 0.  0.
         12    1    1    2    0    0 -0.16449536113E+01 -0.22363085676E+02  0.22669517013E+02  0.31886054553E+02  0.00000000000E+00 0. -1.
         11    1    3    3    0    0 -0.96661227435E+01  0.76705969635E+01  0.19079365058E+01  0.12486481035E+02  0.51100000000E-03 0. -1.
        -11    1    3    3    0    0  0.20589542429E+02  0.20372278052E+02 -0.18046932300E+02  0.34126979593E+02  0.51100000000E-03 0.  1.
        -12    1    3    3    0    0 -0.92784660739E+01 -0.56797893387E+01 -0.65305212188E+01  0.12688484819E+02  0.00000000000E+00 0.  1.
</event>
<event>
 7    1  0.7579108E-012  0.5930193E+02  0.7816164E-02  0.1266605E+00
        -11   -1    0    0    0    0  0.00000000000E+00  0.00000000000E+00  0.45593999997E+02  0.45594000000E+02  0.51100000000E-03 0. -1.
         11   -1    0    0    0    0 -0.00000000000E+00 -0.00000000000E+00 -0.45593999997E+02  0.45594000000E+02  0.51100000000E-03 0.  1.
    9900012    2    1    2    0    0 -0.30513111476E+02  0.60732412845E+01 -0.69848070327E+01  0.59301925282E+02  0.49999965812E+02 0.  0.
         12    1    1    2    0    0  0.30513111476E+02 -0.60732412845E+01  0.69848070327E+01  0.31886074718E+02  0.00000000000E+00 0. -1.
         11    1    3    3    0    0  0.73875712742E+01 -0.95475327166E+01  0.55058239188E+01  0.13268220966E+02  0.51100000000E-03 0. -1.
        -11    1    3    3    0    0 -0.30157083941E+02  0.88196361356E+01 -0.22436460118E+01  0.31500311762E+02  0.51100000000E-03 0.  1.
         12    1    3    3    0    0 -0.77435988092E+01  0.68011378655E+01 -0.10246984940E+02  0.14533392554E+02  0.00000000000E+00 0. -1.
</event>
<event>
 7    1  0.7579108E-012  0.5930196E+02  0.7816164E-02  0.1266605E+00
        -11   -1    0    0    0    0  0.00000000000E+00  0.00000000000E+00  0.45593999997E+02  0.45594000000E+02  0.51100000000E-03 0. -1.
         11   -1    0    0    0    0 -0.00000000000E+00 -0.00000000000E+00 -0.45593999997E+02  0.45594000000E+02  0.51100000000E-03 0.  1.
    9900012    2    1    2    0    0 -0.58319535214E+01  0.20019623565E+02 -0.24123075316E+02  0.59301956466E+02  0.50000022684E+02 0.  0.
         12    1    1    2    0    0  0.58319535214E+01 -0.20019623565E+02  0.24123075316E+02  0.31886043534E+02  0.00000000000E+00 0. -1.
         11    1    3    3    0    0 -0.13532472266E+02  0.76999472570E+01  0.83421403234E+01  0.17663756646E+02  0.51100000000E-03 0. -1.
        -11    1    3    3    0    0  0.11123213454E+02  0.93055803594E+01 -0.33887993302E+02  0.36860762250E+02  0.51100000000E-03 0.  1.
        -12    1    3    3    0    0 -0.34226947086E+01  0.30140959487E+01  0.14227776631E+01  0.47774375700E+01  0.00000000000E+00 0.  1.
</event>
<event>
 7    1  0.7579108E-012  0.5930195E+02  0.7816164E-02  0.1266605E+00
        -11   -1    0    0    0    0  0.00000000000E+00  0.00000000000E+00  0.45593999997E+02  0.45594000000E+02  0.51100000000E-03 0. -1.
         11   -1    0    0    0    0 -0.00000000000E+00 -0.00000000000E+00 -0.45593999997E+02  0.45594000000E+02  0.51100000000E-03 0.  1.
    9900012    2    1    2    0    0  0.19910525333E+02 -0.49042780534E+00 -0.24900821563E+02  0.59301945792E+02  0.50000003218E+02 0.  0.
         12    1    1    2    0    0 -0.19910525333E+02  0.49042780534E+00  0.24900821563E+02  0.31886054208E+02  0.00000000000E+00 0. -1.
         11    1    3    3    0    0  0.53034540276E+01 -0.17782987817E+02  0.46620214855E+01  0.19133628117E+02  0.51100000000E-03 0. -1.
        -11    1    3    3    0    0 -0.27746822153E+01  0.55779917569E+01 -0.70468063541E+01  0.94058669716E+01  0.51100000000E-03 0.  1.
         12    1    3    3    0    0  0.17381753521E+02  0.11714568255E+02 -0.22516036694E+02  0.30762450703E+02  0.00000000000E+00 0. -1.
</event>
<event>
 7    1  0.7579108E-012  0.5930196E+02  0.7816164E-02  0.1266605E+00
        -11   -1    0    0    0    0  0.00000000000E+00  0.00000000000E+00  0.45593999997E+02  0.45594000000E+02  0.51100000000E-03 0.  1.
         11   -1    0    0    0    0 -0.00000000000E+00 -0.00000000000E+00 -0.45593999997E+02  0.45594000000E+02  0.51100000000E-03 0. -1.
    9900012    2    1    2    0    0 -0.22234168113E+02 -0.22783251553E+02  0.18124428318E+01  0.59301957097E+02  0.50000023835E+02 0.  0.
         12    1    1    2    0    0  0.22234168113E+02  0.22783251553E+02 -0.18124428318E+01  0.31886042903E+02  0.00000000000E+00 0. -1.
         11    1    3    3    0    0  0.98308047949E+01 -0.19589166933E+02 -0.31045070921E+01  0.22136353552E+02  0.51100000000E-03 0. -1.
        -11    1    3    3    0    0 -0.15162146599E+02  0.69888600814E+01 -0.49862777365E+00  0.16702798707E+02  0.51100000000E-03 0.  1.
        -12    1    3    3    0    0 -0.16902826309E+02 -0.10182944701E+02  0.54155776976E+01  0.20462804838E+02  0.00000000000E+00 0.  1.
</event>
<event>
 7    1  0.7579108E-012  0.5930195E+02  0.7816164E-02  0.1266605E+00
        -11   -1    0    0    0    0  0.00000000000E+00  0.00000000000E+00  0.45593999997E+02  0.45594000000E+02  0.51100000000E-03 0.  1.
         11   -1    0    0    0    0 -0.00000000000E+00 -0.00000000000E+00 -0.45593999997E+02  0.45594000000E+02  0.51100000000E-03 0. -1.
    9900012    2    1    2    0    0  0.25231657860E+02  0.13836569184E+02  0.13734366406E+02  0.59301952491E+02  0.50000015435E+02 0.  0.
         12    1    1    2    0    0 -0.25231657860E+02 -0.13836569184E+02 -0.13734366406E+02  0.31886047509E+02  0.00000000000E+00 0. -1.
         11    1    3    3    0    0  0.39953654702E+01 -0.13853238403E+02  0.29499407066E+00  0.14420893913E+02  0.51100000000E-03 0. -1.
        -11    1    3    3    0    0  0.10545589196E+02  0.23637845154E+02  0.19057345522E+02  0.32142488915E+02  0.51100000000E-03 0.  1.
         12    1    3    3    0    0  0.10690703194E+02  0.40519624324E+01 -0.56179731870E+01  0.12738569664E+02  0.00000000000E+00 0. -1.
</event>
<event>
 7    1  0.7579108E-012  0.5930195E+02  0.7816164E-02  0.1266605E+00
        -11   -1    0    0    0    0  0.00000000000E+00  0.00000000000E+00  0.45593999997E+02  0.45594000000E+02  0.51100000000E-03 0.  1.
         11   -1    0    0    0    0 -0.00000000000E+00 -0.00000000000E+00 -0.45593999997E+02  0.45594000000E+02  0.51100000000E-03 0. -1.
    9900012    2    1    2    0    0 -0.26291809873E+02  0.10822620300E+02  0.14433699995E+02  0.59301951764E+02  0.50000014110E+02 0.  0.
         12    1    1    2    0    0  0.26291809873E+02 -0.10822620300E+02 -0.14433699995E+02  0.31886048236E+02  0.00000000000E+00 0. -1.
         11    1    3    3    0    0  0.81331137711E+01  0.97033781265E+01  0.26154458213E+01  0.12928404534E+02  0.51100000000E-03 0. -1.
        -11    1    3    3    0    0 -0.31975172057E+02  0.30328046935E+01  0.19852530876E+02  0.37758873326E+02  0.51100000000E-03 0.  1.
         12    1    3    3    0    0 -0.24497515869E+01 -0.19135625200E+01 -0.80342767027E+01  0.86146739051E+01  0.00000000000E+00 0. -1.
</event>
<event>
 7    1  0.7579108E-012  0.5930193E+02  0.7816164E-02  0.1266605E+00
        -11   -1    0    0    0    0  0.00000000000E+00  0.00000000000E+00  0.45593999997E+02  0.45594000000E+02  0.51100000000E-03 0.  1.
         11   -1    0    0    0    0 -0.00000000000E+00 -0.00000000000E+00 -0.45593999997E+02  0.45594000000E+02  0.51100000000E-03 0. -1.
    9900012    2    1    2    0    0  0.31344115307E+02  0.58084164906E+01  0.72828851566E+00  0.59301926698E+02  0.49999968394E+02 0.  0.
         12    1    1    2    0    0 -0.31344115307E+02 -0.58084164906E+01 -0.72828851566E+00  0.31886073302E+02  0.00000000000E+00 0. -1.
         11    1    3    3    0    0  0.98249049618E+01  0.11727480330E+01 -0.23162220821E+02  0.25187150873E+02  0.51100000000E-03 0. -1.
        -11    1    3    3    0    0  0.17462066567E+02  0.78535862863E+01  0.18123801211E+02  0.26364270461E+02  0.51100000000E-03 0.  1.
         12    1    3    3    0    0  0.40571437776E+01 -0.32179178286E+01  0.57667081263E+01  0.77505053640E+01  0.00000000000E+00 0. -1.
</event>
<event>
 7    1  0.7579108E-012  0.5930191E+02  0.7816164E-02  0.1266605E+00
        -11   -1    0    0    0    0  0.00000000000E+00  0.00000000000E+00  0.45593999997E+02  0.45594000000E+02  0.51100000000E-03 0.  1.
         11   -1    0    0    0    0 -0.00000000000E+00 -0.00000000000E+00 -0.45593999997E+02  0.45594000000E+02  0.51100000000E-03 0. -1.
    9900012    2    1    2    0    0 -0.20443594126E+02  0.23008244494E+02  0.83308237232E+01  0.59301914016E+02  0.49999945265E+02 0.  0.
         12    1    1    2    0    0  0.20443594126E+02 -0.23008244494E+02 -0.83308237232E+01  0.31886085984E+02  0.00000000000E+00 0. -1.
         11    1    3    3    0    0 -0.13599150921E+02 -0.90096010103E+00 -0.16393689231E+02  0.21319045047E+02  0.51100000000E-03 0. -1.
        -11    1    3    3    0    0 -0.11455056016E+02  0.16912303792E+02  0.18282428180E+02  0.27413345442E+02  0.51100000000E-03 0.  1.
         12    1    3    3    0    0  0.46106128113E+01  0.69969008032E+01  0.64420847740E+01  0.10569523527E+02  0.00000000000E+00 0. -1.
</event>
<event>
 7    1  0.7579108E-012  0.5930199E+02  0.7816164E-02  0.1266605E+00
        -11   -1    0    0    0    0  0.00000000000E+00  0.00000000000E+00  0.45593999997E+02  0.45594000000E+02  0.51100000000E-03 0. -1.
         11   -1    0    0    0    0 -0.00000000000E+00 -0.00000000000E+00 -0.45593999997E+02  0.45594000000E+02  0.51100000000E-03 0.  1.
    9900012    2    1    2    0    0 -0.18574753058E+02  0.10747817870E+01 -0.25894807312E+02  0.59301989701E+02  0.50000083297E+02 0.  0.
         12    1    1    2    0    0  0.18574753058E+02 -0.10747817870E+01  0.25894807312E+02  0.31886010299E+02  0.00000000000E+00 0. -1.
         11    1    3    3    0    0  0.11036011466E+02  0.92281331276E+01  0.10162612153E+01  0.14421677337E+02  0.51100000000E-03 0. -1.
        -11    1    3    3    0    0 -0.27510508394E+02 -0.41154055523E+01 -0.13900194708E+02  0.31096302805E+02  0.51100000000E-03 0.  1.
         12    1    3    3    0    0 -0.21002561293E+01 -0.40379457883E+01 -0.13010873819E+02  0.13784009559E+02  0.00000000000E+00 0. -1.
</event>
<event>
 7    1  0.7579108E-012  0.5930197E+02  0.7816164E-02  0.1266605E+00
        -11   -1    0    0    0    0  0.00000000000E+00  0.00000000000E+00  0.45593999997E+02  0.45594000000E+02  0.51100000000E-03 0.  1.
         11   -1    0    0    0    0 -0.00000000000E+00 -0.00000000000E+00 -0.45593999997E+02  0.45594000000E+02  0.51100000000E-03 0. -1.
    9900012    2    1    2    0    0 -0.17603134333E+02 -0.26412783621E+02  0.30353665004E+01  0.59301969724E+02  0.50000046865E+02 0.  0.
         12    1    1    2    0    0  0.17603134333E+02  0.26412783621E+02 -0.30353665004E+01  0.31886030276E+02  0.00000000000E+00 0. -1.
         11    1    3    3    0    0  0.57710450085E+01 -0.11371112403E+02 -0.96994791578E+01  0.16021456050E+02  0.51100000000E-03 0. -1.
        -11    1    3    3    0    0 -0.17840359924E+02 -0.18487211139E+02  0.20696256541E+02  0.32990763146E+02  0.51100000000E-03 0.  1.
        -12    1    3    3    0    0 -0.55338194178E+01  0.34455399208E+01 -0.79614108825E+01  0.10289750528E+02  0.00000000000E+00 0.  1.
</event>
<event>
 7    1  0.7579108E-012  0.5930193E+02  0.7816164E-02  0.1266605E+00
        -11   -1    0    0    0    0  0.00000000000E+00  0.00000000000E+00  0.45593999997E+02  0.45594000000E+02  0.51100000000E-03 0.  1.
         11   -1    0    0    0    0 -0.00000000000E+00 -0.00000000000E+00 -0.45593999997E+02  0.45594000000E+02  0.51100000000E-03 0. -1.
    9900012    2    1    2    0    0  0.15042895689E+02 -0.20254829079E+02  0.19498060087E+02  0.59301934722E+02  0.49999983029E+02 0.  0.
         12    1    1    2    0    0 -0.15042895689E+02  0.20254829079E+02 -0.19498060087E+02  0.31886065278E+02  0.00000000000E+00 0. -1.
         11    1    3    3    0    0  0.92130050452E+01 -0.16864983842E+02 -0.12146646974E+02  0.22734295127E+02  0.51100000000E-03 0. -1.
        -11    1    3    3    0    0  0.41638795624E+01 -0.97847863736E+01  0.13052450604E+02  0.16835866607E+02  0.51100000000E-03 0.  1.
         12    1    3    3    0    0  0.16660110812E+01  0.63949411367E+01  0.18592256457E+02  0.19731772987E+02  0.00000000000E+00 0. -1.
</event>
<event>
 7    1  0.8412484E-012  0.5930194E+02  0.7816164E-02  0.1266605E+00
        -11   -1    0    0    0    0  0.00000000000E+00  0.00000000000E+00  0.45593999997E+02  0.45594000000E+02  0.51100000000E-03 0. -1.
         11   -1    0    0    0    0 -0.00000000000E+00 -0.00000000000E+00 -0.45593999997E+02  0.45594000000E+02  0.51100000000E-03 0.  1.
    9900012    2    1    2    0    0  0.18623407159E+02  0.70729424740E+01 -0.24897044207E+02  0.59301943177E+02  0.49999998449E+02 0.  0.
         12    1    1    2    0    0 -0.18623407159E+02 -0.70729424740E+01  0.24897044207E+02  0.31886056823E+02  0.00000000000E+00 0. -1.
         11    1    3    3    0    0 -0.49162063203E+01 -0.83026631624E+01 -0.71878791281E+00  0.96757406175E+01  0.51100000000E-03 0. -1.
        -11    1    3    3    0    0  0.78492802565E+01  0.21550118359E+02 -0.23371829918E+02  0.32745400224E+02  0.51100000000E-03 0.  1.
        -12    1    3    3    0    0  0.15690333223E+02 -0.61745127227E+01 -0.80642637659E+00  0.16880802336E+02  0.00000000000E+00 0.  1.
</event>
<event>
 7    1  0.7579108E-012  0.5930195E+02  0.7816164E-02  0.1266605E+00
        -11   -1    0    0    0    0  0.00000000000E+00  0.00000000000E+00  0.45593999997E+02  0.45594000000E+02  0.51100000000E-03 0. -1.
         11   -1    0    0    0    0 -0.00000000000E+00 -0.00000000000E+00 -0.45593999997E+02  0.45594000000E+02  0.51100000000E-03 0.  1.
    9900012    2    1    2    0    0 -0.22549433624E+02  0.20040829560E+02 -0.10325141637E+02  0.59301947311E+02  0.50000005989E+02 0.  0.
         12    1    1    2    0    0  0.22549433624E+02 -0.20040829560E+02  0.10325141637E+02  0.31886052689E+02  0.00000000000E+00 0. -1.
         11    1    3    3    0    0 -0.30068402467E+02  0.14156131082E+02  0.88041836640E+01  0.34380496279E+02  0.51100000000E-03 0. -1.
        -11    1    3    3    0    0  0.51741856432E+01  0.13215811971E+01 -0.19056499112E+02  0.19790627393E+02  0.51100000000E-03 0.  1.
        -12    1    3    3    0    0  0.23447831990E+01  0.45631172809E+01 -0.72826188173E-01  0.51308236399E+01  0.00000000000E+00 0.  1.
</event>
<event>
 7    1  0.7579108E-012  0.5930194E+02  0.7816164E-02  0.1266605E+00
        -11   -1    0    0    0    0  0.00000000000E+00  0.00000000000E+00  0.45593999997E+02  0.45594000000E+02  0.51100000000E-03 0. -1.
         11   -1    0    0    0    0 -0.00000000000E+00 -0.00000000000E+00 -0.45593999997E+02  0.45594000000E+02  0.51100000000E-03 0.  1.
    9900012    2    1    2    0    0  0.29331452808E+02 -0.10411116185E+01 -0.12462042601E+02  0.59301944380E+02  0.50000000643E+02 0.  0.
         12    1    1    2    0    0 -0.29331452808E+02  0.10411116185E+01  0.12462042601E+02  0.31886055620E+02  0.00000000000E+00 0. -1.
         11    1    3    3    0    0  0.65645765749E+01 -0.42442920090E+00  0.16864718595E+02  0.18102279948E+02  0.51100000000E-03 0. -1.
        -11    1    3    3    0    0  0.20018994634E+02  0.67057933305E+01 -0.21105020957E+02  0.29852130916E+02  0.51100000000E-03 0.  1.
         12    1    3    3    0    0  0.27478815987E+01 -0.73224757481E+01 -0.82217402389E+01  0.11347533517E+02  0.00000000000E+00 0. -1.
</event>
<event>
 7    1  0.7579108E-012  0.5930194E+02  0.7816164E-02  0.1266605E+00
        -11   -1    0    0    0    0  0.00000000000E+00  0.00000000000E+00  0.45593999997E+02  0.45594000000E+02  0.51100000000E-03 0.  1.
         11   -1    0    0    0    0 -0.00000000000E+00 -0.00000000000E+00 -0.45593999997E+02  0.45594000000E+02  0.51100000000E-03 0. -1.
    9900012    2    1    2    0    0 -0.28974333425E+02  0.18522391019E+01 -0.13182491260E+02  0.59301939363E+02  0.49999991493E+02 0.  0.
         12    1    1    2    0    0  0.28974333425E+02 -0.18522391019E+01  0.13182491260E+02  0.31886060637E+02  0.00000000000E+00 0. -1.
         11    1    3    3    0    0  0.10698986856E+01  0.12623405746E+02 -0.86766646750E+01  0.15355115303E+02  0.51100000000E-03 0. -1.
        -11    1    3    3    0    0 -0.35954358813E+02 -0.69596747897E+01 -0.29222360247E+01  0.36738160739E+02  0.51100000000E-03 0.  1.
         12    1    3    3    0    0  0.59101267026E+01 -0.38114918549E+01 -0.15835905604E+01  0.72086633202E+01  0.00000000000E+00 0. -1.
</event>
<event>
 7    1  0.7579108E-012  0.5930186E+02  0.7816164E-02  0.1266605E+00
        -11   -1    0    0    0    0  0.00000000000E+00  0.00000000000E+00  0.45593999997E+02  0.45594000000E+02  0.51100000000E-03 0.  1.
         11   -1    0    0    0    0 -0.00000000000E+00 -0.00000000000E+00 -0.45593999997E+02  0.45594000000E+02  0.51100000000E-03 0. -1.
    9900012    2    1    2    0    0 -0.16277970363E+02 -0.18698143176E+02  0.20053261247E+02  0.59301856238E+02  0.49999839892E+02 0.  0.
         12    1    1    2    0    0  0.16277970363E+02  0.18698143176E+02 -0.20053261247E+02  0.31886143762E+02  0.00000000000E+00 0. -1.
         11    1    3    3    0    0 -0.89299856828E+01 -0.75240095241E+01 -0.54159089736E+01  0.12871963094E+02  0.51100000000E-03 0. -1.
        -11    1    3    3    0    0  0.83803836978E+01  0.17476203506E+01  0.24609642876E+02  0.26056084329E+02  0.51100000000E-03 0.  1.
        -12    1    3    3    0    0 -0.15728368378E+02 -0.12921754003E+02  0.85952734428E+00  0.20373808814E+02  0.00000000000E+00 0.  1.
</event>
<event>
 7    1  0.7579108E-012  0.5930191E+02  0.7816164E-02  0.1266605E+00
        -11   -1    0    0    0    0  0.00000000000E+00  0.00000000000E+00  0.45593999997E+02  0.45594000000E+02  0.51100000000E-03 0.  1.
         11   -1    0    0    0    0 -0.00000000000E+00 -0.00000000000E+00 -0.45593999997E+02  0.45594000000E+02  0.51100000000E-03 0. -1.
    9900012    2    1    2    0    0  0.28021933352E+02 -0.14314173323E+02 -0.51573403947E+01  0.59301914216E+02  0.49999945630E+02 0.  0.
         12    1    1    2    0    0 -0.28021933352E+02  0.14314173323E+02  0.51573403947E+01  0.31886085784E+02  0.00000000000E+00 0. -1.
         11    1    3    3    0    0  0.12428657745E+02 -0.87368030522E+00  0.57895005584E+01  0.13738746944E+02  0.51100000000E-03 0.  1.
        -11    1    3    3    0    0  0.63970812383E+00  0.12172374479E+02 -0.10202178956E+02  0.15895294355E+02  0.51100000000E-03 0. -1.
        -12    1    3    3    0    0  0.14953567483E+02 -0.25612867497E+02 -0.74466199766E+00  0.29667872916E+02  0.00000000000E+00 0.  1.
</event>
<event>
 7    1  0.7579108E-012  0.5930194E+02  0.7816164E-02  0.1266605E+00
        -11   -1    0    0    0    0  0.00000000000E+00  0.00000000000E+00  0.45593999997E+02  0.45594000000E+02  0.51100000000E-03 0.  1.
         11   -1    0    0    0    0 -0.00000000000E+00 -0.00000000000E+00 -0.45593999997E+02  0.45594000000E+02  0.51100000000E-03 0. -1.
    9900012    2    1    2    0    0  0.12459560091E+02 -0.71589814210E+01  0.28464526885E+02  0.59301938101E+02  0.49999989191E+02 0.  0.
         12    1    1    2    0    0 -0.12459560091E+02  0.71589814210E+01 -0.28464526885E+02  0.31886061899E+02  0.00000000000E+00 0. -1.
         11    1    3    3    0    0  0.19799656480E+01 -0.99888920400E+00  0.19520263952E+02  0.19645832857E+02  0.51100000000E-03 0.  1.
        -11    1    3    3    0    0  0.59303988118E+01  0.93401117857E+01 -0.98923809444E+01  0.14841378617E+02  0.51100000000E-03 0. -1.
        -12    1    3    3    0    0  0.45491956308E+01 -0.15500204003E+02  0.18836643878E+02  0.24814726627E+02  0.00000000000E+00 0.  1.
</event>
<event>
 7    1  0.7579108E-012  0.5930222E+02  0.7816164E-02  0.1266604E+00
        -11   -1    0    0    0    0  0.00000000000E+00  0.00000000000E+00  0.45593999997E+02  0.45594000000E+02  0.51100000000E-03 0.  1.
         11   -1    0    0    0    0 -0.00000000000E+00 -0.00000000000E+00 -0.45593999997E+02  0.45594000000E+02  0.51100000000E-03 0. -1.
    9900012    2    1    2    0    0 -0.30415778911E+02 -0.25796549683E+01  0.92156831966E+01  0.59302218792E+02  0.50000501101E+02 0.  0.
         12    1    1    2    0    0  0.30415778911E+02  0.25796549683E+01 -0.92156831966E+01  0.31885781208E+02  0.00000000000E+00 0. -1.
         11    1    3    3    0    0 -0.14052175450E+02 -0.80950751109E+01 -0.76154106845E+01  0.17916147915E+02  0.51100000000E-03 0. -1.
        -11    1    3    3    0    0 -0.25863746818E+00 -0.78340330838E+01  0.18806565316E+02  0.20374637836E+02  0.51100000000E-03 0.  1.
        -12    1    3    3    0    0 -0.16104965992E+02  0.13349453226E+02 -0.19754714350E+01  0.21011433041E+02  0.00000000000E+00 0.  1.
</event>
<event>
 7    1  0.7579108E-012  0.5930192E+02  0.7816164E-02  0.1266605E+00
        -11   -1    0    0    0    0  0.00000000000E+00  0.00000000000E+00  0.45593999997E+02  0.45594000000E+02  0.51100000000E-03 0. -1.
         11   -1    0    0    0    0 -0.00000000000E+00 -0.00000000000E+00 -0.45593999997E+02  0.45594000000E+02  0.51100000000E-03 0.  1.
    9900012    2    1    2    0    0 -0.50897052178E+01  0.20748030738E+02 -0.23671417538E+02  0.59301923305E+02  0.49999962207E+02 0.  0.
         12    1    1    2    0    0  0.50897052178E+01 -0.20748030738E+02  0.23671417538E+02  0.31886076695E+02  0.00000000000E+00 0. -1.
         11    1    3    3    0    0 -0.16414464209E+02  0.13128607685E+02 -0.13962449555E+02  0.25233806151E+02  0.51100000000E-03 0. -1.
        -11    1    3    3    0    0  0.96012876329E+01 -0.89422915164E+01  0.25817512119E+01  0.13372162927E+02  0.51100000000E-03 0.  1.
        -12    1    3    3    0    0  0.17234713587E+01  0.16561714570E+02 -0.12290719196E+02  0.20695954227E+02  0.00000000000E+00 0.  1.
</event>
<event>
 7    1  0.7579108E-012  0.5930195E+02  0.7816164E-02  0.1266605E+00
        -11   -1    0    0    0    0  0.00000000000E+00  0.00000000000E+00  0.45593999997E+02  0.45594000000E+02  0.51100000000E-03 0.  1.
         11   -1    0    0    0    0 -0.00000000000E+00 -0.00000000000E+00 -0.45593999997E+02  0.45594000000E+02  0.51100000000E-03 0. -1.
    9900012    2    1    2    0    0 -0.12374639789E+02 -0.28024071078E+02  0.88453490652E+01  0.59301945528E+02  0.50000002736E+02 0.  0.
         12    1    1    2    0    0  0.12374639789E+02  0.28024071078E+02 -0.88453490652E+01  0.31886054472E+02  0.00000000000E+00 0. -1.
         11    1    3    3    0    0 -0.45051148883E+01 -0.91442398856E+01 -0.98779575194E+01  0.14194619694E+02  0.51100000000E-03 0. -1.
        -11    1    3    3    0    0  0.29279330262E+01 -0.11834758181E+02  0.27111240153E+02  0.29726312181E+02  0.51100000000E-03 0.  1.
        -12    1    3    3    0    0 -0.10797457927E+02 -0.70450730118E+01 -0.83879335683E+01  0.15381013652E+02  0.00000000000E+00 0.  1.
</event>
<event>
 7    1  0.7579108E-012  0.5930195E+02  0.7816164E-02  0.1266605E+00
        -11   -1    0    0    0    0  0.00000000000E+00  0.00000000000E+00  0.45593999997E+02  0.45594000000E+02  0.51100000000E-03 0. -1.
         11   -1    0    0    0    0 -0.00000000000E+00 -0.00000000000E+00 -0.45593999997E+02  0.45594000000E+02  0.51100000000E-03 0.  1.
    9900012    2    1    2    0    0  0.14538503447E+02  0.65719220271E+01 -0.27607280915E+02  0.59301949741E+02  0.50000010419E+02 0.  0.
         12    1    1    2    0    0 -0.14538503447E+02 -0.65719220271E+01  0.27607280915E+02  0.31886050259E+02  0.00000000000E+00 0. -1.
         11    1    3    3    0    0  0.60466266452E+00  0.15869068108E+01  0.41884422946E+01  0.45196171608E+01  0.51100000000E-03 0. -1.
        -11    1    3    3    0    0  0.73009688460E+01  0.12092496249E+02 -0.39772817587E+02  0.42206748639E+02  0.51100000000E-03 0.  1.
        -12    1    3    3    0    0  0.66328719369E+01 -0.71074810325E+01  0.79770943771E+01  0.12575583941E+02  0.00000000000E+00 0.  1.
</event>
<event>
 7    1  0.7579108E-012  0.5930190E+02  0.7816164E-02  0.1266605E+00
        -11   -1    0    0    0    0  0.00000000000E+00  0.00000000000E+00  0.45593999997E+02  0.45594000000E+02  0.51100000000E-03 0.  1.
         11   -1    0    0    0    0 -0.00000000000E+00 -0.00000000000E+00 -0.45593999997E+02  0.45594000000E+02  0.51100000000E-03 0. -1.
    9900012    2    1    2    0    0 -0.30529074180E+02  0.78083202222E+01 -0.48712570360E+01  0.59301899892E+02  0.49999919506E+02 0.  0.
         12    1    1    2    0    0  0.30529074180E+02 -0.78083202222E+01  0.48712570360E+01  0.31886100108E+02  0.00000000000E+00 0. -1.
         11    1    3    3    0    0  0.20763480788E+00 -0.94490611303E+01 -0.26618678183E+01  0.98190329973E+01  0.51100000000E-03 0. -1.
        -11    1    3    3    0    0 -0.16575323431E+02  0.16072265476E+02 -0.17227438536E+02  0.28807007882E+02  0.51100000000E-03 0.  1.
        -12    1    3    3    0    0 -0.14161385557E+02  0.11851158770E+01  0.15018049319E+02  0.20675859012E+02  0.00000000000E+00 0.  1.
</event>
<event>
 7    1  0.7579108E-012  0.5930194E+02  0.7816164E-02  0.1266605E+00
        -11   -1    0    0    0    0  0.00000000000E+00  0.00000000000E+00  0.45593999997E+02  0.45594000000E+02  0.51100000000E-03 0. -1.
         11   -1    0    0    0    0 -0.00000000000E+00 -0.00000000000E+00 -0.45593999997E+02  0.45594000000E+02  0.51100000000E-03 0.  1.
    9900012    2    1    2    0    0 -0.11950810894E+01  0.16196528371E+02 -0.27440203958E+02  0.59301944375E+02  0.50000000633E+02 0.  0.
         12    1    1    2    0    0  0.11950810894E+01 -0.16196528371E+02  0.27440203958E+02  0.31886055625E+02  0.00000000000E+00 0. -1.
         11    1    3    3    0    0  0.46410114466E+01  0.16205127143E+02 -0.20715605046E+00  0.16857877887E+02  0.51100000000E-03 0. -1.
        -11    1    3    3    0    0  0.28200808371E+01 -0.14953810586E+02 -0.11400707202E+02  0.19014348055E+02  0.51100000000E-03 0.  1.
        -12    1    3    3    0    0 -0.86561733731E+01  0.14945211814E+02 -0.15832340706E+02  0.23429718434E+02  0.00000000000E+00 0.  1.
</event>
<event>
 7    1  0.7579108E-012  0.5930200E+02  0.7816164E-02  0.1266605E+00
        -11   -1    0    0    0    0  0.00000000000E+00  0.00000000000E+00  0.45593999997E+02  0.45594000000E+02  0.51100000000E-03 0.  1.
         11   -1    0    0    0    0 -0.00000000000E+00 -0.00000000000E+00 -0.45593999997E+02  0.45594000000E+02  0.51100000000E-03 0. -1.
    9900012    2    1    2    0    0  0.47535149343E+01  0.51893688758E+00  0.31525416798E+02  0.59301998306E+02  0.50000098991E+02 0.  0.
         12    1    1    2    0    0 -0.47535149343E+01 -0.51893688758E+00 -0.31525416798E+02  0.31886001694E+02  0.00000000000E+00 0. -1.
         11    1    3    3    0    0  0.19040814611E+02 -0.32944748241E+01 -0.33731219649E+01  0.19615915413E+02  0.51100000000E-03 0. -1.
        -11    1    3    3    0    0 -0.28882095107E+01  0.59455755587E+01  0.78885656365E+01  0.10291797266E+02  0.51100000000E-03 0.  1.
         12    1    3    3    0    0 -0.11399090166E+02 -0.21321638470E+01  0.27009973126E+02  0.29394285628E+02  0.00000000000E+00 0. -1.
</event>
<event>
 7    1  0.7579108E-012  0.5930195E+02  0.7816164E-02  0.1266605E+00
        -11   -1    0    0    0    0  0.00000000000E+00  0.00000000000E+00  0.45593999997E+02  0.45594000000E+02  0.51100000000E-03 0.  1.
         11   -1    0    0    0    0 -0.00000000000E+00 -0.00000000000E+00 -0.45593999997E+02  0.45594000000E+02  0.51100000000E-03 0. -1.
    9900012    2    1    2    0    0  0.11435039676E+02 -0.29526295447E+02 -0.37627258751E+01  0.59301947230E+02  0.50000005841E+02 0.  0.
         12    1    1    2    0    0 -0.11435039676E+02  0.29526295447E+02  0.37627258751E+01  0.31886052770E+02  0.00000000000E+00 0. -1.
         11    1    3    3    0    0  0.13882110934E+02  0.69701908089E+01 -0.92431068152E+01  0.18075718181E+02  0.51100000000E-03 0. -1.
        -11    1    3    3    0    0 -0.22163935939E+01 -0.10803812577E+02  0.10292896850E+02  0.15085704909E+02  0.51100000000E-03 0.  1.
        -12    1    3    3    0    0 -0.23067766466E+00 -0.25692673679E+02 -0.48125159097E+01  0.26140524140E+02  0.00000000000E+00 0.  1.
</event>
<event>
 7    1  0.7579108E-012  0.5930197E+02  0.7816164E-02  0.1266605E+00
        -11   -1    0    0    0    0  0.00000000000E+00  0.00000000000E+00  0.45593999997E+02  0.45594000000E+02  0.51100000000E-03 0.  1.
         11   -1    0    0    0    0 -0.00000000000E+00 -0.00000000000E+00 -0.45593999997E+02  0.45594000000E+02  0.51100000000E-03 0. -1.
    9900012    2    1    2    0    0 -0.76574288485E+00 -0.20732438770E+02  0.24213603125E+02  0.59301969269E+02  0.50000046033E+02 0.  0.
         12    1    1    2    0    0  0.76574288485E+00  0.20732438770E+02 -0.24213603125E+02  0.31886030731E+02  0.00000000000E+00 0. -1.
         11    1    3    3    0    0  0.55488661352E+01  0.31938750851E+01 -0.12257194991E+02  0.13828578479E+02  0.51100000000E-03 0. -1.
        -11    1    3    3    0    0 -0.46764508497E+01 -0.15544373675E+02  0.14005547643E+02  0.21439498841E+02  0.51100000000E-03 0.  1.
         12    1    3    3    0    0 -0.16381581704E+01 -0.83819401798E+01  0.22465250473E+02  0.24033891949E+02  0.00000000000E+00 0. -1.
</event>
<event>
 7    1  0.7579108E-012  0.5930194E+02  0.7816164E-02  0.1266605E+00
        -11   -1    0    0    0    0  0.00000000000E+00  0.00000000000E+00  0.45593999997E+02  0.45594000000E+02  0.51100000000E-03 0. -1.
         11   -1    0    0    0    0 -0.00000000000E+00 -0.00000000000E+00 -0.45593999997E+02  0.45594000000E+02  0.51100000000E-03 0.  1.
    9900012    2    1    2    0    0  0.35243940606E+01  0.11112312297E+02 -0.29678545355E+02  0.59301938900E+02  0.49999990648E+02 0.  0.
         12    1    1    2    0    0 -0.35243940606E+01 -0.11112312297E+02  0.29678545355E+02  0.31886061100E+02  0.00000000000E+00 0. -1.
         11    1    3    3    0    0  0.85813415864E-01 -0.26142019322E+01  0.19612847519E+01  0.32692589105E+01  0.51100000000E-03 0. -1.
        -11    1    3    3    0    0  0.47114119219E+01  0.28181972640E+02 -0.10604373301E+02  0.30477429642E+02  0.51100000000E-03 0.  1.
        -12    1    3    3    0    0 -0.12728312772E+01 -0.14455458411E+02 -0.21035456806E+02  0.25555250348E+02  0.00000000000E+00 0.  1.
</event>
